 Default number of threads is:           32

         
 *******************************************************************************
 *                                                                             *
 *                               CRYSTAL23                                     *
 *                      public : 1.0.1 - October 2022                          *
 *                       HTTP://WWW.CRYSTAL.UNITO.IT                           *
 *                                                                             *
 *                              MAIN AUTHORS                                   *
 *                                                                             *
 *  R. DOVESI(1,11), V.R. SAUNDERS(2), C. ROETTI(1,11), R. ORLANDO(1,11),      *
 *  C.M. ZICOVICH-WILSON(1,3), F. PASCALE(4), B. CIVALLERI(1,11),              *
 *  K. DOLL(5), N.M. HARRISON(6), I.J. BUSH(7), Ph. D'ARCO(8),                 *
 *  M. LLUNELL(9), M. CAUSA'(10), Y. NOEL(8), L. MASCHIO(1,11), A. ERBA(1,11)  *
 *  M. RE'RAT(14), S. CASASSA(1,11), B.G. SEARLE(2), J.K. DESMARAIS(1)         *
 *                                                                             *
 *        CONTRIBUTIONS TO THE CODE HAVE ALSO BEEN GIVEN BY                    *
 *                                                                             *
 *  M. FERRABONE(1,11), M. DE LA PIERRE(1,11), M. FERRERO(1,11),               *
 *  J. BAIMA(1,11), E. ALBANESE(1,11), M.F. PEINTINGER(12), R. BAST(13),       *
 *  B. KIRTMAN(15), V. LACIVITA(1,11), R. DEMICHELIS(1,16)                     *
 *  G. BRANDEBURG(17), S. SALUSTRO(1,11), G. SANSONE(1,11)                     *
 *  M.T. RUGGIERO(18), L.E. DAGA(1), L. DONA'(1), A. COSSARD(1)                *
 *                                                                             *
 * (1) THEORETICAL CHEMISTRY GROUP - UNIVERSITA' DI TORINO - TORINO (ITALY)    *
 * (2) SCIENTIFIC COMPUTING DEPARTMENT - STFC DARESBURY (UK)                   *
 * (3) UNIVERSIDAD AUTONOMA DEL ESTADO DE MORELOS - CUERNAVACA (MEXICO)        *
 * (4) UNIVERSITE' DE LORRAINE - NANCY (FRANCE)                                *
 * (5) UNIVERSITAET STUTTGART- STUTTGART (GERMANY)                             *
 * (6) IMPERIAL COLLEGE - LONDON (UK)                                          *
 * (7) SCIENTIFIC COMPUTING DEPARTMENT - STFC RAL (UK)                         *
 * (8) UPMC - SORBONNE UNIVERSITES - PARIS (FRANCE)                            *
 * (9) UNIVERSIDAD DE BARCELONA - BARCELONA (SPAIN)                            *
 *(10) UNIVERSITA' DI NAPOLI "FEDERICO II" - NAPOLI (ITALY)                    *
 *(11) NIS - NANOSTRUCTURED INTERFACES AND SURFACES - TORINO (ITALY)           *
 *(12) MPI FUER CHEMISCHE ENERGIEKONVERSION - MUELHEIM AN DER RUHR (GERMANY)   *
 *(13) UNIVERSITY OF TROMSO - TROMSO (NORWAY)                                  *
 *(14) UNIVERSITE' DE PAU ET DES PAYS DE L'ADOUR - PAU (FRANCE)                *
 *(15) UNIVERSITY OF CALIFORNIA SANTA BARBARA - SANTA BARBARA (USA)            *
 *(16) CURTIN UNIVERSITY - PERTH (AUSTRALIA)                                   *
 *(17) UNIVERSITY COLLEGE LONDON - LONDON (UK)                                 *
 *(18) UNIVERSITY OF VERMONT - BURLINGTON (USA)                                *
 *                                                                             *
 *******************************************************************************
 EEEEEEEEEE STARTING  DATE 02 12 2025 TIME 08:05:49.6
 COF-5_z43_inc_L020                                                              

 CRYSTAL CALCULATION
 (INPUT ACCORDING TO THE INTERNATIONAL TABLES FOR X-RAY CRYSTALLOGRAPHY)
 CRYSTAL FAMILY                       :  TRICLINIC   
 CRYSTAL CLASS  (GROTH - 1921)        :  TRICLINIC PEDIAL                     

 SPACE GROUP (NONCENTROSYMMETRIC)     :  P 1             

 LATTICE PARAMETERS  (ANGSTROMS AND DEGREES) - CONVENTIONAL CELL
        A           B           C        ALPHA        BETA       GAMMA
    15.02070    15.04439     4.74236    68.59355    89.99935   120.05310


 NUMBER OF IRREDUCIBLE ATOMS IN THE CONVENTIONAL CELL:   42

 INPUT COORDINATES

 ATOM AT. N.              COORDINATES
   1   5     5.770465800000E-01  1.511802300000E-01  5.006562800000E-01
   2   5     7.358252100000E-01  3.102054200000E-01  5.006662700000E-01
   3   5     5.767036700000E-01  3.101124400000E-01  4.992362900000E-01
   4   5     1.898507000000E-01  5.367277100000E-01  5.054513100000E-01
   5   5     3.481137500000E-01  5.356057900000E-01  5.094952300000E-01
   6   5     3.488458900000E-01  6.958605500000E-01  5.035295500000E-01
   7   1     8.655512500000E-01  2.320550100000E-01  5.045547000000E-01
   8   1     6.089208000000E-02  6.157265400000E-01  4.929643000000E-01
   9   1     8.665204500000E-01  5.184483000000E-01  4.928260100000E-01
  10   1     6.002387000000E-02  3.293350400000E-01  5.041232700000E-01
  11   1     5.555539300000E-01  8.257830500000E-01  5.042453400000E-01
  12   1     3.701576100000E-01  2.267187000000E-02  4.945965400000E-01
  13   1     2.717166400000E-01  8.287593100000E-01  4.959033900000E-01
  14   1     6.537988900000E-01  1.975895000000E-02  5.023840000000E-01
  15   1     5.556478800000E-01  6.141086900000E-01  4.978008800000E-01
  16   1     3.676994900000E-01  2.312233300000E-01  5.060840600000E-01
  17   1     2.703635500000E-01  3.272008400000E-01  5.057191800000E-01
  18   1     6.533673800000E-01  5.181060800000E-01  4.987343300000E-01
  19   6     8.551369800000E-01  3.696729100000E-01  5.004162800000E-01
  20   6     9.095251300000E-01  3.162251700000E-01  5.021823800000E-01
  21   6     1.703472000000E-02  5.315433600000E-01  4.957894400000E-01
  22   6     9.100302600000E-01  4.779666700000E-01  4.961266100000E-01
  23   6     1.660536000000E-02  3.698889900000E-01  5.015386700000E-01
  24   6     7.127486000000E-02  4.778964200000E-01  4.993553900000E-01
  25   6     4.079346700000E-01  8.154872500000E-01  5.018977500000E-01
  26   6     5.157778700000E-01  8.699093600000E-01  5.022879200000E-01
  27   6     4.097248800000E-01 -2.173517000000E-02  4.970115300000E-01
  28   6     3.555203900000E-01  8.711378000000E-01  4.981302100000E-01
  29   6     5.699719100000E-01 -2.300334000000E-02  5.008505100000E-01
  30   6     5.174175600000E-01  3.223937000000E-02  4.992262500000E-01
  31   6     4.076817100000E-01  4.767256200000E-01  4.999974700000E-01
  32   6     5.155733800000E-01  5.300653100000E-01  4.994459800000E-01
  33   6     4.083873200000E-01  3.153411100000E-01  5.039695400000E-01
  34   6     3.545327000000E-01  3.684800800000E-01  5.033616000000E-01
  35   6     5.693147300000E-01  4.768566600000E-01  5.003843500000E-01
  36   6     5.164644500000E-01  3.689426200000E-01  5.016262000000E-01
  37   8     5.240092100000E-01  2.041538900000E-01  4.996261600000E-01
  38   8     6.829383100000E-01  2.039918600000E-01  5.026162200000E-01
  39   8     6.828949300000E-01  3.634298300000E-01  4.980964800000E-01
  40   8     2.428964400000E-01  6.430022800000E-01  5.027628900000E-01
  41   8     2.420798100000E-01  4.827906200000E-01  5.102506700000E-01
  42   8     4.015145200000E-01  6.423330000000E-01  5.052346300000E-01

 *******************************************************************************

 << INFORMATION >>: FROM NOW ON, ALL COORDINATES REFER TO THE PRIMITIVE CELL

 *******************************************************************************

 LATTICE PARAMETERS  (ANGSTROMS AND DEGREES) - PRIMITIVE CELL
       A          B          C        ALPHA      BETA     GAMMA        VOLUME
   15.02070   15.04439    4.74236    68.59355  89.99935 120.05310    841.091260

 COORDINATES OF THE EQUIVALENT ATOMS (FRACTIONAL UNITS)

 N. ATOM EQUIV AT. N.          X                  Y                  Z

   1   1   1    5 B    -4.22953420000E-01  1.51180230000E-01 -4.99343720000E-01

   2   2   1    5 B    -2.64174790000E-01  3.10205420000E-01 -4.99333730000E-01

   3   3   1    5 B    -4.23296330000E-01  3.10112440000E-01  4.99236290000E-01

   4   4   1    5 B     1.89850700000E-01 -4.63272290000E-01 -4.94548690000E-01

   5   5   1    5 B     3.48113750000E-01 -4.64394210000E-01 -4.90504770000E-01

   6   6   1    5 B     3.48845890000E-01 -3.04139450000E-01 -4.96470450000E-01

   7   7   1    1 H    -1.34448750000E-01  2.32055010000E-01 -4.95445300000E-01

   8   8   1    1 H     6.08920800000E-02 -3.84273460000E-01  4.92964300000E-01

   9   9   1    1 H    -1.33479550000E-01 -4.81551700000E-01  4.92826010000E-01

  10  10   1    1 H     6.00238700000E-02  3.29335040000E-01 -4.95876730000E-01

  11  11   1    1 H    -4.44446070000E-01 -1.74216950000E-01 -4.95754660000E-01

  12  12   1    1 H     3.70157610000E-01  2.26718700000E-02  4.94596540000E-01

  13  13   1    1 H     2.71716640000E-01 -1.71240690000E-01  4.95903390000E-01

  14  14   1    1 H    -3.46201110000E-01  1.97589500000E-02 -4.97616000000E-01

  15  15   1    1 H    -4.44352120000E-01 -3.85891310000E-01  4.97800880000E-01

  16  16   1    1 H     3.67699490000E-01  2.31223330000E-01 -4.93915940000E-01

  17  17   1    1 H     2.70363550000E-01  3.27200840000E-01 -4.94280820000E-01

  18  18   1    1 H    -3.46632620000E-01 -4.81893920000E-01  4.98734330000E-01

  19  19   1    6 C    -1.44863020000E-01  3.69672910000E-01 -4.99583720000E-01

  20  20   1    6 C    -9.04748700000E-02  3.16225170000E-01 -4.97817620000E-01

  21  21   1    6 C     1.70347200000E-02 -4.68456640000E-01  4.95789440000E-01

  22  22   1    6 C    -8.99697400000E-02  4.77966670000E-01  4.96126610000E-01

  23  23   1    6 C     1.66053600000E-02  3.69888990000E-01 -4.98461330000E-01

  24  24   1    6 C     7.12748600000E-02  4.77896420000E-01  4.99355390000E-01

  25  25   1    6 C     4.07934670000E-01 -1.84512750000E-01 -4.98102250000E-01

  26  26   1    6 C    -4.84222130000E-01 -1.30090640000E-01 -4.97712080000E-01

  27  27   1    6 C     4.09724880000E-01 -2.17351700000E-02  4.97011530000E-01

  28  28   1    6 C     3.55520390000E-01 -1.28862200000E-01  4.98130210000E-01

  29  29   1    6 C    -4.30028090000E-01 -2.30033400000E-02 -4.99149490000E-01

  30  30   1    6 C    -4.82582440000E-01  3.22393700000E-02  4.99226250000E-01

  31  31   1    6 C     4.07681710000E-01  4.76725620000E-01  4.99997470000E-01

  32  32   1    6 C    -4.84426620000E-01 -4.69934690000E-01  4.99445980000E-01

  33  33   1    6 C     4.08387320000E-01  3.15341110000E-01 -4.96030460000E-01

  34  34   1    6 C     3.54532700000E-01  3.68480080000E-01 -4.96638400000E-01

  35  35   1    6 C    -4.30685270000E-01  4.76856660000E-01 -4.99615650000E-01

  36  36   1    6 C    -4.83535550000E-01  3.68942620000E-01 -4.98373800000E-01

  37  37   1    8 O    -4.75990790000E-01  2.04153890000E-01  4.99626160000E-01

  38  38   1    8 O    -3.17061690000E-01  2.03991860000E-01 -4.97383780000E-01

  39  39   1    8 O    -3.17105070000E-01  3.63429830000E-01  4.98096480000E-01

  40  40   1    8 O     2.42896440000E-01 -3.56997720000E-01 -4.97237110000E-01

  41  41   1    8 O     2.42079810000E-01  4.82790620000E-01 -4.89749330000E-01

  42  42   1    8 O     4.01514520000E-01 -3.57667000000E-01 -4.94765370000E-01

 NUMBER OF SYMMETRY OPERATORS         :    1
 *******************************************************************************
 * GEOMETRY EDITING - INPUT COORDINATES ARE GIVEN IN ANGSTROM         
 *******************************************************************************

 GCALCO - MAX INDICES DIRECT LATTICE VECTOR    10    10    30
 NO.OF VECTORS CREATED 6999 STARS 3500 RMAX   211.95009 BOHR

 GEOMETRY FOR WAVE FUNCTION - DIMENSIONALITY OF THE SYSTEM    3
 (NON PERIODIC DIRECTION: LATTICE PARAMETER FORMALLY SET TO 500)
 *******************************************************************************
 LATTICE PARAMETERS (ANGSTROMS AND DEGREES) - BOHR = 0.5291772083 ANGSTROM
 PRIMITIVE CELL - CENTRING CODE 1/0 VOLUME=   841.091260 - DENSITY  0.770 g/cm^3
         A              B              C           ALPHA      BETA       GAMMA 
    15.02070100    15.04438700     4.74236200    68.593547  89.999353 120.053104
 *******************************************************************************
 ATOMS IN THE ASYMMETRIC UNIT   42 - ATOMS IN THE UNIT CELL:   42
     ATOM                 X/A                 Y/B                 Z/C    
 *******************************************************************************
      1 T   5 B    -4.229534200000E-01  1.511802300000E-01 -4.993437200000E-01
      2 T   5 B    -2.641747900000E-01  3.102054200000E-01 -4.993337300000E-01
      3 T   5 B    -4.232963300000E-01  3.101124400000E-01  4.992362900000E-01
      4 T   5 B     1.898507000000E-01 -4.632722900000E-01 -4.945486900000E-01
      5 T   5 B     3.481137500000E-01 -4.643942100000E-01 -4.905047700000E-01
      6 T   5 B     3.488458900000E-01 -3.041394500000E-01 -4.964704500000E-01
      7 T   1 H    -1.344487500000E-01  2.320550100000E-01 -4.954453000000E-01
      8 T   1 H     6.089208000000E-02 -3.842734600000E-01  4.929643000000E-01
      9 T   1 H    -1.334795500000E-01 -4.815517000000E-01  4.928260100000E-01
     10 T   1 H     6.002387000000E-02  3.293350400000E-01 -4.958767300000E-01
     11 T   1 H    -4.444460700000E-01 -1.742169500000E-01 -4.957546600000E-01
     12 T   1 H     3.701576100000E-01  2.267187000000E-02  4.945965400000E-01
     13 T   1 H     2.717166400000E-01 -1.712406900000E-01  4.959033900000E-01
     14 T   1 H    -3.462011100000E-01  1.975895000000E-02 -4.976160000000E-01
     15 T   1 H    -4.443521200000E-01 -3.858913100000E-01  4.978008800000E-01
     16 T   1 H     3.676994900000E-01  2.312233300000E-01 -4.939159400000E-01
     17 T   1 H     2.703635500000E-01  3.272008400000E-01 -4.942808200000E-01
     18 T   1 H    -3.466326200000E-01 -4.818939200000E-01  4.987343300000E-01
     19 T   6 C    -1.448630200000E-01  3.696729100000E-01 -4.995837200000E-01
     20 T   6 C    -9.047487000000E-02  3.162251700000E-01 -4.978176200000E-01
     21 T   6 C     1.703472000000E-02 -4.684566400000E-01  4.957894400000E-01
     22 T   6 C    -8.996974000000E-02  4.779666700000E-01  4.961266100000E-01
     23 T   6 C     1.660536000000E-02  3.698889900000E-01 -4.984613300000E-01
     24 T   6 C     7.127486000000E-02  4.778964200000E-01  4.993553900000E-01
     25 T   6 C     4.079346700000E-01 -1.845127500000E-01 -4.981022500000E-01
     26 T   6 C    -4.842221300000E-01 -1.300906400000E-01 -4.977120800000E-01
     27 T   6 C     4.097248800000E-01 -2.173517000000E-02  4.970115300000E-01
     28 T   6 C     3.555203900000E-01 -1.288622000000E-01  4.981302100000E-01
     29 T   6 C    -4.300280900000E-01 -2.300334000000E-02 -4.991494900000E-01
     30 T   6 C    -4.825824400000E-01  3.223937000000E-02  4.992262500000E-01
     31 T   6 C     4.076817100000E-01  4.767256200000E-01  4.999974700000E-01
     32 T   6 C    -4.844266200000E-01 -4.699346900000E-01  4.994459800000E-01
     33 T   6 C     4.083873200000E-01  3.153411100000E-01 -4.960304600000E-01
     34 T   6 C     3.545327000000E-01  3.684800800000E-01 -4.966384000000E-01
     35 T   6 C    -4.306852700000E-01  4.768566600000E-01 -4.996156500000E-01
     36 T   6 C    -4.835355500000E-01  3.689426200000E-01 -4.983738000000E-01
     37 T   8 O    -4.759907900000E-01  2.041538900000E-01  4.996261600000E-01
     38 T   8 O    -3.170616900000E-01  2.039918600000E-01 -4.973837800000E-01
     39 T   8 O    -3.171050700000E-01  3.634298300000E-01  4.980964800000E-01
     40 T   8 O     2.428964400000E-01 -3.569977200000E-01 -4.972371100000E-01
     41 T   8 O     2.420798100000E-01  4.827906200000E-01 -4.897493300000E-01
     42 T   8 O     4.015145200000E-01 -3.576670000000E-01 -4.947653700000E-01

 T = ATOM BELONGING TO THE ASYMMETRIC UNIT

 ****    1 SYMMOPS - TRANSLATORS IN FRACTIONAL UNITS
 **** MATRICES AND TRANSLATORS IN THE CRYSTALLOGRAPHIC REFERENCE FRAME
   V INV                    ROTATION MATRICES                   TRANSLATORS
   1   1  1.00  0.00  0.00  0.00  1.00  0.00  0.00  0.00  1.00  0.00  0.00  0.00

 DIRECT LATTICE VECTORS CARTESIAN COMPONENTS (ANGSTROM)
          X                    Y                    Z
   0.130013421718E+02  -0.752240388864E+01   0.000000000000E+00
   0.000000000000E+00   0.150443870000E+02   0.000000000000E+00
   0.100152319783E+01   0.173087507544E+01   0.430011861423E+01


 CARTESIAN COORDINATES - PRIMITIVE CELL
 *******************************************************************************
 *      ATOM          X(ANGSTROM)         Y(ANGSTROM)         Z(ANGSTROM)
 *******************************************************************************
    1     5 B    -5.999066455414E+00  4.591738739168E+00 -2.147237225273E+00
    2     5 B    -3.934721152002E+00  5.789795547974E+00 -2.147194267088E+00
    3     5 B     6.996395273190E+00 -5.395057932494E-01 -2.153343350704E+00
    4     5 B     1.973011926758E+00  5.790603737812E+00 -2.126618027514E+00
    5     5 B     4.034694072646E+00  4.590206076736E+00 -2.109228691848E+00
    6     5 B    -7.961580865547E+00  1.194199369242E+00  2.165236790772E+00
    7     1 H    -2.244214164525E+00  3.644949254540E+00 -2.130473556865E+00
    8     1 H     1.285393949785E+00 -5.385953845499E+00  2.119804962583E+00
    9     1 H    -1.241836620974E+00 -5.387542792098E+00  2.119210299180E+00
   10     1 H     2.837588239832E-01  3.644819328876E+00 -2.132328757038E+00
   11     1 H    -5.273382027561E+00  1.595101318410E+00  2.168314772675E+00
   12     1 H     4.306372455641E+00 -3.318180910534E+00 -2.173294826044E+00
   13     1 H     4.029339759374E+00 -3.761826702277E+00  2.132443398201E+00
   14     1 H    -4.999453058971E+00  2.040214735092E+00 -2.139807824341E+00
   15     1 H    -5.278614827651E+00 -1.601270956441E+00  2.140602830270E+00
   16     1 H     4.285918614187E+00 -1.422776033853E-01 -2.123897127461E+00
   17     1 H     3.020055316851E+00  2.033213892214E+00 -2.125466154741E+00
   18     1 H    -4.007195299467E+00 -3.779041235748E+00  2.144616775991E+00
   19     6 C    -2.383758375896E+00  5.786503457383E+00 -2.148269253740E+00
   20     6 C    -1.674870637537E+00  4.576342239963E+00 -2.140674814256E+00
   21     6 C     7.180188489212E-01 -6.317635444490E+00  2.131953399685E+00
   22     6 C    -6.728450658680E-01 -6.318149537873E+00  2.133403270678E+00
   23     6 C    -2.833286179725E-01  4.577066595797E+00 -2.143442843609E+00
   24     6 C     4.252616523200E-01  5.786947127268E+00 -2.152831206577E+00
   25     6 C    -7.194981703809E+00  2.546595629180E+00  2.158219857217E+00
   26     6 C    -5.792484595404E+00  2.554778141861E+00  2.159897634497E+00
   27     6 C     5.824741938055E+00 -2.548843470095E+00  2.137208531642E+00
   28     6 C     5.121131200289E+00 -3.750819605889E+00  2.142018988333E+00
   29     6 C    -5.089328937153E+00  3.755683491467E+00  2.153716601000E+00
   30     6 C    -6.775755956021E+00  3.248424779855E+00 -2.153386523895E+00
   31     6 C     4.799645276113E+00  3.239856322631E+00 -2.150070186417E+00
   32     6 C    -5.797989508701E+00 -2.561348052727E+00  2.147676955402E+00
   33     6 C     4.812797273412E+00  8.134925719387E-01 -2.132989814273E+00
   34     6 C     4.112006065248E+00  2.016999736116E+00 -2.135604028383E+00
   35     6 C    -5.098340029255E+00 -3.764479514051E+00  2.151712057706E+00
   36     6 C     6.215598112115E+00  8.028385803785E-01 -2.143066454227E+00
   37     8 O     6.311687032022E+00 -1.736523398329E+00 -2.151666863460E+00
   38     8 O    -4.620368915147E+00  4.593089388757E+00 -2.138809250796E+00
   39     8 O    -3.623936339995E+00 -6.329272796066E+00  2.141873945332E+00
   40     8 O     3.661508426091E+00 -6.327757227436E+00  2.161940061835E+00
   41     8 O     2.656867127570E+00  4.594571914636E+00 -2.105980210242E+00
   42     8 O    -7.275110308024E+00 -4.333234767347E-03  2.172568837019E+00

 *******************************************************************************
 STARTING BASIS SET HANDLING 
 *******************************************************************************

 Loading internal basis set: SOLDEF2MSVP         

 Please cite in your publication:
 L. Dona', J. G. Brandenburg and B. Civalleri, J. Chem. Phys., 151, 121101 (2019
 )                                                                              
                                                                                
                    

 *******************************************************************************
 LOCAL ATOMIC FUNCTIONS BASIS SET
 *******************************************************************************
   ATOM   X(AU)   Y(AU)   Z(AU)  N. TYPE  EXPONENT  S COEF   P COEF   D/F/G COEF
 *******************************************************************************
   1 B  -11.337   8.677  -4.058
                                  1 S  
                                         2.410E+03 1.755E-03 0.000E+00 0.000E+00
                                         3.619E+02 1.344E-02 0.000E+00 0.000E+00
                                         8.231E+01 6.637E-02 0.000E+00 0.000E+00
                                         2.311E+01 2.303E-01 0.000E+00 0.000E+00
                                         7.252E+00 5.150E-01 0.000E+00 0.000E+00
                                  2 S  
                                         2.367E+00 1.000E+00 0.000E+00 0.000E+00
                                  3 S  
                                         5.533E-01 1.000E+00 0.000E+00 0.000E+00
                                  4 S  
                                         1.716E-01 1.000E+00 0.000E+00 0.000E+00
                           5-     7 P  
                                         6.002E+00 0.000E+00-3.555E-02 0.000E+00
                                         1.240E+00 0.000E+00-1.983E-01 0.000E+00
                                         3.367E-01 0.000E+00-5.048E-01 0.000E+00
                           8-    10 P  
                                         1.256E-01 0.000E+00 1.000E+00 0.000E+00
                          11-    15 D  
                                         8.880E-01 0.000E+00 0.000E+00 1.000E+00
   2 B   -7.436  10.941  -4.058
   3 B   13.221  -1.020  -4.069
   4 B    3.728  10.943  -4.019
   5 B    7.624   8.674  -3.986
   6 B  -15.045   2.257   4.092
   7 H   -4.241   6.888  -4.026
                                 91 S  
                                         1.874E+01 1.968E-02 0.000E+00 0.000E+00
                                         2.826E+00 1.380E-01 0.000E+00 0.000E+00
                                         6.401E-01 4.783E-01 0.000E+00 0.000E+00
                                 92 S  
                                         1.756E-01 1.000E+00 0.000E+00 0.000E+00
   8 H    2.429 -10.178   4.006
   9 H   -2.347 -10.181   4.005
  10 H    0.536   6.888  -4.030
  11 H   -9.965   3.014   4.098
  12 H    8.138  -6.270  -4.107
  13 H    7.614  -7.109   4.030
  14 H   -9.448   3.855  -4.044
  15 H   -9.975  -3.026   4.045
  16 H    8.099  -0.269  -4.014
  17 H    5.707   3.842  -4.017
  18 H   -7.573  -7.141   4.053
  19 C   -4.505  10.935  -4.060
                                115 S  
                                         3.624E+03 1.634E-03 0.000E+00 0.000E+00
                                         5.440E+02 1.252E-02 0.000E+00 0.000E+00
                                         1.237E+02 6.211E-02 0.000E+00 0.000E+00
                                         3.476E+01 2.182E-01 0.000E+00 0.000E+00
                                         1.093E+01 4.980E-01 0.000E+00 0.000E+00
                                116 S  
                                         3.574E+00 1.000E+00 0.000E+00 0.000E+00
                                117 S  
                                         7.742E-01 1.000E+00 0.000E+00 0.000E+00
                                118 S  
                                         2.330E-01 1.000E+00 0.000E+00 0.000E+00
                         119-   121 P  
                                         9.443E+00 0.000E+00 3.790E-02 0.000E+00
                                         2.002E+00 0.000E+00 2.082E-01 0.000E+00
                                         5.463E-01 0.000E+00 5.047E-01 0.000E+00
                         122-   124 P  
                                         1.820E-01 0.000E+00 1.000E+00 0.000E+00
                         125-   129 D  
                                         8.880E-01 0.000E+00 0.000E+00 1.000E+00
  20 C   -3.165   8.648  -4.045
  21 C    1.357 -11.939   4.029
  22 C   -1.271 -11.940   4.032
  23 C   -0.535   8.649  -4.051
  24 C    0.804  10.936  -4.068
  25 C  -13.597   4.812   4.078
  26 C  -10.946   4.828   4.082
  27 C   11.007  -4.817   4.039
  28 C    9.678  -7.088   4.048
  29 C   -9.617   7.097   4.070
  30 C  -12.804   6.139  -4.069
  31 C    9.070   6.122  -4.063
  32 C  -10.957  -4.840   4.059
  33 C    9.095   1.537  -4.031
  34 C    7.771   3.812  -4.036
  35 C   -9.634  -7.114   4.066
  36 C   11.746   1.517  -4.050
  37 O   11.927  -3.282  -4.066
                                385 S  
                                         6.773E+03 1.727E-03 0.000E+00 0.000E+00
                                         1.017E+03 1.325E-02 0.000E+00 0.000E+00
                                         2.313E+02 6.603E-02 0.000E+00 0.000E+00
                                         6.501E+01 2.353E-01 0.000E+00 0.000E+00
                                         2.050E+01 5.498E-01 0.000E+00 0.000E+00
                                386 S  
                                         6.716E+00 1.000E+00 0.000E+00 0.000E+00
                                387 S  
                                         1.147E+00 1.000E+00 0.000E+00 0.000E+00
                                388 S  
                                         3.342E-01 1.000E+00 0.000E+00 0.000E+00
                         389-   391 P  
                                         1.769E+01 0.000E+00 4.359E-02 0.000E+00
                                         3.854E+00 0.000E+00 2.318E-01 0.000E+00
                                         1.047E+00 0.000E+00 5.146E-01 0.000E+00
                         392-   394 P  
                                         2.759E-01 0.000E+00 1.000E+00 0.000E+00
                         395-   399 D  
                                         8.000E-01 0.000E+00 0.000E+00 1.000E+00
  38 O   -8.731   8.680  -4.042
  39 O   -6.848 -11.961   4.048
  40 O    6.919 -11.958   4.085
  41 O    5.021   8.682  -3.980
  42 O  -13.748  -0.008   4.106

 *******************************************************************************
 FINISHED BASIS SET HANDLING 
 *******************************************************************************

 INFORMATION **** SET_MPP **** PCRYSTAL CALCULATION
 INFORMATION **** READM2 **** NEW DEFAULT: FOCK/KS MATRIX MIXING SET TO 30 %
 INFORMATION **** READM2 **** NEW DEFAULT: FULL DIRECT SCF MODE
 INFORMATION **** READM2 **** NEW DEFAULT: COULOMB BIPOLAR BUFFER SET TO 32 Mb
 INFORMATION **** READM2 **** NEW DEFAULT: EXCHANGE BIPOLAR BUFFER SET TO 32 Mb

 *******************************************************************************
 NEW DEFAULT: DFT INTEGRATION GRID INCREASED TO XLGRID
 NEW DEFAULT: DIIS ACCELERATOR ACTIVE
 USE KEYWORD NODIIS TO TURN IT OFF
 *******************************************************************************

 WARNING **** RDDFTP **** HSEsol-HJS ACTIVE
 RANGE SEPARATION - OMEGA:   0.110000000000000     
 WARNING **** RDDFTP **** HSEsol-3c has to be combined with sol-def2-mSVP basis set
 *******************************************************************************
 N. OF ATOMS PER CELL        42  COULOMB OVERLAP TOL         (T1) 10**   -6
 NUMBER OF SHELLS           234  COULOMB PENETRATION TOL     (T2) 10**   -6
 NUMBER OF AO               474  EXCHANGE OVERLAP TOL        (T3) 10**   -6
 N. OF ELECTRONS PER CELL   198  EXCHANGE PSEUDO OVP (F(G))  (T4) 10**   -6
 CORE ELECTRONS PER CELL     60  EXCHANGE PSEUDO OVP (P(G))  (T5) 10**  -12
 N. OF SYMMETRY OPERATORS     1  POLE ORDER IN MONO ZONE                  4
 *******************************************************************************
 TYPE OF CALCULATION :  RESTRICTED CLOSED SHELL
 KOHN-SHAM HAMILTONIAN

 (EXCHANGE)[CORRELATION] FUNCTIONAL:(HSEsol GGA)[PBEsol]

 RANGE-SEPARATED HYBRID FUNCTIONAL 
 OMEGA (SHORT-RANGE)[LONG-RANGE]:(    0.1100)[    0.0000]

 HYBRID EXCHANGE - PERCENTAGE OF FOCK EXCHANGE    25.0000

 CAPPA:IS1  2;IS2  2;IS3  8; K PTS MONK NET  20; SYMMOPS:K SPACE   2;G SPACE   1

 *******************************************************************************
 MAX NUMBER OF SCF CYCLES      50  CONVERGENCE ON DELTAP        10**-16
 WEIGHT OF F(I) IN F(I+1)      30% CONVERGENCE ON ENERGY        10**- 6
 SHRINK. FACT.(MONKH.)    2  2  8  NUMBER OF K POINTS IN THE IBZ     20
 SHRINKING FACTOR(GILAT NET)    8  NUMBER OF K POINTS(GILAT NET)   1028
 *******************************************************************************
 *** K POINTS COORDINATES (OBLIQUE COORDINATES IN UNITS OF IS =  2)
   1-R(  0  0  0)   2-R(  1  0  0)   3-R(  0  1  0)   4-R(  1  1  0)
   5-C(  0  0  1)   6-C(  1  0  1)   7-C(  0  1  1)   8-C(  1  1  1)
   9-C(  0  0  2)  10-C(  1  0  2)  11-C(  0  1  2)  12-C(  1  1  2)
  13-C(  0  0  3)  14-C(  1  0  3)  15-C(  0  1  3)  16-C(  1  1  3)
  17-R(  0  0  4)  18-R(  1  0  4)  19-R(  0  1  4)  20-R(  1  1  4)

 DIRECT LATTICE VECTORS COMPON. (A.U.)     RECIP. LATTICE VECTORS COMPON. (A.U.) 
        X            Y            Z              X            Y            Z
   24.5689761  -14.2152832    0.0000000      0.2557366    0.0000000   -0.0595626
    0.0000000   28.4297713    0.0000000      0.1278719    0.2210072   -0.1187415
    1.8926046    3.2708799    8.1260465      0.0000000    0.0000000    0.7732155

 DISK SPACE FOR EIGENVECTORS (FTN 10)     7189632 REALS

 SYMMETRY ADAPTION OF THE BLOCH FUNCTIONS DISABLED
 TTTTTTTTTTTTTTTTTTTTTTTTTTTTTT gordsh1     TELAPSE        0.04 TCPU        0.04

 MATRIX SIZE: P(G)  304436, F(G)   63498, P(G) IRR  153541, F(G) IRR   64194
 MAX G-VECTOR INDEX FOR 1- AND 2-ELECTRON INTEGRALS  79

 TTTTTTTTTTTTTTTTTTTTTTTTTTTTTT INPUT       TELAPSE        0.30 TCPU        0.29

 NEIGHBORS OF THE NON-EQUIVALENT ATOMS

 N = NUMBER OF NEIGHBORS AT DISTANCE R
    ATOM  N     R/ANG      R/AU   NEIGHBORS (ATOM LABELS AND CELL INDICES)
   1 B    1     1.3787     2.6054   38 O    0 0 0
   1 B    1     1.3795     2.6068   37 O   -1 0 0
   1 B    1     1.5517     2.9323   30 C    0 0 0
   1 B    1     2.3868     4.5104    2 B    0 0 0
   1 B    1     2.3912     4.5187    3 B   -1 0 0
   1 B    1     2.5629     4.8432   27 C   -1 0-1

   2 B    1     1.3792     2.6064   38 O    0 0 0
   2 B    1     1.3798     2.6075   39 O    0 1-1
   2 B    1     1.5510     2.9309   19 C    0 0 0
   2 B    1     2.3868     4.5104    1 B    0 0 0
   2 B    1     2.3894     4.5154    3 B   -1 0 0
   2 B    1     2.5618     4.8412   22 C    0 1-1

   3 B    1     1.3790     2.6060   37 O    0 0 0
   3 B    1     1.3795     2.6069   39 O    1 1-1
   3 B    1     1.5529     2.9346   36 C    0 0 0
   3 B    1     2.3894     4.5154    2 B    1 0 0
   3 B    1     2.3912     4.5187    1 B    1 0 0
   3 B    1     2.5679     4.8526   35 C    1 1-1

   4 B    1     1.3779     2.6038   41 O    0 0 0
   4 B    1     1.3786     2.6051   40 O    0 1-1
   4 B    1     1.5480     2.9253   24 C    0 0 0
   4 B    1     2.3857     4.5084    5 B    0 0 0
   4 B    1     2.3859     4.5087    6 B    1 1-1
   4 B    1     2.5586     4.8350   21 C    0 1-1

   5 B    1     1.3778     2.6037   41 O    0 0 0
   5 B    1     1.3814     2.6104   42 O    1 1-1
   5 B    1     1.5525     2.9338   31 C    0 0 0
   5 B    1     2.3857     4.5084    4 B    0 0 0
   5 B    1     2.3952     4.5264    6 B    1 1-1
   5 B    1     2.5591     4.8361   32 C    1 1-1

   6 B    1     1.3783     2.6045   40 O   -1 0 0
   6 B    1     1.3812     2.6101   42 O    0 0 0
   6 B    1     1.5546     2.9377   25 C    0 0 0
   6 B    1     2.3859     4.5087    4 B   -1-1 1
   6 B    1     2.3952     4.5264    5 B   -1-1 1
   6 B    1     2.5605     4.8387   26 C    0 0 0

   7 H    1     1.0917     2.0630   20 C    0 0 0
   7 H    1     2.1462     4.0557   19 C    0 0 0
   7 H    1     2.1712     4.1030   23 C    0 0 0
   7 H    1     2.5280     4.7772   10 H    0 0 0
   7 H    1     2.5583     4.8346   38 O    0 0 0
   7 H    1     2.7310     5.1609    2 B    0 0 0

   8 H    1     1.0909     2.0615   21 C    0 0 0
   8 H    1     2.1455     4.0543   24 C    0-1 1
   8 H    1     2.1688     4.0985   22 C    0 0 0
   8 H    1     2.5272     4.7758    9 H    0 0 0
   8 H    1     2.5563     4.8307   40 O    0 0 0
   8 H    1     2.7245     5.1485    4 B    0-1 1

   9 H    1     1.0909     2.0614   22 C    0 0 0
   9 H    1     2.1443     4.0522   19 C    0-1 1
   9 H    1     2.1694     4.0996   21 C    0 0 0
   9 H    1     2.5272     4.7758    8 H    0 0 0
   9 H    1     2.5616     4.8407   39 O    0 0 0
   9 H    1     2.7249     5.1493    2 B    0-1 1

  10 H    1     1.0912     2.0621   23 C    0 0 0
  10 H    1     2.1469     4.0570   24 C    0 0 0
  10 H    1     2.1689     4.0986   20 C    0 0 0
  10 H    1     2.5280     4.7772    7 H    0 0 0
  10 H    1     2.5562     4.8306   41 O    0 0 0
  10 H    1     2.7309     5.1607    4 B    0 0 0

  11 H    1     1.0911     2.0619   26 C    0 0 0
  11 H    1     2.1443     4.0521   25 C    0 0 0
  11 H    1     2.1685     4.0978   29 C    0 0 0
  11 H    1     2.5223     4.7664   14 H    0 0 1
  11 H    1     2.5623     4.8420   42 O    0 0 0
  11 H    1     2.7179     5.1361    6 B    0 0 0

  12 H    1     1.0917     2.0630   27 C    0 0-1
  12 H    1     2.1441     4.0518   30 C    1 0 0
  12 H    1     2.1716     4.1038   28 C    0 0-1
  12 H    1     2.5226     4.7669   13 H    0 0-1
  12 H    1     2.5541     4.8265   37 O    0 0 0
  12 H    1     2.7237     5.1471    1 B    1 0 0

  13 H    1     1.0919     2.0634   28 C    0 0 0
  13 H    1     2.1523     4.0672   25 C    1 0 0
  13 H    1     2.1668     4.0946   27 C    0 0 0
  13 H    1     2.5226     4.7669   12 H    0 0 1
  13 H    1     2.5923     4.8988   40 O    0 0 0
  13 H    1     2.7583     5.2125    6 B    1 0 0

  14 H    1     1.0915     2.0627   29 C    0 0-1
  14 H    1     2.1483     4.0597   30 C    0 0 0
  14 H    1     2.1679     4.0968   26 C    0 0-1
  14 H    1     2.5223     4.7664   11 H    0 0-1
  14 H    1     2.5809     4.8771   38 O    0 0 0
  14 H    1     2.7404     5.1785    1 B    0 0 0

  15 H    1     1.0916     2.0628   32 C    0 0 0
  15 H    1     2.1436     4.0508   31 C   -1-1 1
  15 H    1     2.1707     4.1021   35 C    0 0 0
  15 H    1     2.5217     4.7654   18 H    0 0 0
  15 H    1     2.5568     4.8317   42 O    0 0 0
  15 H    1     2.7166     5.1337    5 B   -1-1 1

  16 H    1     1.0914     2.0625   33 C    0 0 0
  16 H    1     2.1488     4.0606   36 C    0 0 0
  16 H    1     2.1663     4.0937   34 C    0 0 0
  16 H    1     2.5170     4.7564   17 H    0 0 0
  16 H    1     2.5780     4.8717   37 O    0 0 0
  16 H    1     2.7396     5.1771    3 B    0 0 0

  17 H    1     1.0921     2.0638   34 C    0 0 0
  17 H    1     2.1502     4.0634   31 C    0 0 0
  17 H    1     2.1683     4.0976   33 C    0 0 0
  17 H    1     2.5170     4.7564   16 H    0 0 0
  17 H    1     2.5871     4.8888   41 O    0 0 0
  17 H    1     2.7510     5.1986    5 B    0 0 0

  18 H    1     1.0913     2.0622   35 C    0 0 0
  18 H    1     2.1495     4.0619   36 C   -1-1 1
  18 H    1     2.1656     4.0924   32 C    0 0 0
  18 H    1     2.5217     4.7654   15 H    0 0 0
  18 H    1     2.5789     4.8734   39 O    0 0 0
  18 H    1     2.7392     5.1763    3 B   -1-1 1

  19 C    1     1.4018     2.6489   22 C    0 1-1
  19 C    1     1.4025     2.6504   20 C    0 0 0
  19 C    1     1.5510     2.9309    2 B    0 0 0
  19 C    1     2.1443     4.0522    9 H    0 1-1
  19 C    1     2.1462     4.0557    7 H    0 0 0
  19 C    1     2.4236     4.5800   21 C    0 1-1

  20 C    1     1.0917     2.0630    7 H    0 0 0
  20 C    1     1.3915     2.6296   23 C    0 0 0
  20 C    1     1.4025     2.6504   19 C    0 0 0
  20 C    1     2.1689     4.0986   10 H    0 0 0
  20 C    1     2.4192     4.5716   22 C    0 1-1
  20 C    1     2.4241     4.5809   24 C    0 0 0

  21 C    1     1.0909     2.0615    8 H    0 0 0
  21 C    1     1.3909     2.6284   22 C    0 0 0
  21 C    1     1.4015     2.6484   24 C    0-1 1
  21 C    1     2.1694     4.0996    9 H    0 0 0
  21 C    1     2.4189     4.5711   23 C    0-1 1
  21 C    1     2.4236     4.5800   19 C    0-1 1

  22 C    1     1.0909     2.0614    9 H    0 0 0
  22 C    1     1.3909     2.6284   21 C    0 0 0
  22 C    1     1.4018     2.6489   19 C    0-1 1
  22 C    1     2.1688     4.0985    8 H    0 0 0
  22 C    1     2.4192     4.5716   20 C    0-1 1
  22 C    1     2.4226     4.5780   24 C    0-1 1

  23 C    1     1.0912     2.0621   10 H    0 0 0
  23 C    1     1.3915     2.6296   20 C    0 0 0
  23 C    1     1.4021     2.6497   24 C    0 0 0
  23 C    1     2.1712     4.1030    7 H    0 0 0
  23 C    1     2.4189     4.5711   21 C    0 1-1
  23 C    1     2.4238     4.5802   19 C    0 0 0

  24 C    1     1.4015     2.6484   21 C    0 1-1
  24 C    1     1.4021     2.6497   23 C    0 0 0
  24 C    1     1.5480     2.9253    4 B    0 0 0
  24 C    1     2.1455     4.0543    8 H    0 1-1
  24 C    1     2.1469     4.0570   10 H    0 0 0
  24 C    1     2.4226     4.5780   22 C    0 1-1

  25 C    1     1.4025     2.6504   26 C    0 0 0
  25 C    1     1.4037     2.6526   28 C   -1 0 0
  25 C    1     1.5546     2.9377    6 B    0 0 0
  25 C    1     2.1443     4.0521   11 H    0 0 0
  25 C    1     2.1523     4.0672   13 H   -1 0 0
  25 C    1     2.4271     4.5866   27 C   -1 0 0

  26 C    1     1.0911     2.0619   11 H    0 0 0
  26 C    1     1.3916     2.6298   29 C    0 0 0
  26 C    1     1.4025     2.6504   25 C    0 0 0
  26 C    1     2.1679     4.0968   14 H    0 0 1
  26 C    1     2.4165     4.5665   28 C   -1 0 0
  26 C    1     2.4246     4.5819   30 C    0 0 1

  27 C    1     1.0917     2.0630   12 H    0 0 1
  27 C    1     1.3928     2.6320   28 C    0 0 0
  27 C    1     1.4024     2.6502   30 C    1 0 1
  27 C    1     2.1668     4.0946   13 H    0 0 0
  27 C    1     2.4167     4.5668   29 C    1 0 0
  27 C    1     2.4271     4.5866   25 C    1 0 0

  28 C    1     1.0919     2.0634   13 H    0 0 0
  28 C    1     1.3928     2.6320   27 C    0 0 0
  28 C    1     1.4037     2.6526   25 C    1 0 0
  28 C    1     2.1716     4.1038   12 H    0 0 1
  28 C    1     2.4165     4.5665   26 C    1 0 0
  28 C    1     2.4277     4.5877   30 C    1 0 1

  29 C    1     1.0915     2.0627   14 H    0 0 1
  29 C    1     1.3916     2.6298   26 C    0 0 0
  29 C    1     1.4023     2.6499   30 C    0 0 1
  29 C    1     2.1685     4.0978   11 H    0 0 0
  29 C    1     2.4167     4.5668   27 C   -1 0 0
  29 C    1     2.4281     4.5885   25 C    0 0 0

  30 C    1     1.4023     2.6499   29 C    0 0-1
  30 C    1     1.4024     2.6502   27 C   -1 0-1
  30 C    1     1.5517     2.9323    1 B    0 0 0
  30 C    1     2.1441     4.0518   12 H   -1 0 0
  30 C    1     2.1483     4.0597   14 H    0 0 0
  30 C    1     2.4246     4.5819   26 C    0 0-1

  31 C    1     1.4022     2.6498   32 C    1 1-1
  31 C    1     1.4030     2.6513   34 C    0 0 0
  31 C    1     1.5525     2.9338    5 B    0 0 0
  31 C    1     2.1436     4.0508   15 H    1 1-1
  31 C    1     2.1502     4.0634   17 H    0 0 0
  31 C    1     2.4265     4.5853   33 C    0 0 0

  32 C    1     1.0916     2.0628   15 H    0 0 0
  32 C    1     1.3918     2.6301   35 C    0 0 0
  32 C    1     1.4022     2.6498   31 C   -1-1 1
  32 C    1     2.1656     4.0924   18 H    0 0 0
  32 C    1     2.4163     4.5661   34 C   -1-1 1
  32 C    1     2.4270     4.5863   36 C   -1-1 1

  33 C    1     1.0914     2.0625   16 H    0 0 0
  33 C    1     1.3927     2.6318   34 C    0 0 0
  33 C    1     1.4029     2.6511   36 C    0 0 0
  33 C    1     2.1683     4.0976   17 H    0 0 0
  33 C    1     2.4155     4.5646   35 C    1 1-1
  33 C    1     2.4265     4.5853   31 C    0 0 0

  34 C    1     1.0921     2.0638   17 H    0 0 0
  34 C    1     1.3927     2.6318   33 C    0 0 0
  34 C    1     1.4030     2.6513   31 C    0 0 0
  34 C    1     2.1663     4.0937   16 H    0 0 0
  34 C    1     2.4163     4.5661   32 C    1 1-1
  34 C    1     2.4289     4.5899   36 C    0 0 0

  35 C    1     1.0913     2.0622   18 H    0 0 0
  35 C    1     1.3918     2.6301   32 C    0 0 0
  35 C    1     1.4029     2.6511   36 C   -1-1 1
  35 C    1     2.1707     4.1021   15 H    0 0 0
  35 C    1     2.4155     4.5646   33 C   -1-1 1
  35 C    1     2.4269     4.5861   31 C   -1-1 1

  36 C    1     1.4029     2.6511   33 C    0 0 0
  36 C    1     1.4029     2.6511   35 C    1 1-1
  36 C    1     1.5529     2.9346    3 B    0 0 0
  36 C    1     2.1488     4.0606   16 H    0 0 0
  36 C    1     2.1495     4.0619   18 H    1 1-1
  36 C    1     2.4270     4.5863   32 C    1 1-1

  37 O    1     1.3790     2.6060    3 B    0 0 0
  37 O    1     1.3795     2.6068    1 B    1 0 0
  37 O    1     2.3868     4.5105   39 O    1 1-1
  37 O    1     2.3885     4.5136   38 O    1 0 0
  37 O    1     2.5389     4.7979   30 C    1 0 0
  37 O    1     2.5412     4.8022   36 C    0 0 0

  38 O    1     1.3787     2.6054    1 B    0 0 0
  38 O    1     1.3792     2.6064    2 B    0 0 0
  38 O    1     2.3885     4.5136   37 O   -1 0 0
  38 O    1     2.3912     4.5188   39 O    0 1-1
  38 O    1     2.5351     4.7907   19 C    0 0 0
  38 O    1     2.5405     4.8008   30 C    0 0 0

  39 O    1     1.3795     2.6069    3 B   -1-1 1
  39 O    1     1.3798     2.6075    2 B    0-1 1
  39 O    1     2.3868     4.5105   37 O   -1-1 1
  39 O    1     2.3912     4.5188   38 O    0-1 1
  39 O    1     2.5416     4.8030   19 C    0-1 1
  39 O    1     2.5427     4.8050   36 C   -1-1 1

  40 O    1     1.3783     2.6045    6 B    1 0 0
  40 O    1     1.3786     2.6051    4 B    0-1 1
  40 O    1     2.3876     4.5120   42 O    1 0 0
  40 O    1     2.3914     4.5191   41 O    0-1 1
  40 O    1     2.5354     4.7912   25 C    1 0 0
  40 O    1     2.5360     4.7924   24 C    0-1 1

  41 O    1     1.3778     2.6037    5 B    0 0 0
  41 O    1     1.3779     2.6038    4 B    0 0 0
  41 O    1     2.3870     4.5108   42 O    1 1-1
  41 O    1     2.3914     4.5191   40 O    0 1-1
  41 O    1     2.5306     4.7822   24 C    0 0 0
  41 O    1     2.5355     4.7914   31 C    0 0 0

  42 O    1     1.3812     2.6101    6 B    0 0 0
  42 O    1     1.3814     2.6104    5 B   -1-1 1
  42 O    1     2.3870     4.5108   41 O   -1-1 1
  42 O    1     2.3876     4.5120   40 O   -1 0 0
  42 O    1     2.5481     4.8152   31 C   -1-1 1
  42 O    1     2.5522     4.8230   25 C    0 0 0


 SYMMETRY ALLOWED INTERNAL DEGREE(S) OF FREEDOM: 123
 TTTTTTTTTTTTTTTTTTTTTTTTTTTTTT SYMM        TELAPSE        0.30 TCPU        0.30
 TTTTTTTTTTTTTTTTTTTTTTTTTTTTTT INT_SCREEN  TELAPSE        0.33 TCPU        0.32

 DFT PARAMETERS

     ATOM       ELECTRONS   NET CHARGE   R(ANGSTROM)
   1   5  B       5.0000      0.0000     0.89000000
   7   1  H       1.0000      0.0000     1.11000000
  19   6  C       6.0000      0.0000     0.77000000
  37   8  O       8.0000      0.0000     0.74000000

 SIZE OF GRID=    1328643
 TTTTTTTTTTTTTTTTTTTTTTTTTTTTTT MAKE_GRID2  TELAPSE        8.78 TCPU        8.77
 BECKE WEIGHT FUNCTION
 RADSAFE =     2.00
 TOLERANCES - DENSITY:10**- 6; POTENTIAL:10**- 9; GRID WGT:10**-14

 RADIAL INTEGRATION  - INTERVALS (POINTS,UPPER LIMIT):            1( 75,  4.0*R)

 ANGULAR INTEGRATION - INTERVALS (ACCURACY LEVEL [N. POINTS] UPPER LIMIT):
  1(  4[  86]   0.2)  2(  8[ 194]   0.5)  3( 12[ 350]   0.9)  4( 16[ 974]   3.5)
  5( 12[ 350]9999.0)
 TTTTTTTTTTTTTTTTTTTTTTTTTTTTTT INT_CALC    TELAPSE        8.86 TCPU        8.85
 EEEEEEEEEE INT_CALC TERMINATION  DATE 02 12 2025 TIME 08:05:58.4

 *******************************************************************************
 COF-5_z43_inc_L020                                                              
 CRYSTAL - SCF - TYPE OF CALCULATION :  RESTRICTED CLOSED SHELL
 *******************************************************************************

 CAPPA:IS1  2;IS2  2;IS3  8; K PTS MONK NET  20; SYMMOPS:K SPACE   2;G SPACE   1

 TTTTTTTTTTTTTTTTTTTTTTTTTTTTTT SDIK        TELAPSE        9.79 TCPU       16.83

 AAAAAAAAAAAAAAAAAAAAAAAAAAAAAAAAAAAAAAAAAAAAAAAAAAAAAAAAAAAAAAAAAAAAAAAAAAAAAAA
         ATOMIC WAVEFUNCTION(S)


 NUCLEAR CHARGE  5.0  SYMMETRY SPECIES            S    P
 N. ELECTRONS    5.0  NUMBER OF PRIMITIVE GTOS    8    4
                      NUMBER OF CONTRACTED GTOS   4    2
                      NUMBER OF CLOSED SHELLS     2    0
                      OPEN SHELL OCCUPATION       0    1

  ZNUC  SCFIT    TOTAL HF ENERGY   KINETIC ENERGY   VIRIAL THEOREM ACCURACY
   5.0    11    -2.451164084E+01  2.462155050E+01 -1.995536038E+00  1.5E-06

 NUCLEAR CHARGE  1.0  SYMMETRY SPECIES            S
 N. ELECTRONS    1.0  NUMBER OF PRIMITIVE GTOS    4
                      NUMBER OF CONTRACTED GTOS   2
                      NUMBER OF CLOSED SHELLS     0
                      OPEN SHELL OCCUPATION       1

  ZNUC  SCFIT    TOTAL HF ENERGY   KINETIC ENERGY   VIRIAL THEOREM ACCURACY
   1.0     1    -4.977266687E-01  5.190767460E-01 -1.958869132E+00  0.0E+00

 NUCLEAR CHARGE  6.0  SYMMETRY SPECIES            S    P
 N. ELECTRONS    6.0  NUMBER OF PRIMITIVE GTOS    8    4
                      NUMBER OF CONTRACTED GTOS   4    2
                      NUMBER OF CLOSED SHELLS     2    0
                      OPEN SHELL OCCUPATION       0    2

  ZNUC  SCFIT    TOTAL HF ENERGY   KINETIC ENERGY   VIRIAL THEOREM ACCURACY
   6.0     9    -3.766704647E+01  3.775180683E+01 -1.997754800E+00  1.1E-06

 NUCLEAR CHARGE  8.0  SYMMETRY SPECIES            S    P
 N. ELECTRONS    8.0  NUMBER OF PRIMITIVE GTOS    8    4
                      NUMBER OF CONTRACTED GTOS   4    2
                      NUMBER OF CLOSED SHELLS     2    0
                      OPEN SHELL OCCUPATION       0    4

  ZNUC  SCFIT    TOTAL HF ENERGY   KINETIC ENERGY   VIRIAL THEOREM ACCURACY
   8.0    12    -7.477373220E+01  7.477365593E+01 -2.000001020E+00  3.8E-06

 AAAAAAAAAAAAAAAAAAAAAAAAAAAAAAAAAAAAAAAAAAAAAAAAAAAAAAAAAAAAAAAAAAAAAAAAAAAAAAA

 CHARGE NORMALIZATION FACTOR   1.00000000
 TOTAL ATOMIC CHARGES:
   5.0000000   5.0000000   5.0000000   5.0000000   5.0000000   5.0000000
   1.0000000   1.0000000   1.0000000   1.0000000   1.0000000   1.0000000
   1.0000000   1.0000000   1.0000000   1.0000000   1.0000000   1.0000000
   6.0000000   6.0000000   6.0000000   6.0000000   6.0000000   6.0000000
   6.0000000   6.0000000   6.0000000   6.0000000   6.0000000   6.0000000
   6.0000000   6.0000000   6.0000000   6.0000000   6.0000000   6.0000000
   8.0000000   8.0000000   8.0000000   8.0000000   8.0000000   8.0000000
 TTTTTTTTTTTTTTTTTTTTTTTTTTTTTT MOQGAD      TELAPSE        9.88 TCPU       18.21
 TTTTTTTTTTTTTTTTTTTTTTTTTTTTTT SHELLXN     TELAPSE       17.36 TCPU      205.55
 TTTTTTTTTTTTTTTTTTTTTTTTTTTTTT MONMO3      TELAPSE       17.50 TCPU      210.01
 NUMERICALLY INTEGRATED DENSITY    197.9999619000
 TTTTTTTTTTTTTTTTTTTTTTTTTTTTTT NUMDFT      TELAPSE       18.01 TCPU      226.33
 CYC   0 ETOT(AU) -1.295946182685E+03 DETOT -1.30E+03 tst  0.00E+00 PX  1.00E+00
 TTTTTTTTTTTTTTTTTTTTTTTTTTTTTT DIIS        TELAPSE       18.04 TCPU      227.37
 TTTTTTTTTTTTTTTTTTTTTTTTTTTTTT FDIK        TELAPSE       18.52 TCPU      242.71
 INSULATING STATE
 TOP OF VALENCE BANDS -    BAND     99; K    1; EIG -3.1256391E-01 AU
 BOTTOM OF VIRTUAL BANDS - BAND    100; K    1; EIG -1.5646504E-01 AU
 DIRECT ENERGY BAND GAP:   4.2477 eV
 TTTTTTTTTTTTTTTTTTTTTTTTTTTTTT PDIG        TELAPSE       18.81 TCPU      248.85
 CHARGE NORMALIZATION FACTOR   1.00000000
 TOTAL ATOMIC CHARGES:
   4.1614165   4.1620575   4.1631979   4.1649333   4.1621150   4.1604993
   0.7851760   0.7851365   0.7852996   0.7853355   0.7851917   0.7851038
   0.7860597   0.7856365   0.7848867   0.7854755   0.7855025   0.7857445
   6.0437761   6.2651550   6.2652398   6.2658782   6.2645813   6.0459957
   6.0403914   6.2663562   6.2645458   6.2669866   6.2668252   6.0438776
   6.0429582   6.2652575   6.2661341   6.2653725   6.2669948   6.0404898
   8.6929422   8.6921499   8.6922687   8.6917617   8.6910430   8.6942507
 TTTTTTTTTTTTTTTTTTTTTTTTTTTTTT MOQGAD      TELAPSE       18.85 TCPU      248.89
 TTTTTTTTTTTTTTTTTTTTTTTTTTTTTT SHELLXN     TELAPSE       24.95 TCPU      443.29
 TTTTTTTTTTTTTTTTTTTTTTTTTTTTTT MONMO3      TELAPSE       25.09 TCPU      447.73
 NUMERICALLY INTEGRATED DENSITY    197.9999823277
 TTTTTTTTTTTTTTTTTTTTTTTTTTTTTT NUMDFT      TELAPSE       25.60 TCPU      464.24
 CYC   1 ETOT(AU) -1.288811173671E+03 DETOT  7.14E+00 tst  0.00E+00 PX  1.00E+00
 TTTTTTTTTTTTTTTTTTTTTTTTTTTTTT DIIS        TELAPSE       25.65 TCPU      465.62
 DIIS TEST: 0.11091E+01 AT SCF   CYCLE   1 - MIX   30 %
 TTTTTTTTTTTTTTTTTTTTTTTTTTTTTT FDIK        TELAPSE       26.13 TCPU      481.02
 INSULATING STATE
 TOP OF VALENCE BANDS -    BAND     99; K    1; EIG -2.2261777E-01 AU
 BOTTOM OF VIRTUAL BANDS - BAND    100; K    1; EIG -7.8280181E-02 AU
 DIRECT ENERGY BAND GAP:   3.9276 eV
 TTTTTTTTTTTTTTTTTTTTTTTTTTTTTT PDIG        TELAPSE       26.41 TCPU      487.16
 CHARGE NORMALIZATION FACTOR   1.00000000
 TOTAL ATOMIC CHARGES:
   4.7062339   4.7088566   4.7089132   4.7095540   4.7082235   4.7060733
   0.9128409   0.9131997   0.9163105   0.9162337   0.9121484   0.9117517
   0.9127298   0.9129973   0.9123930   0.9129216   0.9160135   0.9162085
   5.8649250   6.1252771   6.1233092   6.1368626   6.1392362   5.8610770
   5.8723162   6.1292924   6.1318004   6.1346706   6.1323745   5.8676368
   5.8670652   6.1199790   6.1230255   6.1393175   6.1363674   5.8673983
   8.3335145   8.3321721   8.3418018   8.3308079   8.3389574   8.3372122
 TTTTTTTTTTTTTTTTTTTTTTTTTTTTTT MOQGAD      TELAPSE       26.46 TCPU      487.20
 TTTTTTTTTTTTTTTTTTTTTTTTTTTTTT SHELLXN     TELAPSE       32.56 TCPU      681.57
 TTTTTTTTTTTTTTTTTTTTTTTTTTTTTT MONMO3      TELAPSE       32.70 TCPU      686.02
 NUMERICALLY INTEGRATED DENSITY    197.9999771432
 TTTTTTTTTTTTTTTTTTTTTTTTTTTTTT NUMDFT      TELAPSE       33.22 TCPU      702.54
 CYC   2 ETOT(AU) -1.289006611597E+03 DETOT -1.95E-01 tst  4.32E-03 PX  1.58E-01
 TTTTTTTTTTTTTTTTTTTTTTTTTTTTTT DIIS        TELAPSE       33.26 TCPU      704.03
 DIIS TEST: 0.46314E+00 AT SCF   CYCLE   2 - DIIS ACTIVE - HISTORY:     2 CYCLES
 TTTTTTTTTTTTTTTTTTTTTTTTTTTTTT FDIK        TELAPSE       33.75 TCPU      719.53
 INSULATING STATE
 TOP OF VALENCE BANDS -    BAND     99; K    1; EIG -2.3606659E-01 AU
 BOTTOM OF VIRTUAL BANDS - BAND    100; K    1; EIG -7.3924181E-02 AU
 DIRECT ENERGY BAND GAP:   4.4121 eV
 TTTTTTTTTTTTTTTTTTTTTTTTTTTTTT PDIG        TELAPSE       34.03 TCPU      725.67
 CHARGE NORMALIZATION FACTOR   1.00000000
 TOTAL ATOMIC CHARGES:
   4.5000574   4.5009299   4.5012579   4.5027992   4.5005412   4.4991984
   0.8893104   0.8891274   0.8917079   0.8918956   0.8885875   0.8884493
   0.8900925   0.8894963   0.8881325   0.8892793   0.8920985   0.8916735
   5.8875272   6.1592953   6.1603374   6.1589584   6.1589517   5.8895888
   5.8924107   6.1577915   6.1580478   6.1604419   6.1605175   5.8938094
   5.8888183   6.1592337   6.1596123   6.1598438   6.1605417   5.8877527
   8.5113047   8.5107194   8.5091303   8.5101913   8.5071042   8.5134348
 TTTTTTTTTTTTTTTTTTTTTTTTTTTTTT MOQGAD      TELAPSE       34.08 TCPU      725.72
 TTTTTTTTTTTTTTTTTTTTTTTTTTTTTT SHELLXN     TELAPSE       40.18 TCPU      920.16
 TTTTTTTTTTTTTTTTTTTTTTTTTTTTTT MONMO3      TELAPSE       40.32 TCPU      924.60
 NUMERICALLY INTEGRATED DENSITY    197.9999782201
 TTTTTTTTTTTTTTTTTTTTTTTTTTTTTT NUMDFT      TELAPSE       40.83 TCPU      941.15
 CYC   3 ETOT(AU) -1.289102988342E+03 DETOT -9.64E-02 tst  6.95E-04 PX  6.32E-02
 TTTTTTTTTTTTTTTTTTTTTTTTTTTTTT DIIS        TELAPSE       40.89 TCPU      942.92
 DIIS TEST: 0.12154E-01 AT SCF   CYCLE   3 - DIIS ACTIVE - HISTORY:     3 CYCLES
 TTTTTTTTTTTTTTTTTTTTTTTTTTTTTT FDIK        TELAPSE       41.38 TCPU      958.43
 INSULATING STATE
 TOP OF VALENCE BANDS -    BAND     99; K    1; EIG -2.4674024E-01 AU
 BOTTOM OF VIRTUAL BANDS - BAND    100; K    1; EIG -8.2883074E-02 AU
 DIRECT ENERGY BAND GAP:   4.4588 eV
 TTTTTTTTTTTTTTTTTTTTTTTTTTTTTT PDIG        TELAPSE       41.67 TCPU      964.59
 CHARGE NORMALIZATION FACTOR   1.00000000
 TOTAL ATOMIC CHARGES:
   4.5066722   4.5062811   4.5064098   4.5078874   4.5056009   4.5061230
   0.8722272   0.8726312   0.8741781   0.8742684   0.8708293   0.8706757
   0.8720291   0.8719611   0.8717206   0.8724580   0.8743773   0.8744426
   5.9395548   6.1609710   6.1587667   6.1693170   6.1699054   5.9368175
   5.9438750   6.1647443   6.1652743   6.1672217   6.1656538   5.9417826
   5.9398600   6.1577203   6.1599230   6.1704310   6.1689290   5.9390115
   8.4767029   8.4754056   8.4828851   8.4743352   8.4807269   8.4794124
 TTTTTTTTTTTTTTTTTTTTTTTTTTTTTT MOQGAD      TELAPSE       41.72 TCPU      964.63
 TTTTTTTTTTTTTTTTTTTTTTTTTTTTTT SHELLXN     TELAPSE       47.82 TCPU     1159.36
 TTTTTTTTTTTTTTTTTTTTTTTTTTTTTT MONMO3      TELAPSE       47.96 TCPU     1163.80
 NUMERICALLY INTEGRATED DENSITY    197.9999784750
 TTTTTTTTTTTTTTTTTTTTTTTTTTTTTT NUMDFT      TELAPSE       48.48 TCPU     1180.35
 CYC   4 ETOT(AU) -1.289105503075E+03 DETOT -2.51E-03 tst  2.75E-05 PX  1.28E-02
 TTTTTTTTTTTTTTTTTTTTTTTTTTTTTT DIIS        TELAPSE       48.54 TCPU     1182.18
 DIIS TEST: 0.40574E-02 AT SCF   CYCLE   4 - DIIS ACTIVE - HISTORY:     4 CYCLES
 TTTTTTTTTTTTTTTTTTTTTTTTTTTTTT FDIK        TELAPSE       49.03 TCPU     1197.75
 INSULATING STATE
 TOP OF VALENCE BANDS -    BAND     99; K    1; EIG -2.4464209E-01 AU
 BOTTOM OF VIRTUAL BANDS - BAND    100; K    1; EIG -8.2203514E-02 AU
 DIRECT ENERGY BAND GAP:   4.4202 eV
 TTTTTTTTTTTTTTTTTTTTTTTTTTTTTT PDIG        TELAPSE       49.31 TCPU     1203.89
 CHARGE NORMALIZATION FACTOR   1.00000000
 TOTAL ATOMIC CHARGES:
   4.5072650   4.5083851   4.5086488   4.5100069   4.5078467   4.5066009
   0.8755768   0.8755074   0.8778643   0.8779431   0.8746167   0.8743966
   0.8758982   0.8754898   0.8746614   0.8756512   0.8781263   0.8779122
   5.9181050   6.1624363   6.1628781   6.1675080   6.1680446   5.9190396
   5.9226077   6.1644107   6.1651211   6.1671358   6.1667111   5.9227432
   5.9197159   6.1612947   6.1622384   6.1684815   6.1683697   5.9188027
   8.4886209   8.4877313   8.4898442   8.4870393   8.4877077   8.4910151
 TTTTTTTTTTTTTTTTTTTTTTTTTTTTTT MOQGAD      TELAPSE       49.35 TCPU     1203.94
 TTTTTTTTTTTTTTTTTTTTTTTTTTTTTT SHELLXN     TELAPSE       55.46 TCPU     1398.61
 TTTTTTTTTTTTTTTTTTTTTTTTTTTTTT MONMO3      TELAPSE       55.60 TCPU     1403.06
 NUMERICALLY INTEGRATED DENSITY    197.9999785056
 TTTTTTTTTTTTTTTTTTTTTTTTTTTTTT NUMDFT      TELAPSE       56.12 TCPU     1419.60
 CYC   5 ETOT(AU) -1.289106430853E+03 DETOT -9.28E-04 tst  6.05E-06 PX  6.65E-03
 TTTTTTTTTTTTTTTTTTTTTTTTTTTTTT DIIS        TELAPSE       56.18 TCPU     1421.76
 DIIS TEST: 0.68411E-04 AT SCF   CYCLE   5 - DIIS ACTIVE - HISTORY:     5 CYCLES
 TTTTTTTTTTTTTTTTTTTTTTTTTTTTTT FDIK        TELAPSE       56.67 TCPU     1437.41
 INSULATING STATE
 TOP OF VALENCE BANDS -    BAND     99; K    1; EIG -2.4439508E-01 AU
 BOTTOM OF VIRTUAL BANDS - BAND    100; K    1; EIG -8.1604578E-02 AU
 DIRECT ENERGY BAND GAP:   4.4298 eV
 TTTTTTTTTTTTTTTTTTTTTTTTTTTTTT PDIG        TELAPSE       56.96 TCPU     1443.55
 CHARGE NORMALIZATION FACTOR   1.00000000
 TOTAL ATOMIC CHARGES:
   4.5075013   4.5078819   4.5080702   4.5095150   4.5072984   4.5068672
   0.8764042   0.8766857   0.8787740   0.8789128   0.8755268   0.8753862
   0.8767699   0.8765729   0.8757486   0.8765802   0.8790062   0.8789543
   5.9194472   6.1626478   6.1609598   6.1674113   6.1676498   5.9175947
   5.9236681   6.1640368   6.1643314   6.1666447   6.1655782   5.9225942
   5.9196913   6.1600725   6.1618404   6.1684958   6.1675739   5.9187867
   8.4873653   8.4863616   8.4907877   8.4853738   8.4886889   8.4899420
 TTTTTTTTTTTTTTTTTTTTTTTTTTTTTT MOQGAD      TELAPSE       57.00 TCPU     1443.60
 TTTTTTTTTTTTTTTTTTTTTTTTTTTTTT SHELLXN     TELAPSE       63.11 TCPU     1638.21
 TTTTTTTTTTTTTTTTTTTTTTTTTTTTTT MONMO3      TELAPSE       63.25 TCPU     1642.66
 NUMERICALLY INTEGRATED DENSITY    197.9999784933
 TTTTTTTTTTTTTTTTTTTTTTTTTTTTTT NUMDFT      TELAPSE       63.77 TCPU     1659.18
 CYC   6 ETOT(AU) -1.289106448765E+03 DETOT -1.79E-05 tst  1.78E-07 PX  1.01E-03
 TTTTTTTTTTTTTTTTTTTTTTTTTTTTTT DIIS        TELAPSE       63.84 TCPU     1661.34
 DIIS TEST: 0.90163E-05 AT SCF   CYCLE   6 - DIIS ACTIVE - HISTORY:     6 CYCLES
 TTTTTTTTTTTTTTTTTTTTTTTTTTTTTT FDIK        TELAPSE       64.33 TCPU     1676.95
 INSULATING STATE
 TOP OF VALENCE BANDS -    BAND     99; K    1; EIG -2.4442240E-01 AU
 BOTTOM OF VIRTUAL BANDS - BAND    100; K    1; EIG -8.1684352E-02 AU
 DIRECT ENERGY BAND GAP:   4.4283 eV
 TTTTTTTTTTTTTTTTTTTTTTTTTTTTTT PDIG        TELAPSE       64.61 TCPU     1683.09
 CHARGE NORMALIZATION FACTOR   1.00000000
 TOTAL ATOMIC CHARGES:
   4.5073722   4.5081684   4.5084271   4.5098340   4.5076428   4.5067053
   0.8765145   0.8764927   0.8787501   0.8788305   0.8755044   0.8752918
   0.8767876   0.8764244   0.8756341   0.8766031   0.8790177   0.8788202
   5.9184821   6.1616404   6.1619006   6.1668571   6.1674541   5.9192162
   5.9232709   6.1636538   6.1643814   6.1664256   6.1657257   5.9230525
   5.9200308   6.1603382   6.1614367   6.1678812   6.1676015   5.9190951
   8.4879090   8.4869185   8.4897576   8.4862285   8.4876216   8.4903000
 TTTTTTTTTTTTTTTTTTTTTTTTTTTTTT MOQGAD      TELAPSE       64.65 TCPU     1683.14
 TTTTTTTTTTTTTTTTTTTTTTTTTTTTTT SHELLXN     TELAPSE       70.75 TCPU     1877.48
 TTTTTTTTTTTTTTTTTTTTTTTTTTTTTT MONMO3      TELAPSE       70.89 TCPU     1881.92
 NUMERICALLY INTEGRATED DENSITY    197.9999784858
 TTTTTTTTTTTTTTTTTTTTTTTTTTTTTT NUMDFT      TELAPSE       71.41 TCPU     1898.43
 CYC   7 ETOT(AU) -1.289106449874E+03 DETOT -1.11E-06 tst  5.18E-08 PX  3.64E-04
 TTTTTTTTTTTTTTTTTTTTTTTTTTTTTT DIIS        TELAPSE       71.48 TCPU     1900.89
 DIIS TEST: 0.17079E-05 AT SCF   CYCLE   7 - DIIS ACTIVE - HISTORY:     7 CYCLES
 TTTTTTTTTTTTTTTTTTTTTTTTTTTTTT FDIK        TELAPSE       71.97 TCPU     1916.42
 INSULATING STATE
 TOP OF VALENCE BANDS -    BAND     99; K    1; EIG -2.4442429E-01 AU
 BOTTOM OF VIRTUAL BANDS - BAND    100; K    1; EIG -8.1700711E-02 AU
 DIRECT ENERGY BAND GAP:   4.4279 eV
 TTTTTTTTTTTTTTTTTTTTTTTTTTTTTT PDIG        TELAPSE       72.25 TCPU     1922.56
 CHARGE NORMALIZATION FACTOR   1.00000000
 TOTAL ATOMIC CHARGES:
   4.5074822   4.5082094   4.5084383   4.5098410   4.5076459   4.5068266
   0.8764150   0.8765197   0.8787048   0.8788154   0.8754543   0.8752756
   0.8767316   0.8764150   0.8756242   0.8765405   0.8789593   0.8788185
   5.9189961   6.1620695   6.1614423   6.1670816   6.1674490   5.9184765
   5.9232767   6.1638322   6.1643258   6.1664338   6.1657805   5.9228923
   5.9198861   6.1602207   6.1615455   6.1680694   6.1675996   5.9190171
   8.4877678   8.4868441   8.4900713   8.4859885   8.4879436   8.4902730
 TTTTTTTTTTTTTTTTTTTTTTTTTTTTTT MOQGAD      TELAPSE       72.30 TCPU     1922.61
 TTTTTTTTTTTTTTTTTTTTTTTTTTTTTT SHELLXN     TELAPSE       78.39 TCPU     2117.01
 TTTTTTTTTTTTTTTTTTTTTTTTTTTTTT MONMO3      TELAPSE       78.53 TCPU     2121.46
 NUMERICALLY INTEGRATED DENSITY    197.9999784865
 TTTTTTTTTTTTTTTTTTTTTTTTTTTTTT NUMDFT      TELAPSE       79.05 TCPU     2137.99
 CYC   8 ETOT(AU) -1.289106450195E+03 DETOT -3.21E-07 tst  1.27E-08 PX  1.78E-04
 TTTTTTTTTTTTTTTTTTTTTTTTTTTTTT DIIS        TELAPSE       79.13 TCPU     2140.50
 DIIS TEST: 0.99412E-07 AT SCF   CYCLE   8 - DIIS ACTIVE - HISTORY:     8 CYCLES
 TTTTTTTTTTTTTTTTTTTTTTTTTTTTTT FDIK        TELAPSE       79.62 TCPU     2156.06
 INSULATING STATE
 TOP OF VALENCE BANDS -    BAND     99; K    1; EIG -2.4442479E-01 AU
 BOTTOM OF VIRTUAL BANDS - BAND    100; K    1; EIG -8.1695506E-02 AU
 DIRECT ENERGY BAND GAP:   4.4281 eV
 TTTTTTTTTTTTTTTTTTTTTTTTTTTTTT PDIG        TELAPSE       79.90 TCPU     2162.20
 CHARGE NORMALIZATION FACTOR   1.00000000
 TOTAL ATOMIC CHARGES:
   4.5074816   4.5081779   4.5084074   4.5098238   4.5076267   4.5068320
   0.8764182   0.8765009   0.8787055   0.8788051   0.8754565   0.8752683
   0.8767221   0.8764204   0.8756149   0.8765355   0.8789568   0.8788136
   5.9187648   6.1619951   6.1615883   6.1670521   6.1675361   5.9186418
   5.9233626   6.1638041   6.1643837   6.1665409   6.1656883   5.9228199
   5.9198966   6.1602541   6.1615879   6.1681218   6.1675931   5.9189401
   8.4877714   8.4867768   8.4901113   8.4859881   8.4879929   8.4902209
 TTTTTTTTTTTTTTTTTTTTTTTTTTTTTT MOQGAD      TELAPSE       79.94 TCPU     2162.25
 TTTTTTTTTTTTTTTTTTTTTTTTTTTTTT SHELLXN     TELAPSE       86.04 TCPU     2356.65
 +++ ENERGIES IN A.U. +++
 ::: EXT EL-POLE                                  -1.1680611378738E+03
 ::: EXT EL-SPHEROPOLE                             1.3289640258148E+01
 ::: BIELET ZONE E-E                               2.0395905243956E+03
 ::: TOTAL E-E                                     8.8481902677998E+02
 ::: TOTAL E-N + N-E                              -3.6010212885793E+03
 ::: TOTAL N-N                                     2.8089078454105E+02
 ::: KINETIC ENERGY                                1.2799184602137E+03
 ::: PSEUDO TOTAL   ENERGY                        -1.1553930170445E+03
 ::: VIRIAL COEFFICIENT                            1.0511332715885E+00
 TTTTTTTTTTTTTTTTTTTTTTTTTTTTTT MONMO3      TELAPSE       86.18 TCPU     2361.10
 NUMERICALLY INTEGRATED DENSITY    197.9999784868
 EXCHANGE ENERGY: -0.126024533766E+03  CORRELATION ENERGY: -0.768889944668E+01
 TTTTTTTTTTTTTTTTTTTTTTTTTTTTTT NUMDFT      TELAPSE       86.70 TCPU     2377.58
 CYC   9 ETOT(AU) -1.289106450258E+03 DETOT -6.25E-08 tst  1.44E-09 PX  1.78E-04

 == SCF ENDED - CONVERGENCE ON ENERGY      E(AU) -1.2891064502576E+03 CYCLES   9


 ENERGY EXPRESSION=HARTREE+FOCK EXCH*0.00000+(HSESOL     EXCH)*1.00000+PBESOL     CORR


 TOTAL ENERGY(DFT)(AU)(  9) -1.2891064502576E+03 DE-6.3E-08 tester 1.4E-09
 TTTTTTTTTTTTTTTTTTTTTTTTTTTTTT EDFT        TELAPSE       86.70 TCPU     2377.59
 
 INFORMATION **** DFTD3 ENERGY **** CALCULATE DFTD3 ENERGY

           DFT-D V3(BJ)
 DF                                         hsesol3c  
 parameters
 s6       :    1.0000
 s8       :    0.0000
 a1       :    0.5196
 a2       :    4.9385
 k1 k3    :   16.0000   -4.0000
 Cutoff   :   50.2022
 CN-Cutoff:   21.1671
 ABC-Cutoff:   21.1671
 
 Edisp /kcal,au:   -23.5910 -0.03759460

 E6    /kcal :   -25.0247
 E8    /kcal :     0.0000
 E6(ABC) "   :   1.433778
 
 INFORMATION **** DFTD3 ENERGY **** NORMAL TERMINATION OF DFTD3 MODULE

 GCP ENERGY CALCULATION
  level        hsesol3c            basis:hsesol3c
  Nbf            474
  Atoms           42

  Parameters: 
  sigma     1.0000
  eta       1.4281
  alpha     0.2936
  beta      1.9467

  dmp_scal      4.0000
  dmp_exp       6.0000
 cutoffs: 
   distance [bohr] 60.0
   noise    [a.u.] 2.2E-16
 SR-damping   T
 ** gCP correction **
  Egcp:        0.0829482830 / (a.u.) ||      52.0508 / (kcal/mol)
 INFORMATION **** GCP **** NORMAL TERMINATION OF GCP MODULE

 *******************************************************************************

 DFT-D3-GCP DISPERSION AND COUNTERPOISE CORRECTION

 D3 DISPERSION ENERGY (AU)      -3.7594598690545E-02
 GCP ENERGY (AU)                 8.2948282974824E-02
 TOTAL ENERGY + DISP + GCP (AU) -1.2890610965733E+03

 *******************************************************************************

 EIGENVECTORS IN FORTRAN UNIT 10
 TTTTTTTTTTTTTTTTTTTTTTTTTTTTTT END         TELAPSE       87.73 TCPU     2384.60
 EEEEEEEEEE TERMINATION  DATE 02 12 2025 TIME 08:07:17.3
