 Default number of threads is:           32

         
 *******************************************************************************
 *                                                                             *
 *                               CRYSTAL23                                     *
 *                      public : 1.0.1 - October 2022                          *
 *                       HTTP://WWW.CRYSTAL.UNITO.IT                           *
 *                                                                             *
 *                              MAIN AUTHORS                                   *
 *                                                                             *
 *  R. DOVESI(1,11), V.R. SAUNDERS(2), C. ROETTI(1,11), R. ORLANDO(1,11),      *
 *  C.M. ZICOVICH-WILSON(1,3), F. PASCALE(4), B. CIVALLERI(1,11),              *
 *  K. DOLL(5), N.M. HARRISON(6), I.J. BUSH(7), Ph. D'ARCO(8),                 *
 *  M. LLUNELL(9), M. CAUSA'(10), Y. NOEL(8), L. MASCHIO(1,11), A. ERBA(1,11)  *
 *  M. RE'RAT(14), S. CASASSA(1,11), B.G. SEARLE(2), J.K. DESMARAIS(1)         *
 *                                                                             *
 *        CONTRIBUTIONS TO THE CODE HAVE ALSO BEEN GIVEN BY                    *
 *                                                                             *
 *  M. FERRABONE(1,11), M. DE LA PIERRE(1,11), M. FERRERO(1,11),               *
 *  J. BAIMA(1,11), E. ALBANESE(1,11), M.F. PEINTINGER(12), R. BAST(13),       *
 *  B. KIRTMAN(15), V. LACIVITA(1,11), R. DEMICHELIS(1,16)                     *
 *  G. BRANDEBURG(17), S. SALUSTRO(1,11), G. SANSONE(1,11)                     *
 *  M.T. RUGGIERO(18), L.E. DAGA(1), L. DONA'(1), A. COSSARD(1)                *
 *                                                                             *
 * (1) THEORETICAL CHEMISTRY GROUP - UNIVERSITA' DI TORINO - TORINO (ITALY)    *
 * (2) SCIENTIFIC COMPUTING DEPARTMENT - STFC DARESBURY (UK)                   *
 * (3) UNIVERSIDAD AUTONOMA DEL ESTADO DE MORELOS - CUERNAVACA (MEXICO)        *
 * (4) UNIVERSITE' DE LORRAINE - NANCY (FRANCE)                                *
 * (5) UNIVERSITAET STUTTGART- STUTTGART (GERMANY)                             *
 * (6) IMPERIAL COLLEGE - LONDON (UK)                                          *
 * (7) SCIENTIFIC COMPUTING DEPARTMENT - STFC RAL (UK)                         *
 * (8) UPMC - SORBONNE UNIVERSITES - PARIS (FRANCE)                            *
 * (9) UNIVERSIDAD DE BARCELONA - BARCELONA (SPAIN)                            *
 *(10) UNIVERSITA' DI NAPOLI "FEDERICO II" - NAPOLI (ITALY)                    *
 *(11) NIS - NANOSTRUCTURED INTERFACES AND SURFACES - TORINO (ITALY)           *
 *(12) MPI FUER CHEMISCHE ENERGIEKONVERSION - MUELHEIM AN DER RUHR (GERMANY)   *
 *(13) UNIVERSITY OF TROMSO - TROMSO (NORWAY)                                  *
 *(14) UNIVERSITE' DE PAU ET DES PAYS DE L'ADOUR - PAU (FRANCE)                *
 *(15) UNIVERSITY OF CALIFORNIA SANTA BARBARA - SANTA BARBARA (USA)            *
 *(16) CURTIN UNIVERSITY - PERTH (AUSTRALIA)                                   *
 *(17) UNIVERSITY COLLEGE LONDON - LONDON (UK)                                 *
 *(18) UNIVERSITY OF VERMONT - BURLINGTON (USA)                                *
 *                                                                             *
 *******************************************************************************
 EEEEEEEEEE STARTING  DATE 19 02 2026 TIME 19:55:18.0
 cof-1_z32_L087_serr                                                             

 CRYSTAL CALCULATION
 (INPUT ACCORDING TO THE INTERNATIONAL TABLES FOR X-RAY CRYSTALLOGRAPHY)
 CRYSTAL FAMILY                       :  TRICLINIC   
 CRYSTAL CLASS  (GROTH - 1921)        :  TRICLINIC PEDIAL                     

 SPACE GROUP (NONCENTROSYMMETRIC)     :  P 1             

 LATTICE PARAMETERS  (ANGSTROMS AND DEGREES) - CONVENTIONAL CELL
        A           B           C        ALPHA        BETA       GAMMA
    15.02361    15.02392     6.40000    90.00032    89.99994   119.99596


 NUMBER OF IRREDUCIBLE ATOMS IN THE CONVENTIONAL CELL:   84

 INPUT COORDINATES

 ATOM AT. N.              COORDINATES
   1   5     6.136805400000E-01  2.273182200000E-01  2.507463700000E-01
   2   5     9.469833800000E-01  8.939916600000E-01  7.507463700000E-01
   3   5     7.727362000000E-01  3.863778800000E-01  2.507463800000E-01
   4   5     1.060390400000E-01  5.305132000000E-02  7.507463800000E-01
   5   5     6.136762700000E-01  3.863606700000E-01  2.491771200000E-01
   6   5     9.469791100000E-01  5.303411000000E-02  7.491771300000E-01
   7   5     2.272552500000E-01  6.136332200000E-01  2.507463700000E-01
   8   5     5.605580900000E-01  2.803066600000E-01  7.507463700000E-01
   9   5     3.863632200000E-01  6.136124500000E-01  2.507463700000E-01
  10   5     7.196660600000E-01  2.802858900000E-01  7.507463700000E-01
  11   5     3.863435000000E-01  7.727516500000E-01  2.491771300000E-01
  12   5     7.196463400000E-01  4.394250900000E-01  7.491771200000E-01
  13   1     9.030436200000E-01  3.089300500000E-01  2.474930100000E-01
  14   1     2.363464600000E-01  9.756034900000E-01  7.474930000000E-01
  15   1     9.663453000000E-02  6.910534400000E-01  2.469955100000E-01
  16   1     4.299373700000E-01  3.577268800000E-01  7.469955100000E-01
  17   1     9.029714200000E-01  5.940724300000E-01  2.469189400000E-01
  18   1     2.362742600000E-01  2.607458700000E-01  7.469189400000E-01
  19   1     9.673618000000E-02  4.056849400000E-01  2.469380400000E-01
  20   1     4.300390200000E-01  7.235838000000E-02  7.469380400000E-01
  21   1     6.910324000000E-01  9.700412000000E-02  2.525070200000E-01
  22   1     2.433524000000E-02  7.636775600000E-01  7.525070200000E-01
  23   1     3.089297200000E-01  9.034373100000E-01  2.530045500000E-01
  24   1     6.422325600000E-01  5.701107500000E-01  7.530045500000E-01
  25   1     4.058699900000E-01  9.704998000000E-02  2.530811600000E-01
  26   1     7.391728300000E-01  7.637234200000E-01  7.530811600000E-01
  27   1     5.943122100000E-01  9.033473200000E-01  2.530619400000E-01
  28   1     9.276150500000E-01  5.700207600000E-01  7.530619400000E-01
  29   1     6.910727400000E-01  5.940542100000E-01  2.474930300000E-01
  30   1     2.437558000000E-02  2.607276500000E-01  7.474930300000E-01
  31   1     3.089618300000E-01  4.056093300000E-01  2.469954700000E-01
  32   1     6.422646700000E-01  7.228277000000E-02  7.469954700000E-01
  33   1     4.058405700000E-01  3.088232500000E-01  2.469188800000E-01
  34   1     7.391434100000E-01  9.754966900000E-01  7.469188800000E-01
  35   1     5.942908800000E-01  6.909579300000E-01  2.469381000000E-01
  36   1     9.275937200000E-01  3.576313700000E-01  7.469381000000E-01
  37   6     8.918903100000E-01  4.459436900000E-01  2.491197000000E-01
  38   6     2.251931500000E-01  1.126171300000E-01  7.491197100000E-01
  39   6     9.464891100000E-01  3.927856300000E-01  2.475695600000E-01
  40   6     2.797919500000E-01  5.945907000000E-02  7.475695700000E-01
  41   6     5.338812000000E-02  6.071853000000E-01  2.474356500000E-01
  42   6     3.866909600000E-01  2.738587400000E-01  7.474356500000E-01
  43   6     9.464521100000E-01  5.536921900000E-01  2.478375300000E-01
  44   6     2.797549500000E-01  2.203656300000E-01  7.478375300000E-01
  45   6     5.342634000000E-02  4.462499700000E-01  2.468040800000E-01
  46   6     3.867291800000E-01  1.129234100000E-01  7.468040800000E-01
  47   6     1.080358900000E-01  5.540356300000E-01  2.478566500000E-01
  48   6     4.413387300000E-01  2.207090700000E-01  7.478566500000E-01
  49   6     5.540394200000E-01  1.081684600000E-01  2.508803400000E-01
  50   6     8.873422600000E-01  7.748419000000E-01  7.508803400000E-01
  51   6     6.071778500000E-01  5.355594000000E-02  2.524304500000E-01
  52   6     9.404806900000E-01  7.202293800000E-01  7.524304500000E-01
  53   6     3.927986700000E-01  9.466631600000E-01  2.525644100000E-01
  54   6     7.261015100000E-01  6.133366000000E-01  7.525644100000E-01
  55   6     4.462875800000E-01  5.360286000000E-02  2.521625500000E-01
  56   6     7.795904200000E-01  7.202763000000E-01  7.521625500000E-01
  57   6     5.537168500000E-01  9.466235600000E-01  2.531959200000E-01
  58   6     8.870196900000E-01  6.132970000000E-01  7.531959200000E-01
  59   6     4.459279100000E-01  8.919920600000E-01  2.521433800000E-01
  60   6     7.792307500000E-01  5.586655000000E-01  7.521433800000E-01
  61   6     5.540448700000E-01  4.458745500000E-01  2.491197000000E-01
  62   6     8.873477100000E-01  1.125479900000E-01  7.491197000000E-01
  63   6     6.072102200000E-01  5.536257800000E-01  2.475696000000E-01
  64   6     9.405130600000E-01  2.202992200000E-01  7.475696000000E-01
  65   6     3.928233700000E-01  4.461720300000E-01  2.474356200000E-01
  66   6     7.261262100000E-01  1.128454700000E-01  7.474356200000E-01
  67   6     4.462872600000E-01  3.926899900000E-01  2.478374900000E-01
  68   6     7.795901000000E-01  5.936343000000E-02  7.478374900000E-01
  69   6     5.537429600000E-01  6.070980000000E-01  2.468041200000E-01
  70   6     8.870458000000E-01  2.737714400000E-01  7.468041200000E-01
  71   6     4.459599800000E-01  5.539582300000E-01  2.478566500000E-01
  72   6     7.792628200000E-01  2.206316700000E-01  7.478566500000E-01
  73   8     5.607366800000E-01  2.803706300000E-01  2.495981300000E-01
  74   8     8.940395200000E-01  9.470440700000E-01  7.495981400000E-01
  75   8     7.196817000000E-01  2.803783300000E-01  2.529088600000E-01
  76   8     5.298454000000E-02  9.470517700000E-01  7.529088700000E-01
  77   8     7.196794200000E-01  4.393234600000E-01  2.479140800000E-01
  78   8     5.298226000000E-02  1.059969000000E-01  7.479140800000E-01
  79   8     2.803245100000E-01  7.196511100000E-01  2.495981500000E-01
  80   8     6.136273500000E-01  3.863245500000E-01  7.495981500000E-01
  81   8     2.803439700000E-01  5.606956100000E-01  2.529088600000E-01
  82   8     6.136468100000E-01  2.273690500000E-01  7.529088700000E-01
  83   8     4.392638400000E-01  7.196354200000E-01  2.479140600000E-01
  84   8     7.725666800000E-01  3.863088600000E-01  7.479140700000E-01

 *******************************************************************************

 << INFORMATION >>: FROM NOW ON, ALL COORDINATES REFER TO THE PRIMITIVE CELL

 *******************************************************************************

 LATTICE PARAMETERS  (ANGSTROMS AND DEGREES) - PRIMITIVE CELL
       A          B          C        ALPHA      BETA     GAMMA        VOLUME
   15.02361   15.02392    6.40000    90.00032  89.99994 119.99596   1251.081907

 COORDINATES OF THE EQUIVALENT ATOMS (FRACTIONAL UNITS)

 N. ATOM EQUIV AT. N.          X                  Y                  Z

   1   1   1    5 B    -3.86319460000E-01  2.27318220000E-01  2.50746370000E-01

   2   2   1    5 B    -5.30166200000E-02 -1.06008340000E-01 -2.49253630000E-01

   3   3   1    5 B    -2.27263800000E-01  3.86377880000E-01  2.50746380000E-01

   4   4   1    5 B     1.06039040000E-01  5.30513200000E-02 -2.49253620000E-01

   5   5   1    5 B    -3.86323730000E-01  3.86360670000E-01  2.49177120000E-01

   6   6   1    5 B    -5.30208900000E-02  5.30341100000E-02 -2.50822870000E-01

   7   7   1    5 B     2.27255250000E-01 -3.86366780000E-01  2.50746370000E-01

   8   8   1    5 B    -4.39441910000E-01  2.80306660000E-01 -2.49253630000E-01

   9   9   1    5 B     3.86363220000E-01 -3.86387550000E-01  2.50746370000E-01

  10  10   1    5 B    -2.80333940000E-01  2.80285890000E-01 -2.49253630000E-01

  11  11   1    5 B     3.86343500000E-01 -2.27248350000E-01  2.49177130000E-01

  12  12   1    5 B    -2.80353660000E-01  4.39425090000E-01 -2.50822880000E-01

  13  13   1    1 H    -9.69563800000E-02  3.08930050000E-01  2.47493010000E-01

  14  14   1    1 H     2.36346460000E-01 -2.43965100000E-02 -2.52507000000E-01

  15  15   1    1 H     9.66345300000E-02 -3.08946560000E-01  2.46995510000E-01

  16  16   1    1 H     4.29937370000E-01  3.57726880000E-01 -2.53004490000E-01

  17  17   1    1 H    -9.70285800000E-02 -4.05927570000E-01  2.46918940000E-01

  18  18   1    1 H     2.36274260000E-01  2.60745870000E-01 -2.53081060000E-01

  19  19   1    1 H     9.67361800000E-02  4.05684940000E-01  2.46938040000E-01

  20  20   1    1 H     4.30039020000E-01  7.23583800000E-02 -2.53061960000E-01

  21  21   1    1 H    -3.08967600000E-01  9.70041200000E-02  2.52507020000E-01

  22  22   1    1 H     2.43352400000E-02 -2.36322440000E-01 -2.47492980000E-01

  23  23   1    1 H     3.08929720000E-01 -9.65626900000E-02  2.53004550000E-01

  24  24   1    1 H    -3.57767440000E-01 -4.29889250000E-01 -2.46995450000E-01

  25  25   1    1 H     4.05869990000E-01  9.70499800000E-02  2.53081160000E-01

  26  26   1    1 H    -2.60827170000E-01 -2.36276580000E-01 -2.46918840000E-01

  27  27   1    1 H    -4.05687790000E-01 -9.66526800000E-02  2.53061940000E-01

  28  28   1    1 H    -7.23849500000E-02 -4.29979240000E-01 -2.46938060000E-01

  29  29   1    1 H    -3.08927260000E-01 -4.05945790000E-01  2.47493030000E-01

  30  30   1    1 H     2.43755800000E-02  2.60727650000E-01 -2.52506970000E-01

  31  31   1    1 H     3.08961830000E-01  4.05609330000E-01  2.46995470000E-01

  32  32   1    1 H    -3.57735330000E-01  7.22827700000E-02 -2.53004530000E-01

  33  33   1    1 H     4.05840570000E-01  3.08823250000E-01  2.46918880000E-01

  34  34   1    1 H    -2.60856590000E-01 -2.45033100000E-02 -2.53081120000E-01

  35  35   1    1 H    -4.05709120000E-01 -3.09042070000E-01  2.46938100000E-01

  36  36   1    1 H    -7.24062800000E-02  3.57631370000E-01 -2.53061900000E-01

  37  37   1    6 C    -1.08109690000E-01  4.45943690000E-01  2.49119700000E-01

  38  38   1    6 C     2.25193150000E-01  1.12617130000E-01 -2.50880290000E-01

  39  39   1    6 C    -5.35108900000E-02  3.92785630000E-01  2.47569560000E-01

  40  40   1    6 C     2.79791950000E-01  5.94590700000E-02 -2.52430430000E-01

  41  41   1    6 C     5.33881200000E-02 -3.92814700000E-01  2.47435650000E-01

  42  42   1    6 C     3.86690960000E-01  2.73858740000E-01 -2.52564350000E-01

  43  43   1    6 C    -5.35478900000E-02 -4.46307810000E-01  2.47837530000E-01

  44  44   1    6 C     2.79754950000E-01  2.20365630000E-01 -2.52162470000E-01

  45  45   1    6 C     5.34263400000E-02  4.46249970000E-01  2.46804080000E-01

  46  46   1    6 C     3.86729180000E-01  1.12923410000E-01 -2.53195920000E-01

  47  47   1    6 C     1.08035890000E-01 -4.45964370000E-01  2.47856650000E-01

  48  48   1    6 C     4.41338730000E-01  2.20709070000E-01 -2.52143350000E-01

  49  49   1    6 C    -4.45960580000E-01  1.08168460000E-01  2.50880340000E-01

  50  50   1    6 C    -1.12657740000E-01 -2.25158100000E-01 -2.49119660000E-01

  51  51   1    6 C    -3.92822150000E-01  5.35559400000E-02  2.52430450000E-01

  52  52   1    6 C    -5.95193100000E-02 -2.79770620000E-01 -2.47569550000E-01

  53  53   1    6 C     3.92798670000E-01 -5.33368400000E-02  2.52564410000E-01

  54  54   1    6 C    -2.73898490000E-01 -3.86663400000E-01 -2.47435590000E-01

  55  55   1    6 C     4.46287580000E-01  5.36028600000E-02  2.52162550000E-01

  56  56   1    6 C    -2.20409580000E-01 -2.79723700000E-01 -2.47837450000E-01

  57  57   1    6 C    -4.46283150000E-01 -5.33764400000E-02  2.53195920000E-01

  58  58   1    6 C    -1.12980310000E-01 -3.86703000000E-01 -2.46804080000E-01

  59  59   1    6 C     4.45927910000E-01 -1.08007940000E-01  2.52143380000E-01

  60  60   1    6 C    -2.20769250000E-01 -4.41334500000E-01 -2.47856620000E-01

  61  61   1    6 C    -4.45955130000E-01  4.45874550000E-01  2.49119700000E-01

  62  62   1    6 C    -1.12652290000E-01  1.12547990000E-01 -2.50880300000E-01

  63  63   1    6 C    -3.92789780000E-01 -4.46374220000E-01  2.47569600000E-01

  64  64   1    6 C    -5.94869400000E-02  2.20299220000E-01 -2.52430400000E-01

  65  65   1    6 C     3.92823370000E-01  4.46172030000E-01  2.47435620000E-01

  66  66   1    6 C    -2.73873790000E-01  1.12845470000E-01 -2.52564380000E-01

  67  67   1    6 C     4.46287260000E-01  3.92689990000E-01  2.47837490000E-01

  68  68   1    6 C    -2.20409900000E-01  5.93634300000E-02 -2.52162510000E-01

  69  69   1    6 C    -4.46257040000E-01 -3.92902000000E-01  2.46804120000E-01

  70  70   1    6 C    -1.12954200000E-01  2.73771440000E-01 -2.53195880000E-01

  71  71   1    6 C     4.45959980000E-01 -4.46041770000E-01  2.47856650000E-01

  72  72   1    6 C    -2.20737180000E-01  2.20631670000E-01 -2.52143350000E-01

  73  73   1    8 O    -4.39263320000E-01  2.80370630000E-01  2.49598130000E-01

  74  74   1    8 O    -1.05960480000E-01 -5.29559300000E-02 -2.50401860000E-01

  75  75   1    8 O    -2.80318300000E-01  2.80378330000E-01  2.52908860000E-01

  76  76   1    8 O     5.29845400000E-02 -5.29482300000E-02 -2.47091130000E-01

  77  77   1    8 O    -2.80320580000E-01  4.39323460000E-01  2.47914080000E-01

  78  78   1    8 O     5.29822600000E-02  1.05996900000E-01 -2.52085920000E-01

  79  79   1    8 O     2.80324510000E-01 -2.80348890000E-01  2.49598150000E-01

  80  80   1    8 O    -3.86372650000E-01  3.86324550000E-01 -2.50401850000E-01

  81  81   1    8 O     2.80343970000E-01 -4.39304390000E-01  2.52908860000E-01

  82  82   1    8 O    -3.86353190000E-01  2.27369050000E-01 -2.47091130000E-01

  83  83   1    8 O     4.39263840000E-01 -2.80364580000E-01  2.47914060000E-01

  84  84   1    8 O    -2.27433320000E-01  3.86308860000E-01 -2.52085930000E-01

 NUMBER OF SYMMETRY OPERATORS         :    1
 *******************************************************************************
 * GEOMETRY EDITING - INPUT COORDINATES ARE GIVEN IN ANGSTROM         
 *******************************************************************************

 GCALCO - MAX INDICES DIRECT LATTICE VECTOR    11    11    24
 NO.OF VECTORS CREATED 6999 STARS 3500 RMAX   241.85967 BOHR

 GEOMETRY FOR WAVE FUNCTION - DIMENSIONALITY OF THE SYSTEM    3
 (NON PERIODIC DIRECTION: LATTICE PARAMETER FORMALLY SET TO 500)
 *******************************************************************************
 LATTICE PARAMETERS (ANGSTROMS AND DEGREES) - BOHR = 0.5291772083 ANGSTROM
 PRIMITIVE CELL - CENTRING CODE 1/0 VOLUME=  1251.081907 - DENSITY  1.036 g/cm^3
         A              B              C           ALPHA      BETA       GAMMA 
    15.02361100    15.02391600     6.40000000    90.000323  89.999944 119.995964
 *******************************************************************************
 ATOMS IN THE ASYMMETRIC UNIT   84 - ATOMS IN THE UNIT CELL:   84
     ATOM                 X/A                 Y/B                 Z/C    
 *******************************************************************************
      1 T   5 B    -3.863194600000E-01  2.273182200000E-01  2.507463700000E-01
      2 T   5 B    -5.301662000000E-02 -1.060083400000E-01 -2.492536300000E-01
      3 T   5 B    -2.272638000000E-01  3.863778800000E-01  2.507463800000E-01
      4 T   5 B     1.060390400000E-01  5.305132000000E-02 -2.492536200000E-01
      5 T   5 B    -3.863237300000E-01  3.863606700000E-01  2.491771200000E-01
      6 T   5 B    -5.302089000000E-02  5.303411000000E-02 -2.508228700000E-01
      7 T   5 B     2.272552500000E-01 -3.863667800000E-01  2.507463700000E-01
      8 T   5 B    -4.394419100000E-01  2.803066600000E-01 -2.492536300000E-01
      9 T   5 B     3.863632200000E-01 -3.863875500000E-01  2.507463700000E-01
     10 T   5 B    -2.803339400000E-01  2.802858900000E-01 -2.492536300000E-01
     11 T   5 B     3.863435000000E-01 -2.272483500000E-01  2.491771300000E-01
     12 T   5 B    -2.803536600000E-01  4.394250900000E-01 -2.508228800000E-01
     13 T   1 H    -9.695638000000E-02  3.089300500000E-01  2.474930100000E-01
     14 T   1 H     2.363464600000E-01 -2.439651000000E-02 -2.525070000000E-01
     15 T   1 H     9.663453000000E-02 -3.089465600000E-01  2.469955100000E-01
     16 T   1 H     4.299373700000E-01  3.577268800000E-01 -2.530044900000E-01
     17 T   1 H    -9.702858000000E-02 -4.059275700000E-01  2.469189400000E-01
     18 T   1 H     2.362742600000E-01  2.607458700000E-01 -2.530810600000E-01
     19 T   1 H     9.673618000000E-02  4.056849400000E-01  2.469380400000E-01
     20 T   1 H     4.300390200000E-01  7.235838000000E-02 -2.530619600000E-01
     21 T   1 H    -3.089676000000E-01  9.700412000000E-02  2.525070200000E-01
     22 T   1 H     2.433524000000E-02 -2.363224400000E-01 -2.474929800000E-01
     23 T   1 H     3.089297200000E-01 -9.656269000000E-02  2.530045500000E-01
     24 T   1 H    -3.577674400000E-01 -4.298892500000E-01 -2.469954500000E-01
     25 T   1 H     4.058699900000E-01  9.704998000000E-02  2.530811600000E-01
     26 T   1 H    -2.608271700000E-01 -2.362765800000E-01 -2.469188400000E-01
     27 T   1 H    -4.056877900000E-01 -9.665268000000E-02  2.530619400000E-01
     28 T   1 H    -7.238495000000E-02 -4.299792400000E-01 -2.469380600000E-01
     29 T   1 H    -3.089272600000E-01 -4.059457900000E-01  2.474930300000E-01
     30 T   1 H     2.437558000000E-02  2.607276500000E-01 -2.525069700000E-01
     31 T   1 H     3.089618300000E-01  4.056093300000E-01  2.469954700000E-01
     32 T   1 H    -3.577353300000E-01  7.228277000000E-02 -2.530045300000E-01
     33 T   1 H     4.058405700000E-01  3.088232500000E-01  2.469188800000E-01
     34 T   1 H    -2.608565900000E-01 -2.450331000000E-02 -2.530811200000E-01
     35 T   1 H    -4.057091200000E-01 -3.090420700000E-01  2.469381000000E-01
     36 T   1 H    -7.240628000000E-02  3.576313700000E-01 -2.530619000000E-01
     37 T   6 C    -1.081096900000E-01  4.459436900000E-01  2.491197000000E-01
     38 T   6 C     2.251931500000E-01  1.126171300000E-01 -2.508802900000E-01
     39 T   6 C    -5.351089000000E-02  3.927856300000E-01  2.475695600000E-01
     40 T   6 C     2.797919500000E-01  5.945907000000E-02 -2.524304300000E-01
     41 T   6 C     5.338812000000E-02 -3.928147000000E-01  2.474356500000E-01
     42 T   6 C     3.866909600000E-01  2.738587400000E-01 -2.525643500000E-01
     43 T   6 C    -5.354789000000E-02 -4.463078100000E-01  2.478375300000E-01
     44 T   6 C     2.797549500000E-01  2.203656300000E-01 -2.521624700000E-01
     45 T   6 C     5.342634000000E-02  4.462499700000E-01  2.468040800000E-01
     46 T   6 C     3.867291800000E-01  1.129234100000E-01 -2.531959200000E-01
     47 T   6 C     1.080358900000E-01 -4.459643700000E-01  2.478566500000E-01
     48 T   6 C     4.413387300000E-01  2.207090700000E-01 -2.521433500000E-01
     49 T   6 C    -4.459605800000E-01  1.081684600000E-01  2.508803400000E-01
     50 T   6 C    -1.126577400000E-01 -2.251581000000E-01 -2.491196600000E-01
     51 T   6 C    -3.928221500000E-01  5.355594000000E-02  2.524304500000E-01
     52 T   6 C    -5.951931000000E-02 -2.797706200000E-01 -2.475695500000E-01
     53 T   6 C     3.927986700000E-01 -5.333684000000E-02  2.525644100000E-01
     54 T   6 C    -2.738984900000E-01 -3.866634000000E-01 -2.474355900000E-01
     55 T   6 C     4.462875800000E-01  5.360286000000E-02  2.521625500000E-01
     56 T   6 C    -2.204095800000E-01 -2.797237000000E-01 -2.478374500000E-01
     57 T   6 C    -4.462831500000E-01 -5.337644000000E-02  2.531959200000E-01
     58 T   6 C    -1.129803100000E-01 -3.867030000000E-01 -2.468040800000E-01
     59 T   6 C     4.459279100000E-01 -1.080079400000E-01  2.521433800000E-01
     60 T   6 C    -2.207692500000E-01 -4.413345000000E-01 -2.478566200000E-01
     61 T   6 C    -4.459551300000E-01  4.458745500000E-01  2.491197000000E-01
     62 T   6 C    -1.126522900000E-01  1.125479900000E-01 -2.508803000000E-01
     63 T   6 C    -3.927897800000E-01 -4.463742200000E-01  2.475696000000E-01
     64 T   6 C    -5.948694000000E-02  2.202992200000E-01 -2.524304000000E-01
     65 T   6 C     3.928233700000E-01  4.461720300000E-01  2.474356200000E-01
     66 T   6 C    -2.738737900000E-01  1.128454700000E-01 -2.525643800000E-01
     67 T   6 C     4.462872600000E-01  3.926899900000E-01  2.478374900000E-01
     68 T   6 C    -2.204099000000E-01  5.936343000000E-02 -2.521625100000E-01
     69 T   6 C    -4.462570400000E-01 -3.929020000000E-01  2.468041200000E-01
     70 T   6 C    -1.129542000000E-01  2.737714400000E-01 -2.531958800000E-01
     71 T   6 C     4.459599800000E-01 -4.460417700000E-01  2.478566500000E-01
     72 T   6 C    -2.207371800000E-01  2.206316700000E-01 -2.521433500000E-01
     73 T   8 O    -4.392633200000E-01  2.803706300000E-01  2.495981300000E-01
     74 T   8 O    -1.059604800000E-01 -5.295593000000E-02 -2.504018600000E-01
     75 T   8 O    -2.803183000000E-01  2.803783300000E-01  2.529088600000E-01
     76 T   8 O     5.298454000000E-02 -5.294823000000E-02 -2.470911300000E-01
     77 T   8 O    -2.803205800000E-01  4.393234600000E-01  2.479140800000E-01
     78 T   8 O     5.298226000000E-02  1.059969000000E-01 -2.520859200000E-01
     79 T   8 O     2.803245100000E-01 -2.803488900000E-01  2.495981500000E-01
     80 T   8 O    -3.863726500000E-01  3.863245500000E-01 -2.504018500000E-01
     81 T   8 O     2.803439700000E-01 -4.393043900000E-01  2.529088600000E-01
     82 T   8 O    -3.863531900000E-01  2.273690500000E-01 -2.470911300000E-01
     83 T   8 O     4.392638400000E-01 -2.803645800000E-01  2.479140600000E-01
     84 T   8 O    -2.274333200000E-01  3.863088600000E-01 -2.520859300000E-01

 T = ATOM BELONGING TO THE ASYMMETRIC UNIT

 ****    1 SYMMOPS - TRANSLATORS IN FRACTIONAL UNITS
 **** MATRICES AND TRANSLATORS IN THE CRYSTALLOGRAPHIC REFERENCE FRAME
   V INV                    ROTATION MATRICES                   TRANSLATORS
   1   1  1.00 -0.00  0.00  0.00  1.00  0.00  0.00  0.00  1.00  0.00  0.00  0.00

 DIRECT LATTICE VECTORS CARTESIAN COMPONENTS (ANGSTROM)
          X                    Y                    Z
   0.130113578931E+02  -0.751088897922E+01   0.000000000000E+00
   0.000000000000E+00   0.150239160000E+02   0.000000000000E+00
  -0.136044311046E-04  -0.360794462958E-04   0.639999999988E+01


 CARTESIAN COORDINATES - PRIMITIVE CELL
 *******************************************************************************
 *      ATOM          X(ANGSTROM)         Y(ANGSTROM)         Z(ANGSTROM)
 *******************************************************************************
    1     5 B    -5.026544166374E+00  6.316803370330E+00  1.604776767971E+00
    2     5 B    -6.898148261463E-01 -1.194449455653E+00 -1.595223231971E+00
    3     5 B    -2.957014049198E+00  7.511852937382E+00  1.604776831971E+00
    4     5 B     1.379715291030E+00  6.001113990237E-04 -1.595223167971E+00
    5     5 B    -5.026599703524E+00 -6.317640092322E+00  1.594733567971E+00
    6     5 B    -6.898703632959E-01  1.195023081694E+00 -1.605266367971E+00
    7     5 B     2.956895979564E+00 -7.511640047395E+00  1.604776767971E+00
    8     5 B     7.293625319792E+00  1.023126621890E-03 -1.595223231971E+00
    9     5 B     5.027106720872E+00  6.316921607491E+00  1.604776767971E+00
   10     5 B    -3.647521831957E+00  6.316557760725E+00 -1.595223231971E+00
   11     5 B     5.026850158243E+00 -6.315952248053E+00  1.594733631971E+00
   12     5 B    -3.647778394586E+00 -6.316316094820E+00 -1.605266431971E+00
   13     1 H    -1.261537527197E+00  5.369558797672E+00  1.583955263971E+00
   14     1 H     3.075191813031E+00 -2.141694028311E+00 -1.616044799971E+00
   15     1 H     1.257343094424E+00 -5.367407303779E+00  1.580771263971E+00
   16     1 H     5.594072434652E+00  2.145255870238E+00 -1.619228735971E+00
   17     1 H    -1.262476939427E+00 -5.369859730272E+00  1.580281215971E+00
   18     1 H     3.074252400801E+00  2.142803443745E+00 -1.619718783971E+00
   19     1 H     1.258665699736E+00  5.368392843384E+00  1.580403455971E+00
   20     1 H     5.595395039963E+00 -2.142859982600E+00 -1.619596543971E+00
   21     1 H    -4.020091456173E+00  3.777993981995E+00  1.616044927971E+00
   22     1 H     3.166378840546E-01 -3.733258843988E+00 -1.583955071971E+00
   23     1 H     4.019591708739E+00 -3.771095700859E+00  1.619229119971E+00
   24     1 H    -4.655036844090E+00 -3.771459547625E+00 -1.580770879971E+00
   25     1 H     5.280916254916E+00 -1.590382818592E+00  1.619719423971E+00
   26     1 H    -3.393712297913E+00 -1.590746665359E+00 -1.580280575971E+00
   27     1 H    -5.278552471297E+00  1.594965075084E+00  1.619596415971E+00
   28     1 H    -9.418231310692E-01 -5.916287750899E+00 -1.580403583971E+00
   29     1 H    -4.019566509783E+00 -3.778586026412E+00  1.583955391971E+00
   30     1 H     3.171628304445E-01  3.734077147605E+00 -1.616044607971E+00
   31     1 H     4.020009585191E+00  3.773253587331E+00  1.580771007971E+00
   32     1 H    -4.654618967638E+00  3.772889740564E+00 -1.619228991971E+00
   33     1 H     5.280533544601E+00  1.591502193619E+00  1.580280831971E+00
   34     1 H    -3.394095008228E+00  1.591138346852E+00 -1.619719167971E+00
   35     1 H    -5.278829920249E+00 -1.595794851360E+00  1.580403839971E+00
   36     1 H    -9.421005800217E-01  5.916868322656E+00 -1.619596159971E+00
   37     6 C    -1.406657257429E+00  7.511811430357E+00  1.594366079971E+00
   38     6 C     2.930072082798E+00  5.586043729911E-04 -1.605633855971E+00
   39     6 C    -6.962527090090E-01  6.303083732924E+00  1.584445183971E+00
   40     6 C     3.640476631219E+00 -1.208169093060E+00 -1.615554751971E+00
   41     6 C     6.946485703362E-01 -6.302616225836E+00  1.583588159971E+00
   42     6 C     5.031377910564E+00  1.210046948181E+00 -1.616411839971E+00
   43     6 C    -6.967341328966E-01 -6.303107732564E+00  1.586160191971E+00
   44     6 C     3.639995207331E+00  1.209555441453E+00 -1.613839807971E+00
   45     6 C     6.951458730270E-01  6.303133851422E+00  1.579546111971E+00
   46     6 C     5.031875213255E+00 -1.208118974561E+00 -1.620453887971E+00
   47     6 C     1.405690258136E+00 -7.511585751964E+00  1.586282559971E+00
   48     6 C     5.742419598364E+00  1.077422052187E-03 -1.613717439971E+00
   49     6 C     7.208801767397E+00 -2.536223768464E+00  1.605634175971E+00
   50     6 C    -1.465826785432E+00 -2.536587615231E+00 -1.594365823971E+00
   51     6 C    -5.111153016143E+00  3.755054393537E+00  1.615554879971E+00
   52     6 C    -7.744236759149E-01 -3.756198432446E+00 -1.584445119971E+00
   53     6 C     5.110840639292E+00 -3.751604517803E+00  1.616412223971E+00
   54     6 C    -3.563787913537E+00 -3.751968364570E+00 -1.583587775971E+00
   55     6 C     5.806803996078E+00 -2.546700698069E+00  1.613840319971E+00
   56     6 C    -2.867824556751E+00 -2.547064544836E+00 -1.586159679971E+00
   57     6 C    -5.806753230877E+00  2.550050906837E+00  1.620453887971E+00
   58     6 C    -1.470023890649E+00 -4.961201919146E+00 -1.579546111971E+00
   59     6 C     5.802124201245E+00 -4.972026339831E+00  1.613717631971E+00
   60     6 C    -2.872504351583E+00 -4.972390186598E+00 -1.586282367971E+00
   61     6 C     7.208872703250E+00  2.537403289563E+00  1.594366079971E+00
   62     6 C    -1.465755849579E+00  2.537039442796E+00 -1.605633919971E+00
   63     6 C    -5.110731772359E+00 -3.756097288269E+00  1.584445439971E+00
   64     6 C    -7.740024321308E-01  3.756565885748E+00 -1.615554559971E+00
   65     6 C     5.111162089606E+00  3.752789452418E+00  1.583587967971E+00
   66     6 C    -3.563466463223E+00  3.752425605651E+00 -1.616412031971E+00
   67     6 C     5.806799891284E+00  2.547718419263E+00  1.586159935971E+00
   68     6 C    -2.867828661545E+00  2.547354572496E+00 -1.613840063971E+00
   69     6 C    -5.806413417366E+00 -2.551148465154E+00  1.579546367971E+00
   70     6 C    -1.469684077138E+00  4.961514708862E+00 -1.620453631971E+00
   71     6 C     5.802541533812E+00  4.973057073544E+00  1.586282559971E+00
   72     6 C    -2.872087019017E+00  4.972693226777E+00 -1.613717439971E+00
   73     8 O     7.295942231604E+00  6.248385703281E-04  1.597428031971E+00
   74     8 O    -1.378686321225E+00  2.609918030666E-04 -1.602571903971E+00
   75     8 O    -3.647325165954E+00  6.317810983471E+00  1.618616703971E+00
   76     8 O     6.894041742732E-01 -1.193441842512E+00 -1.581383231971E+00
   77     8 O    -3.647354763899E+00 -6.318109429764E+00  1.586650111971E+00
   78     8 O     6.893745763285E-01  1.194553744253E+00 -1.613349887971E+00
   79     8 O     3.647399130165E+00 -6.317433452180E+00  1.597428159971E+00
   80     8 O     7.984128470393E+00  1.195229721837E+00 -1.602571839971E+00
   81     8 O     3.647652286149E+00  6.318202186734E+00  1.618616703971E+00
   82     8 O     7.984381626377E+00 -1.193050639249E+00 -1.581383231971E+00
   83     8 O    -7.295942234068E+00 -5.557995051377E-04  1.586649983971E+00
   84     8 O    -2.959212893840E+00 -7.511808625489E+00 -1.613349951971E+00

 *******************************************************************************
 STARTING BASIS SET HANDLING 
 *******************************************************************************

 Loading internal basis set: SOLDEF2MSVP         

 Please cite in your publication:
 L. Dona', J. G. Brandenburg and B. Civalleri, J. Chem. Phys., 151, 121101 (2019
 )                                                                              
                                                                                
                    

 *******************************************************************************
 LOCAL ATOMIC FUNCTIONS BASIS SET
 *******************************************************************************
   ATOM   X(AU)   Y(AU)   Z(AU)  N. TYPE  EXPONENT  S COEF   P COEF   D/F/G COEF
 *******************************************************************************
   1 B   -9.499  11.937   3.033
                                  1 S  
                                         2.410E+03 1.755E-03 0.000E+00 0.000E+00
                                         3.619E+02 1.344E-02 0.000E+00 0.000E+00
                                         8.231E+01 6.637E-02 0.000E+00 0.000E+00
                                         2.311E+01 2.303E-01 0.000E+00 0.000E+00
                                         7.252E+00 5.150E-01 0.000E+00 0.000E+00
                                  2 S  
                                         2.367E+00 1.000E+00 0.000E+00 0.000E+00
                                  3 S  
                                         5.533E-01 1.000E+00 0.000E+00 0.000E+00
                                  4 S  
                                         1.716E-01 1.000E+00 0.000E+00 0.000E+00
                           5-     7 P  
                                         6.002E+00 0.000E+00-3.555E-02 0.000E+00
                                         1.240E+00 0.000E+00-1.983E-01 0.000E+00
                                         3.367E-01 0.000E+00-5.048E-01 0.000E+00
                           8-    10 P  
                                         1.256E-01 0.000E+00 1.000E+00 0.000E+00
                          11-    15 D  
                                         8.880E-01 0.000E+00 0.000E+00 1.000E+00
   2 B   -1.304  -2.257  -3.015
   3 B   -5.588  14.195   3.033
   4 B    2.607   0.001  -3.015
   5 B   -9.499 -11.939   3.014
   6 B   -1.304   2.258  -3.034
   7 B    5.588 -14.195   3.033
   8 B   13.783   0.002  -3.015
   9 B    9.500  11.937   3.033
  10 B   -6.893  11.937  -3.015
  11 B    9.499 -11.935   3.014
  12 B   -6.893 -11.936  -3.034
  13 H   -2.384  10.147   2.993
                                181 S  
                                         1.874E+01 1.968E-02 0.000E+00 0.000E+00
                                         2.826E+00 1.380E-01 0.000E+00 0.000E+00
                                         6.401E-01 4.783E-01 0.000E+00 0.000E+00
                                182 S  
                                         1.756E-01 1.000E+00 0.000E+00 0.000E+00
  14 H    5.811  -4.047  -3.054
  15 H    2.376 -10.143   2.987
  16 H   10.571   4.054  -3.060
  17 H   -2.386 -10.148   2.986
  18 H    5.809   4.049  -3.061
  19 H    2.379  10.145   2.987
  20 H   10.574  -4.049  -3.061
  21 H   -7.597   7.139   3.054
  22 H    0.598  -7.055  -2.993
  23 H    7.596  -7.126   3.060
  24 H   -8.797  -7.127  -2.987
  25 H    9.979  -3.005   3.061
  26 H   -6.413  -3.006  -2.986
  27 H   -9.975   3.014   3.061
  28 H   -1.780 -11.180  -2.987
  29 H   -7.596  -7.140   2.993
  30 H    0.599   7.056  -3.054
  31 H    7.597   7.130   2.987
  32 H   -8.796   7.130  -3.060
  33 H    9.979   3.008   2.986
  34 H   -6.414   3.007  -3.061
  35 H   -9.976  -3.016   2.987
  36 H   -1.780  11.181  -3.061
  37 C   -2.658  14.195   3.013
                                229 S  
                                         3.624E+03 1.634E-03 0.000E+00 0.000E+00
                                         5.440E+02 1.252E-02 0.000E+00 0.000E+00
                                         1.237E+02 6.211E-02 0.000E+00 0.000E+00
                                         3.476E+01 2.182E-01 0.000E+00 0.000E+00
                                         1.093E+01 4.980E-01 0.000E+00 0.000E+00
                                230 S  
                                         3.574E+00 1.000E+00 0.000E+00 0.000E+00
                                231 S  
                                         7.742E-01 1.000E+00 0.000E+00 0.000E+00
                                232 S  
                                         2.330E-01 1.000E+00 0.000E+00 0.000E+00
                         233-   235 P  
                                         9.443E+00 0.000E+00 3.790E-02 0.000E+00
                                         2.002E+00 0.000E+00 2.082E-01 0.000E+00
                                         5.463E-01 0.000E+00 5.047E-01 0.000E+00
                         236-   238 P  
                                         1.820E-01 0.000E+00 1.000E+00 0.000E+00
                         239-   243 D  
                                         8.880E-01 0.000E+00 0.000E+00 1.000E+00
  38 C    5.537   0.001  -3.034
  39 C   -1.316  11.911   2.994
  40 C    6.880  -2.283  -3.053
  41 C    1.313 -11.910   2.993
  42 C    9.508   2.287  -3.055
  43 C   -1.317 -11.911   2.997
  44 C    6.879   2.286  -3.050
  45 C    1.314  11.911   2.985
  46 C    9.509  -2.283  -3.062
  47 C    2.656 -14.195   2.998
  48 C   10.852   0.002  -3.049
  49 C   13.623  -4.793   3.034
  50 C   -2.770  -4.793  -3.013
  51 C   -9.659   7.096   3.053
  52 C   -1.463  -7.098  -2.994
  53 C    9.658  -7.090   3.055
  54 C   -6.735  -7.090  -2.993
  55 C   10.973  -4.813   3.050
  56 C   -5.419  -4.813  -2.997
  57 C  -10.973   4.819   3.062
  58 C   -2.778  -9.375  -2.985
  59 C   10.964  -9.396   3.049
  60 C   -5.428  -9.396  -2.998
  61 C   13.623   4.795   3.013
  62 C   -2.770   4.794  -3.034
  63 C   -9.658  -7.098   2.994
  64 C   -1.463   7.099  -3.053
  65 C    9.659   7.092   2.993
  66 C   -6.734   7.091  -3.055
  67 C   10.973   4.814   2.997
  68 C   -5.419   4.814  -3.050
  69 C  -10.973  -4.821   2.985
  70 C   -2.777   9.376  -3.062
  71 C   10.965   9.398   2.998
  72 C   -5.427   9.397  -3.049
  73 O   13.787   0.001   3.019
                                769 S  
                                         6.773E+03 1.727E-03 0.000E+00 0.000E+00
                                         1.017E+03 1.325E-02 0.000E+00 0.000E+00
                                         2.313E+02 6.603E-02 0.000E+00 0.000E+00
                                         6.501E+01 2.353E-01 0.000E+00 0.000E+00
                                         2.050E+01 5.498E-01 0.000E+00 0.000E+00
                                770 S  
                                         6.716E+00 1.000E+00 0.000E+00 0.000E+00
                                771 S  
                                         1.147E+00 1.000E+00 0.000E+00 0.000E+00
                                772 S  
                                         3.342E-01 1.000E+00 0.000E+00 0.000E+00
                         773-   775 P  
                                         1.769E+01 0.000E+00 4.359E-02 0.000E+00
                                         3.854E+00 0.000E+00 2.318E-01 0.000E+00
                                         1.047E+00 0.000E+00 5.146E-01 0.000E+00
                         776-   778 P  
                                         2.759E-01 0.000E+00 1.000E+00 0.000E+00
                         779-   783 D  
                                         8.000E-01 0.000E+00 0.000E+00 1.000E+00
  74 O   -2.605   0.000  -3.028
  75 O   -6.892  11.939   3.059
  76 O    1.303  -2.255  -2.988
  77 O   -6.893 -11.939   2.998
  78 O    1.303   2.257  -3.049
  79 O    6.893 -11.938   3.019
  80 O   15.088   2.259  -3.028
  81 O    6.893  11.940   3.059
  82 O   15.088  -2.255  -2.988
  83 O  -13.787  -0.001   2.998
  84 O   -5.592 -14.195  -3.049

 *******************************************************************************
 FINISHED BASIS SET HANDLING 
 *******************************************************************************

 INFORMATION **** SET_MPP **** PCRYSTAL CALCULATION
 INFORMATION **** READM2 **** NEW DEFAULT: FOCK/KS MATRIX MIXING SET TO 30 %
 INFORMATION **** READM2 **** NEW DEFAULT: FULL DIRECT SCF MODE
 INFORMATION **** READM2 **** NEW DEFAULT: COULOMB BIPOLAR BUFFER SET TO 32 Mb
 INFORMATION **** READM2 **** NEW DEFAULT: EXCHANGE BIPOLAR BUFFER SET TO 32 Mb

 *******************************************************************************
 NEW DEFAULT: DFT INTEGRATION GRID INCREASED TO XLGRID
 NEW DEFAULT: DIIS ACCELERATOR ACTIVE
 USE KEYWORD NODIIS TO TURN IT OFF
 *******************************************************************************

 WARNING **** RDDFTP **** HSEsol-HJS ACTIVE
 RANGE SEPARATION - OMEGA:   0.110000000000000     
 WARNING **** RDDFTP **** HSEsol-3c has to be combined with sol-def2-mSVP basis set
 *******************************************************************************
 N. OF ATOMS PER CELL        84  COULOMB OVERLAP TOL         (T1) 10**   -6
 NUMBER OF SHELLS           468  COULOMB PENETRATION TOL     (T2) 10**   -6
 NUMBER OF AO               948  EXCHANGE OVERLAP TOL        (T3) 10**   -6
 N. OF ELECTRONS PER CELL   396  EXCHANGE PSEUDO OVP (F(G))  (T4) 10**   -6
 CORE ELECTRONS PER CELL    120  EXCHANGE PSEUDO OVP (P(G))  (T5) 10**  -12
 N. OF SYMMETRY OPERATORS     1  POLE ORDER IN MONO ZONE                  4
 *******************************************************************************
 TYPE OF CALCULATION :  RESTRICTED CLOSED SHELL
 KOHN-SHAM HAMILTONIAN

 (EXCHANGE)[CORRELATION] FUNCTIONAL:(HSEsol GGA)[PBEsol]

 RANGE-SEPARATED HYBRID FUNCTIONAL 
 OMEGA (SHORT-RANGE)[LONG-RANGE]:(    0.1100)[    0.0000]

 HYBRID EXCHANGE - PERCENTAGE OF FOCK EXCHANGE    25.0000

 CAPPA:IS1  2;IS2  2;IS3  8; K PTS MONK NET  20; SYMMOPS:K SPACE   2;G SPACE   1

 *******************************************************************************
 MAX NUMBER OF SCF CYCLES      50  CONVERGENCE ON DELTAP        10**-16
 WEIGHT OF F(I) IN F(I+1)      30% CONVERGENCE ON ENERGY        10**- 6
 SHRINK. FACT.(MONKH.)    2  2  8  NUMBER OF K POINTS IN THE IBZ     20
 SHRINKING FACTOR(GILAT NET)    8  NUMBER OF K POINTS(GILAT NET)   1028
 *******************************************************************************
 *** K POINTS COORDINATES (OBLIQUE COORDINATES IN UNITS OF IS =  2)
   1-R(  0  0  0)   2-R(  1  0  0)   3-R(  0  1  0)   4-R(  1  1  0)
   5-C(  0  0  1)   6-C(  1  0  1)   7-C(  0  1  1)   8-C(  1  1  1)
   9-C(  0  0  2)  10-C(  1  0  2)  11-C(  0  1  2)  12-C(  1  1  2)
  13-C(  0  0  3)  14-C(  1  0  3)  15-C(  0  1  3)  16-C(  1  1  3)
  17-R(  0  0  4)  18-R(  1  0  4)  19-R(  0  1  4)  20-R(  1  1  4)

 DIRECT LATTICE VECTORS COMPON. (A.U.)     RECIP. LATTICE VECTORS COMPON. (A.U.) 
        X            Y            Z              X            Y            Z
   24.5879030  -14.1935232    0.0000000      0.2555397    0.0000000    0.0000005
    0.0000000   28.3910867    0.0000000      0.1277517    0.2213084    0.0000015
   -0.0000257   -0.0000682   12.0942473      0.0000000    0.0000000    0.5195185

 DISK SPACE FOR EIGENVECTORS (FTN 10)    28758528 REALS

 SYMMETRY ADAPTION OF THE BLOCH FUNCTIONS DISABLED
 TTTTTTTTTTTTTTTTTTTTTTTTTTTTTT gordsh1     TELAPSE        0.05 TCPU        0.05

 MATRIX SIZE: P(G)  766390, F(G)  137096, P(G) IRR  385361, F(G) IRR  138344
 MAX G-VECTOR INDEX FOR 1- AND 2-ELECTRON INTEGRALS  57

 TTTTTTTTTTTTTTTTTTTTTTTTTTTTTT INPUT       TELAPSE        2.65 TCPU        2.65

 NEIGHBORS OF THE NON-EQUIVALENT ATOMS

 N = NUMBER OF NEIGHBORS AT DISTANCE R
    ATOM  N     R/ANG      R/AU   NEIGHBORS (ATOM LABELS AND CELL INDICES)
   1 B    1     1.3791     2.6061   73 O   -1 0 0
   1 B    1     1.3793     2.6065   75 O    0 0 0
   1 B    1     1.5503     2.9297   49 C   -1 0 0
   1 B    1     2.3895     4.5155    5 B    0 1 0
   1 B    1     2.3898     4.5160    3 B    0 0 0
   1 B    1     2.5632     4.8437   51 C    0 0 0

   2 B    1     1.3791     2.6061   74 O    0 0 0
   2 B    1     1.3793     2.6065   76 O    0 0 0
   2 B    1     1.5503     2.9297   50 C    0 0 0
   2 B    1     2.3895     4.5155    6 B    0 0 0
   2 B    1     2.3898     4.5160    4 B    0 0 0
   2 B    1     2.5632     4.8437   52 C    0 0 0

   3 B    1     1.3793     2.6065   77 O    0 1 0
   3 B    1     1.3793     2.6065   75 O    0 0 0
   3 B    1     1.5504     2.9298   37 C    0 0 0
   3 B    1     2.3895     4.5156    5 B    0 1 0
   3 B    1     2.3898     4.5160    1 B    0 0 0
   3 B    1     2.5634     4.8440   43 C    0 1 0

   4 B    1     1.3793     2.6065   78 O    0 0 0
   4 B    1     1.3793     2.6065   76 O    0 0 0
   4 B    1     1.5504     2.9298   38 C    0 0 0
   4 B    1     2.3895     4.5156    6 B    0 0 0
   4 B    1     2.3898     4.5160    2 B    0 0 0
   4 B    1     2.5634     4.8440   44 C    0 0 0

   5 B    1     1.3791     2.6061   73 O   -1-1 0
   5 B    1     1.3793     2.6064   77 O    0 0 0
   5 B    1     1.5502     2.9294   61 C   -1-1 0
   5 B    1     2.3895     4.5155    1 B    0-1 0
   5 B    1     2.3895     4.5156    3 B    0-1 0
   5 B    1     2.5629     4.8433   63 C    0 0 0

   6 B    1     1.3791     2.6061   74 O    0 0 0
   6 B    1     1.3793     2.6064   78 O    0 0 0
   6 B    1     1.5502     2.9294   62 C    0 0 0
   6 B    1     2.3895     4.5155    2 B    0 0 0
   6 B    1     2.3895     4.5156    4 B    0 0 0
   6 B    1     2.5629     4.8433   64 C    0 0 0

   7 B    1     1.3795     2.6068   79 O    0 0 0
   7 B    1     1.3795     2.6070   81 O    0-1 0
   7 B    1     1.5513     2.9316   47 C    0 0 0
   7 B    1     2.3905     4.5174   11 B    0 0 0
   7 B    1     2.3905     4.5175    9 B    0-1 0
   7 B    1     2.5648     4.8468   45 C    0-1 0

   8 B    1     1.3795     2.6068   80 O    0 0 0
   8 B    1     1.3795     2.6070   82 O    0 0 0
   8 B    1     1.5513     2.9316   48 C    0 0 0
   8 B    1     2.3905     4.5174   12 B    1 1 0
   8 B    1     2.3905     4.5175   10 B    1 0 0
   8 B    1     2.5648     4.8468   46 C    0 0 0

   9 B    1     1.3795     2.6069   81 O    0 0 0
   9 B    1     1.3797     2.6072   83 O    1 1 0
   9 B    1     1.5516     2.9322   71 C    0 0 0
   9 B    1     2.3905     4.5175    7 B    0 1 0
   9 B    1     2.3911     4.5185   11 B    0 1 0
   9 B    1     2.5651     4.8473   69 C    1 1 0

  10 B    1     1.3795     2.6069   82 O   -1 0 0
  10 B    1     1.3797     2.6072   84 O    0 1 0
  10 B    1     1.5516     2.9322   72 C    0 0 0
  10 B    1     2.3905     4.5175    8 B   -1 0 0
  10 B    1     2.3911     4.5185   12 B    0 1 0
  10 B    1     2.5651     4.8473   70 C    0 0 0

  11 B    1     1.3795     2.6068   79 O    0 0 0
  11 B    1     1.3796     2.6071   83 O    1 0 0
  11 B    1     1.5516     2.9322   59 C    0 0 0
  11 B    1     2.3905     4.5174    7 B    0 0 0
  11 B    1     2.3911     4.5185    9 B    0-1 0
  11 B    1     2.5651     4.8473   57 C    1 0 0

  12 B    1     1.3795     2.6068   80 O   -1-1 0
  12 B    1     1.3796     2.6071   84 O    0 0 0
  12 B    1     1.5516     2.9322   60 C    0 0 0
  12 B    1     2.3905     4.5174    8 B   -1-1 0
  12 B    1     2.3911     4.5185   10 B    0-1 0
  12 B    1     2.5651     4.8473   58 C    0 0 0

  13 H    1     1.0913     2.0623   39 C    0 0 0
  13 H    1     2.1472     4.0576   37 C    0 0 0
  13 H    1     2.1680     4.0969   45 C    0 0 0
  13 H    1     2.5202     4.7625   19 H    0 0 0
  13 H    1     2.5676     4.8520   75 O    0 0 0
  13 H    1     2.7321     5.1630    3 B    0 0 0

  14 H    1     1.0913     2.0623   40 C    0 0 0
  14 H    1     2.1472     4.0576   38 C    0 0 0
  14 H    1     2.1680     4.0969   46 C    0 0 0
  14 H    1     2.5202     4.7625   20 H    0 0 0
  14 H    1     2.5676     4.8520   76 O    0 0 0
  14 H    1     2.7321     5.1630    4 B    0 0 0

  15 H    1     1.0914     2.0625   41 C    0 0 0
  15 H    1     2.1493     4.0616   47 C    0 0 0
  15 H    1     2.1666     4.0942   43 C    0 0 0
  15 H    1     2.5198     4.7618   17 H    0 0 0
  15 H    1     2.5720     4.8604   79 O    0 0 0
  15 H    1     2.7362     5.1707    7 B    0 0 0

  16 H    1     1.0914     2.0625   42 C    0 0 0
  16 H    1     2.1493     4.0616   48 C    0 0 0
  16 H    1     2.1666     4.0942   44 C    0 0 0
  16 H    1     2.5198     4.7618   18 H    0 0 0
  16 H    1     2.5720     4.8604   80 O    0 0 0
  16 H    1     2.7362     5.1707    8 B    0 0 0

  17 H    1     1.0914     2.0624   43 C    0 0 0
  17 H    1     2.1471     4.0575   37 C    0-1 0
  17 H    1     2.1680     4.0970   41 C    0 0 0
  17 H    1     2.5198     4.7618   15 H    0 0 0
  17 H    1     2.5665     4.8500   77 O    0 0 0
  17 H    1     2.7315     5.1618    3 B    0-1 0

  18 H    1     1.0914     2.0624   44 C    0 0 0
  18 H    1     2.1471     4.0575   38 C    0 0 0
  18 H    1     2.1680     4.0970   42 C    0 0 0
  18 H    1     2.5198     4.7618   16 H    0 0 0
  18 H    1     2.5665     4.8500   78 O    0 0 0
  18 H    1     2.7315     5.1618    4 B    0 0 0

  19 H    1     1.0915     2.0626   45 C    0 0 0
  19 H    1     2.1490     4.0610   47 C    0 1 0
  19 H    1     2.1669     4.0948   39 C    0 0 0
  19 H    1     2.5202     4.7625   13 H    0 0 0
  19 H    1     2.5712     4.8588   81 O    0 0 0
  19 H    1     2.7351     5.1686    7 B    0 1 0

  20 H    1     1.0915     2.0626   46 C    0 0 0
  20 H    1     2.1490     4.0610   48 C    0 0 0
  20 H    1     2.1669     4.0948   40 C    0 0 0
  20 H    1     2.5202     4.7625   14 H    0 0 0
  20 H    1     2.5712     4.8588   82 O    0 0 0
  20 H    1     2.7351     5.1686    8 B    0 0 0

  21 H    1     1.0913     2.0623   51 C    0 0 0
  21 H    1     2.1469     4.0571   49 C   -1 0 0
  21 H    1     2.1680     4.0968   57 C    0 0 0
  21 H    1     2.5198     4.7617   27 H    0 0 0
  21 H    1     2.5670     4.8510   75 O    0 0 0
  21 H    1     2.7310     5.1609    1 B    0 0 0

  22 H    1     1.0913     2.0623   52 C    0 0 0
  22 H    1     2.1469     4.0571   50 C    0 0 0
  22 H    1     2.1680     4.0968   58 C    0 0 0
  22 H    1     2.5198     4.7617   28 H    0 0 0
  22 H    1     2.5670     4.8510   76 O    0 0 0
  22 H    1     2.7310     5.1609    2 B    0 0 0

  23 H    1     1.0914     2.0625   53 C    0 0 0
  23 H    1     2.1493     4.0617   59 C    0 0 0
  23 H    1     2.1664     4.0939   55 C    0 0 0
  23 H    1     2.5192     4.7606   25 H    0 0 0
  23 H    1     2.5735     4.8632   79 O    0 0 0
  23 H    1     2.7371     5.1723   11 B    0 0 0

  24 H    1     1.0914     2.0625   54 C    0 0 0
  24 H    1     2.1493     4.0617   60 C    0 0 0
  24 H    1     2.1664     4.0939   56 C    0 0 0
  24 H    1     2.5192     4.7606   26 H    0 0 0
  24 H    1     2.5735     4.8632   80 O   -1-1 0
  24 H    1     2.7371     5.1723   12 B    0 0 0

  25 H    1     1.0914     2.0624   55 C    0 0 0
  25 H    1     2.1475     4.0581   49 C    0 0 0
  25 H    1     2.1679     4.0967   53 C    0 0 0
  25 H    1     2.5192     4.7606   23 H    0 0 0
  25 H    1     2.5675     4.8519   73 O    0 0 0
  25 H    1     2.7328     5.1643    1 B    1 0 0

  26 H    1     1.0914     2.0624   56 C    0 0 0
  26 H    1     2.1475     4.0581   50 C    0 0 0
  26 H    1     2.1679     4.0967   54 C    0 0 0
  26 H    1     2.5192     4.7606   24 H    0 0 0
  26 H    1     2.5675     4.8519   74 O    0 0 0
  26 H    1     2.7328     5.1643    2 B    0 0 0

  27 H    1     1.0914     2.0625   57 C    0 0 0
  27 H    1     2.1491     4.0612   59 C   -1 0 0
  27 H    1     2.1666     4.0942   51 C    0 0 0
  27 H    1     2.5198     4.7617   21 H    0 0 0
  27 H    1     2.5723     4.8609   83 O    0 0 0
  27 H    1     2.7355     5.1693   11 B   -1 0 0

  28 H    1     1.0914     2.0625   58 C    0 0 0
  28 H    1     2.1491     4.0612   60 C    0 0 0
  28 H    1     2.1666     4.0942   52 C    0 0 0
  28 H    1     2.5198     4.7617   22 H    0 0 0
  28 H    1     2.5723     4.8609   84 O    0 0 0
  28 H    1     2.7355     5.1693   12 B    0 0 0

  29 H    1     1.0914     2.0624   63 C    0 0 0
  29 H    1     2.1475     4.0582   61 C   -1-1 0
  29 H    1     2.1678     4.0966   69 C    0 0 0
  29 H    1     2.5200     4.7621   35 H    0 0 0
  29 H    1     2.5667     4.8503   77 O    0 0 0
  29 H    1     2.7315     5.1618    5 B    0 0 0

  30 H    1     1.0914     2.0624   64 C    0 0 0
  30 H    1     2.1475     4.0582   62 C    0 0 0
  30 H    1     2.1678     4.0966   70 C    0 0 0
  30 H    1     2.5200     4.7621   36 H    0 0 0
  30 H    1     2.5667     4.8503   78 O    0 0 0
  30 H    1     2.7315     5.1618    6 B    0 0 0

  31 H    1     1.0913     2.0623   65 C    0 0 0
  31 H    1     2.1487     4.0605   71 C    0 0 0
  31 H    1     2.1667     4.0945   67 C    0 0 0
  31 H    1     2.5197     4.7616   33 H    0 0 0
  31 H    1     2.5723     4.8610   81 O    0 0 0
  31 H    1     2.7359     5.1701    9 B    0 0 0

  32 H    1     1.0913     2.0623   66 C    0 0 0
  32 H    1     2.1487     4.0605   72 C    0 0 0
  32 H    1     2.1667     4.0945   68 C    0 0 0
  32 H    1     2.5197     4.7616   34 H    0 0 0
  32 H    1     2.5723     4.8610   82 O   -1 0 0
  32 H    1     2.7359     5.1701   10 B    0 0 0

  33 H    1     1.0915     2.0626   67 C    0 0 0
  33 H    1     2.1479     4.0589   61 C    0 0 0
  33 H    1     2.1679     4.0968   65 C    0 0 0
  33 H    1     2.5197     4.7616   31 H    0 0 0
  33 H    1     2.5677     4.8522   73 O    0 0 0
  33 H    1     2.7331     5.1648    5 B    1 1 0

  34 H    1     1.0915     2.0626   68 C    0 0 0
  34 H    1     2.1479     4.0589   62 C    0 0 0
  34 H    1     2.1679     4.0968   66 C    0 0 0
  34 H    1     2.5197     4.7616   32 H    0 0 0
  34 H    1     2.5677     4.8522   74 O    0 0 0
  34 H    1     2.7331     5.1648    6 B    0 0 0

  35 H    1     1.0914     2.0624   69 C    0 0 0
  35 H    1     2.1486     4.0602   71 C   -1-1 0
  35 H    1     2.1668     4.0947   63 C    0 0 0
  35 H    1     2.5200     4.7621   29 H    0 0 0
  35 H    1     2.5717     4.8598   83 O    0 0 0
  35 H    1     2.7349     5.1682    9 B   -1-1 0

  36 H    1     1.0914     2.0624   70 C    0 0 0
  36 H    1     2.1486     4.0602   72 C    0 0 0
  36 H    1     2.1668     4.0947   64 C    0 0 0
  36 H    1     2.5200     4.7621   30 H    0 0 0
  36 H    1     2.5717     4.8598   84 O    0 1 0
  36 H    1     2.7349     5.1682   10 B    0 0 0

  37 C    1     1.4020     2.6495   43 C    0 1 0
  37 C    1     1.4021     2.6495   39 C    0 0 0
  37 C    1     1.5504     2.9298    3 B    0 0 0
  37 C    1     2.1471     4.0575   17 H    0 1 0
  37 C    1     2.1472     4.0576   13 H    0 0 0
  37 C    1     2.4246     4.5817   41 C    0 1 0

  38 C    1     1.4020     2.6495   44 C    0 0 0
  38 C    1     1.4021     2.6495   40 C    0 0 0
  38 C    1     1.5504     2.9298    4 B    0 0 0
  38 C    1     2.1471     4.0575   18 H    0 0 0
  38 C    1     2.1472     4.0576   14 H    0 0 0
  38 C    1     2.4246     4.5817   42 C    0 0 0

  39 C    1     1.0913     2.0623   13 H    0 0 0
  39 C    1     1.3914     2.6294   45 C    0 0 0
  39 C    1     1.4021     2.6495   37 C    0 0 0
  39 C    1     2.1669     4.0948   19 H    0 0 0
  39 C    1     2.4177     4.5688   43 C    0 1 0
  39 C    1     2.4250     4.5825   47 C    0 1 0

  40 C    1     1.0913     2.0623   14 H    0 0 0
  40 C    1     1.3914     2.6294   46 C    0 0 0
  40 C    1     1.4021     2.6495   38 C    0 0 0
  40 C    1     2.1669     4.0948   20 H    0 0 0
  40 C    1     2.4177     4.5688   44 C    0 0 0
  40 C    1     2.4250     4.5825   48 C    0 0 0

  41 C    1     1.0914     2.0625   15 H    0 0 0
  41 C    1     1.3914     2.6293   43 C    0 0 0
  41 C    1     1.4026     2.6505   47 C    0 0 0
  41 C    1     2.1680     4.0970   17 H    0 0 0
  41 C    1     2.4182     4.5697   45 C    0-1 0
  41 C    1     2.4246     4.5817   37 C    0-1 0

  42 C    1     1.0914     2.0625   16 H    0 0 0
  42 C    1     1.3914     2.6293   44 C    0 0 0
  42 C    1     1.4026     2.6505   48 C    0 0 0
  42 C    1     2.1680     4.0970   18 H    0 0 0
  42 C    1     2.4182     4.5697   46 C    0 0 0
  42 C    1     2.4246     4.5817   38 C    0 0 0

  43 C    1     1.0914     2.0624   17 H    0 0 0
  43 C    1     1.3914     2.6293   41 C    0 0 0
  43 C    1     1.4020     2.6495   37 C    0-1 0
  43 C    1     2.1666     4.0942   15 H    0 0 0
  43 C    1     2.4177     4.5688   39 C    0-1 0
  43 C    1     2.4250     4.5826   47 C    0 0 0

  44 C    1     1.0914     2.0624   18 H    0 0 0
  44 C    1     1.3914     2.6293   42 C    0 0 0
  44 C    1     1.4020     2.6495   38 C    0 0 0
  44 C    1     2.1666     4.0942   16 H    0 0 0
  44 C    1     2.4177     4.5688   40 C    0 0 0
  44 C    1     2.4250     4.5826   48 C    0 0 0

  45 C    1     1.0915     2.0626   19 H    0 0 0
  45 C    1     1.3914     2.6294   39 C    0 0 0
  45 C    1     1.4025     2.6504   47 C    0 1 0
  45 C    1     2.1680     4.0969   13 H    0 0 0
  45 C    1     2.4182     4.5697   41 C    0 1 0
  45 C    1     2.4246     4.5818   37 C    0 0 0

  46 C    1     1.0915     2.0626   20 H    0 0 0
  46 C    1     1.3914     2.6294   40 C    0 0 0
  46 C    1     1.4025     2.6504   48 C    0 0 0
  46 C    1     2.1680     4.0969   14 H    0 0 0
  46 C    1     2.4182     4.5697   42 C    0 0 0
  46 C    1     2.4246     4.5818   38 C    0 0 0

  47 C    1     1.4025     2.6504   45 C    0-1 0
  47 C    1     1.4026     2.6505   41 C    0 0 0
  47 C    1     1.5513     2.9316    7 B    0 0 0
  47 C    1     2.1490     4.0610   19 H    0-1 0
  47 C    1     2.1493     4.0616   15 H    0 0 0
  47 C    1     2.4250     4.5825   39 C    0-1 0

  48 C    1     1.4025     2.6504   46 C    0 0 0
  48 C    1     1.4026     2.6505   42 C    0 0 0
  48 C    1     1.5513     2.9316    8 B    0 0 0
  48 C    1     2.1490     4.0610   20 H    0 0 0
  48 C    1     2.1493     4.0616   16 H    0 0 0
  48 C    1     2.4250     4.5825   40 C    0 0 0

  49 C    1     1.4020     2.6494   51 C    1 0 0
  49 C    1     1.4021     2.6495   55 C    0 0 0
  49 C    1     1.5503     2.9297    1 B    1 0 0
  49 C    1     2.1469     4.0571   21 H    1 0 0
  49 C    1     2.1475     4.0581   25 H    0 0 0
  49 C    1     2.4246     4.5818   53 C    0 0 0

  50 C    1     1.4020     2.6494   52 C    0 0 0
  50 C    1     1.4021     2.6495   56 C    0 0 0
  50 C    1     1.5503     2.9297    2 B    0 0 0
  50 C    1     2.1469     4.0571   22 H    0 0 0
  50 C    1     2.1475     4.0581   26 H    0 0 0
  50 C    1     2.4246     4.5818   54 C    0 0 0

  51 C    1     1.0913     2.0623   21 H    0 0 0
  51 C    1     1.3914     2.6293   57 C    0 0 0
  51 C    1     1.4020     2.6494   49 C   -1 0 0
  51 C    1     2.1666     4.0942   27 H    0 0 0
  51 C    1     2.4175     4.5684   55 C   -1 0 0
  51 C    1     2.4251     4.5828   59 C   -1 0 0

  52 C    1     1.0913     2.0623   22 H    0 0 0
  52 C    1     1.3914     2.6293   58 C    0 0 0
  52 C    1     1.4020     2.6494   50 C    0 0 0
  52 C    1     2.1666     4.0942   28 H    0 0 0
  52 C    1     2.4175     4.5684   56 C    0 0 0
  52 C    1     2.4251     4.5828   60 C    0 0 0

  53 C    1     1.0914     2.0625   23 H    0 0 0
  53 C    1     1.3915     2.6295   55 C    0 0 0
  53 C    1     1.4026     2.6505   59 C    0 0 0
  53 C    1     2.1679     4.0967   25 H    0 0 0
  53 C    1     2.4179     4.5691   57 C    1 0 0
  53 C    1     2.4246     4.5818   49 C    0 0 0

  54 C    1     1.0914     2.0625   24 H    0 0 0
  54 C    1     1.3915     2.6295   56 C    0 0 0
  54 C    1     1.4026     2.6505   60 C    0 0 0
  54 C    1     2.1679     4.0967   26 H    0 0 0
  54 C    1     2.4179     4.5691   58 C    0 0 0
  54 C    1     2.4246     4.5818   50 C    0 0 0

  55 C    1     1.0914     2.0624   25 H    0 0 0
  55 C    1     1.3915     2.6295   53 C    0 0 0
  55 C    1     1.4021     2.6495   49 C    0 0 0
  55 C    1     2.1664     4.0939   23 H    0 0 0
  55 C    1     2.4175     4.5684   51 C    1 0 0
  55 C    1     2.4253     4.5832   59 C    0 0 0

  56 C    1     1.0914     2.0624   26 H    0 0 0
  56 C    1     1.3915     2.6295   54 C    0 0 0
  56 C    1     1.4021     2.6495   50 C    0 0 0
  56 C    1     2.1664     4.0939   24 H    0 0 0
  56 C    1     2.4175     4.5684   52 C    0 0 0
  56 C    1     2.4253     4.5832   60 C    0 0 0

  57 C    1     1.0914     2.0625   27 H    0 0 0
  57 C    1     1.3914     2.6293   51 C    0 0 0
  57 C    1     1.4025     2.6504   59 C   -1 0 0
  57 C    1     2.1680     4.0968   21 H    0 0 0
  57 C    1     2.4179     4.5691   53 C   -1 0 0
  57 C    1     2.4247     4.5819   49 C   -1 0 0

  58 C    1     1.0914     2.0625   28 H    0 0 0
  58 C    1     1.3914     2.6293   52 C    0 0 0
  58 C    1     1.4025     2.6504   60 C    0 0 0
  58 C    1     2.1680     4.0968   22 H    0 0 0
  58 C    1     2.4179     4.5691   54 C    0 0 0
  58 C    1     2.4247     4.5819   50 C    0 0 0

  59 C    1     1.4025     2.6504   57 C    1 0 0
  59 C    1     1.4026     2.6505   53 C    0 0 0
  59 C    1     1.5516     2.9322   11 B    0 0 0
  59 C    1     2.1491     4.0612   27 H    1 0 0
  59 C    1     2.1493     4.0617   23 H    0 0 0
  59 C    1     2.4251     4.5828   51 C    1 0 0

  60 C    1     1.4025     2.6504   58 C    0 0 0
  60 C    1     1.4026     2.6505   54 C    0 0 0
  60 C    1     1.5516     2.9322   12 B    0 0 0
  60 C    1     2.1491     4.0612   28 H    0 0 0
  60 C    1     2.1493     4.0617   24 H    0 0 0
  60 C    1     2.4251     4.5828   52 C    0 0 0

  61 C    1     1.4021     2.6496   63 C    1 1 0
  61 C    1     1.4021     2.6497   67 C    0 0 0
  61 C    1     1.5502     2.9294    5 B    1 1 0
  61 C    1     2.1475     4.0582   29 H    1 1 0
  61 C    1     2.1479     4.0589   33 H    0 0 0
  61 C    1     2.4244     4.5814   65 C    0 0 0

  62 C    1     1.4021     2.6496   64 C    0 0 0
  62 C    1     1.4021     2.6497   68 C    0 0 0
  62 C    1     1.5502     2.9294    6 B    0 0 0
  62 C    1     2.1475     4.0582   30 H    0 0 0
  62 C    1     2.1479     4.0589   34 H    0 0 0
  62 C    1     2.4244     4.5814   66 C    0 0 0

  63 C    1     1.0914     2.0624   29 H    0 0 0
  63 C    1     1.3914     2.6293   69 C    0 0 0
  63 C    1     1.4021     2.6496   61 C   -1-1 0
  63 C    1     2.1668     4.0947   35 H    0 0 0
  63 C    1     2.4179     4.5692   67 C   -1-1 0
  63 C    1     2.4251     4.5827   71 C   -1-1 0

  64 C    1     1.0914     2.0624   30 H    0 0 0
  64 C    1     1.3914     2.6293   70 C    0 0 0
  64 C    1     1.4021     2.6496   62 C    0 0 0
  64 C    1     2.1668     4.0947   36 H    0 0 0
  64 C    1     2.4179     4.5692   68 C    0 0 0
  64 C    1     2.4251     4.5827   72 C    0 0 0

  65 C    1     1.0913     2.0623   31 H    0 0 0
  65 C    1     1.3914     2.6294   67 C    0 0 0
  65 C    1     1.4025     2.6504   71 C    0 0 0
  65 C    1     2.1679     4.0968   33 H    0 0 0
  65 C    1     2.4178     4.5690   69 C    1 1 0
  65 C    1     2.4244     4.5814   61 C    0 0 0

  66 C    1     1.0913     2.0623   32 H    0 0 0
  66 C    1     1.3914     2.6294   68 C    0 0 0
  66 C    1     1.4025     2.6504   72 C    0 0 0
  66 C    1     2.1679     4.0968   34 H    0 0 0
  66 C    1     2.4178     4.5690   70 C    0 0 0
  66 C    1     2.4244     4.5814   62 C    0 0 0

  67 C    1     1.0915     2.0626   33 H    0 0 0
  67 C    1     1.3914     2.6294   65 C    0 0 0
  67 C    1     1.4021     2.6497   61 C    0 0 0
  67 C    1     2.1667     4.0945   31 H    0 0 0
  67 C    1     2.4179     4.5692   63 C    1 1 0
  67 C    1     2.4253     4.5832   71 C    0 0 0

  68 C    1     1.0915     2.0626   34 H    0 0 0
  68 C    1     1.3914     2.6294   66 C    0 0 0
  68 C    1     1.4021     2.6497   62 C    0 0 0
  68 C    1     2.1667     4.0945   32 H    0 0 0
  68 C    1     2.4179     4.5692   64 C    0 0 0
  68 C    1     2.4253     4.5832   72 C    0 0 0

  69 C    1     1.0914     2.0624   35 H    0 0 0
  69 C    1     1.3914     2.6293   63 C    0 0 0
  69 C    1     1.4025     2.6503   71 C   -1-1 0
  69 C    1     2.1678     4.0966   29 H    0 0 0
  69 C    1     2.4178     4.5690   65 C   -1-1 0
  69 C    1     2.4245     4.5817   61 C   -1-1 0

  70 C    1     1.0914     2.0624   36 H    0 0 0
  70 C    1     1.3914     2.6293   64 C    0 0 0
  70 C    1     1.4025     2.6503   72 C    0 0 0
  70 C    1     2.1678     4.0966   30 H    0 0 0
  70 C    1     2.4178     4.5690   66 C    0 0 0
  70 C    1     2.4245     4.5817   62 C    0 0 0

  71 C    1     1.4025     2.6503   69 C    1 1 0
  71 C    1     1.4025     2.6504   65 C    0 0 0
  71 C    1     1.5516     2.9322    9 B    0 0 0
  71 C    1     2.1486     4.0602   35 H    1 1 0
  71 C    1     2.1487     4.0605   31 H    0 0 0
  71 C    1     2.4251     4.5827   63 C    1 1 0

  72 C    1     1.4025     2.6503   70 C    0 0 0
  72 C    1     1.4025     2.6504   66 C    0 0 0
  72 C    1     1.5516     2.9322   10 B    0 0 0
  72 C    1     2.1486     4.0602   36 H    0 0 0
  72 C    1     2.1487     4.0605   32 H    0 0 0
  72 C    1     2.4251     4.5827   64 C    0 0 0

  73 O    1     1.3791     2.6061    1 B    1 0 0
  73 O    1     1.3791     2.6061    5 B    1 1 0
  73 O    1     2.3880     4.5126   75 O    1 0 0
  73 O    1     2.3882     4.5130   77 O    1 1 0
  73 O    1     2.5383     4.7966   61 C    0 0 0
  73 O    1     2.5384     4.7968   49 C    0 0 0

  74 O    1     1.3791     2.6061    2 B    0 0 0
  74 O    1     1.3791     2.6061    6 B    0 0 0
  74 O    1     2.3880     4.5126   76 O    0 0 0
  74 O    1     2.3882     4.5130   78 O    0 0 0
  74 O    1     2.5383     4.7966   62 C    0 0 0
  74 O    1     2.5384     4.7968   50 C    0 0 0

  75 O    1     1.3793     2.6065    1 B    0 0 0
  75 O    1     1.3793     2.6065    3 B    0 0 0
  75 O    1     2.3880     4.5126   73 O   -1 0 0
  75 O    1     2.3882     4.5131   77 O    0 1 0
  75 O    1     2.5391     4.7981   37 C    0 0 0
  75 O    1     2.5395     4.7990   49 C   -1 0 0

  76 O    1     1.3793     2.6065    2 B    0 0 0
  76 O    1     1.3793     2.6065    4 B    0 0 0
  76 O    1     2.3880     4.5126   74 O    0 0 0
  76 O    1     2.3882     4.5131   78 O    0 0 0
  76 O    1     2.5391     4.7981   38 C    0 0 0
  76 O    1     2.5395     4.7990   50 C    0 0 0

  77 O    1     1.3793     2.6064    5 B    0 0 0
  77 O    1     1.3793     2.6065    3 B    0-1 0
  77 O    1     2.3882     4.5130   73 O   -1-1 0
  77 O    1     2.3882     4.5131   75 O    0-1 0
  77 O    1     2.5390     4.7980   37 C    0-1 0
  77 O    1     2.5391     4.7982   61 C   -1-1 0

  78 O    1     1.3793     2.6064    6 B    0 0 0
  78 O    1     1.3793     2.6065    4 B    0 0 0
  78 O    1     2.3882     4.5130   74 O    0 0 0
  78 O    1     2.3882     4.5131   76 O    0 0 0
  78 O    1     2.5390     4.7980   38 C    0 0 0
  78 O    1     2.5391     4.7982   62 C    0 0 0

  79 O    1     1.3795     2.6068   11 B    0 0 0
  79 O    1     1.3795     2.6068    7 B    0 0 0
  79 O    1     2.3880     4.5126   83 O    1 0 0
  79 O    1     2.3884     4.5134   81 O    0-1 0
  79 O    1     2.5400     4.7998   47 C    0 0 0
  79 O    1     2.5403     4.8005   59 C    0 0 0

  80 O    1     1.3795     2.6068   12 B    1 1 0
  80 O    1     1.3795     2.6068    8 B    0 0 0
  80 O    1     2.3880     4.5126   84 O    1 1 0
  80 O    1     2.3884     4.5134   82 O    0 0 0
  80 O    1     2.5400     4.7998   48 C    0 0 0
  80 O    1     2.5403     4.8005   60 C    1 1 0

  81 O    1     1.3795     2.6069    9 B    0 0 0
  81 O    1     1.3795     2.6070    7 B    0 1 0
  81 O    1     2.3881     4.5128   83 O    1 1 0
  81 O    1     2.3884     4.5134   79 O    0 1 0
  81 O    1     2.5404     4.8006   47 C    0 1 0
  81 O    1     2.5405     4.8008   71 C    0 0 0

  82 O    1     1.3795     2.6069   10 B    1 0 0
  82 O    1     1.3795     2.6070    8 B    0 0 0
  82 O    1     2.3881     4.5128   84 O    1 1 0
  82 O    1     2.3884     4.5134   80 O    0 0 0
  82 O    1     2.5404     4.8006   48 C    0 0 0
  82 O    1     2.5405     4.8008   72 C    1 0 0

  83 O    1     1.3796     2.6071   11 B   -1 0 0
  83 O    1     1.3797     2.6072    9 B   -1-1 0
  83 O    1     2.3880     4.5126   79 O   -1 0 0
  83 O    1     2.3881     4.5128   81 O   -1-1 0
  83 O    1     2.5409     4.8016   71 C   -1-1 0
  83 O    1     2.5410     4.8019   59 C   -1 0 0

  84 O    1     1.3796     2.6071   12 B    0 0 0
  84 O    1     1.3797     2.6072   10 B    0-1 0
  84 O    1     2.3880     4.5126   80 O   -1-1 0
  84 O    1     2.3881     4.5128   82 O   -1-1 0
  84 O    1     2.5409     4.8016   72 C    0-1 0
  84 O    1     2.5410     4.8019   60 C    0 0 0


 SYMMETRY ALLOWED INTERNAL DEGREE(S) OF FREEDOM: 249
 TTTTTTTTTTTTTTTTTTTTTTTTTTTTTT SYMM        TELAPSE        2.66 TCPU        2.65
 TTTTTTTTTTTTTTTTTTTTTTTTTTTTTT INT_SCREEN  TELAPSE        2.86 TCPU        2.85

 DFT PARAMETERS

     ATOM       ELECTRONS   NET CHARGE   R(ANGSTROM)
   1   5  B       5.0000      0.0000     0.89000000
  13   1  H       1.0000      0.0000     1.11000000
  37   6  C       6.0000      0.0000     0.77000000
  73   8  O       8.0000      0.0000     0.74000000

 SIZE OF GRID=    2533844
 TTTTTTTTTTTTTTTTTTTTTTTTTTTTTT MAKE_GRID2  TELAPSE       24.75 TCPU       24.72
 BECKE WEIGHT FUNCTION
 RADSAFE =     2.00
 TOLERANCES - DENSITY:10**- 6; POTENTIAL:10**- 9; GRID WGT:10**-14

 RADIAL INTEGRATION  - INTERVALS (POINTS,UPPER LIMIT):            1( 75,  4.0*R)

 ANGULAR INTEGRATION - INTERVALS (ACCURACY LEVEL [N. POINTS] UPPER LIMIT):
  1(  4[  86]   0.2)  2(  8[ 194]   0.5)  3( 12[ 350]   0.9)  4( 16[ 974]   3.5)
  5( 12[ 350]9999.0)
 TTTTTTTTTTTTTTTTTTTTTTTTTTTTTT INT_CALC    TELAPSE       25.01 TCPU       24.99
 EEEEEEEEEE INT_CALC TERMINATION  DATE 19 02 2026 TIME 19:55:43.0

 *******************************************************************************
 cof-1_z32_L087_serr                                                             
 CRYSTAL - SCF - TYPE OF CALCULATION :  RESTRICTED CLOSED SHELL
 *******************************************************************************

 CAPPA:IS1  2;IS2  2;IS3  8; K PTS MONK NET  20; SYMMOPS:K SPACE   2;G SPACE   1

 TTTTTTTTTTTTTTTTTTTTTTTTTTTTTT SDIK        TELAPSE       26.94 TCPU       49.38

 AAAAAAAAAAAAAAAAAAAAAAAAAAAAAAAAAAAAAAAAAAAAAAAAAAAAAAAAAAAAAAAAAAAAAAAAAAAAAAA
         ATOMIC WAVEFUNCTION(S)


 NUCLEAR CHARGE  5.0  SYMMETRY SPECIES            S    P
 N. ELECTRONS    5.0  NUMBER OF PRIMITIVE GTOS    8    4
                      NUMBER OF CONTRACTED GTOS   4    2
                      NUMBER OF CLOSED SHELLS     2    0
                      OPEN SHELL OCCUPATION       0    1

  ZNUC  SCFIT    TOTAL HF ENERGY   KINETIC ENERGY   VIRIAL THEOREM ACCURACY
   5.0    11    -2.451164084E+01  2.462155050E+01 -1.995536038E+00  1.5E-06

 NUCLEAR CHARGE  1.0  SYMMETRY SPECIES            S
 N. ELECTRONS    1.0  NUMBER OF PRIMITIVE GTOS    4
                      NUMBER OF CONTRACTED GTOS   2
                      NUMBER OF CLOSED SHELLS     0
                      OPEN SHELL OCCUPATION       1

  ZNUC  SCFIT    TOTAL HF ENERGY   KINETIC ENERGY   VIRIAL THEOREM ACCURACY
   1.0     1    -4.977266687E-01  5.190767460E-01 -1.958869132E+00  0.0E+00

 NUCLEAR CHARGE  6.0  SYMMETRY SPECIES            S    P
 N. ELECTRONS    6.0  NUMBER OF PRIMITIVE GTOS    8    4
                      NUMBER OF CONTRACTED GTOS   4    2
                      NUMBER OF CLOSED SHELLS     2    0
                      OPEN SHELL OCCUPATION       0    2

  ZNUC  SCFIT    TOTAL HF ENERGY   KINETIC ENERGY   VIRIAL THEOREM ACCURACY
   6.0     9    -3.766704647E+01  3.775180683E+01 -1.997754800E+00  1.1E-06

 NUCLEAR CHARGE  8.0  SYMMETRY SPECIES            S    P
 N. ELECTRONS    8.0  NUMBER OF PRIMITIVE GTOS    8    4
                      NUMBER OF CONTRACTED GTOS   4    2
                      NUMBER OF CLOSED SHELLS     2    0
                      OPEN SHELL OCCUPATION       0    4

  ZNUC  SCFIT    TOTAL HF ENERGY   KINETIC ENERGY   VIRIAL THEOREM ACCURACY
   8.0    12    -7.477373220E+01  7.477365593E+01 -2.000001020E+00  3.8E-06

 AAAAAAAAAAAAAAAAAAAAAAAAAAAAAAAAAAAAAAAAAAAAAAAAAAAAAAAAAAAAAAAAAAAAAAAAAAAAAAA

 CHARGE NORMALIZATION FACTOR   1.00000000
 TOTAL ATOMIC CHARGES:
   5.0000000   5.0000000   5.0000000   5.0000000   5.0000000   5.0000000
   5.0000000   5.0000000   5.0000000   5.0000000   5.0000000   5.0000000
   1.0000000   1.0000000   1.0000000   1.0000000   1.0000000   1.0000000
   1.0000000   1.0000000   1.0000000   1.0000000   1.0000000   1.0000000
   1.0000000   1.0000000   1.0000000   1.0000000   1.0000000   1.0000000
   1.0000000   1.0000000   1.0000000   1.0000000   1.0000000   1.0000000
   6.0000000   6.0000000   6.0000000   6.0000000   6.0000000   6.0000000
   6.0000000   6.0000000   6.0000000   6.0000000   6.0000000   6.0000000
   6.0000000   6.0000000   6.0000000   6.0000000   6.0000000   6.0000000
   6.0000000   6.0000000   6.0000000   6.0000000   6.0000000   6.0000000
   6.0000000   6.0000000   6.0000000   6.0000000   6.0000000   6.0000000
   6.0000000   6.0000000   6.0000000   6.0000000   6.0000000   6.0000000
   8.0000000   8.0000000   8.0000000   8.0000000   8.0000000   8.0000000
   8.0000000   8.0000000   8.0000000   8.0000000   8.0000000   8.0000000
 TTTTTTTTTTTTTTTTTTTTTTTTTTTTTT MOQGAD      TELAPSE       27.04 TCPU       52.05
 TTTTTTTTTTTTTTTTTTTTTTTTTTTTTT SHELLXN     TELAPSE       47.09 TCPU      691.14
 TTTTTTTTTTTTTTTTTTTTTTTTTTTTTT MONMO3      TELAPSE       47.65 TCPU      709.20
 NUMERICALLY INTEGRATED DENSITY    395.9999755504
 TTTTTTTTTTTTTTTTTTTTTTTTTTTTTT NUMDFT      TELAPSE       49.14 TCPU      756.56
 CYC   0 ETOT(AU) -2.591969795558E+03 DETOT -2.59E+03 tst  0.00E+00 PX  1.00E+00
 TTTTTTTTTTTTTTTTTTTTTTTTTTTTTT DIIS        TELAPSE       49.24 TCPU      759.87
 TTTTTTTTTTTTTTTTTTTTTTTTTTTTTT FDIK        TELAPSE       51.01 TCPU      816.47
 INSULATING STATE
 TOP OF VALENCE BANDS -    BAND    198; K    2; EIG -3.0509175E-01 AU
 TOP OF VALENCE BANDS -    BAND    198; K    1; EIG -3.0514480E-01 AU
 BOTTOM OF VIRTUAL BANDS - BAND    199; K   17; EIG -1.5682720E-01 AU
 INDIRECT ENERGY BAND GAP:   4.0345 eV
 BOTTOM OF VIRTUAL BANDS - BAND    199; K    1; EIG -1.5575827E-01 AU
 TTTTTTTTTTTTTTTTTTTTTTTTTTTTTT PDIG        TELAPSE       52.55 TCPU      823.38
 CHARGE NORMALIZATION FACTOR   1.00000000
 TOTAL ATOMIC CHARGES:
   4.1253169   4.1660832   4.1251371   4.1659125   4.1252906   4.1661596
   4.1657457   4.1249491   4.1655197   4.1247384   4.1656903   4.1249397
   0.7865259   0.7852496   0.7853664   0.7866473   0.7864806   0.7852064
   0.7853261   0.7865985   0.7865034   0.7852287   0.7853967   0.7866746
   0.7864944   0.7852190   0.7853580   0.7866312   0.7864837   0.7852081
   0.7853921   0.7866667   0.7864806   0.7852017   0.7853587   0.7866356
   6.0465819   6.0422377   6.2710311   6.2657871   6.2657600   6.2710033
   6.2709755   6.2657297   6.2656787   6.2709240   6.0415271   6.0458340
   6.0466406   6.0422999   6.2710031   6.2657646   6.2658574   6.2711230
   6.2709198   6.2656651   6.2658778   6.2711337   6.0411012   6.0453793
   6.0470152   6.0426107   6.2707352   6.2654941   6.2660579   6.2713295
   6.2706567   6.2654041   6.2660486   6.2713023   6.0410614   6.0453487
   8.7125207   8.6908330   8.7126480   8.6909414   8.7125678   8.6908859
   8.6912618   8.7128780   8.6912909   8.7129384   8.6914383   8.7130791
 TTTTTTTTTTTTTTTTTTTTTTTTTTTTTT MOQGAD      TELAPSE       52.64 TCPU      823.47
 TTTTTTTTTTTTTTTTTTTTTTTTTTTTTT SHELLXN     TELAPSE       73.44 TCPU     1486.98
 TTTTTTTTTTTTTTTTTTTTTTTTTTTTTT MONMO3      TELAPSE       74.01 TCPU     1505.11
 NUMERICALLY INTEGRATED DENSITY    395.9999872576
 TTTTTTTTTTTTTTTTTTTTTTTTTTTTTT NUMDFT      TELAPSE       75.52 TCPU     1553.43
 CYC   1 ETOT(AU) -2.577651965229E+03 DETOT  1.43E+01 tst  0.00E+00 PX  1.00E+00
 TTTTTTTTTTTTTTTTTTTTTTTTTTTTTT DIIS        TELAPSE       75.65 TCPU     1557.63
 DIIS TEST: 0.22163E+01 AT SCF   CYCLE   1 - MIX   30 %
 TTTTTTTTTTTTTTTTTTTTTTTTTTTTTT FDIK        TELAPSE       77.46 TCPU     1615.23
 INSULATING STATE
 TOP OF VALENCE BANDS -    BAND    198; K    2; EIG -2.1600268E-01 AU
 TOP OF VALENCE BANDS -    BAND    198; K    1; EIG -2.1607873E-01 AU
 BOTTOM OF VIRTUAL BANDS - BAND    199; K   13; EIG -8.4183433E-02 AU
 INDIRECT ENERGY BAND GAP:   3.5870 eV
 BOTTOM OF VIRTUAL BANDS - BAND    199; K    1; EIG -8.2992039E-02 AU
 TTTTTTTTTTTTTTTTTTTTTTTTTTTTTT PDIG        TELAPSE       78.99 TCPU     1622.14
 CHARGE NORMALIZATION FACTOR   1.00000000
 TOTAL ATOMIC CHARGES:
   4.6717609   4.7171186   4.6716624   4.7170232   4.6716560   4.7170419
   4.7171506   4.6714920   4.7171500   4.6715546   4.7171730   4.6716637
   0.8957990   0.9122363   0.9121615   0.8958688   0.8957598   0.9121987
   0.9121218   0.8957973   0.8957934   0.9122406   0.9121845   0.8958623
   0.8957660   0.9122164   0.9121629   0.8958406   0.8957589   0.9122021
   0.9122128   0.8958951   0.8957464   0.9121722   0.9121806   0.8958897
   5.8681899   5.8813515   6.1235678   6.1493430   6.1497380   6.1239905
   6.1234125   6.1492238   6.1497407   6.1239905   5.8839058   5.8706017
   5.8680519   5.8811738   6.1232391   6.1490550   6.1497806   6.1239872
   6.1234413   6.1493102   6.1496776   6.1239036   5.8843496   5.8710540
   5.8681815   5.8812897   6.1234500   6.1492661   6.1496113   6.1238151
   6.1236505   6.1495382   6.1495341   6.1237598   5.8841296   5.8708094
   8.3624398   8.3340477   8.3627980   8.3344039   8.3627624   8.3343565
   8.3338739   8.3622093   8.3340601   8.3624580   8.3342553   8.3627054
 TTTTTTTTTTTTTTTTTTTTTTTTTTTTTT MOQGAD      TELAPSE       79.09 TCPU     1622.23
 TTTTTTTTTTTTTTTTTTTTTTTTTTTTTT SHELLXN     TELAPSE       99.90 TCPU     2286.13
 TTTTTTTTTTTTTTTTTTTTTTTTTTTTTT MONMO3      TELAPSE      100.47 TCPU     2304.27
 NUMERICALLY INTEGRATED DENSITY    395.9999883029
 TTTTTTTTTTTTTTTTTTTTTTTTTTTTTT NUMDFT      TELAPSE      101.98 TCPU     2352.52
 CYC   2 ETOT(AU) -2.578034458198E+03 DETOT -3.82E-01 tst  3.06E-03 PX  1.57E-01
 TTTTTTTTTTTTTTTTTTTTTTTTTTTTTT DIIS        TELAPSE      102.13 TCPU     2357.43
 DIIS TEST: 0.92180E+00 AT SCF   CYCLE   2 - DIIS ACTIVE - HISTORY:     2 CYCLES
 TTTTTTTTTTTTTTTTTTTTTTTTTTTTTT FDIK        TELAPSE      103.93 TCPU     2415.02
 INSULATING STATE
 TOP OF VALENCE BANDS -    BAND    198; K    2; EIG -2.3031049E-01 AU
 TOP OF VALENCE BANDS -    BAND    198; K    1; EIG -2.3036609E-01 AU
 BOTTOM OF VIRTUAL BANDS - BAND    199; K   17; EIG -7.7995001E-02 AU
 INDIRECT ENERGY BAND GAP:   4.1447 eV
 BOTTOM OF VIRTUAL BANDS - BAND    199; K    1; EIG -7.5329482E-02 AU
 TTTTTTTTTTTTTTTTTTTTTTTTTTTTTT PDIG        TELAPSE      105.46 TCPU     2421.92
 CHARGE NORMALIZATION FACTOR   1.00000000
 TOTAL ATOMIC CHARGES:
   4.4593343   4.5092246   4.4591835   4.5090617   4.4592890   4.5091933
   4.5089219   4.4591612   4.5087846   4.4589691   4.5088156   4.4591063
   0.8756724   0.8887118   0.8889074   0.8757142   0.8756353   0.8886613
   0.8888775   0.8756623   0.8756088   0.8886790   0.8889592   0.8757595
   0.8756375   0.8886918   0.8888936   0.8756889   0.8756195   0.8886944
   0.8889385   0.8757573   0.8756526   0.8886889   0.8888717   0.8757029
   5.9101215   5.8744799   6.1774633   6.1603427   6.1601531   6.1771589
   6.1773155   6.1603002   6.1600992   6.1770711   5.8741195   5.9101306
   5.9104348   5.8746452   6.1773458   6.1603703   6.1601556   6.1770957
   6.1774271   6.1603631   6.1601221   6.1770215   5.8738039   5.9099182
   5.9105233   5.8747963   6.1772262   6.1602335   6.1602447   6.1771611
   6.1773740   6.1602552   6.1601882   6.1771236   5.8737899   5.9098771
   8.5357962   8.5073268   8.5359105   8.5074984   8.5358543   8.5074770
   8.5075881   8.5359591   8.5076663   8.5360464   8.5077742   8.5361195
 TTTTTTTTTTTTTTTTTTTTTTTTTTTTTT MOQGAD      TELAPSE      105.55 TCPU     2422.01
 TTTTTTTTTTTTTTTTTTTTTTTTTTTTTT SHELLXN     TELAPSE      126.36 TCPU     3085.65
 TTTTTTTTTTTTTTTTTTTTTTTTTTTTTT MONMO3      TELAPSE      126.92 TCPU     3103.68
 NUMERICALLY INTEGRATED DENSITY    395.9999851963
 TTTTTTTTTTTTTTTTTTTTTTTTTTTTTT NUMDFT      TELAPSE      128.42 TCPU     3151.55
 CYC   3 ETOT(AU) -2.578222665338E+03 DETOT -1.88E-01 tst  5.59E-04 PX  6.08E-02
 TTTTTTTTTTTTTTTTTTTTTTTTTTTTTT DIIS        TELAPSE      128.59 TCPU     3157.07
 DIIS TEST: 0.29598E-01 AT SCF   CYCLE   3 - DIIS ACTIVE - HISTORY:     3 CYCLES
 TTTTTTTTTTTTTTTTTTTTTTTTTTTTTT FDIK        TELAPSE      130.38 TCPU     3214.30
 INSULATING STATE
 TOP OF VALENCE BANDS -    BAND    198; K    2; EIG -2.3775093E-01 AU
 TOP OF VALENCE BANDS -    BAND    198; K    1; EIG -2.3781140E-01 AU
 BOTTOM OF VIRTUAL BANDS - BAND    199; K   17; EIG -8.4481101E-02 AU
 INDIRECT ENERGY BAND GAP:   4.1707 eV
 BOTTOM OF VIRTUAL BANDS - BAND    199; K    1; EIG -8.2308981E-02 AU
 TTTTTTTTTTTTTTTTTTTTTTTTTTTTTT PDIG        TELAPSE      131.91 TCPU     3221.20
 CHARGE NORMALIZATION FACTOR   1.00000000
 TOTAL ATOMIC CHARGES:
   4.4629485   4.5132441   4.4628460   4.5131060   4.4629187   4.5132283
   4.5130541   4.4626705   4.5129268   4.4625307   4.5129721   4.4626942
   0.8639784   0.8723044   0.8722859   0.8640667   0.8639428   0.8722561
   0.8722456   0.8639980   0.8639701   0.8722947   0.8723259   0.8640629
   0.8639788   0.8722905   0.8722631   0.8640073   0.8639602   0.8722807
   0.8723311   0.8640743   0.8639798   0.8722644   0.8722628   0.8640377
   5.9230485   5.9595546   6.1579522   6.1828031   6.1830310   6.1582863
   6.1578072   6.1827360   6.1830442   6.1582690   5.9612717   5.9243253
   5.9228906   5.9593483   6.1576855   6.1825983   6.1831907   6.1583316
   6.1576609   6.1826981   6.1831641   6.1583488   5.9614790   5.9246541
   5.9230791   5.9595634   6.1577174   6.1826050   6.1831551   6.1582945
   6.1576993   6.1827209   6.1831293   6.1583651   5.9613213   5.9244667
   8.5065553   8.4786464   8.5068432   8.4788901   8.5068060   8.4788463
   8.4786412   8.5065274   8.4787604   8.5066861   8.4789422   8.5069567
 TTTTTTTTTTTTTTTTTTTTTTTTTTTTTT MOQGAD      TELAPSE      132.01 TCPU     3221.30
 TTTTTTTTTTTTTTTTTTTTTTTTTTTTTT SHELLXN     TELAPSE      152.87 TCPU     3886.56
 TTTTTTTTTTTTTTTTTTTTTTTTTTTTTT MONMO3      TELAPSE      153.43 TCPU     3904.59
 NUMERICALLY INTEGRATED DENSITY    395.9999860863
 TTTTTTTTTTTTTTTTTTTTTTTTTTTTTT NUMDFT      TELAPSE      154.93 TCPU     3952.55
 CYC   4 ETOT(AU) -2.578226687293E+03 DETOT -4.02E-03 tst  6.67E-05 PX  2.04E-02
 TTTTTTTTTTTTTTTTTTTTTTTTTTTTTT DIIS        TELAPSE      155.13 TCPU     3958.86
 DIIS TEST: 0.16342E-01 AT SCF   CYCLE   4 - DIIS ACTIVE - HISTORY:     4 CYCLES
 TTTTTTTTTTTTTTTTTTTTTTTTTTTTTT FDIK        TELAPSE      156.93 TCPU     4016.50
 INSULATING STATE
 TOP OF VALENCE BANDS -    BAND    198; K    2; EIG -2.3753621E-01 AU
 TOP OF VALENCE BANDS -    BAND    198; K    1; EIG -2.3759452E-01 AU
 BOTTOM OF VIRTUAL BANDS - BAND    199; K   17; EIG -8.6257588E-02 AU
 INDIRECT ENERGY BAND GAP:   4.1165 eV
 BOTTOM OF VIRTUAL BANDS - BAND    199; K    1; EIG -8.3896626E-02 AU
 TTTTTTTTTTTTTTTTTTTTTTTTTTTTTT PDIG        TELAPSE      158.46 TCPU     4023.40
 CHARGE NORMALIZATION FACTOR   1.00000000
 TOTAL ATOMIC CHARGES:
   4.4708661   4.5155006   4.4707416   4.5153500   4.4708345   4.5154746
   4.5153196   4.4706713   4.5151977   4.4705207   4.5152358   4.4706656
   0.8624667   0.8738913   0.8739864   0.8625285   0.8624301   0.8738408
   0.8739511   0.8624725   0.8624271   0.8738708   0.8740353   0.8625589
   0.8624347   0.8738684   0.8739775   0.8625033   0.8624232   0.8738673
   0.8740283   0.8625687   0.8624379   0.8738486   0.8739682   0.8625281
   5.9424438   5.9168981   6.1734936   6.1695109   6.1695198   6.1734702
   6.1733434   6.1694584   6.1695059   6.1734213   5.9174690   5.9430933
   5.9426258   5.9169471   6.1733013   6.1694540   6.1695590   6.1734236
   6.1734008   6.1695055   6.1695102   6.1733658   5.9173592   5.9430978
   5.9427233   5.9171009   6.1732659   6.1694006   6.1695868   6.1734380
   6.1734166   6.1694826   6.1695159   6.1734129   5.9172907   5.9429952
   8.5119100   8.4831053   8.5120796   8.4833244   8.5120240   8.4832879
   8.4832130   8.5119216   8.4833228   8.5120603   8.4834576   8.5121945
 TTTTTTTTTTTTTTTTTTTTTTTTTTTTTT MOQGAD      TELAPSE      158.55 TCPU     4023.49
 TTTTTTTTTTTTTTTTTTTTTTTTTTTTTT SHELLXN     TELAPSE      179.53 TCPU     4692.46
 TTTTTTTTTTTTTTTTTTTTTTTTTTTTTT MONMO3      TELAPSE      180.10 TCPU     4710.49
 NUMERICALLY INTEGRATED DENSITY    395.9999864990
 TTTTTTTTTTTTTTTTTTTTTTTTTTTTTT NUMDFT      TELAPSE      181.60 TCPU     4758.52
 CYC   5 ETOT(AU) -2.578229954158E+03 DETOT -3.27E-03 tst  5.30E-05 PX  1.05E-02
 TTTTTTTTTTTTTTTTTTTTTTTTTTTTTT DIIS        TELAPSE      181.82 TCPU     4765.32
 DIIS TEST: 0.35048E-02 AT SCF   CYCLE   5 - DIIS ACTIVE - HISTORY:     5 CYCLES
 TTTTTTTTTTTTTTTTTTTTTTTTTTTTTT FDIK        TELAPSE      183.61 TCPU     4822.11
 INSULATING STATE
 TOP OF VALENCE BANDS -    BAND    198; K    2; EIG -2.3682918E-01 AU
 TOP OF VALENCE BANDS -    BAND    198; K    1; EIG -2.3688704E-01 AU
 BOTTOM OF VIRTUAL BANDS - BAND    199; K   17; EIG -8.5047956E-02 AU
 INDIRECT ENERGY BAND GAP:   4.1302 eV
 BOTTOM OF VIRTUAL BANDS - BAND    199; K    1; EIG -8.2738830E-02 AU
 TTTTTTTTTTTTTTTTTTTTTTTTTTTTTT PDIG        TELAPSE      185.14 TCPU     4829.03
 CHARGE NORMALIZATION FACTOR   1.00000000
 TOTAL ATOMIC CHARGES:
   4.4684139   4.5167782   4.4682902   4.5166291   4.4683779   4.5167519
   4.5165713   4.4681959   4.5164500   4.4680487   4.5164870   4.4681944
   0.8641006   0.8757696   0.8758585   0.8641747   0.8640637   0.8757187
   0.8758246   0.8641169   0.8640633   0.8757479   0.8759073   0.8641995
   0.8640757   0.8757477   0.8758464   0.8641409   0.8640613   0.8757448
   0.8759015   0.8642071   0.8640814   0.8757301   0.8758367   0.8641637
   5.9215371   5.9216732   6.1704630   6.1747218   6.1747290   6.1704394
   6.1703109   6.1746695   6.1747045   6.1703808   5.9222564   5.9221395
   5.9216584   5.9216818   6.1702683   6.1746436   6.1747875   6.1704111
   6.1703175   6.1747009   6.1747530   6.1703694   5.9221867   5.9221767
   5.9217739   5.9218490   6.1702308   6.1745874   6.1748097   6.1704210
   6.1703246   6.1746680   6.1747650   6.1704267   5.9221090   5.9220676
   8.5141564   8.4867937   8.5143505   8.4870050   8.5143010   8.4869725
   8.4869147   8.5142120   8.4870163   8.5143390   8.4871581   8.5144972
 TTTTTTTTTTTTTTTTTTTTTTTTTTTTTT MOQGAD      TELAPSE      185.24 TCPU     4829.13
 TTTTTTTTTTTTTTTTTTTTTTTTTTTTTT SHELLXN     TELAPSE      206.10 TCPU     5494.29
 TTTTTTTTTTTTTTTTTTTTTTTTTTTTTT MONMO3      TELAPSE      206.67 TCPU     5512.43
 NUMERICALLY INTEGRATED DENSITY    395.9999860653
 TTTTTTTTTTTTTTTTTTTTTTTTTTTTTT NUMDFT      TELAPSE      208.18 TCPU     5560.71
 CYC   6 ETOT(AU) -2.578230825608E+03 DETOT -8.71E-04 tst  1.11E-05 PX  4.95E-03
 TTTTTTTTTTTTTTTTTTTTTTTTTTTTTT DIIS        TELAPSE      208.42 TCPU     5567.52
 DIIS TEST: 0.28747E-03 AT SCF   CYCLE   6 - DIIS ACTIVE - HISTORY:     6 CYCLES
 TTTTTTTTTTTTTTTTTTTTTTTTTTTTTT FDIK        TELAPSE      210.22 TCPU     5624.94
 INSULATING STATE
 TOP OF VALENCE BANDS -    BAND    198; K    2; EIG -2.3689264E-01 AU
 TOP OF VALENCE BANDS -    BAND    198; K    1; EIG -2.3695103E-01 AU
 BOTTOM OF VIRTUAL BANDS - BAND    199; K   17; EIG -8.4997856E-02 AU
 INDIRECT ENERGY BAND GAP:   4.1333 eV
 BOTTOM OF VIRTUAL BANDS - BAND    199; K    1; EIG -8.2670988E-02 AU
 TTTTTTTTTTTTTTTTTTTTTTTTTTTTTT PDIG        TELAPSE      211.75 TCPU     5631.84
 CHARGE NORMALIZATION FACTOR   1.00000000
 TOTAL ATOMIC CHARGES:
   4.4683970   4.5164909   4.4682761   4.5163422   4.4683614   4.5164652
   4.5162764   4.4681605   4.5161540   4.4680105   4.5161927   4.4681604
   0.8644256   0.8759588   0.8760245   0.8644946   0.8643902   0.8759093
   0.8759890   0.8644353   0.8643944   0.8759403   0.8760703   0.8645142
   0.8644060   0.8759407   0.8760095   0.8644562   0.8643906   0.8759361
   0.8760659   0.8645236   0.8644101   0.8759218   0.8760010   0.8644813
   5.9264965   5.9212641   6.1701128   6.1732341   6.1732981   6.1701819
   6.1699613   6.1731734   6.1732824   6.1701321   5.9221239   5.9272893
   5.9265631   5.9212269   6.1699000   6.1731321   6.1733808   6.1701679
   6.1699456   6.1731866   6.1733445   6.1701396   5.9221029   5.9273862
   5.9266982   5.9214100   6.1698759   6.1730840   6.1733933   6.1701702
   6.1699574   6.1731641   6.1733475   6.1701888   5.9220067   5.9272567
   8.5135845   8.4854244   8.5137919   8.4856446   8.5137456   8.4856089
   8.4855259   8.5136199   8.4856319   8.5137536   8.4857805   8.5139332
 TTTTTTTTTTTTTTTTTTTTTTTTTTTTTT MOQGAD      TELAPSE      211.84 TCPU     5631.93
 TTTTTTTTTTTTTTTTTTTTTTTTTTTTTT SHELLXN     TELAPSE      232.72 TCPU     6297.68
 TTTTTTTTTTTTTTTTTTTTTTTTTTTTTT MONMO3      TELAPSE      233.29 TCPU     6315.72
 NUMERICALLY INTEGRATED DENSITY    395.9999861458
 TTTTTTTTTTTTTTTTTTTTTTTTTTTTTT NUMDFT      TELAPSE      234.80 TCPU     6364.02
 CYC   7 ETOT(AU) -2.578230893273E+03 DETOT -6.77E-05 tst  4.73E-07 PX  1.09E-03
 TTTTTTTTTTTTTTTTTTTTTTTTTTTTTT DIIS        TELAPSE      235.06 TCPU     6370.85
 DIIS TEST: 0.26350E-05 AT SCF   CYCLE   7 - DIIS ACTIVE - HISTORY:     7 CYCLES
 TTTTTTTTTTTTTTTTTTTTTTTTTTTTTT FDIK        TELAPSE      236.85 TCPU     6427.82
 INSULATING STATE
 TOP OF VALENCE BANDS -    BAND    198; K    2; EIG -2.3689586E-01 AU
 TOP OF VALENCE BANDS -    BAND    198; K    1; EIG -2.3695412E-01 AU
 BOTTOM OF VIRTUAL BANDS - BAND    199; K   17; EIG -8.5042860E-02 AU
 INDIRECT ENERGY BAND GAP:   4.1321 eV
 BOTTOM OF VIRTUAL BANDS - BAND    199; K    1; EIG -8.2718043E-02 AU
 TTTTTTTTTTTTTTTTTTTTTTTTTTTTTT PDIG        TELAPSE      238.38 TCPU     6434.73
 CHARGE NORMALIZATION FACTOR   1.00000000
 TOTAL ATOMIC CHARGES:
   4.4687614   4.5164252   4.4686363   4.5162752   4.4687254   4.5163987
   4.5162231   4.4685538   4.5161009   4.4684040   4.5161382   4.4685501
   0.8643740   0.8758772   0.8759693   0.8644428   0.8643375   0.8758265
   0.8759347   0.8643853   0.8643354   0.8758562   0.8760178   0.8644699
   0.8643473   0.8758550   0.8759580   0.8644118   0.8643336   0.8758532
   0.8760114   0.8644773   0.8643526   0.8758369   0.8759486   0.8644346
   5.9262200   5.9214589   6.1702184   6.1732665   6.1732715   6.1701939
   6.1700645   6.1732152   6.1732520   6.1701388   5.9220442   5.9268384
   5.9263640   5.9214842   6.1700259   6.1731951   6.1733238   6.1701586
   6.1700902   6.1732564   6.1732832   6.1701082   5.9219588   5.9268607
   5.9264738   5.9216469   6.1699866   6.1731390   6.1733492   6.1701716
   6.1701007   6.1732256   6.1732928   6.1701633   5.9218844   5.9267549
   8.5134759   8.4856496   8.5136613   8.4858623   8.5136085   8.4858284
   8.4857637   8.5135134   8.4858688   8.5136462   8.4860080   8.5137944
 TTTTTTTTTTTTTTTTTTTTTTTTTTTTTT MOQGAD      TELAPSE      238.48 TCPU     6434.83
 TTTTTTTTTTTTTTTTTTTTTTTTTTTTTT SHELLXN     TELAPSE      259.25 TCPU     7097.09
 TTTTTTTTTTTTTTTTTTTTTTTTTTTTTT MONMO3      TELAPSE      259.81 TCPU     7115.17
 NUMERICALLY INTEGRATED DENSITY    395.9999861412
 TTTTTTTTTTTTTTTTTTTTTTTTTTTTTT NUMDFT      TELAPSE      261.33 TCPU     7163.50
 CYC   8 ETOT(AU) -2.578230893476E+03 DETOT -2.03E-07 tst  2.08E-09 PX  1.20E-04
 TTTTTTTTTTTTTTTTTTTTTTTTTTTTTT DIIS        TELAPSE      261.61 TCPU     7170.43
 DIIS TEST: 0.23102E-06 AT SCF   CYCLE   8 - DIIS ACTIVE - HISTORY:     8 CYCLES
 TTTTTTTTTTTTTTTTTTTTTTTTTTTTTT FDIK        TELAPSE      263.42 TCPU     7227.80
 INSULATING STATE
 TOP OF VALENCE BANDS -    BAND    198; K    2; EIG -2.3689939E-01 AU
 TOP OF VALENCE BANDS -    BAND    198; K    1; EIG -2.3695768E-01 AU
 BOTTOM OF VIRTUAL BANDS - BAND    199; K   17; EIG -8.5038082E-02 AU
 INDIRECT ENERGY BAND GAP:   4.1324 eV
 BOTTOM OF VIRTUAL BANDS - BAND    199; K    1; EIG -8.2712722E-02 AU
 TTTTTTTTTTTTTTTTTTTTTTTTTTTTTT PDIG        TELAPSE      264.94 TCPU     7234.69
 CHARGE NORMALIZATION FACTOR   1.00000000
 TOTAL ATOMIC CHARGES:
   4.4686576   4.5165138   4.4685374   4.5163657   4.4686226   4.5164883
   4.5163014   4.4684230   4.5161797   4.4682748   4.5162180   4.4684237
   0.8643652   0.8758827   0.8759512   0.8644358   0.8643295   0.8758329
   0.8759161   0.8643768   0.8643339   0.8758633   0.8759979   0.8644554
   0.8643456   0.8758642   0.8759365   0.8643971   0.8643300   0.8758591
   0.8759935   0.8644649   0.8643499   0.8758456   0.8759276   0.8644221
   5.9261682   5.9212966   6.1701900   6.1732795   6.1733342   6.1702439
   6.1700409   6.1732203   6.1733156   6.1701922   5.9221076   5.9269236
   5.9262355   5.9212598   6.1699788   6.1731799   6.1734139   6.1702290
   6.1700213   6.1732312   6.1733807   6.1702039   5.9220866   5.9270198
   5.9263686   5.9214411   6.1699557   6.1731323   6.1734254   6.1702301
   6.1700323   6.1732080   6.1733852   6.1702538   5.9219920   5.9268919
   8.5135410   8.4855636   8.5137500   8.4857838   8.5137048   8.4857488
   8.4856691   8.5135827   8.4857735   8.5137136   8.4859224   8.5138945
 TTTTTTTTTTTTTTTTTTTTTTTTTTTTTT MOQGAD      TELAPSE      265.03 TCPU     7234.79
 TTTTTTTTTTTTTTTTTTTTTTTTTTTTTT SHELLXN     TELAPSE      285.89 TCPU     7899.64
 +++ ENERGIES IN A.U. +++
 ::: EXT EL-POLE                                  -3.0933893029001E+03
 ::: EXT EL-SPHEROPOLE                             3.5802482191949E+01
 ::: BIELET ZONE E-E                               4.3995872656954E+03
 ::: TOTAL E-E                                     1.3420004449873E+03
 ::: TOTAL E-N + N-E                              -6.3297305930945E+03
 ::: TOTAL N-N                                     1.1701560101102E+02
 ::: KINETIC ENERGY                                2.5599349926515E+03
 ::: PSEUDO TOTAL   ENERGY                        -2.3107795544446E+03
 ::: VIRIAL COEFFICIENT                            1.0511537754466E+00
 TTTTTTTTTTTTTTTTTTTTTTTTTTTTTT MONMO3      TELAPSE      286.45 TCPU     7917.72
 NUMERICALLY INTEGRATED DENSITY    395.9999861397
 EXCHANGE ENERGY: -0.252050826438E+03  CORRELATION ENERGY: -0.154005126714E+02
 TTTTTTTTTTTTTTTTTTTTTTTTTTTTTT NUMDFT      TELAPSE      287.97 TCPU     7966.16
 CYC   9 ETOT(AU) -2.578230893554E+03 DETOT -7.79E-08 tst  6.54E-10 PX  1.20E-04

 == SCF ENDED - CONVERGENCE ON ENERGY      E(AU) -2.5782308935543E+03 CYCLES   9


 ENERGY EXPRESSION=HARTREE+FOCK EXCH*0.00000+(HSESOL     EXCH)*1.00000+PBESOL     CORR


 TOTAL ENERGY(DFT)(AU)(  9) -2.5782308935543E+03 DE-7.8E-08 tester 6.5E-10
 TTTTTTTTTTTTTTTTTTTTTTTTTTTTTT EDFT        TELAPSE      287.97 TCPU     7966.17
 
 INFORMATION **** DFTD3 ENERGY **** CALCULATE DFTD3 ENERGY

           DFT-D V3(BJ)
 DF                                         hsesol3c  
 parameters
 s6       :    1.0000
 s8       :    0.0000
 a1       :    0.5196
 a2       :    4.9385
 k1 k3    :   16.0000   -4.0000
 Cutoff   :   50.2022
 CN-Cutoff:   21.1671
 ABC-Cutoff:   21.1671
 
 Edisp /kcal,au:   -56.2202 -0.08959262

 E6    /kcal :   -60.3120
 E8    /kcal :     0.0000
 E6(ABC) "   :   4.091809
 
 INFORMATION **** DFTD3 ENERGY **** NORMAL TERMINATION OF DFTD3 MODULE

 GCP ENERGY CALCULATION
  level        hsesol3c            basis:hsesol3c
  Nbf            948
  Atoms           84

  Parameters: 
  sigma     1.0000
  eta       1.4281
  alpha     0.2936
  beta      1.9467

  dmp_scal      4.0000
  dmp_exp       6.0000
 cutoffs: 
   distance [bohr] 60.0
   noise    [a.u.] 2.2E-16
 SR-damping   T
 ** gCP correction **
  Egcp:        0.1684651957 / (a.u.) ||     105.7135 / (kcal/mol)
 INFORMATION **** GCP **** NORMAL TERMINATION OF GCP MODULE

 *******************************************************************************

 DFT-D3-GCP DISPERSION AND COUNTERPOISE CORRECTION

 D3 DISPERSION ENERGY (AU)      -8.9592615158172E-02
 GCP ENERGY (AU)                 1.6846519565046E-01
 TOTAL ENERGY + DISP + GCP (AU) -2.5781520209738E+03

 *******************************************************************************

 EIGENVECTORS IN FORTRAN UNIT 10
 TTTTTTTTTTTTTTTTTTTTTTTTTTTTTT END         TELAPSE      291.64 TCPU     7975.78
 EEEEEEEEEE TERMINATION  DATE 19 02 2026 TIME 20:00:09.6
