 Default number of threads is:           32

         
 *******************************************************************************
 *                                                                             *
 *                               CRYSTAL23                                     *
 *                      public : 1.0.1 - October 2022                          *
 *                       HTTP://WWW.CRYSTAL.UNITO.IT                           *
 *                                                                             *
 *                              MAIN AUTHORS                                   *
 *                                                                             *
 *  R. DOVESI(1,11), V.R. SAUNDERS(2), C. ROETTI(1,11), R. ORLANDO(1,11),      *
 *  C.M. ZICOVICH-WILSON(1,3), F. PASCALE(4), B. CIVALLERI(1,11),              *
 *  K. DOLL(5), N.M. HARRISON(6), I.J. BUSH(7), Ph. D'ARCO(8),                 *
 *  M. LLUNELL(9), M. CAUSA'(10), Y. NOEL(8), L. MASCHIO(1,11), A. ERBA(1,11)  *
 *  M. RE'RAT(14), S. CASASSA(1,11), B.G. SEARLE(2), J.K. DESMARAIS(1)         *
 *                                                                             *
 *        CONTRIBUTIONS TO THE CODE HAVE ALSO BEEN GIVEN BY                    *
 *                                                                             *
 *  M. FERRABONE(1,11), M. DE LA PIERRE(1,11), M. FERRERO(1,11),               *
 *  J. BAIMA(1,11), E. ALBANESE(1,11), M.F. PEINTINGER(12), R. BAST(13),       *
 *  B. KIRTMAN(15), V. LACIVITA(1,11), R. DEMICHELIS(1,16)                     *
 *  G. BRANDEBURG(17), S. SALUSTRO(1,11), G. SANSONE(1,11)                     *
 *  M.T. RUGGIERO(18), L.E. DAGA(1), L. DONA'(1), A. COSSARD(1)                *
 *                                                                             *
 * (1) THEORETICAL CHEMISTRY GROUP - UNIVERSITA' DI TORINO - TORINO (ITALY)    *
 * (2) SCIENTIFIC COMPUTING DEPARTMENT - STFC DARESBURY (UK)                   *
 * (3) UNIVERSIDAD AUTONOMA DEL ESTADO DE MORELOS - CUERNAVACA (MEXICO)        *
 * (4) UNIVERSITE' DE LORRAINE - NANCY (FRANCE)                                *
 * (5) UNIVERSITAET STUTTGART- STUTTGART (GERMANY)                             *
 * (6) IMPERIAL COLLEGE - LONDON (UK)                                          *
 * (7) SCIENTIFIC COMPUTING DEPARTMENT - STFC RAL (UK)                         *
 * (8) UPMC - SORBONNE UNIVERSITES - PARIS (FRANCE)                            *
 * (9) UNIVERSIDAD DE BARCELONA - BARCELONA (SPAIN)                            *
 *(10) UNIVERSITA' DI NAPOLI "FEDERICO II" - NAPOLI (ITALY)                    *
 *(11) NIS - NANOSTRUCTURED INTERFACES AND SURFACES - TORINO (ITALY)           *
 *(12) MPI FUER CHEMISCHE ENERGIEKONVERSION - MUELHEIM AN DER RUHR (GERMANY)   *
 *(13) UNIVERSITY OF TROMSO - TROMSO (NORWAY)                                  *
 *(14) UNIVERSITE' DE PAU ET DES PAYS DE L'ADOUR - PAU (FRANCE)                *
 *(15) UNIVERSITY OF CALIFORNIA SANTA BARBARA - SANTA BARBARA (USA)            *
 *(16) CURTIN UNIVERSITY - PERTH (AUSTRALIA)                                   *
 *(17) UNIVERSITY COLLEGE LONDON - LONDON (UK)                                 *
 *(18) UNIVERSITY OF VERMONT - BURLINGTON (USA)                                *
 *                                                                             *
 *******************************************************************************
 EEEEEEEEEE STARTING  DATE 02 12 2025 TIME 07:57:23.5
 COF-5_z33_inc_L040                                                              

 CRYSTAL CALCULATION
 (INPUT ACCORDING TO THE INTERNATIONAL TABLES FOR X-RAY CRYSTALLOGRAPHY)
 CRYSTAL FAMILY                       :  TRICLINIC   
 CRYSTAL CLASS  (GROTH - 1921)        :  TRICLINIC PEDIAL                     

 SPACE GROUP (NONCENTROSYMMETRIC)     :  P 1             

 LATTICE PARAMETERS  (ANGSTROMS AND DEGREES) - CONVENTIONAL CELL
        A           B           C        ALPHA        BETA       GAMMA
    15.02070    15.04439     5.18556    48.11525    89.99955   120.05310


 NUMBER OF IRREDUCIBLE ATOMS IN THE CONVENTIONAL CELL:   42

 INPUT COORDINATES

 ATOM AT. N.              COORDINATES
   1   5     5.384801600000E-01  7.429223000000E-02  5.006340500000E-01
   2   5     6.972580200000E-01  2.333158800000E-01  5.006440400000E-01
   3   5     5.382466300000E-01  2.334425000000E-01  4.992141300000E-01
   4   5     1.509149100000E-01  4.591033000000E-01  5.054288700000E-01
   5   5     3.088664500000E-01  4.573603400000E-01  5.094726100000E-01
   6   5     3.100581300000E-01  6.185312800000E-01  5.035072000000E-01
   7   1     8.266845300000E-01  1.545683100000E-01  5.045323000000E-01
   8   1     2.291818000000E-02  5.400198200000E-01  4.929424200000E-01
   9   1     8.285572100000E-01  4.427628200000E-01  4.928041300000E-01
  10   1     2.119038000000E-02  2.519145900000E-01  5.041008900000E-01
  11   1     5.167110300000E-01  7.483438500000E-01  5.042229600000E-01
  12   1     3.320579700000E-01 -5.328552000000E-02  4.945745800000E-01
  13   1     2.335163400000E-01  7.526012300000E-01  4.958813800000E-01
  14   1     6.150993800000E-01 -5.739440000000E-02  5.023617000000E-01
  15   1     5.173014100000E-01  5.376592000000E-01  4.977787800000E-01
  16   1     3.287149600000E-01  1.535017600000E-01  5.060615900000E-01
  17   1     2.314071300000E-01  2.495353000000E-01  5.056967300000E-01
  18   1     6.149490000000E-01  4.415132400000E-01  4.987121900000E-01
  19   6     8.165890500000E-01  2.928217600000E-01  5.003940600000E-01
  20   6     8.708411500000E-01  2.391028000000E-01  5.021600800000E-01
  21   6    -2.115681000000E-02  4.554027800000E-01  4.957674300000E-01
  22   6     8.718127700000E-01  4.017743000000E-01  4.961045800000E-01
  23   6    -2.202903000000E-02  2.928654700000E-01  5.015164000000E-01
  24   6     3.280865000000E-02  4.012081900000E-01  4.993332200000E-01
  25   6     3.692726100000E-01  7.384085800000E-01  5.018754600000E-01
  26   6     4.770857600000E-01  7.927707800000E-01  5.022656300000E-01
  27   6     3.714392200000E-01 -9.806343000000E-02  4.969894700000E-01
  28   6     3.171485500000E-01  7.946377300000E-01  4.981081000000E-01
  29   6     5.313905200000E-01 -9.992118000000E-02  5.008282800000E-01
  30   6     4.789612900000E-01 -4.442902000000E-02  4.992040900000E-01
  31   6     3.691660300000E-01  3.999387900000E-01  4.999752700000E-01
  32   6     4.771001900000E-01  4.533631700000E-01  4.994238100000E-01
  33   6     3.695656700000E-01  2.379442700000E-01  5.039471700000E-01
  34   6     3.157578800000E-01  2.911766000000E-01  5.033392500000E-01
  35   6     5.307692500000E-01  4.000104100000E-01  5.003621300000E-01
  36   6     4.778233100000E-01  2.919056500000E-01  5.016039300000E-01
  37   8     4.855221400000E-01  1.274240800000E-01  4.996039800000E-01
  38   8     6.442209100000E-01  1.268028600000E-01  5.025939000000E-01
  39   8     6.445257000000E-01  2.869349400000E-01  4.980743700000E-01
  40   8     2.041677400000E-01  5.657907500000E-01  5.027405700000E-01
  41   8     2.027743200000E-01  4.044291600000E-01  5.102280200000E-01
  42   8     3.625954200000E-01  5.647418800000E-01  5.052122000000E-01

 *******************************************************************************

 << INFORMATION >>: FROM NOW ON, ALL COORDINATES REFER TO THE PRIMITIVE CELL

 *******************************************************************************

 LATTICE PARAMETERS  (ANGSTROMS AND DEGREES) - PRIMITIVE CELL
       A          B          C        ALPHA      BETA     GAMMA        VOLUME
   15.02070   15.04439    5.18556    48.11525  89.99955 120.05310    645.517361

 COORDINATES OF THE EQUIVALENT ATOMS (FRACTIONAL UNITS)

 N. ATOM EQUIV AT. N.          X                  Y                  Z

   1   1   1    5 B    -4.61519840000E-01  7.42922300000E-02 -4.99365950000E-01

   2   2   1    5 B    -3.02741980000E-01  2.33315880000E-01 -4.99355960000E-01

   3   3   1    5 B    -4.61753370000E-01  2.33442500000E-01  4.99214130000E-01

   4   4   1    5 B     1.50914910000E-01  4.59103300000E-01 -4.94571130000E-01

   5   5   1    5 B     3.08866450000E-01  4.57360340000E-01 -4.90527390000E-01

   6   6   1    5 B     3.10058130000E-01 -3.81468720000E-01 -4.96492800000E-01

   7   7   1    1 H    -1.73315470000E-01  1.54568310000E-01 -4.95467700000E-01

   8   8   1    1 H     2.29181800000E-02 -4.59980180000E-01  4.92942420000E-01

   9   9   1    1 H    -1.71442790000E-01  4.42762820000E-01  4.92804130000E-01

  10  10   1    1 H     2.11903800000E-02  2.51914590000E-01 -4.95899110000E-01

  11  11   1    1 H    -4.83288970000E-01 -2.51656150000E-01 -4.95777040000E-01

  12  12   1    1 H     3.32057970000E-01 -5.32855200000E-02  4.94574580000E-01

  13  13   1    1 H     2.33516340000E-01 -2.47398770000E-01  4.95881380000E-01

  14  14   1    1 H    -3.84900620000E-01 -5.73944000000E-02 -4.97638300000E-01

  15  15   1    1 H    -4.82698590000E-01 -4.62340800000E-01  4.97778780000E-01

  16  16   1    1 H     3.28714960000E-01  1.53501760000E-01 -4.93938410000E-01

  17  17   1    1 H     2.31407130000E-01  2.49535300000E-01 -4.94303270000E-01

  18  18   1    1 H    -3.85051000000E-01  4.41513240000E-01  4.98712190000E-01

  19  19   1    6 C    -1.83410950000E-01  2.92821760000E-01 -4.99605940000E-01

  20  20   1    6 C    -1.29158850000E-01  2.39102800000E-01 -4.97839920000E-01

  21  21   1    6 C    -2.11568100000E-02  4.55402780000E-01  4.95767430000E-01

  22  22   1    6 C    -1.28187230000E-01  4.01774300000E-01  4.96104580000E-01

  23  23   1    6 C    -2.20290300000E-02  2.92865470000E-01 -4.98483600000E-01

  24  24   1    6 C     3.28086500000E-02  4.01208190000E-01  4.99333220000E-01

  25  25   1    6 C     3.69272610000E-01 -2.61591420000E-01 -4.98124540000E-01

  26  26   1    6 C     4.77085760000E-01 -2.07229220000E-01 -4.97734370000E-01

  27  27   1    6 C     3.71439220000E-01 -9.80634300000E-02  4.96989470000E-01

  28  28   1    6 C     3.17148550000E-01 -2.05362270000E-01  4.98108100000E-01

  29  29   1    6 C    -4.68609480000E-01 -9.99211800000E-02 -4.99171720000E-01

  30  30   1    6 C     4.78961290000E-01 -4.44290200000E-02  4.99204090000E-01

  31  31   1    6 C     3.69166030000E-01  3.99938790000E-01  4.99975270000E-01

  32  32   1    6 C     4.77100190000E-01  4.53363170000E-01  4.99423810000E-01

  33  33   1    6 C     3.69565670000E-01  2.37944270000E-01 -4.96052830000E-01

  34  34   1    6 C     3.15757880000E-01  2.91176600000E-01 -4.96660750000E-01

  35  35   1    6 C    -4.69230750000E-01  4.00010410000E-01 -4.99637870000E-01

  36  36   1    6 C     4.77823310000E-01  2.91905650000E-01 -4.98396070000E-01

  37  37   1    8 O     4.85522140000E-01  1.27424080000E-01  4.99603980000E-01

  38  38   1    8 O    -3.55779090000E-01  1.26802860000E-01 -4.97406100000E-01

  39  39   1    8 O    -3.55474300000E-01  2.86934940000E-01  4.98074370000E-01

  40  40   1    8 O     2.04167740000E-01 -4.34209250000E-01 -4.97259430000E-01

  41  41   1    8 O     2.02774320000E-01  4.04429160000E-01 -4.89771980000E-01

  42  42   1    8 O     3.62595420000E-01 -4.35258120000E-01 -4.94787800000E-01

 NUMBER OF SYMMETRY OPERATORS         :    1
 *******************************************************************************
 * GEOMETRY EDITING - INPUT COORDINATES ARE GIVEN IN ANGSTROM         
 *******************************************************************************

 GCALCO - MAX INDICES DIRECT LATTICE VECTOR     8    12    30
 NO.OF VECTORS CREATED 6999 STARS 3500 RMAX   194.38457 BOHR

 GEOMETRY FOR WAVE FUNCTION - DIMENSIONALITY OF THE SYSTEM    3
 (NON PERIODIC DIRECTION: LATTICE PARAMETER FORMALLY SET TO 500)
 *******************************************************************************
 LATTICE PARAMETERS (ANGSTROMS AND DEGREES) - BOHR = 0.5291772083 ANGSTROM
 PRIMITIVE CELL - CENTRING CODE 1/0 VOLUME=   645.517361 - DENSITY  1.004 g/cm^3
         A              B              C           ALPHA      BETA       GAMMA 
    15.02070100    15.04438700     5.18555700    48.115253  89.999546 120.053104
 *******************************************************************************
 ATOMS IN THE ASYMMETRIC UNIT   42 - ATOMS IN THE UNIT CELL:   42
     ATOM                 X/A                 Y/B                 Z/C    
 *******************************************************************************
      1 T   5 B    -4.615198400000E-01  7.429223000000E-02 -4.993659500000E-01
      2 T   5 B    -3.027419800000E-01  2.333158800000E-01 -4.993559600000E-01
      3 T   5 B    -4.617533700000E-01  2.334425000000E-01  4.992141300000E-01
      4 T   5 B     1.509149100000E-01  4.591033000000E-01 -4.945711300000E-01
      5 T   5 B     3.088664500000E-01  4.573603400000E-01 -4.905273900000E-01
      6 T   5 B     3.100581300000E-01 -3.814687200000E-01 -4.964928000000E-01
      7 T   1 H    -1.733154700000E-01  1.545683100000E-01 -4.954677000000E-01
      8 T   1 H     2.291818000000E-02 -4.599801800000E-01  4.929424200000E-01
      9 T   1 H    -1.714427900000E-01  4.427628200000E-01  4.928041300000E-01
     10 T   1 H     2.119038000000E-02  2.519145900000E-01 -4.958991100000E-01
     11 T   1 H    -4.832889700000E-01 -2.516561500000E-01 -4.957770400000E-01
     12 T   1 H     3.320579700000E-01 -5.328552000000E-02  4.945745800000E-01
     13 T   1 H     2.335163400000E-01 -2.473987700000E-01  4.958813800000E-01
     14 T   1 H    -3.849006200000E-01 -5.739440000000E-02 -4.976383000000E-01
     15 T   1 H    -4.826985900000E-01 -4.623408000000E-01  4.977787800000E-01
     16 T   1 H     3.287149600000E-01  1.535017600000E-01 -4.939384100000E-01
     17 T   1 H     2.314071300000E-01  2.495353000000E-01 -4.943032700000E-01
     18 T   1 H    -3.850510000000E-01  4.415132400000E-01  4.987121900000E-01
     19 T   6 C    -1.834109500000E-01  2.928217600000E-01 -4.996059400000E-01
     20 T   6 C    -1.291588500000E-01  2.391028000000E-01 -4.978399200000E-01
     21 T   6 C    -2.115681000000E-02  4.554027800000E-01  4.957674300000E-01
     22 T   6 C    -1.281872300000E-01  4.017743000000E-01  4.961045800000E-01
     23 T   6 C    -2.202903000000E-02  2.928654700000E-01 -4.984836000000E-01
     24 T   6 C     3.280865000000E-02  4.012081900000E-01  4.993332200000E-01
     25 T   6 C     3.692726100000E-01 -2.615914200000E-01 -4.981245400000E-01
     26 T   6 C     4.770857600000E-01 -2.072292200000E-01 -4.977343700000E-01
     27 T   6 C     3.714392200000E-01 -9.806343000000E-02  4.969894700000E-01
     28 T   6 C     3.171485500000E-01 -2.053622700000E-01  4.981081000000E-01
     29 T   6 C    -4.686094800000E-01 -9.992118000000E-02 -4.991717200000E-01
     30 T   6 C     4.789612900000E-01 -4.442902000000E-02  4.992040900000E-01
     31 T   6 C     3.691660300000E-01  3.999387900000E-01  4.999752700000E-01
     32 T   6 C     4.771001900000E-01  4.533631700000E-01  4.994238100000E-01
     33 T   6 C     3.695656700000E-01  2.379442700000E-01 -4.960528300000E-01
     34 T   6 C     3.157578800000E-01  2.911766000000E-01 -4.966607500000E-01
     35 T   6 C    -4.692307500000E-01  4.000104100000E-01 -4.996378700000E-01
     36 T   6 C     4.778233100000E-01  2.919056500000E-01 -4.983960700000E-01
     37 T   8 O     4.855221400000E-01  1.274240800000E-01  4.996039800000E-01
     38 T   8 O    -3.557790900000E-01  1.268028600000E-01 -4.974061000000E-01
     39 T   8 O    -3.554743000000E-01  2.869349400000E-01  4.980743700000E-01
     40 T   8 O     2.041677400000E-01 -4.342092500000E-01 -4.972594300000E-01
     41 T   8 O     2.027743200000E-01  4.044291600000E-01 -4.897719800000E-01
     42 T   8 O     3.625954200000E-01 -4.352581200000E-01 -4.947878000000E-01

 T = ATOM BELONGING TO THE ASYMMETRIC UNIT

 ****    1 SYMMOPS - TRANSLATORS IN FRACTIONAL UNITS
 **** MATRICES AND TRANSLATORS IN THE CRYSTALLOGRAPHIC REFERENCE FRAME
   V INV                    ROTATION MATRICES                   TRANSLATORS
   1   1  1.00 -0.00  0.00  0.00  1.00  0.00 -0.00  0.00  1.00  0.00  0.00  0.00

 DIRECT LATTICE VECTORS CARTESIAN COMPONENTS (ANGSTROM)
          X                    Y                    Z
   0.130013421718E+02  -0.752240388864E+01   0.000000000000E+00
   0.000000000000E+00   0.150443870000E+02   0.000000000000E+00
   0.200314717898E+01   0.346205615784E+01   0.330023786106E+01


 CARTESIAN COORDINATES - PRIMITIVE CELL
 *******************************************************************************
 *      ATOM          X(ANGSTROM)         Y(ANGSTROM)         Z(ANGSTROM)
 *******************************************************************************
    1     5 B    -7.000680852924E+00  2.860586736102E+00 -1.648026414713E+00
    2     5 B    -4.936335554322E+00  4.058643463301E+00 -1.647993445337E+00
    3     5 B    -3.000267007141E+00 -2.868528830985E+00  4.947763233658E+00
    4     5 B     9.713976198674E-01  4.059451786233E+00 -1.632202368212E+00
    5     5 B     3.033079844340E+00  2.859054397722E+00 -1.618857064364E+00
    6     5 B     1.033476510585E+00  1.792099351706E+00 -4.938782197360E+00
    7     1 H    -3.245828454663E+00  1.913797437270E+00 -1.635161262471E+00
    8     1 H     1.285403318158E+00 -5.385925305981E+00  1.626827237805E+00
    9     1 H     7.613200061076E-01 -1.925458145819E+00  4.926608708969E+00
   10     1 H    -7.178555221259E-01  1.913667418550E+00 -1.636585018087E+00
   11     1 H    -5.273372466913E+00  1.595130519328E+00  1.664055703006E+00
   12     1 H     5.307904963557E+00 -1.587277178959E+00  1.632213754033E+00
   13     1 H     4.029349226497E+00 -3.761797878095E+00  1.636526504869E+00
   14     1 H    -3.997920240565E+00  3.771118772343E+00  1.657913102285E+00
   15     1 H    -5.278605375509E+00 -1.601242080091E+00  1.642788376187E+00
   16     1 H     3.284304339359E+00 -1.873429324671E+00 -1.630114241713E+00
   17     1 H     2.018441077256E+00  3.020620490461E-01 -1.631318366499E+00
   18     1 H    -2.004038709080E+00 -3.169560458727E-01  4.946106712266E+00
   19     6 C    -3.385372748313E+00  4.055351301891E+00 -1.648818438797E+00
   20     6 C    -2.676485034695E+00  2.845190330822E+00 -1.642990152730E+00
   21     6 C    -1.285118976219E+00  5.264724259060E+00 -1.664087418292E+00
   22     6 C     1.330311629606E+00 -2.856064752759E+00  4.937500979017E+00
   23     6 C    -1.284942973851E+00  2.845914513590E+00 -1.645114449836E+00
   24     6 C    -5.763527631227E-01  4.055794852864E+00 -1.652319463130E+00
   25     6 C     1.800075611210E+00  3.144495435291E+00 -4.944167327487E+00
   26     6 C    -5.792474980899E+00  2.554807346227E+00  1.657596048434E+00
   27     6 C     5.824751450051E+00 -2.548814569395E+00  1.640183465441E+00
   28     6 C     5.121140653175E+00 -3.750790736001E+00  1.643875210519E+00
   29     6 C    -5.089319438181E+00  3.755712503984E+00  1.652852451544E+00
   30     6 C    -5.774223288830E+00  4.979328841129E+00  1.647492238213E+00
   31     6 C     3.798030746905E+00  1.508704257877E+00 -1.650200545411E+00
   32     6 C     5.200215037545E+00  1.498607775442E+00 -1.652020494582E+00
   33     6 C     3.811182903571E+00 -9.176593055191E-01 -1.637092330651E+00
   34     6 C     3.110391661041E+00  2.858477434684E-01 -1.639098611251E+00
   35     6 C     5.899864443703E+00  2.954763773740E-01 -1.648923815392E+00
   36     6 C     5.213983669324E+00 -9.283135423276E-01 -1.644825580016E+00
   37     8 O     5.310072598275E+00 -3.467675583718E+00 -1.651425890726E+00
   38     8 O    -5.621983312675E+00  2.861937457209E+00 -1.641558443541E+00
   39     8 O    -1.620779559402E+00 -2.867187864627E+00  4.944001754554E+00
   40     8 O    -3.447763552299E-01  1.792546573195E+00 -4.941312258711E+00
   41     8 O     1.655252957888E+00  2.863420364544E+00 -1.616364031681E+00
   42     8 O     1.719947160592E+00  5.935668927631E-01 -4.933155291807E+00

 *******************************************************************************
 STARTING BASIS SET HANDLING 
 *******************************************************************************

 Loading internal basis set: SOLDEF2MSVP         

 Please cite in your publication:
 L. Dona', J. G. Brandenburg and B. Civalleri, J. Chem. Phys., 151, 121101 (2019
 )                                                                              
                                                                                
                    

 *******************************************************************************
 LOCAL ATOMIC FUNCTIONS BASIS SET
 *******************************************************************************
   ATOM   X(AU)   Y(AU)   Z(AU)  N. TYPE  EXPONENT  S COEF   P COEF   D/F/G COEF
 *******************************************************************************
   1 B  -13.229   5.406  -3.114
                                  1 S  
                                         2.410E+03 1.755E-03 0.000E+00 0.000E+00
                                         3.619E+02 1.344E-02 0.000E+00 0.000E+00
                                         8.231E+01 6.637E-02 0.000E+00 0.000E+00
                                         2.311E+01 2.303E-01 0.000E+00 0.000E+00
                                         7.252E+00 5.150E-01 0.000E+00 0.000E+00
                                  2 S  
                                         2.367E+00 1.000E+00 0.000E+00 0.000E+00
                                  3 S  
                                         5.533E-01 1.000E+00 0.000E+00 0.000E+00
                                  4 S  
                                         1.716E-01 1.000E+00 0.000E+00 0.000E+00
                           5-     7 P  
                                         6.002E+00 0.000E+00-3.555E-02 0.000E+00
                                         1.240E+00 0.000E+00-1.983E-01 0.000E+00
                                         3.367E-01 0.000E+00-5.048E-01 0.000E+00
                           8-    10 P  
                                         1.256E-01 0.000E+00 1.000E+00 0.000E+00
                          11-    15 D  
                                         8.880E-01 0.000E+00 0.000E+00 1.000E+00
   2 B   -9.328   7.670  -3.114
   3 B   -5.670  -5.421   9.350
   4 B    1.836   7.671  -3.084
   5 B    5.732   5.403  -3.059
   6 B    1.953   3.387  -9.333
   7 H   -6.134   3.617  -3.090
                                 91 S  
                                         1.874E+01 1.968E-02 0.000E+00 0.000E+00
                                         2.826E+00 1.380E-01 0.000E+00 0.000E+00
                                         6.401E-01 4.783E-01 0.000E+00 0.000E+00
                                 92 S  
                                         1.756E-01 1.000E+00 0.000E+00 0.000E+00
   8 H    2.429 -10.178   3.074
   9 H    1.439  -3.639   9.310
  10 H   -1.357   3.616  -3.093
  11 H   -9.965   3.014   3.145
  12 H   10.030  -3.000   3.084
  13 H    7.614  -7.109   3.093
  14 H   -7.555   7.126   3.133
  15 H   -9.975  -3.026   3.104
  16 H    6.206  -3.540  -3.080
  17 H    3.814   0.571  -3.083
  18 H   -3.787  -0.599   9.347
  19 C   -6.397   7.664  -3.116
                                115 S  
                                         3.624E+03 1.634E-03 0.000E+00 0.000E+00
                                         5.440E+02 1.252E-02 0.000E+00 0.000E+00
                                         1.237E+02 6.211E-02 0.000E+00 0.000E+00
                                         3.476E+01 2.182E-01 0.000E+00 0.000E+00
                                         1.093E+01 4.980E-01 0.000E+00 0.000E+00
                                116 S  
                                         3.574E+00 1.000E+00 0.000E+00 0.000E+00
                                117 S  
                                         7.742E-01 1.000E+00 0.000E+00 0.000E+00
                                118 S  
                                         2.330E-01 1.000E+00 0.000E+00 0.000E+00
                         119-   121 P  
                                         9.443E+00 0.000E+00 3.790E-02 0.000E+00
                                         2.002E+00 0.000E+00 2.082E-01 0.000E+00
                                         5.463E-01 0.000E+00 5.047E-01 0.000E+00
                         122-   124 P  
                                         1.820E-01 0.000E+00 1.000E+00 0.000E+00
                         125-   129 D  
                                         8.880E-01 0.000E+00 0.000E+00 1.000E+00
  20 C   -5.058   5.377  -3.105
  21 C   -2.429   9.949  -3.145
  22 C    2.514  -5.397   9.331
  23 C   -2.428   5.378  -3.109
  24 C   -1.089   7.664  -3.122
  25 C    3.402   5.942  -9.343
  26 C  -10.946   4.828   3.132
  27 C   11.007  -4.817   3.099
  28 C    9.678  -7.088   3.106
  29 C   -9.617   7.097   3.123
  30 C  -10.912   9.410   3.113
  31 C    7.177   2.851  -3.118
  32 C    9.827   2.832  -3.122
  33 C    7.202  -1.734  -3.094
  34 C    5.878   0.540  -3.097
  35 C   11.149   0.558  -3.116
  36 C    9.853  -1.754  -3.108
  37 O   10.035  -6.553  -3.121
                                385 S  
                                         6.773E+03 1.727E-03 0.000E+00 0.000E+00
                                         1.017E+03 1.325E-02 0.000E+00 0.000E+00
                                         2.313E+02 6.603E-02 0.000E+00 0.000E+00
                                         6.501E+01 2.353E-01 0.000E+00 0.000E+00
                                         2.050E+01 5.498E-01 0.000E+00 0.000E+00
                                386 S  
                                         6.716E+00 1.000E+00 0.000E+00 0.000E+00
                                387 S  
                                         1.147E+00 1.000E+00 0.000E+00 0.000E+00
                                388 S  
                                         3.342E-01 1.000E+00 0.000E+00 0.000E+00
                         389-   391 P  
                                         1.769E+01 0.000E+00 4.359E-02 0.000E+00
                                         3.854E+00 0.000E+00 2.318E-01 0.000E+00
                                         1.047E+00 0.000E+00 5.146E-01 0.000E+00
                         392-   394 P  
                                         2.759E-01 0.000E+00 1.000E+00 0.000E+00
                         395-   399 D  
                                         8.000E-01 0.000E+00 0.000E+00 1.000E+00
  38 O  -10.624   5.408  -3.102
  39 O   -3.063  -5.418   9.343
  40 O   -0.652   3.387  -9.338
  41 O    3.128   5.411  -3.054
  42 O    3.250   1.122  -9.322

 *******************************************************************************
 FINISHED BASIS SET HANDLING 
 *******************************************************************************

 INFORMATION **** SET_MPP **** PCRYSTAL CALCULATION
 INFORMATION **** READM2 **** NEW DEFAULT: FOCK/KS MATRIX MIXING SET TO 30 %
 INFORMATION **** READM2 **** NEW DEFAULT: FULL DIRECT SCF MODE
 INFORMATION **** READM2 **** NEW DEFAULT: COULOMB BIPOLAR BUFFER SET TO 32 Mb
 INFORMATION **** READM2 **** NEW DEFAULT: EXCHANGE BIPOLAR BUFFER SET TO 32 Mb

 *******************************************************************************
 NEW DEFAULT: DFT INTEGRATION GRID INCREASED TO XLGRID
 NEW DEFAULT: DIIS ACCELERATOR ACTIVE
 USE KEYWORD NODIIS TO TURN IT OFF
 *******************************************************************************

 WARNING **** RDDFTP **** HSEsol-HJS ACTIVE
 RANGE SEPARATION - OMEGA:   0.110000000000000     
 WARNING **** RDDFTP **** HSEsol-3c has to be combined with sol-def2-mSVP basis set
 *******************************************************************************
 N. OF ATOMS PER CELL        42  COULOMB OVERLAP TOL         (T1) 10**   -6
 NUMBER OF SHELLS           234  COULOMB PENETRATION TOL     (T2) 10**   -6
 NUMBER OF AO               474  EXCHANGE OVERLAP TOL        (T3) 10**   -6
 N. OF ELECTRONS PER CELL   198  EXCHANGE PSEUDO OVP (F(G))  (T4) 10**   -6
 CORE ELECTRONS PER CELL     60  EXCHANGE PSEUDO OVP (P(G))  (T5) 10**  -12
 N. OF SYMMETRY OPERATORS     1  POLE ORDER IN MONO ZONE                  4
 *******************************************************************************
 TYPE OF CALCULATION :  RESTRICTED CLOSED SHELL
 KOHN-SHAM HAMILTONIAN

 (EXCHANGE)[CORRELATION] FUNCTIONAL:(HSEsol GGA)[PBEsol]

 RANGE-SEPARATED HYBRID FUNCTIONAL 
 OMEGA (SHORT-RANGE)[LONG-RANGE]:(    0.1100)[    0.0000]

 HYBRID EXCHANGE - PERCENTAGE OF FOCK EXCHANGE    25.0000

 CAPPA:IS1  2;IS2  2;IS3  8; K PTS MONK NET  20; SYMMOPS:K SPACE   2;G SPACE   1

 *******************************************************************************
 MAX NUMBER OF SCF CYCLES      50  CONVERGENCE ON DELTAP        10**-16
 WEIGHT OF F(I) IN F(I+1)      30% CONVERGENCE ON ENERGY        10**- 6
 SHRINK. FACT.(MONKH.)    2  2  8  NUMBER OF K POINTS IN THE IBZ     20
 SHRINKING FACTOR(GILAT NET)    8  NUMBER OF K POINTS(GILAT NET)   1028
 *******************************************************************************
 *** K POINTS COORDINATES (OBLIQUE COORDINATES IN UNITS OF IS =  2)
   1-R(  0  0  0)   2-R(  1  0  0)   3-R(  0  1  0)   4-R(  1  1  0)
   5-C(  0  0  1)   6-C(  1  0  1)   7-C(  0  1  1)   8-C(  1  1  1)
   9-C(  0  0  2)  10-C(  1  0  2)  11-C(  0  1  2)  12-C(  1  1  2)
  13-C(  0  0  3)  14-C(  1  0  3)  15-C(  0  1  3)  16-C(  1  1  3)
  17-R(  0  0  4)  18-R(  1  0  4)  19-R(  0  1  4)  20-R(  1  1  4)

 DIRECT LATTICE VECTORS COMPON. (A.U.)     RECIP. LATTICE VECTORS COMPON. (A.U.) 
        X            Y            Z              X            Y            Z
   24.5689761  -14.2152832    0.0000000      0.2557366    0.0000000   -0.1552246
    0.0000000   28.4297713    0.0000000      0.1278719    0.2210072   -0.3094582
    3.7853996    6.5423380    6.2365457      0.0000000    0.0000000    1.0074784

 DISK SPACE FOR EIGENVECTORS (FTN 10)     7189632 REALS

 SYMMETRY ADAPTION OF THE BLOCH FUNCTIONS DISABLED
 TTTTTTTTTTTTTTTTTTTTTTTTTTTTTT gordsh1     TELAPSE        0.04 TCPU        0.04

 MATRIX SIZE: P(G)  371590, F(G)   74897, P(G) IRR  187100, F(G) IRR   75557
 MAX G-VECTOR INDEX FOR 1- AND 2-ELECTRON INTEGRALS  55

 TTTTTTTTTTTTTTTTTTTTTTTTTTTTTT INPUT       TELAPSE        0.38 TCPU        0.38

 NEIGHBORS OF THE NON-EQUIVALENT ATOMS

 N = NUMBER OF NEIGHBORS AT DISTANCE R
    ATOM  N     R/ANG      R/AU   NEIGHBORS (ATOM LABELS AND CELL INDICES)
   1 B    1     1.3787     2.6054   38 O    0 0 0
   1 B    1     1.3795     2.6068   37 O   -1 0 0
   1 B    1     1.5517     2.9323   30 C    0 0-1
   1 B    1     2.3868     4.5104    2 B    0 0 0
   1 B    1     2.3912     4.5187    3 B    0 1-2
   1 B    1     2.5629     4.8432   27 C   -1 0-1

   2 B    1     1.3792     2.6064   38 O    0 0 0
   2 B    1     1.3798     2.6075   39 O    0 1-2
   2 B    1     1.5510     2.9309   19 C    0 0 0
   2 B    1     2.3868     4.5104    1 B    0 0 0
   2 B    1     2.3894     4.5154    3 B    0 1-2
   2 B    1     2.5618     4.8411   22 C    0 1-2

   3 B    1     1.3790     2.6060   37 O   -1-1 2
   3 B    1     1.3795     2.6069   39 O    0 0 0
   3 B    1     1.5529     2.9346   36 C   -1-1 2
   3 B    1     2.3894     4.5154    2 B    0-1 2
   3 B    1     2.3912     4.5187    1 B    0-1 2
   3 B    1     2.5679     4.8526   35 C   -1-1 2

   4 B    1     1.3778     2.6037   41 O    0 0 0
   4 B    1     1.3785     2.6051   40 O    0 0 1
   4 B    1     1.5479     2.9251   24 C    0 0 0
   4 B    1     2.3857     4.5084    5 B    0 0 0
   4 B    1     2.3859     4.5087    6 B    0 0 1
   4 B    1     2.5584     4.8347   21 C    0 0 0

   5 B    1     1.3778     2.6037   41 O    0 0 0
   5 B    1     1.3813     2.6104   42 O    0 0 1
   5 B    1     1.5523     2.9334   31 C    0 0 0
   5 B    1     2.3857     4.5084    4 B    0 0 0
   5 B    1     2.3952     4.5262    6 B    0 0 1
   5 B    1     2.5590     4.8358   32 C    0 0 0

   6 B    1     1.3783     2.6045   40 O    0 0 0
   6 B    1     1.3812     2.6101   42 O    0 0 0
   6 B    1     1.5546     2.9377   25 C    0 0 0
   6 B    1     2.3859     4.5087    4 B    0 0-1
   6 B    1     2.3952     4.5262    5 B    0 0-1
   6 B    1     2.5605     4.8386   26 C    1 1-2

   7 H    1     1.0917     2.0629   20 C    0 0 0
   7 H    1     2.1461     4.0556   19 C    0 0 0
   7 H    1     2.1712     4.1029   23 C    0 0 0
   7 H    1     2.5280     4.7772   10 H    0 0 0
   7 H    1     2.5583     4.8346   38 O    0 0 0
   7 H    1     2.7310     5.1608    2 B    0 0 0

   8 H    1     1.0909     2.0615   21 C    0-1 1
   8 H    1     2.1454     4.0542   24 C    0-1 1
   8 H    1     2.1688     4.0985   22 C    0 0-1
   8 H    1     2.5272     4.7758    9 H    0 0-1
   8 H    1     2.5562     4.8304   40 O    0-1 2
   8 H    1     2.7242     5.1481    4 B    0-1 1

   9 H    1     1.0908     2.0614   22 C    0 0 0
   9 H    1     2.1442     4.0520   19 C    0-1 2
   9 H    1     2.1694     4.0995   21 C    0-1 2
   9 H    1     2.5272     4.7758    8 H    0 0 1
   9 H    1     2.5616     4.8406   39 O    0 0 0
   9 H    1     2.7248     5.1492    2 B    0-1 2

  10 H    1     1.0912     2.0621   23 C    0 0 0
  10 H    1     2.1469     4.0570   24 C    0 0 0
  10 H    1     2.1689     4.0986   20 C    0 0 0
  10 H    1     2.5280     4.7772    7 H    0 0 0
  10 H    1     2.5562     4.8305   41 O    0 0 0
  10 H    1     2.7309     5.1607    4 B    0 0 0

  11 H    1     1.0911     2.0619   26 C    0 0 0
  11 H    1     2.1443     4.0521   25 C   -1-1 2
  11 H    1     2.1684     4.0978   29 C    0 0 0
  11 H    1     2.5222     4.7664   14 H    0 0 0
  11 H    1     2.5622     4.8419   42 O   -1-1 2
  11 H    1     2.7179     5.1361    6 B   -1-1 2

  12 H    1     1.0917     2.0630   27 C    0 0 0
  12 H    1     2.1441     4.0518   30 C    1 0 0
  12 H    1     2.1716     4.1037   28 C    0 0 0
  12 H    1     2.5226     4.7669   13 H    0 0 0
  12 H    1     2.5541     4.8265   37 O    0 0 1
  12 H    1     2.7237     5.1470    1 B    1 0 1

  13 H    1     1.0919     2.0633   28 C    0 0 0
  13 H    1     2.1522     4.0671   25 C    0-1 2
  13 H    1     2.1668     4.0946   27 C    0 0 0
  13 H    1     2.5226     4.7669   12 H    0 0 0
  13 H    1     2.5923     4.8987   40 O    0-1 2
  13 H    1     2.7582     5.2123    6 B    0-1 2

  14 H    1     1.0915     2.0627   29 C    0 0 0
  14 H    1     2.1483     4.0597   30 C    0 0 0
  14 H    1     2.1679     4.0968   26 C    0 0 0
  14 H    1     2.5222     4.7664   11 H    0 0 0
  14 H    1     2.5809     4.8771   38 O    0 0 1
  14 H    1     2.7404     5.1785    1 B    0 0 1

  15 H    1     1.0916     2.0628   32 C   -1-1 1
  15 H    1     2.1436     4.0508   31 C   -1-1 1
  15 H    1     2.1707     4.1021   35 C   -1-1 1
  15 H    1     2.5217     4.7654   18 H    0 0-1
  15 H    1     2.5567     4.8315   42 O   -1-1 2
  15 H    1     2.7165     5.1334    5 B   -1-1 1

  16 H    1     1.0914     2.0624   33 C    0 0 0
  16 H    1     2.1487     4.0605   36 C    0 0 0
  16 H    1     2.1663     4.0937   34 C    0 0 0
  16 H    1     2.5170     4.7564   17 H    0 0 0
  16 H    1     2.5779     4.8716   37 O    0 0 0
  16 H    1     2.7395     5.1769    3 B    1 1-2

  17 H    1     1.0921     2.0638   34 C    0 0 0
  17 H    1     2.1502     4.0633   31 C    0 0 0
  17 H    1     2.1683     4.0976   33 C    0 0 0
  17 H    1     2.5170     4.7564   16 H    0 0 0
  17 H    1     2.5870     4.8888   41 O    0 0 0
  17 H    1     2.7510     5.1986    5 B    0 0 0

  18 H    1     1.0913     2.0622   35 C   -1-1 2
  18 H    1     2.1495     4.0619   36 C   -1-1 2
  18 H    1     2.1656     4.0923   32 C   -1-1 2
  18 H    1     2.5217     4.7654   15 H    0 0 1
  18 H    1     2.5789     4.8734   39 O    0 0 0
  18 H    1     2.7392     5.1763    3 B    0 0 0

  19 C    1     1.4017     2.6488   22 C    0 1-2
  19 C    1     1.4025     2.6504   20 C    0 0 0
  19 C    1     1.5510     2.9309    2 B    0 0 0
  19 C    1     2.1442     4.0520    9 H    0 1-2
  19 C    1     2.1461     4.0556    7 H    0 0 0
  19 C    1     2.4236     4.5800   21 C    0 0 0

  20 C    1     1.0917     2.0629    7 H    0 0 0
  20 C    1     1.3915     2.6296   23 C    0 0 0
  20 C    1     1.4025     2.6504   19 C    0 0 0
  20 C    1     2.1689     4.0986   10 H    0 0 0
  20 C    1     2.4191     4.5714   22 C    0 1-2
  20 C    1     2.4241     4.5809   24 C    0 0 0

  21 C    1     1.0909     2.0615    8 H    0 1-1
  21 C    1     1.3909     2.6284   22 C    0 1-2
  21 C    1     1.4014     2.6483   24 C    0 0 0
  21 C    1     2.1694     4.0995    9 H    0 1-2
  21 C    1     2.4189     4.5710   23 C    0 0 0
  21 C    1     2.4236     4.5800   19 C    0 0 0

  22 C    1     1.0908     2.0614    9 H    0 0 0
  22 C    1     1.3909     2.6284   21 C    0-1 2
  22 C    1     1.4017     2.6488   19 C    0-1 2
  22 C    1     2.1688     4.0985    8 H    0 0 1
  22 C    1     2.4191     4.5714   20 C    0-1 2
  22 C    1     2.4226     4.5780   24 C    0-1 2

  23 C    1     1.0912     2.0621   10 H    0 0 0
  23 C    1     1.3915     2.6296   20 C    0 0 0
  23 C    1     1.4021     2.6496   24 C    0 0 0
  23 C    1     2.1712     4.1029    7 H    0 0 0
  23 C    1     2.4189     4.5710   21 C    0 0 0
  23 C    1     2.4237     4.5802   19 C    0 0 0

  24 C    1     1.4014     2.6483   21 C    0 0 0
  24 C    1     1.4021     2.6496   23 C    0 0 0
  24 C    1     1.5479     2.9251    4 B    0 0 0
  24 C    1     2.1454     4.0542    8 H    0 1-1
  24 C    1     2.1469     4.0570   10 H    0 0 0
  24 C    1     2.4226     4.5780   22 C    0 1-2

  25 C    1     1.4025     2.6504   26 C    1 1-2
  25 C    1     1.4037     2.6526   28 C    0 1-2
  25 C    1     1.5546     2.9377    6 B    0 0 0
  25 C    1     2.1443     4.0521   11 H    1 1-2
  25 C    1     2.1522     4.0671   13 H    0 1-2
  25 C    1     2.4271     4.5865   27 C    0 1-2

  26 C    1     1.0911     2.0619   11 H    0 0 0
  26 C    1     1.3916     2.6298   29 C    0 0 0
  26 C    1     1.4025     2.6504   25 C   -1-1 2
  26 C    1     2.1679     4.0968   14 H    0 0 0
  26 C    1     2.4165     4.5665   28 C   -1 0 0
  26 C    1     2.4246     4.5819   30 C    0 0 0

  27 C    1     1.0917     2.0630   12 H    0 0 0
  27 C    1     1.3928     2.6320   28 C    0 0 0
  27 C    1     1.4024     2.6501   30 C    1 0 0
  27 C    1     2.1668     4.0946   13 H    0 0 0
  27 C    1     2.4166     4.5668   29 C    1 0 0
  27 C    1     2.4271     4.5865   25 C    0-1 2

  28 C    1     1.0919     2.0633   13 H    0 0 0
  28 C    1     1.3928     2.6320   27 C    0 0 0
  28 C    1     1.4037     2.6526   25 C    0-1 2
  28 C    1     2.1716     4.1037   12 H    0 0 0
  28 C    1     2.4165     4.5665   26 C    1 0 0
  28 C    1     2.4277     4.5877   30 C    1 0 0

  29 C    1     1.0915     2.0627   14 H    0 0 0
  29 C    1     1.3916     2.6298   26 C    0 0 0
  29 C    1     1.4023     2.6499   30 C    0 0 0
  29 C    1     2.1684     4.0978   11 H    0 0 0
  29 C    1     2.4166     4.5668   27 C   -1 0 0
  29 C    1     2.4281     4.5884   25 C   -1-1 2

  30 C    1     1.4023     2.6499   29 C    0 0 0
  30 C    1     1.4024     2.6501   27 C   -1 0 0
  30 C    1     1.5517     2.9323    1 B    0 0 1
  30 C    1     2.1441     4.0518   12 H   -1 0 0
  30 C    1     2.1483     4.0597   14 H    0 0 0
  30 C    1     2.4246     4.5819   26 C    0 0 0

  31 C    1     1.4022     2.6498   32 C    0 0 0
  31 C    1     1.4030     2.6512   34 C    0 0 0
  31 C    1     1.5523     2.9334    5 B    0 0 0
  31 C    1     2.1436     4.0508   15 H    1 1-1
  31 C    1     2.1502     4.0633   17 H    0 0 0
  31 C    1     2.4264     4.5853   33 C    0 0 0

  32 C    1     1.0916     2.0628   15 H    1 1-1
  32 C    1     1.3918     2.6301   35 C    0 0 0
  32 C    1     1.4022     2.6498   31 C    0 0 0
  32 C    1     2.1656     4.0923   18 H    1 1-2
  32 C    1     2.4163     4.5661   34 C    0 0 0
  32 C    1     2.4270     4.5863   36 C    0 0 0

  33 C    1     1.0914     2.0624   16 H    0 0 0
  33 C    1     1.3927     2.6318   34 C    0 0 0
  33 C    1     1.4029     2.6510   36 C    0 0 0
  33 C    1     2.1683     4.0976   17 H    0 0 0
  33 C    1     2.4155     4.5646   35 C    0 0 0
  33 C    1     2.4264     4.5853   31 C    0 0 0

  34 C    1     1.0921     2.0638   17 H    0 0 0
  34 C    1     1.3927     2.6318   33 C    0 0 0
  34 C    1     1.4030     2.6512   31 C    0 0 0
  34 C    1     2.1663     4.0937   16 H    0 0 0
  34 C    1     2.4163     4.5661   32 C    0 0 0
  34 C    1     2.4289     4.5899   36 C    0 0 0

  35 C    1     1.0913     2.0622   18 H    1 1-2
  35 C    1     1.3918     2.6301   32 C    0 0 0
  35 C    1     1.4029     2.6511   36 C    0 0 0
  35 C    1     2.1707     4.1021   15 H    1 1-1
  35 C    1     2.4155     4.5646   33 C    0 0 0
  35 C    1     2.4269     4.5861   31 C    0 0 0

  36 C    1     1.4029     2.6510   33 C    0 0 0
  36 C    1     1.4029     2.6511   35 C    0 0 0
  36 C    1     1.5529     2.9346    3 B    1 1-2
  36 C    1     2.1487     4.0605   16 H    0 0 0
  36 C    1     2.1495     4.0619   18 H    1 1-2
  36 C    1     2.4270     4.5863   32 C    0 0 0

  37 O    1     1.3790     2.6060    3 B    1 1-2
  37 O    1     1.3795     2.6068    1 B    1 0 0
  37 O    1     2.3868     4.5105   39 O    1 1-2
  37 O    1     2.3885     4.5136   38 O    1 0 0
  37 O    1     2.5389     4.7979   30 C    1 0-1
  37 O    1     2.5412     4.8021   36 C    0 0 0

  38 O    1     1.3787     2.6054    1 B    0 0 0
  38 O    1     1.3792     2.6064    2 B    0 0 0
  38 O    1     2.3885     4.5136   37 O   -1 0 0
  38 O    1     2.3912     4.5187   39 O    0 1-2
  38 O    1     2.5351     4.7906   19 C    0 0 0
  38 O    1     2.5405     4.8008   30 C    0 0-1

  39 O    1     1.3795     2.6069    3 B    0 0 0
  39 O    1     1.3798     2.6075    2 B    0-1 2
  39 O    1     2.3868     4.5105   37 O   -1-1 2
  39 O    1     2.3912     4.5187   38 O    0-1 2
  39 O    1     2.5416     4.8030   19 C    0-1 2
  39 O    1     2.5427     4.8050   36 C   -1-1 2

  40 O    1     1.3783     2.6045    6 B    0 0 0
  40 O    1     1.3785     2.6051    4 B    0 0-1
  40 O    1     2.3876     4.5119   42 O    0 0 0
  40 O    1     2.3913     4.5189   41 O    0 0-1
  40 O    1     2.5354     4.7912   25 C    0 0 0
  40 O    1     2.5360     4.7923   24 C    0 0-1

  41 O    1     1.3778     2.6037    4 B    0 0 0
  41 O    1     1.3778     2.6037    5 B    0 0 0
  41 O    1     2.3870     4.5107   42 O    0 0 1
  41 O    1     2.3913     4.5189   40 O    0 0 1
  41 O    1     2.5304     4.7818   24 C    0 0 0
  41 O    1     2.5353     4.7911   31 C    0 0 0

  42 O    1     1.3812     2.6101    6 B    0 0 0
  42 O    1     1.3813     2.6104    5 B    0 0-1
  42 O    1     2.3870     4.5107   41 O    0 0-1
  42 O    1     2.3876     4.5119   40 O    0 0 0
  42 O    1     2.5481     4.8152   31 C    0 0-1
  42 O    1     2.5522     4.8230   25 C    0 0 0


 SYMMETRY ALLOWED INTERNAL DEGREE(S) OF FREEDOM: 123
 TTTTTTTTTTTTTTTTTTTTTTTTTTTTTT SYMM        TELAPSE        0.38 TCPU        0.38
 TTTTTTTTTTTTTTTTTTTTTTTTTTTTTT INT_SCREEN  TELAPSE        0.42 TCPU        0.41

 DFT PARAMETERS

     ATOM       ELECTRONS   NET CHARGE   R(ANGSTROM)
   1   5  B       5.0000      0.0000     0.89000000
   7   1  H       1.0000      0.0000     1.11000000
  19   6  C       6.0000      0.0000     0.77000000
  37   8  O       8.0000      0.0000     0.74000000

 SIZE OF GRID=    1257651
 TTTTTTTTTTTTTTTTTTTTTTTTTTTTTT MAKE_GRID2  TELAPSE       11.17 TCPU       11.16
 BECKE WEIGHT FUNCTION
 RADSAFE =     2.00
 TOLERANCES - DENSITY:10**- 6; POTENTIAL:10**- 9; GRID WGT:10**-14

 RADIAL INTEGRATION  - INTERVALS (POINTS,UPPER LIMIT):            1( 75,  4.0*R)

 ANGULAR INTEGRATION - INTERVALS (ACCURACY LEVEL [N. POINTS] UPPER LIMIT):
  1(  4[  86]   0.2)  2(  8[ 194]   0.5)  3( 12[ 350]   0.9)  4( 16[ 974]   3.5)
  5( 12[ 350]9999.0)
 TTTTTTTTTTTTTTTTTTTTTTTTTTTTTT INT_CALC    TELAPSE       11.27 TCPU       11.25
 EEEEEEEEEE INT_CALC TERMINATION  DATE 02 12 2025 TIME 07:57:34.7

 *******************************************************************************
 COF-5_z33_inc_L040                                                              
 CRYSTAL - SCF - TYPE OF CALCULATION :  RESTRICTED CLOSED SHELL
 *******************************************************************************

 CAPPA:IS1  2;IS2  2;IS3  8; K PTS MONK NET  20; SYMMOPS:K SPACE   2;G SPACE   1

 TTTTTTTTTTTTTTTTTTTTTTTTTTTTTT SDIK        TELAPSE       11.90 TCPU       19.18

 AAAAAAAAAAAAAAAAAAAAAAAAAAAAAAAAAAAAAAAAAAAAAAAAAAAAAAAAAAAAAAAAAAAAAAAAAAAAAAA
         ATOMIC WAVEFUNCTION(S)


 NUCLEAR CHARGE  5.0  SYMMETRY SPECIES            S    P
 N. ELECTRONS    5.0  NUMBER OF PRIMITIVE GTOS    8    4
                      NUMBER OF CONTRACTED GTOS   4    2
                      NUMBER OF CLOSED SHELLS     2    0
                      OPEN SHELL OCCUPATION       0    1

  ZNUC  SCFIT    TOTAL HF ENERGY   KINETIC ENERGY   VIRIAL THEOREM ACCURACY
   5.0    11    -2.451164084E+01  2.462155050E+01 -1.995536038E+00  1.5E-06

 NUCLEAR CHARGE  1.0  SYMMETRY SPECIES            S
 N. ELECTRONS    1.0  NUMBER OF PRIMITIVE GTOS    4
                      NUMBER OF CONTRACTED GTOS   2
                      NUMBER OF CLOSED SHELLS     0
                      OPEN SHELL OCCUPATION       1

  ZNUC  SCFIT    TOTAL HF ENERGY   KINETIC ENERGY   VIRIAL THEOREM ACCURACY
   1.0     1    -4.977266687E-01  5.190767460E-01 -1.958869132E+00  0.0E+00

 NUCLEAR CHARGE  6.0  SYMMETRY SPECIES            S    P
 N. ELECTRONS    6.0  NUMBER OF PRIMITIVE GTOS    8    4
                      NUMBER OF CONTRACTED GTOS   4    2
                      NUMBER OF CLOSED SHELLS     2    0
                      OPEN SHELL OCCUPATION       0    2

  ZNUC  SCFIT    TOTAL HF ENERGY   KINETIC ENERGY   VIRIAL THEOREM ACCURACY
   6.0     9    -3.766704647E+01  3.775180683E+01 -1.997754800E+00  1.1E-06

 NUCLEAR CHARGE  8.0  SYMMETRY SPECIES            S    P
 N. ELECTRONS    8.0  NUMBER OF PRIMITIVE GTOS    8    4
                      NUMBER OF CONTRACTED GTOS   4    2
                      NUMBER OF CLOSED SHELLS     2    0
                      OPEN SHELL OCCUPATION       0    4

  ZNUC  SCFIT    TOTAL HF ENERGY   KINETIC ENERGY   VIRIAL THEOREM ACCURACY
   8.0    12    -7.477373220E+01  7.477365593E+01 -2.000001020E+00  3.8E-06

 AAAAAAAAAAAAAAAAAAAAAAAAAAAAAAAAAAAAAAAAAAAAAAAAAAAAAAAAAAAAAAAAAAAAAAAAAAAAAAA

 CHARGE NORMALIZATION FACTOR   1.00000000
 TOTAL ATOMIC CHARGES:
   5.0000000   5.0000000   5.0000000   5.0000000   5.0000000   5.0000000
   1.0000000   1.0000000   1.0000000   1.0000000   1.0000000   1.0000000
   1.0000000   1.0000000   1.0000000   1.0000000   1.0000000   1.0000000
   6.0000000   6.0000000   6.0000000   6.0000000   6.0000000   6.0000000
   6.0000000   6.0000000   6.0000000   6.0000000   6.0000000   6.0000000
   6.0000000   6.0000000   6.0000000   6.0000000   6.0000000   6.0000000
   8.0000000   8.0000000   8.0000000   8.0000000   8.0000000   8.0000000
 TTTTTTTTTTTTTTTTTTTTTTTTTTTTTT MOQGAD      TELAPSE       11.95 TCPU       20.79
 TTTTTTTTTTTTTTTTTTTTTTTTTTTTTT SHELLXN     TELAPSE       22.24 TCPU      349.14
 TTTTTTTTTTTTTTTTTTTTTTTTTTTTTT MONMO3      TELAPSE       22.41 TCPU      354.42
 NUMERICALLY INTEGRATED DENSITY    198.0000016331
 TTTTTTTTTTTTTTTTTTTTTTTTTTTTTT NUMDFT      TELAPSE       23.08 TCPU      375.87
 CYC   0 ETOT(AU) -1.295980237227E+03 DETOT -1.30E+03 tst  0.00E+00 PX  1.00E+00
 TTTTTTTTTTTTTTTTTTTTTTTTTTTTTT DIIS        TELAPSE       23.11 TCPU      377.05
 TTTTTTTTTTTTTTTTTTTTTTTTTTTTTT FDIK        TELAPSE       23.58 TCPU      391.76
 INSULATING STATE
 TOP OF VALENCE BANDS -    BAND     99; K   17; EIG -3.0802521E-01 AU
 TOP OF VALENCE BANDS -    BAND     99; K    1; EIG -3.1243335E-01 AU
 BOTTOM OF VIRTUAL BANDS - BAND    100; K   17; EIG -1.6832002E-01 AU
 DIRECT ENERGY BAND GAP:   3.8016 eV
 BOTTOM OF VIRTUAL BANDS - BAND    100; K    1; EIG -1.6325976E-01 AU
 TTTTTTTTTTTTTTTTTTTTTTTTTTTTTT PDIG        TELAPSE       23.90 TCPU      397.94
 CHARGE NORMALIZATION FACTOR   1.00000000
 TOTAL ATOMIC CHARGES:
   4.1387371   4.1551451   4.1563040   4.1578696   4.1552328   4.1376257
   0.7857964   0.7857928   0.7843006   0.7842789   0.7859775   0.7858293
   0.7869558   0.7864583   0.7855735   0.7861165   0.7844366   0.7846720
   6.0454529   6.2684518   6.2684068   6.2675102   6.2661636   6.0478434
   6.0466083   6.2621419   6.2610384   6.2627180   6.2631867   6.0497843
   6.0445698   6.2684076   6.2693673   6.2669479   6.2687008   6.0420168
   8.7012402   8.7004479   8.7005639   8.6999305   8.6990474   8.7023511
 TTTTTTTTTTTTTTTTTTTTTTTTTTTTTT MOQGAD      TELAPSE       23.95 TCPU      397.99
 TTTTTTTTTTTTTTTTTTTTTTTTTTTTTT SHELLXN     TELAPSE       34.64 TCPU      738.74
 TTTTTTTTTTTTTTTTTTTTTTTTTTTTTT MONMO3      TELAPSE       34.80 TCPU      744.01
 NUMERICALLY INTEGRATED DENSITY    198.0000082558
 TTTTTTTTTTTTTTTTTTTTTTTTTTTTTT NUMDFT      TELAPSE       35.48 TCPU      765.82
 CYC   1 ETOT(AU) -1.288832937313E+03 DETOT  7.15E+00 tst  0.00E+00 PX  1.00E+00
 TTTTTTTTTTTTTTTTTTTTTTTTTTTTTT DIIS        TELAPSE       35.53 TCPU      767.28
 DIIS TEST: 0.10796E+01 AT SCF   CYCLE   1 - MIX   30 %
 TTTTTTTTTTTTTTTTTTTTTTTTTTTTTT FDIK        TELAPSE       36.00 TCPU      782.27
 INSULATING STATE
 TOP OF VALENCE BANDS -    BAND     99; K   17; EIG -2.2043742E-01 AU
 TOP OF VALENCE BANDS -    BAND     99; K    1; EIG -2.3001558E-01 AU
 BOTTOM OF VIRTUAL BANDS - BAND    100; K   17; EIG -9.5114835E-02 AU
 DIRECT ENERGY BAND GAP:   3.4102 eV
 BOTTOM OF VIRTUAL BANDS - BAND    100; K    1; EIG -8.6811049E-02 AU
 TTTTTTTTTTTTTTTTTTTTTTTTTTTTTT PDIG        TELAPSE       36.32 TCPU      788.45
 CHARGE NORMALIZATION FACTOR   1.00000000
 TOTAL ATOMIC CHARGES:
   4.6450200   4.6889537   4.6895837   4.6902041   4.6900447   4.6448560
   0.9034740   0.9039333   0.9180133   0.9182660   0.8935412   0.8930269
   0.8943130   0.8944341   0.9030107   0.9035352   0.9179047   0.9178391
   5.8752692   6.1366783   6.1348762   6.1437668   6.1453974   5.8714592
   5.9163202   6.1473904   6.1511303   6.1527168   6.1520948   5.9110173
   5.8767784   6.1318789   6.1348441   6.1459112   6.1424103   5.8777480
   8.3341628   8.3326592   8.3547251   8.3312902   8.3518993   8.3376221
 TTTTTTTTTTTTTTTTTTTTTTTTTTTTTT MOQGAD      TELAPSE       36.38 TCPU      788.50
 TTTTTTTTTTTTTTTTTTTTTTTTTTTTTT SHELLXN     TELAPSE       47.07 TCPU     1129.27
 TTTTTTTTTTTTTTTTTTTTTTTTTTTTTT MONMO3      TELAPSE       47.23 TCPU     1134.55
 NUMERICALLY INTEGRATED DENSITY    198.0000060899
 TTTTTTTTTTTTTTTTTTTTTTTTTTTTTT NUMDFT      TELAPSE       47.91 TCPU     1156.35
 CYC   2 ETOT(AU) -1.289024149878E+03 DETOT -1.91E-01 tst  3.22E-03 PX  1.60E-01
 TTTTTTTTTTTTTTTTTTTTTTTTTTTTTT DIIS        TELAPSE       47.97 TCPU     1158.02
 DIIS TEST: 0.44287E+00 AT SCF   CYCLE   2 - DIIS ACTIVE - HISTORY:     2 CYCLES
 TTTTTTTTTTTTTTTTTTTTTTTTTTTTTT FDIK        TELAPSE       48.43 TCPU     1172.94
 INSULATING STATE
 TOP OF VALENCE BANDS -    BAND     99; K   17; EIG -2.3192312E-01 AU
 TOP OF VALENCE BANDS -    BAND     99; K    1; EIG -2.3976241E-01 AU
 BOTTOM OF VIRTUAL BANDS - BAND    100; K   17; EIG -9.0018446E-02 AU
 DIRECT ENERGY BAND GAP:   3.8614 eV
 BOTTOM OF VIRTUAL BANDS - BAND    100; K    1; EIG -8.3022734E-02 AU
 TTTTTTTTTTTTTTTTTTTTTTTTTTTTTT PDIG        TELAPSE       48.75 TCPU     1179.12
 CHARGE NORMALIZATION FACTOR   1.00000000
 TOTAL ATOMIC CHARGES:
   4.4483674   4.4890684   4.4896258   4.4906797   4.4890159   4.4478796
   0.8846609   0.8846317   0.8946087   0.8949532   0.8796529   0.8793904
   0.8812261   0.8806883   0.8835496   0.8846572   0.8950970   0.8943966
   5.8966338   6.1668750   6.1672297   6.1552761   6.1549287   5.8979954
   5.9198878   6.1634358   6.1647389   6.1664276   6.1669615   5.9203889
   5.8969772   6.1665692   6.1670263   6.1555696   6.1568254   5.8969391
   8.5228809   8.5223160   8.5187844   8.5217606   8.5164119   8.5250104
 TTTTTTTTTTTTTTTTTTTTTTTTTTTTTT MOQGAD      TELAPSE       48.80 TCPU     1179.17
 TTTTTTTTTTTTTTTTTTTTTTTTTTTTTT SHELLXN     TELAPSE       59.48 TCPU     1519.74
 TTTTTTTTTTTTTTTTTTTTTTTTTTTTTT MONMO3      TELAPSE       59.65 TCPU     1525.01
 NUMERICALLY INTEGRATED DENSITY    198.0000069759
 TTTTTTTTTTTTTTTTTTTTTTTTTTTTTT NUMDFT      TELAPSE       60.33 TCPU     1546.80
 CYC   3 ETOT(AU) -1.289115242040E+03 DETOT -9.11E-02 tst  6.44E-04 PX  6.76E-02
 TTTTTTTTTTTTTTTTTTTTTTTTTTTTTT DIIS        TELAPSE       60.39 TCPU     1548.63
 DIIS TEST: 0.15768E-01 AT SCF   CYCLE   3 - DIIS ACTIVE - HISTORY:     3 CYCLES
 TTTTTTTTTTTTTTTTTTTTTTTTTTTTTT FDIK        TELAPSE       60.85 TCPU     1563.50
 INSULATING STATE
 TOP OF VALENCE BANDS -    BAND     99; K   17; EIG -2.4169173E-01 AU
 TOP OF VALENCE BANDS -    BAND     99; K    1; EIG -2.5132910E-01 AU
 BOTTOM OF VIRTUAL BANDS - BAND    100; K   17; EIG -9.9318582E-02 AU
 DIRECT ENERGY BAND GAP:   3.8742 eV
 BOTTOM OF VIRTUAL BANDS - BAND    100; K    1; EIG -9.0826467E-02 AU
 TTTTTTTTTTTTTTTTTTTTTTTTTTTTTT PDIG        TELAPSE       61.18 TCPU     1569.68
 CHARGE NORMALIZATION FACTOR   1.00000000
 TOTAL ATOMIC CHARGES:
   4.4555100   4.4928120   4.4933306   4.4945278   4.4929043   4.4551156
   0.8680790   0.8684298   0.8769555   0.8773033   0.8594960   0.8592162
   0.8608962   0.8606234   0.8674915   0.8682248   0.8772750   0.8771707
   5.9428463   6.1687396   6.1672013   6.1713623   6.1714050   5.9412235
   5.9744993   6.1755208   6.1771608   6.1777913   6.1780640   5.9721297
   5.9436177   6.1661250   6.1681761   6.1723594   6.1703172   5.9424592
   8.4814282   8.4800858   8.4956345   8.4789943   8.4936043   8.4838926
 TTTTTTTTTTTTTTTTTTTTTTTTTTTTTT MOQGAD      TELAPSE       61.23 TCPU     1569.73
 TTTTTTTTTTTTTTTTTTTTTTTTTTTTTT SHELLXN     TELAPSE       71.91 TCPU     1910.43
 TTTTTTTTTTTTTTTTTTTTTTTTTTTTTT MONMO3      TELAPSE       72.08 TCPU     1915.72
 NUMERICALLY INTEGRATED DENSITY    198.0000067044
 TTTTTTTTTTTTTTTTTTTTTTTTTTTTTT NUMDFT      TELAPSE       72.76 TCPU     1937.56
 CYC   4 ETOT(AU) -1.289118662458E+03 DETOT -3.42E-03 tst  3.25E-05 PX  1.48E-02
 TTTTTTTTTTTTTTTTTTTTTTTTTTTTTT DIIS        TELAPSE       72.82 TCPU     1939.54
 DIIS TEST: 0.42132E-02 AT SCF   CYCLE   4 - DIIS ACTIVE - HISTORY:     4 CYCLES
 TTTTTTTTTTTTTTTTTTTTTTTTTTTTTT FDIK        TELAPSE       73.29 TCPU     1954.56
 INSULATING STATE
 TOP OF VALENCE BANDS -    BAND     99; K   17; EIG -2.4025888E-01 AU
 TOP OF VALENCE BANDS -    BAND     99; K    1; EIG -2.4927777E-01 AU
 BOTTOM OF VIRTUAL BANDS - BAND    100; K   17; EIG -9.8438775E-02 AU
 DIRECT ENERGY BAND GAP:   3.8591 eV
 BOTTOM OF VIRTUAL BANDS - BAND    100; K    1; EIG -9.0769304E-02 AU
 TTTTTTTTTTTTTTTTTTTTTTTTTTTTTT PDIG        TELAPSE       73.62 TCPU     1960.74
 CHARGE NORMALIZATION FACTOR   1.00000000
 TOTAL ATOMIC CHARGES:
   4.4549947   4.4962012   4.4968509   4.4978212   4.4964462   4.4545453
   0.8702196   0.8703140   0.8805497   0.8808422   0.8632459   0.8628943
   0.8646205   0.8642275   0.8693565   0.8703172   0.8809543   0.8804715
   5.9263270   6.1708959   6.1706643   6.1679851   6.1679239   5.9263960
   5.9541206   6.1740453   6.1761113   6.1770418   6.1774937   5.9534280
   5.9267766   6.1695308   6.1706179   6.1682622   6.1685249   5.9270576
   8.4943469   8.4933787   8.4986524   8.4926612   8.4962504   8.4966351
 TTTTTTTTTTTTTTTTTTTTTTTTTTTTTT MOQGAD      TELAPSE       73.67 TCPU     1960.80
 TTTTTTTTTTTTTTTTTTTTTTTTTTTTTT SHELLXN     TELAPSE       84.36 TCPU     2301.55
 TTTTTTTTTTTTTTTTTTTTTTTTTTTTTT MONMO3      TELAPSE       84.53 TCPU     2306.82
 NUMERICALLY INTEGRATED DENSITY    198.0000068235
 TTTTTTTTTTTTTTTTTTTTTTTTTTTTTT NUMDFT      TELAPSE       85.21 TCPU     2328.62
 CYC   5 ETOT(AU) -1.289119618538E+03 DETOT -9.56E-04 tst  6.33E-06 PX  6.76E-03
 TTTTTTTTTTTTTTTTTTTTTTTTTTTTTT DIIS        TELAPSE       85.28 TCPU     2330.87
 DIIS TEST: 0.63461E-04 AT SCF   CYCLE   5 - DIIS ACTIVE - HISTORY:     5 CYCLES
 TTTTTTTTTTTTTTTTTTTTTTTTTTTTTT FDIK        TELAPSE       85.75 TCPU     2345.87
 INSULATING STATE
 TOP OF VALENCE BANDS -    BAND     99; K   17; EIG -2.3998496E-01 AU
 TOP OF VALENCE BANDS -    BAND     99; K    1; EIG -2.4903694E-01 AU
 BOTTOM OF VIRTUAL BANDS - BAND    100; K   17; EIG -9.8062449E-02 AU
 DIRECT ENERGY BAND GAP:   3.8619 eV
 BOTTOM OF VIRTUAL BANDS - BAND    100; K    1; EIG -9.0315775E-02 AU
 TTTTTTTTTTTTTTTTTTTTTTTTTTTTTT PDIG        TELAPSE       86.07 TCPU     2352.05
 CHARGE NORMALIZATION FACTOR   1.00000000
 TOTAL ATOMIC CHARGES:
   4.4563760   4.4954096   4.4959485   4.4970637   4.4955673   4.4559724
   0.8712365   0.8714827   0.8813655   0.8817287   0.8642212   0.8639881
   0.8656547   0.8653167   0.8705183   0.8713462   0.8816816   0.8814770
   5.9264330   6.1702399   6.1690780   6.1673809   6.1674174   5.9257059
   5.9553249   6.1733456   6.1744315   6.1756755   6.1761239   5.9535024
   5.9273768   6.1681896   6.1697860   6.1685790   6.1669341   5.9258899
   8.4929558   8.4919350   8.5015634   8.4908627   8.4995347   8.4953793
 TTTTTTTTTTTTTTTTTTTTTTTTTTTTTT MOQGAD      TELAPSE       86.12 TCPU     2352.10
 TTTTTTTTTTTTTTTTTTTTTTTTTTTTTT SHELLXN     TELAPSE       96.81 TCPU     2692.76
 TTTTTTTTTTTTTTTTTTTTTTTTTTTTTT MONMO3      TELAPSE       96.97 TCPU     2698.03
 NUMERICALLY INTEGRATED DENSITY    198.0000067912
 TTTTTTTTTTTTTTTTTTTTTTTTTTTTTT NUMDFT      TELAPSE       97.66 TCPU     2719.83
 CYC   6 ETOT(AU) -1.289119632727E+03 DETOT -1.42E-05 tst  1.52E-07 PX  9.61E-04
 TTTTTTTTTTTTTTTTTTTTTTTTTTTTTT DIIS        TELAPSE       97.73 TCPU     2722.11
 DIIS TEST: 0.21057E-04 AT SCF   CYCLE   6 - DIIS ACTIVE - HISTORY:     6 CYCLES
 TTTTTTTTTTTTTTTTTTTTTTTTTTTTTT FDIK        TELAPSE       98.20 TCPU     2737.14
 INSULATING STATE
 TOP OF VALENCE BANDS -    BAND     99; K   17; EIG -2.4003156E-01 AU
 TOP OF VALENCE BANDS -    BAND     99; K    1; EIG -2.4905902E-01 AU
 BOTTOM OF VIRTUAL BANDS - BAND    100; K   17; EIG -9.8096520E-02 AU
 DIRECT ENERGY BAND GAP:   3.8623 eV
 BOTTOM OF VIRTUAL BANDS - BAND    100; K    1; EIG -9.0354616E-02 AU
 TTTTTTTTTTTTTTTTTTTTTTTTTTTTTT PDIG        TELAPSE       98.53 TCPU     2743.33
 CHARGE NORMALIZATION FACTOR   1.00000000
 TOTAL ATOMIC CHARGES:
   4.4557673   4.4958266   4.4964441   4.4974725   4.4960000   4.4553210
   0.8712166   0.8713690   0.8813029   0.8816195   0.8641626   0.8638187
   0.8655473   0.8651835   0.8704060   0.8713217   0.8817034   0.8812775
   5.9263388   6.1701267   6.1696475   6.1673725   6.1672211   5.9260364
   5.9544762   6.1731447   6.1751828   6.1761081   6.1764039   5.9535556
   5.9266954   6.1685331   6.1698585   6.1677306   6.1676493   5.9268144
   8.4937010   8.4926253   8.4997395   8.4918800   8.4974130   8.4959855
 TTTTTTTTTTTTTTTTTTTTTTTTTTTTTT MOQGAD      TELAPSE       98.58 TCPU     2743.38
 TTTTTTTTTTTTTTTTTTTTTTTTTTTTTT SHELLXN     TELAPSE      109.26 TCPU     3084.05
 TTTTTTTTTTTTTTTTTTTTTTTTTTTTTT MONMO3      TELAPSE      109.43 TCPU     3089.33
 NUMERICALLY INTEGRATED DENSITY    198.0000068097
 TTTTTTTTTTTTTTTTTTTTTTTTTTTTTT NUMDFT      TELAPSE      110.11 TCPU     3111.12
 CYC   7 ETOT(AU) -1.289119636975E+03 DETOT -4.25E-06 tst  5.09E-08 PX  7.95E-04
 TTTTTTTTTTTTTTTTTTTTTTTTTTTTTT DIIS        TELAPSE      110.19 TCPU     3113.80
 DIIS TEST: 0.99938E-06 AT SCF   CYCLE   7 - DIIS ACTIVE - HISTORY:     7 CYCLES
 TTTTTTTTTTTTTTTTTTTTTTTTTTTTTT FDIK        TELAPSE      110.67 TCPU     3128.87
 INSULATING STATE
 TOP OF VALENCE BANDS -    BAND     99; K   17; EIG -2.4002902E-01 AU
 TOP OF VALENCE BANDS -    BAND     99; K    1; EIG -2.4906845E-01 AU
 BOTTOM OF VIRTUAL BANDS - BAND    100; K   17; EIG -9.8107545E-02 AU
 DIRECT ENERGY BAND GAP:   3.8619 eV
 BOTTOM OF VIRTUAL BANDS - BAND    100; K    1; EIG -9.0374608E-02 AU
 TTTTTTTTTTTTTTTTTTTTTTTTTTTTTT PDIG        TELAPSE      110.99 TCPU     3135.05
 CHARGE NORMALIZATION FACTOR   1.00000000
 TOTAL ATOMIC CHARGES:
   4.4557703   4.4958832   4.4964741   4.4975221   4.4960719   4.4553456
   0.8711775   0.8713471   0.8812929   0.8816151   0.8640891   0.8638092
   0.8655121   0.8651340   0.8703829   0.8712822   0.8816525   0.8813103
   5.9262552   6.1701733   6.1694655   6.1673309   6.1673963   5.9260000
   5.9546552   6.1734641   6.1749279   6.1760202   6.1765525   5.9533541
   5.9270711   6.1684868   6.1697722   6.1681321   6.1673813   5.9263206
   8.4935958   8.4926428   8.4999169   8.4917154   8.4977128   8.4959849
 TTTTTTTTTTTTTTTTTTTTTTTTTTTTTT MOQGAD      TELAPSE      111.04 TCPU     3135.11
 TTTTTTTTTTTTTTTTTTTTTTTTTTTTTT SHELLXN     TELAPSE      121.74 TCPU     3475.93
 TTTTTTTTTTTTTTTTTTTTTTTTTTTTTT MONMO3      TELAPSE      121.91 TCPU     3481.20
 NUMERICALLY INTEGRATED DENSITY    198.0000068064
 TTTTTTTTTTTTTTTTTTTTTTTTTTTTTT NUMDFT      TELAPSE      122.59 TCPU     3503.05
 CYC   8 ETOT(AU) -1.289119636917E+03 DETOT  5.80E-08 tst  7.31E-09 PX  1.23E-04
 TTTTTTTTTTTTTTTTTTTTTTTTTTTTTT DIIS        TELAPSE      122.67 TCPU     3505.66
 DIIS TEST: 0.25144E-06 AT SCF   CYCLE   8 - DIIS ACTIVE - HISTORY:     8 CYCLES
 TTTTTTTTTTTTTTTTTTTTTTTTTTTTTT FDIK        TELAPSE      123.20 TCPU     3522.17
 INSULATING STATE
 TOP OF VALENCE BANDS -    BAND     99; K   17; EIG -2.4003040E-01 AU
 TOP OF VALENCE BANDS -    BAND     99; K    1; EIG -2.4906860E-01 AU
 BOTTOM OF VIRTUAL BANDS - BAND    100; K   17; EIG -9.8107573E-02 AU
 DIRECT ENERGY BAND GAP:   3.8619 eV
 BOTTOM OF VIRTUAL BANDS - BAND    100; K    1; EIG -9.0373525E-02 AU
 TTTTTTTTTTTTTTTTTTTTTTTTTTTTTT PDIG        TELAPSE      123.52 TCPU     3528.16
 CHARGE NORMALIZATION FACTOR   1.00000000
 TOTAL ATOMIC CHARGES:
   4.4558071   4.4958544   4.4964543   4.4974959   4.4960345   4.4553726
   0.8711719   0.8713398   0.8812900   0.8816169   0.8641127   0.8637965
   0.8655099   0.8651481   0.8703763   0.8712757   0.8816690   0.8812936
   5.9263132   6.1701482   6.1695311   6.1674003   6.1673031   5.9259517
   5.9546092   6.1732698   6.1750672   6.1760729   6.1764345   5.9534919
   5.9268399   6.1684702   6.1698332   6.1679668   6.1675185   5.9265590
   8.4936075   8.4925644   8.5000119   8.4917374   8.4977506   8.4959284
 TTTTTTTTTTTTTTTTTTTTTTTTTTTTTT MOQGAD      TELAPSE      123.57 TCPU     3528.21
 TTTTTTTTTTTTTTTTTTTTTTTTTTTTTT SHELLXN     TELAPSE      134.26 TCPU     3868.92
 +++ ENERGIES IN A.U. +++
 ::: EXT EL-POLE                                  -1.5787787768538E+03
 ::: EXT EL-SPHEROPOLE                             1.7375615701819E+01
 ::: BIELET ZONE E-E                               2.3209596899890E+03
 ::: TOTAL E-E                                     7.5955652883710E+02
 ::: TOTAL E-N + N-E                              -3.3426386401101E+03
 ::: TOTAL N-N                                     1.4774904487950E+02
 ::: KINETIC ENERGY                                1.2799368608350E+03
 ::: PSEUDO TOTAL   ENERGY                        -1.1553962055584E+03
 ::: VIRIAL COEFFICIENT                            1.0511390647116E+00
 TTTTTTTTTTTTTTTTTTTTTTTTTTTTTT MONMO3      TELAPSE      134.42 TCPU     3874.19
 NUMERICALLY INTEGRATED DENSITY    198.0000068056
 EXCHANGE ENERGY: -0.126019847121E+03  CORRELATION ENERGY: -0.770358429561E+01
 TTTTTTTTTTTTTTTTTTTTTTTTTTTTTT NUMDFT      TELAPSE      135.10 TCPU     3895.99
 CYC   9 ETOT(AU) -1.289119636975E+03 DETOT -5.83E-08 tst  1.87E-09 PX  1.23E-04

 == SCF ENDED - CONVERGENCE ON ENERGY      E(AU) -1.2891196369748E+03 CYCLES   9


 ENERGY EXPRESSION=HARTREE+FOCK EXCH*0.00000+(HSESOL     EXCH)*1.00000+PBESOL     CORR


 TOTAL ENERGY(DFT)(AU)(  9) -1.2891196369748E+03 DE-5.8E-08 tester 1.9E-09
 TTTTTTTTTTTTTTTTTTTTTTTTTTTTTT EDFT        TELAPSE      135.10 TCPU     3896.00
 
 INFORMATION **** DFTD3 ENERGY **** CALCULATE DFTD3 ENERGY

           DFT-D V3(BJ)
 DF                                         hsesol3c  
 parameters
 s6       :    1.0000
 s8       :    0.0000
 a1       :    0.5196
 a2       :    4.9385
 k1 k3    :   16.0000   -4.0000
 Cutoff   :   50.2022
 CN-Cutoff:   21.1671
 ABC-Cutoff:   21.1671
 
 Edisp /kcal,au:   -29.6876 -0.04731013

 E6    /kcal :   -31.6319
 E8    /kcal :     0.0000
 E6(ABC) "   :   1.944310
 
 INFORMATION **** DFTD3 ENERGY **** NORMAL TERMINATION OF DFTD3 MODULE

 GCP ENERGY CALCULATION
  level        hsesol3c            basis:hsesol3c
  Nbf            474
  Atoms           42

  Parameters: 
  sigma     1.0000
  eta       1.4281
  alpha     0.2936
  beta      1.9467

  dmp_scal      4.0000
  dmp_exp       6.0000
 cutoffs: 
   distance [bohr] 60.0
   noise    [a.u.] 2.2E-16
 SR-damping   T
 ** gCP correction **
  Egcp:        0.0841399572 / (a.u.) ||      52.7986 / (kcal/mol)
 INFORMATION **** GCP **** NORMAL TERMINATION OF GCP MODULE

 *******************************************************************************

 DFT-D3-GCP DISPERSION AND COUNTERPOISE CORRECTION

 D3 DISPERSION ENERGY (AU)      -4.7310127594884E-02
 GCP ENERGY (AU)                 8.4139957165138E-02
 TOTAL ENERGY + DISP + GCP (AU) -1.2890828071452E+03

 *******************************************************************************

 EIGENVECTORS IN FORTRAN UNIT 10
 TTTTTTTTTTTTTTTTTTTTTTTTTTTTTT END         TELAPSE      136.84 TCPU     3903.70
 EEEEEEEEEE TERMINATION  DATE 02 12 2025 TIME 07:59:40.3
