 Default number of threads is:           32

         
 *******************************************************************************
 *                                                                             *
 *                               CRYSTAL23                                     *
 *                      public : 1.0.1 - October 2022                          *
 *                       HTTP://WWW.CRYSTAL.UNITO.IT                           *
 *                                                                             *
 *                              MAIN AUTHORS                                   *
 *                                                                             *
 *  R. DOVESI(1,11), V.R. SAUNDERS(2), C. ROETTI(1,11), R. ORLANDO(1,11),      *
 *  C.M. ZICOVICH-WILSON(1,3), F. PASCALE(4), B. CIVALLERI(1,11),              *
 *  K. DOLL(5), N.M. HARRISON(6), I.J. BUSH(7), Ph. D'ARCO(8),                 *
 *  M. LLUNELL(9), M. CAUSA'(10), Y. NOEL(8), L. MASCHIO(1,11), A. ERBA(1,11)  *
 *  M. RE'RAT(14), S. CASASSA(1,11), B.G. SEARLE(2), J.K. DESMARAIS(1)         *
 *                                                                             *
 *        CONTRIBUTIONS TO THE CODE HAVE ALSO BEEN GIVEN BY                    *
 *                                                                             *
 *  M. FERRABONE(1,11), M. DE LA PIERRE(1,11), M. FERRERO(1,11),               *
 *  J. BAIMA(1,11), E. ALBANESE(1,11), M.F. PEINTINGER(12), R. BAST(13),       *
 *  B. KIRTMAN(15), V. LACIVITA(1,11), R. DEMICHELIS(1,16)                     *
 *  G. BRANDEBURG(17), S. SALUSTRO(1,11), G. SANSONE(1,11)                     *
 *  M.T. RUGGIERO(18), L.E. DAGA(1), L. DONA'(1), A. COSSARD(1)                *
 *                                                                             *
 * (1) THEORETICAL CHEMISTRY GROUP - UNIVERSITA' DI TORINO - TORINO (ITALY)    *
 * (2) SCIENTIFIC COMPUTING DEPARTMENT - STFC DARESBURY (UK)                   *
 * (3) UNIVERSIDAD AUTONOMA DEL ESTADO DE MORELOS - CUERNAVACA (MEXICO)        *
 * (4) UNIVERSITE' DE LORRAINE - NANCY (FRANCE)                                *
 * (5) UNIVERSITAET STUTTGART- STUTTGART (GERMANY)                             *
 * (6) IMPERIAL COLLEGE - LONDON (UK)                                          *
 * (7) SCIENTIFIC COMPUTING DEPARTMENT - STFC RAL (UK)                         *
 * (8) UPMC - SORBONNE UNIVERSITES - PARIS (FRANCE)                            *
 * (9) UNIVERSIDAD DE BARCELONA - BARCELONA (SPAIN)                            *
 *(10) UNIVERSITA' DI NAPOLI "FEDERICO II" - NAPOLI (ITALY)                    *
 *(11) NIS - NANOSTRUCTURED INTERFACES AND SURFACES - TORINO (ITALY)           *
 *(12) MPI FUER CHEMISCHE ENERGIEKONVERSION - MUELHEIM AN DER RUHR (GERMANY)   *
 *(13) UNIVERSITY OF TROMSO - TROMSO (NORWAY)                                  *
 *(14) UNIVERSITE' DE PAU ET DES PAYS DE L'ADOUR - PAU (FRANCE)                *
 *(15) UNIVERSITY OF CALIFORNIA SANTA BARBARA - SANTA BARBARA (USA)            *
 *(16) CURTIN UNIVERSITY - PERTH (AUSTRALIA)                                   *
 *(17) UNIVERSITY COLLEGE LONDON - LONDON (UK)                                 *
 *(18) UNIVERSITY OF VERMONT - BURLINGTON (USA)                                *
 *                                                                             *
 *******************************************************************************
 EEEEEEEEEE STARTING  DATE 19 02 2026 TIME 20:19:56.3
 cof-1_z38_L030_serr                                                             

 CRYSTAL CALCULATION
 (INPUT ACCORDING TO THE INTERNATIONAL TABLES FOR X-RAY CRYSTALLOGRAPHY)
 CRYSTAL FAMILY                       :  TRICLINIC   
 CRYSTAL CLASS  (GROTH - 1921)        :  TRICLINIC PEDIAL                     

 SPACE GROUP (NONCENTROSYMMETRIC)     :  P 1             

 LATTICE PARAMETERS  (ANGSTROMS AND DEGREES) - CONVENTIONAL CELL
        A           B           C        ALPHA        BETA       GAMMA
    15.02361    15.02392     7.60000    90.00032    89.99994   119.99596


 NUMBER OF IRREDUCIBLE ATOMS IN THE CONVENTIONAL CELL:   84

 INPUT COORDINATES

 ATOM AT. N.              COORDINATES
   1   5     6.136805400000E-01  2.273182200000E-01  2.506285100000E-01
   2   5     7.289503700000E-01  4.578813200000E-01  7.506285100000E-01
   3   5     7.727362000000E-01  3.863778800000E-01  2.506285200000E-01
   4   5     8.880060300000E-01  6.169409800000E-01  7.506285200000E-01
   5   5     6.136762700000E-01  3.863606700000E-01  2.493070500000E-01
   6   5     7.289461000000E-01  6.169237700000E-01  7.493070500000E-01
   7   5     2.272552500000E-01  6.136332200000E-01  2.506285200000E-01
   8   5     3.425250800000E-01  8.441963200000E-01  7.506285200000E-01
   9   5     3.863632200000E-01  6.136124500000E-01  2.506285200000E-01
  10   5     5.016330500000E-01  8.441755500000E-01  7.506285200000E-01
  11   5     3.863435000000E-01  7.727516500000E-01  2.493070500000E-01
  12   5     5.016133300000E-01  3.314750000000E-03  7.493070500000E-01
  13   1     9.030436200000E-01  3.089300500000E-01  2.478888400000E-01
  14   1     1.831345000000E-02  5.394931500000E-01  7.478888400000E-01
  15   1     9.663453000000E-02  6.910534400000E-01  2.474699000000E-01
  16   1     2.119043600000E-01  9.216165400000E-01  7.474699000000E-01
  17   1     9.029714200000E-01  5.940724300000E-01  2.474054200000E-01
  18   1     1.824125000000E-02  8.246355300000E-01  7.474054200000E-01
  19   1     9.673618000000E-02  4.056849400000E-01  2.474215000000E-01
  20   1     2.120060100000E-01  6.362480400000E-01  7.474215000000E-01
  21   1     6.910324000000E-01  9.700412000000E-02  2.521111700000E-01
  22   1     8.063022300000E-01  3.275672200000E-01  7.521111800000E-01
  23   1     3.089297200000E-01  9.034373100000E-01  2.525301400000E-01
  24   1     4.241995500000E-01  1.340004100000E-01  7.525301400000E-01
  25   1     4.058699900000E-01  9.704998000000E-02  2.525946600000E-01
  26   1     5.211398200000E-01  3.276130800000E-01  7.525946600000E-01
  27   1     5.943122100000E-01  9.033473200000E-01  2.525784700000E-01
  28   1     7.095820400000E-01  1.339104200000E-01  7.525784700000E-01
  29   1     6.910727400000E-01  5.940542100000E-01  2.478888700000E-01
  30   1     8.063425700000E-01  8.246173100000E-01  7.478888700000E-01
  31   1     3.089618300000E-01  4.056093300000E-01  2.474698700000E-01
  32   1     4.242316600000E-01  6.361724300000E-01  7.474698700000E-01
  33   1     4.058405700000E-01  3.088232500000E-01  2.474053700000E-01
  34   1     5.211104000000E-01  5.393863500000E-01  7.474053700000E-01
  35   1     5.942908800000E-01  6.909579300000E-01  2.474215500000E-01
  36   1     7.095607100000E-01  9.215210300000E-01  7.474215500000E-01
  37   6     8.918903100000E-01  4.459436900000E-01  2.492587000000E-01
  38   6     7.160140000000E-03  6.765067900000E-01  7.492587000000E-01
  39   6     9.464891100000E-01  3.927856300000E-01  2.479533100000E-01
  40   6     6.175894000000E-02  6.233487300000E-01  7.479533100000E-01
  41   6     5.338812000000E-02  6.071853000000E-01  2.478405500000E-01
  42   6     1.686579500000E-01  8.377484000000E-01  7.478405500000E-01
  43   6     9.464521100000E-01  5.536921900000E-01  2.481789700000E-01
  44   6     6.172194000000E-02  7.842552900000E-01  7.481789700000E-01
  45   6     5.342634000000E-02  4.462499700000E-01  2.473086900000E-01
  46   6     1.686961700000E-01  6.768130700000E-01  7.473086900000E-01
  47   6     1.080358900000E-01  5.540356300000E-01  2.481950700000E-01
  48   6     2.233057200000E-01  7.845987300000E-01  7.481950700000E-01
  49   6     5.540394200000E-01  1.081684600000E-01  2.507413400000E-01
  50   6     6.693092500000E-01  3.387315600000E-01  7.507413300000E-01
  51   6     6.071778500000E-01  5.355594000000E-02  2.520466900000E-01
  52   6     7.224476800000E-01  2.841190400000E-01  7.520466900000E-01
  53   6     3.927986700000E-01  9.466631600000E-01  2.521595100000E-01
  54   6     5.080685000000E-01  1.772262600000E-01  7.521595000000E-01
  55   6     4.462875800000E-01  5.360286000000E-02  2.518210900000E-01
  56   6     5.615574100000E-01  2.841659600000E-01  7.518210900000E-01
  57   6     5.537168500000E-01  9.466235600000E-01  2.526913000000E-01
  58   6     6.689866800000E-01  1.771866600000E-01  7.526913000000E-01
  59   6     4.459279100000E-01  8.919920600000E-01  2.518049500000E-01
  60   6     5.611977400000E-01  1.225551600000E-01  7.518049500000E-01
  61   6     5.540448700000E-01  4.458745500000E-01  2.492586900000E-01
  62   6     6.693147000000E-01  6.764376500000E-01  7.492586900000E-01
  63   6     6.072102200000E-01  5.536257800000E-01  2.479533400000E-01
  64   6     7.224800500000E-01  7.841888800000E-01  7.479533400000E-01
  65   6     3.928233700000E-01  4.461720300000E-01  2.478405200000E-01
  66   6     5.080932000000E-01  6.767351300000E-01  7.478405200000E-01
  67   6     4.462872600000E-01  3.926899900000E-01  2.481789300000E-01
  68   6     5.615570900000E-01  6.232530900000E-01  7.481789300000E-01
  69   6     5.537429600000E-01  6.070980000000E-01  2.473087300000E-01
  70   6     6.690127900000E-01  8.376611000000E-01  7.473087300000E-01
  71   6     4.459599800000E-01  5.539582300000E-01  2.481950700000E-01
  72   6     5.612298100000E-01  7.845213300000E-01  7.481950700000E-01
  73   8     5.607366800000E-01  2.803706300000E-01  2.496615800000E-01
  74   8     6.760065100000E-01  5.109337300000E-01  7.496615800000E-01
  75   8     7.196817000000E-01  2.803783300000E-01  2.524495700000E-01
  76   8     8.349515300000E-01  5.109414300000E-01  7.524495700000E-01
  77   8     7.196794200000E-01  4.393234600000E-01  2.482434300000E-01
  78   8     8.349492500000E-01  6.698865600000E-01  7.482434300000E-01
  79   8     2.803245100000E-01  7.196511100000E-01  2.496616000000E-01
  80   8     3.955943400000E-01  9.502142100000E-01  7.496616000000E-01
  81   8     2.803439700000E-01  5.606956100000E-01  2.524495700000E-01
  82   8     3.956138000000E-01  7.912587100000E-01  7.524495700000E-01
  83   8     4.392638400000E-01  7.196354200000E-01  2.482434200000E-01
  84   8     5.545336700000E-01  9.501985200000E-01  7.482434200000E-01

 *******************************************************************************

 << INFORMATION >>: FROM NOW ON, ALL COORDINATES REFER TO THE PRIMITIVE CELL

 *******************************************************************************

 LATTICE PARAMETERS  (ANGSTROMS AND DEGREES) - PRIMITIVE CELL
       A          B          C        ALPHA      BETA     GAMMA        VOLUME
   15.02361   15.02392    7.60000    90.00032  89.99994 119.99596   1485.659765

 COORDINATES OF THE EQUIVALENT ATOMS (FRACTIONAL UNITS)

 N. ATOM EQUIV AT. N.          X                  Y                  Z

   1   1   1    5 B    -3.86319460000E-01  2.27318220000E-01  2.50628510000E-01

   2   2   1    5 B    -2.71049630000E-01  4.57881320000E-01 -2.49371490000E-01

   3   3   1    5 B    -2.27263800000E-01  3.86377880000E-01  2.50628520000E-01

   4   4   1    5 B    -1.11993970000E-01 -3.83059020000E-01 -2.49371480000E-01

   5   5   1    5 B    -3.86323730000E-01  3.86360670000E-01  2.49307050000E-01

   6   6   1    5 B    -2.71053900000E-01 -3.83076230000E-01 -2.50692950000E-01

   7   7   1    5 B     2.27255250000E-01 -3.86366780000E-01  2.50628520000E-01

   8   8   1    5 B     3.42525080000E-01 -1.55803680000E-01 -2.49371480000E-01

   9   9   1    5 B     3.86363220000E-01 -3.86387550000E-01  2.50628520000E-01

  10  10   1    5 B    -4.98366950000E-01 -1.55824450000E-01 -2.49371480000E-01

  11  11   1    5 B     3.86343500000E-01 -2.27248350000E-01  2.49307050000E-01

  12  12   1    5 B    -4.98386670000E-01  3.31475000000E-03 -2.50692950000E-01

  13  13   1    1 H    -9.69563800000E-02  3.08930050000E-01  2.47888840000E-01

  14  14   1    1 H     1.83134500000E-02 -4.60506850000E-01 -2.52111160000E-01

  15  15   1    1 H     9.66345300000E-02 -3.08946560000E-01  2.47469900000E-01

  16  16   1    1 H     2.11904360000E-01 -7.83834600000E-02 -2.52530100000E-01

  17  17   1    1 H    -9.70285800000E-02 -4.05927570000E-01  2.47405420000E-01

  18  18   1    1 H     1.82412500000E-02 -1.75364470000E-01 -2.52594580000E-01

  19  19   1    1 H     9.67361800000E-02  4.05684940000E-01  2.47421500000E-01

  20  20   1    1 H     2.12006010000E-01 -3.63751960000E-01 -2.52578500000E-01

  21  21   1    1 H    -3.08967600000E-01  9.70041200000E-02  2.52111170000E-01

  22  22   1    1 H    -1.93697770000E-01  3.27567220000E-01 -2.47888820000E-01

  23  23   1    1 H     3.08929720000E-01 -9.65626900000E-02  2.52530140000E-01

  24  24   1    1 H     4.24199550000E-01  1.34000410000E-01 -2.47469860000E-01

  25  25   1    1 H     4.05869990000E-01  9.70499800000E-02  2.52594660000E-01

  26  26   1    1 H    -4.78860180000E-01  3.27613080000E-01 -2.47405340000E-01

  27  27   1    1 H    -4.05687790000E-01 -9.66526800000E-02  2.52578470000E-01

  28  28   1    1 H    -2.90417960000E-01  1.33910420000E-01 -2.47421530000E-01

  29  29   1    1 H    -3.08927260000E-01 -4.05945790000E-01  2.47888870000E-01

  30  30   1    1 H    -1.93657430000E-01 -1.75382690000E-01 -2.52111130000E-01

  31  31   1    1 H     3.08961830000E-01  4.05609330000E-01  2.47469870000E-01

  32  32   1    1 H     4.24231660000E-01 -3.63827570000E-01 -2.52530130000E-01

  33  33   1    1 H     4.05840570000E-01  3.08823250000E-01  2.47405370000E-01

  34  34   1    1 H    -4.78889600000E-01 -4.60613650000E-01 -2.52594630000E-01

  35  35   1    1 H    -4.05709120000E-01 -3.09042070000E-01  2.47421550000E-01

  36  36   1    1 H    -2.90439290000E-01 -7.84789700000E-02 -2.52578450000E-01

  37  37   1    6 C    -1.08109690000E-01  4.45943690000E-01  2.49258700000E-01

  38  38   1    6 C     7.16014000000E-03 -3.23493210000E-01 -2.50741300000E-01

  39  39   1    6 C    -5.35108900000E-02  3.92785630000E-01  2.47953310000E-01

  40  40   1    6 C     6.17589400000E-02 -3.76651270000E-01 -2.52046690000E-01

  41  41   1    6 C     5.33881200000E-02 -3.92814700000E-01  2.47840550000E-01

  42  42   1    6 C     1.68657950000E-01 -1.62251600000E-01 -2.52159450000E-01

  43  43   1    6 C    -5.35478900000E-02 -4.46307810000E-01  2.48178970000E-01

  44  44   1    6 C     6.17219400000E-02 -2.15744710000E-01 -2.51821030000E-01

  45  45   1    6 C     5.34263400000E-02  4.46249970000E-01  2.47308690000E-01

  46  46   1    6 C     1.68696170000E-01 -3.23186930000E-01 -2.52691310000E-01

  47  47   1    6 C     1.08035890000E-01 -4.45964370000E-01  2.48195070000E-01

  48  48   1    6 C     2.23305720000E-01 -2.15401270000E-01 -2.51804930000E-01

  49  49   1    6 C    -4.45960580000E-01  1.08168460000E-01  2.50741340000E-01

  50  50   1    6 C    -3.30690750000E-01  3.38731560000E-01 -2.49258670000E-01

  51  51   1    6 C    -3.92822150000E-01  5.35559400000E-02  2.52046690000E-01

  52  52   1    6 C    -2.77552320000E-01  2.84119040000E-01 -2.47953310000E-01

  53  53   1    6 C     3.92798670000E-01 -5.33368400000E-02  2.52159510000E-01

  54  54   1    6 C    -4.91931500000E-01  1.77226260000E-01 -2.47840500000E-01

  55  55   1    6 C     4.46287580000E-01  5.36028600000E-02  2.51821090000E-01

  56  56   1    6 C    -4.38442590000E-01  2.84165960000E-01 -2.48178910000E-01

  57  57   1    6 C    -4.46283150000E-01 -5.33764400000E-02  2.52691300000E-01

  58  58   1    6 C    -3.31013320000E-01  1.77186660000E-01 -2.47308700000E-01

  59  59   1    6 C     4.45927910000E-01 -1.08007940000E-01  2.51804950000E-01

  60  60   1    6 C    -4.38802260000E-01  1.22555160000E-01 -2.48195050000E-01

  61  61   1    6 C    -4.45955130000E-01  4.45874550000E-01  2.49258690000E-01

  62  62   1    6 C    -3.30685300000E-01 -3.23562350000E-01 -2.50741310000E-01

  63  63   1    6 C    -3.92789780000E-01 -4.46374220000E-01  2.47953340000E-01

  64  64   1    6 C    -2.77519950000E-01 -2.15811120000E-01 -2.52046660000E-01

  65  65   1    6 C     3.92823370000E-01  4.46172030000E-01  2.47840520000E-01

  66  66   1    6 C    -4.91906800000E-01 -3.23264870000E-01 -2.52159480000E-01

  67  67   1    6 C     4.46287260000E-01  3.92689990000E-01  2.48178930000E-01

  68  68   1    6 C    -4.38442910000E-01 -3.76746910000E-01 -2.51821070000E-01

  69  69   1    6 C    -4.46257040000E-01 -3.92902000000E-01  2.47308730000E-01

  70  70   1    6 C    -3.30987210000E-01 -1.62338900000E-01 -2.52691270000E-01

  71  71   1    6 C     4.45959980000E-01 -4.46041770000E-01  2.48195070000E-01

  72  72   1    6 C    -4.38770190000E-01 -2.15478670000E-01 -2.51804930000E-01

  73  73   1    8 O    -4.39263320000E-01  2.80370630000E-01  2.49661580000E-01

  74  74   1    8 O    -3.23993490000E-01 -4.89066270000E-01 -2.50338420000E-01

  75  75   1    8 O    -2.80318300000E-01  2.80378330000E-01  2.52449570000E-01

  76  76   1    8 O    -1.65048470000E-01 -4.89058570000E-01 -2.47550430000E-01

  77  77   1    8 O    -2.80320580000E-01  4.39323460000E-01  2.48243430000E-01

  78  78   1    8 O    -1.65050750000E-01 -3.30113440000E-01 -2.51756570000E-01

  79  79   1    8 O     2.80324510000E-01 -2.80348890000E-01  2.49661600000E-01

  80  80   1    8 O     3.95594340000E-01 -4.97857900000E-02 -2.50338400000E-01

  81  81   1    8 O     2.80343970000E-01 -4.39304390000E-01  2.52449570000E-01

  82  82   1    8 O     3.95613800000E-01 -2.08741290000E-01 -2.47550430000E-01

  83  83   1    8 O     4.39263840000E-01 -2.80364580000E-01  2.48243420000E-01

  84  84   1    8 O    -4.45466330000E-01 -4.98014800000E-02 -2.51756580000E-01

 NUMBER OF SYMMETRY OPERATORS         :    1
 *******************************************************************************
 * GEOMETRY EDITING - INPUT COORDINATES ARE GIVEN IN ANGSTROM         
 *******************************************************************************

 GCALCO - MAX INDICES DIRECT LATTICE VECTOR    12    12    21
 NO.OF VECTORS CREATED 6999 STARS 3500 RMAX   255.76215 BOHR

 GEOMETRY FOR WAVE FUNCTION - DIMENSIONALITY OF THE SYSTEM    3
 (NON PERIODIC DIRECTION: LATTICE PARAMETER FORMALLY SET TO 500)
 *******************************************************************************
 LATTICE PARAMETERS (ANGSTROMS AND DEGREES) - BOHR = 0.5291772083 ANGSTROM
 PRIMITIVE CELL - CENTRING CODE 1/0 VOLUME=  1485.659765 - DENSITY  0.872 g/cm^3
         A              B              C           ALPHA      BETA       GAMMA 
    15.02361100    15.02391600     7.60000000    90.000323  89.999944 119.995964
 *******************************************************************************
 ATOMS IN THE ASYMMETRIC UNIT   84 - ATOMS IN THE UNIT CELL:   84
     ATOM                 X/A                 Y/B                 Z/C    
 *******************************************************************************
      1 T   5 B    -3.863194600000E-01  2.273182200000E-01  2.506285100000E-01
      2 T   5 B    -2.710496300000E-01  4.578813200000E-01 -2.493714900000E-01
      3 T   5 B    -2.272638000000E-01  3.863778800000E-01  2.506285200000E-01
      4 T   5 B    -1.119939700000E-01 -3.830590200000E-01 -2.493714800000E-01
      5 T   5 B    -3.863237300000E-01  3.863606700000E-01  2.493070500000E-01
      6 T   5 B    -2.710539000000E-01 -3.830762300000E-01 -2.506929500000E-01
      7 T   5 B     2.272552500000E-01 -3.863667800000E-01  2.506285200000E-01
      8 T   5 B     3.425250800000E-01 -1.558036800000E-01 -2.493714800000E-01
      9 T   5 B     3.863632200000E-01 -3.863875500000E-01  2.506285200000E-01
     10 T   5 B    -4.983669500000E-01 -1.558244500000E-01 -2.493714800000E-01
     11 T   5 B     3.863435000000E-01 -2.272483500000E-01  2.493070500000E-01
     12 T   5 B    -4.983866700000E-01  3.314750000000E-03 -2.506929500000E-01
     13 T   1 H    -9.695638000000E-02  3.089300500000E-01  2.478888400000E-01
     14 T   1 H     1.831345000000E-02 -4.605068500000E-01 -2.521111600000E-01
     15 T   1 H     9.663453000000E-02 -3.089465600000E-01  2.474699000000E-01
     16 T   1 H     2.119043600000E-01 -7.838346000000E-02 -2.525301000000E-01
     17 T   1 H    -9.702858000000E-02 -4.059275700000E-01  2.474054200000E-01
     18 T   1 H     1.824125000000E-02 -1.753644700000E-01 -2.525945800000E-01
     19 T   1 H     9.673618000000E-02  4.056849400000E-01  2.474215000000E-01
     20 T   1 H     2.120060100000E-01 -3.637519600000E-01 -2.525785000000E-01
     21 T   1 H    -3.089676000000E-01  9.700412000000E-02  2.521111700000E-01
     22 T   1 H    -1.936977700000E-01  3.275672200000E-01 -2.478888200000E-01
     23 T   1 H     3.089297200000E-01 -9.656269000000E-02  2.525301400000E-01
     24 T   1 H     4.241995500000E-01  1.340004100000E-01 -2.474698600000E-01
     25 T   1 H     4.058699900000E-01  9.704998000000E-02  2.525946600000E-01
     26 T   1 H    -4.788601800000E-01  3.276130800000E-01 -2.474053400000E-01
     27 T   1 H    -4.056877900000E-01 -9.665268000000E-02  2.525784700000E-01
     28 T   1 H    -2.904179600000E-01  1.339104200000E-01 -2.474215300000E-01
     29 T   1 H    -3.089272600000E-01 -4.059457900000E-01  2.478888700000E-01
     30 T   1 H    -1.936574300000E-01 -1.753826900000E-01 -2.521111300000E-01
     31 T   1 H     3.089618300000E-01  4.056093300000E-01  2.474698700000E-01
     32 T   1 H     4.242316600000E-01 -3.638275700000E-01 -2.525301300000E-01
     33 T   1 H     4.058405700000E-01  3.088232500000E-01  2.474053700000E-01
     34 T   1 H    -4.788896000000E-01 -4.606136500000E-01 -2.525946300000E-01
     35 T   1 H    -4.057091200000E-01 -3.090420700000E-01  2.474215500000E-01
     36 T   1 H    -2.904392900000E-01 -7.847897000000E-02 -2.525784500000E-01
     37 T   6 C    -1.081096900000E-01  4.459436900000E-01  2.492587000000E-01
     38 T   6 C     7.160140000000E-03 -3.234932100000E-01 -2.507413000000E-01
     39 T   6 C    -5.351089000000E-02  3.927856300000E-01  2.479533100000E-01
     40 T   6 C     6.175894000000E-02 -3.766512700000E-01 -2.520466900000E-01
     41 T   6 C     5.338812000000E-02 -3.928147000000E-01  2.478405500000E-01
     42 T   6 C     1.686579500000E-01 -1.622516000000E-01 -2.521594500000E-01
     43 T   6 C    -5.354789000000E-02 -4.463078100000E-01  2.481789700000E-01
     44 T   6 C     6.172194000000E-02 -2.157447100000E-01 -2.518210300000E-01
     45 T   6 C     5.342634000000E-02  4.462499700000E-01  2.473086900000E-01
     46 T   6 C     1.686961700000E-01 -3.231869300000E-01 -2.526913100000E-01
     47 T   6 C     1.080358900000E-01 -4.459643700000E-01  2.481950700000E-01
     48 T   6 C     2.233057200000E-01 -2.154012700000E-01 -2.518049300000E-01
     49 T   6 C    -4.459605800000E-01  1.081684600000E-01  2.507413400000E-01
     50 T   6 C    -3.306907500000E-01  3.387315600000E-01 -2.492586700000E-01
     51 T   6 C    -3.928221500000E-01  5.355594000000E-02  2.520466900000E-01
     52 T   6 C    -2.775523200000E-01  2.841190400000E-01 -2.479533100000E-01
     53 T   6 C     3.927986700000E-01 -5.333684000000E-02  2.521595100000E-01
     54 T   6 C    -4.919315000000E-01  1.772262600000E-01 -2.478405000000E-01
     55 T   6 C     4.462875800000E-01  5.360286000000E-02  2.518210900000E-01
     56 T   6 C    -4.384425900000E-01  2.841659600000E-01 -2.481789100000E-01
     57 T   6 C    -4.462831500000E-01 -5.337644000000E-02  2.526913000000E-01
     58 T   6 C    -3.310133200000E-01  1.771866600000E-01 -2.473087000000E-01
     59 T   6 C     4.459279100000E-01 -1.080079400000E-01  2.518049500000E-01
     60 T   6 C    -4.388022600000E-01  1.225551600000E-01 -2.481950500000E-01
     61 T   6 C    -4.459551300000E-01  4.458745500000E-01  2.492586900000E-01
     62 T   6 C    -3.306853000000E-01 -3.235623500000E-01 -2.507413100000E-01
     63 T   6 C    -3.927897800000E-01 -4.463742200000E-01  2.479533400000E-01
     64 T   6 C    -2.775199500000E-01 -2.158111200000E-01 -2.520466600000E-01
     65 T   6 C     3.928233700000E-01  4.461720300000E-01  2.478405200000E-01
     66 T   6 C    -4.919068000000E-01 -3.232648700000E-01 -2.521594800000E-01
     67 T   6 C     4.462872600000E-01  3.926899900000E-01  2.481789300000E-01
     68 T   6 C    -4.384429100000E-01 -3.767469100000E-01 -2.518210700000E-01
     69 T   6 C    -4.462570400000E-01 -3.929020000000E-01  2.473087300000E-01
     70 T   6 C    -3.309872100000E-01 -1.623389000000E-01 -2.526912700000E-01
     71 T   6 C     4.459599800000E-01 -4.460417700000E-01  2.481950700000E-01
     72 T   6 C    -4.387701900000E-01 -2.154786700000E-01 -2.518049300000E-01
     73 T   8 O    -4.392633200000E-01  2.803706300000E-01  2.496615800000E-01
     74 T   8 O    -3.239934900000E-01 -4.890662700000E-01 -2.503384200000E-01
     75 T   8 O    -2.803183000000E-01  2.803783300000E-01  2.524495700000E-01
     76 T   8 O    -1.650484700000E-01 -4.890585700000E-01 -2.475504300000E-01
     77 T   8 O    -2.803205800000E-01  4.393234600000E-01  2.482434300000E-01
     78 T   8 O    -1.650507500000E-01 -3.301134400000E-01 -2.517565700000E-01
     79 T   8 O     2.803245100000E-01 -2.803488900000E-01  2.496616000000E-01
     80 T   8 O     3.955943400000E-01 -4.978579000000E-02 -2.503384000000E-01
     81 T   8 O     2.803439700000E-01 -4.393043900000E-01  2.524495700000E-01
     82 T   8 O     3.956138000000E-01 -2.087412900000E-01 -2.475504300000E-01
     83 T   8 O     4.392638400000E-01 -2.803645800000E-01  2.482434200000E-01
     84 T   8 O    -4.454663300000E-01 -4.980148000000E-02 -2.517565800000E-01

 T = ATOM BELONGING TO THE ASYMMETRIC UNIT

 ****    1 SYMMOPS - TRANSLATORS IN FRACTIONAL UNITS
 **** MATRICES AND TRANSLATORS IN THE CRYSTALLOGRAPHIC REFERENCE FRAME
   V INV                    ROTATION MATRICES                   TRANSLATORS
   1   1  1.00  0.00  0.00  0.00  1.00  0.00  0.00  0.00  1.00  0.00  0.00  0.00

 DIRECT LATTICE VECTORS CARTESIAN COMPONENTS (ANGSTROM)
          X                    Y                    Z
   0.130113578931E+02  -0.751088897922E+01   0.000000000000E+00
   0.000000000000E+00   0.150239160000E+02   0.000000000000E+00
  -0.161552619368E-04  -0.428443424762E-04   0.759999999986E+01


 CARTESIAN COORDINATES - PRIMITIVE CELL
 *******************************************************************************
 *      ATOM          X(ANGSTROM)         Y(ANGSTROM)         Z(ANGSTROM)
 *******************************************************************************
    1     5 B    -5.026544804082E+00  6.316801679107E+00  1.904776675965E+00
    2     5 B    -3.526719714049E+00 -6.108911147406E+00 -1.895223323966E+00
    3     5 B    -2.957014686905E+00  7.511851246159E+00  1.904776751965E+00
    4     5 B    -1.457189596873E+00 -4.913861580354E+00 -1.895223247966E+00
    5     5 B    -5.026600341231E+00 -6.317641783546E+00  1.894733579966E+00
    6     5 B    -3.526775251198E+00 -3.719438610058E+00 -1.905266419965E+00
    7     5 B     2.956895341857E+00 -7.511641738619E+00  1.904776751965E+00
    8     5 B     4.456720431889E+00 -4.913438565131E+00 -1.895223247966E+00
    9     5 B     5.027106083164E+00  6.316919916267E+00  1.904776751965E+00
   10     5 B    -6.484426719859E+00  1.402096068972E+00 -1.895223247966E+00
   11     5 B     5.026849520535E+00 -6.315953939277E+00  1.894733579966E+00
   12     5 B     6.526674610568E+00 -3.717750765789E+00 -1.905266419965E+00
   13     1 H    -1.261538164904E+00  5.369557106448E+00  1.883955183966E+00
   14     1 H     2.382869251284E-01 -7.056155720064E+00 -1.916044815965E+00
   15     1 H     1.257342456716E+00 -5.367408995003E+00  1.880771239966E+00
   16     1 H     2.757167546749E+00 -2.769205821515E+00 -1.919228759965E+00
   17     1 H    -1.262477577134E+00 -5.369861421496E+00  1.880281191966E+00
   18     1 H     2.373475128983E-01 -2.771658248008E+00 -1.919718807965E+00
   19     1 H     1.258665062028E+00  5.368391152160E+00  1.880403399966E+00
   20     1 H     2.758490152061E+00 -7.057321674352E+00 -1.919596599965E+00
   21     1 H    -4.020092093881E+00  3.777992290772E+00  1.916044891965E+00
   22     1 H    -2.520267003848E+00  6.376195464259E+00 -1.883955031966E+00
   23     1 H     4.019591071031E+00 -3.771097392082E+00  1.919229063965E+00
   24     1 H     5.519416161064E+00 -1.172894218595E+00 -1.880770935966E+00
   25     1 H     5.280915617208E+00 -1.590384509816E+00  1.919719415965E+00
   26     1 H     6.780740707241E+00  1.007818663672E+00 -1.880280583966E+00
   27     1 H    -5.278553109005E+00  1.594963383860E+00  1.919596371965E+00
   28     1 H    -3.778728018972E+00  4.193166557348E+00 -1.880403627966E+00
   29     1 H    -4.019567147491E+00 -3.778587717636E+00  1.883955411966E+00
   30     1 H    -2.519742057458E+00 -1.180384544148E+00 -1.916044587965E+00
   31     1 H     4.020008947483E+00  3.773251896107E+00  1.880771011966E+00
   32     1 H    -7.491523855541E+00 -1.141571951189E+00 -1.919228987965E+00
   33     1 H     5.280532906894E+00  1.591500502395E+00  1.880280811966E+00
   34     1 H    -6.230999896130E+00 -3.323323344901E+00 -1.919719187965E+00
   35     1 H    -5.278830557957E+00 -1.595796542584E+00  1.880403779966E+00
   36     1 H    -3.779005467924E+00  1.002406630904E+00 -1.919596219965E+00
   37     6 C    -1.406657895137E+00  7.511809739132E+00  1.894366119966E+00
   38     6 C     9.316719489577E-02 -4.913903087380E+00 -1.905633879965E+00
   39     6 C    -6.962533467167E-01  6.303082041700E+00  1.884445155966E+00
   40     6 C     8.035717433161E-01 -6.122630784813E+00 -1.915554843965E+00
   41     6 C     6.946479326284E-01 -6.302617917060E+00  1.883588179966E+00
   42     6 C     2.194473022661E+00 -3.704414743572E+00 -1.916411819965E+00
   43     6 C    -6.967347706043E-01 -6.303109423787E+00  1.886160171966E+00
   44     6 C     8.030903194285E-01 -3.704906250300E+00 -1.913839827965E+00
   45     6 C     6.951452353195E-01  6.303132160198E+00  1.879546043966E+00
   46     6 C     2.194970325352E+00 -6.122580666314E+00 -1.920453955965E+00
   47     6 C     1.405689620429E+00 -7.511587443188E+00  1.886282531966E+00
   48     6 C     2.905514710461E+00 -4.913384269701E+00 -1.913717467965E+00
   49     6 C     7.208801129689E+00 -2.536225459688E+00  1.905634183965E+00
   50     6 C    -4.302731673334E+00 -7.451049306983E+00 -1.894365891966E+00
   51     6 C    -5.111153653850E+00  3.755052702313E+00  1.915554843965E+00
   52     6 C    -3.611328563817E+00  6.353255875801E+00 -1.884445155966E+00
   53     6 C     5.110840001584E+00 -3.751606209028E+00  1.916412275965E+00
   54     6 C     6.610665091617E+00 -1.153403035540E+00 -1.883587799966E+00
   55     6 C     5.806803358370E+00 -2.546702389292E+00  1.913840283965E+00
   56     6 C     7.306628448403E+00  5.150078419524E-02 -1.886159715966E+00
   57     6 C    -5.806753868585E+00  2.550049215613E+00  1.920453879965E+00
   58     6 C    -4.306928778552E+00  5.148252389101E+00 -1.879546119966E+00
   59     6 C     5.802123563538E+00 -4.972028031055E+00  1.913717619965E+00
   60     6 C     7.301948653571E+00 -2.373824857567E+00 -1.886282379966E+00
   61     6 C     7.208872065543E+00  2.537401598339E+00  1.894366043966E+00
   62     6 C    -4.302660737481E+00 -2.377422248957E+00 -1.905633955965E+00
   63     6 C    -5.110732410066E+00 -3.756098979492E+00  1.884445383966E+00
   64     6 C    -3.610907320033E+00 -1.157895806005E+00 -1.915554615965E+00
   65     6 C     5.111161451898E+00  3.752787761194E+00  1.883587951966E+00
   66     6 C    -6.400371351126E+00 -1.162036086102E+00 -1.916412047965E+00
   67     6 C     5.806799253576E+00  2.547716728039E+00  1.886159867966E+00
   68     6 C    -5.704733549448E+00 -2.367107119257E+00 -1.913840131965E+00
   69     6 C    -5.806414055073E+00 -2.551150156378E+00  1.879546347966E+00
   70     6 C    -4.306588965041E+00  4.705301710952E-02 -1.920453651965E+00
   71     6 C     5.802540896104E+00  4.973055382321E+00  1.886282531966E+00
   72     6 C    -5.708991906920E+00  5.823153502465E-02 -1.913717467965E+00
   73     8 O     7.295941593896E+00  6.231473464191E-04  1.897428007966E+00
   74     8 O    -4.215591209128E+00 -4.914200699949E+00 -1.902571991965E+00
   75     8 O    -3.647325803662E+00  6.317809292247E+00  1.918616731965E+00
   76     8 O    -2.147500713629E+00 -6.107903534265E+00 -1.881383267966E+00
   77     8 O    -3.647355401607E+00 -6.318111120988E+00  1.886650067966E+00
   78     8 O    -2.147530311574E+00 -3.719907947500E+00 -1.913349931965E+00
   79     8 O     3.647398492457E+00 -6.317435143404E+00  1.897428159966E+00
   80     8 O     5.147223582490E+00 -3.719231969916E+00 -1.902571839965E+00
   81     8 O     3.647651648441E+00  6.318200495510E+00  1.918616731965E+00
   82     8 O     5.147476738474E+00 -6.107512331002E+00 -1.881383267966E+00
   83     8 O    -7.295942871776E+00 -5.574907292270E-04  1.886649991966E+00
   84     8 O    -5.796117781743E+00  2.597645682758E+00 -1.913350007965E+00

 *******************************************************************************
 STARTING BASIS SET HANDLING 
 *******************************************************************************

 Loading internal basis set: SOLDEF2MSVP         

 Please cite in your publication:
 L. Dona', J. G. Brandenburg and B. Civalleri, J. Chem. Phys., 151, 121101 (2019
 )                                                                              
                                                                                
                    

 *******************************************************************************
 LOCAL ATOMIC FUNCTIONS BASIS SET
 *******************************************************************************
   ATOM   X(AU)   Y(AU)   Z(AU)  N. TYPE  EXPONENT  S COEF   P COEF   D/F/G COEF
 *******************************************************************************
   1 B   -9.499  11.937   3.600
                                  1 S  
                                         2.410E+03 1.755E-03 0.000E+00 0.000E+00
                                         3.619E+02 1.344E-02 0.000E+00 0.000E+00
                                         8.231E+01 6.637E-02 0.000E+00 0.000E+00
                                         2.311E+01 2.303E-01 0.000E+00 0.000E+00
                                         7.252E+00 5.150E-01 0.000E+00 0.000E+00
                                  2 S  
                                         2.367E+00 1.000E+00 0.000E+00 0.000E+00
                                  3 S  
                                         5.533E-01 1.000E+00 0.000E+00 0.000E+00
                                  4 S  
                                         1.716E-01 1.000E+00 0.000E+00 0.000E+00
                           5-     7 P  
                                         6.002E+00 0.000E+00-3.555E-02 0.000E+00
                                         1.240E+00 0.000E+00-1.983E-01 0.000E+00
                                         3.367E-01 0.000E+00-5.048E-01 0.000E+00
                           8-    10 P  
                                         1.256E-01 0.000E+00 1.000E+00 0.000E+00
                          11-    15 D  
                                         8.880E-01 0.000E+00 0.000E+00 1.000E+00
   2 B   -6.665 -11.544  -3.581
   3 B   -5.588  14.195   3.600
   4 B   -2.754  -9.286  -3.581
   5 B   -9.499 -11.939   3.581
   6 B   -6.665  -7.029  -3.600
   7 B    5.588 -14.195   3.600
   8 B    8.422  -9.285  -3.581
   9 B    9.500  11.937   3.600
  10 B  -12.254   2.650  -3.581
  11 B    9.499 -11.935   3.581
  12 B   12.334  -7.026  -3.600
  13 H   -2.384  10.147   3.560
                                181 S  
                                         1.874E+01 1.968E-02 0.000E+00 0.000E+00
                                         2.826E+00 1.380E-01 0.000E+00 0.000E+00
                                         6.401E-01 4.783E-01 0.000E+00 0.000E+00
                                182 S  
                                         1.756E-01 1.000E+00 0.000E+00 0.000E+00
  14 H    0.450 -13.334  -3.621
  15 H    2.376 -10.143   3.554
  16 H    5.210  -5.233  -3.627
  17 H   -2.386 -10.148   3.553
  18 H    0.449  -5.238  -3.628
  19 H    2.379  10.145   3.553
  20 H    5.213 -13.336  -3.628
  21 H   -7.597   7.139   3.621
  22 H   -4.763  12.049  -3.560
  23 H    7.596  -7.126   3.627
  24 H   10.430  -2.216  -3.554
  25 H    9.979  -3.005   3.628
  26 H   12.814   1.905  -3.553
  27 H   -9.975   3.014   3.628
  28 H   -7.141   7.924  -3.553
  29 H   -7.596  -7.140   3.560
  30 H   -4.762  -2.231  -3.621
  31 H    7.597   7.130   3.554
  32 H  -14.157  -2.157  -3.627
  33 H    9.979   3.008   3.553
  34 H  -11.775  -6.280  -3.628
  35 H   -9.976  -3.016   3.553
  36 H   -7.141   1.894  -3.628
  37 C   -2.658  14.195   3.580
                                229 S  
                                         3.624E+03 1.634E-03 0.000E+00 0.000E+00
                                         5.440E+02 1.252E-02 0.000E+00 0.000E+00
                                         1.237E+02 6.211E-02 0.000E+00 0.000E+00
                                         3.476E+01 2.182E-01 0.000E+00 0.000E+00
                                         1.093E+01 4.980E-01 0.000E+00 0.000E+00
                                230 S  
                                         3.574E+00 1.000E+00 0.000E+00 0.000E+00
                                231 S  
                                         7.742E-01 1.000E+00 0.000E+00 0.000E+00
                                232 S  
                                         2.330E-01 1.000E+00 0.000E+00 0.000E+00
                         233-   235 P  
                                         9.443E+00 0.000E+00 3.790E-02 0.000E+00
                                         2.002E+00 0.000E+00 2.082E-01 0.000E+00
                                         5.463E-01 0.000E+00 5.047E-01 0.000E+00
                         236-   238 P  
                                         1.820E-01 0.000E+00 1.000E+00 0.000E+00
                         239-   243 D  
                                         8.880E-01 0.000E+00 0.000E+00 1.000E+00
  38 C    0.176  -9.286  -3.601
  39 C   -1.316  11.911   3.561
  40 C    1.519 -11.570  -3.620
  41 C    1.313 -11.910   3.559
  42 C    4.147  -7.000  -3.621
  43 C   -1.317 -11.911   3.564
  44 C    1.518  -7.001  -3.617
  45 C    1.314  11.911   3.552
  46 C    4.148 -11.570  -3.629
  47 C    2.656 -14.195   3.565
  48 C    5.491  -9.285  -3.616
  49 C   13.623  -4.793   3.601
  50 C   -8.131 -14.080  -3.580
  51 C   -9.659   7.096   3.620
  52 C   -6.824  12.006  -3.561
  53 C    9.658  -7.090   3.621
  54 C   12.492  -2.180  -3.559
  55 C   10.973  -4.813   3.617
  56 C   13.808   0.097  -3.564
  57 C  -10.973   4.819   3.629
  58 C   -8.139   9.729  -3.552
  59 C   10.964  -9.396   3.616
  60 C   13.799  -4.486  -3.565
  61 C   13.623   4.795   3.580
  62 C   -8.131  -4.493  -3.601
  63 C   -9.658  -7.098   3.561
  64 C   -6.824  -2.188  -3.620
  65 C    9.659   7.092   3.559
  66 C  -12.095  -2.196  -3.621
  67 C   10.973   4.814   3.564
  68 C  -10.780  -4.473  -3.617
  69 C  -10.973  -4.821   3.552
  70 C   -8.138   0.089  -3.629
  71 C   10.965   9.398   3.565
  72 C  -10.788   0.110  -3.616
  73 O   13.787   0.001   3.586
                                769 S  
                                         6.773E+03 1.727E-03 0.000E+00 0.000E+00
                                         1.017E+03 1.325E-02 0.000E+00 0.000E+00
                                         2.313E+02 6.603E-02 0.000E+00 0.000E+00
                                         6.501E+01 2.353E-01 0.000E+00 0.000E+00
                                         2.050E+01 5.498E-01 0.000E+00 0.000E+00
                                770 S  
                                         6.716E+00 1.000E+00 0.000E+00 0.000E+00
                                771 S  
                                         1.147E+00 1.000E+00 0.000E+00 0.000E+00
                                772 S  
                                         3.342E-01 1.000E+00 0.000E+00 0.000E+00
                         773-   775 P  
                                         1.769E+01 0.000E+00 4.359E-02 0.000E+00
                                         3.854E+00 0.000E+00 2.318E-01 0.000E+00
                                         1.047E+00 0.000E+00 5.146E-01 0.000E+00
                         776-   778 P  
                                         2.759E-01 0.000E+00 1.000E+00 0.000E+00
                         779-   783 D  
                                         8.000E-01 0.000E+00 0.000E+00 1.000E+00
  74 O   -7.966  -9.286  -3.595
  75 O   -6.892  11.939   3.626
  76 O   -4.058 -11.542  -3.555
  77 O   -6.893 -11.939   3.565
  78 O   -4.058  -7.030  -3.616
  79 O    6.893 -11.938   3.586
  80 O    9.727  -7.028  -3.595
  81 O    6.893  11.940   3.626
  82 O    9.727 -11.542  -3.555
  83 O  -13.787  -0.001   3.565
  84 O  -10.953   4.909  -3.616

 *******************************************************************************
 FINISHED BASIS SET HANDLING 
 *******************************************************************************

 INFORMATION **** SET_MPP **** PCRYSTAL CALCULATION
 INFORMATION **** READM2 **** NEW DEFAULT: FOCK/KS MATRIX MIXING SET TO 30 %
 INFORMATION **** READM2 **** NEW DEFAULT: FULL DIRECT SCF MODE
 INFORMATION **** READM2 **** NEW DEFAULT: COULOMB BIPOLAR BUFFER SET TO 32 Mb
 INFORMATION **** READM2 **** NEW DEFAULT: EXCHANGE BIPOLAR BUFFER SET TO 32 Mb

 *******************************************************************************
 NEW DEFAULT: DFT INTEGRATION GRID INCREASED TO XLGRID
 NEW DEFAULT: DIIS ACCELERATOR ACTIVE
 USE KEYWORD NODIIS TO TURN IT OFF
 *******************************************************************************

 WARNING **** RDDFTP **** HSEsol-HJS ACTIVE
 RANGE SEPARATION - OMEGA:   0.110000000000000     
 WARNING **** RDDFTP **** HSEsol-3c has to be combined with sol-def2-mSVP basis set
 *******************************************************************************
 N. OF ATOMS PER CELL        84  COULOMB OVERLAP TOL         (T1) 10**   -6
 NUMBER OF SHELLS           468  COULOMB PENETRATION TOL     (T2) 10**   -6
 NUMBER OF AO               948  EXCHANGE OVERLAP TOL        (T3) 10**   -6
 N. OF ELECTRONS PER CELL   396  EXCHANGE PSEUDO OVP (F(G))  (T4) 10**   -6
 CORE ELECTRONS PER CELL    120  EXCHANGE PSEUDO OVP (P(G))  (T5) 10**  -12
 N. OF SYMMETRY OPERATORS     1  POLE ORDER IN MONO ZONE                  4
 *******************************************************************************
 TYPE OF CALCULATION :  RESTRICTED CLOSED SHELL
 KOHN-SHAM HAMILTONIAN

 (EXCHANGE)[CORRELATION] FUNCTIONAL:(HSEsol GGA)[PBEsol]

 RANGE-SEPARATED HYBRID FUNCTIONAL 
 OMEGA (SHORT-RANGE)[LONG-RANGE]:(    0.1100)[    0.0000]

 HYBRID EXCHANGE - PERCENTAGE OF FOCK EXCHANGE    25.0000

 CAPPA:IS1  2;IS2  2;IS3  8; K PTS MONK NET  20; SYMMOPS:K SPACE   2;G SPACE   1

 *******************************************************************************
 MAX NUMBER OF SCF CYCLES      50  CONVERGENCE ON DELTAP        10**-16
 WEIGHT OF F(I) IN F(I+1)      30% CONVERGENCE ON ENERGY        10**- 6
 SHRINK. FACT.(MONKH.)    2  2  8  NUMBER OF K POINTS IN THE IBZ     20
 SHRINKING FACTOR(GILAT NET)    8  NUMBER OF K POINTS(GILAT NET)   1028
 *******************************************************************************
 *** K POINTS COORDINATES (OBLIQUE COORDINATES IN UNITS OF IS =  2)
   1-R(  0  0  0)   2-R(  1  0  0)   3-R(  0  1  0)   4-R(  1  1  0)
   5-C(  0  0  1)   6-C(  1  0  1)   7-C(  0  1  1)   8-C(  1  1  1)
   9-C(  0  0  2)  10-C(  1  0  2)  11-C(  0  1  2)  12-C(  1  1  2)
  13-C(  0  0  3)  14-C(  1  0  3)  15-C(  0  1  3)  16-C(  1  1  3)
  17-R(  0  0  4)  18-R(  1  0  4)  19-R(  0  1  4)  20-R(  1  1  4)

 DIRECT LATTICE VECTORS COMPON. (A.U.)     RECIP. LATTICE VECTORS COMPON. (A.U.) 
        X            Y            Z              X            Y            Z
   24.5879030  -14.1935232    0.0000000      0.2555397    0.0000000    0.0000005
    0.0000000   28.3910867    0.0000000      0.1277517    0.2213084    0.0000015
   -0.0000305   -0.0000810   14.3619186      0.0000000    0.0000000    0.4374893

 DISK SPACE FOR EIGENVECTORS (FTN 10)    28758528 REALS

 SYMMETRY ADAPTION OF THE BLOCH FUNCTIONS DISABLED
 TTTTTTTTTTTTTTTTTTTTTTTTTTTTTT gordsh1     TELAPSE        0.05 TCPU        0.05

 MATRIX SIZE: P(G)  684606, F(G)  139164, P(G) IRR  344241, F(G) IRR  140196
 MAX G-VECTOR INDEX FOR 1- AND 2-ELECTRON INTEGRALS  43

 TTTTTTTTTTTTTTTTTTTTTTTTTTTTTT INPUT       TELAPSE        2.70 TCPU        2.69

 NEIGHBORS OF THE NON-EQUIVALENT ATOMS

 N = NUMBER OF NEIGHBORS AT DISTANCE R
    ATOM  N     R/ANG      R/AU   NEIGHBORS (ATOM LABELS AND CELL INDICES)
   1 B    1     1.3791     2.6061   73 O   -1 0 0
   1 B    1     1.3793     2.6065   75 O    0 0 0
   1 B    1     1.5503     2.9297   49 C   -1 0 0
   1 B    1     2.3895     4.5155    5 B    0 1 0
   1 B    1     2.3898     4.5160    3 B    0 0 0
   1 B    1     2.5632     4.8437   51 C    0 0 0

   2 B    1     1.3791     2.6061   74 O    0 0 0
   2 B    1     1.3793     2.6065   76 O    0 0 0
   2 B    1     1.5503     2.9297   50 C    0 0 0
   2 B    1     2.3895     4.5155    6 B    0 0 0
   2 B    1     2.3898     4.5160    4 B    0 0 0
   2 B    1     2.5632     4.8437   52 C    0-1 0

   3 B    1     1.3793     2.6065   77 O    0 1 0
   3 B    1     1.3793     2.6065   75 O    0 0 0
   3 B    1     1.5504     2.9298   37 C    0 0 0
   3 B    1     2.3895     4.5156    5 B    0 1 0
   3 B    1     2.3898     4.5160    1 B    0 0 0
   3 B    1     2.5634     4.8440   43 C    0 1 0

   4 B    1     1.3793     2.6065   78 O    0 0 0
   4 B    1     1.3793     2.6065   76 O    0 0 0
   4 B    1     1.5504     2.9298   38 C    0 0 0
   4 B    1     2.3895     4.5156    6 B    0 0 0
   4 B    1     2.3898     4.5160    2 B    0 0 0
   4 B    1     2.5634     4.8440   44 C    0 0 0

   5 B    1     1.3791     2.6061   73 O   -1-1 0
   5 B    1     1.3793     2.6064   77 O    0 0 0
   5 B    1     1.5502     2.9294   61 C   -1-1 0
   5 B    1     2.3895     4.5155    1 B    0-1 0
   5 B    1     2.3895     4.5156    3 B    0-1 0
   5 B    1     2.5629     4.8433   63 C    0 0 0

   6 B    1     1.3791     2.6061   74 O    0 0 0
   6 B    1     1.3793     2.6064   78 O    0 0 0
   6 B    1     1.5502     2.9294   62 C    0 0 0
   6 B    1     2.3895     4.5155    2 B    0 0 0
   6 B    1     2.3895     4.5156    4 B    0 0 0
   6 B    1     2.5629     4.8433   64 C    0 0 0

   7 B    1     1.3795     2.6068   79 O    0 0 0
   7 B    1     1.3795     2.6070   81 O    0-1 0
   7 B    1     1.5513     2.9316   47 C    0 0 0
   7 B    1     2.3905     4.5174   11 B    0 0 0
   7 B    1     2.3905     4.5175    9 B    0-1 0
   7 B    1     2.5648     4.8468   45 C    0-1 0

   8 B    1     1.3795     2.6068   80 O    0 0 0
   8 B    1     1.3795     2.6070   82 O    0 0 0
   8 B    1     1.5513     2.9316   48 C    0 0 0
   8 B    1     2.3905     4.5174   12 B    0 0 0
   8 B    1     2.3905     4.5175   10 B    1 0 0
   8 B    1     2.5648     4.8468   46 C    0 0 0

   9 B    1     1.3795     2.6069   81 O    0 0 0
   9 B    1     1.3797     2.6072   83 O    1 1 0
   9 B    1     1.5516     2.9322   71 C    0 0 0
   9 B    1     2.3905     4.5175    7 B    0 1 0
   9 B    1     2.3911     4.5185   11 B    0 1 0
   9 B    1     2.5651     4.8473   69 C    1 1 0

  10 B    1     1.3795     2.6069   82 O   -1 0 0
  10 B    1     1.3797     2.6072   84 O    0 0 0
  10 B    1     1.5516     2.9322   72 C    0 0 0
  10 B    1     2.3905     4.5175    8 B   -1 0 0
  10 B    1     2.3911     4.5185   12 B   -1 0 0
  10 B    1     2.5651     4.8473   70 C    0 0 0

  11 B    1     1.3795     2.6068   79 O    0 0 0
  11 B    1     1.3796     2.6071   83 O    1 0 0
  11 B    1     1.5516     2.9322   59 C    0 0 0
  11 B    1     2.3905     4.5174    7 B    0 0 0
  11 B    1     2.3911     4.5185    9 B    0-1 0
  11 B    1     2.5651     4.8473   57 C    1 0 0

  12 B    1     1.3795     2.6068   80 O    0 0 0
  12 B    1     1.3796     2.6071   84 O    1 0 0
  12 B    1     1.5516     2.9322   60 C    0 0 0
  12 B    1     2.3905     4.5174    8 B    0 0 0
  12 B    1     2.3911     4.5185   10 B    1 0 0
  12 B    1     2.5651     4.8473   58 C    1 0 0

  13 H    1     1.0913     2.0623   39 C    0 0 0
  13 H    1     2.1472     4.0576   37 C    0 0 0
  13 H    1     2.1680     4.0969   45 C    0 0 0
  13 H    1     2.5202     4.7625   19 H    0 0 0
  13 H    1     2.5676     4.8520   75 O    0 0 0
  13 H    1     2.7321     5.1630    3 B    0 0 0

  14 H    1     1.0913     2.0623   40 C    0 0 0
  14 H    1     2.1472     4.0576   38 C    0 0 0
  14 H    1     2.1680     4.0969   46 C    0 0 0
  14 H    1     2.5202     4.7625   20 H    0 0 0
  14 H    1     2.5676     4.8520   76 O    0 0 0
  14 H    1     2.7321     5.1630    4 B    0 0 0

  15 H    1     1.0914     2.0625   41 C    0 0 0
  15 H    1     2.1493     4.0616   47 C    0 0 0
  15 H    1     2.1666     4.0942   43 C    0 0 0
  15 H    1     2.5198     4.7618   17 H    0 0 0
  15 H    1     2.5720     4.8604   79 O    0 0 0
  15 H    1     2.7362     5.1707    7 B    0 0 0

  16 H    1     1.0914     2.0625   42 C    0 0 0
  16 H    1     2.1493     4.0616   48 C    0 0 0
  16 H    1     2.1666     4.0942   44 C    0 0 0
  16 H    1     2.5198     4.7618   18 H    0 0 0
  16 H    1     2.5720     4.8604   80 O    0 0 0
  16 H    1     2.7362     5.1707    8 B    0 0 0

  17 H    1     1.0914     2.0624   43 C    0 0 0
  17 H    1     2.1471     4.0575   37 C    0-1 0
  17 H    1     2.1680     4.0970   41 C    0 0 0
  17 H    1     2.5198     4.7618   15 H    0 0 0
  17 H    1     2.5665     4.8500   77 O    0 0 0
  17 H    1     2.7315     5.1618    3 B    0-1 0

  18 H    1     1.0914     2.0624   44 C    0 0 0
  18 H    1     2.1471     4.0575   38 C    0 0 0
  18 H    1     2.1680     4.0970   42 C    0 0 0
  18 H    1     2.5198     4.7618   16 H    0 0 0
  18 H    1     2.5665     4.8500   78 O    0 0 0
  18 H    1     2.7315     5.1618    4 B    0 0 0

  19 H    1     1.0915     2.0626   45 C    0 0 0
  19 H    1     2.1490     4.0610   47 C    0 1 0
  19 H    1     2.1669     4.0948   39 C    0 0 0
  19 H    1     2.5202     4.7625   13 H    0 0 0
  19 H    1     2.5712     4.8588   81 O    0 0 0
  19 H    1     2.7351     5.1686    7 B    0 1 0

  20 H    1     1.0915     2.0626   46 C    0 0 0
  20 H    1     2.1490     4.0610   48 C    0 0 0
  20 H    1     2.1669     4.0948   40 C    0 0 0
  20 H    1     2.5202     4.7625   14 H    0 0 0
  20 H    1     2.5712     4.8588   82 O    0 0 0
  20 H    1     2.7351     5.1686    8 B    0 0 0

  21 H    1     1.0913     2.0623   51 C    0 0 0
  21 H    1     2.1469     4.0571   49 C   -1 0 0
  21 H    1     2.1680     4.0968   57 C    0 0 0
  21 H    1     2.5198     4.7617   27 H    0 0 0
  21 H    1     2.5670     4.8510   75 O    0 0 0
  21 H    1     2.7310     5.1609    1 B    0 0 0

  22 H    1     1.0913     2.0623   52 C    0 0 0
  22 H    1     2.1469     4.0571   50 C    0 1 0
  22 H    1     2.1680     4.0968   58 C    0 0 0
  22 H    1     2.5198     4.7617   28 H    0 0 0
  22 H    1     2.5670     4.8510   76 O    0 1 0
  22 H    1     2.7310     5.1609    2 B    0 1 0

  23 H    1     1.0914     2.0625   53 C    0 0 0
  23 H    1     2.1493     4.0617   59 C    0 0 0
  23 H    1     2.1664     4.0939   55 C    0 0 0
  23 H    1     2.5192     4.7606   25 H    0 0 0
  23 H    1     2.5735     4.8632   79 O    0 0 0
  23 H    1     2.7371     5.1723   11 B    0 0 0

  24 H    1     1.0914     2.0625   54 C    0 0 0
  24 H    1     2.1493     4.0617   60 C    0 0 0
  24 H    1     2.1664     4.0939   56 C    0 0 0
  24 H    1     2.5192     4.7606   26 H    0 0 0
  24 H    1     2.5735     4.8632   80 O    0 0 0
  24 H    1     2.7371     5.1723   12 B    0 0 0

  25 H    1     1.0914     2.0624   55 C    0 0 0
  25 H    1     2.1475     4.0581   49 C    0 0 0
  25 H    1     2.1679     4.0967   53 C    0 0 0
  25 H    1     2.5192     4.7606   23 H    0 0 0
  25 H    1     2.5675     4.8519   73 O    0 0 0
  25 H    1     2.7328     5.1643    1 B    1 0 0

  26 H    1     1.0914     2.0624   56 C    0 0 0
  26 H    1     2.1475     4.0581   50 C    1 1 0
  26 H    1     2.1679     4.0967   54 C    0 0 0
  26 H    1     2.5192     4.7606   24 H    0 0 0
  26 H    1     2.5675     4.8519   74 O    1 1 0
  26 H    1     2.7328     5.1643    2 B    1 1 0

  27 H    1     1.0914     2.0625   57 C    0 0 0
  27 H    1     2.1491     4.0612   59 C   -1 0 0
  27 H    1     2.1666     4.0942   51 C    0 0 0
  27 H    1     2.5198     4.7617   21 H    0 0 0
  27 H    1     2.5723     4.8609   83 O    0 0 0
  27 H    1     2.7355     5.1693   11 B   -1 0 0

  28 H    1     1.0914     2.0625   58 C    0 0 0
  28 H    1     2.1491     4.0612   60 C   -1 0 0
  28 H    1     2.1666     4.0942   52 C    0 0 0
  28 H    1     2.5198     4.7617   22 H    0 0 0
  28 H    1     2.5723     4.8609   84 O    0 0 0
  28 H    1     2.7355     5.1693   12 B   -1 0 0

  29 H    1     1.0914     2.0624   63 C    0 0 0
  29 H    1     2.1475     4.0582   61 C   -1-1 0
  29 H    1     2.1678     4.0966   69 C    0 0 0
  29 H    1     2.5200     4.7621   35 H    0 0 0
  29 H    1     2.5667     4.8503   77 O    0 0 0
  29 H    1     2.7315     5.1618    5 B    0 0 0

  30 H    1     1.0914     2.0624   64 C    0 0 0
  30 H    1     2.1475     4.0582   62 C    0 0 0
  30 H    1     2.1678     4.0966   70 C    0 0 0
  30 H    1     2.5200     4.7621   36 H    0 0 0
  30 H    1     2.5667     4.8503   78 O    0 0 0
  30 H    1     2.7315     5.1618    6 B    0 0 0

  31 H    1     1.0913     2.0623   65 C    0 0 0
  31 H    1     2.1487     4.0605   71 C    0 0 0
  31 H    1     2.1667     4.0945   67 C    0 0 0
  31 H    1     2.5197     4.7616   33 H    0 0 0
  31 H    1     2.5723     4.8610   81 O    0 0 0
  31 H    1     2.7359     5.1701    9 B    0 0 0

  32 H    1     1.0913     2.0623   66 C    0 0 0
  32 H    1     2.1487     4.0605   72 C    0 0 0
  32 H    1     2.1667     4.0945   68 C    0 0 0
  32 H    1     2.5197     4.7616   34 H    0 0 0
  32 H    1     2.5723     4.8610   82 O   -1 0 0
  32 H    1     2.7359     5.1701   10 B    0 0 0

  33 H    1     1.0915     2.0626   67 C    0 0 0
  33 H    1     2.1479     4.0589   61 C    0 0 0
  33 H    1     2.1679     4.0968   65 C    0 0 0
  33 H    1     2.5197     4.7616   31 H    0 0 0
  33 H    1     2.5677     4.8522   73 O    0 0 0
  33 H    1     2.7331     5.1648    5 B    1 1 0

  34 H    1     1.0915     2.0626   68 C    0 0 0
  34 H    1     2.1479     4.0589   62 C    0 0 0
  34 H    1     2.1679     4.0968   66 C    0 0 0
  34 H    1     2.5197     4.7616   32 H    0 0 0
  34 H    1     2.5677     4.8522   74 O    0 0 0
  34 H    1     2.7331     5.1648    6 B    0 0 0

  35 H    1     1.0914     2.0624   69 C    0 0 0
  35 H    1     2.1486     4.0602   71 C   -1-1 0
  35 H    1     2.1668     4.0947   63 C    0 0 0
  35 H    1     2.5200     4.7621   29 H    0 0 0
  35 H    1     2.5717     4.8598   83 O    0 0 0
  35 H    1     2.7349     5.1682    9 B   -1-1 0

  36 H    1     1.0914     2.0624   70 C    0 0 0
  36 H    1     2.1486     4.0602   72 C    0 0 0
  36 H    1     2.1668     4.0947   64 C    0 0 0
  36 H    1     2.5200     4.7621   30 H    0 0 0
  36 H    1     2.5717     4.8598   84 O    0 0 0
  36 H    1     2.7349     5.1682   10 B    0 0 0

  37 C    1     1.4020     2.6495   43 C    0 1 0
  37 C    1     1.4021     2.6495   39 C    0 0 0
  37 C    1     1.5504     2.9298    3 B    0 0 0
  37 C    1     2.1471     4.0575   17 H    0 1 0
  37 C    1     2.1472     4.0576   13 H    0 0 0
  37 C    1     2.4246     4.5817   41 C    0 1 0

  38 C    1     1.4020     2.6495   44 C    0 0 0
  38 C    1     1.4021     2.6495   40 C    0 0 0
  38 C    1     1.5504     2.9298    4 B    0 0 0
  38 C    1     2.1471     4.0575   18 H    0 0 0
  38 C    1     2.1472     4.0576   14 H    0 0 0
  38 C    1     2.4246     4.5817   42 C    0 0 0

  39 C    1     1.0913     2.0623   13 H    0 0 0
  39 C    1     1.3914     2.6294   45 C    0 0 0
  39 C    1     1.4021     2.6495   37 C    0 0 0
  39 C    1     2.1669     4.0948   19 H    0 0 0
  39 C    1     2.4177     4.5688   43 C    0 1 0
  39 C    1     2.4250     4.5825   47 C    0 1 0

  40 C    1     1.0913     2.0623   14 H    0 0 0
  40 C    1     1.3914     2.6294   46 C    0 0 0
  40 C    1     1.4021     2.6495   38 C    0 0 0
  40 C    1     2.1669     4.0948   20 H    0 0 0
  40 C    1     2.4177     4.5688   44 C    0 0 0
  40 C    1     2.4250     4.5825   48 C    0 0 0

  41 C    1     1.0914     2.0625   15 H    0 0 0
  41 C    1     1.3914     2.6293   43 C    0 0 0
  41 C    1     1.4026     2.6505   47 C    0 0 0
  41 C    1     2.1680     4.0970   17 H    0 0 0
  41 C    1     2.4182     4.5697   45 C    0-1 0
  41 C    1     2.4246     4.5817   37 C    0-1 0

  42 C    1     1.0914     2.0625   16 H    0 0 0
  42 C    1     1.3914     2.6293   44 C    0 0 0
  42 C    1     1.4026     2.6505   48 C    0 0 0
  42 C    1     2.1680     4.0970   18 H    0 0 0
  42 C    1     2.4182     4.5697   46 C    0 0 0
  42 C    1     2.4246     4.5817   38 C    0 0 0

  43 C    1     1.0914     2.0624   17 H    0 0 0
  43 C    1     1.3914     2.6293   41 C    0 0 0
  43 C    1     1.4020     2.6495   37 C    0-1 0
  43 C    1     2.1666     4.0942   15 H    0 0 0
  43 C    1     2.4177     4.5688   39 C    0-1 0
  43 C    1     2.4250     4.5826   47 C    0 0 0

  44 C    1     1.0914     2.0624   18 H    0 0 0
  44 C    1     1.3914     2.6293   42 C    0 0 0
  44 C    1     1.4020     2.6495   38 C    0 0 0
  44 C    1     2.1666     4.0942   16 H    0 0 0
  44 C    1     2.4177     4.5688   40 C    0 0 0
  44 C    1     2.4250     4.5826   48 C    0 0 0

  45 C    1     1.0915     2.0626   19 H    0 0 0
  45 C    1     1.3914     2.6294   39 C    0 0 0
  45 C    1     1.4025     2.6504   47 C    0 1 0
  45 C    1     2.1680     4.0969   13 H    0 0 0
  45 C    1     2.4182     4.5697   41 C    0 1 0
  45 C    1     2.4246     4.5818   37 C    0 0 0

  46 C    1     1.0915     2.0626   20 H    0 0 0
  46 C    1     1.3914     2.6294   40 C    0 0 0
  46 C    1     1.4025     2.6504   48 C    0 0 0
  46 C    1     2.1680     4.0969   14 H    0 0 0
  46 C    1     2.4182     4.5697   42 C    0 0 0
  46 C    1     2.4246     4.5818   38 C    0 0 0

  47 C    1     1.4025     2.6504   45 C    0-1 0
  47 C    1     1.4026     2.6505   41 C    0 0 0
  47 C    1     1.5513     2.9316    7 B    0 0 0
  47 C    1     2.1490     4.0610   19 H    0-1 0
  47 C    1     2.1493     4.0616   15 H    0 0 0
  47 C    1     2.4250     4.5825   39 C    0-1 0

  48 C    1     1.4025     2.6504   46 C    0 0 0
  48 C    1     1.4026     2.6505   42 C    0 0 0
  48 C    1     1.5513     2.9316    8 B    0 0 0
  48 C    1     2.1490     4.0610   20 H    0 0 0
  48 C    1     2.1493     4.0616   16 H    0 0 0
  48 C    1     2.4250     4.5825   40 C    0 0 0

  49 C    1     1.4020     2.6494   51 C    1 0 0
  49 C    1     1.4021     2.6495   55 C    0 0 0
  49 C    1     1.5503     2.9297    1 B    1 0 0
  49 C    1     2.1469     4.0571   21 H    1 0 0
  49 C    1     2.1475     4.0581   25 H    0 0 0
  49 C    1     2.4246     4.5818   53 C    0 0 0

  50 C    1     1.4020     2.6494   52 C    0-1 0
  50 C    1     1.4021     2.6495   56 C   -1-1 0
  50 C    1     1.5503     2.9297    2 B    0 0 0
  50 C    1     2.1469     4.0571   22 H    0-1 0
  50 C    1     2.1475     4.0581   26 H   -1-1 0
  50 C    1     2.4246     4.5818   54 C   -1-1 0

  51 C    1     1.0913     2.0623   21 H    0 0 0
  51 C    1     1.3914     2.6293   57 C    0 0 0
  51 C    1     1.4020     2.6494   49 C   -1 0 0
  51 C    1     2.1666     4.0942   27 H    0 0 0
  51 C    1     2.4175     4.5684   55 C   -1 0 0
  51 C    1     2.4251     4.5828   59 C   -1 0 0

  52 C    1     1.0913     2.0623   22 H    0 0 0
  52 C    1     1.3914     2.6293   58 C    0 0 0
  52 C    1     1.4020     2.6494   50 C    0 1 0
  52 C    1     2.1666     4.0942   28 H    0 0 0
  52 C    1     2.4175     4.5684   56 C   -1 0 0
  52 C    1     2.4251     4.5828   60 C   -1 0 0

  53 C    1     1.0914     2.0625   23 H    0 0 0
  53 C    1     1.3915     2.6295   55 C    0 0 0
  53 C    1     1.4026     2.6505   59 C    0 0 0
  53 C    1     2.1679     4.0967   25 H    0 0 0
  53 C    1     2.4179     4.5691   57 C    1 0 0
  53 C    1     2.4246     4.5818   49 C    0 0 0

  54 C    1     1.0914     2.0625   24 H    0 0 0
  54 C    1     1.3915     2.6295   56 C    0 0 0
  54 C    1     1.4026     2.6505   60 C    0 0 0
  54 C    1     2.1679     4.0967   26 H    0 0 0
  54 C    1     2.4179     4.5691   58 C    1 0 0
  54 C    1     2.4246     4.5818   50 C    1 1 0

  55 C    1     1.0914     2.0624   25 H    0 0 0
  55 C    1     1.3915     2.6295   53 C    0 0 0
  55 C    1     1.4021     2.6495   49 C    0 0 0
  55 C    1     2.1664     4.0939   23 H    0 0 0
  55 C    1     2.4175     4.5684   51 C    1 0 0
  55 C    1     2.4253     4.5832   59 C    0 0 0

  56 C    1     1.0914     2.0624   26 H    0 0 0
  56 C    1     1.3915     2.6295   54 C    0 0 0
  56 C    1     1.4021     2.6495   50 C    1 1 0
  56 C    1     2.1664     4.0939   24 H    0 0 0
  56 C    1     2.4175     4.5684   52 C    1 0 0
  56 C    1     2.4253     4.5832   60 C    0 0 0

  57 C    1     1.0914     2.0625   27 H    0 0 0
  57 C    1     1.3914     2.6293   51 C    0 0 0
  57 C    1     1.4025     2.6504   59 C   -1 0 0
  57 C    1     2.1680     4.0968   21 H    0 0 0
  57 C    1     2.4179     4.5691   53 C   -1 0 0
  57 C    1     2.4247     4.5819   49 C   -1 0 0

  58 C    1     1.0914     2.0625   28 H    0 0 0
  58 C    1     1.3914     2.6293   52 C    0 0 0
  58 C    1     1.4025     2.6504   60 C   -1 0 0
  58 C    1     2.1680     4.0968   22 H    0 0 0
  58 C    1     2.4179     4.5691   54 C   -1 0 0
  58 C    1     2.4247     4.5819   50 C    0 1 0

  59 C    1     1.4025     2.6504   57 C    1 0 0
  59 C    1     1.4026     2.6505   53 C    0 0 0
  59 C    1     1.5516     2.9322   11 B    0 0 0
  59 C    1     2.1491     4.0612   27 H    1 0 0
  59 C    1     2.1493     4.0617   23 H    0 0 0
  59 C    1     2.4251     4.5828   51 C    1 0 0

  60 C    1     1.4025     2.6504   58 C    1 0 0
  60 C    1     1.4026     2.6505   54 C    0 0 0
  60 C    1     1.5516     2.9322   12 B    0 0 0
  60 C    1     2.1491     4.0612   28 H    1 0 0
  60 C    1     2.1493     4.0617   24 H    0 0 0
  60 C    1     2.4251     4.5828   52 C    1 0 0

  61 C    1     1.4021     2.6496   63 C    1 1 0
  61 C    1     1.4021     2.6497   67 C    0 0 0
  61 C    1     1.5502     2.9294    5 B    1 1 0
  61 C    1     2.1475     4.0582   29 H    1 1 0
  61 C    1     2.1479     4.0589   33 H    0 0 0
  61 C    1     2.4244     4.5814   65 C    0 0 0

  62 C    1     1.4021     2.6496   64 C    0 0 0
  62 C    1     1.4021     2.6497   68 C    0 0 0
  62 C    1     1.5502     2.9294    6 B    0 0 0
  62 C    1     2.1475     4.0582   30 H    0 0 0
  62 C    1     2.1479     4.0589   34 H    0 0 0
  62 C    1     2.4244     4.5814   66 C    0 0 0

  63 C    1     1.0914     2.0624   29 H    0 0 0
  63 C    1     1.3914     2.6293   69 C    0 0 0
  63 C    1     1.4021     2.6496   61 C   -1-1 0
  63 C    1     2.1668     4.0947   35 H    0 0 0
  63 C    1     2.4179     4.5692   67 C   -1-1 0
  63 C    1     2.4251     4.5827   71 C   -1-1 0

  64 C    1     1.0914     2.0624   30 H    0 0 0
  64 C    1     1.3914     2.6293   70 C    0 0 0
  64 C    1     1.4021     2.6496   62 C    0 0 0
  64 C    1     2.1668     4.0947   36 H    0 0 0
  64 C    1     2.4179     4.5692   68 C    0 0 0
  64 C    1     2.4251     4.5827   72 C    0 0 0

  65 C    1     1.0913     2.0623   31 H    0 0 0
  65 C    1     1.3914     2.6294   67 C    0 0 0
  65 C    1     1.4025     2.6504   71 C    0 0 0
  65 C    1     2.1679     4.0968   33 H    0 0 0
  65 C    1     2.4178     4.5690   69 C    1 1 0
  65 C    1     2.4244     4.5814   61 C    0 0 0

  66 C    1     1.0913     2.0623   32 H    0 0 0
  66 C    1     1.3914     2.6294   68 C    0 0 0
  66 C    1     1.4025     2.6504   72 C    0 0 0
  66 C    1     2.1679     4.0968   34 H    0 0 0
  66 C    1     2.4178     4.5690   70 C    0 0 0
  66 C    1     2.4244     4.5814   62 C    0 0 0

  67 C    1     1.0915     2.0626   33 H    0 0 0
  67 C    1     1.3914     2.6294   65 C    0 0 0
  67 C    1     1.4021     2.6497   61 C    0 0 0
  67 C    1     2.1667     4.0945   31 H    0 0 0
  67 C    1     2.4179     4.5692   63 C    1 1 0
  67 C    1     2.4253     4.5832   71 C    0 0 0

  68 C    1     1.0915     2.0626   34 H    0 0 0
  68 C    1     1.3914     2.6294   66 C    0 0 0
  68 C    1     1.4021     2.6497   62 C    0 0 0
  68 C    1     2.1667     4.0945   32 H    0 0 0
  68 C    1     2.4179     4.5692   64 C    0 0 0
  68 C    1     2.4253     4.5832   72 C    0 0 0

  69 C    1     1.0914     2.0624   35 H    0 0 0
  69 C    1     1.3914     2.6293   63 C    0 0 0
  69 C    1     1.4025     2.6503   71 C   -1-1 0
  69 C    1     2.1678     4.0966   29 H    0 0 0
  69 C    1     2.4178     4.5690   65 C   -1-1 0
  69 C    1     2.4245     4.5817   61 C   -1-1 0

  70 C    1     1.0914     2.0624   36 H    0 0 0
  70 C    1     1.3914     2.6293   64 C    0 0 0
  70 C    1     1.4025     2.6503   72 C    0 0 0
  70 C    1     2.1678     4.0966   30 H    0 0 0
  70 C    1     2.4178     4.5690   66 C    0 0 0
  70 C    1     2.4245     4.5817   62 C    0 0 0

  71 C    1     1.4025     2.6503   69 C    1 1 0
  71 C    1     1.4025     2.6504   65 C    0 0 0
  71 C    1     1.5516     2.9322    9 B    0 0 0
  71 C    1     2.1486     4.0602   35 H    1 1 0
  71 C    1     2.1487     4.0605   31 H    0 0 0
  71 C    1     2.4251     4.5827   63 C    1 1 0

  72 C    1     1.4025     2.6503   70 C    0 0 0
  72 C    1     1.4025     2.6504   66 C    0 0 0
  72 C    1     1.5516     2.9322   10 B    0 0 0
  72 C    1     2.1486     4.0602   36 H    0 0 0
  72 C    1     2.1487     4.0605   32 H    0 0 0
  72 C    1     2.4251     4.5827   64 C    0 0 0

  73 O    1     1.3791     2.6061    1 B    1 0 0
  73 O    1     1.3791     2.6061    5 B    1 1 0
  73 O    1     2.3880     4.5126   75 O    1 0 0
  73 O    1     2.3882     4.5130   77 O    1 1 0
  73 O    1     2.5383     4.7966   61 C    0 0 0
  73 O    1     2.5384     4.7968   49 C    0 0 0

  74 O    1     1.3791     2.6061    2 B    0 0 0
  74 O    1     1.3791     2.6061    6 B    0 0 0
  74 O    1     2.3880     4.5126   76 O    0 0 0
  74 O    1     2.3882     4.5130   78 O    0 0 0
  74 O    1     2.5383     4.7966   62 C    0 0 0
  74 O    1     2.5384     4.7968   50 C    0 0 0

  75 O    1     1.3793     2.6065    1 B    0 0 0
  75 O    1     1.3793     2.6065    3 B    0 0 0
  75 O    1     2.3880     4.5126   73 O   -1 0 0
  75 O    1     2.3882     4.5131   77 O    0 1 0
  75 O    1     2.5391     4.7981   37 C    0 0 0
  75 O    1     2.5395     4.7990   49 C   -1 0 0

  76 O    1     1.3793     2.6065    2 B    0 0 0
  76 O    1     1.3793     2.6065    4 B    0 0 0
  76 O    1     2.3880     4.5126   74 O    0 0 0
  76 O    1     2.3882     4.5131   78 O    0 0 0
  76 O    1     2.5391     4.7981   38 C    0 0 0
  76 O    1     2.5395     4.7990   50 C    0 0 0

  77 O    1     1.3793     2.6064    5 B    0 0 0
  77 O    1     1.3793     2.6065    3 B    0-1 0
  77 O    1     2.3882     4.5130   73 O   -1-1 0
  77 O    1     2.3882     4.5131   75 O    0-1 0
  77 O    1     2.5390     4.7980   37 C    0-1 0
  77 O    1     2.5391     4.7982   61 C   -1-1 0

  78 O    1     1.3793     2.6064    6 B    0 0 0
  78 O    1     1.3793     2.6065    4 B    0 0 0
  78 O    1     2.3882     4.5130   74 O    0 0 0
  78 O    1     2.3882     4.5131   76 O    0 0 0
  78 O    1     2.5390     4.7980   38 C    0 0 0
  78 O    1     2.5391     4.7982   62 C    0 0 0

  79 O    1     1.3795     2.6068   11 B    0 0 0
  79 O    1     1.3795     2.6068    7 B    0 0 0
  79 O    1     2.3880     4.5126   83 O    1 0 0
  79 O    1     2.3884     4.5134   81 O    0-1 0
  79 O    1     2.5400     4.7998   47 C    0 0 0
  79 O    1     2.5403     4.8005   59 C    0 0 0

  80 O    1     1.3795     2.6068   12 B    0 0 0
  80 O    1     1.3795     2.6068    8 B    0 0 0
  80 O    1     2.3880     4.5126   84 O    1 0 0
  80 O    1     2.3884     4.5134   82 O    0 0 0
  80 O    1     2.5400     4.7998   48 C    0 0 0
  80 O    1     2.5403     4.8005   60 C    0 0 0

  81 O    1     1.3795     2.6069    9 B    0 0 0
  81 O    1     1.3795     2.6070    7 B    0 1 0
  81 O    1     2.3881     4.5128   83 O    1 1 0
  81 O    1     2.3884     4.5134   79 O    0 1 0
  81 O    1     2.5404     4.8006   47 C    0 1 0
  81 O    1     2.5405     4.8008   71 C    0 0 0

  82 O    1     1.3795     2.6069   10 B    1 0 0
  82 O    1     1.3795     2.6070    8 B    0 0 0
  82 O    1     2.3881     4.5128   84 O    1 0 0
  82 O    1     2.3884     4.5134   80 O    0 0 0
  82 O    1     2.5404     4.8006   48 C    0 0 0
  82 O    1     2.5405     4.8008   72 C    1 0 0

  83 O    1     1.3796     2.6071   11 B   -1 0 0
  83 O    1     1.3797     2.6072    9 B   -1-1 0
  83 O    1     2.3880     4.5126   79 O   -1 0 0
  83 O    1     2.3881     4.5128   81 O   -1-1 0
  83 O    1     2.5409     4.8016   71 C   -1-1 0
  83 O    1     2.5410     4.8019   59 C   -1 0 0

  84 O    1     1.3796     2.6071   12 B   -1 0 0
  84 O    1     1.3797     2.6072   10 B    0 0 0
  84 O    1     2.3880     4.5126   80 O   -1 0 0
  84 O    1     2.3881     4.5128   82 O   -1 0 0
  84 O    1     2.5409     4.8016   72 C    0 0 0
  84 O    1     2.5410     4.8019   60 C   -1 0 0


 SYMMETRY ALLOWED INTERNAL DEGREE(S) OF FREEDOM: 249
 TTTTTTTTTTTTTTTTTTTTTTTTTTTTTT SYMM        TELAPSE        2.70 TCPU        2.69
 TTTTTTTTTTTTTTTTTTTTTTTTTTTTTT INT_SCREEN  TELAPSE        2.91 TCPU        2.90

 DFT PARAMETERS

     ATOM       ELECTRONS   NET CHARGE   R(ANGSTROM)
   1   5  B       5.0000      0.0000     0.89000000
  13   1  H       1.0000      0.0000     1.11000000
  37   6  C       6.0000      0.0000     0.77000000
  73   8  O       8.0000      0.0000     0.74000000

 SIZE OF GRID=    2593191
 TTTTTTTTTTTTTTTTTTTTTTTTTTTTTT MAKE_GRID2  TELAPSE       23.05 TCPU       23.01
 BECKE WEIGHT FUNCTION
 RADSAFE =     2.00
 TOLERANCES - DENSITY:10**- 6; POTENTIAL:10**- 9; GRID WGT:10**-14

 RADIAL INTEGRATION  - INTERVALS (POINTS,UPPER LIMIT):            1( 75,  4.0*R)

 ANGULAR INTEGRATION - INTERVALS (ACCURACY LEVEL [N. POINTS] UPPER LIMIT):
  1(  4[  86]   0.2)  2(  8[ 194]   0.5)  3( 12[ 350]   0.9)  4( 16[ 974]   3.5)
  5( 12[ 350]9999.0)
 TTTTTTTTTTTTTTTTTTTTTTTTTTTTTT INT_CALC    TELAPSE       23.31 TCPU       23.27
 EEEEEEEEEE INT_CALC TERMINATION  DATE 19 02 2026 TIME 20:20:19.7

 *******************************************************************************
 cof-1_z38_L030_serr                                                             
 CRYSTAL - SCF - TYPE OF CALCULATION :  RESTRICTED CLOSED SHELL
 *******************************************************************************

 CAPPA:IS1  2;IS2  2;IS3  8; K PTS MONK NET  20; SYMMOPS:K SPACE   2;G SPACE   1

 TTTTTTTTTTTTTTTTTTTTTTTTTTTTTT SDIK        TELAPSE       26.09 TCPU       51.30

 AAAAAAAAAAAAAAAAAAAAAAAAAAAAAAAAAAAAAAAAAAAAAAAAAAAAAAAAAAAAAAAAAAAAAAAAAAAAAAA
         ATOMIC WAVEFUNCTION(S)


 NUCLEAR CHARGE  5.0  SYMMETRY SPECIES            S    P
 N. ELECTRONS    5.0  NUMBER OF PRIMITIVE GTOS    8    4
                      NUMBER OF CONTRACTED GTOS   4    2
                      NUMBER OF CLOSED SHELLS     2    0
                      OPEN SHELL OCCUPATION       0    1

  ZNUC  SCFIT    TOTAL HF ENERGY   KINETIC ENERGY   VIRIAL THEOREM ACCURACY
   5.0    11    -2.451164084E+01  2.462155050E+01 -1.995536038E+00  1.5E-06

 NUCLEAR CHARGE  1.0  SYMMETRY SPECIES            S
 N. ELECTRONS    1.0  NUMBER OF PRIMITIVE GTOS    4
                      NUMBER OF CONTRACTED GTOS   2
                      NUMBER OF CLOSED SHELLS     0
                      OPEN SHELL OCCUPATION       1

  ZNUC  SCFIT    TOTAL HF ENERGY   KINETIC ENERGY   VIRIAL THEOREM ACCURACY
   1.0     1    -4.977266687E-01  5.190767460E-01 -1.958869132E+00  0.0E+00

 NUCLEAR CHARGE  6.0  SYMMETRY SPECIES            S    P
 N. ELECTRONS    6.0  NUMBER OF PRIMITIVE GTOS    8    4
                      NUMBER OF CONTRACTED GTOS   4    2
                      NUMBER OF CLOSED SHELLS     2    0
                      OPEN SHELL OCCUPATION       0    2

  ZNUC  SCFIT    TOTAL HF ENERGY   KINETIC ENERGY   VIRIAL THEOREM ACCURACY
   6.0     9    -3.766704647E+01  3.775180683E+01 -1.997754800E+00  1.1E-06

 NUCLEAR CHARGE  8.0  SYMMETRY SPECIES            S    P
 N. ELECTRONS    8.0  NUMBER OF PRIMITIVE GTOS    8    4
                      NUMBER OF CONTRACTED GTOS   4    2
                      NUMBER OF CLOSED SHELLS     2    0
                      OPEN SHELL OCCUPATION       0    4

  ZNUC  SCFIT    TOTAL HF ENERGY   KINETIC ENERGY   VIRIAL THEOREM ACCURACY
   8.0    12    -7.477373220E+01  7.477365593E+01 -2.000001020E+00  3.8E-06

 AAAAAAAAAAAAAAAAAAAAAAAAAAAAAAAAAAAAAAAAAAAAAAAAAAAAAAAAAAAAAAAAAAAAAAAAAAAAAAA

 CHARGE NORMALIZATION FACTOR   1.00000000
 TOTAL ATOMIC CHARGES:
   5.0000000   5.0000000   5.0000000   5.0000000   5.0000000   5.0000000
   5.0000000   5.0000000   5.0000000   5.0000000   5.0000000   5.0000000
   1.0000000   1.0000000   1.0000000   1.0000000   1.0000000   1.0000000
   1.0000000   1.0000000   1.0000000   1.0000000   1.0000000   1.0000000
   1.0000000   1.0000000   1.0000000   1.0000000   1.0000000   1.0000000
   1.0000000   1.0000000   1.0000000   1.0000000   1.0000000   1.0000000
   6.0000000   6.0000000   6.0000000   6.0000000   6.0000000   6.0000000
   6.0000000   6.0000000   6.0000000   6.0000000   6.0000000   6.0000000
   6.0000000   6.0000000   6.0000000   6.0000000   6.0000000   6.0000000
   6.0000000   6.0000000   6.0000000   6.0000000   6.0000000   6.0000000
   6.0000000   6.0000000   6.0000000   6.0000000   6.0000000   6.0000000
   6.0000000   6.0000000   6.0000000   6.0000000   6.0000000   6.0000000
   8.0000000   8.0000000   8.0000000   8.0000000   8.0000000   8.0000000
   8.0000000   8.0000000   8.0000000   8.0000000   8.0000000   8.0000000
 TTTTTTTTTTTTTTTTTTTTTTTTTTTTTT MOQGAD      TELAPSE       26.26 TCPU       53.82
 TTTTTTTTTTTTTTTTTTTTTTTTTTTTTT SHELLXN     TELAPSE       44.75 TCPU      606.25
 TTTTTTTTTTTTTTTTTTTTTTTTTTTTTT MONMO3      TELAPSE       45.34 TCPU      624.98
 NUMERICALLY INTEGRATED DENSITY    395.9999887909
 TTTTTTTTTTTTTTTTTTTTTTTTTTTTTT NUMDFT      TELAPSE       46.78 TCPU      671.18
 CYC   0 ETOT(AU) -2.591919734398E+03 DETOT -2.59E+03 tst  0.00E+00 PX  1.00E+00
 TTTTTTTTTTTTTTTTTTTTTTTTTTTTTT DIIS        TELAPSE       46.89 TCPU      674.60
 TTTTTTTTTTTTTTTTTTTTTTTTTTTTTT FDIK        TELAPSE       48.73 TCPU      733.16
 INSULATING STATE
 TOP OF VALENCE BANDS -    BAND    198; K    3; EIG -3.1041298E-01 AU
 TOP OF VALENCE BANDS -    BAND    198; K    1; EIG -3.1041624E-01 AU
 BOTTOM OF VIRTUAL BANDS - BAND    199; K    1; EIG -1.6011118E-01 AU
 INDIRECT ENERGY BAND GAP:   4.0899 eV
 TTTTTTTTTTTTTTTTTTTTTTTTTTTTTT PDIG        TELAPSE       50.31 TCPU      740.13
 CHARGE NORMALIZATION FACTOR   1.00000000
 TOTAL ATOMIC CHARGES:
   4.1590967   4.1366030   4.1563438   4.1647574   4.1565729   4.1650216
   4.1646214   4.1562127   4.1643936   4.1559912   4.1363317   4.1586893
   0.7853631   0.7854276   0.7855420   0.7854784   0.7846774   0.7851613
   0.7852802   0.7848010   0.7857196   0.7860492   0.7862132   0.7858866
   0.7857102   0.7860390   0.7861754   0.7858487   0.7846826   0.7851640
   0.7853455   0.7848648   0.7853157   0.7853790   0.7855361   0.7854717
   6.0440398   6.0444637   6.2670045   6.2664598   6.2664246   6.2669697
   6.2654794   6.2648440   6.2647864   6.2654223   6.0437321   6.0432987
   6.0451164   6.0524376   6.2660062   6.2651784   6.2652507   6.2660887
   6.2659183   6.2650899   6.2652581   6.2660948   6.0511773   6.0438773
   6.0444002   6.0448241   6.2652541   6.2646075   6.2651597   6.2658009
   6.2666366   6.2660808   6.2666995   6.2672499   6.0432654   6.0428295
   8.6955820   8.6959730   8.6956881   8.6960912   8.6997595   8.6911040
   8.6963928   8.6960085   8.6915120   8.7001377   8.6965688   8.6961877
 TTTTTTTTTTTTTTTTTTTTTTTTTTTTTT MOQGAD      TELAPSE       50.41 TCPU      740.23
 TTTTTTTTTTTTTTTTTTTTTTTTTTTTTT SHELLXN     TELAPSE       68.43 TCPU     1315.02
 TTTTTTTTTTTTTTTTTTTTTTTTTTTTTT MONMO3      TELAPSE       69.02 TCPU     1333.73
 NUMERICALLY INTEGRATED DENSITY    395.9999848536
 TTTTTTTTTTTTTTTTTTTTTTTTTTTTTT NUMDFT      TELAPSE       70.48 TCPU     1380.58
 CYC   1 ETOT(AU) -2.577644353639E+03 DETOT  1.43E+01 tst  0.00E+00 PX  1.00E+00
 TTTTTTTTTTTTTTTTTTTTTTTTTTTTTT DIIS        TELAPSE       70.62 TCPU     1384.82
 DIIS TEST: 0.22059E+01 AT SCF   CYCLE   1 - MIX   30 %
 TTTTTTTTTTTTTTTTTTTTTTTTTTTTTT FDIK        TELAPSE       72.47 TCPU     1444.03
 INSULATING STATE
 TOP OF VALENCE BANDS -    BAND    198; K    1; EIG -2.1837809E-01 AU
 BOTTOM OF VIRTUAL BANDS - BAND    199; K    1; EIG -8.1788074E-02 AU
 DIRECT ENERGY BAND GAP:   3.7168 eV
 TTTTTTTTTTTTTTTTTTTTTTTTTTTTTT PDIG        TELAPSE       74.04 TCPU     1450.98
 CHARGE NORMALIZATION FACTOR   1.00000000
 TOTAL ATOMIC CHARGES:
   4.6616982   4.6875225   4.6963136   4.7042245   4.6962802   4.7042496
   4.7044533   4.6966686   4.7044236   4.6966614   4.6878892   4.6617414
   0.9127349   0.9064938   0.9065917   0.9127516   0.9188753   0.9159437
   0.9159886   0.9189113   0.9125389   0.9014518   0.9014358   0.9126840
   0.9125251   0.9014099   0.9014285   0.9126431   0.9188595   0.9159294
   0.9160632   0.9189633   0.9126765   0.9064265   0.9066073   0.9127416
   5.8679449   5.8653566   6.1479572   6.0969878   6.0974425   6.1484143
   6.1387377   6.1492397   6.1498847   6.1396339   5.8681552   5.8706495
   5.8458295   5.9247382   6.1309759   6.1494408   6.1503036   6.1316453
   6.1311708   6.1496969   6.1502117   6.1316557   5.9280205   5.8489069
   5.8678986   5.8652967   6.1388151   6.1493025   6.1497386   6.1395185
   6.1481720   6.0972140   6.0971829   6.1481439   5.8683516   5.8708913
   8.3336292   8.3323522   8.3340044   8.3327032   8.3619503   8.3416821
   8.3322328   8.3334396   8.3414091   8.3618110   8.3326460   8.3338131
 TTTTTTTTTTTTTTTTTTTTTTTTTTTTTT MOQGAD      TELAPSE       74.14 TCPU     1451.08
 TTTTTTTTTTTTTTTTTTTTTTTTTTTTTT SHELLXN     TELAPSE       92.16 TCPU     2025.81
 TTTTTTTTTTTTTTTTTTTTTTTTTTTTTT MONMO3      TELAPSE       92.75 TCPU     2044.53
 NUMERICALLY INTEGRATED DENSITY    395.9999843944
 TTTTTTTTTTTTTTTTTTTTTTTTTTTTTT NUMDFT      TELAPSE       94.21 TCPU     2091.40
 CYC   2 ETOT(AU) -2.578031015512E+03 DETOT -3.87E-01 tst  4.35E-03 PX  1.59E-01
 TTTTTTTTTTTTTTTTTTTTTTTTTTTTTT DIIS        TELAPSE       94.37 TCPU     2096.35
 DIIS TEST: 0.91999E+00 AT SCF   CYCLE   2 - DIIS ACTIVE - HISTORY:     2 CYCLES
 TTTTTTTTTTTTTTTTTTTTTTTTTTTTTT FDIK        TELAPSE       96.21 TCPU     2155.35
 INSULATING STATE
 TOP OF VALENCE BANDS -    BAND    198; K    1; EIG -2.3256888E-01 AU
 BOTTOM OF VIRTUAL BANDS - BAND    199; K    1; EIG -7.7838930E-02 AU
 DIRECT ENERGY BAND GAP:   4.2104 eV
 TTTTTTTTTTTTTTTTTTTTTTTTTTTTTT PDIG        TELAPSE       97.79 TCPU     2162.31
 CHARGE NORMALIZATION FACTOR   1.00000000
 TOTAL ATOMIC CHARGES:
   4.4792948   4.4693689   4.4884190   4.5016561   4.4885188   4.5017678
   4.5012173   4.4879307   4.5010701   4.4877660   4.4687908   4.4787149
   0.8942872   0.8795139   0.8795195   0.8945448   0.8919450   0.8940307
   0.8941422   0.8920086   0.8877171   0.8842141   0.8845541   0.8877915
   0.8877462   0.8842106   0.8845007   0.8877161   0.8919337   0.8940286
   0.8942000   0.8920511   0.8942895   0.8795129   0.8794793   0.8944913
   5.8855340   5.8972809   6.1553521   6.1710788   6.1706242   6.1549538
   6.1640451   6.1537532   6.1530135   6.1630386   5.8961386   5.8841713
   5.9224746   5.8992037   6.1679795   6.1553144   6.1547546   6.1675819
   6.1680730   6.1555355   6.1546532   6.1676403   5.8974252   5.9211720
   5.8858777   5.8975881   6.1640221   6.1536877   6.1531489   6.1631284
   6.1552343   6.1709998   6.1706332   6.1550001   5.8958082   5.8838781
   8.5177477   8.5155871   8.5178989   8.5157429   8.5187440   8.5074606
   8.5156917   8.5180399   8.5076795   8.5185428   8.5158744   8.5182481
 TTTTTTTTTTTTTTTTTTTTTTTTTTTTTT MOQGAD      TELAPSE       97.89 TCPU     2162.40
 TTTTTTTTTTTTTTTTTTTTTTTTTTTTTT SHELLXN     TELAPSE      115.90 TCPU     2737.16
 TTTTTTTTTTTTTTTTTTTTTTTTTTTTTT MONMO3      TELAPSE      116.49 TCPU     2755.88
 NUMERICALLY INTEGRATED DENSITY    395.9999831206
 TTTTTTTTTTTTTTTTTTTTTTTTTTTTTT NUMDFT      TELAPSE      117.96 TCPU     2802.77
 CYC   3 ETOT(AU) -2.578220142980E+03 DETOT -1.89E-01 tst  6.43E-04 PX  6.61E-02
 TTTTTTTTTTTTTTTTTTTTTTTTTTTTTT DIIS        TELAPSE      118.14 TCPU     2808.46
 DIIS TEST: 0.32527E-01 AT SCF   CYCLE   3 - DIIS ACTIVE - HISTORY:     3 CYCLES
 TTTTTTTTTTTTTTTTTTTTTTTTTTTTTT FDIK        TELAPSE      119.98 TCPU     2867.57
 INSULATING STATE
 TOP OF VALENCE BANDS -    BAND    198; K    1; EIG -2.4186106E-01 AU
 BOTTOM OF VIRTUAL BANDS - BAND    199; K    1; EIG -8.6374115E-02 AU
 DIRECT ENERGY BAND GAP:   4.2310 eV
 TTTTTTTTTTTTTTTTTTTTTTTTTTTTTT PDIG        TELAPSE      121.56 TCPU     2874.52
 CHARGE NORMALIZATION FACTOR   1.00000000
 TOTAL ATOMIC CHARGES:
   4.4796809   4.4816015   4.4969163   4.5021790   4.4970099   4.5022826
   4.5023667   4.4971897   4.5022187   4.4970436   4.4817580   4.4795580
   0.8722633   0.8699689   0.8701229   0.8722415   0.8778839   0.8740437
   0.8740711   0.8778964   0.8735491   0.8643619   0.8642425   0.8737911
   0.8735715   0.8643465   0.8641954   0.8737220   0.8778937   0.8740446
   0.8741346   0.8779170   0.8722508   0.8699394   0.8701032   0.8721989
   5.9411967   5.9312534   6.1773512   6.1406701   6.1413197   6.1778064
   6.1690133   6.1752511   6.1764736   6.1708922   5.9347378   5.9445903
   5.9099442   5.9946231   6.1566352   6.1824791   6.1837571   6.1575223
   6.1565973   6.1825947   6.1837953   6.1577070   5.9981606   5.9129657
   5.9412347   5.9312708   6.1689225   6.1751579   6.1765569   6.1710183
   6.1772258   6.1405954   6.1413675   6.1778509   5.9347429   5.9446518
   8.4782151   8.4811624   8.4785094   8.4814247   8.5032910   8.4838183
   8.4813235   8.4781216   8.4837654   8.5037553   8.4816735   8.4784482
 TTTTTTTTTTTTTTTTTTTTTTTTTTTTTT MOQGAD      TELAPSE      121.88 TCPU     2874.62
 TTTTTTTTTTTTTTTTTTTTTTTTTTTTTT SHELLXN     TELAPSE      139.90 TCPU     3449.30
 TTTTTTTTTTTTTTTTTTTTTTTTTTTTTT MONMO3      TELAPSE      140.49 TCPU     3468.02
 NUMERICALLY INTEGRATED DENSITY    395.9999834033
 TTTTTTTTTTTTTTTTTTTTTTTTTTTTTT NUMDFT      TELAPSE      141.95 TCPU     3514.92
 CYC   4 ETOT(AU) -2.578226261624E+03 DETOT -6.12E-03 tst  7.44E-05 PX  2.33E-02
 TTTTTTTTTTTTTTTTTTTTTTTTTTTTTT DIIS        TELAPSE      142.15 TCPU     3521.24
 DIIS TEST: 0.11903E-01 AT SCF   CYCLE   4 - DIIS ACTIVE - HISTORY:     4 CYCLES
 TTTTTTTTTTTTTTTTTTTTTTTTTTTTTT FDIK        TELAPSE      144.00 TCPU     3580.45
 INSULATING STATE
 TOP OF VALENCE BANDS -    BAND    198; K    1; EIG -2.4079714E-01 AU
 BOTTOM OF VIRTUAL BANDS - BAND    199; K    1; EIG -8.5899173E-02 AU
 DIRECT ENERGY BAND GAP:   4.2150 eV
 TTTTTTTTTTTTTTTTTTTTTTTTTTTTTT PDIG        TELAPSE      145.58 TCPU     3587.41
 CHARGE NORMALIZATION FACTOR   1.00000000
 TOTAL ATOMIC CHARGES:
   4.4796756   4.4821913   4.4971905   4.5070911   4.4972758   4.5071950
   4.5068528   4.4969737   4.5067149   4.4968332   4.4818757   4.4793042
   0.8775011   0.8681962   0.8682368   0.8777250   0.8793392   0.8777600
   0.8779239   0.8794645   0.8729140   0.8681333   0.8684369   0.8730215
   0.8729235   0.8681102   0.8683999   0.8729609   0.8793300   0.8777551
   0.8779895   0.8795076   0.8774818   0.8681708   0.8682166   0.8776887
   5.9191860   5.9278570   6.1695710   6.1583125   6.1579253   6.1693063
   6.1716803   6.1708431   6.1699269   6.1704250   5.9265886   5.9177760
   5.9371250   5.9464612   6.1737406   6.1683952   6.1679362   6.1733764
   6.1738784   6.1686343   6.1678247   6.1734106   5.9450494   5.9360871
   5.9194338   5.9280763   6.1716573   6.1707946   6.1699997   6.1704821
   6.1695314   6.1583073   6.1578801   6.1692768   5.9263798   5.9176109
   8.4902961   8.4884469   8.4904923   8.4886394   8.5006667   8.4878370
   8.4884332   8.4905084   8.4878979   8.5002515   8.4886753   8.4907475
 TTTTTTTTTTTTTTTTTTTTTTTTTTTTTT MOQGAD      TELAPSE      145.68 TCPU     3587.51
 TTTTTTTTTTTTTTTTTTTTTTTTTTTTTT SHELLXN     TELAPSE      163.70 TCPU     4162.27
 TTTTTTTTTTTTTTTTTTTTTTTTTTTTTT MONMO3      TELAPSE      164.28 TCPU     4180.97
 NUMERICALLY INTEGRATED DENSITY    395.9999834221
 TTTTTTTTTTTTTTTTTTTTTTTTTTTTTT NUMDFT      TELAPSE      165.75 TCPU     4227.83
 CYC   5 ETOT(AU) -2.578228915001E+03 DETOT -2.65E-03 tst  4.00E-05 PX  1.24E-02
 TTTTTTTTTTTTTTTTTTTTTTTTTTTTTT DIIS        TELAPSE      165.98 TCPU     4234.72
 DIIS TEST: 0.99301E-03 AT SCF   CYCLE   5 - DIIS ACTIVE - HISTORY:     5 CYCLES
 TTTTTTTTTTTTTTTTTTTTTTTTTTTTTT FDIK        TELAPSE      167.82 TCPU     4293.58
 INSULATING STATE
 TOP OF VALENCE BANDS -    BAND    198; K    1; EIG -2.4021976E-01 AU
 BOTTOM OF VIRTUAL BANDS - BAND    199; K    1; EIG -8.5654729E-02 AU
 DIRECT ENERGY BAND GAP:   4.2059 eV
 TTTTTTTTTTTTTTTTTTTTTTTTTTTTTT PDIG        TELAPSE      169.40 TCPU     4300.53
 CHARGE NORMALIZATION FACTOR   1.00000000
 TOTAL ATOMIC CHARGES:
   4.4802316   4.4821362   4.4976526   4.5064279   4.4977420   4.5065316
   4.5064672   4.4977105   4.5063271   4.4975684   4.4821142   4.4799953
   0.8781132   0.8699137   0.8700356   0.8781683   0.8805926   0.8792624
   0.8792864   0.8806065   0.8762312   0.8690052   0.8690074   0.8764326
   0.8762547   0.8689909   0.8689590   0.8763626   0.8805930   0.8792597
   0.8793505   0.8806372   0.8781026   0.8698902   0.8700134   0.8781247
   5.9190116   5.9187214   6.1707403   6.1551551   6.1554991   6.1709426
   6.1694655   6.1684728   6.1694011   6.1708751   5.9212694   5.9213960
   5.9157319   5.9563260   6.1639381   6.1739329   6.1747518   6.1645183
   6.1639328   6.1740793   6.1747521   6.1646732   5.9585018   5.9176402
   5.9191640   5.9188490   6.1694090   6.1683976   6.1694982   6.1709778
   6.1706138   6.1550790   6.1555287   6.1709891   5.9211500   5.9213273
   8.4910482   8.4912581   8.4912959   8.4914853   8.5055295   8.4895222
   8.4914273   8.4910472   8.4895931   8.5059334   8.4917155   8.4913342
 TTTTTTTTTTTTTTTTTTTTTTTTTTTTTT MOQGAD      TELAPSE      169.50 TCPU     4300.63
 TTTTTTTTTTTTTTTTTTTTTTTTTTTTTT SHELLXN     TELAPSE      187.52 TCPU     4875.56
 TTTTTTTTTTTTTTTTTTTTTTTTTTTTTT MONMO3      TELAPSE      188.11 TCPU     4894.25
 NUMERICALLY INTEGRATED DENSITY    395.9999834397
 TTTTTTTTTTTTTTTTTTTTTTTTTTTTTT NUMDFT      TELAPSE      189.57 TCPU     4941.10
 CYC   6 ETOT(AU) -2.578229092013E+03 DETOT -1.77E-04 tst  8.87E-06 PX  4.88E-03
 TTTTTTTTTTTTTTTTTTTTTTTTTTTTTT DIIS        TELAPSE      189.82 TCPU     4947.99
 DIIS TEST: 0.33110E-03 AT SCF   CYCLE   6 - DIIS ACTIVE - HISTORY:     6 CYCLES
 TTTTTTTTTTTTTTTTTTTTTTTTTTTTTT FDIK        TELAPSE      191.67 TCPU     5006.75
 INSULATING STATE
 TOP OF VALENCE BANDS -    BAND    198; K    1; EIG -2.4024541E-01 AU
 BOTTOM OF VIRTUAL BANDS - BAND    199; K    1; EIG -8.5426613E-02 AU
 DIRECT ENERGY BAND GAP:   4.2128 eV
 TTTTTTTTTTTTTTTTTTTTTTTTTTTTTT PDIG        TELAPSE      193.24 TCPU     5013.70
 CHARGE NORMALIZATION FACTOR   1.00000000
 TOTAL ATOMIC CHARGES:
   4.4808052   4.4819552   4.4973619   4.5065077   4.4974517   4.5066113
   4.5063374   4.4972249   4.5061976   4.4970819   4.4817037   4.4804632
   0.8783684   0.8700916   0.8701537   0.8785273   0.8806723   0.8791853
   0.8793133   0.8807641   0.8756953   0.8691561   0.8693517   0.8758309
   0.8757116   0.8691368   0.8693099   0.8757662   0.8806693   0.8791837
   0.8793762   0.8807989   0.8783548   0.8700690   0.8701306   0.8784865
   5.9200264   5.9221046   6.1707205   6.1549965   6.1548985   6.1706508
   6.1696139   6.1700248   6.1696248   6.1691205   5.9220380   5.9198471
   5.9237251   5.9536602   6.1669300   6.1717556   6.1717505   6.1668987
   6.1670082   6.1719596   6.1716836   6.1669811   5.9535414   5.9237444
   5.9202229   5.9222716   6.1695632   6.1699544   6.1697169   6.1692140
   6.1706380   6.1549555   6.1548929   6.1706562   5.9218797   5.9197338
   8.4903719   8.4899226   8.4905912   8.4901314   8.5040499   8.4893318
   8.4899822   8.4905310   8.4893669   8.5038703   8.4902505   8.4907915
 TTTTTTTTTTTTTTTTTTTTTTTTTTTTTT MOQGAD      TELAPSE      193.34 TCPU     5013.80
 TTTTTTTTTTTTTTTTTTTTTTTTTTTTTT SHELLXN     TELAPSE      211.35 TCPU     5588.55
 TTTTTTTTTTTTTTTTTTTTTTTTTTTTTT MONMO3      TELAPSE      211.94 TCPU     5607.25
 NUMERICALLY INTEGRATED DENSITY    395.9999834181
 TTTTTTTTTTTTTTTTTTTTTTTTTTTTTT NUMDFT      TELAPSE      213.40 TCPU     5654.08
 CYC   7 ETOT(AU) -2.578229175548E+03 DETOT -8.35E-05 tst  1.23E-06 PX  1.77E-03
 TTTTTTTTTTTTTTTTTTTTTTTTTTTTTT DIIS        TELAPSE      213.67 TCPU     5661.01
 DIIS TEST: 0.92365E-05 AT SCF   CYCLE   7 - DIIS ACTIVE - HISTORY:     7 CYCLES
 TTTTTTTTTTTTTTTTTTTTTTTTTTTTTT FDIK        TELAPSE      215.52 TCPU     5719.85
 INSULATING STATE
 TOP OF VALENCE BANDS -    BAND    198; K    1; EIG -2.4029707E-01 AU
 BOTTOM OF VIRTUAL BANDS - BAND    199; K    1; EIG -8.5482820E-02 AU
 DIRECT ENERGY BAND GAP:   4.2127 eV
 TTTTTTTTTTTTTTTTTTTTTTTTTTTTTT PDIG        TELAPSE      217.10 TCPU     5726.80
 CHARGE NORMALIZATION FACTOR   1.00000000
 TOTAL ATOMIC CHARGES:
   4.4805829   4.4819994   4.4974613   4.5066060   4.4975503   4.5067098
   4.5065439   4.4974191   4.5064040   4.4972766   4.4818701   4.4802960
   0.8784120   0.8698918   0.8699845   0.8785263   0.8805821   0.8792134
   0.8792841   0.8806316   0.8755959   0.8691788   0.8692838   0.8757633
   0.8756147   0.8691620   0.8692392   0.8756964   0.8805793   0.8792102
   0.8793484   0.8806664   0.8783991   0.8698687   0.8699623   0.8784847
   5.9192169   5.9218658   6.1699694   6.1555755   6.1556597   6.1700053
   6.1697317   6.1690887   6.1693798   6.1702180   5.9230992   5.9202929
   5.9231505   5.9532022   6.1668443   6.1715492   6.1719241   6.1670999
   6.1668933   6.1717296   6.1718827   6.1672095   5.9541457   5.9240434
   5.9194028   5.9220257   6.1696863   6.1690225   6.1694682   6.1703054
   6.1698746   6.1555246   6.1556628   6.1700238   5.9229486   5.9201905
   8.4904246   8.4900272   8.4906542   8.4902423   8.5038165   8.4889141
   8.4901284   8.4904953   8.4889833   8.5039356   8.4904014   8.4907654
 TTTTTTTTTTTTTTTTTTTTTTTTTTTTTT MOQGAD      TELAPSE      217.20 TCPU     5726.90
 TTTTTTTTTTTTTTTTTTTTTTTTTTTTTT SHELLXN     TELAPSE      235.20 TCPU     6301.39
 TTTTTTTTTTTTTTTTTTTTTTTTTTTTTT MONMO3      TELAPSE      235.79 TCPU     6320.11
 NUMERICALLY INTEGRATED DENSITY    395.9999834173
 TTTTTTTTTTTTTTTTTTTTTTTTTTTTTT NUMDFT      TELAPSE      237.26 TCPU     6367.01
 CYC   8 ETOT(AU) -2.578229177231E+03 DETOT -1.68E-06 tst  2.62E-08 PX  2.62E-04
 TTTTTTTTTTTTTTTTTTTTTTTTTTTTTT DIIS        TELAPSE      237.54 TCPU     6373.83
 DIIS TEST: 0.19137E-05 AT SCF   CYCLE   8 - DIIS ACTIVE - HISTORY:     8 CYCLES
 TTTTTTTTTTTTTTTTTTTTTTTTTTTTTT FDIK        TELAPSE      239.40 TCPU     6432.82
 INSULATING STATE
 TOP OF VALENCE BANDS -    BAND    198; K    1; EIG -2.4028976E-01 AU
 BOTTOM OF VIRTUAL BANDS - BAND    199; K    1; EIG -8.5491281E-02 AU
 DIRECT ENERGY BAND GAP:   4.2123 eV
 TTTTTTTTTTTTTTTTTTTTTTTTTTTTTT PDIG        TELAPSE      240.97 TCPU     6439.77
 CHARGE NORMALIZATION FACTOR   1.00000000
 TOTAL ATOMIC CHARGES:
   4.4805180   4.4821110   4.4975278   4.5066504   4.4976166   4.5067539
   4.5065416   4.4974453   4.5064020   4.4973031   4.4819292   4.4802075
   0.8783521   0.8699256   0.8700044   0.8784859   0.8805963   0.8791632
   0.8792608   0.8806658   0.8755791   0.8691300   0.8692764   0.8757330
   0.8755970   0.8691122   0.8692328   0.8756669   0.8805934   0.8791605
   0.8793248   0.8807006   0.8783389   0.8699024   0.8699820   0.8784447
   5.9195350   5.9220246   6.1701936   6.1554314   6.1554369   6.1701843
   6.1698354   6.1693556   6.1693295   6.1698749   5.9226630   5.9200374
   5.9232940   5.9534068   6.1669133   6.1716928   6.1718941   6.1670350
   6.1669713   6.1718815   6.1718448   6.1671360   5.9538641   5.9237882
   5.9197245   5.9221870   6.1697886   6.1692880   6.1694189   6.1699639
   6.1701032   6.1553844   6.1554367   6.1701983   5.9225098   5.9199313
   8.4904714   8.4900502   8.4906975   8.4902631   8.5038769   8.4889820
   8.4901348   8.4905831   8.4890329   8.5038593   8.4904058   8.4908498
 TTTTTTTTTTTTTTTTTTTTTTTTTTTTTT MOQGAD      TELAPSE      241.07 TCPU     6439.87
 TTTTTTTTTTTTTTTTTTTTTTTTTTTTTT SHELLXN     TELAPSE      259.09 TCPU     7014.61
 TTTTTTTTTTTTTTTTTTTTTTTTTTTTTT MONMO3      TELAPSE      259.67 TCPU     7033.33
 NUMERICALLY INTEGRATED DENSITY    395.9999834177
 TTTTTTTTTTTTTTTTTTTTTTTTTTTTTT NUMDFT      TELAPSE      261.14 TCPU     7080.18
 CYC   9 ETOT(AU) -2.578229177360E+03 DETOT -1.29E-07 tst  4.78E-09 PX  1.09E-04
 TTTTTTTTTTTTTTTTTTTTTTTTTTTTTT DIIS        TELAPSE      261.45 TCPU     7087.12
 DIIS TEST: 0.14467E-06 AT SCF   CYCLE   9 - DIIS ACTIVE - HISTORY:     9 CYCLES
 TTTTTTTTTTTTTTTTTTTTTTTTTTTTTT FDIK        TELAPSE      263.30 TCPU     7146.04
 INSULATING STATE
 TOP OF VALENCE BANDS -    BAND    198; K    1; EIG -2.4028692E-01 AU
 BOTTOM OF VIRTUAL BANDS - BAND    199; K    1; EIG -8.5485647E-02 AU
 DIRECT ENERGY BAND GAP:   4.2124 eV
 TTTTTTTTTTTTTTTTTTTTTTTTTTTTTT PDIG        TELAPSE      264.88 TCPU     7152.99
 CHARGE NORMALIZATION FACTOR   1.00000000
 TOTAL ATOMIC CHARGES:
   4.4805571   4.4820854   4.4974921   4.5066227   4.4975810   4.5067263
   4.5065276   4.4974213   4.5063879   4.4972790   4.4819192   4.4802536
   0.8783495   0.8699311   0.8700142   0.8784778   0.8806076   0.8791598
   0.8792493   0.8806713   0.8755805   0.8691368   0.8692708   0.8757380
   0.8755984   0.8691190   0.8692272   0.8756719   0.8806048   0.8791571
   0.8793132   0.8807060   0.8783363   0.8699080   0.8699918   0.8784366
   5.9194483   5.9219118   6.1702469   6.1553845   6.1554119   6.1702505
   6.1697034   6.1693897   6.1694584   6.1698748   5.9227261   5.9201202
   5.9233049   5.9533063   6.1668905   6.1716587   6.1719132   6.1670546
   6.1669488   6.1718471   6.1718636   6.1671555   5.9539072   5.9239168
   5.9196377   5.9220739   6.1696562   6.1693221   6.1695480   6.1699643
   6.1701562   6.1553370   6.1554120   6.1702647   5.9225732   5.9200143
   8.4904607   8.4900242   8.4906869   8.4902372   8.5038901   8.4890418
   8.4901126   8.4905599   8.4890993   8.5039130   8.4903839   8.4908267
 TTTTTTTTTTTTTTTTTTTTTTTTTTTTTT MOQGAD      TELAPSE      264.98 TCPU     7153.09
 TTTTTTTTTTTTTTTTTTTTTTTTTTTTTT SHELLXN     TELAPSE      282.99 TCPU     7727.84
 +++ ENERGIES IN A.U. +++
 ::: EXT EL-POLE                                  -2.6375559240850E+03
 ::: EXT EL-SPHEROPOLE                             3.0157676073245E+01
 ::: BIELET ZONE E-E                               4.3499889046927E+03
 ::: TOTAL E-E                                     1.7425906566810E+03
 ::: TOTAL E-N + N-E                              -7.1409975844259E+03
 ::: TOTAL N-N                                     5.2777280030670E+02
 ::: KINETIC ENERGY                                2.5598307768258E+03
 ::: PSEUDO TOTAL   ENERGY                        -2.3108033506124E+03
 ::: VIRIAL COEFFICIENT                            1.0511283376451E+00
 TTTTTTTTTTTTTTTTTTTTTTTTTTTTTT MONMO3      TELAPSE      283.57 TCPU     7746.55
 NUMERICALLY INTEGRATED DENSITY    395.9999834173
 EXCHANGE ENERGY: -0.252042708408E+03  CORRELATION ENERGY: -0.153831184153E+02
 TTTTTTTTTTTTTTTTTTTTTTTTTTTTTT NUMDFT      TELAPSE      285.04 TCPU     7793.39
 CYC  10 ETOT(AU) -2.578229177436E+03 DETOT -7.59E-08 tst  4.24E-10 PX  1.09E-04

 == SCF ENDED - CONVERGENCE ON ENERGY      E(AU) -2.5782291774356E+03 CYCLES  10


 ENERGY EXPRESSION=HARTREE+FOCK EXCH*0.00000+(HSESOL     EXCH)*1.00000+PBESOL     CORR


 TOTAL ENERGY(DFT)(AU)( 10) -2.5782291774356E+03 DE-7.6E-08 tester 4.2E-10
 TTTTTTTTTTTTTTTTTTTTTTTTTTTTTT EDFT        TELAPSE      285.04 TCPU     7793.40
 
 INFORMATION **** DFTD3 ENERGY **** CALCULATE DFTD3 ENERGY

           DFT-D V3(BJ)
 DF                                         hsesol3c  
 parameters
 s6       :    1.0000
 s8       :    0.0000
 a1       :    0.5196
 a2       :    4.9385
 k1 k3    :   16.0000   -4.0000
 Cutoff   :   50.2022
 CN-Cutoff:   21.1671
 ABC-Cutoff:   21.1671
 
 Edisp /kcal,au:   -52.9131 -0.08432233

 E6    /kcal :   -56.5265
 E8    /kcal :     0.0000
 E6(ABC) "   :   3.613388
 
 INFORMATION **** DFTD3 ENERGY **** NORMAL TERMINATION OF DFTD3 MODULE

 GCP ENERGY CALCULATION
  level        hsesol3c            basis:hsesol3c
  Nbf            948
  Atoms           84

  Parameters: 
  sigma     1.0000
  eta       1.4281
  alpha     0.2936
  beta      1.9467

  dmp_scal      4.0000
  dmp_exp       6.0000
 cutoffs: 
   distance [bohr] 60.0
   noise    [a.u.] 2.2E-16
 SR-damping   T
 ** gCP correction **
  Egcp:        0.1660826580 / (a.u.) ||     104.2185 / (kcal/mol)
 INFORMATION **** GCP **** NORMAL TERMINATION OF GCP MODULE

 *******************************************************************************

 DFT-D3-GCP DISPERSION AND COUNTERPOISE CORRECTION

 D3 DISPERSION ENERGY (AU)      -8.4322332860109E-02
 GCP ENERGY (AU)                 1.6608265801782E-01
 TOTAL ENERGY + DISP + GCP (AU) -2.5781474171105E+03

 *******************************************************************************

 EIGENVECTORS IN FORTRAN UNIT  8
 TTTTTTTTTTTTTTTTTTTTTTTTTTTTTT END         TELAPSE      288.05 TCPU     7802.32
 EEEEEEEEEE TERMINATION  DATE 19 02 2026 TIME 20:24:44.4
