 Default number of threads is:           64

         
 *******************************************************************************
 *                                                                             *
 *                               CRYSTAL23                                     *
 *                      public : 1.0.1 - October 2022                          *
 *                       HTTP://WWW.CRYSTAL.UNITO.IT                           *
 *                                                                             *
 *                              MAIN AUTHORS                                   *
 *                                                                             *
 *  R. DOVESI(1,11), V.R. SAUNDERS(2), C. ROETTI(1,11), R. ORLANDO(1,11),      *
 *  C.M. ZICOVICH-WILSON(1,3), F. PASCALE(4), B. CIVALLERI(1,11),              *
 *  K. DOLL(5), N.M. HARRISON(6), I.J. BUSH(7), Ph. D'ARCO(8),                 *
 *  M. LLUNELL(9), M. CAUSA'(10), Y. NOEL(8), L. MASCHIO(1,11), A. ERBA(1,11)  *
 *  M. RE'RAT(14), S. CASASSA(1,11), B.G. SEARLE(2), J.K. DESMARAIS(1)         *
 *                                                                             *
 *        CONTRIBUTIONS TO THE CODE HAVE ALSO BEEN GIVEN BY                    *
 *                                                                             *
 *  M. FERRABONE(1,11), M. DE LA PIERRE(1,11), M. FERRERO(1,11),               *
 *  J. BAIMA(1,11), E. ALBANESE(1,11), M.F. PEINTINGER(12), R. BAST(13),       *
 *  B. KIRTMAN(15), V. LACIVITA(1,11), R. DEMICHELIS(1,16)                     *
 *  G. BRANDEBURG(17), S. SALUSTRO(1,11), G. SANSONE(1,11)                     *
 *  M.T. RUGGIERO(18), L.E. DAGA(1), L. DONA'(1), A. COSSARD(1)                *
 *                                                                             *
 * (1) THEORETICAL CHEMISTRY GROUP - UNIVERSITA' DI TORINO - TORINO (ITALY)    *
 * (2) SCIENTIFIC COMPUTING DEPARTMENT - STFC DARESBURY (UK)                   *
 * (3) UNIVERSIDAD AUTONOMA DEL ESTADO DE MORELOS - CUERNAVACA (MEXICO)        *
 * (4) UNIVERSITE' DE LORRAINE - NANCY (FRANCE)                                *
 * (5) UNIVERSITAET STUTTGART- STUTTGART (GERMANY)                             *
 * (6) IMPERIAL COLLEGE - LONDON (UK)                                          *
 * (7) SCIENTIFIC COMPUTING DEPARTMENT - STFC RAL (UK)                         *
 * (8) UPMC - SORBONNE UNIVERSITES - PARIS (FRANCE)                            *
 * (9) UNIVERSIDAD DE BARCELONA - BARCELONA (SPAIN)                            *
 *(10) UNIVERSITA' DI NAPOLI "FEDERICO II" - NAPOLI (ITALY)                    *
 *(11) NIS - NANOSTRUCTURED INTERFACES AND SURFACES - TORINO (ITALY)           *
 *(12) MPI FUER CHEMISCHE ENERGIEKONVERSION - MUELHEIM AN DER RUHR (GERMANY)   *
 *(13) UNIVERSITY OF TROMSO - TROMSO (NORWAY)                                  *
 *(14) UNIVERSITE' DE PAU ET DES PAYS DE L'ADOUR - PAU (FRANCE)                *
 *(15) UNIVERSITY OF CALIFORNIA SANTA BARBARA - SANTA BARBARA (USA)            *
 *(16) CURTIN UNIVERSITY - PERTH (AUSTRALIA)                                   *
 *(17) UNIVERSITY COLLEGE LONDON - LONDON (UK)                                 *
 *(18) UNIVERSITY OF VERMONT - BURLINGTON (USA)                                *
 *                                                                             *
 *******************************************************************************
 EEEEEEEEEE STARTING  DATE 20 02 2026 TIME 15:28:25.6
 cof-1_z33_L020_serr                                                             

 CRYSTAL CALCULATION
 (INPUT ACCORDING TO THE INTERNATIONAL TABLES FOR X-RAY CRYSTALLOGRAPHY)
 CRYSTAL FAMILY                       :  TRICLINIC   
 CRYSTAL CLASS  (GROTH - 1921)        :  TRICLINIC PEDIAL                     

 SPACE GROUP (NONCENTROSYMMETRIC)     :  P 1             

 LATTICE PARAMETERS  (ANGSTROMS AND DEGREES) - CONVENTIONAL CELL
        A           B           C        ALPHA        BETA       GAMMA
    15.02361    15.02392     6.60000    90.00032    89.99994   119.99596


 NUMBER OF IRREDUCIBLE ATOMS IN THE CONVENTIONAL CELL:   84

 INPUT COORDINATES

 ATOM AT. N.              COORDINATES
   1   5     6.136805400000E-01  2.273182200000E-01  2.507237400000E-01
   2   5     6.905271000000E-01  3.810269500000E-01  7.507237400000E-01
   3   5     7.727362000000E-01  3.863778800000E-01  2.507237500000E-01
   4   5     8.495827600000E-01  5.400866100000E-01  7.507237500000E-01
   5   5     6.136762700000E-01  3.863606700000E-01  2.492020600000E-01
   6   5     6.905228300000E-01  5.400694000000E-01  7.492020600000E-01
   7   5     2.272552500000E-01  6.136332200000E-01  2.507237500000E-01
   8   5     3.041018100000E-01  7.673419500000E-01  7.507237500000E-01
   9   5     3.863632200000E-01  6.136124500000E-01  2.507237500000E-01
  10   5     4.632097800000E-01  7.673211800000E-01  7.507237500000E-01
  11   5     3.863435000000E-01  7.727516500000E-01  2.492020600000E-01
  12   5     4.631900600000E-01  9.264603800000E-01  7.492020600000E-01
  13   1     9.030436200000E-01  3.089300500000E-01  2.475689700000E-01
  14   1     9.798901800000E-01  4.626387800000E-01  7.475689700000E-01
  15   1     9.663453000000E-02  6.910534400000E-01  2.470865600000E-01
  16   1     1.734810900000E-01  8.447621700000E-01  7.470865500000E-01
  17   1     9.029714200000E-01  5.940724300000E-01  2.470123000000E-01
  18   1     9.798179800000E-01  7.477811600000E-01  7.470123000000E-01
  19   1     9.673618000000E-02  4.056849400000E-01  2.470308300000E-01
  20   1     1.735827400000E-01  5.593936700000E-01  7.470308200000E-01
  21   1     6.910324000000E-01  9.700412000000E-02  2.524310500000E-01
  22   1     7.678789600000E-01  2.507128500000E-01  7.524310500000E-01
  23   1     3.089297200000E-01  9.034373100000E-01  2.529135000000E-01
  24   1     3.857762800000E-01  5.714604000000E-02  7.529135000000E-01
  25   1     4.058699900000E-01  9.704998000000E-02  2.529877900000E-01
  26   1     4.827165500000E-01  2.507587100000E-01  7.529877900000E-01
  27   1     5.943122100000E-01  9.033473200000E-01  2.529691500000E-01
  28   1     6.711587700000E-01  5.705605000000E-02  7.529691500000E-01
  29   1     6.910727400000E-01  5.940542100000E-01  2.475690000000E-01
  30   1     7.679193000000E-01  7.477629400000E-01  7.475690000000E-01
  31   1     3.089618300000E-01  4.056093300000E-01  2.470865300000E-01
  32   1     3.858083900000E-01  5.593180600000E-01  7.470865200000E-01
  33   1     4.058405700000E-01  3.088232500000E-01  2.470122500000E-01
  34   1     4.826871300000E-01  4.625319800000E-01  7.470122500000E-01
  35   1     5.942908800000E-01  6.909579300000E-01  2.470308900000E-01
  36   1     6.711374400000E-01  8.446666600000E-01  7.470308800000E-01
  37   6     8.918903100000E-01  4.459436900000E-01  2.491463800000E-01
  38   6     9.687368700000E-01  5.996524200000E-01  7.491463800000E-01
  39   6     9.464891100000E-01  3.927856300000E-01  2.476432100000E-01
  40   6     2.333567000000E-02  5.464943600000E-01  7.476432100000E-01
  41   6     5.338812000000E-02  6.071853000000E-01  2.475133600000E-01
  42   6     1.302346800000E-01  7.608940300000E-01  7.475133600000E-01
  43   6     9.464521100000E-01  5.536921900000E-01  2.479030600000E-01
  44   6     2.329867000000E-02  7.074009200000E-01  7.479030600000E-01
  45   6     5.342634000000E-02  4.462499700000E-01  2.469009200000E-01
  46   6     1.302729000000E-01  5.999587000000E-01  7.469009300000E-01
  47   6     1.080358900000E-01  5.540356300000E-01  2.479216000000E-01
  48   6     1.848824500000E-01  7.077443600000E-01  7.479216000000E-01
  49   6     5.540394200000E-01  1.081684600000E-01  2.508536600000E-01
  50   6     6.308859800000E-01  2.618771900000E-01  7.508536600000E-01
  51   6     6.071778500000E-01  5.355594000000E-02  2.523568000000E-01
  52   6     6.840244100000E-01  2.072646700000E-01  7.523568000000E-01
  53   6     3.927986700000E-01  9.466631600000E-01  2.524867000000E-01
  54   6     4.696452300000E-01  1.003718900000E-01  7.524867000000E-01
  55   6     4.462875800000E-01  5.360286000000E-02  2.520970100000E-01
  56   6     5.231341400000E-01  2.073115900000E-01  7.520970100000E-01
  57   6     5.537168500000E-01  9.466235600000E-01  2.530990800000E-01
  58   6     6.305634100000E-01  1.003322900000E-01  7.530990800000E-01
  59   6     4.459279100000E-01  8.919920600000E-01  2.520784300000E-01
  60   6     5.227744700000E-01  4.570079000000E-02  7.520784300000E-01
  61   6     5.540448700000E-01  4.458745500000E-01  2.491463800000E-01
  62   6     6.308914300000E-01  5.995832800000E-01  7.491463800000E-01
  63   6     6.072102200000E-01  5.536257800000E-01  2.476432500000E-01
  64   6     6.840567800000E-01  7.073345100000E-01  7.476432500000E-01
  65   6     3.928233700000E-01  4.461720300000E-01  2.475133300000E-01
  66   6     4.696699300000E-01  5.998807600000E-01  7.475133300000E-01
  67   6     4.462872600000E-01  3.926899900000E-01  2.479030200000E-01
  68   6     5.231338200000E-01  5.463987200000E-01  7.479030200000E-01
  69   6     5.537429600000E-01  6.070980000000E-01  2.469009700000E-01
  70   6     6.305895200000E-01  7.608067300000E-01  7.469009600000E-01
  71   6     4.459599800000E-01  5.539582300000E-01  2.479216000000E-01
  72   6     5.228065400000E-01  7.076669600000E-01  7.479216000000E-01
  73   8     5.607366800000E-01  2.803706300000E-01  2.496103100000E-01
  74   8     6.375832400000E-01  4.340793600000E-01  7.496103100000E-01
  75   8     7.196817000000E-01  2.803783300000E-01  2.528207200000E-01
  76   8     7.965282600000E-01  4.340870600000E-01  7.528207200000E-01
  77   8     7.196794200000E-01  4.393234600000E-01  2.479772800000E-01
  78   8     7.965259800000E-01  5.930321900000E-01  7.479772800000E-01
  79   8     2.803245100000E-01  7.196511100000E-01  2.496103300000E-01
  80   8     3.571710700000E-01  8.733598400000E-01  7.496103300000E-01
  81   8     2.803439700000E-01  5.606956100000E-01  2.528207100000E-01
  82   8     3.571905300000E-01  7.144043400000E-01  7.528207100000E-01
  83   8     4.392638400000E-01  7.196354200000E-01  2.479772700000E-01
  84   8     5.161104000000E-01  8.733441500000E-01  7.479772800000E-01

 *******************************************************************************

 << INFORMATION >>: FROM NOW ON, ALL COORDINATES REFER TO THE PRIMITIVE CELL

 *******************************************************************************

 LATTICE PARAMETERS  (ANGSTROMS AND DEGREES) - PRIMITIVE CELL
       A          B          C        ALPHA      BETA     GAMMA        VOLUME
   15.02361   15.02392    6.60000    90.00032  89.99994 119.99596   1290.178217

 COORDINATES OF THE EQUIVALENT ATOMS (FRACTIONAL UNITS)

 N. ATOM EQUIV AT. N.          X                  Y                  Z

   1   1   1    5 B    -3.86319460000E-01  2.27318220000E-01  2.50723740000E-01

   2   2   1    5 B    -3.09472900000E-01  3.81026950000E-01 -2.49276260000E-01

   3   3   1    5 B    -2.27263800000E-01  3.86377880000E-01  2.50723750000E-01

   4   4   1    5 B    -1.50417240000E-01 -4.59913390000E-01 -2.49276250000E-01

   5   5   1    5 B    -3.86323730000E-01  3.86360670000E-01  2.49202060000E-01

   6   6   1    5 B    -3.09477170000E-01 -4.59930600000E-01 -2.50797940000E-01

   7   7   1    5 B     2.27255250000E-01 -3.86366780000E-01  2.50723750000E-01

   8   8   1    5 B     3.04101810000E-01 -2.32658050000E-01 -2.49276250000E-01

   9   9   1    5 B     3.86363220000E-01 -3.86387550000E-01  2.50723750000E-01

  10  10   1    5 B     4.63209780000E-01 -2.32678820000E-01 -2.49276250000E-01

  11  11   1    5 B     3.86343500000E-01 -2.27248350000E-01  2.49202060000E-01

  12  12   1    5 B     4.63190060000E-01 -7.35396200000E-02 -2.50797940000E-01

  13  13   1    1 H    -9.69563800000E-02  3.08930050000E-01  2.47568970000E-01

  14  14   1    1 H    -2.01098200000E-02  4.62638780000E-01 -2.52431030000E-01

  15  15   1    1 H     9.66345300000E-02 -3.08946560000E-01  2.47086560000E-01

  16  16   1    1 H     1.73481090000E-01 -1.55237830000E-01 -2.52913450000E-01

  17  17   1    1 H    -9.70285800000E-02 -4.05927570000E-01  2.47012300000E-01

  18  18   1    1 H    -2.01820200000E-02 -2.52218840000E-01 -2.52987700000E-01

  19  19   1    1 H     9.67361800000E-02  4.05684940000E-01  2.47030830000E-01

  20  20   1    1 H     1.73582740000E-01 -4.40606330000E-01 -2.52969180000E-01

  21  21   1    1 H    -3.08967600000E-01  9.70041200000E-02  2.52431050000E-01

  22  22   1    1 H    -2.32121040000E-01  2.50712850000E-01 -2.47568950000E-01

  23  23   1    1 H     3.08929720000E-01 -9.65626900000E-02  2.52913500000E-01

  24  24   1    1 H     3.85776280000E-01  5.71460400000E-02 -2.47086500000E-01

  25  25   1    1 H     4.05869990000E-01  9.70499800000E-02  2.52987790000E-01

  26  26   1    1 H     4.82716550000E-01  2.50758710000E-01 -2.47012210000E-01

  27  27   1    1 H    -4.05687790000E-01 -9.66526800000E-02  2.52969150000E-01

  28  28   1    1 H    -3.28841230000E-01  5.70560500000E-02 -2.47030850000E-01

  29  29   1    1 H    -3.08927260000E-01 -4.05945790000E-01  2.47569000000E-01

  30  30   1    1 H    -2.32080700000E-01 -2.52237060000E-01 -2.52431000000E-01

  31  31   1    1 H     3.08961830000E-01  4.05609330000E-01  2.47086530000E-01

  32  32   1    1 H     3.85808390000E-01 -4.40681940000E-01 -2.52913480000E-01

  33  33   1    1 H     4.05840570000E-01  3.08823250000E-01  2.47012250000E-01

  34  34   1    1 H     4.82687130000E-01  4.62531980000E-01 -2.52987750000E-01

  35  35   1    1 H    -4.05709120000E-01 -3.09042070000E-01  2.47030890000E-01

  36  36   1    1 H    -3.28862560000E-01 -1.55333340000E-01 -2.52969120000E-01

  37  37   1    6 C    -1.08109690000E-01  4.45943690000E-01  2.49146380000E-01

  38  38   1    6 C    -3.12631300000E-02 -4.00347580000E-01 -2.50853620000E-01

  39  39   1    6 C    -5.35108900000E-02  3.92785630000E-01  2.47643210000E-01

  40  40   1    6 C     2.33356700000E-02 -4.53505640000E-01 -2.52356790000E-01

  41  41   1    6 C     5.33881200000E-02 -3.92814700000E-01  2.47513360000E-01

  42  42   1    6 C     1.30234680000E-01 -2.39105970000E-01 -2.52486640000E-01

  43  43   1    6 C    -5.35478900000E-02 -4.46307810000E-01  2.47903060000E-01

  44  44   1    6 C     2.32986700000E-02 -2.92599080000E-01 -2.52096940000E-01

  45  45   1    6 C     5.34263400000E-02  4.46249970000E-01  2.46900920000E-01

  46  46   1    6 C     1.30272900000E-01 -4.00041300000E-01 -2.53099070000E-01

  47  47   1    6 C     1.08035890000E-01 -4.45964370000E-01  2.47921600000E-01

  48  48   1    6 C     1.84882450000E-01 -2.92255640000E-01 -2.52078400000E-01

  49  49   1    6 C    -4.45960580000E-01  1.08168460000E-01  2.50853660000E-01

  50  50   1    6 C    -3.69114020000E-01  2.61877190000E-01 -2.49146340000E-01

  51  51   1    6 C    -3.92822150000E-01  5.35559400000E-02  2.52356800000E-01

  52  52   1    6 C    -3.15975590000E-01  2.07264670000E-01 -2.47643200000E-01

  53  53   1    6 C     3.92798670000E-01 -5.33368400000E-02  2.52486700000E-01

  54  54   1    6 C     4.69645230000E-01  1.00371890000E-01 -2.47513300000E-01

  55  55   1    6 C     4.46287580000E-01  5.36028600000E-02  2.52097010000E-01

  56  56   1    6 C    -4.76865860000E-01  2.07311590000E-01 -2.47902990000E-01

  57  57   1    6 C    -4.46283150000E-01 -5.33764400000E-02  2.53099080000E-01

  58  58   1    6 C    -3.69436590000E-01  1.00332290000E-01 -2.46900920000E-01

  59  59   1    6 C     4.45927910000E-01 -1.08007940000E-01  2.52078430000E-01

  60  60   1    6 C    -4.77225530000E-01  4.57007900000E-02 -2.47921570000E-01

  61  61   1    6 C    -4.45955130000E-01  4.45874550000E-01  2.49146380000E-01

  62  62   1    6 C    -3.69108570000E-01 -4.00416720000E-01 -2.50853620000E-01

  63  63   1    6 C    -3.92789780000E-01 -4.46374220000E-01  2.47643250000E-01

  64  64   1    6 C    -3.15943220000E-01 -2.92665490000E-01 -2.52356750000E-01

  65  65   1    6 C     3.92823370000E-01  4.46172030000E-01  2.47513330000E-01

  66  66   1    6 C     4.69669930000E-01 -4.00119240000E-01 -2.52486670000E-01

  67  67   1    6 C     4.46287260000E-01  3.92689990000E-01  2.47903020000E-01

  68  68   1    6 C    -4.76866180000E-01 -4.53601280000E-01 -2.52096980000E-01

  69  69   1    6 C    -4.46257040000E-01 -3.92902000000E-01  2.46900970000E-01

  70  70   1    6 C    -3.69410480000E-01 -2.39193270000E-01 -2.53099040000E-01

  71  71   1    6 C     4.45959980000E-01 -4.46041770000E-01  2.47921600000E-01

  72  72   1    6 C    -4.77193460000E-01 -2.92333040000E-01 -2.52078400000E-01

  73  73   1    8 O    -4.39263320000E-01  2.80370630000E-01  2.49610310000E-01

  74  74   1    8 O    -3.62416760000E-01  4.34079360000E-01 -2.50389690000E-01

  75  75   1    8 O    -2.80318300000E-01  2.80378330000E-01  2.52820720000E-01

  76  76   1    8 O    -2.03471740000E-01  4.34087060000E-01 -2.47179280000E-01

  77  77   1    8 O    -2.80320580000E-01  4.39323460000E-01  2.47977280000E-01

  78  78   1    8 O    -2.03474020000E-01 -4.06967810000E-01 -2.52022720000E-01

  79  79   1    8 O     2.80324510000E-01 -2.80348890000E-01  2.49610330000E-01

  80  80   1    8 O     3.57171070000E-01 -1.26640160000E-01 -2.50389670000E-01

  81  81   1    8 O     2.80343970000E-01 -4.39304390000E-01  2.52820710000E-01

  82  82   1    8 O     3.57190530000E-01 -2.85595660000E-01 -2.47179290000E-01

  83  83   1    8 O     4.39263840000E-01 -2.80364580000E-01  2.47977270000E-01

  84  84   1    8 O    -4.83889600000E-01 -1.26655850000E-01 -2.52022720000E-01

 NUMBER OF SYMMETRY OPERATORS         :    1
 *******************************************************************************
 * GEOMETRY EDITING - INPUT COORDINATES ARE GIVEN IN ANGSTROM         
 *******************************************************************************
 INFORMATION **** NEW DEFAULT **** FINALRUN 4 FOR GEOMETRY OPTIMIZATIONS
 INFORMATION **** NEW DEFAULT **** OPTGEOM OPTIMIZES BOTH ATOMIC COORDINATES AND CELL PARAMETERS
 INFORMATION **** NEW DEFAULT **** TOL. ON ATOMIC DISP TO REDEFINE REF. GEOMETRY: 0.8 Angs
 INFORMATION **** NEW DEFAULT **** N POINTS TO REDEFINE REF. GEOMETRY: N OF OPT DEGS OF FREEDOM
 INFORMATION **** NEW DEFAULT **** TOL. ON ENERGY TO REDEFINE REF. GEOMETRY: 10**-3*(5*N. ATOMS)
 INFORMATION **** MAXTRADIUS **** MAX ALLOWED TRUST RADIUS  8.000000E-01

 IMPORTANT INFORMATION:
 THE COORDINATE SYSTEM ADOPTED IN THE OPTIMIZATION IS NOT IN
 GENERAL HOMOGENEOUS UNITS. FOR THIS REASON THE GRADIENT AND 
 HESSIAN MATRIX IN TERMS OF THIS SYSTEM ARE GIVEN WITHOUT
 UNITS. FOR MORE DETAILS SEE THE MANUAL.

 *******************************************************************************
 COMBINED CELL/ATOM OPTIMIZATION CONTROL

 INITIAL TRUST RADIUS         0.50000 MAXIMUM TRUST RADIUS               0.80000
 MAXIMUM GRADIENT COMPONENT   0.00045 MAXIMUM DISPLACEMENT COMPONENT     0.00180
 R.M.S. OF GRADIENT COMPONENT 0.00030 R.M.S. OF DISPLACEMENT COMPONENTS  0.00120
 THRESHOLD ON ENERGY CHANGE 0.100E-06 EXTRAPOLATING POLYNOMIAL ORDER           2
 MAXIMUM ALLOWED NUMBER OF STEPS   -1 SORTING OF ENERGY POINTS:               NO
 ANALYTICAL  GRADIENT                 HESSIAN UPDATING                      BFGS
 STEP SIZE NUMERICAL GRADIENT 0.00100
 INITIAL HESSIAN MATRIX: SCHLEGEL MODEL 2
 *******************************************************************************


 GCALCO - MAX INDICES DIRECT LATTICE VECTOR    11    11    23
 NO.OF VECTORS CREATED 6999 STARS 3500 RMAX   244.92321 BOHR

 GEOMETRY FOR WAVE FUNCTION - DIMENSIONALITY OF THE SYSTEM    3
 (NON PERIODIC DIRECTION: LATTICE PARAMETER FORMALLY SET TO 500)
 *******************************************************************************
 LATTICE PARAMETERS (ANGSTROMS AND DEGREES) - BOHR = 0.5291772083 ANGSTROM
 PRIMITIVE CELL - CENTRING CODE 1/0 VOLUME=  1290.178217 - DENSITY  1.004 g/cm^3
         A              B              C           ALPHA      BETA       GAMMA 
    15.02361100    15.02391600     6.60000000    90.000323  89.999944 119.995964
 *******************************************************************************
 ATOMS IN THE ASYMMETRIC UNIT   84 - ATOMS IN THE UNIT CELL:   84
     ATOM                 X/A                 Y/B                 Z/C    
 *******************************************************************************
      1 T   5 B    -3.863194600000E-01  2.273182200000E-01  2.507237400000E-01
      2 T   5 B    -3.094729000000E-01  3.810269500000E-01 -2.492762600000E-01
      3 T   5 B    -2.272638000000E-01  3.863778800000E-01  2.507237500000E-01
      4 T   5 B    -1.504172400000E-01 -4.599133900000E-01 -2.492762500000E-01
      5 T   5 B    -3.863237300000E-01  3.863606700000E-01  2.492020600000E-01
      6 T   5 B    -3.094771700000E-01 -4.599306000000E-01 -2.507979400000E-01
      7 T   5 B     2.272552500000E-01 -3.863667800000E-01  2.507237500000E-01
      8 T   5 B     3.041018100000E-01 -2.326580500000E-01 -2.492762500000E-01
      9 T   5 B     3.863632200000E-01 -3.863875500000E-01  2.507237500000E-01
     10 T   5 B     4.632097800000E-01 -2.326788200000E-01 -2.492762500000E-01
     11 T   5 B     3.863435000000E-01 -2.272483500000E-01  2.492020600000E-01
     12 T   5 B     4.631900600000E-01 -7.353962000000E-02 -2.507979400000E-01
     13 T   1 H    -9.695638000000E-02  3.089300500000E-01  2.475689700000E-01
     14 T   1 H    -2.010982000000E-02  4.626387800000E-01 -2.524310300000E-01
     15 T   1 H     9.663453000000E-02 -3.089465600000E-01  2.470865600000E-01
     16 T   1 H     1.734810900000E-01 -1.552378300000E-01 -2.529134500000E-01
     17 T   1 H    -9.702858000000E-02 -4.059275700000E-01  2.470123000000E-01
     18 T   1 H    -2.018202000000E-02 -2.522188400000E-01 -2.529877000000E-01
     19 T   1 H     9.673618000000E-02  4.056849400000E-01  2.470308300000E-01
     20 T   1 H     1.735827400000E-01 -4.406063300000E-01 -2.529691800000E-01
     21 T   1 H    -3.089676000000E-01  9.700412000000E-02  2.524310500000E-01
     22 T   1 H    -2.321210400000E-01  2.507128500000E-01 -2.475689500000E-01
     23 T   1 H     3.089297200000E-01 -9.656269000000E-02  2.529135000000E-01
     24 T   1 H     3.857762800000E-01  5.714604000000E-02 -2.470865000000E-01
     25 T   1 H     4.058699900000E-01  9.704998000000E-02  2.529877900000E-01
     26 T   1 H     4.827165500000E-01  2.507587100000E-01 -2.470122100000E-01
     27 T   1 H    -4.056877900000E-01 -9.665268000000E-02  2.529691500000E-01
     28 T   1 H    -3.288412300000E-01  5.705605000000E-02 -2.470308500000E-01
     29 T   1 H    -3.089272600000E-01 -4.059457900000E-01  2.475690000000E-01
     30 T   1 H    -2.320807000000E-01 -2.522370600000E-01 -2.524310000000E-01
     31 T   1 H     3.089618300000E-01  4.056093300000E-01  2.470865300000E-01
     32 T   1 H     3.858083900000E-01 -4.406819400000E-01 -2.529134800000E-01
     33 T   1 H     4.058405700000E-01  3.088232500000E-01  2.470122500000E-01
     34 T   1 H     4.826871300000E-01  4.625319800000E-01 -2.529877500000E-01
     35 T   1 H    -4.057091200000E-01 -3.090420700000E-01  2.470308900000E-01
     36 T   1 H    -3.288625600000E-01 -1.553333400000E-01 -2.529691200000E-01
     37 T   6 C    -1.081096900000E-01  4.459436900000E-01  2.491463800000E-01
     38 T   6 C    -3.126313000000E-02 -4.003475800000E-01 -2.508536200000E-01
     39 T   6 C    -5.351089000000E-02  3.927856300000E-01  2.476432100000E-01
     40 T   6 C     2.333567000000E-02 -4.535056400000E-01 -2.523567900000E-01
     41 T   6 C     5.338812000000E-02 -3.928147000000E-01  2.475133600000E-01
     42 T   6 C     1.302346800000E-01 -2.391059700000E-01 -2.524866400000E-01
     43 T   6 C    -5.354789000000E-02 -4.463078100000E-01  2.479030600000E-01
     44 T   6 C     2.329867000000E-02 -2.925990800000E-01 -2.520969400000E-01
     45 T   6 C     5.342634000000E-02  4.462499700000E-01  2.469009200000E-01
     46 T   6 C     1.302729000000E-01 -4.000413000000E-01 -2.530990700000E-01
     47 T   6 C     1.080358900000E-01 -4.459643700000E-01  2.479216000000E-01
     48 T   6 C     1.848824500000E-01 -2.922556400000E-01 -2.520784000000E-01
     49 T   6 C    -4.459605800000E-01  1.081684600000E-01  2.508536600000E-01
     50 T   6 C    -3.691140200000E-01  2.618771900000E-01 -2.491463400000E-01
     51 T   6 C    -3.928221500000E-01  5.355594000000E-02  2.523568000000E-01
     52 T   6 C    -3.159755900000E-01  2.072646700000E-01 -2.476432000000E-01
     53 T   6 C     3.927986700000E-01 -5.333684000000E-02  2.524867000000E-01
     54 T   6 C     4.696452300000E-01  1.003718900000E-01 -2.475133000000E-01
     55 T   6 C     4.462875800000E-01  5.360286000000E-02  2.520970100000E-01
     56 T   6 C    -4.768658600000E-01  2.073115900000E-01 -2.479029900000E-01
     57 T   6 C    -4.462831500000E-01 -5.337644000000E-02  2.530990800000E-01
     58 T   6 C    -3.694365900000E-01  1.003322900000E-01 -2.469009200000E-01
     59 T   6 C     4.459279100000E-01 -1.080079400000E-01  2.520784300000E-01
     60 T   6 C    -4.772255300000E-01  4.570079000000E-02 -2.479215700000E-01
     61 T   6 C    -4.459551300000E-01  4.458745500000E-01  2.491463800000E-01
     62 T   6 C    -3.691085700000E-01 -4.004167200000E-01 -2.508536200000E-01
     63 T   6 C    -3.927897800000E-01 -4.463742200000E-01  2.476432500000E-01
     64 T   6 C    -3.159432200000E-01 -2.926654900000E-01 -2.523567500000E-01
     65 T   6 C     3.928233700000E-01  4.461720300000E-01  2.475133300000E-01
     66 T   6 C     4.696699300000E-01 -4.001192400000E-01 -2.524866700000E-01
     67 T   6 C     4.462872600000E-01  3.926899900000E-01  2.479030200000E-01
     68 T   6 C    -4.768661800000E-01 -4.536012800000E-01 -2.520969800000E-01
     69 T   6 C    -4.462570400000E-01 -3.929020000000E-01  2.469009700000E-01
     70 T   6 C    -3.694104800000E-01 -2.391932700000E-01 -2.530990400000E-01
     71 T   6 C     4.459599800000E-01 -4.460417700000E-01  2.479216000000E-01
     72 T   6 C    -4.771934600000E-01 -2.923330400000E-01 -2.520784000000E-01
     73 T   8 O    -4.392633200000E-01  2.803706300000E-01  2.496103100000E-01
     74 T   8 O    -3.624167600000E-01  4.340793600000E-01 -2.503896900000E-01
     75 T   8 O    -2.803183000000E-01  2.803783300000E-01  2.528207200000E-01
     76 T   8 O    -2.034717400000E-01  4.340870600000E-01 -2.471792800000E-01
     77 T   8 O    -2.803205800000E-01  4.393234600000E-01  2.479772800000E-01
     78 T   8 O    -2.034740200000E-01 -4.069678100000E-01 -2.520227200000E-01
     79 T   8 O     2.803245100000E-01 -2.803488900000E-01  2.496103300000E-01
     80 T   8 O     3.571710700000E-01 -1.266401600000E-01 -2.503896700000E-01
     81 T   8 O     2.803439700000E-01 -4.393043900000E-01  2.528207100000E-01
     82 T   8 O     3.571905300000E-01 -2.855956600000E-01 -2.471792900000E-01
     83 T   8 O     4.392638400000E-01 -2.803645800000E-01  2.479772700000E-01
     84 T   8 O    -4.838896000000E-01 -1.266558500000E-01 -2.520227200000E-01

 T = ATOM BELONGING TO THE ASYMMETRIC UNIT

 ****    1 SYMMOPS - TRANSLATORS IN FRACTIONAL UNITS
 **** MATRICES AND TRANSLATORS IN THE CRYSTALLOGRAPHIC REFERENCE FRAME
   V INV                    ROTATION MATRICES                   TRANSLATORS
   1   1  1.00 -0.00  0.00  0.00  1.00  0.00  0.00  0.00  1.00  0.00  0.00  0.00

 DIRECT LATTICE VECTORS CARTESIAN COMPONENTS (ANGSTROM)
          X                    Y                    Z
   0.130113578931E+02  -0.751088897922E+01   0.000000000000E+00
   0.000000000000E+00   0.150239160000E+02   0.000000000000E+00
  -0.140295695767E-04  -0.372069289925E-04   0.659999999988E+01


 CARTESIAN COORDINATES - PRIMITIVE CELL
 *******************************************************************************
 *      ATOM          X(ANGSTROM)         Y(ANGSTROM)         Z(ANGSTROM)
 *******************************************************************************
    1     5 B    -5.026544272659E+00  6.316803088460E+00  1.654776683970E+00
    2     5 B    -4.026659162863E+00 -6.974973240684E+00 -1.645223315970E+00
    3     5 B    -2.957014155482E+00  7.511852655512E+00  1.654776749970E+00
    4     5 B    -1.957129045687E+00 -5.779923673631E+00 -1.645223249970E+00
    5     5 B    -5.026599809808E+00 -6.317640374193E+00  1.644733595970E+00
    6     5 B    -4.026714700013E+00 -4.585500703336E+00 -1.655266403970E+00
    7     5 B     2.956895873280E+00 -7.511640329265E+00  1.654776749970E+00
    8     5 B     3.956780983075E+00 -5.779500658409E+00 -1.645223249970E+00
    9     5 B     5.027106614587E+00  6.316921325621E+00  1.654776749970E+00
   10     5 B    -6.984366168674E+00  5.360339756938E-01 -1.645223249970E+00
   11     5 B     5.026850051958E+00 -6.315952529924E+00  1.644733595970E+00
   12     5 B     6.026735161754E+00 -4.583812859067E+00 -1.655266403970E+00
   13     1 H    -1.261537633481E+00  5.369558515801E+00  1.633955201970E+00
   14     1 H    -2.616525236862E-01  7.101698186658E+00 -1.666044797970E+00
   15     1 H     1.257342988139E+00 -5.367407585650E+00  1.630771295970E+00
   16     1 H     2.257228097934E+00 -3.635267914793E+00 -1.669228769970E+00
   17     1 H    -1.262477045711E+00 -5.369860012142E+00  1.630281179970E+00
   18     1 H    -2.625919359163E-01 -3.637720341286E+00 -1.669718819970E+00
   19     1 H     1.258665593451E+00  5.368392561513E+00  1.630403477970E+00
   20     1 H     2.258550703246E+00  7.100532232370E+00 -1.669596587970E+00
   21     1 H    -4.020091562458E+00  3.777993700125E+00  1.666044929970E+00
   22     1 H    -3.020206452663E+00  5.510133370981E+00 -1.633955069970E+00
   23     1 H     4.019591602454E+00 -3.771095982729E+00  1.669229099970E+00
   24     1 H     5.019476712249E+00 -2.038956311873E+00 -1.630770899970E+00
   25     1 H     5.280916148631E+00 -1.590383100463E+00  1.669719413970E+00
   26     1 H     6.280801258427E+00  1.417565703937E-01 -1.630280585970E+00
   27     1 H    -5.278552577581E+00  1.594964793214E+00  1.669596389970E+00
   28     1 H    -4.278667467786E+00  3.327104464070E+00 -1.630403609970E+00
   29     1 H    -4.019566616068E+00 -3.778586308282E+00  1.633955399970E+00
   30     1 H    -3.019681506273E+00 -2.046446637426E+00 -1.666044599970E+00
   31     1 H     4.020009478906E+00  3.773253305460E+00  1.630771097970E+00
   32     1 H     5.019894588701E+00  5.505392976317E+00 -1.669228967970E+00
   33     1 H     5.280533438317E+00  1.591501911748E+00  1.630280849970E+00
   34     1 H     6.280418548112E+00  3.323641582604E+00 -1.669719149970E+00
   35     1 H    -5.278830026534E+00 -1.595795133231E+00  1.630403873970E+00
   36     1 H    -4.278944916739E+00  1.363445376256E-01 -1.669596191970E+00
   37     6 C    -1.406657363714E+00  7.511811148486E+00  1.644366107970E+00
   38     6 C    -4.067722539188E-01 -5.779965180658E+00 -1.655633891970E+00
   39     6 C    -6.962528152936E-01  6.303083451053E+00  1.634445185970E+00
   40     6 C     3.036322945014E-01 -6.988692878091E+00 -1.665554813970E+00
   41     6 C     6.946484640515E-01 -6.302616507706E+00  1.633588175970E+00
   42     6 C     1.694533573847E+00 -4.570476836850E+00 -1.666411823970E+00
   43     6 C    -6.967342391813E-01 -6.303108014434E+00  1.636160195970E+00
   44     6 C     3.031508706138E-01 -4.570968343578E+00 -1.663839803970E+00
   45     6 C     6.951457667425E-01  6.303133569552E+00  1.629546071970E+00
   46     6 C     1.695030876537E+00 -6.988642759592E+00 -1.670453861970E+00
   47     6 C     1.405690151852E+00 -7.511586033835E+00  1.636282559970E+00
   48     6 C     2.405575261647E+00 -5.779446362979E+00 -1.663717439970E+00
   49     6 C     7.208801661113E+00 -2.536224050334E+00  1.655634155970E+00
   50     6 C     8.208686770908E+00 -8.040843794780E-01 -1.644365843970E+00
   51     6 C    -5.111153122427E+00  3.755054111667E+00  1.665554879970E+00
   52     6 C    -4.111268012632E+00  5.487193782523E+00 -1.634445119970E+00
   53     6 C     5.110840533007E+00 -3.751604799674E+00  1.666412219970E+00
   54     6 C     6.110725642802E+00 -2.019465128818E+00 -1.633587779970E+00
   55     6 C     5.806803889794E+00 -2.546700979939E+00  1.663840265970E+00
   56     6 C     6.806688999589E+00 -8.145613090825E-01 -1.636159733970E+00
   57     6 C    -5.806753337162E+00  2.550050624966E+00  1.670453927970E+00
   58     6 C    -4.806868227367E+00  4.282190295823E+00 -1.629546071970E+00
   59     6 C     5.802124094961E+00 -4.972026621701E+00  1.663717637970E+00
   60     6 C     6.802009204756E+00 -3.239886950845E+00 -1.636282361970E+00
   61     6 C     7.208872596966E+00  2.537403007692E+00  1.644366107970E+00
   62     6 C    -4.802600186296E+00 -3.243484342235E+00 -1.655633891970E+00
   63     6 C    -5.110731878643E+00 -3.756097570139E+00  1.634445449970E+00
   64     6 C    -4.110846768848E+00 -2.023957899283E+00 -1.665554549970E+00
   65     6 C     5.111161983321E+00  3.752789170547E+00  1.633587977970E+00
   66     6 C    -6.900310799940E+00 -2.028098179380E+00 -1.666412021970E+00
   67     6 C     5.806799784999E+00  2.547718137392E+00  1.636159931970E+00
   68     6 C    -6.204672998263E+00 -3.233169212535E+00 -1.663840067970E+00
   69     6 C    -5.806413523650E+00 -2.551148747025E+00  1.629546401970E+00
   70     6 C    -4.806528413855E+00 -8.190090761682E-01 -1.670453663970E+00
   71     6 C     5.802541427527E+00  4.973056791674E+00  1.636282559970E+00
   72     6 C    -6.208931355735E+00 -8.078305582533E-01 -1.663717439970E+00
   73     8 O     7.295942125319E+00  6.245566995733E-04  1.647428045970E+00
   74     8 O    -4.715530657942E+00 -5.780262793227E+00 -1.652571953970E+00
   75     8 O    -3.647325272239E+00  6.317810701600E+00  1.668616751970E+00
   76     8 O    -2.647440162444E+00 -6.973965627543E+00 -1.631383247970E+00
   77     8 O    -3.647354870184E+00 -6.318109711634E+00  1.636650047970E+00
   78     8 O    -2.647469760389E+00 -4.585970040778E+00 -1.663349951970E+00
   79     8 O     3.647399023880E+00 -6.317433734050E+00  1.647428177970E+00
   80     8 O     4.647284133675E+00 -4.585294063194E+00 -1.652571821970E+00
   81     8 O     3.647652179865E+00  6.318201904864E+00  1.668616685970E+00
   82     8 O     4.647537289660E+00 -6.973574424280E+00 -1.631383313970E+00
   83     8 O    -7.295942340353E+00 -5.560813757980E-04  1.636649981970E+00
   84     8 O    -6.296057230558E+00  1.731583589480E+00 -1.663349951970E+00

 *******************************************************************************
 STARTING BASIS SET HANDLING 
 *******************************************************************************

 Loading internal basis set: SOLDEF2MSVP         

 Please cite in your publication:
 L. Dona', J. G. Brandenburg and B. Civalleri, J. Chem. Phys., 151, 121101 (2019
 )                                                                              
                                                                                
                    

 *******************************************************************************
 LOCAL ATOMIC FUNCTIONS BASIS SET
 *******************************************************************************
   ATOM   X(AU)   Y(AU)   Z(AU)  N. TYPE  EXPONENT  S COEF   P COEF   D/F/G COEF
 *******************************************************************************
   1 B   -9.499  11.937   3.127
                                  1 S  
                                         2.410E+03 1.755E-03 0.000E+00 0.000E+00
                                         3.619E+02 1.344E-02 0.000E+00 0.000E+00
                                         8.231E+01 6.637E-02 0.000E+00 0.000E+00
                                         2.311E+01 2.303E-01 0.000E+00 0.000E+00
                                         7.252E+00 5.150E-01 0.000E+00 0.000E+00
                                  2 S  
                                         2.367E+00 1.000E+00 0.000E+00 0.000E+00
                                  3 S  
                                         5.533E-01 1.000E+00 0.000E+00 0.000E+00
                                  4 S  
                                         1.716E-01 1.000E+00 0.000E+00 0.000E+00
                           5-     7 P  
                                         6.002E+00 0.000E+00-3.555E-02 0.000E+00
                                         1.240E+00 0.000E+00-1.983E-01 0.000E+00
                                         3.367E-01 0.000E+00-5.048E-01 0.000E+00
                           8-    10 P  
                                         1.256E-01 0.000E+00 1.000E+00 0.000E+00
                          11-    15 D  
                                         8.880E-01 0.000E+00 0.000E+00 1.000E+00
   2 B   -7.609 -13.181  -3.109
   3 B   -5.588  14.195   3.127
   4 B   -3.698 -10.922  -3.109
   5 B   -9.499 -11.939   3.108
   6 B   -7.609  -8.665  -3.128
   7 B    5.588 -14.195   3.127
   8 B    7.477 -10.922  -3.109
   9 B    9.500  11.937   3.127
  10 B  -13.199   1.013  -3.109
  11 B    9.499 -11.935   3.108
  12 B   11.389  -8.662  -3.128
  13 H   -2.384  10.147   3.088
                                181 S  
                                         1.874E+01 1.968E-02 0.000E+00 0.000E+00
                                         2.826E+00 1.380E-01 0.000E+00 0.000E+00
                                         6.401E-01 4.783E-01 0.000E+00 0.000E+00
                                182 S  
                                         1.756E-01 1.000E+00 0.000E+00 0.000E+00
  14 H   -0.494  13.420  -3.148
  15 H    2.376 -10.143   3.082
  16 H    4.266  -6.870  -3.154
  17 H   -2.386 -10.148   3.081
  18 H   -0.496  -6.874  -3.155
  19 H    2.379  10.145   3.081
  20 H    4.268  13.418  -3.155
  21 H   -7.597   7.139   3.148
  22 H   -5.707  10.413  -3.088
  23 H    7.596  -7.126   3.154
  24 H    9.485  -3.853  -3.082
  25 H    9.979  -3.005   3.155
  26 H   11.869   0.268  -3.081
  27 H   -9.975   3.014   3.155
  28 H   -8.086   6.287  -3.081
  29 H   -7.596  -7.140   3.088
  30 H   -5.706  -3.867  -3.148
  31 H    7.597   7.130   3.082
  32 H    9.486  10.404  -3.154
  33 H    9.979   3.008   3.081
  34 H   11.868   6.281  -3.155
  35 H   -9.976  -3.016   3.081
  36 H   -8.086   0.258  -3.155
  37 C   -2.658  14.195   3.107
                                229 S  
                                         3.624E+03 1.634E-03 0.000E+00 0.000E+00
                                         5.440E+02 1.252E-02 0.000E+00 0.000E+00
                                         1.237E+02 6.211E-02 0.000E+00 0.000E+00
                                         3.476E+01 2.182E-01 0.000E+00 0.000E+00
                                         1.093E+01 4.980E-01 0.000E+00 0.000E+00
                                230 S  
                                         3.574E+00 1.000E+00 0.000E+00 0.000E+00
                                231 S  
                                         7.742E-01 1.000E+00 0.000E+00 0.000E+00
                                232 S  
                                         2.330E-01 1.000E+00 0.000E+00 0.000E+00
                         233-   235 P  
                                         9.443E+00 0.000E+00 3.790E-02 0.000E+00
                                         2.002E+00 0.000E+00 2.082E-01 0.000E+00
                                         5.463E-01 0.000E+00 5.047E-01 0.000E+00
                         236-   238 P  
                                         1.820E-01 0.000E+00 1.000E+00 0.000E+00
                         239-   243 D  
                                         8.880E-01 0.000E+00 0.000E+00 1.000E+00
  38 C   -0.769 -10.923  -3.129
  39 C   -1.316  11.911   3.089
  40 C    0.574 -13.207  -3.147
  41 C    1.313 -11.910   3.087
  42 C    3.202  -8.637  -3.149
  43 C   -1.317 -11.911   3.092
  44 C    0.573  -8.638  -3.144
  45 C    1.314  11.911   3.079
  46 C    3.203 -13.207  -3.157
  47 C    2.656 -14.195   3.092
  48 C    4.546 -10.922  -3.144
  49 C   13.623  -4.793   3.129
  50 C   15.512  -1.519  -3.107
  51 C   -9.659   7.096   3.147
  52 C   -7.769  10.369  -3.089
  53 C    9.658  -7.090   3.149
  54 C   11.548  -3.816  -3.087
  55 C   10.973  -4.813   3.144
  56 C   12.863  -1.539  -3.092
  57 C  -10.973   4.819   3.157
  58 C   -9.084   8.092  -3.079
  59 C   10.964  -9.396   3.144
  60 C   12.854  -6.122  -3.092
  61 C   13.623   4.795   3.107
  62 C   -9.076  -6.129  -3.129
  63 C   -9.658  -7.098   3.089
  64 C   -7.768  -3.825  -3.147
  65 C    9.659   7.092   3.087
  66 C  -13.040  -3.833  -3.149
  67 C   10.973   4.814   3.092
  68 C  -11.725  -6.110  -3.144
  69 C  -10.973  -4.821   3.079
  70 C   -9.083  -1.548  -3.157
  71 C   10.965   9.398   3.092
  72 C  -11.733  -1.527  -3.144
  73 O   13.787   0.001   3.113
                                769 S  
                                         6.773E+03 1.727E-03 0.000E+00 0.000E+00
                                         1.017E+03 1.325E-02 0.000E+00 0.000E+00
                                         2.313E+02 6.603E-02 0.000E+00 0.000E+00
                                         6.501E+01 2.353E-01 0.000E+00 0.000E+00
                                         2.050E+01 5.498E-01 0.000E+00 0.000E+00
                                770 S  
                                         6.716E+00 1.000E+00 0.000E+00 0.000E+00
                                771 S  
                                         1.147E+00 1.000E+00 0.000E+00 0.000E+00
                                772 S  
                                         3.342E-01 1.000E+00 0.000E+00 0.000E+00
                         773-   775 P  
                                         1.769E+01 0.000E+00 4.359E-02 0.000E+00
                                         3.854E+00 0.000E+00 2.318E-01 0.000E+00
                                         1.047E+00 0.000E+00 5.146E-01 0.000E+00
                         776-   778 P  
                                         2.759E-01 0.000E+00 1.000E+00 0.000E+00
                         779-   783 D  
                                         8.000E-01 0.000E+00 0.000E+00 1.000E+00
  74 O   -8.911 -10.923  -3.123
  75 O   -6.892  11.939   3.153
  76 O   -5.003 -13.179  -3.083
  77 O   -6.893 -11.939   3.093
  78 O   -5.003  -8.666  -3.143
  79 O    6.893 -11.938   3.113
  80 O    8.782  -8.665  -3.123
  81 O    6.893  11.940   3.153
  82 O    8.783 -13.178  -3.083
  83 O  -13.787  -0.001   3.093
  84 O  -11.898   3.272  -3.143

 *******************************************************************************
 FINISHED BASIS SET HANDLING 
 *******************************************************************************

 INFORMATION **** SET_MPP **** PCRYSTAL CALCULATION
 INFORMATION **** READM2 **** NEW DEFAULT: FOCK/KS MATRIX MIXING SET TO 30 %
 INFORMATION **** READM2 **** NEW DEFAULT: FULL DIRECT SCF MODE
 INFORMATION **** READM2 **** NEW DEFAULT: COULOMB BIPOLAR BUFFER SET TO 32 Mb
 INFORMATION **** READM2 **** NEW DEFAULT: EXCHANGE BIPOLAR BUFFER SET TO 32 Mb

 *******************************************************************************
 NEW DEFAULT: DFT INTEGRATION GRID INCREASED TO XLGRID
 NEW DEFAULT: DIIS ACCELERATOR ACTIVE
 USE KEYWORD NODIIS TO TURN IT OFF
 *******************************************************************************

 WARNING **** RDDFTP **** HSEsol-HJS ACTIVE
 RANGE SEPARATION - OMEGA:   0.110000000000000     
 WARNING **** RDDFTP **** HSEsol-3c has to be combined with sol-def2-mSVP basis set
 *******************************************************************************
 N. OF ATOMS PER CELL        84  COULOMB OVERLAP TOL         (T1) 10**   -6
 NUMBER OF SHELLS           468  COULOMB PENETRATION TOL     (T2) 10**   -6
 NUMBER OF AO               948  EXCHANGE OVERLAP TOL        (T3) 10**   -6
 N. OF ELECTRONS PER CELL   396  EXCHANGE PSEUDO OVP (F(G))  (T4) 10**   -6
 CORE ELECTRONS PER CELL    120  EXCHANGE PSEUDO OVP (P(G))  (T5) 10**  -12
 N. OF SYMMETRY OPERATORS     1  POLE ORDER IN MONO ZONE                  4
 *******************************************************************************
 TYPE OF CALCULATION :  RESTRICTED CLOSED SHELL
 KOHN-SHAM HAMILTONIAN

 (EXCHANGE)[CORRELATION] FUNCTIONAL:(HSEsol GGA)[PBEsol]

 RANGE-SEPARATED HYBRID FUNCTIONAL 
 OMEGA (SHORT-RANGE)[LONG-RANGE]:(    0.1100)[    0.0000]

 HYBRID EXCHANGE - PERCENTAGE OF FOCK EXCHANGE    25.0000

 CAPPA:IS1  2;IS2  2;IS3  8; K PTS MONK NET  20; SYMMOPS:K SPACE   2;G SPACE   1

 *******************************************************************************
 MAX NUMBER OF SCF CYCLES      50  CONVERGENCE ON DELTAP        10**-16
 WEIGHT OF F(I) IN F(I+1)      30% CONVERGENCE ON ENERGY        10**- 7
 SHRINK. FACT.(MONKH.)    2  2  8  NUMBER OF K POINTS IN THE IBZ     20
 SHRINKING FACTOR(GILAT NET)    8  NUMBER OF K POINTS(GILAT NET)   1028
 *******************************************************************************
 *** K POINTS COORDINATES (OBLIQUE COORDINATES IN UNITS OF IS =  2)
   1-R(  0  0  0)   2-R(  1  0  0)   3-R(  0  1  0)   4-R(  1  1  0)
   5-C(  0  0  1)   6-C(  1  0  1)   7-C(  0  1  1)   8-C(  1  1  1)
   9-C(  0  0  2)  10-C(  1  0  2)  11-C(  0  1  2)  12-C(  1  1  2)
  13-C(  0  0  3)  14-C(  1  0  3)  15-C(  0  1  3)  16-C(  1  1  3)
  17-R(  0  0  4)  18-R(  1  0  4)  19-R(  0  1  4)  20-R(  1  1  4)

 DIRECT LATTICE VECTORS COMPON. (A.U.)     RECIP. LATTICE VECTORS COMPON. (A.U.) 
        X            Y            Z              X            Y            Z
   24.5879030  -14.1935232    0.0000000      0.2555397    0.0000000    0.0000005
    0.0000000   28.3910867    0.0000000      0.1277517    0.2213084    0.0000015
   -0.0000265   -0.0000703   12.4721925      0.0000000    0.0000000    0.5037755

 DISK SPACE FOR EIGENVECTORS (FTN 10)    28758528 REALS

 SYMMETRY ADAPTION OF THE BLOCH FUNCTIONS DISABLED
 TTTTTTTTTTTTTTTTTTTTTTTTTTTTTT gordsh1     TELAPSE        0.07 TCPU        0.07

 MATRIX SIZE: P(G)  817524, F(G)  163058, P(G) IRR  410928, F(G) IRR  164090
 MAX G-VECTOR INDEX FOR 1- AND 2-ELECTRON INTEGRALS  67

 TTTTTTTTTTTTTTTTTTTTTTTTTTTTTT INPUT       TELAPSE        3.31 TCPU        3.31

 NEIGHBORS OF THE NON-EQUIVALENT ATOMS

 N = NUMBER OF NEIGHBORS AT DISTANCE R
    ATOM  N     R/ANG      R/AU   NEIGHBORS (ATOM LABELS AND CELL INDICES)
   1 B    1     1.3791     2.6061   73 O   -1 0 0
   1 B    1     1.3793     2.6065   75 O    0 0 0
   1 B    1     1.5503     2.9297   49 C   -1 0 0
   1 B    1     2.3895     4.5155    5 B    0 1 0
   1 B    1     2.3898     4.5160    3 B    0 0 0
   1 B    1     2.5632     4.8437   51 C    0 0 0

   2 B    1     1.3791     2.6061   74 O    0 0 0
   2 B    1     1.3793     2.6065   76 O    0 0 0
   2 B    1     1.5503     2.9297   50 C   -1-1 0
   2 B    1     2.3895     4.5155    6 B    0 0 0
   2 B    1     2.3898     4.5160    4 B    0 0 0
   2 B    1     2.5632     4.8437   52 C    0-1 0

   3 B    1     1.3793     2.6065   77 O    0 1 0
   3 B    1     1.3793     2.6065   75 O    0 0 0
   3 B    1     1.5504     2.9298   37 C    0 0 0
   3 B    1     2.3895     4.5156    5 B    0 1 0
   3 B    1     2.3898     4.5160    1 B    0 0 0
   3 B    1     2.5634     4.8440   43 C    0 1 0

   4 B    1     1.3793     2.6065   78 O    0 0 0
   4 B    1     1.3793     2.6065   76 O    0 0 0
   4 B    1     1.5504     2.9298   38 C    0 0 0
   4 B    1     2.3895     4.5156    6 B    0 0 0
   4 B    1     2.3898     4.5160    2 B    0 0 0
   4 B    1     2.5634     4.8440   44 C    0 0 0

   5 B    1     1.3791     2.6061   73 O   -1-1 0
   5 B    1     1.3793     2.6064   77 O    0 0 0
   5 B    1     1.5502     2.9294   61 C   -1-1 0
   5 B    1     2.3895     4.5155    1 B    0-1 0
   5 B    1     2.3895     4.5156    3 B    0-1 0
   5 B    1     2.5629     4.8433   63 C    0 0 0

   6 B    1     1.3791     2.6061   74 O    0 0 0
   6 B    1     1.3793     2.6064   78 O    0 0 0
   6 B    1     1.5502     2.9294   62 C    0 0 0
   6 B    1     2.3895     4.5155    2 B    0 0 0
   6 B    1     2.3895     4.5156    4 B    0 0 0
   6 B    1     2.5629     4.8433   64 C    0 0 0

   7 B    1     1.3795     2.6068   79 O    0 0 0
   7 B    1     1.3795     2.6070   81 O    0-1 0
   7 B    1     1.5513     2.9316   47 C    0 0 0
   7 B    1     2.3905     4.5174   11 B    0 0 0
   7 B    1     2.3905     4.5175    9 B    0-1 0
   7 B    1     2.5648     4.8468   45 C    0-1 0

   8 B    1     1.3795     2.6068   80 O    0 0 0
   8 B    1     1.3795     2.6070   82 O    0 0 0
   8 B    1     1.5513     2.9316   48 C    0 0 0
   8 B    1     2.3905     4.5174   12 B    0 0 0
   8 B    1     2.3905     4.5175   10 B    1 0 0
   8 B    1     2.5648     4.8468   46 C    0 0 0

   9 B    1     1.3795     2.6069   81 O    0 0 0
   9 B    1     1.3797     2.6072   83 O    1 1 0
   9 B    1     1.5516     2.9322   71 C    0 0 0
   9 B    1     2.3905     4.5175    7 B    0 1 0
   9 B    1     2.3911     4.5185   11 B    0 1 0
   9 B    1     2.5651     4.8473   69 C    1 1 0

  10 B    1     1.3795     2.6069   82 O   -1 0 0
  10 B    1     1.3797     2.6072   84 O    0 0 0
  10 B    1     1.5516     2.9322   72 C    0 0 0
  10 B    1     2.3905     4.5175    8 B   -1 0 0
  10 B    1     2.3911     4.5185   12 B   -1 0 0
  10 B    1     2.5651     4.8473   70 C    0 0 0

  11 B    1     1.3795     2.6068   79 O    0 0 0
  11 B    1     1.3796     2.6071   83 O    1 0 0
  11 B    1     1.5516     2.9322   59 C    0 0 0
  11 B    1     2.3905     4.5174    7 B    0 0 0
  11 B    1     2.3911     4.5185    9 B    0-1 0
  11 B    1     2.5651     4.8473   57 C    1 0 0

  12 B    1     1.3795     2.6068   80 O    0 0 0
  12 B    1     1.3796     2.6071   84 O    1 0 0
  12 B    1     1.5516     2.9322   60 C    0 0 0
  12 B    1     2.3905     4.5174    8 B    0 0 0
  12 B    1     2.3911     4.5185   10 B    1 0 0
  12 B    1     2.5651     4.8473   58 C    1 0 0

  13 H    1     1.0913     2.0623   39 C    0 0 0
  13 H    1     2.1472     4.0576   37 C    0 0 0
  13 H    1     2.1680     4.0969   45 C    0 0 0
  13 H    1     2.5202     4.7625   19 H    0 0 0
  13 H    1     2.5676     4.8520   75 O    0 0 0
  13 H    1     2.7321     5.1630    3 B    0 0 0

  14 H    1     1.0913     2.0623   40 C    0 1 0
  14 H    1     2.1472     4.0576   38 C    0 1 0
  14 H    1     2.1680     4.0969   46 C    0 1 0
  14 H    1     2.5202     4.7625   20 H    0 0 0
  14 H    1     2.5676     4.8520   76 O    0 1 0
  14 H    1     2.7321     5.1630    4 B    0 1 0

  15 H    1     1.0914     2.0625   41 C    0 0 0
  15 H    1     2.1493     4.0616   47 C    0 0 0
  15 H    1     2.1666     4.0942   43 C    0 0 0
  15 H    1     2.5198     4.7618   17 H    0 0 0
  15 H    1     2.5720     4.8604   79 O    0 0 0
  15 H    1     2.7362     5.1707    7 B    0 0 0

  16 H    1     1.0914     2.0625   42 C    0 0 0
  16 H    1     2.1493     4.0616   48 C    0 0 0
  16 H    1     2.1666     4.0942   44 C    0 0 0
  16 H    1     2.5198     4.7618   18 H    0 0 0
  16 H    1     2.5720     4.8604   80 O    0 0 0
  16 H    1     2.7362     5.1707    8 B    0 0 0

  17 H    1     1.0914     2.0624   43 C    0 0 0
  17 H    1     2.1471     4.0575   37 C    0-1 0
  17 H    1     2.1680     4.0970   41 C    0 0 0
  17 H    1     2.5198     4.7618   15 H    0 0 0
  17 H    1     2.5665     4.8500   77 O    0 0 0
  17 H    1     2.7315     5.1618    3 B    0-1 0

  18 H    1     1.0914     2.0624   44 C    0 0 0
  18 H    1     2.1471     4.0575   38 C    0 0 0
  18 H    1     2.1680     4.0970   42 C    0 0 0
  18 H    1     2.5198     4.7618   16 H    0 0 0
  18 H    1     2.5665     4.8500   78 O    0 0 0
  18 H    1     2.7315     5.1618    4 B    0 0 0

  19 H    1     1.0915     2.0626   45 C    0 0 0
  19 H    1     2.1490     4.0610   47 C    0 1 0
  19 H    1     2.1669     4.0948   39 C    0 0 0
  19 H    1     2.5202     4.7625   13 H    0 0 0
  19 H    1     2.5712     4.8588   81 O    0 0 0
  19 H    1     2.7351     5.1686    7 B    0 1 0

  20 H    1     1.0915     2.0626   46 C    0 1 0
  20 H    1     2.1490     4.0610   48 C    0 1 0
  20 H    1     2.1669     4.0948   40 C    0 1 0
  20 H    1     2.5202     4.7625   14 H    0 0 0
  20 H    1     2.5712     4.8588   82 O    0 1 0
  20 H    1     2.7351     5.1686    8 B    0 1 0

  21 H    1     1.0913     2.0623   51 C    0 0 0
  21 H    1     2.1469     4.0571   49 C   -1 0 0
  21 H    1     2.1680     4.0968   57 C    0 0 0
  21 H    1     2.5198     4.7617   27 H    0 0 0
  21 H    1     2.5670     4.8510   75 O    0 0 0
  21 H    1     2.7310     5.1609    1 B    0 0 0

  22 H    1     1.0913     2.0623   52 C    0 0 0
  22 H    1     2.1469     4.0571   50 C   -1 0 0
  22 H    1     2.1680     4.0968   58 C    0 0 0
  22 H    1     2.5198     4.7617   28 H    0 0 0
  22 H    1     2.5670     4.8510   76 O    0 1 0
  22 H    1     2.7310     5.1609    2 B    0 1 0

  23 H    1     1.0914     2.0625   53 C    0 0 0
  23 H    1     2.1493     4.0617   59 C    0 0 0
  23 H    1     2.1664     4.0939   55 C    0 0 0
  23 H    1     2.5192     4.7606   25 H    0 0 0
  23 H    1     2.5735     4.8632   79 O    0 0 0
  23 H    1     2.7371     5.1723   11 B    0 0 0

  24 H    1     1.0914     2.0625   54 C    0 0 0
  24 H    1     2.1493     4.0617   60 C    0 0 0
  24 H    1     2.1664     4.0939   56 C    0 0 0
  24 H    1     2.5192     4.7606   26 H    0 0 0
  24 H    1     2.5735     4.8632   80 O    0 0 0
  24 H    1     2.7371     5.1723   12 B    0 0 0

  25 H    1     1.0914     2.0624   55 C    0 0 0
  25 H    1     2.1475     4.0581   49 C    0 0 0
  25 H    1     2.1679     4.0967   53 C    0 0 0
  25 H    1     2.5192     4.7606   23 H    0 0 0
  25 H    1     2.5675     4.8519   73 O    0 0 0
  25 H    1     2.7328     5.1643    1 B    1 0 0

  26 H    1     1.0914     2.0624   56 C    0 0 0
  26 H    1     2.1475     4.0581   50 C    0 0 0
  26 H    1     2.1679     4.0967   54 C    0 0 0
  26 H    1     2.5192     4.7606   24 H    0 0 0
  26 H    1     2.5675     4.8519   74 O    1 1 0
  26 H    1     2.7328     5.1643    2 B    1 1 0

  27 H    1     1.0914     2.0625   57 C    0 0 0
  27 H    1     2.1491     4.0612   59 C   -1 0 0
  27 H    1     2.1666     4.0942   51 C    0 0 0
  27 H    1     2.5198     4.7617   21 H    0 0 0
  27 H    1     2.5723     4.8609   83 O    0 0 0
  27 H    1     2.7355     5.1693   11 B   -1 0 0

  28 H    1     1.0914     2.0625   58 C    0 0 0
  28 H    1     2.1491     4.0612   60 C   -1 0 0
  28 H    1     2.1666     4.0942   52 C    0 0 0
  28 H    1     2.5198     4.7617   22 H    0 0 0
  28 H    1     2.5723     4.8609   84 O    0 0 0
  28 H    1     2.7355     5.1693   12 B   -1 0 0

  29 H    1     1.0914     2.0624   63 C    0 0 0
  29 H    1     2.1475     4.0582   61 C   -1-1 0
  29 H    1     2.1678     4.0966   69 C    0 0 0
  29 H    1     2.5200     4.7621   35 H    0 0 0
  29 H    1     2.5667     4.8503   77 O    0 0 0
  29 H    1     2.7315     5.1618    5 B    0 0 0

  30 H    1     1.0914     2.0624   64 C    0 0 0
  30 H    1     2.1475     4.0582   62 C    0 0 0
  30 H    1     2.1678     4.0966   70 C    0 0 0
  30 H    1     2.5200     4.7621   36 H    0 0 0
  30 H    1     2.5667     4.8503   78 O    0 0 0
  30 H    1     2.7315     5.1618    6 B    0 0 0

  31 H    1     1.0913     2.0623   65 C    0 0 0
  31 H    1     2.1487     4.0605   71 C    0 0 0
  31 H    1     2.1667     4.0945   67 C    0 0 0
  31 H    1     2.5197     4.7616   33 H    0 0 0
  31 H    1     2.5723     4.8610   81 O    0 0 0
  31 H    1     2.7359     5.1701    9 B    0 0 0

  32 H    1     1.0913     2.0623   66 C    1 1 0
  32 H    1     2.1487     4.0605   72 C    1 1 0
  32 H    1     2.1667     4.0945   68 C    1 1 0
  32 H    1     2.5197     4.7616   34 H    0 0 0
  32 H    1     2.5723     4.8610   82 O    0 1 0
  32 H    1     2.7359     5.1701   10 B    1 1 0

  33 H    1     1.0915     2.0626   67 C    0 0 0
  33 H    1     2.1479     4.0589   61 C    0 0 0
  33 H    1     2.1679     4.0968   65 C    0 0 0
  33 H    1     2.5197     4.7616   31 H    0 0 0
  33 H    1     2.5677     4.8522   73 O    0 0 0
  33 H    1     2.7331     5.1648    5 B    1 1 0

  34 H    1     1.0915     2.0626   68 C    1 1 0
  34 H    1     2.1479     4.0589   62 C    1 1 0
  34 H    1     2.1679     4.0968   66 C    1 1 0
  34 H    1     2.5197     4.7616   32 H    0 0 0
  34 H    1     2.5677     4.8522   74 O    1 1 0
  34 H    1     2.7331     5.1648    6 B    1 1 0

  35 H    1     1.0914     2.0624   69 C    0 0 0
  35 H    1     2.1486     4.0602   71 C   -1-1 0
  35 H    1     2.1668     4.0947   63 C    0 0 0
  35 H    1     2.5200     4.7621   29 H    0 0 0
  35 H    1     2.5717     4.8598   83 O    0 0 0
  35 H    1     2.7349     5.1682    9 B   -1-1 0

  36 H    1     1.0914     2.0624   70 C    0 0 0
  36 H    1     2.1486     4.0602   72 C    0 0 0
  36 H    1     2.1668     4.0947   64 C    0 0 0
  36 H    1     2.5200     4.7621   30 H    0 0 0
  36 H    1     2.5717     4.8598   84 O    0 0 0
  36 H    1     2.7349     5.1682   10 B    0 0 0

  37 C    1     1.4020     2.6495   43 C    0 1 0
  37 C    1     1.4021     2.6495   39 C    0 0 0
  37 C    1     1.5504     2.9298    3 B    0 0 0
  37 C    1     2.1471     4.0575   17 H    0 1 0
  37 C    1     2.1472     4.0576   13 H    0 0 0
  37 C    1     2.4246     4.5817   41 C    0 1 0

  38 C    1     1.4020     2.6495   44 C    0 0 0
  38 C    1     1.4021     2.6495   40 C    0 0 0
  38 C    1     1.5504     2.9298    4 B    0 0 0
  38 C    1     2.1471     4.0575   18 H    0 0 0
  38 C    1     2.1472     4.0576   14 H    0-1 0
  38 C    1     2.4246     4.5817   42 C    0 0 0

  39 C    1     1.0913     2.0623   13 H    0 0 0
  39 C    1     1.3914     2.6294   45 C    0 0 0
  39 C    1     1.4021     2.6495   37 C    0 0 0
  39 C    1     2.1669     4.0948   19 H    0 0 0
  39 C    1     2.4177     4.5688   43 C    0 1 0
  39 C    1     2.4250     4.5825   47 C    0 1 0

  40 C    1     1.0913     2.0623   14 H    0-1 0
  40 C    1     1.3914     2.6294   46 C    0 0 0
  40 C    1     1.4021     2.6495   38 C    0 0 0
  40 C    1     2.1669     4.0948   20 H    0-1 0
  40 C    1     2.4177     4.5688   44 C    0 0 0
  40 C    1     2.4250     4.5825   48 C    0 0 0

  41 C    1     1.0914     2.0625   15 H    0 0 0
  41 C    1     1.3914     2.6293   43 C    0 0 0
  41 C    1     1.4026     2.6505   47 C    0 0 0
  41 C    1     2.1680     4.0970   17 H    0 0 0
  41 C    1     2.4182     4.5697   45 C    0-1 0
  41 C    1     2.4246     4.5817   37 C    0-1 0

  42 C    1     1.0914     2.0625   16 H    0 0 0
  42 C    1     1.3914     2.6293   44 C    0 0 0
  42 C    1     1.4026     2.6505   48 C    0 0 0
  42 C    1     2.1680     4.0970   18 H    0 0 0
  42 C    1     2.4182     4.5697   46 C    0 0 0
  42 C    1     2.4246     4.5817   38 C    0 0 0

  43 C    1     1.0914     2.0624   17 H    0 0 0
  43 C    1     1.3914     2.6293   41 C    0 0 0
  43 C    1     1.4020     2.6495   37 C    0-1 0
  43 C    1     2.1666     4.0942   15 H    0 0 0
  43 C    1     2.4177     4.5688   39 C    0-1 0
  43 C    1     2.4250     4.5826   47 C    0 0 0

  44 C    1     1.0914     2.0624   18 H    0 0 0
  44 C    1     1.3914     2.6293   42 C    0 0 0
  44 C    1     1.4020     2.6495   38 C    0 0 0
  44 C    1     2.1666     4.0942   16 H    0 0 0
  44 C    1     2.4177     4.5688   40 C    0 0 0
  44 C    1     2.4250     4.5826   48 C    0 0 0

  45 C    1     1.0915     2.0626   19 H    0 0 0
  45 C    1     1.3914     2.6294   39 C    0 0 0
  45 C    1     1.4025     2.6504   47 C    0 1 0
  45 C    1     2.1680     4.0969   13 H    0 0 0
  45 C    1     2.4182     4.5697   41 C    0 1 0
  45 C    1     2.4246     4.5818   37 C    0 0 0

  46 C    1     1.0915     2.0626   20 H    0-1 0
  46 C    1     1.3914     2.6294   40 C    0 0 0
  46 C    1     1.4025     2.6504   48 C    0 0 0
  46 C    1     2.1680     4.0969   14 H    0-1 0
  46 C    1     2.4182     4.5697   42 C    0 0 0
  46 C    1     2.4246     4.5818   38 C    0 0 0

  47 C    1     1.4025     2.6504   45 C    0-1 0
  47 C    1     1.4026     2.6505   41 C    0 0 0
  47 C    1     1.5513     2.9316    7 B    0 0 0
  47 C    1     2.1490     4.0610   19 H    0-1 0
  47 C    1     2.1493     4.0616   15 H    0 0 0
  47 C    1     2.4250     4.5825   39 C    0-1 0

  48 C    1     1.4025     2.6504   46 C    0 0 0
  48 C    1     1.4026     2.6505   42 C    0 0 0
  48 C    1     1.5513     2.9316    8 B    0 0 0
  48 C    1     2.1490     4.0610   20 H    0-1 0
  48 C    1     2.1493     4.0616   16 H    0 0 0
  48 C    1     2.4250     4.5825   40 C    0 0 0

  49 C    1     1.4020     2.6494   51 C    1 0 0
  49 C    1     1.4021     2.6495   55 C    0 0 0
  49 C    1     1.5503     2.9297    1 B    1 0 0
  49 C    1     2.1469     4.0571   21 H    1 0 0
  49 C    1     2.1475     4.0581   25 H    0 0 0
  49 C    1     2.4246     4.5818   53 C    0 0 0

  50 C    1     1.4020     2.6494   52 C    1 0 0
  50 C    1     1.4021     2.6495   56 C    0 0 0
  50 C    1     1.5503     2.9297    2 B    1 1 0
  50 C    1     2.1469     4.0571   22 H    1 0 0
  50 C    1     2.1475     4.0581   26 H    0 0 0
  50 C    1     2.4246     4.5818   54 C    0 0 0

  51 C    1     1.0913     2.0623   21 H    0 0 0
  51 C    1     1.3914     2.6293   57 C    0 0 0
  51 C    1     1.4020     2.6494   49 C   -1 0 0
  51 C    1     2.1666     4.0942   27 H    0 0 0
  51 C    1     2.4175     4.5684   55 C   -1 0 0
  51 C    1     2.4251     4.5828   59 C   -1 0 0

  52 C    1     1.0913     2.0623   22 H    0 0 0
  52 C    1     1.3914     2.6293   58 C    0 0 0
  52 C    1     1.4020     2.6494   50 C   -1 0 0
  52 C    1     2.1666     4.0942   28 H    0 0 0
  52 C    1     2.4175     4.5684   56 C   -1 0 0
  52 C    1     2.4251     4.5828   60 C   -1 0 0

  53 C    1     1.0914     2.0625   23 H    0 0 0
  53 C    1     1.3915     2.6295   55 C    0 0 0
  53 C    1     1.4026     2.6505   59 C    0 0 0
  53 C    1     2.1679     4.0967   25 H    0 0 0
  53 C    1     2.4179     4.5691   57 C    1 0 0
  53 C    1     2.4246     4.5818   49 C    0 0 0

  54 C    1     1.0914     2.0625   24 H    0 0 0
  54 C    1     1.3915     2.6295   56 C    0 0 0
  54 C    1     1.4026     2.6505   60 C    0 0 0
  54 C    1     2.1679     4.0967   26 H    0 0 0
  54 C    1     2.4179     4.5691   58 C    1 0 0
  54 C    1     2.4246     4.5818   50 C    0 0 0

  55 C    1     1.0914     2.0624   25 H    0 0 0
  55 C    1     1.3915     2.6295   53 C    0 0 0
  55 C    1     1.4021     2.6495   49 C    0 0 0
  55 C    1     2.1664     4.0939   23 H    0 0 0
  55 C    1     2.4175     4.5684   51 C    1 0 0
  55 C    1     2.4253     4.5832   59 C    0 0 0

  56 C    1     1.0914     2.0624   26 H    0 0 0
  56 C    1     1.3915     2.6295   54 C    0 0 0
  56 C    1     1.4021     2.6495   50 C    0 0 0
  56 C    1     2.1664     4.0939   24 H    0 0 0
  56 C    1     2.4175     4.5684   52 C    1 0 0
  56 C    1     2.4253     4.5832   60 C    0 0 0

  57 C    1     1.0914     2.0625   27 H    0 0 0
  57 C    1     1.3914     2.6293   51 C    0 0 0
  57 C    1     1.4025     2.6504   59 C   -1 0 0
  57 C    1     2.1680     4.0968   21 H    0 0 0
  57 C    1     2.4179     4.5691   53 C   -1 0 0
  57 C    1     2.4247     4.5819   49 C   -1 0 0

  58 C    1     1.0914     2.0625   28 H    0 0 0
  58 C    1     1.3914     2.6293   52 C    0 0 0
  58 C    1     1.4025     2.6504   60 C   -1 0 0
  58 C    1     2.1680     4.0968   22 H    0 0 0
  58 C    1     2.4179     4.5691   54 C   -1 0 0
  58 C    1     2.4247     4.5819   50 C   -1 0 0

  59 C    1     1.4025     2.6504   57 C    1 0 0
  59 C    1     1.4026     2.6505   53 C    0 0 0
  59 C    1     1.5516     2.9322   11 B    0 0 0
  59 C    1     2.1491     4.0612   27 H    1 0 0
  59 C    1     2.1493     4.0617   23 H    0 0 0
  59 C    1     2.4251     4.5828   51 C    1 0 0

  60 C    1     1.4025     2.6504   58 C    1 0 0
  60 C    1     1.4026     2.6505   54 C    0 0 0
  60 C    1     1.5516     2.9322   12 B    0 0 0
  60 C    1     2.1491     4.0612   28 H    1 0 0
  60 C    1     2.1493     4.0617   24 H    0 0 0
  60 C    1     2.4251     4.5828   52 C    1 0 0

  61 C    1     1.4021     2.6496   63 C    1 1 0
  61 C    1     1.4021     2.6497   67 C    0 0 0
  61 C    1     1.5502     2.9294    5 B    1 1 0
  61 C    1     2.1475     4.0582   29 H    1 1 0
  61 C    1     2.1479     4.0589   33 H    0 0 0
  61 C    1     2.4244     4.5814   65 C    0 0 0

  62 C    1     1.4021     2.6496   64 C    0 0 0
  62 C    1     1.4021     2.6497   68 C    0 0 0
  62 C    1     1.5502     2.9294    6 B    0 0 0
  62 C    1     2.1475     4.0582   30 H    0 0 0
  62 C    1     2.1479     4.0589   34 H   -1-1 0
  62 C    1     2.4244     4.5814   66 C    0 0 0

  63 C    1     1.0914     2.0624   29 H    0 0 0
  63 C    1     1.3914     2.6293   69 C    0 0 0
  63 C    1     1.4021     2.6496   61 C   -1-1 0
  63 C    1     2.1668     4.0947   35 H    0 0 0
  63 C    1     2.4179     4.5692   67 C   -1-1 0
  63 C    1     2.4251     4.5827   71 C   -1-1 0

  64 C    1     1.0914     2.0624   30 H    0 0 0
  64 C    1     1.3914     2.6293   70 C    0 0 0
  64 C    1     1.4021     2.6496   62 C    0 0 0
  64 C    1     2.1668     4.0947   36 H    0 0 0
  64 C    1     2.4179     4.5692   68 C    0 0 0
  64 C    1     2.4251     4.5827   72 C    0 0 0

  65 C    1     1.0913     2.0623   31 H    0 0 0
  65 C    1     1.3914     2.6294   67 C    0 0 0
  65 C    1     1.4025     2.6504   71 C    0 0 0
  65 C    1     2.1679     4.0968   33 H    0 0 0
  65 C    1     2.4178     4.5690   69 C    1 1 0
  65 C    1     2.4244     4.5814   61 C    0 0 0

  66 C    1     1.0913     2.0623   32 H   -1-1 0
  66 C    1     1.3914     2.6294   68 C    0 0 0
  66 C    1     1.4025     2.6504   72 C    0 0 0
  66 C    1     2.1679     4.0968   34 H   -1-1 0
  66 C    1     2.4178     4.5690   70 C    0 0 0
  66 C    1     2.4244     4.5814   62 C    0 0 0

  67 C    1     1.0915     2.0626   33 H    0 0 0
  67 C    1     1.3914     2.6294   65 C    0 0 0
  67 C    1     1.4021     2.6497   61 C    0 0 0
  67 C    1     2.1667     4.0945   31 H    0 0 0
  67 C    1     2.4179     4.5692   63 C    1 1 0
  67 C    1     2.4253     4.5832   71 C    0 0 0

  68 C    1     1.0915     2.0626   34 H   -1-1 0
  68 C    1     1.3914     2.6294   66 C    0 0 0
  68 C    1     1.4021     2.6497   62 C    0 0 0
  68 C    1     2.1667     4.0945   32 H   -1-1 0
  68 C    1     2.4179     4.5692   64 C    0 0 0
  68 C    1     2.4253     4.5832   72 C    0 0 0

  69 C    1     1.0914     2.0624   35 H    0 0 0
  69 C    1     1.3914     2.6293   63 C    0 0 0
  69 C    1     1.4025     2.6503   71 C   -1-1 0
  69 C    1     2.1678     4.0966   29 H    0 0 0
  69 C    1     2.4178     4.5690   65 C   -1-1 0
  69 C    1     2.4245     4.5817   61 C   -1-1 0

  70 C    1     1.0914     2.0624   36 H    0 0 0
  70 C    1     1.3914     2.6293   64 C    0 0 0
  70 C    1     1.4025     2.6503   72 C    0 0 0
  70 C    1     2.1678     4.0966   30 H    0 0 0
  70 C    1     2.4178     4.5690   66 C    0 0 0
  70 C    1     2.4245     4.5817   62 C    0 0 0

  71 C    1     1.4025     2.6503   69 C    1 1 0
  71 C    1     1.4025     2.6504   65 C    0 0 0
  71 C    1     1.5516     2.9322    9 B    0 0 0
  71 C    1     2.1486     4.0602   35 H    1 1 0
  71 C    1     2.1487     4.0605   31 H    0 0 0
  71 C    1     2.4251     4.5827   63 C    1 1 0

  72 C    1     1.4025     2.6503   70 C    0 0 0
  72 C    1     1.4025     2.6504   66 C    0 0 0
  72 C    1     1.5516     2.9322   10 B    0 0 0
  72 C    1     2.1486     4.0602   36 H    0 0 0
  72 C    1     2.1487     4.0605   32 H   -1-1 0
  72 C    1     2.4251     4.5827   64 C    0 0 0

  73 O    1     1.3791     2.6061    1 B    1 0 0
  73 O    1     1.3791     2.6061    5 B    1 1 0
  73 O    1     2.3880     4.5126   75 O    1 0 0
  73 O    1     2.3882     4.5130   77 O    1 1 0
  73 O    1     2.5383     4.7966   61 C    0 0 0
  73 O    1     2.5384     4.7968   49 C    0 0 0

  74 O    1     1.3791     2.6061    2 B    0 0 0
  74 O    1     1.3791     2.6061    6 B    0 0 0
  74 O    1     2.3880     4.5126   76 O    0 0 0
  74 O    1     2.3882     4.5130   78 O    0 0 0
  74 O    1     2.5383     4.7966   62 C    0 0 0
  74 O    1     2.5384     4.7968   50 C   -1-1 0

  75 O    1     1.3793     2.6065    1 B    0 0 0
  75 O    1     1.3793     2.6065    3 B    0 0 0
  75 O    1     2.3880     4.5126   73 O   -1 0 0
  75 O    1     2.3882     4.5131   77 O    0 1 0
  75 O    1     2.5391     4.7981   37 C    0 0 0
  75 O    1     2.5395     4.7990   49 C   -1 0 0

  76 O    1     1.3793     2.6065    2 B    0 0 0
  76 O    1     1.3793     2.6065    4 B    0 0 0
  76 O    1     2.3880     4.5126   74 O    0 0 0
  76 O    1     2.3882     4.5131   78 O    0 0 0
  76 O    1     2.5391     4.7981   38 C    0 0 0
  76 O    1     2.5395     4.7990   50 C   -1-1 0

  77 O    1     1.3793     2.6064    5 B    0 0 0
  77 O    1     1.3793     2.6065    3 B    0-1 0
  77 O    1     2.3882     4.5130   73 O   -1-1 0
  77 O    1     2.3882     4.5131   75 O    0-1 0
  77 O    1     2.5390     4.7980   37 C    0-1 0
  77 O    1     2.5391     4.7982   61 C   -1-1 0

  78 O    1     1.3793     2.6064    6 B    0 0 0
  78 O    1     1.3793     2.6065    4 B    0 0 0
  78 O    1     2.3882     4.5130   74 O    0 0 0
  78 O    1     2.3882     4.5131   76 O    0 0 0
  78 O    1     2.5390     4.7980   38 C    0 0 0
  78 O    1     2.5391     4.7982   62 C    0 0 0

  79 O    1     1.3795     2.6068   11 B    0 0 0
  79 O    1     1.3795     2.6068    7 B    0 0 0
  79 O    1     2.3880     4.5126   83 O    1 0 0
  79 O    1     2.3884     4.5134   81 O    0-1 0
  79 O    1     2.5400     4.7998   47 C    0 0 0
  79 O    1     2.5403     4.8005   59 C    0 0 0

  80 O    1     1.3795     2.6068   12 B    0 0 0
  80 O    1     1.3795     2.6068    8 B    0 0 0
  80 O    1     2.3880     4.5126   84 O    1 0 0
  80 O    1     2.3884     4.5134   82 O    0 0 0
  80 O    1     2.5400     4.7998   48 C    0 0 0
  80 O    1     2.5403     4.8005   60 C    0 0 0

  81 O    1     1.3795     2.6069    9 B    0 0 0
  81 O    1     1.3795     2.6070    7 B    0 1 0
  81 O    1     2.3881     4.5128   83 O    1 1 0
  81 O    1     2.3884     4.5134   79 O    0 1 0
  81 O    1     2.5404     4.8006   47 C    0 1 0
  81 O    1     2.5405     4.8008   71 C    0 0 0

  82 O    1     1.3795     2.6069   10 B    1 0 0
  82 O    1     1.3795     2.6070    8 B    0 0 0
  82 O    1     2.3881     4.5128   84 O    1 0 0
  82 O    1     2.3884     4.5134   80 O    0 0 0
  82 O    1     2.5404     4.8006   48 C    0 0 0
  82 O    1     2.5405     4.8008   72 C    1 0 0

  83 O    1     1.3796     2.6071   11 B   -1 0 0
  83 O    1     1.3797     2.6072    9 B   -1-1 0
  83 O    1     2.3880     4.5126   79 O   -1 0 0
  83 O    1     2.3881     4.5128   81 O   -1-1 0
  83 O    1     2.5409     4.8016   71 C   -1-1 0
  83 O    1     2.5410     4.8019   59 C   -1 0 0

  84 O    1     1.3796     2.6071   12 B   -1 0 0
  84 O    1     1.3797     2.6072   10 B    0 0 0
  84 O    1     2.3880     4.5126   80 O   -1 0 0
  84 O    1     2.3881     4.5128   82 O   -1 0 0
  84 O    1     2.5409     4.8016   72 C    0 0 0
  84 O    1     2.5410     4.8019   60 C   -1 0 0


 SYMMETRY ALLOWED ELASTIC DISTORTION 1
  0.5773503  0.0000000  0.0000000
  0.0000000  0.5773503  0.0000000
  0.0000000  0.0000000  0.5773503

 SYMMETRY ALLOWED ELASTIC DISTORTION 2
  0.8164966  0.0000000  0.0000000
  0.0000000 -0.4082483  0.0000000
  0.0000000  0.0000000 -0.4082483

 SYMMETRY ALLOWED ELASTIC DISTORTION 3
  0.0000000  0.7071068  0.0000000
  0.7071068  0.0000000  0.0000000
  0.0000000  0.0000000  0.0000000

 SYMMETRY ALLOWED ELASTIC DISTORTION 4
  0.0000000  0.0000000  0.0000000
  0.0000000  0.7071068  0.0000000
  0.0000000  0.0000000 -0.7071068

 SYMMETRY ALLOWED ELASTIC DISTORTION 5
  0.0000000  0.0000000  0.7071068
  0.0000000  0.0000000  0.0000000
  0.7071068  0.0000000  0.0000000

 SYMMETRY ALLOWED ELASTIC DISTORTION 6
  0.0000000  0.0000000  0.0000000
  0.0000000  0.0000000  0.7071068
  0.0000000  0.7071068  0.0000000

 SYMMETRY ALLOWED INTERNAL DEGREE(S) OF FREEDOM: 249
 TTTTTTTTTTTTTTTTTTTTTTTTTTTTTT SYMM        TELAPSE        3.32 TCPU        3.32
 TTTTTTTTTTTTTTTTTTTTTTTTTTTTTT INT_SCREEN  TELAPSE        3.54 TCPU        3.54

 *******************************************************************************
 *                             OPTIMIZATION STARTS                             *
 *******************************************************************************
 RECLASIFICATION OF INDICES FOR INTEGRAL CALC ACCORDING TO DIFFERENT CRITERIA:
           FIXDELTE                  FIXDELTX              FIXDELTN
           1.0000000               0.80000000                255
 DEFAULT MAX NUM OF POINTS  510
 *******************************************************************************

 *******************************************************************************
 COORDINATE AND CELL OPTIMIZATION - POINT    1

 DFT PARAMETERS

     ATOM       ELECTRONS   NET CHARGE   R(ANGSTROM)
   1   5  B       5.0000      0.0000     0.89000000
  13   1  H       1.0000      0.0000     1.11000000
  37   6  C       6.0000      0.0000     0.77000000
  73   8  O       8.0000      0.0000     0.74000000

 SIZE OF GRID=    2482441
 TTTTTTTTTTTTTTTTTTTTTTTTTTTTTT MAKE_GRID2  TELAPSE       42.37 TCPU       42.32
 BECKE WEIGHT FUNCTION
 RADSAFE =     2.00
 TOLERANCES - DENSITY:10**- 6; POTENTIAL:10**- 9; GRID WGT:10**-14

 RADIAL INTEGRATION  - INTERVALS (POINTS,UPPER LIMIT):            1( 75,  4.0*R)

 ANGULAR INTEGRATION - INTERVALS (ACCURACY LEVEL [N. POINTS] UPPER LIMIT):
  1(  4[  86]   0.2)  2(  8[ 194]   0.5)  3( 12[ 350]   0.9)  4( 16[ 974]   3.5)
  5( 12[ 350]9999.0)
 TTTTTTTTTTTTTTTTTTTTTTTTTTTTTT INT_CALC    TELAPSE       42.70 TCPU       42.65

 *******************************************************************************
 cof-1_z33_L020_serr                                                             
 CRYSTAL - SCF - TYPE OF CALCULATION :  RESTRICTED CLOSED SHELL
 *******************************************************************************

 CAPPA:IS1  2;IS2  2;IS3  8; K PTS MONK NET  20; SYMMOPS:K SPACE   2;G SPACE   1

 TTTTTTTTTTTTTTTTTTTTTTTTTTTTTT SDIK        TELAPSE       44.77 TCPU      104.77

 AAAAAAAAAAAAAAAAAAAAAAAAAAAAAAAAAAAAAAAAAAAAAAAAAAAAAAAAAAAAAAAAAAAAAAAAAAAAAAA
         ATOMIC WAVEFUNCTION(S)


 NUCLEAR CHARGE  5.0  SYMMETRY SPECIES            S    P
 N. ELECTRONS    5.0  NUMBER OF PRIMITIVE GTOS    8    4
                      NUMBER OF CONTRACTED GTOS   4    2
                      NUMBER OF CLOSED SHELLS     2    0
                      OPEN SHELL OCCUPATION       0    1

  ZNUC  SCFIT    TOTAL HF ENERGY   KINETIC ENERGY   VIRIAL THEOREM ACCURACY
   5.0    11    -2.451164084E+01  2.462155050E+01 -1.995536038E+00  1.5E-06

 NUCLEAR CHARGE  1.0  SYMMETRY SPECIES            S
 N. ELECTRONS    1.0  NUMBER OF PRIMITIVE GTOS    4
                      NUMBER OF CONTRACTED GTOS   2
                      NUMBER OF CLOSED SHELLS     0
                      OPEN SHELL OCCUPATION       1

  ZNUC  SCFIT    TOTAL HF ENERGY   KINETIC ENERGY   VIRIAL THEOREM ACCURACY
   1.0     1    -4.977266687E-01  5.190767460E-01 -1.958869132E+00  0.0E+00

 NUCLEAR CHARGE  6.0  SYMMETRY SPECIES            S    P
 N. ELECTRONS    6.0  NUMBER OF PRIMITIVE GTOS    8    4
                      NUMBER OF CONTRACTED GTOS   4    2
                      NUMBER OF CLOSED SHELLS     2    0
                      OPEN SHELL OCCUPATION       0    2

  ZNUC  SCFIT    TOTAL HF ENERGY   KINETIC ENERGY   VIRIAL THEOREM ACCURACY
   6.0     9    -3.766704647E+01  3.775180683E+01 -1.997754800E+00  1.1E-06

 NUCLEAR CHARGE  8.0  SYMMETRY SPECIES            S    P
 N. ELECTRONS    8.0  NUMBER OF PRIMITIVE GTOS    8    4
                      NUMBER OF CONTRACTED GTOS   4    2
                      NUMBER OF CLOSED SHELLS     2    0
                      OPEN SHELL OCCUPATION       0    4

  ZNUC  SCFIT    TOTAL HF ENERGY   KINETIC ENERGY   VIRIAL THEOREM ACCURACY
   8.0    12    -7.477373220E+01  7.477365593E+01 -2.000001020E+00  3.8E-06

 AAAAAAAAAAAAAAAAAAAAAAAAAAAAAAAAAAAAAAAAAAAAAAAAAAAAAAAAAAAAAAAAAAAAAAAAAAAAAAA

 CHARGE NORMALIZATION FACTOR   1.00000000
 TOTAL ATOMIC CHARGES:
   5.0000000   5.0000000   5.0000000   5.0000000   5.0000000   5.0000000
   5.0000000   5.0000000   5.0000000   5.0000000   5.0000000   5.0000000
   1.0000000   1.0000000   1.0000000   1.0000000   1.0000000   1.0000000
   1.0000000   1.0000000   1.0000000   1.0000000   1.0000000   1.0000000
   1.0000000   1.0000000   1.0000000   1.0000000   1.0000000   1.0000000
   1.0000000   1.0000000   1.0000000   1.0000000   1.0000000   1.0000000
   6.0000000   6.0000000   6.0000000   6.0000000   6.0000000   6.0000000
   6.0000000   6.0000000   6.0000000   6.0000000   6.0000000   6.0000000
   6.0000000   6.0000000   6.0000000   6.0000000   6.0000000   6.0000000
   6.0000000   6.0000000   6.0000000   6.0000000   6.0000000   6.0000000
   6.0000000   6.0000000   6.0000000   6.0000000   6.0000000   6.0000000
   6.0000000   6.0000000   6.0000000   6.0000000   6.0000000   6.0000000
   8.0000000   8.0000000   8.0000000   8.0000000   8.0000000   8.0000000
   8.0000000   8.0000000   8.0000000   8.0000000   8.0000000   8.0000000
 TTTTTTTTTTTTTTTTTTTTTTTTTTTTTT MOQGAD      TELAPSE       44.89 TCPU      112.33
 TTTTTTTTTTTTTTTTTTTTTTTTTTTTTT SHELLXN     TELAPSE       60.16 TCPU     1088.40
 TTTTTTTTTTTTTTTTTTTTTTTTTTTTTT MONMO3      TELAPSE       60.51 TCPU     1111.03
 NUMERICALLY INTEGRATED DENSITY    395.9999863116
 TTTTTTTTTTTTTTTTTTTTTTTTTTTTTT NUMDFT      TELAPSE       61.48 TCPU     1172.51
 CYC   0 ETOT(AU) -2.592006665027E+03 DETOT -2.59E+03 tst  0.00E+00 PX  1.00E+00
 TTTTTTTTTTTTTTTTTTTTTTTTTTTTTT DIIS        TELAPSE       61.70 TCPU     1184.26
 TTTTTTTTTTTTTTTTTTTTTTTTTTTTTT FDIK        TELAPSE       63.70 TCPU     1311.26
 INSULATING STATE
 TOP OF VALENCE BANDS -    BAND    198; K    3; EIG -3.0083496E-01 AU
 TOP OF VALENCE BANDS -    BAND    198; K    1; EIG -3.0085675E-01 AU
 BOTTOM OF VIRTUAL BANDS - BAND    199; K    1; EIG -1.6013599E-01 AU
 INDIRECT ENERGY BAND GAP:   3.8286 eV
 TTTTTTTTTTTTTTTTTTTTTTTTTTTTTT PDIG        TELAPSE       65.50 TCPU     1323.79
 CHARGE NORMALIZATION FACTOR   1.00000000
 TOTAL ATOMIC CHARGES:
   4.1512973   4.1041134   4.1289247   4.1467117   4.1291738   4.1469799
   4.1466186   4.1288700   4.1464416   4.1286744   4.1039974   4.1509717
   0.7861354   0.7867922   0.7869077   0.7862485   0.7837754   0.7860927
   0.7862071   0.7839056   0.7862047   0.7865402   0.7867040   0.7863699
   0.7861939   0.7865295   0.7866616   0.7863321   0.7837841   0.7860941
   0.7862732   0.7839764   0.7860873   0.7867439   0.7869012   0.7862407
   6.0524380   6.0500501   6.2709453   6.2724029   6.2723563   6.2709138
   6.2656645   6.2697294   6.2696711   6.2656028   6.0492969   6.0516380
   6.0451363   6.0521267   6.2671576   6.2656697   6.2657171   6.2672418
   6.2670723   6.2655858   6.2657438   6.2672527   6.0507937   6.0438687
   6.0527831   6.0504214   6.2654451   6.2694859   6.2700573   6.2659814
   6.2705712   6.2720218   6.2726301   6.2711884   6.0487822   6.0511492
   8.7097311   8.7076776   8.7097967   8.7077841   8.7095975   8.6936473
   8.7080513   8.7101277   8.6940591   8.7099567   8.7082082   8.7102948
 TTTTTTTTTTTTTTTTTTTTTTTTTTTTTT MOQGAD      TELAPSE       65.62 TCPU     1323.91
 TTTTTTTTTTTTTTTTTTTTTTTTTTTTTT SHELLXN     TELAPSE       81.70 TCPU     2348.60
 TTTTTTTTTTTTTTTTTTTTTTTTTTTTTT MONMO3      TELAPSE       82.06 TCPU     2371.62
 NUMERICALLY INTEGRATED DENSITY    395.9999805279
[...]
  68 C    1     2.1424     4.0485   32 H   -1-1 0
  68 C    1     2.4048     4.5444   64 C    0 0 0
  68 C    1     2.4250     4.5826   72 C    0 0 0

  69 C    1     1.0896     2.0590   35 H    0 0 0
  69 C    1     1.3859     2.6190   63 C    0 0 0
  69 C    1     1.3982     2.6423   71 C   -1-1 0
  69 C    1     2.1424     4.0485   29 H    0 0 0
  69 C    1     2.4048     4.5444   65 C   -1-1 0
  69 C    1     2.4250     4.5827   61 C   -1-1 0

  70 C    1     1.0909     2.0615   36 H    0 0 0
  70 C    1     1.3843     2.6159   64 C    0 0 0
  70 C    1     1.4008     2.6471   72 C    0 0 0
  70 C    1     2.1434     4.0505   30 H    0 0 0
  70 C    1     2.4043     4.5435   66 C    0 0 0
  70 C    1     2.4231     4.5790   62 C    0 0 0

  71 C    1     1.3982     2.6423   69 C    1 1 0
  71 C    1     1.4014     2.6483   65 C    0 0 0
  71 C    1     1.5481     2.9255    9 B    0 0 0
  71 C    1     2.1581     4.0781   35 H    1 1 0
  71 C    1     2.1599     4.0815   31 H    0 0 0
  71 C    1     2.4196     4.5724   63 C    1 1 0

  72 C    1     1.4006     2.6467   66 C    0 0 0
  72 C    1     1.4008     2.6471   70 C    0 0 0
  72 C    1     1.5478     2.9250   10 B    0 0 0
  72 C    1     2.1586     4.0791   36 H    0 0 0
  72 C    1     2.1606     4.0830   32 H   -1-1 0
  72 C    1     2.4216     4.5761   64 C    0 0 0

  73 O    1     1.3731     2.5947    5 B    1 1 0
  73 O    1     1.3788     2.6055    1 B    1 0 0
  73 O    1     2.3717     4.4818   77 O    1 1 0
  73 O    1     2.3755     4.4890   75 O    1 0 0
  73 O    1     2.5443     4.8080   61 C    0 0 0
  73 O    1     2.5444     4.8081   49 C    0 0 0

  74 O    1     1.3754     2.5991    2 B    0 0 0
  74 O    1     1.3802     2.6082    6 B    0 0 0
  74 O    1     2.3730     4.4842   78 O    0 0 0
  74 O    1     2.3741     4.4864   76 O    0 0 0
  74 O    1     2.5386     4.7972   50 C   -1-1 0
  74 O    1     2.5447     4.8088   62 C    0 0 0

  75 O    1     1.3731     2.5949    3 B    0 0 0
  75 O    1     1.3787     2.6054    1 B    0 0 0
  75 O    1     2.3719     4.4822   77 O    0 1 0
  75 O    1     2.3755     4.4890   73 O   -1 0 0
  75 O    1     2.5444     4.8081   37 C    0 0 0
  75 O    1     2.5449     4.8092   49 C   -1 0 0

  76 O    1     1.3755     2.5993    2 B    0 0 0
  76 O    1     1.3802     2.6082    4 B    0 0 0
  76 O    1     2.3731     4.4846   78 O    0 0 0
  76 O    1     2.3741     4.4864   74 O    0 0 0
  76 O    1     2.5389     4.7978   50 C   -1-1 0
  76 O    1     2.5451     4.8095   38 C    0 0 0

  77 O    1     1.3812     2.6101    5 B    0 0 0
  77 O    1     1.3812     2.6101    3 B    0-1 0
  77 O    1     2.3717     4.4818   73 O   -1-1 0
  77 O    1     2.3719     4.4822   75 O    0-1 0
  77 O    1     2.5388     4.7976   37 C    0-1 0
  77 O    1     2.5389     4.7979   61 C   -1-1 0

  78 O    1     1.3766     2.6014    6 B    0 0 0
  78 O    1     1.3766     2.6015    4 B    0 0 0
  78 O    1     2.3730     4.4842   74 O    0 0 0
  78 O    1     2.3731     4.4846   76 O    0 0 0
  78 O    1     2.5418     4.8032   38 C    0 0 0
  78 O    1     2.5421     4.8039   62 C    0 0 0

  79 O    1     1.3755     2.5993   11 B    0 0 0
  79 O    1     1.3802     2.6082    7 B    0 0 0
  79 O    1     2.3731     4.4845   81 O    0-1 0
  79 O    1     2.3741     4.4864   83 O    1 0 0
  79 O    1     2.5388     4.7977   59 C    0 0 0
  79 O    1     2.5450     4.8094   47 C    0 0 0

  80 O    1     1.3732     2.5949    8 B    0 0 0
  80 O    1     1.3787     2.6054   12 B    0 0 0
  80 O    1     2.3719     4.4822   82 O    0 0 0
  80 O    1     2.3754     4.4889   84 O    1 0 0
  80 O    1     2.5444     4.8081   48 C    0 0 0
  80 O    1     2.5449     4.8092   60 C    0 0 0

  81 O    1     1.3766     2.6014    9 B    0 0 0
  81 O    1     1.3766     2.6015    7 B    0 1 0
  81 O    1     2.3729     4.4842   83 O    1 1 0
  81 O    1     2.3731     4.4845   79 O    0 1 0
  81 O    1     2.5418     4.8033   47 C    0 1 0
  81 O    1     2.5421     4.8038   71 C    0 0 0

  82 O    1     1.3812     2.6101   10 B    1 0 0
  82 O    1     1.3812     2.6101    8 B    0 0 0
  82 O    1     2.3717     4.4819   84 O    1 0 0
  82 O    1     2.3719     4.4822   80 O    0 0 0
  82 O    1     2.5388     4.7977   48 C    0 0 0
  82 O    1     2.5389     4.7978   72 C    1 0 0

  83 O    1     1.3754     2.5992   11 B   -1 0 0
  83 O    1     1.3802     2.6082    9 B   -1-1 0
  83 O    1     2.3729     4.4842   81 O   -1-1 0
  83 O    1     2.3741     4.4864   79 O   -1 0 0
  83 O    1     2.5385     4.7971   59 C   -1 0 0
  83 O    1     2.5448     4.8089   71 C   -1-1 0

  84 O    1     1.3731     2.5947   10 B    0 0 0
  84 O    1     1.3788     2.6055   12 B   -1 0 0
  84 O    1     2.3717     4.4819   82 O   -1 0 0
  84 O    1     2.3754     4.4889   80 O   -1 0 0
  84 O    1     2.5442     4.8079   72 C    0 0 0
  84 O    1     2.5444     4.8082   60 C   -1 0 0


 FINAL OPTIMIZED GEOMETRY - DIMENSIONALITY OF THE SYSTEM      3
 (NON PERIODIC DIRECTION: LATTICE PARAMETER FORMALLY SET TO 500)
 *******************************************************************************
 LATTICE PARAMETERS (ANGSTROMS AND DEGREES) - BOHR = 0.5291772083 ANGSTROM
 PRIMITIVE CELL - CENTRING CODE 1/0 VOLUME=  1292.266054 - DENSITY  1.003 g/cm^3
         A              B              C           ALPHA      BETA       GAMMA 
    15.02254708    15.05896327     6.58953475    90.033420  89.825017 119.901505
 *******************************************************************************
 ATOMS IN THE ASYMMETRIC UNIT   84 - ATOMS IN THE UNIT CELL:   84
     ATOM                 X/A                 Y/B                 Z/C    
 *******************************************************************************
      1 T   5 B    -3.823763690424E-01  2.347953553999E-01  2.493561505671E-01
      2 T   5 B    -3.138526498597E-01  3.725633219997E-01 -2.503500840835E-01
      3 T   5 B    -2.230038259266E-01  3.936144516199E-01  2.492592556228E-01
      4 T   5 B    -1.545035155480E-01 -4.685329694491E-01 -2.502948497098E-01
      5 T   5 B    -3.830745953122E-01  3.935935165462E-01  2.495332813866E-01
      6 T   5 B    -3.142100088116E-01 -4.684404000996E-01 -2.503466437223E-01
      7 T   5 B     2.313245075351E-01 -3.777590176000E-01  2.493200756338E-01
      8 T   5 B     2.998272245099E-01 -2.399121615601E-01 -2.504493275871E-01
      9 T   5 B     3.910389736989E-01 -3.778391284100E-01  2.495135397585E-01
     10 T   5 B     4.599011418883E-01 -2.398822656830E-01 -2.505777052318E-01
     11 T   5 B     3.906646138764E-01 -2.188523371343E-01  2.493379501265E-01
     12 T   5 B     4.591998172590E-01 -8.108476212553E-02 -2.506162390600E-01
     13 T   1 H    -8.919980897303E-02  3.183782137750E-01  2.489584684415E-01
     14 T   1 H    -2.060803658029E-02  4.555655877177E-01 -2.506113377581E-01
     15 T   1 H     9.742915798010E-02 -3.018624443389E-01  2.497393093199E-01
     16 T   1 H     1.660268073416E-01 -1.646718403763E-01 -2.501149151392E-01
     17 T   1 H    -9.111072491900E-02 -3.967689427935E-01  2.496581774476E-01
     18 T   1 H    -2.293205999578E-02 -2.598361532181E-01 -2.500980856215E-01
     19 T   1 H     9.976235903141E-02  4.135460059582E-01  2.489188669333E-01
     20 T   1 H     1.679304412778E-01 -4.495320436186E-01 -2.507572962049E-01
     21 T   1 H    -3.056539139621E-01  1.021742391279E-01  2.491144093562E-01
     22 T   1 H    -2.369681303612E-01  2.399002260962E-01 -2.504225961434E-01
     23 T   1 H     3.137770791220E-01 -8.618282291282E-02  2.496574929240E-01
     24 T   1 H     3.824636618100E-01  5.151954014837E-02 -2.507138852921E-01
     25 T   1 H     4.084331971182E-01  1.024731192106E-01  2.496409873670E-01
     26 T   1 H     4.766531291934E-01  2.401749935277E-01 -2.505877476972E-01
     27 T   1 H    -3.998545104924E-01 -8.647446507843E-02  2.490816875436E-01
     28 T   1 H    -3.316165592983E-01  5.124148598089E-02 -2.505952549448E-01
     29 T   1 H    -3.055380702096E-01 -3.968104337359E-01  2.495390732542E-01
     30 T   1 H    -2.371714854945E-01 -2.596929731964E-01 -2.506611005659E-01
     31 T   1 H     3.140044058806E-01  4.134209486132E-01  2.496942476338E-01
     32 T   1 H     3.823676504581E-01 -4.494709734265E-01 -2.503768429196E-01
     33 T   1 H     4.079342145455E-01  3.182859507952E-01  2.497060520092E-01
     34 T   1 H     4.761383445525E-01  4.556802508607E-01 -2.501908115753E-01
     35 T   1 H    -3.993052321247E-01 -3.019602572629E-01  2.495663796707E-01
     36 T   1 H    -3.311049322920E-01 -1.645629754890E-01 -2.507233856091E-01
     37 T   6 C    -1.041530234289E-01  4.537094241222E-01  2.493071042575E-01
     38 T   6 C    -3.562314357007E-02 -4.091612292092E-01 -2.502996072994E-01
     39 T   6 C    -4.835430130978E-02  4.019365031623E-01  2.491011153054E-01
     40 T   6 C     1.994690311542E-02 -4.609754956161E-01 -2.504989378343E-01
     41 T   6 C     5.687482654971E-02 -3.853206427288E-01  2.495077938152E-01
     42 T   6 C     1.251801858027E-01 -2.482312988017E-01 -2.502631605492E-01
     43 T   6 C    -4.954807127221E-02 -4.390071309112E-01  2.495022308693E-01
     44 T   6 C     1.888857406748E-02 -3.018147704622E-01 -2.502182117746E-01
     45 T   6 C     5.793790303798E-02  4.555205587403E-01  2.490780118094E-01
     46 T   6 C     1.263694617837E-01 -4.072909063854E-01 -2.505880912296E-01
     47 T   6 C     1.124456053954E-01 -4.371341098814E-01  2.492882291844E-01
     48 T   6 C     1.809776342138E-01 -3.000063219650E-01 -2.504476448132E-01
     49 T   6 C    -4.417568082641E-01  1.160372704240E-01  2.493424088917E-01
     50 T   6 C    -3.732336552593E-01  2.538845209262E-01 -2.505076544076E-01
     51 T   6 C    -3.893742748108E-01  6.096535991676E-02  2.492131753413E-01
     52 T   6 C    -3.206980540876E-01  1.987470742486E-01 -2.505093626312E-01
     53 T   6 C     3.975072414182E-01 -4.503319155148E-02  2.495439777024E-01
     54 T   6 C     4.661839640309E-01  9.273808343387E-02 -2.506483139676E-01
     55 T   6 C     4.508204523617E-01  6.111708228502E-02  2.495219327416E-01
     56 T   6 C    -4.808820393471E-01  1.988857238963E-01 -2.506002091458E-01
     57 T   6 C    -4.423155603348E-01 -4.518131782205E-02  2.492267506289E-01
     58 T   6 C    -3.740048556530E-01  9.259634246063E-02 -2.506048614070E-01
     59 T   6 C     4.500359086386E-01 -1.001765799617E-01  2.493573823648E-01
     60 T   6 C    -4.814266558092E-01  3.767290843889E-02 -2.506314963817E-01
     61 T   6 C    -4.419044239792E-01  4.536503305222E-01  2.495990325912E-01
     62 T   6 C    -3.737045473499E-01 -4.090239415604E-01 -2.504387196274E-01
     63 T   6 C    -3.893130787596E-01 -4.390685360248E-01  2.495738410989E-01
     64 T   6 C    -3.209478497556E-01 -3.016762307953E-01 -2.505800983873E-01
     65 T   6 C     3.977799392930E-01  4.554006332322E-01  2.496605385667E-01
     66 T   6 C     4.661435072532E-01 -4.072130918908E-01 -2.504094125595E-01
     67 T   6 C     4.505482772701E-01  4.018460455123E-01  2.496706822252E-01
     68 T   6 C    -4.810576039984E-01 -4.608633366672E-01 -2.503234573552E-01
     69 T   6 C    -4.421105068661E-01 -3.854157572147E-01  2.495685807617E-01
     70 T   6 C    -3.737175642822E-01 -2.481236078358E-01 -2.506399554560E-01
     71 T   6 C     4.505363188875E-01 -4.372530299388E-01  2.496004481011E-01
     72 T   6 C    -4.812658045583E-01 -2.999324479512E-01 -2.505535343094E-01
     73 T   8 O    -4.346488362558E-01  2.884198244747E-01  2.495684036214E-01
     74 T   8 O    -3.662204707088E-01  4.258374242006E-01 -2.503096530747E-01
     75 T   8 O    -2.765141247573E-01  2.884335092819E-01  2.491656113681E-01
     76 T   8 O    -2.082328111064E-01  4.257433020927E-01 -2.502733569746E-01
     77 T   8 O    -2.770171611003E-01  4.456885275101E-01  2.493842950242E-01
     78 T   8 O    -2.085092442029E-01 -4.168047224719E-01 -2.503643898367E-01
     79 T   8 O     2.850471668106E-01 -2.720370014481E-01  2.491879597575E-01
     80 T   8 O     3.533376109311E-01 -1.347294319656E-01 -2.505253297924E-01
     81 T   8 O     2.853387940259E-01 -4.294785341144E-01  2.495103890577E-01
     82 T   8 O     3.538433466646E-01 -2.919828002669E-01 -2.504361558838E-01
     83 T   8 O     4.430416902100E-01 -2.721178151472E-01  2.494449879052E-01
     84 T   8 O    -4.885275988094E-01 -1.347083681610E-01 -2.506739744236E-01

 T = ATOM BELONGING TO THE ASYMMETRIC UNIT
 INFORMATION **** fort.34 **** GEOMETRY OUTPUT FILE

 DIRECT LATTICE VECTORS CARTESIAN COMPONENTS (ANGSTROM)
          X                    Y                    Z
   0.130113798348E+02  -0.750868756589E+01   0.229481250764E-01
   0.229023005130E-01   0.150589450980E+02  -0.477221548836E-02
   0.105911063736E-01  -0.177143983968E-02   0.658952600389E+01


 CARTESIAN COORDINATES - PRIMITIVE CELL
 *******************************************************************************
 *      ATOM          X(ANGSTROM)         Y(ANGSTROM)         Z(ANGSTROM)
 *******************************************************************************
    1     5 B    -4.967225866171E+00  6.406473334539E+00  1.633243523617E+00
    2     5 B    -4.100677267218E+00 -7.091469516856E+00 -1.653896455976E+00
    3     5 B    -2.889932876004E+00  7.601442923838E+00  1.635504413964E+00
    4     5 B    -2.023685308856E+00 -5.895050255198E+00 -1.650634046508E+00
    5     5 B    -4.995574334672E+00 -6.255896523982E+00  1.638409105218E+00
    6     5 B    -4.101685583304E+00 -4.694470006534E+00 -1.654640750844E+00
    7     5 B     3.003840057544E+00 -7.426037415252E+00  1.650012332847E+00
    8     5 B     3.893018827032E+00 -5.863689365960E+00 -1.642316971609E+00
    9     5 B     5.104848156709E+00  6.432454929596E+00  1.650180484091E+00
   10     5 B    -7.035579142119E+00  4.435035946761E-01 -1.662437790906E+00
   11     5 B     5.080714221934E+00 -6.229505545306E+00  1.653028337050E+00
   12     5 B     5.970311911607E+00 -4.668594987657E+00 -1.640517495483E+00
   13     1 H    -1.150684256592E+00  5.463772523211E+00  1.636951963868E+00
   14     1 H    -2.603597429396E-01  7.015520424925E+00 -1.654056899981E+00
   15     1 H     1.263419452644E+00 -5.277737481697E+00  1.649340042093E+00
   16     1 H     2.153817495439E+00 -3.725984563782E+00 -1.643542883822E+00
   17     1 H    -1.191919014196E+00 -5.291242013251E+00  1.644931698957E+00
   18     1 H    -3.069774040941E-01 -3.740225658329E+00 -1.647314092392E+00
   19     1 H     1.310153427679E+00  5.478041269630E+00  1.640573174954E+00
   20     1 H     2.194957942659E+00  7.028973718476E+00 -1.651144986944E+00
   21     1 H    -3.972000750227E+00  3.833254709503E+00  1.634044096662E+00
   22     1 H    -3.080440338163E+00  5.392407596306E+00 -1.656749039118E+00
   23     1 H     4.083343124076E+00 -3.654318704332E+00  1.652736420349E+00
   24     1 H     4.974904555394E+00 -2.095526090704E+00 -1.643554705067E+00
   25     1 H     5.319270309284E+00 -1.524102416474E+00  1.653899530177E+00
   26     1 H     6.204761471783E+00  3.818651815240E-02 -1.641462350904E+00
   27     1 H    -5.202001328226E+00  1.699727135879E+00  1.632567020623E+00
   28     1 H    -4.316269545642E+00  3.262091773993E+00 -1.659158462603E+00
   29     1 H    -3.981916862430E+00 -3.681798670718E+00  1.639226351242E+00
   30     1 H    -3.094530628653E+00 -2.129411610531E+00 -1.655941170427E+00
   31     1 H     4.097743423865E+00  3.867480071130E+00  1.650599616331E+00
   32     1 H     4.985087350094E+00  5.419750690959E+00 -1.643717339670E+00
   33     1 H     5.317721156929E+00  1.729557754789E+00  1.653286919278E+00
   34     1 H     6.203003183445E+00  3.287333010550E+00 -1.639886980876E+00
   35     1 H    -5.199784445691E+00 -1.549386796283E+00  1.636801861543E+00
   36     1 H    -4.314556348003E+00  8.462816444609E-03 -1.658961176674E+00
   37     6 C    -1.342143121142E+00  7.613996187746E+00  1.638260330709E+00
   38     6 C    -4.755279350967E-01 -5.893610041022E+00 -1.648220649861E+00
   39     6 C    -6.173126539970E-01  6.415375807376E+00  1.638430508743E+00
   40     6 C     2.463262727365E-01 -7.091135999619E+00 -1.648011646378E+00
   41     6 C     7.338378057103E-01 -6.230019694961E+00  1.647282099291E+00
   42     6 C     1.620431313717E+00 -4.677597078766E+00 -1.645058340444E+00
   43     6 C    -6.521005439780E-01 -6.239385273549E+00  1.645059439634E+00
   44     6 C     2.362040714605E-01 -4.686397212892E+00 -1.646945630653E+00
   45     6 C     7.669225437055E-01  6.424180246242E+00  1.640461759795E+00
   46     6 C     1.632259162927E+00 -7.081796302858E+00 -1.646413121235E+00
   47     6 C     1.455701343961E+00 -7.427539079350E+00  1.647357782661E+00
   48     6 C     2.345245387777E+00 -5.876239590322E+00 -1.644746475907E+00
   49     6 C     7.268812540299E+00 -2.444716522969E+00  1.655305166992E+00
   50     6 C     8.158256365490E+00 -8.825158383702E-01 -1.637555182062E+00
   51     6 C    -5.062260897232E+00  3.841322317471E+00  1.632970350028E+00
   52     6 C    -4.170825600112E+00  5.401386532901E+00 -1.659045842199E+00
   53     6 C     5.173729288315E+00 -3.663352092296E+00  1.653713484173E+00
   54     6 C     6.065165901415E+00 -2.103448018802E+00 -1.641398100923E+00
   55     6 C     5.869838578106E+00 -2.465153151509E+00  1.654285084582E+00
   56     6 C     6.756341772283E+00 -9.024414562572E-01 -1.640372936387E+00
   57     6 C    -5.753530931464E+00  2.640384873353E+00  1.632351456317E+00
   58     6 C    -4.866852750456E+00  4.203132778053E+00 -1.660391850848E+00
   59     6 C     5.855934843034E+00 -4.888174370753E+00  1.653952499901E+00
   60     6 C     6.745563084917E+00 -3.326046983047E+00 -1.639822260074E+00
   61     6 C     7.274626689849E+00  2.640487959117E+00  1.655381645755E+00
   62     6 C    -4.874431823921E+00 -3.352994754607E+00 -1.656896323671E+00
   63     6 C    -5.072912758868E+00 -3.689120809591E+00  1.637734640254E+00
   64     6 C    -4.185537380516E+00 -2.132584780596E+00 -1.657129561799E+00
   65     6 C     5.188739784295E+00  3.870605590695E+00  1.652099644875E+00
   66     6 C    -6.958187833749E+00 -2.123194399710E+00 -1.660387032623E+00
   67     6 C     5.874102257140E+00  2.667909013262E+00  1.653632995229E+00
   68     6 C    -6.272429241055E+00 -3.327561001997E+00 -1.658352962538E+00
   69     6 C    -5.758651433913E+00 -2.484727157880E+00  1.636232332520E+00
   70     6 C    -4.870918335685E+00 -9.299073662387E-01 -1.658990522175E+00
   71     6 C     5.877630919550E+00  5.090997118440E+00  1.652402057335E+00
   72     6 C    -6.271454966815E+00 -9.025478637237E-01 -1.660641835303E+00
   73     8 O     7.365247414545E+00  9.781095296438E-02  1.656134833077E+00
   74     8 O    -4.780834347700E+00 -5.896004203024E+00 -1.655086013591E+00
   75     8 O    -3.588585576511E+00  6.419321169174E+00  1.634161327804E+00
   76     8 O    -2.725198670594E+00 -7.083701622198E+00 -1.651220869751E+00
   77     8 O    -3.614429256168E+00 -6.267752487613E+00  1.639612566357E+00
   78     8 O    -2.725190398292E+00 -4.710565157527E+00 -1.652578471540E+00
   79     8 O     3.705265861246E+00 -6.237361808041E+00  1.649870057907E+00
   80     8 O     4.591670911401E+00 -4.681541054269E+00 -1.642091781728E+00
   81     8 O     3.728360275817E+00  6.448489584603E+00  1.647980535894E+00
   82     8 O     4.594650711678E+00 -7.053408463577E+00 -1.640742115292E+00
   83     8 O    -7.250386346420E+00  8.377682015549E-02  1.632241690238E+00
   84     8 O    -6.362158194165E+00  1.640079240260E+00 -1.662390608042E+00

 ****    1 SYMMOPS - TRANSLATORS IN FRACTIONAL UNITS
 **** MATRICES AND TRANSLATORS IN THE CRYSTALLOGRAPHIC REFERENCE FRAME
   V INV                    ROTATION MATRICES                   TRANSLATORS
   1   1  1.00 -0.00  0.00  0.00  1.00  0.00  0.00  0.00  1.00  0.00  0.00  0.00
 TTTTTTTTTTTTTTTTTTTTTTTTTTTTTT END         TELAPSE     7710.65 TCPU   407351.72
 EEEEEEEEEE TERMINATION  DATE 20 02 2026 TIME 17:36:56.3
