 Default number of threads is:           32

         
 *******************************************************************************
 *                                                                             *
 *                               CRYSTAL23                                     *
 *                      public : 1.0.1 - October 2022                          *
 *                       HTTP://WWW.CRYSTAL.UNITO.IT                           *
 *                                                                             *
 *                              MAIN AUTHORS                                   *
 *                                                                             *
 *  R. DOVESI(1,11), V.R. SAUNDERS(2), C. ROETTI(1,11), R. ORLANDO(1,11),      *
 *  C.M. ZICOVICH-WILSON(1,3), F. PASCALE(4), B. CIVALLERI(1,11),              *
 *  K. DOLL(5), N.M. HARRISON(6), I.J. BUSH(7), Ph. D'ARCO(8),                 *
 *  M. LLUNELL(9), M. CAUSA'(10), Y. NOEL(8), L. MASCHIO(1,11), A. ERBA(1,11)  *
 *  M. RE'RAT(14), S. CASASSA(1,11), B.G. SEARLE(2), J.K. DESMARAIS(1)         *
 *                                                                             *
 *        CONTRIBUTIONS TO THE CODE HAVE ALSO BEEN GIVEN BY                    *
 *                                                                             *
 *  M. FERRABONE(1,11), M. DE LA PIERRE(1,11), M. FERRERO(1,11),               *
 *  J. BAIMA(1,11), E. ALBANESE(1,11), M.F. PEINTINGER(12), R. BAST(13),       *
 *  B. KIRTMAN(15), V. LACIVITA(1,11), R. DEMICHELIS(1,16)                     *
 *  G. BRANDEBURG(17), S. SALUSTRO(1,11), G. SANSONE(1,11)                     *
 *  M.T. RUGGIERO(18), L.E. DAGA(1), L. DONA'(1), A. COSSARD(1)                *
 *                                                                             *
 * (1) THEORETICAL CHEMISTRY GROUP - UNIVERSITA' DI TORINO - TORINO (ITALY)    *
 * (2) SCIENTIFIC COMPUTING DEPARTMENT - STFC DARESBURY (UK)                   *
 * (3) UNIVERSIDAD AUTONOMA DEL ESTADO DE MORELOS - CUERNAVACA (MEXICO)        *
 * (4) UNIVERSITE' DE LORRAINE - NANCY (FRANCE)                                *
 * (5) UNIVERSITAET STUTTGART- STUTTGART (GERMANY)                             *
 * (6) IMPERIAL COLLEGE - LONDON (UK)                                          *
 * (7) SCIENTIFIC COMPUTING DEPARTMENT - STFC RAL (UK)                         *
 * (8) UPMC - SORBONNE UNIVERSITES - PARIS (FRANCE)                            *
 * (9) UNIVERSIDAD DE BARCELONA - BARCELONA (SPAIN)                            *
 *(10) UNIVERSITA' DI NAPOLI "FEDERICO II" - NAPOLI (ITALY)                    *
 *(11) NIS - NANOSTRUCTURED INTERFACES AND SURFACES - TORINO (ITALY)           *
 *(12) MPI FUER CHEMISCHE ENERGIEKONVERSION - MUELHEIM AN DER RUHR (GERMANY)   *
 *(13) UNIVERSITY OF TROMSO - TROMSO (NORWAY)                                  *
 *(14) UNIVERSITE' DE PAU ET DES PAYS DE L'ADOUR - PAU (FRANCE)                *
 *(15) UNIVERSITY OF CALIFORNIA SANTA BARBARA - SANTA BARBARA (USA)            *
 *(16) CURTIN UNIVERSITY - PERTH (AUSTRALIA)                                   *
 *(17) UNIVERSITY COLLEGE LONDON - LONDON (UK)                                 *
 *(18) UNIVERSITY OF VERMONT - BURLINGTON (USA)                                *
 *                                                                             *
 *******************************************************************************
 EEEEEEEEEE STARTING  DATE 19 02 2026 TIME 19:35:04.7
 cof-1_z31_L030_serr                                                             

 CRYSTAL CALCULATION
 (INPUT ACCORDING TO THE INTERNATIONAL TABLES FOR X-RAY CRYSTALLOGRAPHY)
 CRYSTAL FAMILY                       :  TRICLINIC   
 CRYSTAL CLASS  (GROTH - 1921)        :  TRICLINIC PEDIAL                     

 SPACE GROUP (NONCENTROSYMMETRIC)     :  P 1             

 LATTICE PARAMETERS  (ANGSTROMS AND DEGREES) - CONVENTIONAL CELL
        A           B           C        ALPHA        BETA       GAMMA
    15.02361    15.02392     6.20000    90.00032    89.99994   119.99596


 NUMBER OF IRREDUCIBLE ATOMS IN THE CONVENTIONAL CELL:   84

 INPUT COORDINATES

 ATOM AT. N.              COORDINATES
   1   5     6.136805400000E-01  2.273182200000E-01  2.507704400000E-01
   2   5     7.289503700000E-01  4.578813200000E-01  7.507704400000E-01
   3   5     7.727362000000E-01  3.863778800000E-01  2.507704500000E-01
   4   5     8.880060300000E-01  6.169409800000E-01  7.507704500000E-01
   5   5     6.136762700000E-01  3.863606700000E-01  2.491505800000E-01
   6   5     7.289461000000E-01  6.169237700000E-01  7.491505800000E-01
   7   5     2.272552500000E-01  6.136332200000E-01  2.507704500000E-01
   8   5     3.425250800000E-01  8.441963200000E-01  7.507704500000E-01
   9   5     3.863632200000E-01  6.136124500000E-01  2.507704400000E-01
  10   5     5.016330500000E-01  8.441755500000E-01  7.507704400000E-01
  11   5     3.863435000000E-01  7.727516500000E-01  2.491505800000E-01
  12   5     5.016133300000E-01  3.314750000000E-03  7.491505800000E-01
  13   1     9.030436200000E-01  3.089300500000E-01  2.474121300000E-01
  14   1     1.831345000000E-02  5.394931500000E-01  7.474121300000E-01
  15   1     9.663453000000E-02  6.910534400000E-01  2.468985900000E-01
  16   1     2.119043600000E-01  9.216165400000E-01  7.468985900000E-01
  17   1     9.029714200000E-01  5.940724300000E-01  2.468195500000E-01
  18   1     1.824125000000E-02  8.246355300000E-01  7.468195500000E-01
  19   1     9.673618000000E-02  4.056849400000E-01  2.468392700000E-01
  20   1     2.120060100000E-01  6.362480400000E-01  7.468392700000E-01
  21   1     6.910324000000E-01  9.700412000000E-02  2.525878900000E-01
  22   1     8.063022300000E-01  3.275672200000E-01  7.525878900000E-01
  23   1     3.089297200000E-01  9.034373100000E-01  2.531014700000E-01
  24   1     4.241995500000E-01  1.340004100000E-01  7.531014700000E-01
  25   1     4.058699900000E-01  9.704998000000E-02  2.531805500000E-01
  26   1     5.211398200000E-01  3.276130800000E-01  7.531805600000E-01
  27   1     5.943122100000E-01  9.033473200000E-01  2.531607000000E-01
  28   1     7.095820400000E-01  1.339104200000E-01  7.531607000000E-01
  29   1     6.910727400000E-01  5.940542100000E-01  2.474121600000E-01
  30   1     8.063425700000E-01  8.246173100000E-01  7.474121600000E-01
  31   1     3.089618300000E-01  4.056093300000E-01  2.468985500000E-01
  32   1     4.242316600000E-01  6.361724300000E-01  7.468985500000E-01
  33   1     4.058405700000E-01  3.088232500000E-01  2.468194900000E-01
  34   1     5.211104000000E-01  5.393863500000E-01  7.468194900000E-01
  35   1     5.942908800000E-01  6.909579300000E-01  2.468393300000E-01
  36   1     7.095607100000E-01  9.215210300000E-01  7.468393300000E-01
  37   6     8.918903100000E-01  4.459436900000E-01  2.490913100000E-01
  38   6     7.160140000000E-03  6.765067900000E-01  7.490913000000E-01
  39   6     9.464891100000E-01  3.927856300000E-01  2.474911700000E-01
  40   6     6.175894000000E-02  6.233487300000E-01  7.474911700000E-01
  41   6     5.338812000000E-02  6.071853000000E-01  2.473529300000E-01
  42   6     1.686579500000E-01  8.377484000000E-01  7.473529300000E-01
  43   6     9.464521100000E-01  5.536921900000E-01  2.477677700000E-01
  44   6     6.172194000000E-02  7.842552900000E-01  7.477677700000E-01
  45   6     5.342634000000E-02  4.462499700000E-01  2.467009900000E-01
  46   6     1.686961700000E-01  6.768130700000E-01  7.467009900000E-01
  47   6     1.080358900000E-01  5.540356300000E-01  2.477875100000E-01
  48   6     2.233057200000E-01  7.845987300000E-01  7.477875100000E-01
  49   6     5.540394200000E-01  1.081684600000E-01  2.509087300000E-01
  50   6     6.693092500000E-01  3.387315600000E-01  7.509087300000E-01
  51   6     6.071778500000E-01  5.355594000000E-02  2.525088500000E-01
  52   6     7.224476800000E-01  2.841190400000E-01  7.525088500000E-01
  53   6     3.927986700000E-01  9.466631600000E-01  2.526471400000E-01
  54   6     5.080685000000E-01  1.772262600000E-01  7.526471400000E-01
  55   6     4.462875800000E-01  5.360286000000E-02  2.522323000000E-01
  56   6     5.615574100000E-01  2.841659600000E-01  7.522323000000E-01
  57   6     5.537168500000E-01  9.466235600000E-01  2.532990200000E-01
  58   6     6.689866800000E-01  1.771866600000E-01  7.532990100000E-01
  59   6     4.459279100000E-01  8.919920600000E-01  2.522125300000E-01
  60   6     5.611977400000E-01  1.225551600000E-01  7.522125300000E-01
  61   6     5.540448700000E-01  4.458745500000E-01  2.490913100000E-01
  62   6     6.693147000000E-01  6.764376500000E-01  7.490913000000E-01
  63   6     6.072102200000E-01  5.536257800000E-01  2.474911900000E-01
  64   6     7.224800500000E-01  7.841888800000E-01  7.474912000000E-01
  65   6     3.928233700000E-01  4.461720300000E-01  2.473529000000E-01
  66   6     5.080932000000E-01  6.767351300000E-01  7.473529000000E-01
  67   6     4.462872600000E-01  3.926899900000E-01  2.477677300000E-01
  68   6     5.615570900000E-01  6.232530900000E-01  7.477677300000E-01
  69   6     5.537429600000E-01  6.070980000000E-01  2.467010200000E-01
  70   6     6.690127900000E-01  8.376611000000E-01  7.467010300000E-01
  71   6     4.459599800000E-01  5.539582300000E-01  2.477875100000E-01
  72   6     5.612298100000E-01  7.845213300000E-01  7.477875100000E-01
  73   8     5.607366800000E-01  2.803706300000E-01  2.495851700000E-01
  74   8     6.760065100000E-01  5.109337300000E-01  7.495851700000E-01
  75   8     7.196817000000E-01  2.803783300000E-01  2.530027000000E-01
  76   8     8.349515300000E-01  5.109414300000E-01  7.530027000000E-01
  77   8     7.196794200000E-01  4.393234600000E-01  2.478467900000E-01
  78   8     8.349492500000E-01  6.698865600000E-01  7.478467900000E-01
  79   8     2.803245100000E-01  7.196511100000E-01  2.495851900000E-01
  80   8     3.955943400000E-01  9.502142100000E-01  7.495851900000E-01
  81   8     2.803439700000E-01  5.606956100000E-01  2.530027000000E-01
  82   8     3.956138000000E-01  7.912587100000E-01  7.530027000000E-01
  83   8     4.392638400000E-01  7.196354200000E-01  2.478467700000E-01
  84   8     5.545336700000E-01  9.501985200000E-01  7.478467800000E-01

 *******************************************************************************

 << INFORMATION >>: FROM NOW ON, ALL COORDINATES REFER TO THE PRIMITIVE CELL

 *******************************************************************************

 LATTICE PARAMETERS  (ANGSTROMS AND DEGREES) - PRIMITIVE CELL
       A          B          C        ALPHA      BETA     GAMMA        VOLUME
   15.02361   15.02392    6.20000    90.00032  89.99994 119.99596   1211.985598

 COORDINATES OF THE EQUIVALENT ATOMS (FRACTIONAL UNITS)

 N. ATOM EQUIV AT. N.          X                  Y                  Z

   1   1   1    5 B    -3.86319460000E-01  2.27318220000E-01  2.50770440000E-01

   2   2   1    5 B    -2.71049630000E-01  4.57881320000E-01 -2.49229560000E-01

   3   3   1    5 B    -2.27263800000E-01  3.86377880000E-01  2.50770450000E-01

   4   4   1    5 B    -1.11993970000E-01 -3.83059020000E-01 -2.49229550000E-01

   5   5   1    5 B    -3.86323730000E-01  3.86360670000E-01  2.49150580000E-01

   6   6   1    5 B    -2.71053900000E-01 -3.83076230000E-01 -2.50849420000E-01

   7   7   1    5 B     2.27255250000E-01 -3.86366780000E-01  2.50770450000E-01

   8   8   1    5 B     3.42525080000E-01 -1.55803680000E-01 -2.49229550000E-01

   9   9   1    5 B     3.86363220000E-01 -3.86387550000E-01  2.50770440000E-01

  10  10   1    5 B    -4.98366950000E-01 -1.55824450000E-01 -2.49229560000E-01

  11  11   1    5 B     3.86343500000E-01 -2.27248350000E-01  2.49150580000E-01

  12  12   1    5 B    -4.98386670000E-01  3.31475000000E-03 -2.50849420000E-01

  13  13   1    1 H    -9.69563800000E-02  3.08930050000E-01  2.47412130000E-01

  14  14   1    1 H     1.83134500000E-02 -4.60506850000E-01 -2.52587870000E-01

  15  15   1    1 H     9.66345300000E-02 -3.08946560000E-01  2.46898590000E-01

  16  16   1    1 H     2.11904360000E-01 -7.83834600000E-02 -2.53101410000E-01

  17  17   1    1 H    -9.70285800000E-02 -4.05927570000E-01  2.46819550000E-01

  18  18   1    1 H     1.82412500000E-02 -1.75364470000E-01 -2.53180450000E-01

  19  19   1    1 H     9.67361800000E-02  4.05684940000E-01  2.46839270000E-01

  20  20   1    1 H     2.12006010000E-01 -3.63751960000E-01 -2.53160730000E-01

  21  21   1    1 H    -3.08967600000E-01  9.70041200000E-02  2.52587890000E-01

  22  22   1    1 H    -1.93697770000E-01  3.27567220000E-01 -2.47412110000E-01

  23  23   1    1 H     3.08929720000E-01 -9.65626900000E-02  2.53101470000E-01

  24  24   1    1 H     4.24199550000E-01  1.34000410000E-01 -2.46898530000E-01

  25  25   1    1 H     4.05869990000E-01  9.70499800000E-02  2.53180550000E-01

  26  26   1    1 H    -4.78860180000E-01  3.27613080000E-01 -2.46819440000E-01

  27  27   1    1 H    -4.05687790000E-01 -9.66526800000E-02  2.53160700000E-01

  28  28   1    1 H    -2.90417960000E-01  1.33910420000E-01 -2.46839300000E-01

  29  29   1    1 H    -3.08927260000E-01 -4.05945790000E-01  2.47412160000E-01

  30  30   1    1 H    -1.93657430000E-01 -1.75382690000E-01 -2.52587840000E-01

  31  31   1    1 H     3.08961830000E-01  4.05609330000E-01  2.46898550000E-01

  32  32   1    1 H     4.24231660000E-01 -3.63827570000E-01 -2.53101450000E-01

  33  33   1    1 H     4.05840570000E-01  3.08823250000E-01  2.46819490000E-01

  34  34   1    1 H    -4.78889600000E-01 -4.60613650000E-01 -2.53180510000E-01

  35  35   1    1 H    -4.05709120000E-01 -3.09042070000E-01  2.46839330000E-01

  36  36   1    1 H    -2.90439290000E-01 -7.84789700000E-02 -2.53160670000E-01

  37  37   1    6 C    -1.08109690000E-01  4.45943690000E-01  2.49091310000E-01

  38  38   1    6 C     7.16014000000E-03 -3.23493210000E-01 -2.50908700000E-01

  39  39   1    6 C    -5.35108900000E-02  3.92785630000E-01  2.47491170000E-01

  40  40   1    6 C     6.17589400000E-02 -3.76651270000E-01 -2.52508830000E-01

  41  41   1    6 C     5.33881200000E-02 -3.92814700000E-01  2.47352930000E-01

  42  42   1    6 C     1.68657950000E-01 -1.62251600000E-01 -2.52647070000E-01

  43  43   1    6 C    -5.35478900000E-02 -4.46307810000E-01  2.47767770000E-01

  44  44   1    6 C     6.17219400000E-02 -2.15744710000E-01 -2.52232230000E-01

  45  45   1    6 C     5.34263400000E-02  4.46249970000E-01  2.46700990000E-01

  46  46   1    6 C     1.68696170000E-01 -3.23186930000E-01 -2.53299010000E-01

  47  47   1    6 C     1.08035890000E-01 -4.45964370000E-01  2.47787510000E-01

  48  48   1    6 C     2.23305720000E-01 -2.15401270000E-01 -2.52212490000E-01

  49  49   1    6 C    -4.45960580000E-01  1.08168460000E-01  2.50908730000E-01

  50  50   1    6 C    -3.30690750000E-01  3.38731560000E-01 -2.49091270000E-01

  51  51   1    6 C    -3.92822150000E-01  5.35559400000E-02  2.52508850000E-01

  52  52   1    6 C    -2.77552320000E-01  2.84119040000E-01 -2.47491150000E-01

  53  53   1    6 C     3.92798670000E-01 -5.33368400000E-02  2.52647140000E-01

  54  54   1    6 C    -4.91931500000E-01  1.77226260000E-01 -2.47352860000E-01

  55  55   1    6 C     4.46287580000E-01  5.36028600000E-02  2.52232300000E-01

  56  56   1    6 C    -4.38442590000E-01  2.84165960000E-01 -2.47767700000E-01

  57  57   1    6 C    -4.46283150000E-01 -5.33764400000E-02  2.53299020000E-01

  58  58   1    6 C    -3.31013320000E-01  1.77186660000E-01 -2.46700990000E-01

  59  59   1    6 C     4.45927910000E-01 -1.08007940000E-01  2.52212530000E-01

  60  60   1    6 C    -4.38802260000E-01  1.22555160000E-01 -2.47787470000E-01

  61  61   1    6 C    -4.45955130000E-01  4.45874550000E-01  2.49091310000E-01

  62  62   1    6 C    -3.30685300000E-01 -3.23562350000E-01 -2.50908700000E-01

  63  63   1    6 C    -3.92789780000E-01 -4.46374220000E-01  2.47491190000E-01

  64  64   1    6 C    -2.77519950000E-01 -2.15811120000E-01 -2.52508800000E-01

  65  65   1    6 C     3.92823370000E-01  4.46172030000E-01  2.47352900000E-01

  66  66   1    6 C    -4.91906800000E-01 -3.23264870000E-01 -2.52647100000E-01

  67  67   1    6 C     4.46287260000E-01  3.92689990000E-01  2.47767730000E-01

  68  68   1    6 C    -4.38442910000E-01 -3.76746910000E-01 -2.52232270000E-01

  69  69   1    6 C    -4.46257040000E-01 -3.92902000000E-01  2.46701020000E-01

  70  70   1    6 C    -3.30987210000E-01 -1.62338900000E-01 -2.53298970000E-01

  71  71   1    6 C     4.45959980000E-01 -4.46041770000E-01  2.47787510000E-01

  72  72   1    6 C    -4.38770190000E-01 -2.15478670000E-01 -2.52212490000E-01

  73  73   1    8 O    -4.39263320000E-01  2.80370630000E-01  2.49585170000E-01

  74  74   1    8 O    -3.23993490000E-01 -4.89066270000E-01 -2.50414830000E-01

  75  75   1    8 O    -2.80318300000E-01  2.80378330000E-01  2.53002700000E-01

  76  76   1    8 O    -1.65048470000E-01 -4.89058570000E-01 -2.46997300000E-01

  77  77   1    8 O    -2.80320580000E-01  4.39323460000E-01  2.47846790000E-01

  78  78   1    8 O    -1.65050750000E-01 -3.30113440000E-01 -2.52153210000E-01

  79  79   1    8 O     2.80324510000E-01 -2.80348890000E-01  2.49585190000E-01

  80  80   1    8 O     3.95594340000E-01 -4.97857900000E-02 -2.50414810000E-01

  81  81   1    8 O     2.80343970000E-01 -4.39304390000E-01  2.53002700000E-01

  82  82   1    8 O     3.95613800000E-01 -2.08741290000E-01 -2.46997300000E-01

  83  83   1    8 O     4.39263840000E-01 -2.80364580000E-01  2.47846770000E-01

  84  84   1    8 O    -4.45466330000E-01 -4.98014800000E-02 -2.52153220000E-01

 NUMBER OF SYMMETRY OPERATORS         :    1
 *******************************************************************************
 * GEOMETRY EDITING - INPUT COORDINATES ARE GIVEN IN ANGSTROM         
 *******************************************************************************

 GCALCO - MAX INDICES DIRECT LATTICE VECTOR    11    11    25
 NO.OF VECTORS CREATED 6999 STARS 3500 RMAX   238.87863 BOHR

 GEOMETRY FOR WAVE FUNCTION - DIMENSIONALITY OF THE SYSTEM    3
 (NON PERIODIC DIRECTION: LATTICE PARAMETER FORMALLY SET TO 500)
 *******************************************************************************
 LATTICE PARAMETERS (ANGSTROMS AND DEGREES) - BOHR = 0.5291772083 ANGSTROM
 PRIMITIVE CELL - CENTRING CODE 1/0 VOLUME=  1211.985598 - DENSITY  1.069 g/cm^3
         A              B              C           ALPHA      BETA       GAMMA 
    15.02361100    15.02391600     6.20000000    90.000323  89.999944 119.995964
 *******************************************************************************
 ATOMS IN THE ASYMMETRIC UNIT   84 - ATOMS IN THE UNIT CELL:   84
     ATOM                 X/A                 Y/B                 Z/C    
 *******************************************************************************
      1 T   5 B    -3.863194600000E-01  2.273182200000E-01  2.507704400000E-01
      2 T   5 B    -2.710496300000E-01  4.578813200000E-01 -2.492295600000E-01
      3 T   5 B    -2.272638000000E-01  3.863778800000E-01  2.507704500000E-01
      4 T   5 B    -1.119939700000E-01 -3.830590200000E-01 -2.492295500000E-01
      5 T   5 B    -3.863237300000E-01  3.863606700000E-01  2.491505800000E-01
      6 T   5 B    -2.710539000000E-01 -3.830762300000E-01 -2.508494200000E-01
      7 T   5 B     2.272552500000E-01 -3.863667800000E-01  2.507704500000E-01
      8 T   5 B     3.425250800000E-01 -1.558036800000E-01 -2.492295500000E-01
      9 T   5 B     3.863632200000E-01 -3.863875500000E-01  2.507704400000E-01
     10 T   5 B    -4.983669500000E-01 -1.558244500000E-01 -2.492295600000E-01
     11 T   5 B     3.863435000000E-01 -2.272483500000E-01  2.491505800000E-01
     12 T   5 B    -4.983866700000E-01  3.314750000000E-03 -2.508494200000E-01
     13 T   1 H    -9.695638000000E-02  3.089300500000E-01  2.474121300000E-01
     14 T   1 H     1.831345000000E-02 -4.605068500000E-01 -2.525878700000E-01
     15 T   1 H     9.663453000000E-02 -3.089465600000E-01  2.468985900000E-01
     16 T   1 H     2.119043600000E-01 -7.838346000000E-02 -2.531014100000E-01
     17 T   1 H    -9.702858000000E-02 -4.059275700000E-01  2.468195500000E-01
     18 T   1 H     1.824125000000E-02 -1.753644700000E-01 -2.531804500000E-01
     19 T   1 H     9.673618000000E-02  4.056849400000E-01  2.468392700000E-01
     20 T   1 H     2.120060100000E-01 -3.637519600000E-01 -2.531607300000E-01
     21 T   1 H    -3.089676000000E-01  9.700412000000E-02  2.525878900000E-01
     22 T   1 H    -1.936977700000E-01  3.275672200000E-01 -2.474121100000E-01
     23 T   1 H     3.089297200000E-01 -9.656269000000E-02  2.531014700000E-01
     24 T   1 H     4.241995500000E-01  1.340004100000E-01 -2.468985300000E-01
     25 T   1 H     4.058699900000E-01  9.704998000000E-02  2.531805500000E-01
     26 T   1 H    -4.788601800000E-01  3.276130800000E-01 -2.468194400000E-01
     27 T   1 H    -4.056877900000E-01 -9.665268000000E-02  2.531607000000E-01
     28 T   1 H    -2.904179600000E-01  1.339104200000E-01 -2.468393000000E-01
     29 T   1 H    -3.089272600000E-01 -4.059457900000E-01  2.474121600000E-01
     30 T   1 H    -1.936574300000E-01 -1.753826900000E-01 -2.525878400000E-01
     31 T   1 H     3.089618300000E-01  4.056093300000E-01  2.468985500000E-01
     32 T   1 H     4.242316600000E-01 -3.638275700000E-01 -2.531014500000E-01
     33 T   1 H     4.058405700000E-01  3.088232500000E-01  2.468194900000E-01
     34 T   1 H    -4.788896000000E-01 -4.606136500000E-01 -2.531805100000E-01
     35 T   1 H    -4.057091200000E-01 -3.090420700000E-01  2.468393300000E-01
     36 T   1 H    -2.904392900000E-01 -7.847897000000E-02 -2.531606700000E-01
     37 T   6 C    -1.081096900000E-01  4.459436900000E-01  2.490913100000E-01
     38 T   6 C     7.160140000000E-03 -3.234932100000E-01 -2.509087000000E-01
     39 T   6 C    -5.351089000000E-02  3.927856300000E-01  2.474911700000E-01
     40 T   6 C     6.175894000000E-02 -3.766512700000E-01 -2.525088300000E-01
     41 T   6 C     5.338812000000E-02 -3.928147000000E-01  2.473529300000E-01
     42 T   6 C     1.686579500000E-01 -1.622516000000E-01 -2.526470700000E-01
     43 T   6 C    -5.354789000000E-02 -4.463078100000E-01  2.477677700000E-01
     44 T   6 C     6.172194000000E-02 -2.157447100000E-01 -2.522322300000E-01
     45 T   6 C     5.342634000000E-02  4.462499700000E-01  2.467009900000E-01
     46 T   6 C     1.686961700000E-01 -3.231869300000E-01 -2.532990100000E-01
     47 T   6 C     1.080358900000E-01 -4.459643700000E-01  2.477875100000E-01
     48 T   6 C     2.233057200000E-01 -2.154012700000E-01 -2.522124900000E-01
     49 T   6 C    -4.459605800000E-01  1.081684600000E-01  2.509087300000E-01
     50 T   6 C    -3.306907500000E-01  3.387315600000E-01 -2.490912700000E-01
     51 T   6 C    -3.928221500000E-01  5.355594000000E-02  2.525088500000E-01
     52 T   6 C    -2.775523200000E-01  2.841190400000E-01 -2.474911500000E-01
     53 T   6 C     3.927986700000E-01 -5.333684000000E-02  2.526471400000E-01
     54 T   6 C    -4.919315000000E-01  1.772262600000E-01 -2.473528600000E-01
     55 T   6 C     4.462875800000E-01  5.360286000000E-02  2.522323000000E-01
     56 T   6 C    -4.384425900000E-01  2.841659600000E-01 -2.477677000000E-01
     57 T   6 C    -4.462831500000E-01 -5.337644000000E-02  2.532990200000E-01
     58 T   6 C    -3.310133200000E-01  1.771866600000E-01 -2.467009900000E-01
     59 T   6 C     4.459279100000E-01 -1.080079400000E-01  2.522125300000E-01
     60 T   6 C    -4.388022600000E-01  1.225551600000E-01 -2.477874700000E-01
     61 T   6 C    -4.459551300000E-01  4.458745500000E-01  2.490913100000E-01
     62 T   6 C    -3.306853000000E-01 -3.235623500000E-01 -2.509087000000E-01
     63 T   6 C    -3.927897800000E-01 -4.463742200000E-01  2.474911900000E-01
     64 T   6 C    -2.775199500000E-01 -2.158111200000E-01 -2.525088000000E-01
     65 T   6 C     3.928233700000E-01  4.461720300000E-01  2.473529000000E-01
     66 T   6 C    -4.919068000000E-01 -3.232648700000E-01 -2.526471000000E-01
     67 T   6 C     4.462872600000E-01  3.926899900000E-01  2.477677300000E-01
     68 T   6 C    -4.384429100000E-01 -3.767469100000E-01 -2.522322700000E-01
     69 T   6 C    -4.462570400000E-01 -3.929020000000E-01  2.467010200000E-01
     70 T   6 C    -3.309872100000E-01 -1.623389000000E-01 -2.532989700000E-01
     71 T   6 C     4.459599800000E-01 -4.460417700000E-01  2.477875100000E-01
     72 T   6 C    -4.387701900000E-01 -2.154786700000E-01 -2.522124900000E-01
     73 T   8 O    -4.392633200000E-01  2.803706300000E-01  2.495851700000E-01
     74 T   8 O    -3.239934900000E-01 -4.890662700000E-01 -2.504148300000E-01
     75 T   8 O    -2.803183000000E-01  2.803783300000E-01  2.530027000000E-01
     76 T   8 O    -1.650484700000E-01 -4.890585700000E-01 -2.469973000000E-01
     77 T   8 O    -2.803205800000E-01  4.393234600000E-01  2.478467900000E-01
     78 T   8 O    -1.650507500000E-01 -3.301134400000E-01 -2.521532100000E-01
     79 T   8 O     2.803245100000E-01 -2.803488900000E-01  2.495851900000E-01
     80 T   8 O     3.955943400000E-01 -4.978579000000E-02 -2.504148100000E-01
     81 T   8 O     2.803439700000E-01 -4.393043900000E-01  2.530027000000E-01
     82 T   8 O     3.956138000000E-01 -2.087412900000E-01 -2.469973000000E-01
     83 T   8 O     4.392638400000E-01 -2.803645800000E-01  2.478467700000E-01
     84 T   8 O    -4.454663300000E-01 -4.980148000000E-02 -2.521532200000E-01

 T = ATOM BELONGING TO THE ASYMMETRIC UNIT

 ****    1 SYMMOPS - TRANSLATORS IN FRACTIONAL UNITS
 **** MATRICES AND TRANSLATORS IN THE CRYSTALLOGRAPHIC REFERENCE FRAME
   V INV                    ROTATION MATRICES                   TRANSLATORS
   1   1  1.00 -0.00  0.00  0.00  1.00  0.00  0.00  0.00  1.00  0.00  0.00  0.00

 DIRECT LATTICE VECTORS CARTESIAN COMPONENTS (ANGSTROM)
          X                    Y                    Z
   0.130113578931E+02  -0.751088897922E+01   0.000000000000E+00
   0.000000000000E+00   0.150239160000E+02   0.000000000000E+00
  -0.131792926326E-04  -0.349519635990E-04   0.619999999989E+01


 CARTESIAN COORDINATES - PRIMITIVE CELL
 *******************************************************************************
 *      ATOM          X(ANGSTROM)         Y(ANGSTROM)         Z(ANGSTROM)
 *******************************************************************************
    1     5 B    -5.026544060089E+00  6.316803652201E+00  1.554776727972E+00
    2     5 B    -3.526720458041E+00 -6.108913120501E+00 -1.545223271972E+00
    3     5 B    -2.957013942913E+00  7.511853219253E+00  1.554776789972E+00
    4     5 B    -1.457190340865E+00 -4.913863553448E+00 -1.545223209972E+00
    5     5 B    -5.026599597239E+00 -6.317639810451E+00  1.544733595972E+00
    6     5 B    -3.526775995191E+00 -3.719440583153E+00 -1.555266403972E+00
    7     5 B     2.956896085849E+00 -7.511639765524E+00  1.554776789972E+00
    8     5 B     4.456719687897E+00 -4.913440538226E+00 -1.545223209972E+00
    9     5 B     5.027106827157E+00  6.316921889362E+00  1.554776727972E+00
   10     5 B    -6.484427463852E+00  1.402094095877E+00 -1.545223271972E+00
   11     5 B     5.026850264528E+00 -6.315951966183E+00  1.544733595972E+00
   12     5 B     6.526673866576E+00 -3.717752738884E+00 -1.555266403972E+00
   13     1 H    -1.261537420912E+00  5.369559079543E+00  1.533955205972E+00
   14     1 H     2.382861811361E-01 -7.056157693159E+00 -1.566044793972E+00
   15     1 H     1.257343200709E+00 -5.367407021908E+00  1.530771257972E+00
   16     1 H     2.757166802757E+00 -2.769207794610E+00 -1.569228741972E+00
   17     1 H    -1.262476833142E+00 -5.369859448401E+00  1.530281209972E+00
   18     1 H     2.373467689060E-01 -2.771660221103E+00 -1.569718789972E+00
   19     1 H     1.258665806020E+00  5.368393125254E+00  1.530403473972E+00
   20     1 H     2.758489408068E+00 -7.057323647447E+00 -1.569596525972E+00
   21     1 H    -4.020091349888E+00  3.777994263866E+00  1.566044917972E+00
   22     1 H    -2.520267747840E+00  6.376193491164E+00 -1.533955081972E+00
   23     1 H     4.019591815023E+00 -3.771095418988E+00  1.569229113972E+00
   24     1 H     5.519415417072E+00 -1.172896191690E+00 -1.530770885972E+00
   25     1 H     5.280916361201E+00 -1.590382536721E+00  1.569719409972E+00
   26     1 H     6.780739963249E+00  1.007816690577E+00 -1.530280527972E+00
   27     1 H    -5.278552365012E+00  1.594965356955E+00  1.569596339972E+00
   28     1 H    -3.778728762964E+00  4.193164584253E+00 -1.530403659972E+00
   29     1 H    -4.019566403499E+00 -3.778585744541E+00  1.533955391972E+00
   30     1 H    -2.519742801450E+00 -1.180386517243E+00 -1.566044607972E+00
   31     1 H     4.020009691475E+00  3.773253869202E+00  1.530771009972E+00
   32     1 H    -7.491524599533E+00 -1.141573924284E+00 -1.569228989972E+00
   33     1 H     5.280533650886E+00  1.591502475489E+00  1.530280837972E+00
   34     1 H    -6.231000640123E+00 -3.323325317996E+00 -1.569719161972E+00
   35     1 H    -5.278829813965E+00 -1.595794569490E+00  1.530403845972E+00
   36     1 H    -3.779006211917E+00  1.002404657808E+00 -1.569596153972E+00
   37     6 C    -1.406657151145E+00  7.511811712227E+00  1.544366121972E+00
   38     6 C     9.316645090357E-02 -4.913905060474E+00 -1.555633939972E+00
   39     6 C    -6.962526027245E-01  6.303084014794E+00  1.534445253972E+00
   40     6 C     8.035709993236E-01 -6.122632757908E+00 -1.565554745972E+00
   41     6 C     6.946486766208E-01 -6.302615943965E+00  1.533588165972E+00
   42     6 C     2.194472278669E+00 -3.704416716667E+00 -1.566411833972E+00
   43     6 C    -6.967340266120E-01 -6.303107450693E+00  1.536160173972E+00
   44     6 C     8.030895754361E-01 -3.704908223394E+00 -1.563839825972E+00
   45     6 C     6.951459793116E-01  6.303134133293E+00  1.529546137972E+00
   46     6 C     2.194969581360E+00 -6.122582639409E+00 -1.570453861971E+00
   47     6 C     1.405690364421E+00 -7.511585470094E+00  1.536282561972E+00
   48     6 C     2.905513966469E+00 -4.913386242796E+00 -1.563717437972E+00
   49     6 C     7.208801873682E+00 -2.536223486593E+00  1.555634125972E+00
   50     6 C    -4.302732417327E+00 -7.451051280078E+00 -1.544365873972E+00
   51     6 C    -5.111152909858E+00  3.755054675408E+00  1.565554869972E+00
   52     6 C    -3.611329307810E+00  6.353253902706E+00 -1.534445129972E+00
   53     6 C     5.110840745576E+00 -3.751604235933E+00  1.566412267972E+00
   54     6 C     6.610664347624E+00 -1.153405008635E+00 -1.533587731972E+00
   55     6 C     5.806804102363E+00 -2.546700416198E+00  1.563840259972E+00
   56     6 C     7.306627704411E+00  5.149881110065E-02 -1.536159739972E+00
   57     6 C    -5.806753124593E+00  2.550051188708E+00  1.570453923971E+00
   58     6 C    -4.306929522544E+00  5.148250416006E+00 -1.529546137972E+00
   59     6 C     5.802124307530E+00 -4.972026057960E+00  1.563717685972E+00
   60     6 C     7.301947909578E+00 -2.373826830662E+00 -1.536282313972E+00
   61     6 C     7.208872809535E+00  2.537403571433E+00  1.544366121972E+00
   62     6 C    -4.302661481474E+00 -2.377424222052E+00 -1.555633939972E+00
   63     6 C    -5.110731666074E+00 -3.756097006398E+00  1.534445377972E+00
   64     6 C    -3.610908064026E+00 -1.157897779100E+00 -1.565554559972E+00
   65     6 C     5.111162195890E+00  3.752789734288E+00  1.533587979972E+00
   66     6 C    -6.400372095118E+00 -1.162038059197E+00 -1.566412019972E+00
   67     6 C     5.806799997568E+00  2.547718701133E+00  1.536159925972E+00
   68     6 C    -5.704734293440E+00 -2.367109092352E+00 -1.563840073972E+00
   69     6 C    -5.806413311081E+00 -2.551148183283E+00  1.529546323972E+00
   70     6 C    -4.306589709033E+00  4.705104401458E-02 -1.570453613971E+00
   71     6 C     5.802541640096E+00  4.973057355415E+00  1.536282561972E+00
   72     6 C    -5.708992650912E+00  5.822956192976E-02 -1.563717437972E+00
   73     8 O     7.295942337888E+00  6.251204408774E-04  1.547428053972E+00
   74     8 O    -4.215591953120E+00 -4.914202673044E+00 -1.552571945972E+00
   75     8 O    -3.647325059670E+00  6.317811265342E+00  1.568616739972E+00
   76     8 O    -2.147501457622E+00 -6.107905507360E+00 -1.531383259972E+00
   77     8 O    -3.647354657615E+00 -6.318109147893E+00  1.536650097972E+00
   78     8 O    -2.147531055566E+00 -3.719909920595E+00 -1.563349901972E+00
   79     8 O     3.647399236449E+00 -6.317433170309E+00  1.547428177972E+00
   80     8 O     5.147222838498E+00 -3.719233943011E+00 -1.552571821972E+00
   81     8 O     3.647652392434E+00  6.318202468605E+00  1.568616739972E+00
   82     8 O     5.147475994482E+00 -6.107514304097E+00 -1.531383259972E+00
   83     8 O    -7.295942127783E+00 -5.555176344062E-04  1.536649973972E+00
   84     8 O    -5.796118525735E+00  2.597643709663E+00 -1.563349963972E+00

 *******************************************************************************
 STARTING BASIS SET HANDLING 
 *******************************************************************************

 Loading internal basis set: SOLDEF2MSVP         

 Please cite in your publication:
 L. Dona', J. G. Brandenburg and B. Civalleri, J. Chem. Phys., 151, 121101 (2019
 )                                                                              
                                                                                
                    

 *******************************************************************************
 LOCAL ATOMIC FUNCTIONS BASIS SET
 *******************************************************************************
   ATOM   X(AU)   Y(AU)   Z(AU)  N. TYPE  EXPONENT  S COEF   P COEF   D/F/G COEF
 *******************************************************************************
   1 B   -9.499  11.937   2.938
                                  1 S  
                                         2.410E+03 1.755E-03 0.000E+00 0.000E+00
                                         3.619E+02 1.344E-02 0.000E+00 0.000E+00
                                         8.231E+01 6.637E-02 0.000E+00 0.000E+00
                                         2.311E+01 2.303E-01 0.000E+00 0.000E+00
                                         7.252E+00 5.150E-01 0.000E+00 0.000E+00
                                  2 S  
                                         2.367E+00 1.000E+00 0.000E+00 0.000E+00
                                  3 S  
                                         5.533E-01 1.000E+00 0.000E+00 0.000E+00
                                  4 S  
                                         1.716E-01 1.000E+00 0.000E+00 0.000E+00
                           5-     7 P  
                                         6.002E+00 0.000E+00-3.555E-02 0.000E+00
                                         1.240E+00 0.000E+00-1.983E-01 0.000E+00
                                         3.367E-01 0.000E+00-5.048E-01 0.000E+00
                           8-    10 P  
                                         1.256E-01 0.000E+00 1.000E+00 0.000E+00
                          11-    15 D  
                                         8.880E-01 0.000E+00 0.000E+00 1.000E+00
   2 B   -6.665 -11.544  -2.920
   3 B   -5.588  14.195   2.938
   4 B   -2.754  -9.286  -2.920
   5 B   -9.499 -11.939   2.919
   6 B   -6.665  -7.029  -2.939
   7 B    5.588 -14.195   2.938
   8 B    8.422  -9.285  -2.920
   9 B    9.500  11.937   2.938
  10 B  -12.254   2.650  -2.920
  11 B    9.499 -11.935   2.919
  12 B   12.334  -7.026  -2.939
  13 H   -2.384  10.147   2.899
                                181 S  
                                         1.874E+01 1.968E-02 0.000E+00 0.000E+00
                                         2.826E+00 1.380E-01 0.000E+00 0.000E+00
                                         6.401E-01 4.783E-01 0.000E+00 0.000E+00
                                182 S  
                                         1.756E-01 1.000E+00 0.000E+00 0.000E+00
  14 H    0.450 -13.334  -2.959
  15 H    2.376 -10.143   2.893
  16 H    5.210  -5.233  -2.965
  17 H   -2.386 -10.148   2.892
  18 H    0.449  -5.238  -2.966
  19 H    2.379  10.145   2.892
  20 H    5.213 -13.336  -2.966
  21 H   -7.597   7.139   2.959
  22 H   -4.763  12.049  -2.899
  23 H    7.596  -7.126   2.965
  24 H   10.430  -2.216  -2.893
  25 H    9.979  -3.005   2.966
  26 H   12.814   1.904  -2.892
  27 H   -9.975   3.014   2.966
  28 H   -7.141   7.924  -2.892
  29 H   -7.596  -7.140   2.899
  30 H   -4.762  -2.231  -2.959
  31 H    7.597   7.130   2.893
  32 H  -14.157  -2.157  -2.965
  33 H    9.979   3.008   2.892
  34 H  -11.775  -6.280  -2.966
  35 H   -9.976  -3.016   2.892
  36 H   -7.141   1.894  -2.966
  37 C   -2.658  14.195   2.918
                                229 S  
                                         3.624E+03 1.634E-03 0.000E+00 0.000E+00
                                         5.440E+02 1.252E-02 0.000E+00 0.000E+00
                                         1.237E+02 6.211E-02 0.000E+00 0.000E+00
                                         3.476E+01 2.182E-01 0.000E+00 0.000E+00
                                         1.093E+01 4.980E-01 0.000E+00 0.000E+00
                                230 S  
                                         3.574E+00 1.000E+00 0.000E+00 0.000E+00
                                231 S  
                                         7.742E-01 1.000E+00 0.000E+00 0.000E+00
                                232 S  
                                         2.330E-01 1.000E+00 0.000E+00 0.000E+00
                         233-   235 P  
                                         9.443E+00 0.000E+00 3.790E-02 0.000E+00
                                         2.002E+00 0.000E+00 2.082E-01 0.000E+00
                                         5.463E-01 0.000E+00 5.047E-01 0.000E+00
                         236-   238 P  
                                         1.820E-01 0.000E+00 1.000E+00 0.000E+00
                         239-   243 D  
                                         8.880E-01 0.000E+00 0.000E+00 1.000E+00
  38 C    0.176  -9.286  -2.940
  39 C   -1.316  11.911   2.900
  40 C    1.519 -11.570  -2.958
  41 C    1.313 -11.910   2.898
  42 C    4.147  -7.000  -2.960
  43 C   -1.317 -11.911   2.903
  44 C    1.518  -7.001  -2.955
  45 C    1.314  11.911   2.890
  46 C    4.148 -11.570  -2.968
  47 C    2.656 -14.195   2.903
  48 C    5.491  -9.285  -2.955
  49 C   13.623  -4.793   2.940
  50 C   -8.131 -14.080  -2.918
  51 C   -9.659   7.096   2.958
  52 C   -6.824  12.006  -2.900
  53 C    9.658  -7.090   2.960
  54 C   12.492  -2.180  -2.898
  55 C   10.973  -4.813   2.955
  56 C   13.808   0.097  -2.903
  57 C  -10.973   4.819   2.968
  58 C   -8.139   9.729  -2.890
  59 C   10.964  -9.396   2.955
  60 C   13.799  -4.486  -2.903
  61 C   13.623   4.795   2.918
  62 C   -8.131  -4.493  -2.940
  63 C   -9.658  -7.098   2.900
  64 C   -6.824  -2.188  -2.958
  65 C    9.659   7.092   2.898
  66 C  -12.095  -2.196  -2.960
  67 C   10.973   4.814   2.903
  68 C  -10.780  -4.473  -2.955
  69 C  -10.973  -4.821   2.890
  70 C   -8.138   0.089  -2.968
  71 C   10.965   9.398   2.903
  72 C  -10.788   0.110  -2.955
  73 O   13.787   0.001   2.924
                                769 S  
                                         6.773E+03 1.727E-03 0.000E+00 0.000E+00
                                         1.017E+03 1.325E-02 0.000E+00 0.000E+00
                                         2.313E+02 6.603E-02 0.000E+00 0.000E+00
                                         6.501E+01 2.353E-01 0.000E+00 0.000E+00
                                         2.050E+01 5.498E-01 0.000E+00 0.000E+00
                                770 S  
                                         6.716E+00 1.000E+00 0.000E+00 0.000E+00
                                771 S  
                                         1.147E+00 1.000E+00 0.000E+00 0.000E+00
                                772 S  
                                         3.342E-01 1.000E+00 0.000E+00 0.000E+00
                         773-   775 P  
                                         1.769E+01 0.000E+00 4.359E-02 0.000E+00
                                         3.854E+00 0.000E+00 2.318E-01 0.000E+00
                                         1.047E+00 0.000E+00 5.146E-01 0.000E+00
                         776-   778 P  
                                         2.759E-01 0.000E+00 1.000E+00 0.000E+00
                         779-   783 D  
                                         8.000E-01 0.000E+00 0.000E+00 1.000E+00
  74 O   -7.966  -9.286  -2.934
  75 O   -6.892  11.939   2.964
  76 O   -4.058 -11.542  -2.894
  77 O   -6.893 -11.939   2.904
  78 O   -4.058  -7.030  -2.954
  79 O    6.893 -11.938   2.924
  80 O    9.727  -7.028  -2.934
  81 O    6.893  11.940   2.964
  82 O    9.727 -11.542  -2.894
  83 O  -13.787  -0.001   2.904
  84 O  -10.953   4.909  -2.954

 *******************************************************************************
 FINISHED BASIS SET HANDLING 
 *******************************************************************************

 INFORMATION **** SET_MPP **** PCRYSTAL CALCULATION
 INFORMATION **** READM2 **** NEW DEFAULT: FOCK/KS MATRIX MIXING SET TO 30 %
 INFORMATION **** READM2 **** NEW DEFAULT: FULL DIRECT SCF MODE
 INFORMATION **** READM2 **** NEW DEFAULT: COULOMB BIPOLAR BUFFER SET TO 32 Mb
 INFORMATION **** READM2 **** NEW DEFAULT: EXCHANGE BIPOLAR BUFFER SET TO 32 Mb

 *******************************************************************************
 NEW DEFAULT: DFT INTEGRATION GRID INCREASED TO XLGRID
 NEW DEFAULT: DIIS ACCELERATOR ACTIVE
 USE KEYWORD NODIIS TO TURN IT OFF
 *******************************************************************************

 WARNING **** RDDFTP **** HSEsol-HJS ACTIVE
 RANGE SEPARATION - OMEGA:   0.110000000000000     
 WARNING **** RDDFTP **** HSEsol-3c has to be combined with sol-def2-mSVP basis set
 *******************************************************************************
 N. OF ATOMS PER CELL        84  COULOMB OVERLAP TOL         (T1) 10**   -6
 NUMBER OF SHELLS           468  COULOMB PENETRATION TOL     (T2) 10**   -6
 NUMBER OF AO               948  EXCHANGE OVERLAP TOL        (T3) 10**   -6
 N. OF ELECTRONS PER CELL   396  EXCHANGE PSEUDO OVP (F(G))  (T4) 10**   -6
 CORE ELECTRONS PER CELL    120  EXCHANGE PSEUDO OVP (P(G))  (T5) 10**  -12
 N. OF SYMMETRY OPERATORS     1  POLE ORDER IN MONO ZONE                  4
 *******************************************************************************
 TYPE OF CALCULATION :  RESTRICTED CLOSED SHELL
 KOHN-SHAM HAMILTONIAN

 (EXCHANGE)[CORRELATION] FUNCTIONAL:(HSEsol GGA)[PBEsol]

 RANGE-SEPARATED HYBRID FUNCTIONAL 
 OMEGA (SHORT-RANGE)[LONG-RANGE]:(    0.1100)[    0.0000]

 HYBRID EXCHANGE - PERCENTAGE OF FOCK EXCHANGE    25.0000

 CAPPA:IS1  2;IS2  2;IS3  8; K PTS MONK NET  20; SYMMOPS:K SPACE   2;G SPACE   1

 *******************************************************************************
 MAX NUMBER OF SCF CYCLES      50  CONVERGENCE ON DELTAP        10**-16
 WEIGHT OF F(I) IN F(I+1)      30% CONVERGENCE ON ENERGY        10**- 6
 SHRINK. FACT.(MONKH.)    2  2  8  NUMBER OF K POINTS IN THE IBZ     20
 SHRINKING FACTOR(GILAT NET)    8  NUMBER OF K POINTS(GILAT NET)   1028
 *******************************************************************************
 *** K POINTS COORDINATES (OBLIQUE COORDINATES IN UNITS OF IS =  2)
   1-R(  0  0  0)   2-R(  1  0  0)   3-R(  0  1  0)   4-R(  1  1  0)
   5-C(  0  0  1)   6-C(  1  0  1)   7-C(  0  1  1)   8-C(  1  1  1)
   9-C(  0  0  2)  10-C(  1  0  2)  11-C(  0  1  2)  12-C(  1  1  2)
  13-C(  0  0  3)  14-C(  1  0  3)  15-C(  0  1  3)  16-C(  1  1  3)
  17-R(  0  0  4)  18-R(  1  0  4)  19-R(  0  1  4)  20-R(  1  1  4)

 DIRECT LATTICE VECTORS COMPON. (A.U.)     RECIP. LATTICE VECTORS COMPON. (A.U.) 
        X            Y            Z              X            Y            Z
   24.5879030  -14.1935232    0.0000000      0.2555397    0.0000000    0.0000005
    0.0000000   28.3910867    0.0000000      0.1277517    0.2213084    0.0000015
   -0.0000249   -0.0000660   11.7163020      0.0000000    0.0000000    0.5362772

 DISK SPACE FOR EIGENVECTORS (FTN 10)    28758528 REALS

 SYMMETRY ADAPTION OF THE BLOCH FUNCTIONS DISABLED
 TTTTTTTTTTTTTTTTTTTTTTTTTTTTTT gordsh1     TELAPSE        0.05 TCPU        0.05

 MATRIX SIZE: P(G)  854404, F(G)  167521, P(G) IRR  429368, F(G) IRR  168769
 MAX G-VECTOR INDEX FOR 1- AND 2-ELECTRON INTEGRALS  67

 TTTTTTTTTTTTTTTTTTTTTTTTTTTTTT INPUT       TELAPSE        3.03 TCPU        3.02

 NEIGHBORS OF THE NON-EQUIVALENT ATOMS

 N = NUMBER OF NEIGHBORS AT DISTANCE R
    ATOM  N     R/ANG      R/AU   NEIGHBORS (ATOM LABELS AND CELL INDICES)
   1 B    1     1.3791     2.6061   73 O   -1 0 0
   1 B    1     1.3793     2.6065   75 O    0 0 0
   1 B    1     1.5503     2.9297   49 C   -1 0 0
   1 B    1     2.3895     4.5155    5 B    0 1 0
   1 B    1     2.3898     4.5160    3 B    0 0 0
   1 B    1     2.5632     4.8437   51 C    0 0 0

   2 B    1     1.3791     2.6061   74 O    0 0 0
   2 B    1     1.3793     2.6065   76 O    0 0 0
   2 B    1     1.5503     2.9297   50 C    0 0 0
   2 B    1     2.3895     4.5155    6 B    0 0 0
   2 B    1     2.3898     4.5160    4 B    0 0 0
   2 B    1     2.5632     4.8437   52 C    0-1 0

   3 B    1     1.3793     2.6065   77 O    0 1 0
   3 B    1     1.3793     2.6065   75 O    0 0 0
   3 B    1     1.5504     2.9298   37 C    0 0 0
   3 B    1     2.3895     4.5156    5 B    0 1 0
   3 B    1     2.3898     4.5160    1 B    0 0 0
   3 B    1     2.5634     4.8440   43 C    0 1 0

   4 B    1     1.3793     2.6065   78 O    0 0 0
   4 B    1     1.3793     2.6065   76 O    0 0 0
   4 B    1     1.5504     2.9298   38 C    0 0 0
   4 B    1     2.3895     4.5156    6 B    0 0 0
   4 B    1     2.3898     4.5160    2 B    0 0 0
   4 B    1     2.5634     4.8440   44 C    0 0 0

   5 B    1     1.3791     2.6061   73 O   -1-1 0
   5 B    1     1.3793     2.6064   77 O    0 0 0
   5 B    1     1.5502     2.9294   61 C   -1-1 0
   5 B    1     2.3895     4.5155    1 B    0-1 0
   5 B    1     2.3895     4.5156    3 B    0-1 0
   5 B    1     2.5629     4.8433   63 C    0 0 0

   6 B    1     1.3791     2.6061   74 O    0 0 0
   6 B    1     1.3793     2.6064   78 O    0 0 0
   6 B    1     1.5502     2.9294   62 C    0 0 0
   6 B    1     2.3895     4.5155    2 B    0 0 0
   6 B    1     2.3895     4.5156    4 B    0 0 0
   6 B    1     2.5629     4.8433   64 C    0 0 0

   7 B    1     1.3795     2.6068   79 O    0 0 0
   7 B    1     1.3795     2.6070   81 O    0-1 0
   7 B    1     1.5513     2.9316   47 C    0 0 0
   7 B    1     2.3905     4.5174   11 B    0 0 0
   7 B    1     2.3905     4.5175    9 B    0-1 0
   7 B    1     2.5648     4.8468   45 C    0-1 0

   8 B    1     1.3795     2.6068   80 O    0 0 0
   8 B    1     1.3795     2.6070   82 O    0 0 0
   8 B    1     1.5513     2.9316   48 C    0 0 0
   8 B    1     2.3905     4.5174   12 B    0 0 0
   8 B    1     2.3905     4.5175   10 B    1 0 0
   8 B    1     2.5648     4.8468   46 C    0 0 0

   9 B    1     1.3795     2.6069   81 O    0 0 0
   9 B    1     1.3797     2.6072   83 O    1 1 0
   9 B    1     1.5516     2.9322   71 C    0 0 0
   9 B    1     2.3905     4.5175    7 B    0 1 0
   9 B    1     2.3911     4.5185   11 B    0 1 0
   9 B    1     2.5651     4.8473   69 C    1 1 0

  10 B    1     1.3795     2.6069   82 O   -1 0 0
  10 B    1     1.3797     2.6072   84 O    0 0 0
  10 B    1     1.5516     2.9322   72 C    0 0 0
  10 B    1     2.3905     4.5175    8 B   -1 0 0
  10 B    1     2.3911     4.5185   12 B   -1 0 0
  10 B    1     2.5651     4.8473   70 C    0 0 0

  11 B    1     1.3795     2.6068   79 O    0 0 0
  11 B    1     1.3796     2.6071   83 O    1 0 0
  11 B    1     1.5516     2.9322   59 C    0 0 0
  11 B    1     2.3905     4.5174    7 B    0 0 0
  11 B    1     2.3911     4.5185    9 B    0-1 0
  11 B    1     2.5651     4.8473   57 C    1 0 0

  12 B    1     1.3795     2.6068   80 O    0 0 0
  12 B    1     1.3796     2.6071   84 O    1 0 0
  12 B    1     1.5516     2.9322   60 C    0 0 0
  12 B    1     2.3905     4.5174    8 B    0 0 0
  12 B    1     2.3911     4.5185   10 B    1 0 0
  12 B    1     2.5651     4.8473   58 C    1 0 0

  13 H    1     1.0913     2.0623   39 C    0 0 0
  13 H    1     2.1472     4.0576   37 C    0 0 0
  13 H    1     2.1680     4.0969   45 C    0 0 0
  13 H    1     2.5202     4.7625   19 H    0 0 0
  13 H    1     2.5676     4.8520   75 O    0 0 0
  13 H    1     2.7321     5.1630    3 B    0 0 0

  14 H    1     1.0913     2.0623   40 C    0 0 0
  14 H    1     2.1472     4.0576   38 C    0 0 0
  14 H    1     2.1680     4.0969   46 C    0 0 0
  14 H    1     2.5202     4.7625   20 H    0 0 0
  14 H    1     2.5676     4.8520   76 O    0 0 0
  14 H    1     2.7321     5.1630    4 B    0 0 0

  15 H    1     1.0914     2.0625   41 C    0 0 0
  15 H    1     2.1493     4.0616   47 C    0 0 0
  15 H    1     2.1666     4.0942   43 C    0 0 0
  15 H    1     2.5198     4.7618   17 H    0 0 0
  15 H    1     2.5720     4.8604   79 O    0 0 0
  15 H    1     2.7362     5.1707    7 B    0 0 0

  16 H    1     1.0914     2.0625   42 C    0 0 0
  16 H    1     2.1493     4.0616   48 C    0 0 0
  16 H    1     2.1666     4.0942   44 C    0 0 0
  16 H    1     2.5198     4.7618   18 H    0 0 0
  16 H    1     2.5720     4.8604   80 O    0 0 0
  16 H    1     2.7362     5.1707    8 B    0 0 0

  17 H    1     1.0914     2.0624   43 C    0 0 0
  17 H    1     2.1471     4.0575   37 C    0-1 0
  17 H    1     2.1680     4.0970   41 C    0 0 0
  17 H    1     2.5198     4.7618   15 H    0 0 0
  17 H    1     2.5665     4.8500   77 O    0 0 0
  17 H    1     2.7315     5.1618    3 B    0-1 0

  18 H    1     1.0914     2.0624   44 C    0 0 0
  18 H    1     2.1471     4.0575   38 C    0 0 0
  18 H    1     2.1680     4.0970   42 C    0 0 0
  18 H    1     2.5198     4.7618   16 H    0 0 0
  18 H    1     2.5665     4.8500   78 O    0 0 0
  18 H    1     2.7315     5.1618    4 B    0 0 0

  19 H    1     1.0915     2.0626   45 C    0 0 0
  19 H    1     2.1490     4.0610   47 C    0 1 0
  19 H    1     2.1669     4.0948   39 C    0 0 0
  19 H    1     2.5202     4.7625   13 H    0 0 0
  19 H    1     2.5712     4.8588   81 O    0 0 0
  19 H    1     2.7351     5.1686    7 B    0 1 0

  20 H    1     1.0915     2.0626   46 C    0 0 0
  20 H    1     2.1490     4.0610   48 C    0 0 0
  20 H    1     2.1669     4.0948   40 C    0 0 0
  20 H    1     2.5202     4.7625   14 H    0 0 0
  20 H    1     2.5712     4.8588   82 O    0 0 0
  20 H    1     2.7351     5.1686    8 B    0 0 0

  21 H    1     1.0913     2.0623   51 C    0 0 0
  21 H    1     2.1469     4.0571   49 C   -1 0 0
  21 H    1     2.1680     4.0968   57 C    0 0 0
  21 H    1     2.5198     4.7617   27 H    0 0 0
  21 H    1     2.5670     4.8510   75 O    0 0 0
  21 H    1     2.7310     5.1609    1 B    0 0 0

  22 H    1     1.0913     2.0623   52 C    0 0 0
  22 H    1     2.1469     4.0571   50 C    0 1 0
  22 H    1     2.1680     4.0968   58 C    0 0 0
  22 H    1     2.5198     4.7617   28 H    0 0 0
  22 H    1     2.5670     4.8510   76 O    0 1 0
  22 H    1     2.7310     5.1609    2 B    0 1 0

  23 H    1     1.0914     2.0625   53 C    0 0 0
  23 H    1     2.1493     4.0617   59 C    0 0 0
  23 H    1     2.1664     4.0939   55 C    0 0 0
  23 H    1     2.5192     4.7606   25 H    0 0 0
  23 H    1     2.5735     4.8632   79 O    0 0 0
  23 H    1     2.7371     5.1723   11 B    0 0 0

  24 H    1     1.0914     2.0625   54 C    0 0 0
  24 H    1     2.1493     4.0617   60 C    0 0 0
  24 H    1     2.1664     4.0939   56 C    0 0 0
  24 H    1     2.5192     4.7606   26 H    0 0 0
  24 H    1     2.5735     4.8632   80 O    0 0 0
  24 H    1     2.7371     5.1723   12 B    0 0 0

  25 H    1     1.0914     2.0624   55 C    0 0 0
  25 H    1     2.1475     4.0581   49 C    0 0 0
  25 H    1     2.1679     4.0967   53 C    0 0 0
  25 H    1     2.5192     4.7606   23 H    0 0 0
  25 H    1     2.5675     4.8519   73 O    0 0 0
  25 H    1     2.7328     5.1643    1 B    1 0 0

  26 H    1     1.0914     2.0624   56 C    0 0 0
  26 H    1     2.1475     4.0581   50 C    1 1 0
  26 H    1     2.1679     4.0967   54 C    0 0 0
  26 H    1     2.5192     4.7606   24 H    0 0 0
  26 H    1     2.5675     4.8519   74 O    1 1 0
  26 H    1     2.7328     5.1643    2 B    1 1 0

  27 H    1     1.0914     2.0625   57 C    0 0 0
  27 H    1     2.1491     4.0612   59 C   -1 0 0
  27 H    1     2.1666     4.0942   51 C    0 0 0
  27 H    1     2.5198     4.7617   21 H    0 0 0
  27 H    1     2.5723     4.8609   83 O    0 0 0
  27 H    1     2.7355     5.1693   11 B   -1 0 0

  28 H    1     1.0914     2.0625   58 C    0 0 0
  28 H    1     2.1491     4.0612   60 C   -1 0 0
  28 H    1     2.1666     4.0942   52 C    0 0 0
  28 H    1     2.5198     4.7617   22 H    0 0 0
  28 H    1     2.5723     4.8609   84 O    0 0 0
  28 H    1     2.7355     5.1693   12 B   -1 0 0

  29 H    1     1.0914     2.0624   63 C    0 0 0
  29 H    1     2.1475     4.0582   61 C   -1-1 0
  29 H    1     2.1678     4.0966   69 C    0 0 0
  29 H    1     2.5200     4.7621   35 H    0 0 0
  29 H    1     2.5667     4.8503   77 O    0 0 0
  29 H    1     2.7315     5.1618    5 B    0 0 0

  30 H    1     1.0914     2.0624   64 C    0 0 0
  30 H    1     2.1475     4.0582   62 C    0 0 0
  30 H    1     2.1678     4.0966   70 C    0 0 0
  30 H    1     2.5200     4.7621   36 H    0 0 0
  30 H    1     2.5667     4.8503   78 O    0 0 0
  30 H    1     2.7315     5.1618    6 B    0 0 0

  31 H    1     1.0913     2.0623   65 C    0 0 0
  31 H    1     2.1487     4.0605   71 C    0 0 0
  31 H    1     2.1667     4.0945   67 C    0 0 0
  31 H    1     2.5197     4.7616   33 H    0 0 0
  31 H    1     2.5723     4.8610   81 O    0 0 0
  31 H    1     2.7359     5.1701    9 B    0 0 0

  32 H    1     1.0913     2.0623   66 C    0 0 0
  32 H    1     2.1487     4.0605   72 C    0 0 0
  32 H    1     2.1667     4.0945   68 C    0 0 0
  32 H    1     2.5197     4.7616   34 H    0 0 0
  32 H    1     2.5723     4.8610   82 O   -1 0 0
  32 H    1     2.7359     5.1701   10 B    0 0 0

  33 H    1     1.0915     2.0626   67 C    0 0 0
  33 H    1     2.1479     4.0589   61 C    0 0 0
  33 H    1     2.1679     4.0968   65 C    0 0 0
  33 H    1     2.5197     4.7616   31 H    0 0 0
  33 H    1     2.5677     4.8522   73 O    0 0 0
  33 H    1     2.7331     5.1648    5 B    1 1 0

  34 H    1     1.0915     2.0626   68 C    0 0 0
  34 H    1     2.1479     4.0589   62 C    0 0 0
  34 H    1     2.1679     4.0968   66 C    0 0 0
  34 H    1     2.5197     4.7616   32 H    0 0 0
  34 H    1     2.5677     4.8522   74 O    0 0 0
  34 H    1     2.7331     5.1648    6 B    0 0 0

  35 H    1     1.0914     2.0624   69 C    0 0 0
  35 H    1     2.1486     4.0602   71 C   -1-1 0
  35 H    1     2.1668     4.0947   63 C    0 0 0
  35 H    1     2.5200     4.7621   29 H    0 0 0
  35 H    1     2.5717     4.8598   83 O    0 0 0
  35 H    1     2.7349     5.1682    9 B   -1-1 0

  36 H    1     1.0914     2.0624   70 C    0 0 0
  36 H    1     2.1486     4.0602   72 C    0 0 0
  36 H    1     2.1668     4.0947   64 C    0 0 0
  36 H    1     2.5200     4.7621   30 H    0 0 0
  36 H    1     2.5717     4.8598   84 O    0 0 0
  36 H    1     2.7349     5.1682   10 B    0 0 0

  37 C    1     1.4020     2.6495   43 C    0 1 0
  37 C    1     1.4021     2.6495   39 C    0 0 0
  37 C    1     1.5504     2.9298    3 B    0 0 0
  37 C    1     2.1471     4.0575   17 H    0 1 0
  37 C    1     2.1472     4.0576   13 H    0 0 0
  37 C    1     2.4246     4.5817   41 C    0 1 0

  38 C    1     1.4020     2.6495   44 C    0 0 0
  38 C    1     1.4021     2.6495   40 C    0 0 0
  38 C    1     1.5504     2.9298    4 B    0 0 0
  38 C    1     2.1471     4.0575   18 H    0 0 0
  38 C    1     2.1472     4.0576   14 H    0 0 0
  38 C    1     2.4246     4.5817   42 C    0 0 0

  39 C    1     1.0913     2.0623   13 H    0 0 0
  39 C    1     1.3914     2.6294   45 C    0 0 0
  39 C    1     1.4021     2.6495   37 C    0 0 0
  39 C    1     2.1669     4.0948   19 H    0 0 0
  39 C    1     2.4177     4.5688   43 C    0 1 0
  39 C    1     2.4250     4.5825   47 C    0 1 0

  40 C    1     1.0913     2.0623   14 H    0 0 0
  40 C    1     1.3914     2.6294   46 C    0 0 0
  40 C    1     1.4021     2.6495   38 C    0 0 0
  40 C    1     2.1669     4.0948   20 H    0 0 0
  40 C    1     2.4177     4.5688   44 C    0 0 0
  40 C    1     2.4250     4.5825   48 C    0 0 0

  41 C    1     1.0914     2.0625   15 H    0 0 0
  41 C    1     1.3914     2.6293   43 C    0 0 0
  41 C    1     1.4026     2.6505   47 C    0 0 0
  41 C    1     2.1680     4.0970   17 H    0 0 0
  41 C    1     2.4182     4.5697   45 C    0-1 0
  41 C    1     2.4246     4.5817   37 C    0-1 0

  42 C    1     1.0914     2.0625   16 H    0 0 0
  42 C    1     1.3914     2.6293   44 C    0 0 0
  42 C    1     1.4026     2.6505   48 C    0 0 0
  42 C    1     2.1680     4.0970   18 H    0 0 0
  42 C    1     2.4182     4.5697   46 C    0 0 0
  42 C    1     2.4246     4.5817   38 C    0 0 0

  43 C    1     1.0914     2.0624   17 H    0 0 0
  43 C    1     1.3914     2.6293   41 C    0 0 0
  43 C    1     1.4020     2.6495   37 C    0-1 0
  43 C    1     2.1666     4.0942   15 H    0 0 0
  43 C    1     2.4177     4.5688   39 C    0-1 0
  43 C    1     2.4250     4.5826   47 C    0 0 0

  44 C    1     1.0914     2.0624   18 H    0 0 0
  44 C    1     1.3914     2.6293   42 C    0 0 0
  44 C    1     1.4020     2.6495   38 C    0 0 0
  44 C    1     2.1666     4.0942   16 H    0 0 0
  44 C    1     2.4177     4.5688   40 C    0 0 0
  44 C    1     2.4250     4.5826   48 C    0 0 0

  45 C    1     1.0915     2.0626   19 H    0 0 0
  45 C    1     1.3914     2.6294   39 C    0 0 0
  45 C    1     1.4025     2.6504   47 C    0 1 0
  45 C    1     2.1680     4.0969   13 H    0 0 0
  45 C    1     2.4182     4.5697   41 C    0 1 0
  45 C    1     2.4246     4.5818   37 C    0 0 0

  46 C    1     1.0915     2.0626   20 H    0 0 0
  46 C    1     1.3914     2.6294   40 C    0 0 0
  46 C    1     1.4025     2.6504   48 C    0 0 0
  46 C    1     2.1680     4.0969   14 H    0 0 0
  46 C    1     2.4182     4.5697   42 C    0 0 0
  46 C    1     2.4246     4.5818   38 C    0 0 0

  47 C    1     1.4025     2.6504   45 C    0-1 0
  47 C    1     1.4026     2.6505   41 C    0 0 0
  47 C    1     1.5513     2.9316    7 B    0 0 0
  47 C    1     2.1490     4.0610   19 H    0-1 0
  47 C    1     2.1493     4.0616   15 H    0 0 0
  47 C    1     2.4250     4.5825   39 C    0-1 0

  48 C    1     1.4025     2.6504   46 C    0 0 0
  48 C    1     1.4026     2.6505   42 C    0 0 0
  48 C    1     1.5513     2.9316    8 B    0 0 0
  48 C    1     2.1490     4.0610   20 H    0 0 0
  48 C    1     2.1493     4.0616   16 H    0 0 0
  48 C    1     2.4250     4.5825   40 C    0 0 0

  49 C    1     1.4020     2.6494   51 C    1 0 0
  49 C    1     1.4021     2.6495   55 C    0 0 0
  49 C    1     1.5503     2.9297    1 B    1 0 0
  49 C    1     2.1469     4.0571   21 H    1 0 0
  49 C    1     2.1475     4.0581   25 H    0 0 0
  49 C    1     2.4246     4.5818   53 C    0 0 0

  50 C    1     1.4020     2.6494   52 C    0-1 0
  50 C    1     1.4021     2.6495   56 C   -1-1 0
  50 C    1     1.5503     2.9297    2 B    0 0 0
  50 C    1     2.1469     4.0571   22 H    0-1 0
  50 C    1     2.1475     4.0581   26 H   -1-1 0
  50 C    1     2.4246     4.5818   54 C   -1-1 0

  51 C    1     1.0913     2.0623   21 H    0 0 0
  51 C    1     1.3914     2.6293   57 C    0 0 0
  51 C    1     1.4020     2.6494   49 C   -1 0 0
  51 C    1     2.1666     4.0942   27 H    0 0 0
  51 C    1     2.4175     4.5684   55 C   -1 0 0
  51 C    1     2.4251     4.5828   59 C   -1 0 0

  52 C    1     1.0913     2.0623   22 H    0 0 0
  52 C    1     1.3914     2.6293   58 C    0 0 0
  52 C    1     1.4020     2.6494   50 C    0 1 0
  52 C    1     2.1666     4.0942   28 H    0 0 0
  52 C    1     2.4175     4.5684   56 C   -1 0 0
  52 C    1     2.4251     4.5828   60 C   -1 0 0

  53 C    1     1.0914     2.0625   23 H    0 0 0
  53 C    1     1.3915     2.6295   55 C    0 0 0
  53 C    1     1.4026     2.6505   59 C    0 0 0
  53 C    1     2.1679     4.0967   25 H    0 0 0
  53 C    1     2.4179     4.5691   57 C    1 0 0
  53 C    1     2.4246     4.5818   49 C    0 0 0

  54 C    1     1.0914     2.0625   24 H    0 0 0
  54 C    1     1.3915     2.6295   56 C    0 0 0
  54 C    1     1.4026     2.6505   60 C    0 0 0
  54 C    1     2.1679     4.0967   26 H    0 0 0
  54 C    1     2.4179     4.5691   58 C    1 0 0
  54 C    1     2.4246     4.5818   50 C    1 1 0

  55 C    1     1.0914     2.0624   25 H    0 0 0
  55 C    1     1.3915     2.6295   53 C    0 0 0
  55 C    1     1.4021     2.6495   49 C    0 0 0
  55 C    1     2.1664     4.0939   23 H    0 0 0
  55 C    1     2.4175     4.5684   51 C    1 0 0
  55 C    1     2.4253     4.5832   59 C    0 0 0

  56 C    1     1.0914     2.0624   26 H    0 0 0
  56 C    1     1.3915     2.6295   54 C    0 0 0
  56 C    1     1.4021     2.6495   50 C    1 1 0
  56 C    1     2.1664     4.0939   24 H    0 0 0
  56 C    1     2.4175     4.5684   52 C    1 0 0
  56 C    1     2.4253     4.5832   60 C    0 0 0

  57 C    1     1.0914     2.0625   27 H    0 0 0
  57 C    1     1.3914     2.6293   51 C    0 0 0
  57 C    1     1.4025     2.6504   59 C   -1 0 0
  57 C    1     2.1680     4.0968   21 H    0 0 0
  57 C    1     2.4179     4.5691   53 C   -1 0 0
  57 C    1     2.4247     4.5819   49 C   -1 0 0

  58 C    1     1.0914     2.0625   28 H    0 0 0
  58 C    1     1.3914     2.6293   52 C    0 0 0
  58 C    1     1.4025     2.6504   60 C   -1 0 0
  58 C    1     2.1680     4.0968   22 H    0 0 0
  58 C    1     2.4179     4.5691   54 C   -1 0 0
  58 C    1     2.4247     4.5819   50 C    0 1 0

  59 C    1     1.4025     2.6504   57 C    1 0 0
  59 C    1     1.4026     2.6505   53 C    0 0 0
  59 C    1     1.5516     2.9322   11 B    0 0 0
  59 C    1     2.1491     4.0612   27 H    1 0 0
  59 C    1     2.1493     4.0617   23 H    0 0 0
  59 C    1     2.4251     4.5828   51 C    1 0 0

  60 C    1     1.4025     2.6504   58 C    1 0 0
  60 C    1     1.4026     2.6505   54 C    0 0 0
  60 C    1     1.5516     2.9322   12 B    0 0 0
  60 C    1     2.1491     4.0612   28 H    1 0 0
  60 C    1     2.1493     4.0617   24 H    0 0 0
  60 C    1     2.4251     4.5828   52 C    1 0 0

  61 C    1     1.4021     2.6496   63 C    1 1 0
  61 C    1     1.4021     2.6497   67 C    0 0 0
  61 C    1     1.5502     2.9294    5 B    1 1 0
  61 C    1     2.1475     4.0582   29 H    1 1 0
  61 C    1     2.1479     4.0589   33 H    0 0 0
  61 C    1     2.4244     4.5814   65 C    0 0 0

  62 C    1     1.4021     2.6496   64 C    0 0 0
  62 C    1     1.4021     2.6497   68 C    0 0 0
  62 C    1     1.5502     2.9294    6 B    0 0 0
  62 C    1     2.1475     4.0582   30 H    0 0 0
  62 C    1     2.1479     4.0589   34 H    0 0 0
  62 C    1     2.4244     4.5814   66 C    0 0 0

  63 C    1     1.0914     2.0624   29 H    0 0 0
  63 C    1     1.3914     2.6293   69 C    0 0 0
  63 C    1     1.4021     2.6496   61 C   -1-1 0
  63 C    1     2.1668     4.0947   35 H    0 0 0
  63 C    1     2.4179     4.5692   67 C   -1-1 0
  63 C    1     2.4251     4.5827   71 C   -1-1 0

  64 C    1     1.0914     2.0624   30 H    0 0 0
  64 C    1     1.3914     2.6293   70 C    0 0 0
  64 C    1     1.4021     2.6496   62 C    0 0 0
  64 C    1     2.1668     4.0947   36 H    0 0 0
  64 C    1     2.4179     4.5692   68 C    0 0 0
  64 C    1     2.4251     4.5827   72 C    0 0 0

  65 C    1     1.0913     2.0623   31 H    0 0 0
  65 C    1     1.3914     2.6294   67 C    0 0 0
  65 C    1     1.4025     2.6504   71 C    0 0 0
  65 C    1     2.1679     4.0968   33 H    0 0 0
  65 C    1     2.4178     4.5690   69 C    1 1 0
  65 C    1     2.4244     4.5814   61 C    0 0 0

  66 C    1     1.0913     2.0623   32 H    0 0 0
  66 C    1     1.3914     2.6294   68 C    0 0 0
  66 C    1     1.4025     2.6504   72 C    0 0 0
  66 C    1     2.1679     4.0968   34 H    0 0 0
  66 C    1     2.4178     4.5690   70 C    0 0 0
  66 C    1     2.4244     4.5814   62 C    0 0 0

  67 C    1     1.0915     2.0626   33 H    0 0 0
  67 C    1     1.3914     2.6294   65 C    0 0 0
  67 C    1     1.4021     2.6497   61 C    0 0 0
  67 C    1     2.1667     4.0945   31 H    0 0 0
  67 C    1     2.4179     4.5692   63 C    1 1 0
  67 C    1     2.4253     4.5832   71 C    0 0 0

  68 C    1     1.0915     2.0626   34 H    0 0 0
  68 C    1     1.3914     2.6294   66 C    0 0 0
  68 C    1     1.4021     2.6497   62 C    0 0 0
  68 C    1     2.1667     4.0945   32 H    0 0 0
  68 C    1     2.4179     4.5692   64 C    0 0 0
  68 C    1     2.4253     4.5832   72 C    0 0 0

  69 C    1     1.0914     2.0624   35 H    0 0 0
  69 C    1     1.3914     2.6293   63 C    0 0 0
  69 C    1     1.4025     2.6503   71 C   -1-1 0
  69 C    1     2.1678     4.0966   29 H    0 0 0
  69 C    1     2.4178     4.5690   65 C   -1-1 0
  69 C    1     2.4245     4.5817   61 C   -1-1 0

  70 C    1     1.0914     2.0624   36 H    0 0 0
  70 C    1     1.3914     2.6293   64 C    0 0 0
  70 C    1     1.4025     2.6503   72 C    0 0 0
  70 C    1     2.1678     4.0966   30 H    0 0 0
  70 C    1     2.4178     4.5690   66 C    0 0 0
  70 C    1     2.4245     4.5817   62 C    0 0 0

  71 C    1     1.4025     2.6503   69 C    1 1 0
  71 C    1     1.4025     2.6504   65 C    0 0 0
  71 C    1     1.5516     2.9322    9 B    0 0 0
  71 C    1     2.1486     4.0602   35 H    1 1 0
  71 C    1     2.1487     4.0605   31 H    0 0 0
  71 C    1     2.4251     4.5827   63 C    1 1 0

  72 C    1     1.4025     2.6503   70 C    0 0 0
  72 C    1     1.4025     2.6504   66 C    0 0 0
  72 C    1     1.5516     2.9322   10 B    0 0 0
  72 C    1     2.1486     4.0602   36 H    0 0 0
  72 C    1     2.1487     4.0605   32 H    0 0 0
  72 C    1     2.4251     4.5827   64 C    0 0 0

  73 O    1     1.3791     2.6061    1 B    1 0 0
  73 O    1     1.3791     2.6061    5 B    1 1 0
  73 O    1     2.3880     4.5126   75 O    1 0 0
  73 O    1     2.3882     4.5130   77 O    1 1 0
  73 O    1     2.5383     4.7966   61 C    0 0 0
  73 O    1     2.5384     4.7968   49 C    0 0 0

  74 O    1     1.3791     2.6061    2 B    0 0 0
  74 O    1     1.3791     2.6061    6 B    0 0 0
  74 O    1     2.3880     4.5126   76 O    0 0 0
  74 O    1     2.3882     4.5130   78 O    0 0 0
  74 O    1     2.5383     4.7966   62 C    0 0 0
  74 O    1     2.5384     4.7968   50 C    0 0 0

  75 O    1     1.3793     2.6065    1 B    0 0 0
  75 O    1     1.3793     2.6065    3 B    0 0 0
  75 O    1     2.3880     4.5126   73 O   -1 0 0
  75 O    1     2.3882     4.5131   77 O    0 1 0
  75 O    1     2.5391     4.7981   37 C    0 0 0
  75 O    1     2.5395     4.7990   49 C   -1 0 0

  76 O    1     1.3793     2.6065    2 B    0 0 0
  76 O    1     1.3793     2.6065    4 B    0 0 0
  76 O    1     2.3880     4.5126   74 O    0 0 0
  76 O    1     2.3882     4.5131   78 O    0 0 0
  76 O    1     2.5391     4.7981   38 C    0 0 0
  76 O    1     2.5395     4.7990   50 C    0 0 0

  77 O    1     1.3793     2.6064    5 B    0 0 0
  77 O    1     1.3793     2.6065    3 B    0-1 0
  77 O    1     2.3882     4.5130   73 O   -1-1 0
  77 O    1     2.3882     4.5131   75 O    0-1 0
  77 O    1     2.5390     4.7980   37 C    0-1 0
  77 O    1     2.5391     4.7982   61 C   -1-1 0

  78 O    1     1.3793     2.6064    6 B    0 0 0
  78 O    1     1.3793     2.6065    4 B    0 0 0
  78 O    1     2.3882     4.5130   74 O    0 0 0
  78 O    1     2.3882     4.5131   76 O    0 0 0
  78 O    1     2.5390     4.7980   38 C    0 0 0
  78 O    1     2.5391     4.7982   62 C    0 0 0

  79 O    1     1.3795     2.6068   11 B    0 0 0
  79 O    1     1.3795     2.6068    7 B    0 0 0
  79 O    1     2.3880     4.5126   83 O    1 0 0
  79 O    1     2.3884     4.5134   81 O    0-1 0
  79 O    1     2.5400     4.7998   47 C    0 0 0
  79 O    1     2.5403     4.8005   59 C    0 0 0

  80 O    1     1.3795     2.6068   12 B    0 0 0
  80 O    1     1.3795     2.6068    8 B    0 0 0
  80 O    1     2.3880     4.5126   84 O    1 0 0
  80 O    1     2.3884     4.5134   82 O    0 0 0
  80 O    1     2.5400     4.7998   48 C    0 0 0
  80 O    1     2.5403     4.8005   60 C    0 0 0

  81 O    1     1.3795     2.6069    9 B    0 0 0
  81 O    1     1.3795     2.6070    7 B    0 1 0
  81 O    1     2.3881     4.5128   83 O    1 1 0
  81 O    1     2.3884     4.5134   79 O    0 1 0
  81 O    1     2.5404     4.8006   47 C    0 1 0
  81 O    1     2.5405     4.8008   71 C    0 0 0

  82 O    1     1.3795     2.6069   10 B    1 0 0
  82 O    1     1.3795     2.6070    8 B    0 0 0
  82 O    1     2.3881     4.5128   84 O    1 0 0
  82 O    1     2.3884     4.5134   80 O    0 0 0
  82 O    1     2.5404     4.8006   48 C    0 0 0
  82 O    1     2.5405     4.8008   72 C    1 0 0

  83 O    1     1.3796     2.6071   11 B   -1 0 0
  83 O    1     1.3797     2.6072    9 B   -1-1 0
  83 O    1     2.3880     4.5126   79 O   -1 0 0
  83 O    1     2.3881     4.5128   81 O   -1-1 0
  83 O    1     2.5409     4.8016   71 C   -1-1 0
  83 O    1     2.5410     4.8019   59 C   -1 0 0

  84 O    1     1.3796     2.6071   12 B   -1 0 0
  84 O    1     1.3797     2.6072   10 B    0 0 0
  84 O    1     2.3880     4.5126   80 O   -1 0 0
  84 O    1     2.3881     4.5128   82 O   -1 0 0
  84 O    1     2.5409     4.8016   72 C    0 0 0
  84 O    1     2.5410     4.8019   60 C   -1 0 0


 SYMMETRY ALLOWED INTERNAL DEGREE(S) OF FREEDOM: 249
 TTTTTTTTTTTTTTTTTTTTTTTTTTTTTT SYMM        TELAPSE        3.03 TCPU        3.03
 TTTTTTTTTTTTTTTTTTTTTTTTTTTTTT INT_SCREEN  TELAPSE        3.26 TCPU        3.25

 DFT PARAMETERS

     ATOM       ELECTRONS   NET CHARGE   R(ANGSTROM)
   1   5  B       5.0000      0.0000     0.89000000
  13   1  H       1.0000      0.0000     1.11000000
  37   6  C       6.0000      0.0000     0.77000000
  73   8  O       8.0000      0.0000     0.74000000

 SIZE OF GRID=    2447474
 TTTTTTTTTTTTTTTTTTTTTTTTTTTTTT MAKE_GRID2  TELAPSE       30.39 TCPU       30.35
 BECKE WEIGHT FUNCTION
 RADSAFE =     2.00
 TOLERANCES - DENSITY:10**- 6; POTENTIAL:10**- 9; GRID WGT:10**-14

 RADIAL INTEGRATION  - INTERVALS (POINTS,UPPER LIMIT):            1( 75,  4.0*R)

 ANGULAR INTEGRATION - INTERVALS (ACCURACY LEVEL [N. POINTS] UPPER LIMIT):
  1(  4[  86]   0.2)  2(  8[ 194]   0.5)  3( 12[ 350]   0.9)  4( 16[ 974]   3.5)
  5( 12[ 350]9999.0)
 TTTTTTTTTTTTTTTTTTTTTTTTTTTTTT INT_CALC    TELAPSE       30.72 TCPU       30.69
 EEEEEEEEEE INT_CALC TERMINATION  DATE 19 02 2026 TIME 19:35:35.5

 *******************************************************************************
 cof-1_z31_L030_serr                                                             
 CRYSTAL - SCF - TYPE OF CALCULATION :  RESTRICTED CLOSED SHELL
 *******************************************************************************

 CAPPA:IS1  2;IS2  2;IS3  8; K PTS MONK NET  20; SYMMOPS:K SPACE   2;G SPACE   1

 TTTTTTTTTTTTTTTTTTTTTTTTTTTTTT SDIK        TELAPSE       32.63 TCPU       57.89

 AAAAAAAAAAAAAAAAAAAAAAAAAAAAAAAAAAAAAAAAAAAAAAAAAAAAAAAAAAAAAAAAAAAAAAAAAAAAAAA
         ATOMIC WAVEFUNCTION(S)


 NUCLEAR CHARGE  5.0  SYMMETRY SPECIES            S    P
 N. ELECTRONS    5.0  NUMBER OF PRIMITIVE GTOS    8    4
                      NUMBER OF CONTRACTED GTOS   4    2
                      NUMBER OF CLOSED SHELLS     2    0
                      OPEN SHELL OCCUPATION       0    1

  ZNUC  SCFIT    TOTAL HF ENERGY   KINETIC ENERGY   VIRIAL THEOREM ACCURACY
   5.0    11    -2.451164084E+01  2.462155050E+01 -1.995536038E+00  1.5E-06

 NUCLEAR CHARGE  1.0  SYMMETRY SPECIES            S
 N. ELECTRONS    1.0  NUMBER OF PRIMITIVE GTOS    4
                      NUMBER OF CONTRACTED GTOS   2
                      NUMBER OF CLOSED SHELLS     0
                      OPEN SHELL OCCUPATION       1

  ZNUC  SCFIT    TOTAL HF ENERGY   KINETIC ENERGY   VIRIAL THEOREM ACCURACY
   1.0     1    -4.977266687E-01  5.190767460E-01 -1.958869132E+00  0.0E+00

 NUCLEAR CHARGE  6.0  SYMMETRY SPECIES            S    P
 N. ELECTRONS    6.0  NUMBER OF PRIMITIVE GTOS    8    4
                      NUMBER OF CONTRACTED GTOS   4    2
                      NUMBER OF CLOSED SHELLS     2    0
                      OPEN SHELL OCCUPATION       0    2

  ZNUC  SCFIT    TOTAL HF ENERGY   KINETIC ENERGY   VIRIAL THEOREM ACCURACY
   6.0     9    -3.766704647E+01  3.775180683E+01 -1.997754800E+00  1.1E-06

 NUCLEAR CHARGE  8.0  SYMMETRY SPECIES            S    P
 N. ELECTRONS    8.0  NUMBER OF PRIMITIVE GTOS    8    4
                      NUMBER OF CONTRACTED GTOS   4    2
                      NUMBER OF CLOSED SHELLS     2    0
                      OPEN SHELL OCCUPATION       0    4

  ZNUC  SCFIT    TOTAL HF ENERGY   KINETIC ENERGY   VIRIAL THEOREM ACCURACY
   8.0    12    -7.477373220E+01  7.477365593E+01 -2.000001020E+00  3.8E-06

 AAAAAAAAAAAAAAAAAAAAAAAAAAAAAAAAAAAAAAAAAAAAAAAAAAAAAAAAAAAAAAAAAAAAAAAAAAAAAAA

 CHARGE NORMALIZATION FACTOR   1.00000000
 TOTAL ATOMIC CHARGES:
   5.0000000   5.0000000   5.0000000   5.0000000   5.0000000   5.0000000
   5.0000000   5.0000000   5.0000000   5.0000000   5.0000000   5.0000000
   1.0000000   1.0000000   1.0000000   1.0000000   1.0000000   1.0000000
   1.0000000   1.0000000   1.0000000   1.0000000   1.0000000   1.0000000
   1.0000000   1.0000000   1.0000000   1.0000000   1.0000000   1.0000000
   1.0000000   1.0000000   1.0000000   1.0000000   1.0000000   1.0000000
   6.0000000   6.0000000   6.0000000   6.0000000   6.0000000   6.0000000
   6.0000000   6.0000000   6.0000000   6.0000000   6.0000000   6.0000000
   6.0000000   6.0000000   6.0000000   6.0000000   6.0000000   6.0000000
   6.0000000   6.0000000   6.0000000   6.0000000   6.0000000   6.0000000
   6.0000000   6.0000000   6.0000000   6.0000000   6.0000000   6.0000000
   6.0000000   6.0000000   6.0000000   6.0000000   6.0000000   6.0000000
   8.0000000   8.0000000   8.0000000   8.0000000   8.0000000   8.0000000
   8.0000000   8.0000000   8.0000000   8.0000000   8.0000000   8.0000000
 TTTTTTTTTTTTTTTTTTTTTTTTTTTTTT MOQGAD      TELAPSE       32.74 TCPU       61.54
 TTTTTTTTTTTTTTTTTTTTTTTTTTTTTT SHELLXN     TELAPSE       62.98 TCPU     1027.57
 TTTTTTTTTTTTTTTTTTTTTTTTTTTTTT MONMO3      TELAPSE       63.70 TCPU     1050.63
 NUMERICALLY INTEGRATED DENSITY    396.0000978658
 TTTTTTTTTTTTTTTTTTTTTTTTTTTTTT NUMDFT      TELAPSE       65.42 TCPU     1105.64
 CYC   0 ETOT(AU) -2.592071286372E+03 DETOT -2.59E+03 tst  0.00E+00 PX  1.00E+00
 TTTTTTTTTTTTTTTTTTTTTTTTTTTTTT DIIS        TELAPSE       65.54 TCPU     1109.29
 TTTTTTTTTTTTTTTTTTTTTTTTTTTTTT FDIK        TELAPSE       67.38 TCPU     1167.99
 INSULATING STATE
 TOP OF VALENCE BANDS -    BAND    198; K    1; EIG -2.9384561E-01 AU
 BOTTOM OF VIRTUAL BANDS - BAND    199; K    1; EIG -1.7040555E-01 AU
 DIRECT ENERGY BAND GAP:   3.3590 eV
 TTTTTTTTTTTTTTTTTTTTTTTTTTTTTT PDIG        TELAPSE       69.02 TCPU     1175.00
 CHARGE NORMALIZATION FACTOR   1.00000000
 TOTAL ATOMIC CHARGES:
   4.1321092   4.1090138   4.1345722   4.1552149   4.1346930   4.1554682
   4.1551343   4.1345220   4.1549088   4.1342959   4.1088483   4.1316561
   0.7864035   0.7860940   0.7862081   0.7865176   0.7805240   0.7860013
   0.7861179   0.7806324   0.7869640   0.7867047   0.7868872   0.7871264
   0.7869553   0.7866922   0.7868344   0.7870900   0.7805278   0.7860030
   0.7861833   0.7807026   0.7863563   0.7860439   0.7862008   0.7865129
   6.0423654   6.0526295   6.2758237   6.2666523   6.2666126   6.2758038
   6.2710869   6.2657620   6.2657267   6.2710427   6.0518869   6.0415735
   6.0461777   6.0677182   6.2712761   6.2541967   6.2542325   6.2713480
   6.2712183   6.2541338   6.2542369   6.2713426   6.0664291   6.0448649
   6.0427303   6.0530303   6.2708800   6.2655048   6.2661151   6.2714418
   6.2754443   6.2662469   6.2668896   6.2760800   6.0513980   6.0411125
   8.7117891   8.7068779   8.7118960   8.7070287   8.7100050   8.6943383
   8.7072913   8.7121869   8.6947411   8.7103157   8.7074586   8.7123369
 TTTTTTTTTTTTTTTTTTTTTTTTTTTTTT MOQGAD      TELAPSE       69.13 TCPU     1175.11
 TTTTTTTTTTTTTTTTTTTTTTTTTTTTTT SHELLXN     TELAPSE      100.69 TCPU     2182.00
 TTTTTTTTTTTTTTTTTTTTTTTTTTTTTT MONMO3      TELAPSE      101.41 TCPU     2205.13
 NUMERICALLY INTEGRATED DENSITY    396.0000795346
 TTTTTTTTTTTTTTTTTTTTTTTTTTTTTT NUMDFT      TELAPSE      103.16 TCPU     2261.06
 CYC   1 ETOT(AU) -2.577652616282E+03 DETOT  1.44E+01 tst  0.00E+00 PX  1.00E+00
 TTTTTTTTTTTTTTTTTTTTTTTTTTTTTT DIIS        TELAPSE      103.30 TCPU     2265.62
 DIIS TEST: 0.21811E+01 AT SCF   CYCLE   1 - MIX   30 %
 TTTTTTTTTTTTTTTTTTTTTTTTTTTTTT FDIK        TELAPSE      105.16 TCPU     2324.86
 INSULATING STATE
 TOP OF VALENCE BANDS -    BAND    198; K    1; EIG -1.9717711E-01 AU
 BOTTOM OF VIRTUAL BANDS - BAND    199; K    1; EIG -9.2156163E-02 AU
 DIRECT ENERGY BAND GAP:   2.8578 eV
 TTTTTTTTTTTTTTTTTTTTTTTTTTTTTT PDIG        TELAPSE      106.81 TCPU     2331.87
 CHARGE NORMALIZATION FACTOR   1.00000000
 TOTAL ATOMIC CHARGES:
   4.6009806   4.6469139   4.6691164   4.6942789   4.6689469   4.6943156
   4.6946656   4.6696023   4.6945960   4.6696226   4.6475540   4.6010229
   0.9146402   0.9025649   0.9027200   0.9146486   0.9226939   0.9178486
   0.9179168   0.9226906   0.9160810   0.8941343   0.8941752   0.9162742
   0.9160734   0.8941128   0.8941533   0.9162092   0.9226753   0.9178299
   0.9179964   0.9227486   0.9145823   0.9024924   0.9027302   0.9146397
   5.8632983   5.8727471   6.1702772   6.0687517   6.0692024   6.1707384
   6.1435459   6.1636915   6.1643854   6.1445709   5.8755815   5.8661256
   5.8419660   5.9907306   6.1338317   6.1516414   6.1523756   6.1343820
   6.1339844   6.1517565   6.1523389   6.1344449   5.9940648   5.8450733
   5.8632077   5.8727123   6.1435929   6.1637293   6.1642386   6.1445503
   6.1705386   6.0689232   6.0689726   6.1704285   5.8758113   5.8663852
   8.3378731   8.3407571   8.3382930   8.3411404   8.3999200   8.3490919
   8.3406658   8.3376221   8.3488207   8.3998627   8.3411002   8.3380090
 TTTTTTTTTTTTTTTTTTTTTTTTTTTTTT MOQGAD      TELAPSE      106.92 TCPU     2331.99
 TTTTTTTTTTTTTTTTTTTTTTTTTTTTTT SHELLXN     TELAPSE      138.47 TCPU     3338.75
 TTTTTTTTTTTTTTTTTTTTTTTTTTTTTT MONMO3      TELAPSE      139.19 TCPU     3361.83
 NUMERICALLY INTEGRATED DENSITY    396.0000966040
 TTTTTTTTTTTTTTTTTTTTTTTTTTTTTT NUMDFT      TELAPSE      140.94 TCPU     3417.74
 CYC   2 ETOT(AU) -2.578025845707E+03 DETOT -3.73E-01 tst  3.99E-03 PX  1.60E-01
 TTTTTTTTTTTTTTTTTTTTTTTTTTTTTT DIIS        TELAPSE      141.11 TCPU     3422.94
 DIIS TEST: 0.93896E+00 AT SCF   CYCLE   2 - DIIS ACTIVE - HISTORY:     2 CYCLES
 TTTTTTTTTTTTTTTTTTTTTTTTTTTTTT FDIK        TELAPSE      143.00 TCPU     3483.35
 INSULATING STATE
 TOP OF VALENCE BANDS -    BAND    198; K    1; EIG -2.1382478E-01 AU
 BOTTOM OF VIRTUAL BANDS - BAND    199; K    1; EIG -8.7860655E-02 AU
 DIRECT ENERGY BAND GAP:   3.4277 eV
 TTTTTTTTTTTTTTTTTTTTTTTTTTTTTT PDIG        TELAPSE      144.63 TCPU     3490.36
 CHARGE NORMALIZATION FACTOR   1.00000000
 TOTAL ATOMIC CHARGES:
   4.4446100   4.4136859   4.4553696   4.4924961   4.4554106   4.4926464
   4.4919496   4.4545313   4.4917496   4.4543605   4.4130473   4.4438146
   0.8995266   0.8711934   0.8711334   0.8998215   0.8901266   0.8964947
   0.8965940   0.8900814   0.8896367   0.8813079   0.8817627   0.8895906
   0.8896626   0.8813229   0.8816929   0.8895035   0.8901089   0.8964899
   0.8966623   0.8901580   0.8995416   0.8712004   0.8710807   0.8997743
   5.8778453   5.9099162   6.1603051   6.1898630   6.1893734   6.1599377
   6.1717794   6.1508428   6.1499605   6.1702683   5.9081974   5.8761552
   5.9621444   5.9188728   6.1791537   6.1419418   6.1410618   6.1786506
   6.1793131   6.1421773   6.1409240   6.1786338   5.9165288   5.9608036
   5.8781630   5.9102953   6.1717992   6.1507924   6.1500669   6.1703388
   6.1602521   6.1897692   6.1893663   6.1599409   5.9078466   5.8757797
   8.5320845   8.5267796   8.5322308   8.5269808   8.5322170   8.5058805
   8.5267993   8.5323761   8.5061459   8.5317909   8.5269195   8.5325959
 TTTTTTTTTTTTTTTTTTTTTTTTTTTTTT MOQGAD      TELAPSE      144.75 TCPU     3490.47
 TTTTTTTTTTTTTTTTTTTTTTTTTTTTTT SHELLXN     TELAPSE      176.20 TCPU     4494.22
 TTTTTTTTTTTTTTTTTTTTTTTTTTTTTT MONMO3      TELAPSE      176.92 TCPU     4517.28
 NUMERICALLY INTEGRATED DENSITY    396.0000902799
 TTTTTTTTTTTTTTTTTTTTTTTTTTTTTT NUMDFT      TELAPSE      178.68 TCPU     4573.19
 CYC   3 ETOT(AU) -2.578213743658E+03 DETOT -1.88E-01 tst  7.24E-04 PX  6.99E-02
 TTTTTTTTTTTTTTTTTTTTTTTTTTTTTT DIIS        TELAPSE      178.86 TCPU     4579.11
 DIIS TEST: 0.53165E-01 AT SCF   CYCLE   3 - DIIS ACTIVE - HISTORY:     3 CYCLES
 TTTTTTTTTTTTTTTTTTTTTTTTTTTTTT FDIK        TELAPSE      180.70 TCPU     4638.05
 INSULATING STATE
 TOP OF VALENCE BANDS -    BAND    198; K    1; EIG -2.2052865E-01 AU
 BOTTOM OF VIRTUAL BANDS - BAND    199; K    1; EIG -9.6772539E-02 AU
 DIRECT ENERGY BAND GAP:   3.3676 eV
 TTTTTTTTTTTTTTTTTTTTTTTTTTTTTT PDIG        TELAPSE      182.34 TCPU     4645.07
 CHARGE NORMALIZATION FACTOR   1.00000000
 TOTAL ATOMIC CHARGES:
   4.4365261   4.4339924   4.4696602   4.4874142   4.4696803   4.4875495
   4.4879744   4.4702457   4.4877808   4.4701193   4.4346255   4.4365628
   0.8745970   0.8696936   0.8699609   0.8745412   0.8805869   0.8763028
   0.8763699   0.8805866   0.8802991   0.8625371   0.8624173   0.8806630
   0.8803281   0.8625532   0.8623496   0.8805709   0.8806031   0.8762995
   0.8764435   0.8806163   0.8745910   0.8696578   0.8699393   0.8745071
   5.9379514   5.9324248   6.1948026   6.1232235   6.1239361   6.1951666
   6.1721146   6.1824460   6.1839274   6.1746612   5.9364601   5.9420230
   5.8932832   6.0518902   6.1504639   6.1823769   6.1836563   6.1512209
   6.1503281   6.1823299   6.1838022   6.1514800   6.0559700   5.8966329
   5.9378815   5.9324472   6.1719938   6.1823384   6.1839924   6.1748805
   6.1947038   6.1230849   6.1240383   6.1952011   5.9365108   5.9420797
   8.4898921   8.4981331   8.4902489   8.4984700   8.5388337   8.4935067
   8.4984467   8.4897246   8.4934214   8.5395690   8.4987946   8.4900891
 TTTTTTTTTTTTTTTTTTTTTTTTTTTTTT MOQGAD      TELAPSE      182.46 TCPU     4645.18
 TTTTTTTTTTTTTTTTTTTTTTTTTTTTTT SHELLXN     TELAPSE      213.92 TCPU     5649.30
 TTTTTTTTTTTTTTTTTTTTTTTTTTTTTT MONMO3      TELAPSE      214.64 TCPU     5672.38
 NUMERICALLY INTEGRATED DENSITY    396.0000914929
 TTTTTTTTTTTTTTTTTTTTTTTTTTTTTT NUMDFT      TELAPSE      216.39 TCPU     5728.34
 CYC   4 ETOT(AU) -2.578222135174E+03 DETOT -8.39E-03 tst  2.77E-04 PX  3.32E-02
 TTTTTTTTTTTTTTTTTTTTTTTTTTTTTT DIIS        TELAPSE      216.60 TCPU     5734.89
 DIIS TEST: 0.23126E-01 AT SCF   CYCLE   4 - DIIS ACTIVE - HISTORY:     4 CYCLES
 TTTTTTTTTTTTTTTTTTTTTTTTTTTTTT FDIK        TELAPSE      218.45 TCPU     5793.99
 INSULATING STATE
 TOP OF VALENCE BANDS -    BAND    198; K    1; EIG -2.2124258E-01 AU
 BOTTOM OF VIRTUAL BANDS - BAND    199; K    1; EIG -9.6417144E-02 AU
 DIRECT ENERGY BAND GAP:   3.3967 eV
 TTTTTTTTTTTTTTTTTTTTTTTTTTTTTT PDIG        TELAPSE      220.09 TCPU     5801.00
 CHARGE NORMALIZATION FACTOR   1.00000000
 TOTAL ATOMIC CHARGES:
   4.4393639   4.4330623   4.4674791   4.4959431   4.4674997   4.4960846
   4.4956431   4.4670121   4.4954513   4.4668825   4.4327560   4.4388302
   0.8793502   0.8636685   0.8636722   0.8795820   0.8795648   0.8782353
   0.8783963   0.8795910   0.8744233   0.8633665   0.8637573   0.8744476
   0.8744312   0.8633687   0.8637055   0.8743694   0.8795533   0.8782299
   0.8784693   0.8796566   0.8793393   0.8636480   0.8636411   0.8795526
   5.9163604   5.9408694   6.1841600   6.1509519   6.1505962   6.1840162
   6.1786993   6.1779456   6.1769390   6.1769788   5.9391664   5.9148428
   5.9548342   5.9926558   6.1807416   6.1614774   6.1607520   6.1802993
   6.1809207   6.1616605   6.1606430   6.1802890   5.9910697   5.9539325
   5.9165148   5.9411086   6.1786831   6.1778920   6.1769823   6.1770766
   6.1842008   6.1509164   6.1505608   6.1839374   5.9389923   5.9146546
   8.4973638   8.4966692   8.4975803   8.4969150   8.5239771   8.4904706
   8.4965706   8.4975635   8.4905547   8.5233855   8.4967900   8.4978107
 TTTTTTTTTTTTTTTTTTTTTTTTTTTTTT MOQGAD      TELAPSE      220.21 TCPU     5801.11
 TTTTTTTTTTTTTTTTTTTTTTTTTTTTTT SHELLXN     TELAPSE      251.73 TCPU     6807.06
 TTTTTTTTTTTTTTTTTTTTTTTTTTTTTT MONMO3      TELAPSE      252.45 TCPU     6830.10
 NUMERICALLY INTEGRATED DENSITY    396.0000909483
 TTTTTTTTTTTTTTTTTTTTTTTTTTTTTT NUMDFT      TELAPSE      254.20 TCPU     6886.00
 CYC   5 ETOT(AU) -2.578227243367E+03 DETOT -5.11E-03 tst  1.06E-04 PX  1.54E-02
 TTTTTTTTTTTTTTTTTTTTTTTTTTTTTT DIIS        TELAPSE      254.43 TCPU     6892.91
 DIIS TEST: 0.23624E-02 AT SCF   CYCLE   5 - DIIS ACTIVE - HISTORY:     5 CYCLES
 TTTTTTTTTTTTTTTTTTTTTTTTTTTTTT FDIK        TELAPSE      256.28 TCPU     6951.86
 INSULATING STATE
 TOP OF VALENCE BANDS -    BAND    198; K    1; EIG -2.2063270E-01 AU
 BOTTOM OF VIRTUAL BANDS - BAND    199; K    1; EIG -9.6327249E-02 AU
 DIRECT ENERGY BAND GAP:   3.3825 eV
 TTTTTTTTTTTTTTTTTTTTTTTTTTTTTT PDIG        TELAPSE      257.92 TCPU     6958.86
 CHARGE NORMALIZATION FACTOR   1.00000000
 TOTAL ATOMIC CHARGES:
   4.4379512   4.4335657   4.4688802   4.4957957   4.4689005   4.4959339
   4.4960504   4.4690230   4.4958621   4.4688968   4.4338312   4.4377240
   0.8808579   0.8645159   0.8646848   0.8809240   0.8808276   0.8806396
   0.8806987   0.8808162   0.8789087   0.8652515   0.8653276   0.8791381
   0.8789322   0.8652621   0.8652626   0.8790501   0.8808255   0.8806310
   0.8807751   0.8808705   0.8808535   0.8644911   0.8646586   0.8808901
   5.9138466   5.9290497   6.1828334   6.1533011   6.1535809   6.1829242
   6.1763477   6.1722638   6.1731527   6.1778163   5.9314232   5.9161854
   5.9293528   5.9963236   6.1697631   6.1674066   6.1679806   6.1701341
   6.1697498   6.1674744   6.1680151   6.1702862   5.9982980   5.9311659
   5.9139262   5.9292257   6.1763105   6.1721981   6.1732118   6.1779458
   6.1827787   6.1531957   6.1536163   6.1829317   5.9313090   5.9160675
   8.5017397   8.5025053   8.5020183   8.5027887   8.5288914   8.4921884
   8.5027182   8.5017040   8.4922441   8.5293141   8.5029743   8.5020134
 TTTTTTTTTTTTTTTTTTTTTTTTTTTTTT MOQGAD      TELAPSE      258.04 TCPU     6958.98
 TTTTTTTTTTTTTTTTTTTTTTTTTTTTTT SHELLXN     TELAPSE      289.52 TCPU     7963.52
 TTTTTTTTTTTTTTTTTTTTTTTTTTTTTT MONMO3      TELAPSE      290.24 TCPU     7986.63
 NUMERICALLY INTEGRATED DENSITY    396.0000908689
 TTTTTTTTTTTTTTTTTTTTTTTTTTTTTT NUMDFT      TELAPSE      291.99 TCPU     8042.56
 CYC   6 ETOT(AU) -2.578227767379E+03 DETOT -5.24E-04 tst  9.27E-06 PX  6.22E-03
 TTTTTTTTTTTTTTTTTTTTTTTTTTTTTT DIIS        TELAPSE      292.24 TCPU     8049.46
 DIIS TEST: 0.25612E-03 AT SCF   CYCLE   6 - DIIS ACTIVE - HISTORY:     6 CYCLES
 TTTTTTTTTTTTTTTTTTTTTTTTTTTTTT FDIK        TELAPSE      294.10 TCPU     8108.31
 INSULATING STATE
 TOP OF VALENCE BANDS -    BAND    198; K    1; EIG -2.2029563E-01 AU
 BOTTOM OF VIRTUAL BANDS - BAND    199; K    1; EIG -9.5965075E-02 AU
 DIRECT ENERGY BAND GAP:   3.3832 eV
 TTTTTTTTTTTTTTTTTTTTTTTTTTTTTT PDIG        TELAPSE      295.74 TCPU     8115.31
 CHARGE NORMALIZATION FACTOR   1.00000000
 TOTAL ATOMIC CHARGES:
   4.4400080   4.4331326   4.4685004   4.4953254   4.4685262   4.4954642
   4.4950601   4.4680962   4.4948706   4.4679653   4.4328602   4.4394999
   0.8810028   0.8657835   0.8658075   0.8811978   0.8813796   0.8806128
   0.8807667   0.8813973   0.8789185   0.8653771   0.8657104   0.8789767
   0.8789341   0.8653824   0.8656530   0.8788937   0.8813745   0.8806095
   0.8808384   0.8814541   0.8809975   0.8657638   0.8657750   0.8811648
   5.9161845   5.9309803   6.1851408   6.1493741   6.1491718   6.1850718
   6.1752755   6.1758914   6.1750902   6.1739224   5.9298438   5.9152621
   5.9354303   5.9967958   6.1712761   6.1660810   6.1655874   6.1709606
   6.1713789   6.1662258   6.1655306   6.1710100   5.9958741   5.9350289
   5.9163017   5.9311810   6.1752289   6.1758171   6.1751536   6.1740634
   6.1851329   6.1493028   6.1491774   6.1850316   5.9297051   5.9151057
   8.5005454   8.5012939   8.5007836   8.5015556   8.5290175   8.4934814
   8.5012787   8.5007396   8.4935402   8.5285703   8.5015173   8.5010067
 TTTTTTTTTTTTTTTTTTTTTTTTTTTTTT MOQGAD      TELAPSE      295.85 TCPU     8115.43
 TTTTTTTTTTTTTTTTTTTTTTTTTTTTTT SHELLXN     TELAPSE      327.25 TCPU     9117.46
 TTTTTTTTTTTTTTTTTTTTTTTTTTTTTT MONMO3      TELAPSE      327.97 TCPU     9140.51
 NUMERICALLY INTEGRATED DENSITY    396.0000908978
 TTTTTTTTTTTTTTTTTTTTTTTTTTTTTT NUMDFT      TELAPSE      329.72 TCPU     9196.42
 CYC   7 ETOT(AU) -2.578227813001E+03 DETOT -4.56E-05 tst  6.76E-07 PX  1.32E-03
 TTTTTTTTTTTTTTTTTTTTTTTTTTTTTT DIIS        TELAPSE      330.00 TCPU     9203.36
 DIIS TEST: 0.70305E-04 AT SCF   CYCLE   7 - DIIS ACTIVE - HISTORY:     7 CYCLES
 TTTTTTTTTTTTTTTTTTTTTTTTTTTTTT FDIK        TELAPSE      331.85 TCPU     9262.30
 INSULATING STATE
 TOP OF VALENCE BANDS -    BAND    198; K    1; EIG -2.2051620E-01 AU
 BOTTOM OF VIRTUAL BANDS - BAND    199; K    1; EIG -9.6065492E-02 AU
 DIRECT ENERGY BAND GAP:   3.3865 eV
 TTTTTTTTTTTTTTTTTTTTTTTTTTTTTT PDIG        TELAPSE      333.49 TCPU     9269.30
 CHARGE NORMALIZATION FACTOR   1.00000000
 TOTAL ATOMIC CHARGES:
   4.4396803   4.4330509   4.4684780   4.4954264   4.4685013   4.4955650
   4.4955068   4.4684370   4.4953173   4.4683079   4.4331384   4.4393613
   0.8810776   0.8652910   0.8654106   0.8811902   0.8811132   0.8806382
   0.8807282   0.8811102   0.8787511   0.8654425   0.8656056   0.8789207
   0.8787703   0.8654515   0.8655442   0.8788349   0.8811094   0.8806319
   0.8808028   0.8811662   0.8810729   0.8652689   0.8653814   0.8811566
   5.9148109   5.9309899   6.1834601   6.1509647   6.1510668   6.1834909
   6.1757311   6.1741164   6.1744359   6.1762456   5.9321752   5.9160346
   5.9343480   5.9964264   6.1710471   6.1657194   6.1659273   6.1711919
   6.1710945   6.1658214   6.1659171   6.1712931   5.9974038   5.9353960
   5.9149087   5.9311797   6.1756926   6.1740489   6.1744939   6.1763762
   6.1834310   6.1508766   6.1510858   6.1834737   5.9320477   5.9158990
   8.5003401   8.5012147   8.5005999   8.5014875   8.5285502   8.4926211
   8.5013382   8.5003760   8.4926830   8.5286749   8.5015863   8.5006653
 TTTTTTTTTTTTTTTTTTTTTTTTTTTTTT MOQGAD      TELAPSE      333.61 TCPU     9269.42
 TTTTTTTTTTTTTTTTTTTTTTTTTTTTTT SHELLXN     TELAPSE      365.13 TCPU    10275.25
 TTTTTTTTTTTTTTTTTTTTTTTTTTTTTT MONMO3      TELAPSE      365.85 TCPU    10298.28
 NUMERICALLY INTEGRATED DENSITY    396.0000909233
 TTTTTTTTTTTTTTTTTTTTTTTTTTTTTT NUMDFT      TELAPSE      367.63 TCPU    10355.13
 CYC   8 ETOT(AU) -2.578227830155E+03 DETOT -1.72E-05 tst  1.35E-07 PX  5.50E-04
 TTTTTTTTTTTTTTTTTTTTTTTTTTTTTT DIIS        TELAPSE      367.92 TCPU    10362.02
 DIIS TEST: 0.27683E-05 AT SCF   CYCLE   8 - DIIS ACTIVE - HISTORY:     8 CYCLES
 TTTTTTTTTTTTTTTTTTTTTTTTTTTTTT FDIK        TELAPSE      369.80 TCPU    10421.62
 INSULATING STATE
 TOP OF VALENCE BANDS -    BAND    198; K    1; EIG -2.2052384E-01 AU
 BOTTOM OF VIRTUAL BANDS - BAND    199; K    1; EIG -9.6088953E-02 AU
 DIRECT ENERGY BAND GAP:   3.3860 eV
 TTTTTTTTTTTTTTTTTTTTTTTTTTTTTT PDIG        TELAPSE      371.43 TCPU    10428.62
 CHARGE NORMALIZATION FACTOR   1.00000000
 TOTAL ATOMIC CHARGES:
   4.4394322   4.4332502   4.4686452   4.4955851   4.4686684   4.4957237
   4.4955470   4.4684782   4.4953576   4.4683493   4.4332142   4.4390457
   0.8810193   0.8652879   0.8653734   0.8811609   0.8811083   0.8806049
   0.8807169   0.8811128   0.8787113   0.8653679   0.8655922   0.8788425
   0.8787301   0.8653760   0.8655314   0.8787573   0.8811041   0.8805988
   0.8807912   0.8811693   0.8810142   0.8652660   0.8653438   0.8811276
   5.9152484   5.9313067   6.1835441   6.1510362   6.1510303   6.1835361
   6.1761029   6.1741738   6.1741011   6.1759657   5.9316712   5.9157115
   5.9344664   5.9966496   6.1712097   6.1659534   6.1659047   6.1711808
   6.1712647   6.1660638   6.1658877   6.1712740   5.9969478   5.9349960
   5.9153503   5.9314997   6.1760647   6.1741061   6.1741593   6.1760957
   6.1835195   6.1509522   6.1510462   6.1835149   5.9315408   5.9155714
   8.5004773   8.5012957   8.5007335   8.5015665   8.5284726   8.4924671
   8.5013718   8.5005691   8.4925261   8.5283955   8.5016174   8.5008552
 TTTTTTTTTTTTTTTTTTTTTTTTTTTTTT MOQGAD      TELAPSE      371.55 TCPU    10428.74
 TTTTTTTTTTTTTTTTTTTTTTTTTTTTTT SHELLXN     TELAPSE      403.01 TCPU    11432.41
 TTTTTTTTTTTTTTTTTTTTTTTTTTTTTT MONMO3      TELAPSE      403.73 TCPU    11455.51
 NUMERICALLY INTEGRATED DENSITY    396.0000909230
 TTTTTTTTTTTTTTTTTTTTTTTTTTTTTT NUMDFT      TELAPSE      405.48 TCPU    11511.38
 CYC   9 ETOT(AU) -2.578227830248E+03 DETOT -9.32E-08 tst  9.61E-09 PX  1.34E-04
 TTTTTTTTTTTTTTTTTTTTTTTTTTTTTT DIIS        TELAPSE      405.80 TCPU    11518.37
 DIIS TEST: 0.90108E-06 AT SCF   CYCLE   9 - DIIS ACTIVE - HISTORY:     9 CYCLES
 TTTTTTTTTTTTTTTTTTTTTTTTTTTTTT FDIK        TELAPSE      407.65 TCPU    11577.14
 INSULATING STATE
 TOP OF VALENCE BANDS -    BAND    198; K    1; EIG -2.2050949E-01 AU
 BOTTOM OF VIRTUAL BANDS - BAND    199; K    1; EIG -9.6084589E-02 AU
 DIRECT ENERGY BAND GAP:   3.3858 eV
 TTTTTTTTTTTTTTTTTTTTTTTTTTTTTT PDIG        TELAPSE      409.29 TCPU    11584.14
 CHARGE NORMALIZATION FACTOR   1.00000000
 TOTAL ATOMIC CHARGES:
   4.4394120   4.4332431   4.4686061   4.4955457   4.4686291   4.4956843
   4.4955603   4.4684952   4.4953709   4.4683664   4.4332621   4.4390550
   0.8810097   0.8653049   0.8654057   0.8811384   0.8811404   0.8805922
   0.8806950   0.8811419   0.8786904   0.8653740   0.8655711   0.8788382
   0.8787091   0.8653821   0.8655104   0.8787530   0.8811364   0.8805862
   0.8807692   0.8811981   0.8810047   0.8652830   0.8653761   0.8811050
   5.9150543   5.9310564   6.1836699   6.1508808   6.1509244   6.1836812
   6.1758321   6.1742298   6.1743285   6.1759796   5.9317800   5.9158520
   5.9344746   5.9963927   6.1712026   6.1658826   6.1659507   6.1712539
   6.1712576   6.1659923   6.1659335   6.1713472   5.9969881   5.9352322
   5.9151557   5.9312486   6.1757932   6.1741617   6.1743870   6.1761106
   6.1836447   6.1507962   6.1509406   6.1836601   5.9316504   5.9157125
   8.5005058   8.5012681   8.5007620   8.5015391   8.5284651   8.4925653
   8.5013653   8.5005732   8.4926252   8.5284762   8.5016113   8.5008592
 TTTTTTTTTTTTTTTTTTTTTTTTTTTTTT MOQGAD      TELAPSE      409.40 TCPU    11584.26
 TTTTTTTTTTTTTTTTTTTTTTTTTTTTTT SHELLXN     TELAPSE      440.88 TCPU    12588.44
 +++ ENERGIES IN A.U. +++
 ::: EXT EL-POLE                                  -3.1967328965126E+03
 ::: EXT EL-SPHEROPOLE                             3.6972388513705E+01
 ::: BIELET ZONE E-E                               4.9650264652938E+03
 ::: TOTAL E-E                                     1.8052659572949E+03
 ::: TOTAL E-N + N-E                              -7.2526357119900E+03
 ::: TOTAL N-N                                     5.7659375942045E+02
 ::: KINETIC ENERGY                                2.5600504536940E+03
 ::: PSEUDO TOTAL   ENERGY                        -2.3107255415807E+03
 ::: VIRIAL COEFFICIENT                            1.0511879241327E+00
 TTTTTTTTTTTTTTTTTTTTTTTTTTTTTT MONMO3      TELAPSE      441.60 TCPU    12611.54
 NUMERICALLY INTEGRATED DENSITY    396.0000909208
 EXCHANGE ENERGY: -0.252060001185E+03  CORRELATION ENERGY: -0.154422877333E+02
 TTTTTTTTTTTTTTTTTTTTTTTTTTTTTT NUMDFT      TELAPSE      443.35 TCPU    12667.42
 CYC  10 ETOT(AU) -2.578227830498E+03 DETOT -2.51E-07 tst  1.85E-09 PX  1.34E-04

 == SCF ENDED - CONVERGENCE ON ENERGY      E(AU) -2.5782278304985E+03 CYCLES  10


 ENERGY EXPRESSION=HARTREE+FOCK EXCH*0.00000+(HSESOL     EXCH)*1.00000+PBESOL     CORR


 TOTAL ENERGY(DFT)(AU)( 10) -2.5782278304985E+03 DE-2.5E-07 tester 1.8E-09
 TTTTTTTTTTTTTTTTTTTTTTTTTTTTTT EDFT        TELAPSE      443.35 TCPU    12667.43
 
 INFORMATION **** DFTD3 ENERGY **** CALCULATE DFTD3 ENERGY

           DFT-D V3(BJ)
 DF                                         hsesol3c  
 parameters
 s6       :    1.0000
 s8       :    0.0000
 a1       :    0.5196
 a2       :    4.9385
 k1 k3    :   16.0000   -4.0000
 Cutoff   :   50.2022
 CN-Cutoff:   21.1671
 ABC-Cutoff:   21.1671
 
 Edisp /kcal,au:   -65.7056 -0.10470859

 E6    /kcal :   -70.8976
 E8    /kcal :     0.0000
 E6(ABC) "   :   5.191997
 
 INFORMATION **** DFTD3 ENERGY **** NORMAL TERMINATION OF DFTD3 MODULE

 GCP ENERGY CALCULATION
  level        hsesol3c            basis:hsesol3c
  Nbf            948
  Atoms           84

  Parameters: 
  sigma     1.0000
  eta       1.4281
  alpha     0.2936
  beta      1.9467

  dmp_scal      4.0000
  dmp_exp       6.0000
 cutoffs: 
   distance [bohr] 60.0
   noise    [a.u.] 2.2E-16
 SR-damping   T
 ** gCP correction **
  Egcp:        0.1721111741 / (a.u.) ||     108.0014 / (kcal/mol)
 INFORMATION **** GCP **** NORMAL TERMINATION OF GCP MODULE

 *******************************************************************************

 DFT-D3-GCP DISPERSION AND COUNTERPOISE CORRECTION

 D3 DISPERSION ENERGY (AU)      -1.0470858844591E-01
 GCP ENERGY (AU)                 1.7211117411043E-01
 TOTAL ENERGY + DISP + GCP (AU) -2.5781604279128E+03

 *******************************************************************************

 EIGENVECTORS IN FORTRAN UNIT  8
 TTTTTTTTTTTTTTTTTTTTTTTTTTTTTT END         TELAPSE      447.17 TCPU    12677.16
 EEEEEEEEEE TERMINATION  DATE 19 02 2026 TIME 19:42:31.9
