 Default number of threads is:           32

         
 *******************************************************************************
 *                                                                             *
 *                               CRYSTAL23                                     *
 *                      public : 1.0.1 - October 2022                          *
 *                       HTTP://WWW.CRYSTAL.UNITO.IT                           *
 *                                                                             *
 *                              MAIN AUTHORS                                   *
 *                                                                             *
 *  R. DOVESI(1,11), V.R. SAUNDERS(2), C. ROETTI(1,11), R. ORLANDO(1,11),      *
 *  C.M. ZICOVICH-WILSON(1,3), F. PASCALE(4), B. CIVALLERI(1,11),              *
 *  K. DOLL(5), N.M. HARRISON(6), I.J. BUSH(7), Ph. D'ARCO(8),                 *
 *  M. LLUNELL(9), M. CAUSA'(10), Y. NOEL(8), L. MASCHIO(1,11), A. ERBA(1,11)  *
 *  M. RE'RAT(14), S. CASASSA(1,11), B.G. SEARLE(2), J.K. DESMARAIS(1)         *
 *                                                                             *
 *        CONTRIBUTIONS TO THE CODE HAVE ALSO BEEN GIVEN BY                    *
 *                                                                             *
 *  M. FERRABONE(1,11), M. DE LA PIERRE(1,11), M. FERRERO(1,11),               *
 *  J. BAIMA(1,11), E. ALBANESE(1,11), M.F. PEINTINGER(12), R. BAST(13),       *
 *  B. KIRTMAN(15), V. LACIVITA(1,11), R. DEMICHELIS(1,16)                     *
 *  G. BRANDEBURG(17), S. SALUSTRO(1,11), G. SANSONE(1,11)                     *
 *  M.T. RUGGIERO(18), L.E. DAGA(1), L. DONA'(1), A. COSSARD(1)                *
 *                                                                             *
 * (1) THEORETICAL CHEMISTRY GROUP - UNIVERSITA' DI TORINO - TORINO (ITALY)    *
 * (2) SCIENTIFIC COMPUTING DEPARTMENT - STFC DARESBURY (UK)                   *
 * (3) UNIVERSIDAD AUTONOMA DEL ESTADO DE MORELOS - CUERNAVACA (MEXICO)        *
 * (4) UNIVERSITE' DE LORRAINE - NANCY (FRANCE)                                *
 * (5) UNIVERSITAET STUTTGART- STUTTGART (GERMANY)                             *
 * (6) IMPERIAL COLLEGE - LONDON (UK)                                          *
 * (7) SCIENTIFIC COMPUTING DEPARTMENT - STFC RAL (UK)                         *
 * (8) UPMC - SORBONNE UNIVERSITES - PARIS (FRANCE)                            *
 * (9) UNIVERSIDAD DE BARCELONA - BARCELONA (SPAIN)                            *
 *(10) UNIVERSITA' DI NAPOLI "FEDERICO II" - NAPOLI (ITALY)                    *
 *(11) NIS - NANOSTRUCTURED INTERFACES AND SURFACES - TORINO (ITALY)           *
 *(12) MPI FUER CHEMISCHE ENERGIEKONVERSION - MUELHEIM AN DER RUHR (GERMANY)   *
 *(13) UNIVERSITY OF TROMSO - TROMSO (NORWAY)                                  *
 *(14) UNIVERSITE' DE PAU ET DES PAYS DE L'ADOUR - PAU (FRANCE)                *
 *(15) UNIVERSITY OF CALIFORNIA SANTA BARBARA - SANTA BARBARA (USA)            *
 *(16) CURTIN UNIVERSITY - PERTH (AUSTRALIA)                                   *
 *(17) UNIVERSITY COLLEGE LONDON - LONDON (UK)                                 *
 *(18) UNIVERSITY OF VERMONT - BURLINGTON (USA)                                *
 *                                                                             *
 *******************************************************************************
 EEEEEEEEEE STARTING  DATE 19 02 2026 TIME 19:21:23.2
 cof-1_z45_L020_incl                                                             

 CRYSTAL CALCULATION
 (INPUT ACCORDING TO THE INTERNATIONAL TABLES FOR X-RAY CRYSTALLOGRAPHY)
 CRYSTAL FAMILY                       :  TRICLINIC   
 CRYSTAL CLASS  (GROTH - 1921)        :  TRICLINIC PEDIAL                     

 SPACE GROUP (NONCENTROSYMMETRIC)     :  P 1             

 LATTICE PARAMETERS  (ANGSTROMS AND DEGREES) - CONVENTIONAL CELL
        A           B           C        ALPHA        BETA       GAMMA
    15.02361    15.02392     4.92443    69.40650    89.99995   119.99596


 NUMBER OF IRREDUCIBLE ATOMS IN THE CONVENTIONAL CELL:   42

 INPUT COORDINATES

 ATOM AT. N.              COORDINATES
   1   5     5.751757900000E-01  1.503008900000E-01  5.010601800000E-01
   2   5     7.342314500000E-01  3.093605500000E-01  5.010601900000E-01
   3   5     5.753430300000E-01  3.096863900000E-01  4.988283800000E-01
   4   5     1.887505000000E-01  5.366158900000E-01  5.010601900000E-01
   5   5     3.478584700000E-01  5.365951200000E-01  5.010601800000E-01
   6   5     3.480102600000E-01  6.960773700000E-01  4.988283800000E-01
   7   1     8.648944400000E-01  2.326239300000E-01  4.964331800000E-01
   8   1     5.853972000000E-02  6.148560800000E-01  4.957256300000E-01
   9   1     8.648849800000E-01  5.178918100000E-01  4.956167400000E-01
  10   1     5.864765000000E-02  3.295001400000E-01  4.956439000000E-01
  11   1     6.523352300000E-01  1.960190000000E-02  5.035642100000E-01
  12   1     2.701781700000E-01  8.259263300000E-01  5.042718000000E-01
  13   1     3.671100700000E-01  1.952225000000E-02  5.043807700000E-01
  14   1     5.555543900000E-01  8.258237900000E-01  5.043534200000E-01
  15   1     6.529235600000E-01  5.177480900000E-01  4.964332200000E-01
  16   1     2.708670300000E-01  3.294119800000E-01  4.957255900000E-01
  17   1     3.677541400000E-01  2.326426400000E-01  4.956166500000E-01
  18   1     5.562023500000E-01  6.147731200000E-01  4.956439900000E-01
  19   6     8.535633400000E-01  3.692819700000E-01  4.987467100000E-01
  20   6     9.083315600000E-01  3.164627800000E-01  4.965420700000E-01
  21   6     1.524521000000E-02  5.308917200000E-01  4.963516200000E-01
  22   6     9.082652800000E-01  4.773107600000E-01  4.969231800000E-01
  23   6     1.535245000000E-02  3.700944600000E-01  4.954533800000E-01
  24   6     6.984697000000E-02  4.776500200000E-01  4.969503700000E-01
  25   6     5.155200300000E-01  3.112185000000E-02  5.012507200000E-01
  26   6     5.684890400000E-01 -2.382954000000E-02  5.034553100000E-01
  27   6     3.540952200000E-01  8.692484000000E-01  5.036458300000E-01
  28   6     4.076280500000E-01 -2.372405000000E-02  5.030742900000E-01
  29   6     5.149443800000E-01  8.690707400000E-01  5.045439800000E-01
  30   6     4.072704800000E-01  8.146693400000E-01  5.030470400000E-01
  31   6     5.157179000000E-01  3.692128300000E-01  4.987467100000E-01
  32   6     5.690526700000E-01  4.773029200000E-01  4.965421100000E-01
  33   6     3.546804600000E-01  3.698784600000E-01  4.963515700000E-01
  34   6     4.081004300000E-01  3.163085700000E-01  4.969231200000E-01
  35   6     5.156690700000E-01  5.309424800000E-01  4.954534400000E-01
  36   6     4.077710600000E-01  4.775726200000E-01  4.969503700000E-01
  37   8     5.223574200000E-01  2.036043200000E-01  4.994271400000E-01
  38   8     6.809406100000E-01  2.028882700000E-01  5.041357300000E-01
  39   8     6.814842200000E-01  3.629252900000E-01  4.970320400000E-01
  40   8     2.419452500000E-01  6.428847900000E-01  4.994271600000E-01
  41   8     2.416028800000E-01  4.832055500000E-01  5.041357200000E-01
  42   8     4.010686400000E-01  6.432372600000E-01  4.970320200000E-01

 *******************************************************************************

 << INFORMATION >>: FROM NOW ON, ALL COORDINATES REFER TO THE PRIMITIVE CELL

 *******************************************************************************

 LATTICE PARAMETERS  (ANGSTROMS AND DEGREES) - PRIMITIVE CELL
       A          B          C        ALPHA      BETA     GAMMA        VOLUME
   15.02361   15.02392    4.92443    69.40650  89.99995 119.99596    879.669301

 COORDINATES OF THE EQUIVALENT ATOMS (FRACTIONAL UNITS)

 N. ATOM EQUIV AT. N.          X                  Y                  Z

   1   1   1    5 B    -4.24824210000E-01  1.50300890000E-01 -4.98939820000E-01

   2   2   1    5 B    -2.65768550000E-01  3.09360550000E-01 -4.98939810000E-01

   3   3   1    5 B    -4.24656970000E-01  3.09686390000E-01  4.98828380000E-01

   4   4   1    5 B     1.88750500000E-01 -4.63384110000E-01 -4.98939810000E-01

   5   5   1    5 B     3.47858470000E-01 -4.63404880000E-01 -4.98939820000E-01

   6   6   1    5 B     3.48010260000E-01 -3.03922630000E-01  4.98828380000E-01

   7   7   1    1 H    -1.35105560000E-01  2.32623930000E-01  4.96433180000E-01

   8   8   1    1 H     5.85397200000E-02 -3.85143920000E-01  4.95725630000E-01

   9   9   1    1 H    -1.35115020000E-01 -4.82108190000E-01  4.95616740000E-01

  10  10   1    1 H     5.86476500000E-02  3.29500140000E-01  4.95643900000E-01

  11  11   1    1 H    -3.47664770000E-01  1.96019000000E-02 -4.96435790000E-01

  12  12   1    1 H     2.70178170000E-01 -1.74073670000E-01 -4.95728200000E-01

  13  13   1    1 H     3.67110070000E-01  1.95222500000E-02 -4.95619230000E-01

  14  14   1    1 H    -4.44445610000E-01 -1.74176210000E-01 -4.95646580000E-01

  15  15   1    1 H    -3.47076440000E-01 -4.82251910000E-01  4.96433220000E-01

  16  16   1    1 H     2.70867030000E-01  3.29411980000E-01  4.95725590000E-01

  17  17   1    1 H     3.67754140000E-01  2.32642640000E-01  4.95616650000E-01

  18  18   1    1 H    -4.43797650000E-01 -3.85226880000E-01  4.95643990000E-01

  19  19   1    6 C    -1.46436660000E-01  3.69281970000E-01  4.98746710000E-01

  20  20   1    6 C    -9.16684400000E-02  3.16462780000E-01  4.96542070000E-01

  21  21   1    6 C     1.52452100000E-02 -4.69108280000E-01  4.96351620000E-01

  22  22   1    6 C    -9.17347200000E-02  4.77310760000E-01  4.96923180000E-01

  23  23   1    6 C     1.53524500000E-02  3.70094460000E-01  4.95453380000E-01

  24  24   1    6 C     6.98469700000E-02  4.77650020000E-01  4.96950370000E-01

  25  25   1    6 C    -4.84479970000E-01  3.11218500000E-02 -4.98749280000E-01

  26  26   1    6 C    -4.31510960000E-01 -2.38295400000E-02 -4.96544690000E-01

  27  27   1    6 C     3.54095220000E-01 -1.30751600000E-01 -4.96354170000E-01

  28  28   1    6 C     4.07628050000E-01 -2.37240500000E-02 -4.96925710000E-01

  29  29   1    6 C    -4.85055620000E-01 -1.30929260000E-01 -4.95456020000E-01

  30  30   1    6 C     4.07270480000E-01 -1.85330660000E-01 -4.96952960000E-01

  31  31   1    6 C    -4.84282100000E-01  3.69212830000E-01  4.98746710000E-01

  32  32   1    6 C    -4.30947330000E-01  4.77302920000E-01  4.96542110000E-01

  33  33   1    6 C     3.54680460000E-01  3.69878460000E-01  4.96351570000E-01

  34  34   1    6 C     4.08100430000E-01  3.16308570000E-01  4.96923120000E-01

  35  35   1    6 C    -4.84330930000E-01 -4.69057520000E-01  4.95453440000E-01

  36  36   1    6 C     4.07771060000E-01  4.77572620000E-01  4.96950370000E-01

  37  37   1    8 O    -4.77642580000E-01  2.03604320000E-01  4.99427140000E-01

  38  38   1    8 O    -3.19059390000E-01  2.02888270000E-01 -4.95864270000E-01

  39  39   1    8 O    -3.18515780000E-01  3.62925290000E-01  4.97032040000E-01

  40  40   1    8 O     2.41945250000E-01 -3.57115210000E-01  4.99427160000E-01

  41  41   1    8 O     2.41602880000E-01  4.83205550000E-01 -4.95864280000E-01

  42  42   1    8 O     4.01068640000E-01 -3.56762740000E-01  4.97032020000E-01

 NUMBER OF SYMMETRY OPERATORS         :    1
 *******************************************************************************
 * GEOMETRY EDITING - INPUT COORDINATES ARE GIVEN IN ANGSTROM         
 *******************************************************************************

 GCALCO - MAX INDICES DIRECT LATTICE VECTOR    10    10    29
 NO.OF VECTORS CREATED 6999 STARS 3500 RMAX   214.98923 BOHR

 GEOMETRY FOR WAVE FUNCTION - DIMENSIONALITY OF THE SYSTEM    3
 (NON PERIODIC DIRECTION: LATTICE PARAMETER FORMALLY SET TO 500)
 *******************************************************************************
 LATTICE PARAMETERS (ANGSTROMS AND DEGREES) - BOHR = 0.5291772083 ANGSTROM
 PRIMITIVE CELL - CENTRING CODE 1/0 VOLUME=   879.669301 - DENSITY  0.736 g/cm^3
         A              B              C           ALPHA      BETA       GAMMA 
    15.02361100    15.02391600     4.92442900    69.406504  89.999948 119.995964
 *******************************************************************************
 ATOMS IN THE ASYMMETRIC UNIT   42 - ATOMS IN THE UNIT CELL:   42
     ATOM                 X/A                 Y/B                 Z/C    
 *******************************************************************************
      1 T   5 B    -4.248242100000E-01  1.503008900000E-01 -4.989398200000E-01
      2 T   5 B    -2.657685500000E-01  3.093605500000E-01 -4.989398100000E-01
      3 T   5 B    -4.246569700000E-01  3.096863900000E-01  4.988283800000E-01
      4 T   5 B     1.887505000000E-01 -4.633841100000E-01 -4.989398100000E-01
      5 T   5 B     3.478584700000E-01 -4.634048800000E-01 -4.989398200000E-01
      6 T   5 B     3.480102600000E-01 -3.039226300000E-01  4.988283800000E-01
      7 T   1 H    -1.351055600000E-01  2.326239300000E-01  4.964331800000E-01
      8 T   1 H     5.853972000000E-02 -3.851439200000E-01  4.957256300000E-01
      9 T   1 H    -1.351150200000E-01 -4.821081900000E-01  4.956167400000E-01
     10 T   1 H     5.864765000000E-02  3.295001400000E-01  4.956439000000E-01
     11 T   1 H    -3.476647700000E-01  1.960190000000E-02 -4.964357900000E-01
     12 T   1 H     2.701781700000E-01 -1.740736700000E-01 -4.957282000000E-01
     13 T   1 H     3.671100700000E-01  1.952225000000E-02 -4.956192300000E-01
     14 T   1 H    -4.444456100000E-01 -1.741762100000E-01 -4.956465800000E-01
     15 T   1 H    -3.470764400000E-01 -4.822519100000E-01  4.964332200000E-01
     16 T   1 H     2.708670300000E-01  3.294119800000E-01  4.957255900000E-01
     17 T   1 H     3.677541400000E-01  2.326426400000E-01  4.956166500000E-01
     18 T   1 H    -4.437976500000E-01 -3.852268800000E-01  4.956439900000E-01
     19 T   6 C    -1.464366600000E-01  3.692819700000E-01  4.987467100000E-01
     20 T   6 C    -9.166844000000E-02  3.164627800000E-01  4.965420700000E-01
     21 T   6 C     1.524521000000E-02 -4.691082800000E-01  4.963516200000E-01
     22 T   6 C    -9.173472000000E-02  4.773107600000E-01  4.969231800000E-01
     23 T   6 C     1.535245000000E-02  3.700944600000E-01  4.954533800000E-01
     24 T   6 C     6.984697000000E-02  4.776500200000E-01  4.969503700000E-01
     25 T   6 C    -4.844799700000E-01  3.112185000000E-02 -4.987492800000E-01
     26 T   6 C    -4.315109600000E-01 -2.382954000000E-02 -4.965446900000E-01
     27 T   6 C     3.540952200000E-01 -1.307516000000E-01 -4.963541700000E-01
     28 T   6 C     4.076280500000E-01 -2.372405000000E-02 -4.969257100000E-01
     29 T   6 C    -4.850556200000E-01 -1.309292600000E-01 -4.954560200000E-01
     30 T   6 C     4.072704800000E-01 -1.853306600000E-01 -4.969529600000E-01
     31 T   6 C    -4.842821000000E-01  3.692128300000E-01  4.987467100000E-01
     32 T   6 C    -4.309473300000E-01  4.773029200000E-01  4.965421100000E-01
     33 T   6 C     3.546804600000E-01  3.698784600000E-01  4.963515700000E-01
     34 T   6 C     4.081004300000E-01  3.163085700000E-01  4.969231200000E-01
     35 T   6 C    -4.843309300000E-01 -4.690575200000E-01  4.954534400000E-01
     36 T   6 C     4.077710600000E-01  4.775726200000E-01  4.969503700000E-01
     37 T   8 O    -4.776425800000E-01  2.036043200000E-01  4.994271400000E-01
     38 T   8 O    -3.190593900000E-01  2.028882700000E-01 -4.958642700000E-01
     39 T   8 O    -3.185157800000E-01  3.629252900000E-01  4.970320400000E-01
     40 T   8 O     2.419452500000E-01 -3.571152100000E-01  4.994271600000E-01
     41 T   8 O     2.416028800000E-01  4.832055500000E-01 -4.958642800000E-01
     42 T   8 O     4.010686400000E-01 -3.567627400000E-01  4.970320200000E-01

 T = ATOM BELONGING TO THE ASYMMETRIC UNIT

 ****    1 SYMMOPS - TRANSLATORS IN FRACTIONAL UNITS
 **** MATRICES AND TRANSLATORS IN THE CRYSTALLOGRAPHIC REFERENCE FRAME
   V INV                    ROTATION MATRICES                   TRANSLATORS
   1   1  1.00 -0.00  0.00  0.00  1.00  0.00  0.00 -0.00  1.00  0.00  0.00  0.00

 DIRECT LATTICE VECTORS CARTESIAN COMPONENTS (ANGSTROM)
          X                    Y                    Z
   0.130113578931E+02  -0.751088897922E+01   0.000000000000E+00
   0.000000000000E+00   0.150239160000E+02   0.000000000000E+00
   0.999868545866E+00   0.173209594599E+01   0.450001194453E+01


 CARTESIAN COORDINATES - PRIMITIVE CELL
 *******************************************************************************
 *      ATOM          X(ANGSTROM)         Y(ANGSTROM)         Z(ANGSTROM)
 *******************************************************************************
    1     5 B    -6.026414070243E+00  4.584703783562E+00 -2.245235149601E+00
    2     5 B    -3.956883943068E+00  5.779753367936E+00 -2.245235104601E+00
    3     5 B     6.984888335687E+00 -5.367126448414E-01 -2.255278276259E+00
    4     5 B     1.957026085694E+00  5.780176383158E+00 -2.245235104601E+00
    5     5 B     4.027236817003E+00  4.584822020723E+00 -2.245235149601E+00
    6     5 B     4.026980304397E+00  6.975864178644E+00 -2.255278276259E+00
    7     1 H    -2.261407418562E+00  3.637459198086E+00 -2.266056704868E+00
    8     1 H     1.257341712696E+00 -5.367410885737E+00  2.230771256209E+00
    9     1 H    -1.262478292817E+00 -5.369863288707E+00  2.230281249909E+00
   10     1 H     2.587957634309E-01  3.636293281160E+00 -2.269608474296E+00
   11     1 H    -5.019961280740E+00  2.045894369190E+00 -2.233966984692E+00
   12     1 H     4.019590376148E+00 -3.771099294911E+00  2.269229123289E+00
   13     1 H     4.281046428112E+00 -3.322482393830E+00 -2.230292454938E+00
   14     1 H    -5.278553775050E+00  1.594961399901E+00  2.269596414264E+00
   15     1 H    -4.019567815287E+00 -3.778589610720E+00  2.233955419661E+00
   16     1 H     3.020139747715E+00  2.041154065225E+00 -2.269240868320E+00
   17     1 H     4.280663685470E+00 -1.405973915703E-01 -2.269731099622E+00
   18     1 H    -5.278831220699E+00 -1.595798461940E+00  2.230403875234E+00
   19     6 C    -2.406527190107E+00  5.779712001817E+00 -2.255645792234E+00
   20     6 C    -1.696122628712E+00  4.570984260054E+00 -2.265566698568E+00
   21     6 C     6.946472559926E-01 -6.302619844610E+00  2.233588218686E+00
   22     6 C    -6.967354157455E-01 -6.303111312856E+00  2.236160245513E+00
   23     6 C    -3.047240737759E-01  4.571034376530E+00 -2.270465816572E+00
   24     6 C     4.058204223689E-01  5.780230715917E+00 -2.263729343691E+00
   25     6 C     6.208931894024E+00 -4.268323257683E+00 -2.244377717325E+00
   26     6 C    -5.111154406618E+00  3.755050808036E+00  2.265554908537E+00
   27     6 C     5.110839259314E+00 -3.751608040398E+00  2.266412250812E+00
   28     6 C     5.806802604604E+00 -2.546704224502E+00  2.263840313985E+00
   29     6 C    -5.806754614250E+00  2.550047288716E+00  2.270453936540E+00
   30     6 C     5.802122886944E+00 -4.972029889229E+00  2.263717688660E+00
   31     6 C     6.209002770573E+00  8.053038610231E-01 -2.255645792234E+00
   32     6 C    -5.110733106200E+00 -3.756100896100E+00  2.234445425962E+00
   33     6 C     4.111292179402E+00  2.020689951283E+00 -2.266423950843E+00
   34     6 C     4.806930002576E+00  8.156189392889E-01 -2.263851969016E+00
   35     6 C    -5.806414758310E+00 -2.551152040365E+00  2.229546397958E+00
   36     6 C     4.802671698044E+00  3.240957541426E+00 -2.263729343691E+00
   37     8 O     6.296072282085E+00 -1.731474609653E+00 -2.252583849107E+00
   38     8 O    -4.647194999022E+00  4.585711490102E+00 -2.231395137865E+00
   39     8 O    -3.647356105082E+00 -6.318113085543E+00  2.236650116814E+00
   40     8 O     3.647397746510E+00 -6.317437070006E+00  2.247428185422E+00
   41     8 O     2.647782443083E+00  4.586102676044E+00 -2.231395182865E+00
   42     8 O    -7.295943595249E+00 -5.593396881032E-04  2.236650026813E+00

 *******************************************************************************
 STARTING BASIS SET HANDLING 
 *******************************************************************************

 Loading internal basis set: SOLDEF2MSVP         

 Please cite in your publication:
 L. Dona', J. G. Brandenburg and B. Civalleri, J. Chem. Phys., 151, 121101 (2019
 )                                                                              
                                                                                
                    

 *******************************************************************************
 LOCAL ATOMIC FUNCTIONS BASIS SET
 *******************************************************************************
   ATOM   X(AU)   Y(AU)   Z(AU)  N. TYPE  EXPONENT  S COEF   P COEF   D/F/G COEF
 *******************************************************************************
   1 B  -11.388   8.664  -4.243
                                  1 S  
                                         2.410E+03 1.755E-03 0.000E+00 0.000E+00
                                         3.619E+02 1.344E-02 0.000E+00 0.000E+00
                                         8.231E+01 6.637E-02 0.000E+00 0.000E+00
                                         2.311E+01 2.303E-01 0.000E+00 0.000E+00
                                         7.252E+00 5.150E-01 0.000E+00 0.000E+00
                                  2 S  
                                         2.367E+00 1.000E+00 0.000E+00 0.000E+00
                                  3 S  
                                         5.533E-01 1.000E+00 0.000E+00 0.000E+00
                                  4 S  
                                         1.716E-01 1.000E+00 0.000E+00 0.000E+00
                           5-     7 P  
                                         6.002E+00 0.000E+00-3.555E-02 0.000E+00
                                         1.240E+00 0.000E+00-1.983E-01 0.000E+00
                                         3.367E-01 0.000E+00-5.048E-01 0.000E+00
                           8-    10 P  
                                         1.256E-01 0.000E+00 1.000E+00 0.000E+00
                          11-    15 D  
                                         8.880E-01 0.000E+00 0.000E+00 1.000E+00
   2 B   -7.477  10.922  -4.243
   3 B   13.200  -1.014  -4.262
   4 B    3.698  10.923  -4.243
   5 B    7.610   8.664  -4.243
   6 B    7.610  13.182  -4.262
   7 H   -4.273   6.874  -4.282
                                 91 S  
                                         1.874E+01 1.968E-02 0.000E+00 0.000E+00
                                         2.826E+00 1.380E-01 0.000E+00 0.000E+00
                                         6.401E-01 4.783E-01 0.000E+00 0.000E+00
                                 92 S  
                                         1.756E-01 1.000E+00 0.000E+00 0.000E+00
   8 H    2.376 -10.143   4.216
   9 H   -2.386 -10.148   4.215
  10 H    0.489   6.872  -4.289
  11 H   -9.486   3.866  -4.222
  12 H    7.596  -7.126   4.288
  13 H    8.090  -6.279  -4.215
  14 H   -9.975   3.014   4.289
  15 H   -7.596  -7.140   4.222
  16 H    5.707   3.857  -4.288
  17 H    8.089  -0.266  -4.289
  18 H   -9.976  -3.016   4.215
  19 C   -4.548  10.922  -4.263
                                115 S  
                                         3.624E+03 1.634E-03 0.000E+00 0.000E+00
                                         5.440E+02 1.252E-02 0.000E+00 0.000E+00
                                         1.237E+02 6.211E-02 0.000E+00 0.000E+00
                                         3.476E+01 2.182E-01 0.000E+00 0.000E+00
                                         1.093E+01 4.980E-01 0.000E+00 0.000E+00
                                116 S  
                                         3.574E+00 1.000E+00 0.000E+00 0.000E+00
                                117 S  
                                         7.742E-01 1.000E+00 0.000E+00 0.000E+00
                                118 S  
                                         2.330E-01 1.000E+00 0.000E+00 0.000E+00
                         119-   121 P  
                                         9.443E+00 0.000E+00 3.790E-02 0.000E+00
                                         2.002E+00 0.000E+00 2.082E-01 0.000E+00
                                         5.463E-01 0.000E+00 5.047E-01 0.000E+00
                         122-   124 P  
                                         1.820E-01 0.000E+00 1.000E+00 0.000E+00
                         125-   129 D  
                                         8.880E-01 0.000E+00 0.000E+00 1.000E+00
  20 C   -3.205   8.638  -4.281
  21 C    1.313 -11.910   4.221
  22 C   -1.317 -11.911   4.226
  23 C   -0.576   8.638  -4.291
  24 C    0.767  10.923  -4.278
  25 C   11.733  -8.066  -4.241
  26 C   -9.659   7.096   4.281
  27 C    9.658  -7.090   4.283
  28 C   10.973  -4.813   4.278
  29 C  -10.973   4.819   4.291
  30 C   10.964  -9.396   4.278
  31 C   11.733   1.522  -4.263
  32 C   -9.658  -7.098   4.222
  33 C    7.769   3.819  -4.283
  34 C    9.084   1.541  -4.278
  35 C  -10.973  -4.821   4.213
  36 C    9.076   6.125  -4.278
  37 O   11.898  -3.272  -4.257
                                385 S  
                                         6.773E+03 1.727E-03 0.000E+00 0.000E+00
                                         1.017E+03 1.325E-02 0.000E+00 0.000E+00
                                         2.313E+02 6.603E-02 0.000E+00 0.000E+00
                                         6.501E+01 2.353E-01 0.000E+00 0.000E+00
                                         2.050E+01 5.498E-01 0.000E+00 0.000E+00
                                386 S  
                                         6.716E+00 1.000E+00 0.000E+00 0.000E+00
                                387 S  
                                         1.147E+00 1.000E+00 0.000E+00 0.000E+00
                                388 S  
                                         3.342E-01 1.000E+00 0.000E+00 0.000E+00
                         389-   391 P  
                                         1.769E+01 0.000E+00 4.359E-02 0.000E+00
                                         3.854E+00 0.000E+00 2.318E-01 0.000E+00
                                         1.047E+00 0.000E+00 5.146E-01 0.000E+00
                         392-   394 P  
                                         2.759E-01 0.000E+00 1.000E+00 0.000E+00
                         395-   399 D  
                                         8.000E-01 0.000E+00 0.000E+00 1.000E+00
  38 O   -8.782   8.666  -4.217
  39 O   -6.893 -11.940   4.227
  40 O    6.893 -11.938   4.247
  41 O    5.004   8.666  -4.217
  42 O  -13.787  -0.001   4.227

 *******************************************************************************
 FINISHED BASIS SET HANDLING 
 *******************************************************************************

 INFORMATION **** SET_MPP **** PCRYSTAL CALCULATION
 INFORMATION **** READM2 **** NEW DEFAULT: FOCK/KS MATRIX MIXING SET TO 30 %
 INFORMATION **** READM2 **** NEW DEFAULT: FULL DIRECT SCF MODE
 INFORMATION **** READM2 **** NEW DEFAULT: COULOMB BIPOLAR BUFFER SET TO 32 Mb
 INFORMATION **** READM2 **** NEW DEFAULT: EXCHANGE BIPOLAR BUFFER SET TO 32 Mb

 *******************************************************************************
 NEW DEFAULT: DFT INTEGRATION GRID INCREASED TO XLGRID
 NEW DEFAULT: DIIS ACCELERATOR ACTIVE
 USE KEYWORD NODIIS TO TURN IT OFF
 *******************************************************************************

 WARNING **** RDDFTP **** HSEsol-HJS ACTIVE
 RANGE SEPARATION - OMEGA:   0.110000000000000     
 WARNING **** RDDFTP **** HSEsol-3c has to be combined with sol-def2-mSVP basis set
 *******************************************************************************
 N. OF ATOMS PER CELL        42  COULOMB OVERLAP TOL         (T1) 10**   -6
 NUMBER OF SHELLS           234  COULOMB PENETRATION TOL     (T2) 10**   -6
 NUMBER OF AO               474  EXCHANGE OVERLAP TOL        (T3) 10**   -6
 N. OF ELECTRONS PER CELL   198  EXCHANGE PSEUDO OVP (F(G))  (T4) 10**   -6
 CORE ELECTRONS PER CELL     60  EXCHANGE PSEUDO OVP (P(G))  (T5) 10**  -12
 N. OF SYMMETRY OPERATORS     1  POLE ORDER IN MONO ZONE                  4
 *******************************************************************************
 TYPE OF CALCULATION :  RESTRICTED CLOSED SHELL
 KOHN-SHAM HAMILTONIAN

 (EXCHANGE)[CORRELATION] FUNCTIONAL:(HSEsol GGA)[PBEsol]

 RANGE-SEPARATED HYBRID FUNCTIONAL 
 OMEGA (SHORT-RANGE)[LONG-RANGE]:(    0.1100)[    0.0000]

 HYBRID EXCHANGE - PERCENTAGE OF FOCK EXCHANGE    25.0000

 CAPPA:IS1  2;IS2  2;IS3  8; K PTS MONK NET  20; SYMMOPS:K SPACE   2;G SPACE   1

 *******************************************************************************
 MAX NUMBER OF SCF CYCLES      50  CONVERGENCE ON DELTAP        10**-16
 WEIGHT OF F(I) IN F(I+1)      30% CONVERGENCE ON ENERGY        10**- 6
 SHRINK. FACT.(MONKH.)    2  2  8  NUMBER OF K POINTS IN THE IBZ     20
 SHRINKING FACTOR(GILAT NET)    8  NUMBER OF K POINTS(GILAT NET)   1028
 *******************************************************************************
 *** K POINTS COORDINATES (OBLIQUE COORDINATES IN UNITS OF IS =  2)
   1-R(  0  0  0)   2-R(  1  0  0)   3-R(  0  1  0)   4-R(  1  1  0)
   5-C(  0  0  1)   6-C(  1  0  1)   7-C(  0  1  1)   8-C(  1  1  1)
   9-C(  0  0  2)  10-C(  1  0  2)  11-C(  0  1  2)  12-C(  1  1  2)
  13-C(  0  0  3)  14-C(  1  0  3)  15-C(  0  1  3)  16-C(  1  1  3)
  17-R(  0  0  4)  18-R(  1  0  4)  19-R(  0  1  4)  20-R(  1  1  4)

 DIRECT LATTICE VECTORS COMPON. (A.U.)     RECIP. LATTICE VECTORS COMPON. (A.U.) 
        X            Y            Z              X            Y            Z
   24.5879030  -14.1935232    0.0000000      0.2555397    0.0000000   -0.0567790
    0.0000000   28.3910867    0.0000000      0.1277517    0.2213084   -0.1135691
    1.8894777    3.2731870    8.5037902      0.0000000    0.0000000    0.7388688

 DISK SPACE FOR EIGENVECTORS (FTN 10)     7189632 REALS

 SYMMETRY ADAPTION OF THE BLOCH FUNCTIONS DISABLED
 TTTTTTTTTTTTTTTTTTTTTTTTTTTTTT gordsh1     TELAPSE        0.04 TCPU        0.04

 MATRIX SIZE: P(G)  290480, F(G)   60502, P(G) IRR  146545, F(G) IRR   61162
 MAX G-VECTOR INDEX FOR 1- AND 2-ELECTRON INTEGRALS  61

 TTTTTTTTTTTTTTTTTTTTTTTTTTTTTT INPUT       TELAPSE        0.30 TCPU        0.30

 NEIGHBORS OF THE NON-EQUIVALENT ATOMS

 N = NUMBER OF NEIGHBORS AT DISTANCE R
    ATOM  N     R/ANG      R/AU   NEIGHBORS (ATOM LABELS AND CELL INDICES)
   1 B    1     1.3791     2.6061   37 O   -1 0 0
   1 B    1     1.3793     2.6065   38 O    0 0 0
   1 B    1     1.5503     2.9297   25 C   -1 0 0
   1 B    1     2.3895     4.5155    3 B   -1 0 0
   1 B    1     2.3898     4.5160    2 B    0 0 0
   1 B    1     2.5632     4.8437   26 C    0 0-1

   2 B    1     1.3793     2.6065   39 O    0 1-1
   2 B    1     1.3793     2.6065   38 O    0 0 0
   2 B    1     1.5504     2.9298   19 C    0 0 0
   2 B    1     2.3895     4.5156    3 B   -1 0 0
   2 B    1     2.3898     4.5160    1 B    0 0 0
   2 B    1     2.5634     4.8440   22 C    0 1-1

   3 B    1     1.3791     2.6061   37 O    0 0 0
   3 B    1     1.3793     2.6064   39 O    1 1-1
   3 B    1     1.5502     2.9294   31 C    0 0 0
   3 B    1     2.3895     4.5155    1 B    1 0 0
   3 B    1     2.3895     4.5156    2 B    1 0 0
   3 B    1     2.5629     4.8433   32 C    1 1-1

   4 B    1     1.3795     2.6068   40 O    0 1-1
   4 B    1     1.3795     2.6070   41 O    0 0 0
   4 B    1     1.5513     2.9316   24 C    0 0 0
   4 B    1     2.3905     4.5174    6 B    0 0 0
   4 B    1     2.3905     4.5175    5 B    0 0 0
   4 B    1     2.5648     4.8468   23 C    0 0 0

   5 B    1     1.3795     2.6069   41 O    0 0 0
   5 B    1     1.3797     2.6072   42 O    1 1-1
   5 B    1     1.5516     2.9322   36 C    0 0 0
   5 B    1     2.3905     4.5175    4 B    0 0 0
   5 B    1     2.3911     4.5185    6 B    0 0 0
   5 B    1     2.5651     4.8473   35 C    1 1-1

   6 B    1     1.3795     2.6068   40 O    0 1-1
   6 B    1     1.3796     2.6071   42 O    1 1-1
   6 B    1     1.5516     2.9322   30 C    0 1-1
   6 B    1     2.3905     4.5174    4 B    0 0 0
   6 B    1     2.3911     4.5185    5 B    0 0 0
   6 B    1     2.5651     4.8473   29 C    1 1-1

   7 H    1     1.0913     2.0623   20 C    0 0 0
   7 H    1     2.1472     4.0576   19 C    0 0 0
   7 H    1     2.1680     4.0969   23 C    0 0 0
   7 H    1     2.5202     4.7625   10 H    0 0 0
   7 H    1     2.5676     4.8520   38 O    0 0 0
   7 H    1     2.7321     5.1630    2 B    0 0 0

   8 H    1     1.0914     2.0625   21 C    0 0 0
   8 H    1     2.1493     4.0616   24 C    0-1 1
   8 H    1     2.1666     4.0942   22 C    0 0 0
   8 H    1     2.5198     4.7618    9 H    0 0 0
   8 H    1     2.5720     4.8604   40 O    0 0 0
   8 H    1     2.7362     5.1707    4 B    0-1 1

   9 H    1     1.0914     2.0624   22 C    0 0 0
   9 H    1     2.1471     4.0575   19 C    0-1 1
   9 H    1     2.1680     4.0970   21 C    0 0 0
   9 H    1     2.5198     4.7618    8 H    0 0 0
   9 H    1     2.5665     4.8500   39 O    0 0 0
   9 H    1     2.7315     5.1618    2 B    0-1 1

  10 H    1     1.0915     2.0626   23 C    0 0 0
  10 H    1     2.1490     4.0610   24 C    0 0 0
  10 H    1     2.1669     4.0948   20 C    0 0 0
  10 H    1     2.5202     4.7625    7 H    0 0 0
  10 H    1     2.5712     4.8588   41 O    0 0 0
  10 H    1     2.7351     5.1686    4 B    0 0 0

  11 H    1     1.0913     2.0623   26 C    0 0-1
  11 H    1     2.1469     4.0571   25 C   -1 0 0
  11 H    1     2.1680     4.0968   29 C    0 0-1
  11 H    1     2.5198     4.7617   14 H    0 0-1
  11 H    1     2.5670     4.8510   38 O    0 0 0
  11 H    1     2.7310     5.1609    1 B    0 0 0

  12 H    1     1.0914     2.0625   27 C    0 0 0
  12 H    1     2.1493     4.0617   30 C    0 0 0
  12 H    1     2.1664     4.0939   28 C    0 0 0
  12 H    1     2.5192     4.7606   13 H    0 0 1
  12 H    1     2.5735     4.8632   40 O    0 0 0
  12 H    1     2.7371     5.1723    6 B    0-1 1

  13 H    1     1.0914     2.0624   28 C    0 0-1
  13 H    1     2.1475     4.0581   25 C    0 0 0
  13 H    1     2.1679     4.0967   27 C    0 0-1
  13 H    1     2.5192     4.7606   12 H    0 0-1
  13 H    1     2.5675     4.8519   37 O    0 0 0
  13 H    1     2.7328     5.1643    1 B    1 0 0

  14 H    1     1.0914     2.0625   29 C    0 0 0
  14 H    1     2.1491     4.0612   30 C   -1 0 0
  14 H    1     2.1666     4.0942   26 C    0 0 0
  14 H    1     2.5198     4.7617   11 H    0 0 1
  14 H    1     2.5723     4.8609   42 O    0 0 0
  14 H    1     2.7355     5.1693    6 B   -1-1 1

  15 H    1     1.0914     2.0624   32 C    0 0 0
  15 H    1     2.1475     4.0582   31 C   -1-1 1
  15 H    1     2.1678     4.0966   35 C    0 0 0
  15 H    1     2.5200     4.7621   18 H    0 0 0
  15 H    1     2.5667     4.8503   39 O    0 0 0
  15 H    1     2.7315     5.1618    3 B   -1-1 1

  16 H    1     1.0913     2.0623   33 C    0 0 0
  16 H    1     2.1487     4.0605   36 C    0 0 0
  16 H    1     2.1667     4.0945   34 C    0 0 0
  16 H    1     2.5197     4.7616   17 H    0 0 0
  16 H    1     2.5723     4.8610   41 O    0 0 0
  16 H    1     2.7359     5.1701    5 B    0 0 0

  17 H    1     1.0915     2.0626   34 C    0 0 0
  17 H    1     2.1479     4.0589   31 C    0 0 0
  17 H    1     2.1679     4.0968   33 C    0 0 0
  17 H    1     2.5197     4.7616   16 H    0 0 0
  17 H    1     2.5677     4.8522   37 O    0 0 0
  17 H    1     2.7331     5.1648    3 B    0 0 0

  18 H    1     1.0914     2.0624   35 C    0 0 0
  18 H    1     2.1486     4.0602   36 C   -1-1 1
  18 H    1     2.1668     4.0947   32 C    0 0 0
  18 H    1     2.5200     4.7621   15 H    0 0 0
  18 H    1     2.5717     4.8598   42 O    0 0 0
  18 H    1     2.7349     5.1682    5 B   -1-1 1

  19 C    1     1.4020     2.6495   22 C    0 1-1
  19 C    1     1.4021     2.6495   20 C    0 0 0
  19 C    1     1.5504     2.9298    2 B    0 0 0
  19 C    1     2.1471     4.0575    9 H    0 1-1
  19 C    1     2.1472     4.0576    7 H    0 0 0
  19 C    1     2.4246     4.5817   21 C    0 1-1

  20 C    1     1.0913     2.0623    7 H    0 0 0
  20 C    1     1.3914     2.6294   23 C    0 0 0
  20 C    1     1.4021     2.6495   19 C    0 0 0
  20 C    1     2.1669     4.0948   10 H    0 0 0
  20 C    1     2.4177     4.5688   22 C    0 1-1
  20 C    1     2.4250     4.5825   24 C    0 0 0

  21 C    1     1.0914     2.0625    8 H    0 0 0
  21 C    1     1.3914     2.6293   22 C    0 0 0
  21 C    1     1.4026     2.6505   24 C    0-1 1
  21 C    1     2.1680     4.0970    9 H    0 0 0
  21 C    1     2.4182     4.5697   23 C    0-1 1
  21 C    1     2.4246     4.5817   19 C    0-1 1

  22 C    1     1.0914     2.0624    9 H    0 0 0
  22 C    1     1.3914     2.6293   21 C    0 0 0
  22 C    1     1.4020     2.6495   19 C    0-1 1
  22 C    1     2.1666     4.0942    8 H    0 0 0
  22 C    1     2.4177     4.5688   20 C    0-1 1
  22 C    1     2.4250     4.5826   24 C    0-1 1

  23 C    1     1.0915     2.0626   10 H    0 0 0
  23 C    1     1.3914     2.6294   20 C    0 0 0
  23 C    1     1.4025     2.6504   24 C    0 0 0
  23 C    1     2.1680     4.0969    7 H    0 0 0
  23 C    1     2.4182     4.5697   21 C    0 1-1
  23 C    1     2.4246     4.5818   19 C    0 0 0

  24 C    1     1.4025     2.6504   23 C    0 0 0
  24 C    1     1.4026     2.6505   21 C    0 1-1
  24 C    1     1.5513     2.9316    4 B    0 0 0
  24 C    1     2.1490     4.0610   10 H    0 0 0
  24 C    1     2.1493     4.0616    8 H    0 1-1
  24 C    1     2.4250     4.5825   20 C    0 0 0

  25 C    1     1.4020     2.6494   26 C    1 0-1
  25 C    1     1.4021     2.6495   28 C    0 0-1
  25 C    1     1.5503     2.9297    1 B    1 0 0
  25 C    1     2.1469     4.0571   11 H    1 0 0
  25 C    1     2.1475     4.0581   13 H    0 0 0
  25 C    1     2.4246     4.5818   27 C    0 0-1

  26 C    1     1.0913     2.0623   11 H    0 0 1
  26 C    1     1.3914     2.6293   29 C    0 0 0
  26 C    1     1.4020     2.6494   25 C   -1 0 1
  26 C    1     2.1666     4.0942   14 H    0 0 0
  26 C    1     2.4175     4.5684   28 C   -1 0 0
  26 C    1     2.4251     4.5828   30 C   -1 0 0

  27 C    1     1.0914     2.0625   12 H    0 0 0
  27 C    1     1.3915     2.6295   28 C    0 0 0
  27 C    1     1.4026     2.6505   30 C    0 0 0
  27 C    1     2.1679     4.0967   13 H    0 0 1
  27 C    1     2.4179     4.5691   29 C    1 0 0
  27 C    1     2.4246     4.5818   25 C    0 0 1

  28 C    1     1.0914     2.0624   13 H    0 0 1
  28 C    1     1.3915     2.6295   27 C    0 0 0
  28 C    1     1.4021     2.6495   25 C    0 0 1
  28 C    1     2.1664     4.0939   12 H    0 0 0
  28 C    1     2.4175     4.5684   26 C    1 0 0
  28 C    1     2.4253     4.5832   30 C    0 0 0

  29 C    1     1.0914     2.0625   14 H    0 0 0
  29 C    1     1.3914     2.6293   26 C    0 0 0
  29 C    1     1.4025     2.6504   30 C   -1 0 0
  29 C    1     2.1680     4.0968   11 H    0 0 1
  29 C    1     2.4179     4.5691   27 C   -1 0 0
  29 C    1     2.4247     4.5819   25 C   -1 0 1

  30 C    1     1.4025     2.6504   29 C    1 0 0
  30 C    1     1.4026     2.6505   27 C    0 0 0
  30 C    1     1.5516     2.9322    6 B    0-1 1
  30 C    1     2.1491     4.0612   14 H    1 0 0
  30 C    1     2.1493     4.0617   12 H    0 0 0
  30 C    1     2.4251     4.5828   26 C    1 0 0

  31 C    1     1.4021     2.6496   32 C    1 1-1
  31 C    1     1.4021     2.6497   34 C    0 0 0
  31 C    1     1.5502     2.9294    3 B    0 0 0
  31 C    1     2.1475     4.0582   15 H    1 1-1
  31 C    1     2.1479     4.0589   17 H    0 0 0
  31 C    1     2.4244     4.5814   33 C    0 0 0

  32 C    1     1.0914     2.0624   15 H    0 0 0
  32 C    1     1.3914     2.6293   35 C    0 0 0
  32 C    1     1.4021     2.6496   31 C   -1-1 1
  32 C    1     2.1668     4.0947   18 H    0 0 0
  32 C    1     2.4179     4.5692   34 C   -1-1 1
  32 C    1     2.4251     4.5827   36 C   -1-1 1

  33 C    1     1.0913     2.0623   16 H    0 0 0
  33 C    1     1.3914     2.6294   34 C    0 0 0
  33 C    1     1.4025     2.6504   36 C    0 0 0
  33 C    1     2.1679     4.0968   17 H    0 0 0
  33 C    1     2.4178     4.5690   35 C    1 1-1
  33 C    1     2.4244     4.5814   31 C    0 0 0

  34 C    1     1.0915     2.0626   17 H    0 0 0
  34 C    1     1.3914     2.6294   33 C    0 0 0
  34 C    1     1.4021     2.6497   31 C    0 0 0
  34 C    1     2.1667     4.0945   16 H    0 0 0
  34 C    1     2.4179     4.5692   32 C    1 1-1
  34 C    1     2.4253     4.5832   36 C    0 0 0

  35 C    1     1.0914     2.0624   18 H    0 0 0
  35 C    1     1.3914     2.6293   32 C    0 0 0
  35 C    1     1.4025     2.6503   36 C   -1-1 1
  35 C    1     2.1678     4.0966   15 H    0 0 0
  35 C    1     2.4178     4.5690   33 C   -1-1 1
  35 C    1     2.4245     4.5817   31 C   -1-1 1

  36 C    1     1.4025     2.6503   35 C    1 1-1
  36 C    1     1.4025     2.6504   33 C    0 0 0
  36 C    1     1.5516     2.9322    5 B    0 0 0
  36 C    1     2.1486     4.0602   18 H    1 1-1
  36 C    1     2.1487     4.0605   16 H    0 0 0
  36 C    1     2.4251     4.5827   32 C    1 1-1

  37 O    1     1.3791     2.6061    3 B    0 0 0
  37 O    1     1.3791     2.6061    1 B    1 0 0
  37 O    1     2.3880     4.5126   38 O    1 0 0
  37 O    1     2.3882     4.5130   39 O    1 1-1
  37 O    1     2.5383     4.7966   31 C    0 0 0
  37 O    1     2.5384     4.7968   25 C    0 0 0

  38 O    1     1.3793     2.6065    1 B    0 0 0
  38 O    1     1.3793     2.6065    2 B    0 0 0
  38 O    1     2.3880     4.5126   37 O   -1 0 0
  38 O    1     2.3882     4.5131   39 O    0 1-1
  38 O    1     2.5391     4.7981   19 C    0 0 0
  38 O    1     2.5395     4.7990   25 C   -1 0 0

  39 O    1     1.3793     2.6064    3 B   -1-1 1
  39 O    1     1.3793     2.6065    2 B    0-1 1
  39 O    1     2.3882     4.5130   37 O   -1-1 1
  39 O    1     2.3882     4.5131   38 O    0-1 1
  39 O    1     2.5390     4.7980   19 C    0-1 1
  39 O    1     2.5391     4.7982   31 C   -1-1 1

  40 O    1     1.3795     2.6068    6 B    0-1 1
  40 O    1     1.3795     2.6068    4 B    0-1 1
  40 O    1     2.3880     4.5126   42 O    1 0 0
  40 O    1     2.3884     4.5134   41 O    0-1 1
  40 O    1     2.5400     4.7998   24 C    0-1 1
  40 O    1     2.5403     4.8005   30 C    0 0 0

  41 O    1     1.3795     2.6069    5 B    0 0 0
  41 O    1     1.3795     2.6070    4 B    0 0 0
  41 O    1     2.3881     4.5128   42 O    1 1-1
  41 O    1     2.3884     4.5134   40 O    0 1-1
  41 O    1     2.5404     4.8006   24 C    0 0 0
  41 O    1     2.5405     4.8008   36 C    0 0 0

  42 O    1     1.3796     2.6071    6 B   -1-1 1
  42 O    1     1.3797     2.6072    5 B   -1-1 1
  42 O    1     2.3880     4.5126   40 O   -1 0 0
  42 O    1     2.3881     4.5128   41 O   -1-1 1
  42 O    1     2.5409     4.8016   36 C   -1-1 1
  42 O    1     2.5410     4.8019   30 C   -1 0 0


 SYMMETRY ALLOWED INTERNAL DEGREE(S) OF FREEDOM: 123
 TTTTTTTTTTTTTTTTTTTTTTTTTTTTTT SYMM        TELAPSE        0.30 TCPU        0.30
 TTTTTTTTTTTTTTTTTTTTTTTTTTTTTT INT_SCREEN  TELAPSE        0.33 TCPU        0.33

 DFT PARAMETERS

     ATOM       ELECTRONS   NET CHARGE   R(ANGSTROM)
   1   5  B       5.0000      0.0000     0.89000000
   7   1  H       1.0000      0.0000     1.11000000
  19   6  C       6.0000      0.0000     0.77000000
  37   8  O       8.0000      0.0000     0.74000000

 SIZE OF GRID=    1336405
 TTTTTTTTTTTTTTTTTTTTTTTTTTTTTT MAKE_GRID2  TELAPSE        8.28 TCPU        8.27
 BECKE WEIGHT FUNCTION
 RADSAFE =     2.00
 TOLERANCES - DENSITY:10**- 6; POTENTIAL:10**- 9; GRID WGT:10**-14

 RADIAL INTEGRATION  - INTERVALS (POINTS,UPPER LIMIT):            1( 75,  4.0*R)

 ANGULAR INTEGRATION - INTERVALS (ACCURACY LEVEL [N. POINTS] UPPER LIMIT):
  1(  4[  86]   0.2)  2(  8[ 194]   0.5)  3( 12[ 350]   0.9)  4( 16[ 974]   3.5)
  5( 12[ 350]9999.0)
 TTTTTTTTTTTTTTTTTTTTTTTTTTTTTT INT_CALC    TELAPSE        8.36 TCPU        8.35
 EEEEEEEEEE INT_CALC TERMINATION  DATE 19 02 2026 TIME 19:21:31.6

 *******************************************************************************
 cof-1_z45_L020_incl                                                             
 CRYSTAL - SCF - TYPE OF CALCULATION :  RESTRICTED CLOSED SHELL
 *******************************************************************************

 CAPPA:IS1  2;IS2  2;IS3  8; K PTS MONK NET  20; SYMMOPS:K SPACE   2;G SPACE   1

 TTTTTTTTTTTTTTTTTTTTTTTTTTTTTT SDIK        TELAPSE        8.99 TCPU       16.47

 AAAAAAAAAAAAAAAAAAAAAAAAAAAAAAAAAAAAAAAAAAAAAAAAAAAAAAAAAAAAAAAAAAAAAAAAAAAAAAA
         ATOMIC WAVEFUNCTION(S)


 NUCLEAR CHARGE  5.0  SYMMETRY SPECIES            S    P
 N. ELECTRONS    5.0  NUMBER OF PRIMITIVE GTOS    8    4
                      NUMBER OF CONTRACTED GTOS   4    2
                      NUMBER OF CLOSED SHELLS     2    0
                      OPEN SHELL OCCUPATION       0    1

  ZNUC  SCFIT    TOTAL HF ENERGY   KINETIC ENERGY   VIRIAL THEOREM ACCURACY
   5.0    11    -2.451164084E+01  2.462155050E+01 -1.995536038E+00  1.5E-06

 NUCLEAR CHARGE  1.0  SYMMETRY SPECIES            S
 N. ELECTRONS    1.0  NUMBER OF PRIMITIVE GTOS    4
                      NUMBER OF CONTRACTED GTOS   2
                      NUMBER OF CLOSED SHELLS     0
                      OPEN SHELL OCCUPATION       1

  ZNUC  SCFIT    TOTAL HF ENERGY   KINETIC ENERGY   VIRIAL THEOREM ACCURACY
   1.0     1    -4.977266687E-01  5.190767460E-01 -1.958869132E+00  0.0E+00

 NUCLEAR CHARGE  6.0  SYMMETRY SPECIES            S    P
 N. ELECTRONS    6.0  NUMBER OF PRIMITIVE GTOS    8    4
                      NUMBER OF CONTRACTED GTOS   4    2
                      NUMBER OF CLOSED SHELLS     2    0
                      OPEN SHELL OCCUPATION       0    2

  ZNUC  SCFIT    TOTAL HF ENERGY   KINETIC ENERGY   VIRIAL THEOREM ACCURACY
   6.0     9    -3.766704647E+01  3.775180683E+01 -1.997754800E+00  1.1E-06

 NUCLEAR CHARGE  8.0  SYMMETRY SPECIES            S    P
 N. ELECTRONS    8.0  NUMBER OF PRIMITIVE GTOS    8    4
                      NUMBER OF CONTRACTED GTOS   4    2
                      NUMBER OF CLOSED SHELLS     2    0
                      OPEN SHELL OCCUPATION       0    4

  ZNUC  SCFIT    TOTAL HF ENERGY   KINETIC ENERGY   VIRIAL THEOREM ACCURACY
   8.0    12    -7.477373220E+01  7.477365593E+01 -2.000001020E+00  3.8E-06

 AAAAAAAAAAAAAAAAAAAAAAAAAAAAAAAAAAAAAAAAAAAAAAAAAAAAAAAAAAAAAAAAAAAAAAAAAAAAAAA

 CHARGE NORMALIZATION FACTOR   1.00000000
 TOTAL ATOMIC CHARGES:
   5.0000000   5.0000000   5.0000000   5.0000000   5.0000000   5.0000000
   1.0000000   1.0000000   1.0000000   1.0000000   1.0000000   1.0000000
   1.0000000   1.0000000   1.0000000   1.0000000   1.0000000   1.0000000
   6.0000000   6.0000000   6.0000000   6.0000000   6.0000000   6.0000000
   6.0000000   6.0000000   6.0000000   6.0000000   6.0000000   6.0000000
   6.0000000   6.0000000   6.0000000   6.0000000   6.0000000   6.0000000
   8.0000000   8.0000000   8.0000000   8.0000000   8.0000000   8.0000000
 TTTTTTTTTTTTTTTTTTTTTTTTTTTTTT MOQGAD      TELAPSE        9.03 TCPU       17.84
 TTTTTTTTTTTTTTTTTTTTTTTTTTTTTT SHELLXN     TELAPSE       14.32 TCPU      186.75
 TTTTTTTTTTTTTTTTTTTTTTTTTTTTTT MONMO3      TELAPSE       14.45 TCPU      190.97
 NUMERICALLY INTEGRATED DENSITY    197.9999515885
 TTTTTTTTTTTTTTTTTTTTTTTTTTTTTT NUMDFT      TELAPSE       14.93 TCPU      206.28
 CYC   0 ETOT(AU) -1.295954193266E+03 DETOT -1.30E+03 tst  0.00E+00 PX  1.00E+00
 TTTTTTTTTTTTTTTTTTTTTTTTTTTTTT DIIS        TELAPSE       14.97 TCPU      207.44
 TTTTTTTTTTTTTTTTTTTTTTTTTTTTTT FDIK        TELAPSE       15.44 TCPU      222.39
 INSULATING STATE
 TOP OF VALENCE BANDS -    BAND     99; K    1; EIG -3.1376479E-01 AU
 BOTTOM OF VIRTUAL BANDS - BAND    100; K    1; EIG -1.5637163E-01 AU
 DIRECT ENERGY BAND GAP:   4.2829 eV
 TTTTTTTTTTTTTTTTTTTTTTTTTTTTTT PDIG        TELAPSE       15.72 TCPU      228.53
 CHARGE NORMALIZATION FACTOR   1.00000000
 TOTAL ATOMIC CHARGES:
   4.1641964   4.1648056   4.1650703   4.1646610   4.1644398   4.1638509
   0.7851139   0.7852315   0.7851034   0.7852268   0.7851481   0.7853211
   0.7851364   0.7852840   0.7851062   0.7852898   0.7850659   0.7852254
   6.0431905   6.2653000   6.2652870   6.2650916   6.2650392   6.0424836
   6.0433896   6.2652022   6.2652952   6.2651151   6.2653148   6.0421785
   6.0435694   6.2648455   6.2654031   6.2649296   6.2655601   6.0420234
   8.6916981   8.6918133   8.6915797   8.6921312   8.6919817   8.6923013
 TTTTTTTTTTTTTTTTTTTTTTTTTTTTTT MOQGAD      TELAPSE       15.76 TCPU      228.57
 TTTTTTTTTTTTTTTTTTTTTTTTTTTTTT SHELLXN     TELAPSE       21.36 TCPU      406.95
 TTTTTTTTTTTTTTTTTTTTTTTTTTTTTT MONMO3      TELAPSE       21.49 TCPU      411.16
 NUMERICALLY INTEGRATED DENSITY    197.9999650443
 TTTTTTTTTTTTTTTTTTTTTTTTTTTTTT NUMDFT      TELAPSE       21.98 TCPU      426.75
 CYC   1 ETOT(AU) -1.288809544883E+03 DETOT  7.14E+00 tst  0.00E+00 PX  1.00E+00
 TTTTTTTTTTTTTTTTTTTTTTTTTTTTTT DIIS        TELAPSE       22.02 TCPU      428.18
 DIIS TEST: 0.11120E+01 AT SCF   CYCLE   1 - MIX   30 %
 TTTTTTTTTTTTTTTTTTTTTTTTTTTTTT FDIK        TELAPSE       22.50 TCPU      443.42
 INSULATING STATE
 TOP OF VALENCE BANDS -    BAND     99; K    1; EIG -2.2401415E-01 AU
 BOTTOM OF VIRTUAL BANDS - BAND    100; K    1; EIG -7.7776183E-02 AU
 DIRECT ENERGY BAND GAP:   3.9793 eV
 TTTTTTTTTTTTTTTTTTTTTTTTTTTTTT PDIG        TELAPSE       22.78 TCPU      449.56
 CHARGE NORMALIZATION FACTOR   1.00000000
 TOTAL ATOMIC CHARGES:
   4.7086315   4.7106603   4.7101727   4.7102850   4.7104830   4.7078632
   0.9126926   0.9127588   0.9151879   0.9152827   0.9123243   0.9122624
   0.9122691   0.9122013   0.9151647   0.9153235   0.9126141   0.9126386
   5.8642939   6.1246907   6.1250179   6.1354807   6.1368778   5.8669353
   5.8670221   6.1314657   6.1328569   6.1321710   6.1324089   5.8701004
   5.8641480   6.1355791   6.1368831   6.1249062   6.1249277   5.8672556
   8.3323921   8.3326632   8.3392339   8.3321245   8.3393977   8.3323520
 TTTTTTTTTTTTTTTTTTTTTTTTTTTTTT MOQGAD      TELAPSE       22.82 TCPU      449.60
 TTTTTTTTTTTTTTTTTTTTTTTTTTTTTT SHELLXN     TELAPSE       28.36 TCPU      625.87
 TTTTTTTTTTTTTTTTTTTTTTTTTTTTTT MONMO3      TELAPSE       28.49 TCPU      630.08
 NUMERICALLY INTEGRATED DENSITY    197.9999583488
 TTTTTTTTTTTTTTTTTTTTTTTTTTTTTT NUMDFT      TELAPSE       28.98 TCPU      645.64
 CYC   2 ETOT(AU) -1.289005455333E+03 DETOT -1.96E-01 tst  4.32E-03 PX  1.58E-01
 TTTTTTTTTTTTTTTTTTTTTTTTTTTTTT DIIS        TELAPSE       29.03 TCPU      647.29
 DIIS TEST: 0.46269E+00 AT SCF   CYCLE   2 - DIIS ACTIVE - HISTORY:     2 CYCLES
 TTTTTTTTTTTTTTTTTTTTTTTTTTTTTT FDIK        TELAPSE       29.51 TCPU      662.68
 INSULATING STATE
 TOP OF VALENCE BANDS -    BAND     99; K    1; EIG -2.3712411E-01 AU
 BOTTOM OF VIRTUAL BANDS - BAND    100; K    1; EIG -7.3477844E-02 AU
 DIRECT ENERGY BAND GAP:   4.4530 eV
 TTTTTTTTTTTTTTTTTTTTTTTTTTTTTT PDIG        TELAPSE       29.79 TCPU      668.81
 CHARGE NORMALIZATION FACTOR   1.00000000
 TOTAL ATOMIC CHARGES:
   4.5028308   4.5034736   4.5033033   4.5028029   4.5027772   4.5018461
   0.8891093   0.8892312   0.8911324   0.8912922   0.8891876   0.8894324
   0.8892659   0.8892729   0.8911070   0.8913490   0.8890779   0.8891255
   5.8889120   6.1595440   6.1594323   6.1591114   6.1582022   5.8881261
   5.8927130   6.1586093   6.1581097   6.1585597   6.1582173   5.8922070
   5.8893817   6.1591568   6.1582949   6.1594519   6.1595056   5.8877668
   8.5102142   8.5103864   8.5086104   8.5105653   8.5085323   8.5107724
 TTTTTTTTTTTTTTTTTTTTTTTTTTTTTT MOQGAD      TELAPSE       29.83 TCPU      668.85
 TTTTTTTTTTTTTTTTTTTTTTTTTTTTTT SHELLXN     TELAPSE       35.44 TCPU      847.32
 TTTTTTTTTTTTTTTTTTTTTTTTTTTTTT MONMO3      TELAPSE       35.57 TCPU      851.53
 NUMERICALLY INTEGRATED DENSITY    197.9999587388
 TTTTTTTTTTTTTTTTTTTTTTTTTTTTTT NUMDFT      TELAPSE       36.06 TCPU      867.26
 CYC   3 ETOT(AU) -1.289101576277E+03 DETOT -9.61E-02 tst  7.25E-04 PX  6.30E-02
 TTTTTTTTTTTTTTTTTTTTTTTTTTTTTT DIIS        TELAPSE       36.11 TCPU      868.88
 DIIS TEST: 0.12375E-01 AT SCF   CYCLE   3 - DIIS ACTIVE - HISTORY:     3 CYCLES
 TTTTTTTTTTTTTTTTTTTTTTTTTTTTTT FDIK        TELAPSE       36.59 TCPU      884.13
 INSULATING STATE
 TOP OF VALENCE BANDS -    BAND     99; K    1; EIG -2.4797089E-01 AU
 BOTTOM OF VIRTUAL BANDS - BAND    100; K    1; EIG -8.2404372E-02 AU
 DIRECT ENERGY BAND GAP:   4.5053 eV
 TTTTTTTTTTTTTTTTTTTTTTTTTTTTTT PDIG        TELAPSE       36.87 TCPU      890.27
 CHARGE NORMALIZATION FACTOR   1.00000000
 TOTAL ATOMIC CHARGES:
   4.5092353   4.5087325   4.5084490   4.5083873   4.5084342   4.5086457
   0.8722442   0.8723654   0.8736721   0.8736476   0.8714553   0.8714364
   0.8714201   0.8713742   0.8736848   0.8736727   0.8722214   0.8722409
   5.9371278   6.1604290   6.1606463   6.1672057   6.1692498   5.9401754
   5.9402682   6.1646136   6.1660403   6.1651444   6.1656357   5.9431005
   5.9370578   6.1671037   6.1694714   6.1603492   6.1607598   5.9403511
   8.4755191   8.4757001   8.4806185   8.4753997   8.4811375   8.4755760
 TTTTTTTTTTTTTTTTTTTTTTTTTTTTTT MOQGAD      TELAPSE       36.91 TCPU      890.31
 TTTTTTTTTTTTTTTTTTTTTTTTTTTTTT SHELLXN     TELAPSE       42.45 TCPU     1066.65
 TTTTTTTTTTTTTTTTTTTTTTTTTTTTTT MONMO3      TELAPSE       42.58 TCPU     1070.87
 NUMERICALLY INTEGRATED DENSITY    197.9999594880
 TTTTTTTTTTTTTTTTTTTTTTTTTTTTTT NUMDFT      TELAPSE       43.07 TCPU     1086.70
 CYC   4 ETOT(AU) -1.289104139552E+03 DETOT -2.56E-03 tst  2.70E-05 PX  1.28E-02
 TTTTTTTTTTTTTTTTTTTTTTTTTTTTTT DIIS        TELAPSE       43.13 TCPU     1088.61
 DIIS TEST: 0.40830E-02 AT SCF   CYCLE   4 - DIIS ACTIVE - HISTORY:     4 CYCLES
 TTTTTTTTTTTTTTTTTTTTTTTTTTTTTT FDIK        TELAPSE       43.62 TCPU     1104.00
 INSULATING STATE
 TOP OF VALENCE BANDS -    BAND     99; K    1; EIG -2.4586414E-01 AU
 BOTTOM OF VIRTUAL BANDS - BAND    100; K    1; EIG -8.1770664E-02 AU
 DIRECT ENERGY BAND GAP:   4.4652 eV
 TTTTTTTTTTTTTTTTTTTTTTTTTTTTTT PDIG        TELAPSE       43.90 TCPU     1110.13
 CHARGE NORMALIZATION FACTOR   1.00000000
 TOTAL ATOMIC CHARGES:
   4.5101590   4.5109633   4.5107017   4.5103811   4.5104057   4.5092197
   0.8753925   0.8755027   0.8771767   0.8773830   0.8750508   0.8752508
   0.8750852   0.8751201   0.8771517   0.8774403   0.8753422   0.8754003
   5.9195326   6.1628948   6.1627671   6.1673352   6.1664335   5.9184434
   5.9223040   6.1653752   6.1650948   6.1654850   6.1650988   5.9217056
   5.9198541   6.1674005   6.1664967   6.1628586   6.1628318   5.9182384
   8.4872454   8.4874342   8.4885478   8.4874351   8.4884150   8.4876455
 TTTTTTTTTTTTTTTTTTTTTTTTTTTTTT MOQGAD      TELAPSE       43.94 TCPU     1110.18
 TTTTTTTTTTTTTTTTTTTTTTTTTTTTTT SHELLXN     TELAPSE       49.51 TCPU     1287.76
 TTTTTTTTTTTTTTTTTTTTTTTTTTTTTT MONMO3      TELAPSE       49.65 TCPU     1292.03
 NUMERICALLY INTEGRATED DENSITY    197.9999593545
 TTTTTTTTTTTTTTTTTTTTTTTTTTTTTT NUMDFT      TELAPSE       50.14 TCPU     1307.97
 CYC   5 ETOT(AU) -1.289105070918E+03 DETOT -9.31E-04 tst  6.18E-06 PX  6.60E-03
 TTTTTTTTTTTTTTTTTTTTTTTTTTTTTT DIIS        TELAPSE       50.21 TCPU     1309.97
 DIIS TEST: 0.73674E-04 AT SCF   CYCLE   5 - DIIS ACTIVE - HISTORY:     5 CYCLES
 TTTTTTTTTTTTTTTTTTTTTTTTTTTTTT FDIK        TELAPSE       50.68 TCPU     1325.20
 INSULATING STATE
 TOP OF VALENCE BANDS -    BAND     99; K    1; EIG -2.4561562E-01 AU
 BOTTOM OF VIRTUAL BANDS - BAND    100; K    1; EIG -8.1175458E-02 AU
 DIRECT ENERGY BAND GAP:   4.4746 eV
 TTTTTTTTTTTTTTTTTTTTTTTTTTTTTT PDIG        TELAPSE       50.97 TCPU     1331.34
 CHARGE NORMALIZATION FACTOR   1.00000000
 TOTAL ATOMIC CHARGES:
   4.5102116   4.5103910   4.5101362   4.5100048   4.5100395   4.5095632
   0.8763785   0.8764859   0.8782539   0.8781851   0.8761207   0.8761082
   0.8761074   0.8760281   0.8782612   0.8782103   0.8763505   0.8763646
   5.9168920   6.1618809   6.1622898   6.1652946   6.1677628   5.9209101
   5.9205205   6.1638433   6.1653257   6.1642638   6.1650053   5.9240057
   5.9169705   6.1651924   6.1679984   6.1617989   6.1623889   5.9209438
   8.4861997   8.4863666   8.4888780   8.4861914   8.4895124   8.4863637
 TTTTTTTTTTTTTTTTTTTTTTTTTTTTTT MOQGAD      TELAPSE       51.01 TCPU     1331.38
 TTTTTTTTTTTTTTTTTTTTTTTTTTTTTT SHELLXN     TELAPSE       56.54 TCPU     1507.47
 TTTTTTTTTTTTTTTTTTTTTTTTTTTTTT MONMO3      TELAPSE       56.67 TCPU     1511.80
 NUMERICALLY INTEGRATED DENSITY    197.9999593386
 TTTTTTTTTTTTTTTTTTTTTTTTTTTTTT NUMDFT      TELAPSE       57.17 TCPU     1527.63
 CYC   6 ETOT(AU) -1.289105083918E+03 DETOT -1.30E-05 tst  3.78E-07 PX  8.39E-04
 TTTTTTTTTTTTTTTTTTTTTTTTTTTTTT DIIS        TELAPSE       57.24 TCPU     1530.01
 DIIS TEST: 0.32210E-04 AT SCF   CYCLE   6 - DIIS ACTIVE - HISTORY:     6 CYCLES
 TTTTTTTTTTTTTTTTTTTTTTTTTTTTTT FDIK        TELAPSE       57.72 TCPU     1545.45
 INSULATING STATE
 TOP OF VALENCE BANDS -    BAND     99; K    1; EIG -2.4563161E-01 AU
 BOTTOM OF VIRTUAL BANDS - BAND    100; K    1; EIG -8.1222854E-02 AU
 DIRECT ENERGY BAND GAP:   4.4738 eV
 TTTTTTTTTTTTTTTTTTTTTTTTTTTTTT PDIG        TELAPSE       58.01 TCPU     1551.59
 CHARGE NORMALIZATION FACTOR   1.00000000
 TOTAL ATOMIC CHARGES:
   4.5102487   4.5106794   4.5104259   4.5101331   4.5101588   4.5093803
   0.8763523   0.8764771   0.8781152   0.8782684   0.8760037   0.8761564
   0.8760225   0.8760436   0.8781012   0.8783143   0.8763131   0.8763655
   5.9192819   6.1620681   6.1619564   6.1664619   6.1661520   5.9190179
   5.9223062   6.1644576   6.1645246   6.1646740   6.1644149   5.9224091
   5.9195010   6.1664707   6.1662741   6.1620036   6.1620445   5.9189114
   8.4864294   8.4866156   8.4885611   8.4865607   8.4885813   8.4867626
 TTTTTTTTTTTTTTTTTTTTTTTTTTTTTT MOQGAD      TELAPSE       58.05 TCPU     1551.63
 TTTTTTTTTTTTTTTTTTTTTTTTTTTTTT SHELLXN     TELAPSE       63.65 TCPU     1729.94
 TTTTTTTTTTTTTTTTTTTTTTTTTTTTTT MONMO3      TELAPSE       63.78 TCPU     1734.28
 NUMERICALLY INTEGRATED DENSITY    197.9999593335
 TTTTTTTTTTTTTTTTTTTTTTTTTTTTTT NUMDFT      TELAPSE       64.28 TCPU     1750.16
 CYC   7 ETOT(AU) -1.289105091310E+03 DETOT -7.39E-06 tst  2.54E-07 PX  6.05E-04
 TTTTTTTTTTTTTTTTTTTTTTTTTTTTTT DIIS        TELAPSE       64.35 TCPU     1752.50
 DIIS TEST: 0.30280E-05 AT SCF   CYCLE   7 - DIIS ACTIVE - HISTORY:     7 CYCLES
 TTTTTTTTTTTTTTTTTTTTTTTTTTTTTT FDIK        TELAPSE       64.83 TCPU     1767.85
 INSULATING STATE
 TOP OF VALENCE BANDS -    BAND     99; K    1; EIG -2.4564170E-01 AU
 BOTTOM OF VIRTUAL BANDS - BAND    100; K    1; EIG -8.1263727E-02 AU
 DIRECT ENERGY BAND GAP:   4.4730 eV
 TTTTTTTTTTTTTTTTTTTTTTTTTTTTTT PDIG        TELAPSE       65.12 TCPU     1773.99
 CHARGE NORMALIZATION FACTOR   1.00000000
 TOTAL ATOMIC CHARGES:
   4.5102674   4.5107762   4.5105197   4.5102718   4.5102989   4.5094445
   0.8763172   0.8764257   0.8781012   0.8781970   0.8759728   0.8760911
   0.8759913   0.8759781   0.8780873   0.8782428   0.8762762   0.8763155
   5.9187033   6.1619457   6.1620364   6.1660770   6.1664796   5.9196017
   5.9218105   6.1642935   6.1646930   6.1645153   6.1645798   5.9228043
   5.9189342   6.1660846   6.1666023   6.1618932   6.1621135   5.9194846
   8.4865442   8.4867266   8.4884180   8.4866556   8.4885758   8.4868530
 TTTTTTTTTTTTTTTTTTTTTTTTTTTTTT MOQGAD      TELAPSE       65.16 TCPU     1774.03
 TTTTTTTTTTTTTTTTTTTTTTTTTTTTTT SHELLXN     TELAPSE       70.69 TCPU     1950.41
 TTTTTTTTTTTTTTTTTTTTTTTTTTTTTT MONMO3      TELAPSE       70.83 TCPU     1954.68
 NUMERICALLY INTEGRATED DENSITY    197.9999593315
 TTTTTTTTTTTTTTTTTTTTTTTTTTTTTT NUMDFT      TELAPSE       71.32 TCPU     1970.27
 CYC   8 ETOT(AU) -1.289105091800E+03 DETOT -4.90E-07 tst  1.66E-08 PX  1.55E-04
 TTTTTTTTTTTTTTTTTTTTTTTTTTTTTT DIIS        TELAPSE       71.40 TCPU     1972.99
 DIIS TEST: 0.14269E-06 AT SCF   CYCLE   8 - DIIS ACTIVE - HISTORY:     8 CYCLES
 TTTTTTTTTTTTTTTTTTTTTTTTTTTTTT FDIK        TELAPSE       71.88 TCPU     1988.34
 INSULATING STATE
 TOP OF VALENCE BANDS -    BAND     99; K    1; EIG -2.4564162E-01 AU
 BOTTOM OF VIRTUAL BANDS - BAND    100; K    1; EIG -8.1258188E-02 AU
 DIRECT ENERGY BAND GAP:   4.4731 eV
 TTTTTTTTTTTTTTTTTTTTTTTTTTTTTT PDIG        TELAPSE       72.16 TCPU     1994.47
 CHARGE NORMALIZATION FACTOR   1.00000000
 TOTAL ATOMIC CHARGES:
   4.5103064   4.5107444   4.5104875   4.5102342   4.5102629   4.5094839
   0.8762992   0.8764176   0.8780890   0.8781914   0.8759673   0.8760831
   0.8759796   0.8759766   0.8780794   0.8782332   0.8762612   0.8763048
   5.9187135   6.1620131   6.1620326   6.1661763   6.1665147   5.9194521
   5.9218451   6.1643289   6.1647188   6.1645861   6.1645684   5.9227276
   5.9189103   6.1661626   6.1666593   6.1619495   6.1621193   5.9193691
   8.4864615   8.4866424   8.4885818   8.4865638   8.4887428   8.4867587
 TTTTTTTTTTTTTTTTTTTTTTTTTTTTTT MOQGAD      TELAPSE       72.21 TCPU     1994.52
 TTTTTTTTTTTTTTTTTTTTTTTTTTTTTT SHELLXN     TELAPSE       77.74 TCPU     2170.96
 +++ ENERGIES IN A.U. +++
 ::: EXT EL-POLE                                  -1.1185049615886E+03
 ::: EXT EL-SPHEROPOLE                             1.2698619161698E+01
 ::: BIELET ZONE E-E                               1.9912259832815E+03
 ::: TOTAL E-E                                     8.8541964085462E+02
 ::: TOTAL E-N + N-E                              -3.6034010221304E+03
 ::: TOTAL N-N                                     2.8265162561029E+02
 ::: KINETIC ENERGY                                1.2799433896875E+03
 ::: PSEUDO TOTAL   ENERGY                        -1.1553863659779E+03
 ::: VIRIAL COEFFICIENT                            1.0511458554719E+00
 TTTTTTTTTTTTTTTTTTTTTTTTTTTTTT MONMO3      TELAPSE       77.91 TCPU     2176.26
 NUMERICALLY INTEGRATED DENSITY    197.9999593316
 EXCHANGE ENERGY: -0.126029548109E+03  CORRELATION ENERGY: -0.768917780916E+01
 TTTTTTTTTTTTTTTTTTTTTTTTTTTTTT NUMDFT      TELAPSE       78.40 TCPU     2191.85
 CYC   9 ETOT(AU) -1.289105091896E+03 DETOT -9.63E-08 tst  4.96E-10 PX  1.55E-04

 == SCF ENDED - CONVERGENCE ON ENERGY      E(AU) -1.2891050918965E+03 CYCLES   9


 ENERGY EXPRESSION=HARTREE+FOCK EXCH*0.00000+(HSESOL     EXCH)*1.00000+PBESOL     CORR


 TOTAL ENERGY(DFT)(AU)(  9) -1.2891050918965E+03 DE-9.6E-08 tester 5.0E-10
 TTTTTTTTTTTTTTTTTTTTTTTTTTTTTT EDFT        TELAPSE       78.40 TCPU     2191.86
 
 INFORMATION **** DFTD3 ENERGY **** CALCULATE DFTD3 ENERGY

           DFT-D V3(BJ)
 DF                                         hsesol3c  
 parameters
 s6       :    1.0000
 s8       :    0.0000
 a1       :    0.5196
 a2       :    4.9385
 k1 k3    :   16.0000   -4.0000
 Cutoff   :   50.2022
 CN-Cutoff:   21.1671
 ABC-Cutoff:   21.1671
 
 Edisp /kcal,au:   -22.4968 -0.03585089

 E6    /kcal :   -23.8016
 E8    /kcal :     0.0000
 E6(ABC) "   :   1.304850
 
 INFORMATION **** DFTD3 ENERGY **** NORMAL TERMINATION OF DFTD3 MODULE

 GCP ENERGY CALCULATION
  level        hsesol3c            basis:hsesol3c
  Nbf            474
  Atoms           42

  Parameters: 
  sigma     1.0000
  eta       1.4281
  alpha     0.2936
  beta      1.9467

  dmp_scal      4.0000
  dmp_exp       6.0000
 cutoffs: 
   distance [bohr] 60.0
   noise    [a.u.] 2.2E-16
 SR-damping   T
 ** gCP correction **
  Egcp:        0.0829197516 / (a.u.) ||      52.0329 / (kcal/mol)
 INFORMATION **** GCP **** NORMAL TERMINATION OF GCP MODULE

 *******************************************************************************

 DFT-D3-GCP DISPERSION AND COUNTERPOISE CORRECTION

 D3 DISPERSION ENERGY (AU)      -3.5850892453491E-02
 GCP ENERGY (AU)                 8.2919751643763E-02
 TOTAL ENERGY + DISP + GCP (AU) -1.2890580230373E+03

 *******************************************************************************

 EIGENVECTORS IN FORTRAN UNIT 10
 TTTTTTTTTTTTTTTTTTTTTTTTTTTTTT END         TELAPSE       79.38 TCPU     2198.75
 EEEEEEEEEE TERMINATION  DATE 19 02 2026 TIME 19:22:42.6
