 Default number of threads is:           32

         
 *******************************************************************************
 *                                                                             *
 *                               CRYSTAL23                                     *
 *                      public : 1.0.1 - October 2022                          *
 *                       HTTP://WWW.CRYSTAL.UNITO.IT                           *
 *                                                                             *
 *                              MAIN AUTHORS                                   *
 *                                                                             *
 *  R. DOVESI(1,11), V.R. SAUNDERS(2), C. ROETTI(1,11), R. ORLANDO(1,11),      *
 *  C.M. ZICOVICH-WILSON(1,3), F. PASCALE(4), B. CIVALLERI(1,11),              *
 *  K. DOLL(5), N.M. HARRISON(6), I.J. BUSH(7), Ph. D'ARCO(8),                 *
 *  M. LLUNELL(9), M. CAUSA'(10), Y. NOEL(8), L. MASCHIO(1,11), A. ERBA(1,11)  *
 *  M. RE'RAT(14), S. CASASSA(1,11), B.G. SEARLE(2), J.K. DESMARAIS(1)         *
 *                                                                             *
 *        CONTRIBUTIONS TO THE CODE HAVE ALSO BEEN GIVEN BY                    *
 *                                                                             *
 *  M. FERRABONE(1,11), M. DE LA PIERRE(1,11), M. FERRERO(1,11),               *
 *  J. BAIMA(1,11), E. ALBANESE(1,11), M.F. PEINTINGER(12), R. BAST(13),       *
 *  B. KIRTMAN(15), V. LACIVITA(1,11), R. DEMICHELIS(1,16)                     *
 *  G. BRANDEBURG(17), S. SALUSTRO(1,11), G. SANSONE(1,11)                     *
 *  M.T. RUGGIERO(18), L.E. DAGA(1), L. DONA'(1), A. COSSARD(1)                *
 *                                                                             *
 * (1) THEORETICAL CHEMISTRY GROUP - UNIVERSITA' DI TORINO - TORINO (ITALY)    *
 * (2) SCIENTIFIC COMPUTING DEPARTMENT - STFC DARESBURY (UK)                   *
 * (3) UNIVERSIDAD AUTONOMA DEL ESTADO DE MORELOS - CUERNAVACA (MEXICO)        *
 * (4) UNIVERSITE' DE LORRAINE - NANCY (FRANCE)                                *
 * (5) UNIVERSITAET STUTTGART- STUTTGART (GERMANY)                             *
 * (6) IMPERIAL COLLEGE - LONDON (UK)                                          *
 * (7) SCIENTIFIC COMPUTING DEPARTMENT - STFC RAL (UK)                         *
 * (8) UPMC - SORBONNE UNIVERSITES - PARIS (FRANCE)                            *
 * (9) UNIVERSIDAD DE BARCELONA - BARCELONA (SPAIN)                            *
 *(10) UNIVERSITA' DI NAPOLI "FEDERICO II" - NAPOLI (ITALY)                    *
 *(11) NIS - NANOSTRUCTURED INTERFACES AND SURFACES - TORINO (ITALY)           *
 *(12) MPI FUER CHEMISCHE ENERGIEKONVERSION - MUELHEIM AN DER RUHR (GERMANY)   *
 *(13) UNIVERSITY OF TROMSO - TROMSO (NORWAY)                                  *
 *(14) UNIVERSITE' DE PAU ET DES PAYS DE L'ADOUR - PAU (FRANCE)                *
 *(15) UNIVERSITY OF CALIFORNIA SANTA BARBARA - SANTA BARBARA (USA)            *
 *(16) CURTIN UNIVERSITY - PERTH (AUSTRALIA)                                   *
 *(17) UNIVERSITY COLLEGE LONDON - LONDON (UK)                                 *
 *(18) UNIVERSITY OF VERMONT - BURLINGTON (USA)                                *
 *                                                                             *
 *******************************************************************************
 EEEEEEEEEE STARTING  DATE 19 02 2026 TIME 20:03:20.7
 cof-1_z34_L020_serr                                                             

 CRYSTAL CALCULATION
 (INPUT ACCORDING TO THE INTERNATIONAL TABLES FOR X-RAY CRYSTALLOGRAPHY)
 CRYSTAL FAMILY                       :  TRICLINIC   
 CRYSTAL CLASS  (GROTH - 1921)        :  TRICLINIC PEDIAL                     

 SPACE GROUP (NONCENTROSYMMETRIC)     :  P 1             

 LATTICE PARAMETERS  (ANGSTROMS AND DEGREES) - CONVENTIONAL CELL
        A           B           C        ALPHA        BETA       GAMMA
    15.02361    15.02392     6.80000    90.00032    89.99994   119.99596


 NUMBER OF IRREDUCIBLE ATOMS IN THE CONVENTIONAL CELL:   84

 INPUT COORDINATES

 ATOM AT. N.              COORDINATES
   1   5     6.136805400000E-01  2.273182200000E-01  2.507024600000E-01
   2   5     6.905271000000E-01  3.810269500000E-01  7.507024600000E-01
   3   5     7.727362000000E-01  3.863778800000E-01  2.507024700000E-01
   4   5     8.495827600000E-01  5.400866100000E-01  7.507024700000E-01
   5   5     6.136762700000E-01  3.863606700000E-01  2.492255300000E-01
   6   5     6.905228300000E-01  5.400694000000E-01  7.492255200000E-01
   7   5     2.272552500000E-01  6.136332200000E-01  2.507024600000E-01
   8   5     3.041018100000E-01  7.673419500000E-01  7.507024600000E-01
   9   5     3.863632200000E-01  6.136124500000E-01  2.507024600000E-01
  10   5     4.632097800000E-01  7.673211800000E-01  7.507024600000E-01
  11   5     3.863435000000E-01  7.727516500000E-01  2.492255300000E-01
  12   5     4.631900600000E-01  9.264603800000E-01  7.492255300000E-01
  13   1     9.030436200000E-01  3.089300500000E-01  2.476404700000E-01
  14   1     9.798901800000E-01  4.626387800000E-01  7.476404800000E-01
  15   1     9.663453000000E-02  6.910534400000E-01  2.471722500000E-01
  16   1     1.734810900000E-01  8.447621700000E-01  7.471722500000E-01
  17   1     9.029714200000E-01  5.940724300000E-01  2.471001800000E-01
  18   1     9.798179800000E-01  7.477811600000E-01  7.471001800000E-01
  19   1     9.673618000000E-02  4.056849400000E-01  2.471181600000E-01
  20   1     1.735827400000E-01  5.593936700000E-01  7.471181600000E-01
  21   1     6.910324000000E-01  9.700412000000E-02  2.523595500000E-01
  22   1     7.678789600000E-01  2.507128500000E-01  7.523595500000E-01
  23   1     3.089297200000E-01  9.034373100000E-01  2.528278100000E-01
  24   1     3.857762800000E-01  5.714604000000E-02  7.528278100000E-01
  25   1     4.058699900000E-01  9.704998000000E-02  2.528999100000E-01
  26   1     4.827165500000E-01  2.507587100000E-01  7.528999100000E-01
  27   1     5.943122100000E-01  9.033473200000E-01  2.528818200000E-01
  28   1     6.711587700000E-01  5.705605000000E-02  7.528818200000E-01
  29   1     6.910727400000E-01  5.940542100000E-01  2.476405000000E-01
  30   1     7.679193000000E-01  7.477629400000E-01  7.476405000000E-01
  31   1     3.089618300000E-01  4.056093300000E-01  2.471722200000E-01
  32   1     3.858083900000E-01  5.593180600000E-01  7.471722100000E-01
  33   1     4.058405700000E-01  3.088232500000E-01  2.471001300000E-01
  34   1     4.826871300000E-01  4.625319800000E-01  7.471001300000E-01
  35   1     5.942908800000E-01  6.909579300000E-01  2.471182100000E-01
  36   1     6.711374400000E-01  8.446666600000E-01  7.471182100000E-01
  37   6     8.918903100000E-01  4.459436900000E-01  2.491714900000E-01
  38   6     9.687368700000E-01  5.996524200000E-01  7.491714900000E-01
  39   6     9.464891100000E-01  3.927856300000E-01  2.477125300000E-01
  40   6     2.333567000000E-02  5.464943600000E-01  7.477125300000E-01
  41   6     5.338812000000E-02  6.071853000000E-01  2.475864900000E-01
  42   6     1.302346800000E-01  7.608940300000E-01  7.475864900000E-01
  43   6     9.464521100000E-01  5.536921900000E-01  2.479647300000E-01
  44   6     2.329867000000E-02  7.074009200000E-01  7.479647300000E-01
  45   6     5.342634000000E-02  4.462499700000E-01  2.469920800000E-01
  46   6     1.302729000000E-01  5.999587000000E-01  7.469920700000E-01
  47   6     1.080358900000E-01  5.540356300000E-01  2.479827300000E-01
  48   6     1.848824500000E-01  7.077443600000E-01  7.479827300000E-01
  49   6     5.540394200000E-01  1.081684600000E-01  2.508285600000E-01
  50   6     6.308859800000E-01  2.618771900000E-01  7.508285600000E-01
  51   6     6.071778500000E-01  5.355594000000E-02  2.522874800000E-01
  52   6     6.840244100000E-01  2.072646700000E-01  7.522874800000E-01
  53   6     3.927986700000E-01  9.466631600000E-01  2.524135600000E-01
  54   6     4.696452300000E-01  1.003718900000E-01  7.524135600000E-01
  55   6     4.462875800000E-01  5.360286000000E-02  2.520353400000E-01
  56   6     5.231341400000E-01  2.073115900000E-01  7.520353300000E-01
  57   6     5.537168500000E-01  9.466235600000E-01  2.530079300000E-01
  58   6     6.305634100000E-01  1.003322900000E-01  7.530079300000E-01
  59   6     4.459279100000E-01  8.919920600000E-01  2.520173100000E-01
  60   6     5.227744700000E-01  4.570079000000E-02  7.520173000000E-01
  61   6     5.540448700000E-01  4.458745500000E-01  2.491714900000E-01
  62   6     6.308914300000E-01  5.995832800000E-01  7.491714800000E-01
  63   6     6.072102200000E-01  5.536257800000E-01  2.477125600000E-01
  64   6     6.840567800000E-01  7.073345100000E-01  7.477125600000E-01
  65   6     3.928233700000E-01  4.461720300000E-01  2.475864700000E-01
  66   6     4.696699300000E-01  5.998807600000E-01  7.475864700000E-01
  67   6     4.462872600000E-01  3.926899900000E-01  2.479647000000E-01
  68   6     5.231338200000E-01  5.463987200000E-01  7.479647000000E-01
  69   6     5.537429600000E-01  6.070980000000E-01  2.469921100000E-01
  70   6     6.305895200000E-01  7.608067300000E-01  7.469921100000E-01
  71   6     4.459599800000E-01  5.539582300000E-01  2.479827300000E-01
  72   6     5.228065400000E-01  7.076669600000E-01  7.479827300000E-01
  73   8     5.607366800000E-01  2.803706300000E-01  2.496217700000E-01
  74   8     6.375832400000E-01  4.340793600000E-01  7.496217700000E-01
  75   8     7.196817000000E-01  2.803783300000E-01  2.527377600000E-01
  76   8     7.965282600000E-01  4.340870600000E-01  7.527377600000E-01
  77   8     7.196794200000E-01  4.393234600000E-01  2.480367700000E-01
  78   8     7.965259800000E-01  5.930321900000E-01  7.480367700000E-01
  79   8     2.803245100000E-01  7.196511100000E-01  2.496217900000E-01
  80   8     3.571710700000E-01  8.733598400000E-01  7.496217900000E-01
  81   8     2.803439700000E-01  5.606956100000E-01  2.527377600000E-01
  82   8     3.571905300000E-01  7.144043400000E-01  7.527377600000E-01
  83   8     4.392638400000E-01  7.196354200000E-01  2.480367600000E-01
  84   8     5.161104000000E-01  8.733441500000E-01  7.480367600000E-01

 *******************************************************************************

 << INFORMATION >>: FROM NOW ON, ALL COORDINATES REFER TO THE PRIMITIVE CELL

 *******************************************************************************

 LATTICE PARAMETERS  (ANGSTROMS AND DEGREES) - PRIMITIVE CELL
       A          B          C        ALPHA      BETA     GAMMA        VOLUME
   15.02361   15.02392    6.80000    90.00032  89.99994 119.99596   1329.274527

 COORDINATES OF THE EQUIVALENT ATOMS (FRACTIONAL UNITS)

 N. ATOM EQUIV AT. N.          X                  Y                  Z

   1   1   1    5 B    -3.86319460000E-01  2.27318220000E-01  2.50702460000E-01

   2   2   1    5 B    -3.09472900000E-01  3.81026950000E-01 -2.49297540000E-01

   3   3   1    5 B    -2.27263800000E-01  3.86377880000E-01  2.50702470000E-01

   4   4   1    5 B    -1.50417240000E-01 -4.59913390000E-01 -2.49297530000E-01

   5   5   1    5 B    -3.86323730000E-01  3.86360670000E-01  2.49225530000E-01

   6   6   1    5 B    -3.09477170000E-01 -4.59930600000E-01 -2.50774480000E-01

   7   7   1    5 B     2.27255250000E-01 -3.86366780000E-01  2.50702460000E-01

   8   8   1    5 B     3.04101810000E-01 -2.32658050000E-01 -2.49297540000E-01

   9   9   1    5 B     3.86363220000E-01 -3.86387550000E-01  2.50702460000E-01

  10  10   1    5 B     4.63209780000E-01 -2.32678820000E-01 -2.49297540000E-01

  11  11   1    5 B     3.86343500000E-01 -2.27248350000E-01  2.49225530000E-01

  12  12   1    5 B     4.63190060000E-01 -7.35396200000E-02 -2.50774470000E-01

  13  13   1    1 H    -9.69563800000E-02  3.08930050000E-01  2.47640470000E-01

  14  14   1    1 H    -2.01098200000E-02  4.62638780000E-01 -2.52359520000E-01

  15  15   1    1 H     9.66345300000E-02 -3.08946560000E-01  2.47172250000E-01

  16  16   1    1 H     1.73481090000E-01 -1.55237830000E-01 -2.52827750000E-01

  17  17   1    1 H    -9.70285800000E-02 -4.05927570000E-01  2.47100180000E-01

  18  18   1    1 H    -2.01820200000E-02 -2.52218840000E-01 -2.52899820000E-01

  19  19   1    1 H     9.67361800000E-02  4.05684940000E-01  2.47118160000E-01

  20  20   1    1 H     1.73582740000E-01 -4.40606330000E-01 -2.52881840000E-01

  21  21   1    1 H    -3.08967600000E-01  9.70041200000E-02  2.52359550000E-01

  22  22   1    1 H    -2.32121040000E-01  2.50712850000E-01 -2.47640450000E-01

  23  23   1    1 H     3.08929720000E-01 -9.65626900000E-02  2.52827810000E-01

  24  24   1    1 H     3.85776280000E-01  5.71460400000E-02 -2.47172190000E-01

  25  25   1    1 H     4.05869990000E-01  9.70499800000E-02  2.52899910000E-01

  26  26   1    1 H     4.82716550000E-01  2.50758710000E-01 -2.47100090000E-01

  27  27   1    1 H    -4.05687790000E-01 -9.66526800000E-02  2.52881820000E-01

  28  28   1    1 H    -3.28841230000E-01  5.70560500000E-02 -2.47118180000E-01

  29  29   1    1 H    -3.08927260000E-01 -4.05945790000E-01  2.47640500000E-01

  30  30   1    1 H    -2.32080700000E-01 -2.52237060000E-01 -2.52359500000E-01

  31  31   1    1 H     3.08961830000E-01  4.05609330000E-01  2.47172220000E-01

  32  32   1    1 H     3.85808390000E-01 -4.40681940000E-01 -2.52827790000E-01

  33  33   1    1 H     4.05840570000E-01  3.08823250000E-01  2.47100130000E-01

  34  34   1    1 H     4.82687130000E-01  4.62531980000E-01 -2.52899870000E-01

  35  35   1    1 H    -4.05709120000E-01 -3.09042070000E-01  2.47118210000E-01

  36  36   1    1 H    -3.28862560000E-01 -1.55333340000E-01 -2.52881790000E-01

  37  37   1    6 C    -1.08109690000E-01  4.45943690000E-01  2.49171490000E-01

  38  38   1    6 C    -3.12631300000E-02 -4.00347580000E-01 -2.50828510000E-01

  39  39   1    6 C    -5.35108900000E-02  3.92785630000E-01  2.47712530000E-01

  40  40   1    6 C     2.33356700000E-02 -4.53505640000E-01 -2.52287470000E-01

  41  41   1    6 C     5.33881200000E-02 -3.92814700000E-01  2.47586490000E-01

  42  42   1    6 C     1.30234680000E-01 -2.39105970000E-01 -2.52413510000E-01

  43  43   1    6 C    -5.35478900000E-02 -4.46307810000E-01  2.47964730000E-01

  44  44   1    6 C     2.32986700000E-02 -2.92599080000E-01 -2.52035270000E-01

  45  45   1    6 C     5.34263400000E-02  4.46249970000E-01  2.46992080000E-01

  46  46   1    6 C     1.30272900000E-01 -4.00041300000E-01 -2.53007930000E-01

  47  47   1    6 C     1.08035890000E-01 -4.45964370000E-01  2.47982730000E-01

  48  48   1    6 C     1.84882450000E-01 -2.92255640000E-01 -2.52017270000E-01

  49  49   1    6 C    -4.45960580000E-01  1.08168460000E-01  2.50828560000E-01

  50  50   1    6 C    -3.69114020000E-01  2.61877190000E-01 -2.49171440000E-01

  51  51   1    6 C    -3.92822150000E-01  5.35559400000E-02  2.52287480000E-01

  52  52   1    6 C    -3.15975590000E-01  2.07264670000E-01 -2.47712520000E-01

  53  53   1    6 C     3.92798670000E-01 -5.33368400000E-02  2.52413560000E-01

  54  54   1    6 C     4.69645230000E-01  1.00371890000E-01 -2.47586440000E-01

  55  55   1    6 C     4.46287580000E-01  5.36028600000E-02  2.52035340000E-01

  56  56   1    6 C    -4.76865860000E-01  2.07311590000E-01 -2.47964670000E-01

  57  57   1    6 C    -4.46283150000E-01 -5.33764400000E-02  2.53007930000E-01

  58  58   1    6 C    -3.69436590000E-01  1.00332290000E-01 -2.46992070000E-01

  59  59   1    6 C     4.45927910000E-01 -1.08007940000E-01  2.52017310000E-01

  60  60   1    6 C    -4.77225530000E-01  4.57007900000E-02 -2.47982700000E-01

  61  61   1    6 C    -4.45955130000E-01  4.45874550000E-01  2.49171490000E-01

  62  62   1    6 C    -3.69108570000E-01 -4.00416720000E-01 -2.50828520000E-01

  63  63   1    6 C    -3.92789780000E-01 -4.46374220000E-01  2.47712560000E-01

  64  64   1    6 C    -3.15943220000E-01 -2.92665490000E-01 -2.52287440000E-01

  65  65   1    6 C     3.92823370000E-01  4.46172030000E-01  2.47586470000E-01

  66  66   1    6 C     4.69669930000E-01 -4.00119240000E-01 -2.52413530000E-01

  67  67   1    6 C     4.46287260000E-01  3.92689990000E-01  2.47964700000E-01

  68  68   1    6 C    -4.76866180000E-01 -4.53601280000E-01 -2.52035300000E-01

  69  69   1    6 C    -4.46257040000E-01 -3.92902000000E-01  2.46992110000E-01

  70  70   1    6 C    -3.69410480000E-01 -2.39193270000E-01 -2.53007890000E-01

  71  71   1    6 C     4.45959980000E-01 -4.46041770000E-01  2.47982730000E-01

  72  72   1    6 C    -4.77193460000E-01 -2.92333040000E-01 -2.52017270000E-01

  73  73   1    8 O    -4.39263320000E-01  2.80370630000E-01  2.49621770000E-01

  74  74   1    8 O    -3.62416760000E-01  4.34079360000E-01 -2.50378230000E-01

  75  75   1    8 O    -2.80318300000E-01  2.80378330000E-01  2.52737760000E-01

  76  76   1    8 O    -2.03471740000E-01  4.34087060000E-01 -2.47262240000E-01

  77  77   1    8 O    -2.80320580000E-01  4.39323460000E-01  2.48036770000E-01

  78  78   1    8 O    -2.03474020000E-01 -4.06967810000E-01 -2.51963230000E-01

  79  79   1    8 O     2.80324510000E-01 -2.80348890000E-01  2.49621790000E-01

  80  80   1    8 O     3.57171070000E-01 -1.26640160000E-01 -2.50378210000E-01

  81  81   1    8 O     2.80343970000E-01 -4.39304390000E-01  2.52737760000E-01

  82  82   1    8 O     3.57190530000E-01 -2.85595660000E-01 -2.47262240000E-01

  83  83   1    8 O     4.39263840000E-01 -2.80364580000E-01  2.48036760000E-01

  84  84   1    8 O    -4.83889600000E-01 -1.26655850000E-01 -2.51963240000E-01

 NUMBER OF SYMMETRY OPERATORS         :    1
 *******************************************************************************
 * GEOMETRY EDITING - INPUT COORDINATES ARE GIVEN IN ANGSTROM         
 *******************************************************************************

 GCALCO - MAX INDICES DIRECT LATTICE VECTOR    11    11    22
 NO.OF VECTORS CREATED 6999 STARS 3500 RMAX   247.51041 BOHR

 GEOMETRY FOR WAVE FUNCTION - DIMENSIONALITY OF THE SYSTEM    3
 (NON PERIODIC DIRECTION: LATTICE PARAMETER FORMALLY SET TO 500)
 *******************************************************************************
 LATTICE PARAMETERS (ANGSTROMS AND DEGREES) - BOHR = 0.5291772083 ANGSTROM
 PRIMITIVE CELL - CENTRING CODE 1/0 VOLUME=  1329.274527 - DENSITY  0.975 g/cm^3
         A              B              C           ALPHA      BETA       GAMMA 
    15.02361100    15.02391600     6.80000000    90.000323  89.999944 119.995964
 *******************************************************************************
 ATOMS IN THE ASYMMETRIC UNIT   84 - ATOMS IN THE UNIT CELL:   84
     ATOM                 X/A                 Y/B                 Z/C    
 *******************************************************************************
      1 T   5 B    -3.863194600000E-01  2.273182200000E-01  2.507024600000E-01
      2 T   5 B    -3.094729000000E-01  3.810269500000E-01 -2.492975400000E-01
      3 T   5 B    -2.272638000000E-01  3.863778800000E-01  2.507024700000E-01
      4 T   5 B    -1.504172400000E-01 -4.599133900000E-01 -2.492975300000E-01
      5 T   5 B    -3.863237300000E-01  3.863606700000E-01  2.492255300000E-01
      6 T   5 B    -3.094771700000E-01 -4.599306000000E-01 -2.507744800000E-01
      7 T   5 B     2.272552500000E-01 -3.863667800000E-01  2.507024600000E-01
      8 T   5 B     3.041018100000E-01 -2.326580500000E-01 -2.492975400000E-01
      9 T   5 B     3.863632200000E-01 -3.863875500000E-01  2.507024600000E-01
     10 T   5 B     4.632097800000E-01 -2.326788200000E-01 -2.492975400000E-01
     11 T   5 B     3.863435000000E-01 -2.272483500000E-01  2.492255300000E-01
     12 T   5 B     4.631900600000E-01 -7.353962000000E-02 -2.507744700000E-01
     13 T   1 H    -9.695638000000E-02  3.089300500000E-01  2.476404700000E-01
     14 T   1 H    -2.010982000000E-02  4.626387800000E-01 -2.523595200000E-01
     15 T   1 H     9.663453000000E-02 -3.089465600000E-01  2.471722500000E-01
     16 T   1 H     1.734810900000E-01 -1.552378300000E-01 -2.528277500000E-01
     17 T   1 H    -9.702858000000E-02 -4.059275700000E-01  2.471001800000E-01
     18 T   1 H    -2.018202000000E-02 -2.522188400000E-01 -2.528998200000E-01
     19 T   1 H     9.673618000000E-02  4.056849400000E-01  2.471181600000E-01
     20 T   1 H     1.735827400000E-01 -4.406063300000E-01 -2.528818400000E-01
     21 T   1 H    -3.089676000000E-01  9.700412000000E-02  2.523595500000E-01
     22 T   1 H    -2.321210400000E-01  2.507128500000E-01 -2.476404500000E-01
     23 T   1 H     3.089297200000E-01 -9.656269000000E-02  2.528278100000E-01
     24 T   1 H     3.857762800000E-01  5.714604000000E-02 -2.471721900000E-01
     25 T   1 H     4.058699900000E-01  9.704998000000E-02  2.528999100000E-01
     26 T   1 H     4.827165500000E-01  2.507587100000E-01 -2.471000900000E-01
     27 T   1 H    -4.056877900000E-01 -9.665268000000E-02  2.528818200000E-01
     28 T   1 H    -3.288412300000E-01  5.705605000000E-02 -2.471181800000E-01
     29 T   1 H    -3.089272600000E-01 -4.059457900000E-01  2.476405000000E-01
     30 T   1 H    -2.320807000000E-01 -2.522370600000E-01 -2.523595000000E-01
     31 T   1 H     3.089618300000E-01  4.056093300000E-01  2.471722200000E-01
     32 T   1 H     3.858083900000E-01 -4.406819400000E-01 -2.528277900000E-01
     33 T   1 H     4.058405700000E-01  3.088232500000E-01  2.471001300000E-01
     34 T   1 H     4.826871300000E-01  4.625319800000E-01 -2.528998700000E-01
     35 T   1 H    -4.057091200000E-01 -3.090420700000E-01  2.471182100000E-01
     36 T   1 H    -3.288625600000E-01 -1.553333400000E-01 -2.528817900000E-01
     37 T   6 C    -1.081096900000E-01  4.459436900000E-01  2.491714900000E-01
     38 T   6 C    -3.126313000000E-02 -4.003475800000E-01 -2.508285100000E-01
     39 T   6 C    -5.351089000000E-02  3.927856300000E-01  2.477125300000E-01
     40 T   6 C     2.333567000000E-02 -4.535056400000E-01 -2.522874700000E-01
     41 T   6 C     5.338812000000E-02 -3.928147000000E-01  2.475864900000E-01
     42 T   6 C     1.302346800000E-01 -2.391059700000E-01 -2.524135100000E-01
     43 T   6 C    -5.354789000000E-02 -4.463078100000E-01  2.479647300000E-01
     44 T   6 C     2.329867000000E-02 -2.925990800000E-01 -2.520352700000E-01
     45 T   6 C     5.342634000000E-02  4.462499700000E-01  2.469920800000E-01
     46 T   6 C     1.302729000000E-01 -4.000413000000E-01 -2.530079300000E-01
     47 T   6 C     1.080358900000E-01 -4.459643700000E-01  2.479827300000E-01
     48 T   6 C     1.848824500000E-01 -2.922556400000E-01 -2.520172700000E-01
     49 T   6 C    -4.459605800000E-01  1.081684600000E-01  2.508285600000E-01
     50 T   6 C    -3.691140200000E-01  2.618771900000E-01 -2.491714400000E-01
     51 T   6 C    -3.928221500000E-01  5.355594000000E-02  2.522874800000E-01
     52 T   6 C    -3.159755900000E-01  2.072646700000E-01 -2.477125200000E-01
     53 T   6 C     3.927986700000E-01 -5.333684000000E-02  2.524135600000E-01
     54 T   6 C     4.696452300000E-01  1.003718900000E-01 -2.475864400000E-01
     55 T   6 C     4.462875800000E-01  5.360286000000E-02  2.520353400000E-01
     56 T   6 C    -4.768658600000E-01  2.073115900000E-01 -2.479646700000E-01
     57 T   6 C    -4.462831500000E-01 -5.337644000000E-02  2.530079300000E-01
     58 T   6 C    -3.694365900000E-01  1.003322900000E-01 -2.469920700000E-01
     59 T   6 C     4.459279100000E-01 -1.080079400000E-01  2.520173100000E-01
     60 T   6 C    -4.772255300000E-01  4.570079000000E-02 -2.479827000000E-01
     61 T   6 C    -4.459551300000E-01  4.458745500000E-01  2.491714900000E-01
     62 T   6 C    -3.691085700000E-01 -4.004167200000E-01 -2.508285200000E-01
     63 T   6 C    -3.927897800000E-01 -4.463742200000E-01  2.477125600000E-01
     64 T   6 C    -3.159432200000E-01 -2.926654900000E-01 -2.522874400000E-01
     65 T   6 C     3.928233700000E-01  4.461720300000E-01  2.475864700000E-01
     66 T   6 C     4.696699300000E-01 -4.001192400000E-01 -2.524135300000E-01
     67 T   6 C     4.462872600000E-01  3.926899900000E-01  2.479647000000E-01
     68 T   6 C    -4.768661800000E-01 -4.536012800000E-01 -2.520353000000E-01
     69 T   6 C    -4.462570400000E-01 -3.929020000000E-01  2.469921100000E-01
     70 T   6 C    -3.694104800000E-01 -2.391932700000E-01 -2.530078900000E-01
     71 T   6 C     4.459599800000E-01 -4.460417700000E-01  2.479827300000E-01
     72 T   6 C    -4.771934600000E-01 -2.923330400000E-01 -2.520172700000E-01
     73 T   8 O    -4.392633200000E-01  2.803706300000E-01  2.496217700000E-01
     74 T   8 O    -3.624167600000E-01  4.340793600000E-01 -2.503782300000E-01
     75 T   8 O    -2.803183000000E-01  2.803783300000E-01  2.527377600000E-01
     76 T   8 O    -2.034717400000E-01  4.340870600000E-01 -2.472622400000E-01
     77 T   8 O    -2.803205800000E-01  4.393234600000E-01  2.480367700000E-01
     78 T   8 O    -2.034740200000E-01 -4.069678100000E-01 -2.519632300000E-01
     79 T   8 O     2.803245100000E-01 -2.803488900000E-01  2.496217900000E-01
     80 T   8 O     3.571710700000E-01 -1.266401600000E-01 -2.503782100000E-01
     81 T   8 O     2.803439700000E-01 -4.393043900000E-01  2.527377600000E-01
     82 T   8 O     3.571905300000E-01 -2.855956600000E-01 -2.472622400000E-01
     83 T   8 O     4.392638400000E-01 -2.803645800000E-01  2.480367600000E-01
     84 T   8 O    -4.838896000000E-01 -1.266558500000E-01 -2.519632400000E-01

 T = ATOM BELONGING TO THE ASYMMETRIC UNIT

 ****    1 SYMMOPS - TRANSLATORS IN FRACTIONAL UNITS
 **** MATRICES AND TRANSLATORS IN THE CRYSTALLOGRAPHIC REFERENCE FRAME
   V INV                    ROTATION MATRICES                   TRANSLATORS
   1   1  1.00  0.00  0.00  0.00  1.00  0.00  0.00 -0.00  1.00  0.00  0.00  0.00

 DIRECT LATTICE VECTORS CARTESIAN COMPONENTS (ANGSTROM)
          X                    Y                    Z
   0.130113578931E+02  -0.751088897922E+01   0.000000000000E+00
   0.000000000000E+00   0.150239160000E+02   0.000000000000E+00
  -0.144547080487E-04  -0.383344116893E-04   0.679999999988E+01


 CARTESIAN COORDINATES - PRIMITIVE CELL
 *******************************************************************************
 *      ATOM          X(ANGSTROM)         Y(ANGSTROM)         Z(ANGSTROM)
 *******************************************************************************
    1     5 B    -5.026544378943E+00  6.316802806589E+00  1.704776727969E+00
    2     5 B    -4.026659056579E+00 -6.974972958813E+00 -1.695223271969E+00
    3     5 B    -2.957014261767E+00  7.511852373641E+00  1.704776795969E+00
    4     5 B    -1.957128939403E+00 -5.779923391761E+00 -1.695223203969E+00
    5     5 B    -5.026599916093E+00 -6.317640656064E+00  1.694733603969E+00
    6     5 B    -4.026714593728E+00 -4.585500421465E+00 -1.705266463969E+00
    7     5 B     2.956895766995E+00 -7.511640611136E+00  1.704776727969E+00
    8     5 B     3.956781089359E+00 -5.779500376538E+00 -1.695223271969E+00
    9     5 B     5.027106508303E+00  6.316921043750E+00  1.704776727969E+00
   10     5 B    -6.984366062389E+00  5.360342575646E-01 -1.695223271969E+00
   11     5 B     5.026849945674E+00 -6.315952811795E+00  1.694733603969E+00
   12     5 B     6.026735268038E+00 -4.583812577197E+00 -1.705266395969E+00
   13     1 H    -1.261537739766E+00  5.369558233931E+00  1.683955195969E+00
   14     1 H    -2.616524174018E-01  7.101698468528E+00 -1.716044735969E+00
   15     1 H     1.257342881855E+00 -5.367407867521E+00  1.680771299969E+00
   16     1 H     2.257228204219E+00 -3.635267632923E+00 -1.719228699969E+00
   17     1 H    -1.262477151996E+00 -5.369860294013E+00  1.680281223970E+00
   18     1 H    -2.625918296318E-01 -3.637720059415E+00 -1.719718775969E+00
   19     1 H     1.258665487166E+00  5.368392279642E+00  1.680403487970E+00
   20     1 H     2.258550809531E+00  7.100532514240E+00 -1.719596511969E+00
   21     1 H    -4.020091668742E+00  3.777993418254E+00  1.716044939969E+00
   22     1 H    -3.020206346378E+00  5.510133652852E+00 -1.683955059969E+00
   23     1 H     4.019591496170E+00 -3.771096264600E+00  1.719229107969E+00
   24     1 H     5.019476818534E+00 -2.038956030002E+00 -1.680770891969E+00
   25     1 H     5.280916042347E+00 -1.590383382333E+00  1.719719387969E+00
   26     1 H     6.280801364711E+00  1.417568522645E-01 -1.680280611970E+00
   27     1 H    -5.278552683866E+00  1.594964511343E+00  1.719596375969E+00
   28     1 H    -4.278667361502E+00  3.327104745941E+00 -1.680403623970E+00
   29     1 H    -4.019566722352E+00 -3.778586590153E+00  1.683955399969E+00
   30     1 H    -3.019681399988E+00 -2.046446355555E+00 -1.716044599969E+00
   31     1 H     4.020009372621E+00  3.773253023589E+00  1.680771095969E+00
   32     1 H     5.019894694986E+00  5.505393258187E+00 -1.719228971969E+00
   33     1 H     5.280533332032E+00  1.591501629877E+00  1.680280883970E+00
   34     1 H     6.280418654396E+00  3.323641864475E+00 -1.719719115969E+00
   35     1 H    -5.278830132819E+00 -1.595795415102E+00  1.680403827970E+00
   36     1 H    -4.278944810454E+00  1.363448194961E-01 -1.719596171969E+00
   37     6 C    -1.406657469999E+00  7.511810866615E+00  1.694366131969E+00
   38     6 C    -4.067721476343E-01 -5.779964898787E+00 -1.705633867969E+00
   39     6 C    -6.962529215783E-01  6.303083169182E+00  1.684445203969E+00
   40     6 C     3.036324007860E-01 -6.988692596220E+00 -1.715554795969E+00
   41     6 C     6.946483577670E-01 -6.302616789577E+00  1.683588131969E+00
   42     6 C     1.694533680131E+00 -4.570476554979E+00 -1.716411867969E+00
   43     6 C    -6.967343454658E-01 -6.303108296305E+00  1.686160163969E+00
   44     6 C     3.031509768985E-01 -4.570968061707E+00 -1.713839835969E+00
   45     6 C     6.951456604577E-01  6.303133287681E+00  1.679546143970E+00
   46     6 C     1.695030982822E+00 -6.988642477721E+00 -1.720453923969E+00
   47     6 C     1.405690045567E+00 -7.511586315706E+00  1.686282563969E+00
   48     6 C     2.405575367931E+00 -5.779446081108E+00 -1.713717435969E+00
   49     6 C     7.208801554828E+00 -2.536224332205E+00  1.705634207969E+00
   50     6 C     8.208686877192E+00 -8.040840976076E-01 -1.694365791969E+00
   51     6 C    -5.111153228712E+00  3.755053829796E+00  1.715554863969E+00
   52     6 C    -4.111267906348E+00  5.487194064394E+00 -1.684445135969E+00
   53     6 C     5.110840426722E+00 -3.751605081545E+00  1.716412207969E+00
   54     6 C     6.110725749087E+00 -2.019464846947E+00 -1.683587791969E+00
   55     6 C     5.806803783509E+00 -2.546701261810E+00  1.713840311969E+00
   56     6 C     6.806689105873E+00 -8.145610272117E-01 -1.686159755969E+00
   57     6 C    -5.806753443446E+00  2.550050343096E+00  1.720453923969E+00
   58     6 C    -4.806868121082E+00  4.282190577694E+00 -1.679546075970E+00
   59     6 C     5.802123988676E+00 -4.972026903572E+00  1.713717707969E+00
   60     6 C     6.802009311040E+00 -3.239886668974E+00 -1.686282359969E+00
   61     6 C     7.208872490681E+00  2.537402725821E+00  1.694366131969E+00
   62     6 C    -4.802600080011E+00 -3.243484060364E+00 -1.705633935969E+00
   63     6 C    -5.110731984928E+00 -3.756097852010E+00  1.684445407969E+00
   64     6 C    -4.110846662563E+00 -2.023957617412E+00 -1.715554591969E+00
   65     6 C     5.111161877036E+00  3.752788888676E+00  1.683587995969E+00
   66     6 C    -6.900310693656E+00 -2.028097897510E+00 -1.716412003969E+00
   67     6 C     5.806799678714E+00  2.547717855521E+00  1.686159959969E+00
   68     6 C    -6.204672891978E+00 -3.233168930664E+00 -1.713840039969E+00
   69     6 C    -5.806413629935E+00 -2.551149028895E+00  1.679546347970E+00
   70     6 C    -4.806528307571E+00 -8.190087942976E-01 -1.720453651969E+00
   71     6 C     5.802541321242E+00  4.973056509803E+00  1.686282563969E+00
   72     6 C    -6.208931249450E+00 -8.078302763827E-01 -1.713717435969E+00
   73     8 O     7.295942019035E+00  6.242748289573E-04  1.697428035969E+00
   74     8 O    -4.715530551658E+00 -5.780262511357E+00 -1.702571963969E+00
   75     8 O    -3.647325378524E+00  6.317810419730E+00  1.718616767969E+00
   76     8 O    -2.647440056159E+00 -6.973965345673E+00 -1.681383231969E+00
   77     8 O    -3.647354976468E+00 -6.318109993505E+00  1.686650035969E+00
   78     8 O    -2.647469654104E+00 -4.585969758907E+00 -1.713349963969E+00
   79     8 O     3.647398917596E+00 -6.317434015921E+00  1.697428171969E+00
   80     8 O     4.647284239960E+00 -4.585293781323E+00 -1.702571827969E+00
   81     8 O     3.647652073580E+00  6.318201622993E+00  1.718616767969E+00
   82     8 O     4.647537395944E+00 -6.973574142410E+00 -1.681383231969E+00
   83     8 O    -7.295942446637E+00 -5.563632463949E-04  1.686649967969E+00
   84     8 O    -6.296057124273E+00  1.731583871351E+00 -1.713350031969E+00

 *******************************************************************************
 STARTING BASIS SET HANDLING 
 *******************************************************************************

 Loading internal basis set: SOLDEF2MSVP         

 Please cite in your publication:
 L. Dona', J. G. Brandenburg and B. Civalleri, J. Chem. Phys., 151, 121101 (2019
 )                                                                              
                                                                                
                    

 *******************************************************************************
 LOCAL ATOMIC FUNCTIONS BASIS SET
 *******************************************************************************
   ATOM   X(AU)   Y(AU)   Z(AU)  N. TYPE  EXPONENT  S COEF   P COEF   D/F/G COEF
 *******************************************************************************
   1 B   -9.499  11.937   3.222
                                  1 S  
                                         2.410E+03 1.755E-03 0.000E+00 0.000E+00
                                         3.619E+02 1.344E-02 0.000E+00 0.000E+00
                                         8.231E+01 6.637E-02 0.000E+00 0.000E+00
                                         2.311E+01 2.303E-01 0.000E+00 0.000E+00
                                         7.252E+00 5.150E-01 0.000E+00 0.000E+00
                                  2 S  
                                         2.367E+00 1.000E+00 0.000E+00 0.000E+00
                                  3 S  
                                         5.533E-01 1.000E+00 0.000E+00 0.000E+00
                                  4 S  
                                         1.716E-01 1.000E+00 0.000E+00 0.000E+00
                           5-     7 P  
                                         6.002E+00 0.000E+00-3.555E-02 0.000E+00
                                         1.240E+00 0.000E+00-1.983E-01 0.000E+00
                                         3.367E-01 0.000E+00-5.048E-01 0.000E+00
                           8-    10 P  
                                         1.256E-01 0.000E+00 1.000E+00 0.000E+00
                          11-    15 D  
                                         8.880E-01 0.000E+00 0.000E+00 1.000E+00
   2 B   -7.609 -13.181  -3.204
   3 B   -5.588  14.195   3.222
   4 B   -3.698 -10.922  -3.204
   5 B   -9.499 -11.939   3.203
   6 B   -7.609  -8.665  -3.222
   7 B    5.588 -14.195   3.222
   8 B    7.477 -10.922  -3.204
   9 B    9.500  11.937   3.222
  10 B  -13.199   1.013  -3.204
  11 B    9.499 -11.935   3.203
  12 B   11.389  -8.662  -3.222
  13 H   -2.384  10.147   3.182
                                181 S  
                                         1.874E+01 1.968E-02 0.000E+00 0.000E+00
                                         2.826E+00 1.380E-01 0.000E+00 0.000E+00
                                         6.401E-01 4.783E-01 0.000E+00 0.000E+00
                                182 S  
                                         1.756E-01 1.000E+00 0.000E+00 0.000E+00
  14 H   -0.494  13.420  -3.243
  15 H    2.376 -10.143   3.176
  16 H    4.266  -6.870  -3.249
  17 H   -2.386 -10.148   3.175
  18 H   -0.496  -6.874  -3.250
  19 H    2.379  10.145   3.176
  20 H    4.268  13.418  -3.250
  21 H   -7.597   7.139   3.243
  22 H   -5.707  10.413  -3.182
  23 H    7.596  -7.126   3.249
  24 H    9.485  -3.853  -3.176
  25 H    9.979  -3.005   3.250
  26 H   11.869   0.268  -3.175
  27 H   -9.975   3.014   3.250
  28 H   -8.086   6.287  -3.176
  29 H   -7.596  -7.140   3.182
  30 H   -5.706  -3.867  -3.243
  31 H    7.597   7.130   3.176
  32 H    9.486  10.404  -3.249
  33 H    9.979   3.008   3.175
  34 H   11.868   6.281  -3.250
  35 H   -9.976  -3.016   3.176
  36 H   -8.086   0.258  -3.250
  37 C   -2.658  14.195   3.202
                                229 S  
                                         3.624E+03 1.634E-03 0.000E+00 0.000E+00
                                         5.440E+02 1.252E-02 0.000E+00 0.000E+00
                                         1.237E+02 6.211E-02 0.000E+00 0.000E+00
                                         3.476E+01 2.182E-01 0.000E+00 0.000E+00
                                         1.093E+01 4.980E-01 0.000E+00 0.000E+00
                                230 S  
                                         3.574E+00 1.000E+00 0.000E+00 0.000E+00
                                231 S  
                                         7.742E-01 1.000E+00 0.000E+00 0.000E+00
                                232 S  
                                         2.330E-01 1.000E+00 0.000E+00 0.000E+00
                         233-   235 P  
                                         9.443E+00 0.000E+00 3.790E-02 0.000E+00
                                         2.002E+00 0.000E+00 2.082E-01 0.000E+00
                                         5.463E-01 0.000E+00 5.047E-01 0.000E+00
                         236-   238 P  
                                         1.820E-01 0.000E+00 1.000E+00 0.000E+00
                         239-   243 D  
                                         8.880E-01 0.000E+00 0.000E+00 1.000E+00
  38 C   -0.769 -10.923  -3.223
  39 C   -1.316  11.911   3.183
  40 C    0.574 -13.207  -3.242
  41 C    1.313 -11.910   3.182
  42 C    3.202  -8.637  -3.244
  43 C   -1.317 -11.911   3.186
  44 C    0.573  -8.638  -3.239
  45 C    1.314  11.911   3.174
  46 C    3.203 -13.207  -3.251
  47 C    2.656 -14.195   3.187
  48 C    4.546 -10.922  -3.238
  49 C   13.623  -4.793   3.223
  50 C   15.512  -1.519  -3.202
  51 C   -9.659   7.096   3.242
  52 C   -7.769  10.369  -3.183
  53 C    9.658  -7.090   3.244
  54 C   11.548  -3.816  -3.182
  55 C   10.973  -4.813   3.239
  56 C   12.863  -1.539  -3.186
  57 C  -10.973   4.819   3.251
  58 C   -9.084   8.092  -3.174
  59 C   10.964  -9.396   3.238
  60 C   12.854  -6.122  -3.187
  61 C   13.623   4.795   3.202
  62 C   -9.076  -6.129  -3.223
  63 C   -9.658  -7.098   3.183
  64 C   -7.768  -3.825  -3.242
  65 C    9.659   7.092   3.182
  66 C  -13.040  -3.833  -3.244
  67 C   10.973   4.814   3.186
  68 C  -11.725  -6.110  -3.239
  69 C  -10.973  -4.821   3.174
  70 C   -9.083  -1.548  -3.251
  71 C   10.965   9.398   3.187
  72 C  -11.733  -1.527  -3.238
  73 O   13.787   0.001   3.208
                                769 S  
                                         6.773E+03 1.727E-03 0.000E+00 0.000E+00
                                         1.017E+03 1.325E-02 0.000E+00 0.000E+00
                                         2.313E+02 6.603E-02 0.000E+00 0.000E+00
                                         6.501E+01 2.353E-01 0.000E+00 0.000E+00
                                         2.050E+01 5.498E-01 0.000E+00 0.000E+00
                                770 S  
                                         6.716E+00 1.000E+00 0.000E+00 0.000E+00
                                771 S  
                                         1.147E+00 1.000E+00 0.000E+00 0.000E+00
                                772 S  
                                         3.342E-01 1.000E+00 0.000E+00 0.000E+00
                         773-   775 P  
                                         1.769E+01 0.000E+00 4.359E-02 0.000E+00
                                         3.854E+00 0.000E+00 2.318E-01 0.000E+00
                                         1.047E+00 0.000E+00 5.146E-01 0.000E+00
                         776-   778 P  
                                         2.759E-01 0.000E+00 1.000E+00 0.000E+00
                         779-   783 D  
                                         8.000E-01 0.000E+00 0.000E+00 1.000E+00
  74 O   -8.911 -10.923  -3.217
  75 O   -6.892  11.939   3.248
  76 O   -5.003 -13.179  -3.177
  77 O   -6.893 -11.939   3.187
  78 O   -5.003  -8.666  -3.238
  79 O    6.893 -11.938   3.208
  80 O    8.782  -8.665  -3.217
  81 O    6.893  11.940   3.248
  82 O    8.783 -13.178  -3.177
  83 O  -13.787  -0.001   3.187
  84 O  -11.898   3.272  -3.238

 *******************************************************************************
 FINISHED BASIS SET HANDLING 
 *******************************************************************************

 INFORMATION **** SET_MPP **** PCRYSTAL CALCULATION
 INFORMATION **** READM2 **** NEW DEFAULT: FOCK/KS MATRIX MIXING SET TO 30 %
 INFORMATION **** READM2 **** NEW DEFAULT: FULL DIRECT SCF MODE
 INFORMATION **** READM2 **** NEW DEFAULT: COULOMB BIPOLAR BUFFER SET TO 32 Mb
 INFORMATION **** READM2 **** NEW DEFAULT: EXCHANGE BIPOLAR BUFFER SET TO 32 Mb

 *******************************************************************************
 NEW DEFAULT: DFT INTEGRATION GRID INCREASED TO XLGRID
 NEW DEFAULT: DIIS ACCELERATOR ACTIVE
 USE KEYWORD NODIIS TO TURN IT OFF
 *******************************************************************************

 WARNING **** RDDFTP **** HSEsol-HJS ACTIVE
 RANGE SEPARATION - OMEGA:   0.110000000000000     
 WARNING **** RDDFTP **** HSEsol-3c has to be combined with sol-def2-mSVP basis set
 *******************************************************************************
 N. OF ATOMS PER CELL        84  COULOMB OVERLAP TOL         (T1) 10**   -6
 NUMBER OF SHELLS           468  COULOMB PENETRATION TOL     (T2) 10**   -6
 NUMBER OF AO               948  EXCHANGE OVERLAP TOL        (T3) 10**   -6
 N. OF ELECTRONS PER CELL   396  EXCHANGE PSEUDO OVP (F(G))  (T4) 10**   -6
 CORE ELECTRONS PER CELL    120  EXCHANGE PSEUDO OVP (P(G))  (T5) 10**  -12
 N. OF SYMMETRY OPERATORS     1  POLE ORDER IN MONO ZONE                  4
 *******************************************************************************
 TYPE OF CALCULATION :  RESTRICTED CLOSED SHELL
 KOHN-SHAM HAMILTONIAN

 (EXCHANGE)[CORRELATION] FUNCTIONAL:(HSEsol GGA)[PBEsol]

 RANGE-SEPARATED HYBRID FUNCTIONAL 
 OMEGA (SHORT-RANGE)[LONG-RANGE]:(    0.1100)[    0.0000]

 HYBRID EXCHANGE - PERCENTAGE OF FOCK EXCHANGE    25.0000

 CAPPA:IS1  2;IS2  2;IS3  8; K PTS MONK NET  20; SYMMOPS:K SPACE   2;G SPACE   1

 *******************************************************************************
 MAX NUMBER OF SCF CYCLES      50  CONVERGENCE ON DELTAP        10**-16
 WEIGHT OF F(I) IN F(I+1)      30% CONVERGENCE ON ENERGY        10**- 6
 SHRINK. FACT.(MONKH.)    2  2  8  NUMBER OF K POINTS IN THE IBZ     20
 SHRINKING FACTOR(GILAT NET)    8  NUMBER OF K POINTS(GILAT NET)   1028
 *******************************************************************************
 *** K POINTS COORDINATES (OBLIQUE COORDINATES IN UNITS OF IS =  2)
   1-R(  0  0  0)   2-R(  1  0  0)   3-R(  0  1  0)   4-R(  1  1  0)
   5-C(  0  0  1)   6-C(  1  0  1)   7-C(  0  1  1)   8-C(  1  1  1)
   9-C(  0  0  2)  10-C(  1  0  2)  11-C(  0  1  2)  12-C(  1  1  2)
  13-C(  0  0  3)  14-C(  1  0  3)  15-C(  0  1  3)  16-C(  1  1  3)
  17-R(  0  0  4)  18-R(  1  0  4)  19-R(  0  1  4)  20-R(  1  1  4)

 DIRECT LATTICE VECTORS COMPON. (A.U.)     RECIP. LATTICE VECTORS COMPON. (A.U.) 
        X            Y            Z              X            Y            Z
   24.5879030  -14.1935232    0.0000000      0.2555397    0.0000000    0.0000005
    0.0000000   28.3910867    0.0000000      0.1277517    0.2213084    0.0000015
   -0.0000273   -0.0000724   12.8501377      0.0000000    0.0000000    0.4889586

 DISK SPACE FOR EIGENVECTORS (FTN 10)    28758528 REALS

 SYMMETRY ADAPTION OF THE BLOCH FUNCTIONS DISABLED
 TTTTTTTTTTTTTTTTTTTTTTTTTTTTTT gordsh1     TELAPSE        0.05 TCPU        0.05

 MATRIX SIZE: P(G)  785124, F(G)  158731, P(G) IRR  394620, F(G) IRR  159763
 MAX G-VECTOR INDEX FOR 1- AND 2-ELECTRON INTEGRALS  65

 TTTTTTTTTTTTTTTTTTTTTTTTTTTTTT INPUT       TELAPSE        2.96 TCPU        2.95

 NEIGHBORS OF THE NON-EQUIVALENT ATOMS

 N = NUMBER OF NEIGHBORS AT DISTANCE R
    ATOM  N     R/ANG      R/AU   NEIGHBORS (ATOM LABELS AND CELL INDICES)
   1 B    1     1.3791     2.6061   73 O   -1 0 0
   1 B    1     1.3793     2.6065   75 O    0 0 0
   1 B    1     1.5503     2.9297   49 C   -1 0 0
   1 B    1     2.3895     4.5155    5 B    0 1 0
   1 B    1     2.3898     4.5160    3 B    0 0 0
   1 B    1     2.5632     4.8437   51 C    0 0 0

   2 B    1     1.3791     2.6061   74 O    0 0 0
   2 B    1     1.3793     2.6065   76 O    0 0 0
   2 B    1     1.5503     2.9297   50 C   -1-1 0
   2 B    1     2.3895     4.5155    6 B    0 0 0
   2 B    1     2.3898     4.5160    4 B    0 0 0
   2 B    1     2.5632     4.8437   52 C    0-1 0

   3 B    1     1.3793     2.6065   77 O    0 1 0
   3 B    1     1.3793     2.6065   75 O    0 0 0
   3 B    1     1.5504     2.9298   37 C    0 0 0
   3 B    1     2.3895     4.5156    5 B    0 1 0
   3 B    1     2.3898     4.5160    1 B    0 0 0
   3 B    1     2.5634     4.8440   43 C    0 1 0

   4 B    1     1.3793     2.6065   78 O    0 0 0
   4 B    1     1.3793     2.6065   76 O    0 0 0
   4 B    1     1.5504     2.9298   38 C    0 0 0
   4 B    1     2.3895     4.5156    6 B    0 0 0
   4 B    1     2.3898     4.5160    2 B    0 0 0
   4 B    1     2.5634     4.8440   44 C    0 0 0

   5 B    1     1.3791     2.6061   73 O   -1-1 0
   5 B    1     1.3793     2.6064   77 O    0 0 0
   5 B    1     1.5502     2.9294   61 C   -1-1 0
   5 B    1     2.3895     4.5155    1 B    0-1 0
   5 B    1     2.3895     4.5156    3 B    0-1 0
   5 B    1     2.5629     4.8433   63 C    0 0 0

   6 B    1     1.3791     2.6061   74 O    0 0 0
   6 B    1     1.3793     2.6064   78 O    0 0 0
   6 B    1     1.5502     2.9294   62 C    0 0 0
   6 B    1     2.3895     4.5155    2 B    0 0 0
   6 B    1     2.3895     4.5156    4 B    0 0 0
   6 B    1     2.5629     4.8433   64 C    0 0 0

   7 B    1     1.3795     2.6068   79 O    0 0 0
   7 B    1     1.3795     2.6070   81 O    0-1 0
   7 B    1     1.5513     2.9316   47 C    0 0 0
   7 B    1     2.3905     4.5174   11 B    0 0 0
   7 B    1     2.3905     4.5175    9 B    0-1 0
   7 B    1     2.5648     4.8468   45 C    0-1 0

   8 B    1     1.3795     2.6068   80 O    0 0 0
   8 B    1     1.3795     2.6070   82 O    0 0 0
   8 B    1     1.5513     2.9316   48 C    0 0 0
   8 B    1     2.3905     4.5174   12 B    0 0 0
   8 B    1     2.3905     4.5175   10 B    1 0 0
   8 B    1     2.5648     4.8468   46 C    0 0 0

   9 B    1     1.3795     2.6069   81 O    0 0 0
   9 B    1     1.3797     2.6072   83 O    1 1 0
   9 B    1     1.5516     2.9322   71 C    0 0 0
   9 B    1     2.3905     4.5175    7 B    0 1 0
   9 B    1     2.3911     4.5185   11 B    0 1 0
   9 B    1     2.5651     4.8473   69 C    1 1 0

  10 B    1     1.3795     2.6069   82 O   -1 0 0
  10 B    1     1.3797     2.6072   84 O    0 0 0
  10 B    1     1.5516     2.9322   72 C    0 0 0
  10 B    1     2.3905     4.5175    8 B   -1 0 0
  10 B    1     2.3911     4.5185   12 B   -1 0 0
  10 B    1     2.5651     4.8473   70 C    0 0 0

  11 B    1     1.3795     2.6068   79 O    0 0 0
  11 B    1     1.3796     2.6071   83 O    1 0 0
  11 B    1     1.5516     2.9322   59 C    0 0 0
  11 B    1     2.3905     4.5174    7 B    0 0 0
  11 B    1     2.3911     4.5185    9 B    0-1 0
  11 B    1     2.5651     4.8473   57 C    1 0 0

  12 B    1     1.3795     2.6068   80 O    0 0 0
  12 B    1     1.3796     2.6071   84 O    1 0 0
  12 B    1     1.5516     2.9322   60 C    0 0 0
  12 B    1     2.3905     4.5174    8 B    0 0 0
  12 B    1     2.3911     4.5185   10 B    1 0 0
  12 B    1     2.5651     4.8473   58 C    1 0 0

  13 H    1     1.0913     2.0623   39 C    0 0 0
  13 H    1     2.1472     4.0576   37 C    0 0 0
  13 H    1     2.1680     4.0969   45 C    0 0 0
  13 H    1     2.5202     4.7625   19 H    0 0 0
  13 H    1     2.5676     4.8520   75 O    0 0 0
  13 H    1     2.7321     5.1630    3 B    0 0 0

  14 H    1     1.0913     2.0623   40 C    0 1 0
  14 H    1     2.1472     4.0576   38 C    0 1 0
  14 H    1     2.1680     4.0969   46 C    0 1 0
  14 H    1     2.5202     4.7625   20 H    0 0 0
  14 H    1     2.5676     4.8520   76 O    0 1 0
  14 H    1     2.7321     5.1630    4 B    0 1 0

  15 H    1     1.0914     2.0625   41 C    0 0 0
  15 H    1     2.1493     4.0616   47 C    0 0 0
  15 H    1     2.1666     4.0942   43 C    0 0 0
  15 H    1     2.5198     4.7618   17 H    0 0 0
  15 H    1     2.5720     4.8604   79 O    0 0 0
  15 H    1     2.7362     5.1707    7 B    0 0 0

  16 H    1     1.0914     2.0625   42 C    0 0 0
  16 H    1     2.1493     4.0616   48 C    0 0 0
  16 H    1     2.1666     4.0942   44 C    0 0 0
  16 H    1     2.5198     4.7618   18 H    0 0 0
  16 H    1     2.5720     4.8604   80 O    0 0 0
  16 H    1     2.7362     5.1707    8 B    0 0 0

  17 H    1     1.0914     2.0624   43 C    0 0 0
  17 H    1     2.1471     4.0575   37 C    0-1 0
  17 H    1     2.1680     4.0970   41 C    0 0 0
  17 H    1     2.5198     4.7618   15 H    0 0 0
  17 H    1     2.5665     4.8500   77 O    0 0 0
  17 H    1     2.7315     5.1618    3 B    0-1 0

  18 H    1     1.0914     2.0624   44 C    0 0 0
  18 H    1     2.1471     4.0575   38 C    0 0 0
  18 H    1     2.1680     4.0970   42 C    0 0 0
  18 H    1     2.5198     4.7618   16 H    0 0 0
  18 H    1     2.5665     4.8500   78 O    0 0 0
  18 H    1     2.7315     5.1618    4 B    0 0 0

  19 H    1     1.0915     2.0626   45 C    0 0 0
  19 H    1     2.1490     4.0610   47 C    0 1 0
  19 H    1     2.1669     4.0948   39 C    0 0 0
  19 H    1     2.5202     4.7625   13 H    0 0 0
  19 H    1     2.5712     4.8588   81 O    0 0 0
  19 H    1     2.7351     5.1686    7 B    0 1 0

  20 H    1     1.0915     2.0626   46 C    0 1 0
  20 H    1     2.1490     4.0610   48 C    0 1 0
  20 H    1     2.1669     4.0948   40 C    0 1 0
  20 H    1     2.5202     4.7625   14 H    0 0 0
  20 H    1     2.5712     4.8588   82 O    0 1 0
  20 H    1     2.7351     5.1686    8 B    0 1 0

  21 H    1     1.0913     2.0623   51 C    0 0 0
  21 H    1     2.1469     4.0571   49 C   -1 0 0
  21 H    1     2.1680     4.0968   57 C    0 0 0
  21 H    1     2.5198     4.7617   27 H    0 0 0
  21 H    1     2.5670     4.8510   75 O    0 0 0
  21 H    1     2.7310     5.1609    1 B    0 0 0

  22 H    1     1.0913     2.0623   52 C    0 0 0
  22 H    1     2.1469     4.0571   50 C   -1 0 0
  22 H    1     2.1680     4.0968   58 C    0 0 0
  22 H    1     2.5198     4.7617   28 H    0 0 0
  22 H    1     2.5670     4.8510   76 O    0 1 0
  22 H    1     2.7310     5.1609    2 B    0 1 0

  23 H    1     1.0914     2.0625   53 C    0 0 0
  23 H    1     2.1493     4.0617   59 C    0 0 0
  23 H    1     2.1664     4.0939   55 C    0 0 0
  23 H    1     2.5192     4.7606   25 H    0 0 0
  23 H    1     2.5735     4.8632   79 O    0 0 0
  23 H    1     2.7371     5.1723   11 B    0 0 0

  24 H    1     1.0914     2.0625   54 C    0 0 0
  24 H    1     2.1493     4.0617   60 C    0 0 0
  24 H    1     2.1664     4.0939   56 C    0 0 0
  24 H    1     2.5192     4.7606   26 H    0 0 0
  24 H    1     2.5735     4.8632   80 O    0 0 0
  24 H    1     2.7371     5.1723   12 B    0 0 0

  25 H    1     1.0914     2.0624   55 C    0 0 0
  25 H    1     2.1475     4.0581   49 C    0 0 0
  25 H    1     2.1679     4.0967   53 C    0 0 0
  25 H    1     2.5192     4.7606   23 H    0 0 0
  25 H    1     2.5675     4.8519   73 O    0 0 0
  25 H    1     2.7328     5.1643    1 B    1 0 0

  26 H    1     1.0914     2.0624   56 C    0 0 0
  26 H    1     2.1475     4.0581   50 C    0 0 0
  26 H    1     2.1679     4.0967   54 C    0 0 0
  26 H    1     2.5192     4.7606   24 H    0 0 0
  26 H    1     2.5675     4.8519   74 O    1 1 0
  26 H    1     2.7328     5.1643    2 B    1 1 0

  27 H    1     1.0914     2.0625   57 C    0 0 0
  27 H    1     2.1491     4.0612   59 C   -1 0 0
  27 H    1     2.1666     4.0942   51 C    0 0 0
  27 H    1     2.5198     4.7617   21 H    0 0 0
  27 H    1     2.5723     4.8609   83 O    0 0 0
  27 H    1     2.7355     5.1693   11 B   -1 0 0

  28 H    1     1.0914     2.0625   58 C    0 0 0
  28 H    1     2.1491     4.0612   60 C   -1 0 0
  28 H    1     2.1666     4.0942   52 C    0 0 0
  28 H    1     2.5198     4.7617   22 H    0 0 0
  28 H    1     2.5723     4.8609   84 O    0 0 0
  28 H    1     2.7355     5.1693   12 B   -1 0 0

  29 H    1     1.0914     2.0624   63 C    0 0 0
  29 H    1     2.1475     4.0582   61 C   -1-1 0
  29 H    1     2.1678     4.0966   69 C    0 0 0
  29 H    1     2.5200     4.7621   35 H    0 0 0
  29 H    1     2.5667     4.8503   77 O    0 0 0
  29 H    1     2.7315     5.1618    5 B    0 0 0

  30 H    1     1.0914     2.0624   64 C    0 0 0
  30 H    1     2.1475     4.0582   62 C    0 0 0
  30 H    1     2.1678     4.0966   70 C    0 0 0
  30 H    1     2.5200     4.7621   36 H    0 0 0
  30 H    1     2.5667     4.8503   78 O    0 0 0
  30 H    1     2.7315     5.1618    6 B    0 0 0

  31 H    1     1.0913     2.0623   65 C    0 0 0
  31 H    1     2.1487     4.0605   71 C    0 0 0
  31 H    1     2.1667     4.0945   67 C    0 0 0
  31 H    1     2.5197     4.7616   33 H    0 0 0
  31 H    1     2.5723     4.8610   81 O    0 0 0
  31 H    1     2.7359     5.1701    9 B    0 0 0

  32 H    1     1.0913     2.0623   66 C    1 1 0
  32 H    1     2.1487     4.0605   72 C    1 1 0
  32 H    1     2.1667     4.0945   68 C    1 1 0
  32 H    1     2.5197     4.7616   34 H    0 0 0
  32 H    1     2.5723     4.8610   82 O    0 1 0
  32 H    1     2.7359     5.1701   10 B    1 1 0

  33 H    1     1.0915     2.0626   67 C    0 0 0
  33 H    1     2.1479     4.0589   61 C    0 0 0
  33 H    1     2.1679     4.0968   65 C    0 0 0
  33 H    1     2.5197     4.7616   31 H    0 0 0
  33 H    1     2.5677     4.8522   73 O    0 0 0
  33 H    1     2.7331     5.1648    5 B    1 1 0

  34 H    1     1.0915     2.0626   68 C    1 1 0
  34 H    1     2.1479     4.0589   62 C    1 1 0
  34 H    1     2.1679     4.0968   66 C    1 1 0
  34 H    1     2.5197     4.7616   32 H    0 0 0
  34 H    1     2.5677     4.8522   74 O    1 1 0
  34 H    1     2.7331     5.1648    6 B    1 1 0

  35 H    1     1.0914     2.0624   69 C    0 0 0
  35 H    1     2.1486     4.0602   71 C   -1-1 0
  35 H    1     2.1668     4.0947   63 C    0 0 0
  35 H    1     2.5200     4.7621   29 H    0 0 0
  35 H    1     2.5717     4.8598   83 O    0 0 0
  35 H    1     2.7349     5.1682    9 B   -1-1 0

  36 H    1     1.0914     2.0624   70 C    0 0 0
  36 H    1     2.1486     4.0602   72 C    0 0 0
  36 H    1     2.1668     4.0947   64 C    0 0 0
  36 H    1     2.5200     4.7621   30 H    0 0 0
  36 H    1     2.5717     4.8598   84 O    0 0 0
  36 H    1     2.7349     5.1682   10 B    0 0 0

  37 C    1     1.4020     2.6495   43 C    0 1 0
  37 C    1     1.4021     2.6495   39 C    0 0 0
  37 C    1     1.5504     2.9298    3 B    0 0 0
  37 C    1     2.1471     4.0575   17 H    0 1 0
  37 C    1     2.1472     4.0576   13 H    0 0 0
  37 C    1     2.4246     4.5817   41 C    0 1 0

  38 C    1     1.4020     2.6495   44 C    0 0 0
  38 C    1     1.4021     2.6495   40 C    0 0 0
  38 C    1     1.5504     2.9298    4 B    0 0 0
  38 C    1     2.1471     4.0575   18 H    0 0 0
  38 C    1     2.1472     4.0576   14 H    0-1 0
  38 C    1     2.4246     4.5817   42 C    0 0 0

  39 C    1     1.0913     2.0623   13 H    0 0 0
  39 C    1     1.3914     2.6294   45 C    0 0 0
  39 C    1     1.4021     2.6495   37 C    0 0 0
  39 C    1     2.1669     4.0948   19 H    0 0 0
  39 C    1     2.4177     4.5688   43 C    0 1 0
  39 C    1     2.4250     4.5825   47 C    0 1 0

  40 C    1     1.0913     2.0623   14 H    0-1 0
  40 C    1     1.3914     2.6294   46 C    0 0 0
  40 C    1     1.4021     2.6495   38 C    0 0 0
  40 C    1     2.1669     4.0948   20 H    0-1 0
  40 C    1     2.4177     4.5688   44 C    0 0 0
  40 C    1     2.4250     4.5825   48 C    0 0 0

  41 C    1     1.0914     2.0625   15 H    0 0 0
  41 C    1     1.3914     2.6293   43 C    0 0 0
  41 C    1     1.4026     2.6505   47 C    0 0 0
  41 C    1     2.1680     4.0970   17 H    0 0 0
  41 C    1     2.4182     4.5697   45 C    0-1 0
  41 C    1     2.4246     4.5817   37 C    0-1 0

  42 C    1     1.0914     2.0625   16 H    0 0 0
  42 C    1     1.3914     2.6293   44 C    0 0 0
  42 C    1     1.4026     2.6505   48 C    0 0 0
  42 C    1     2.1680     4.0970   18 H    0 0 0
  42 C    1     2.4182     4.5697   46 C    0 0 0
  42 C    1     2.4246     4.5817   38 C    0 0 0

  43 C    1     1.0914     2.0624   17 H    0 0 0
  43 C    1     1.3914     2.6293   41 C    0 0 0
  43 C    1     1.4020     2.6495   37 C    0-1 0
  43 C    1     2.1666     4.0942   15 H    0 0 0
  43 C    1     2.4177     4.5688   39 C    0-1 0
  43 C    1     2.4250     4.5826   47 C    0 0 0

  44 C    1     1.0914     2.0624   18 H    0 0 0
  44 C    1     1.3914     2.6293   42 C    0 0 0
  44 C    1     1.4020     2.6495   38 C    0 0 0
  44 C    1     2.1666     4.0942   16 H    0 0 0
  44 C    1     2.4177     4.5688   40 C    0 0 0
  44 C    1     2.4250     4.5826   48 C    0 0 0

  45 C    1     1.0915     2.0626   19 H    0 0 0
  45 C    1     1.3914     2.6294   39 C    0 0 0
  45 C    1     1.4025     2.6504   47 C    0 1 0
  45 C    1     2.1680     4.0969   13 H    0 0 0
  45 C    1     2.4182     4.5697   41 C    0 1 0
  45 C    1     2.4246     4.5818   37 C    0 0 0

  46 C    1     1.0915     2.0626   20 H    0-1 0
  46 C    1     1.3914     2.6294   40 C    0 0 0
  46 C    1     1.4025     2.6504   48 C    0 0 0
  46 C    1     2.1680     4.0969   14 H    0-1 0
  46 C    1     2.4182     4.5697   42 C    0 0 0
  46 C    1     2.4246     4.5818   38 C    0 0 0

  47 C    1     1.4025     2.6504   45 C    0-1 0
  47 C    1     1.4026     2.6505   41 C    0 0 0
  47 C    1     1.5513     2.9316    7 B    0 0 0
  47 C    1     2.1490     4.0610   19 H    0-1 0
  47 C    1     2.1493     4.0616   15 H    0 0 0
  47 C    1     2.4250     4.5825   39 C    0-1 0

  48 C    1     1.4025     2.6504   46 C    0 0 0
  48 C    1     1.4026     2.6505   42 C    0 0 0
  48 C    1     1.5513     2.9316    8 B    0 0 0
  48 C    1     2.1490     4.0610   20 H    0-1 0
  48 C    1     2.1493     4.0616   16 H    0 0 0
  48 C    1     2.4250     4.5825   40 C    0 0 0

  49 C    1     1.4020     2.6494   51 C    1 0 0
  49 C    1     1.4021     2.6495   55 C    0 0 0
  49 C    1     1.5503     2.9297    1 B    1 0 0
  49 C    1     2.1469     4.0571   21 H    1 0 0
  49 C    1     2.1475     4.0581   25 H    0 0 0
  49 C    1     2.4246     4.5818   53 C    0 0 0

  50 C    1     1.4020     2.6494   52 C    1 0 0
  50 C    1     1.4021     2.6495   56 C    0 0 0
  50 C    1     1.5503     2.9297    2 B    1 1 0
  50 C    1     2.1469     4.0571   22 H    1 0 0
  50 C    1     2.1475     4.0581   26 H    0 0 0
  50 C    1     2.4246     4.5818   54 C    0 0 0

  51 C    1     1.0913     2.0623   21 H    0 0 0
  51 C    1     1.3914     2.6293   57 C    0 0 0
  51 C    1     1.4020     2.6494   49 C   -1 0 0
  51 C    1     2.1666     4.0942   27 H    0 0 0
  51 C    1     2.4175     4.5684   55 C   -1 0 0
  51 C    1     2.4251     4.5828   59 C   -1 0 0

  52 C    1     1.0913     2.0623   22 H    0 0 0
  52 C    1     1.3914     2.6293   58 C    0 0 0
  52 C    1     1.4020     2.6494   50 C   -1 0 0
  52 C    1     2.1666     4.0942   28 H    0 0 0
  52 C    1     2.4175     4.5684   56 C   -1 0 0
  52 C    1     2.4251     4.5828   60 C   -1 0 0

  53 C    1     1.0914     2.0625   23 H    0 0 0
  53 C    1     1.3915     2.6295   55 C    0 0 0
  53 C    1     1.4026     2.6505   59 C    0 0 0
  53 C    1     2.1679     4.0967   25 H    0 0 0
  53 C    1     2.4179     4.5691   57 C    1 0 0
  53 C    1     2.4246     4.5818   49 C    0 0 0

  54 C    1     1.0914     2.0625   24 H    0 0 0
  54 C    1     1.3915     2.6295   56 C    0 0 0
  54 C    1     1.4026     2.6505   60 C    0 0 0
  54 C    1     2.1679     4.0967   26 H    0 0 0
  54 C    1     2.4179     4.5691   58 C    1 0 0
  54 C    1     2.4246     4.5818   50 C    0 0 0

  55 C    1     1.0914     2.0624   25 H    0 0 0
  55 C    1     1.3915     2.6295   53 C    0 0 0
  55 C    1     1.4021     2.6495   49 C    0 0 0
  55 C    1     2.1664     4.0939   23 H    0 0 0
  55 C    1     2.4175     4.5684   51 C    1 0 0
  55 C    1     2.4253     4.5832   59 C    0 0 0

  56 C    1     1.0914     2.0624   26 H    0 0 0
  56 C    1     1.3915     2.6295   54 C    0 0 0
  56 C    1     1.4021     2.6495   50 C    0 0 0
  56 C    1     2.1664     4.0939   24 H    0 0 0
  56 C    1     2.4175     4.5684   52 C    1 0 0
  56 C    1     2.4253     4.5832   60 C    0 0 0

  57 C    1     1.0914     2.0625   27 H    0 0 0
  57 C    1     1.3914     2.6293   51 C    0 0 0
  57 C    1     1.4025     2.6504   59 C   -1 0 0
  57 C    1     2.1680     4.0968   21 H    0 0 0
  57 C    1     2.4179     4.5691   53 C   -1 0 0
  57 C    1     2.4247     4.5819   49 C   -1 0 0

  58 C    1     1.0914     2.0625   28 H    0 0 0
  58 C    1     1.3914     2.6293   52 C    0 0 0
  58 C    1     1.4025     2.6504   60 C   -1 0 0
  58 C    1     2.1680     4.0968   22 H    0 0 0
  58 C    1     2.4179     4.5691   54 C   -1 0 0
  58 C    1     2.4247     4.5819   50 C   -1 0 0

  59 C    1     1.4025     2.6504   57 C    1 0 0
  59 C    1     1.4026     2.6505   53 C    0 0 0
  59 C    1     1.5516     2.9322   11 B    0 0 0
  59 C    1     2.1491     4.0612   27 H    1 0 0
  59 C    1     2.1493     4.0617   23 H    0 0 0
  59 C    1     2.4251     4.5828   51 C    1 0 0

  60 C    1     1.4025     2.6504   58 C    1 0 0
  60 C    1     1.4026     2.6505   54 C    0 0 0
  60 C    1     1.5516     2.9322   12 B    0 0 0
  60 C    1     2.1491     4.0612   28 H    1 0 0
  60 C    1     2.1493     4.0617   24 H    0 0 0
  60 C    1     2.4251     4.5828   52 C    1 0 0

  61 C    1     1.4021     2.6496   63 C    1 1 0
  61 C    1     1.4021     2.6497   67 C    0 0 0
  61 C    1     1.5502     2.9294    5 B    1 1 0
  61 C    1     2.1475     4.0582   29 H    1 1 0
  61 C    1     2.1479     4.0589   33 H    0 0 0
  61 C    1     2.4244     4.5814   65 C    0 0 0

  62 C    1     1.4021     2.6496   64 C    0 0 0
  62 C    1     1.4021     2.6497   68 C    0 0 0
  62 C    1     1.5502     2.9294    6 B    0 0 0
  62 C    1     2.1475     4.0582   30 H    0 0 0
  62 C    1     2.1479     4.0589   34 H   -1-1 0
  62 C    1     2.4244     4.5814   66 C    0 0 0

  63 C    1     1.0914     2.0624   29 H    0 0 0
  63 C    1     1.3914     2.6293   69 C    0 0 0
  63 C    1     1.4021     2.6496   61 C   -1-1 0
  63 C    1     2.1668     4.0947   35 H    0 0 0
  63 C    1     2.4179     4.5692   67 C   -1-1 0
  63 C    1     2.4251     4.5827   71 C   -1-1 0

  64 C    1     1.0914     2.0624   30 H    0 0 0
  64 C    1     1.3914     2.6293   70 C    0 0 0
  64 C    1     1.4021     2.6496   62 C    0 0 0
  64 C    1     2.1668     4.0947   36 H    0 0 0
  64 C    1     2.4179     4.5692   68 C    0 0 0
  64 C    1     2.4251     4.5827   72 C    0 0 0

  65 C    1     1.0913     2.0623   31 H    0 0 0
  65 C    1     1.3914     2.6294   67 C    0 0 0
  65 C    1     1.4025     2.6504   71 C    0 0 0
  65 C    1     2.1679     4.0968   33 H    0 0 0
  65 C    1     2.4178     4.5690   69 C    1 1 0
  65 C    1     2.4244     4.5814   61 C    0 0 0

  66 C    1     1.0913     2.0623   32 H   -1-1 0
  66 C    1     1.3914     2.6294   68 C    0 0 0
  66 C    1     1.4025     2.6504   72 C    0 0 0
  66 C    1     2.1679     4.0968   34 H   -1-1 0
  66 C    1     2.4178     4.5690   70 C    0 0 0
  66 C    1     2.4244     4.5814   62 C    0 0 0

  67 C    1     1.0915     2.0626   33 H    0 0 0
  67 C    1     1.3914     2.6294   65 C    0 0 0
  67 C    1     1.4021     2.6497   61 C    0 0 0
  67 C    1     2.1667     4.0945   31 H    0 0 0
  67 C    1     2.4179     4.5692   63 C    1 1 0
  67 C    1     2.4253     4.5832   71 C    0 0 0

  68 C    1     1.0915     2.0626   34 H   -1-1 0
  68 C    1     1.3914     2.6294   66 C    0 0 0
  68 C    1     1.4021     2.6497   62 C    0 0 0
  68 C    1     2.1667     4.0945   32 H   -1-1 0
  68 C    1     2.4179     4.5692   64 C    0 0 0
  68 C    1     2.4253     4.5832   72 C    0 0 0

  69 C    1     1.0914     2.0624   35 H    0 0 0
  69 C    1     1.3914     2.6293   63 C    0 0 0
  69 C    1     1.4025     2.6503   71 C   -1-1 0
  69 C    1     2.1678     4.0966   29 H    0 0 0
  69 C    1     2.4178     4.5690   65 C   -1-1 0
  69 C    1     2.4245     4.5817   61 C   -1-1 0

  70 C    1     1.0914     2.0624   36 H    0 0 0
  70 C    1     1.3914     2.6293   64 C    0 0 0
  70 C    1     1.4025     2.6503   72 C    0 0 0
  70 C    1     2.1678     4.0966   30 H    0 0 0
  70 C    1     2.4178     4.5690   66 C    0 0 0
  70 C    1     2.4245     4.5817   62 C    0 0 0

  71 C    1     1.4025     2.6503   69 C    1 1 0
  71 C    1     1.4025     2.6504   65 C    0 0 0
  71 C    1     1.5516     2.9322    9 B    0 0 0
  71 C    1     2.1486     4.0602   35 H    1 1 0
  71 C    1     2.1487     4.0605   31 H    0 0 0
  71 C    1     2.4251     4.5827   63 C    1 1 0

  72 C    1     1.4025     2.6503   70 C    0 0 0
  72 C    1     1.4025     2.6504   66 C    0 0 0
  72 C    1     1.5516     2.9322   10 B    0 0 0
  72 C    1     2.1486     4.0602   36 H    0 0 0
  72 C    1     2.1487     4.0605   32 H   -1-1 0
  72 C    1     2.4251     4.5827   64 C    0 0 0

  73 O    1     1.3791     2.6061    1 B    1 0 0
  73 O    1     1.3791     2.6061    5 B    1 1 0
  73 O    1     2.3880     4.5126   75 O    1 0 0
  73 O    1     2.3882     4.5130   77 O    1 1 0
  73 O    1     2.5383     4.7966   61 C    0 0 0
  73 O    1     2.5384     4.7968   49 C    0 0 0

  74 O    1     1.3791     2.6061    2 B    0 0 0
  74 O    1     1.3791     2.6061    6 B    0 0 0
  74 O    1     2.3880     4.5126   76 O    0 0 0
  74 O    1     2.3882     4.5130   78 O    0 0 0
  74 O    1     2.5383     4.7966   62 C    0 0 0
  74 O    1     2.5384     4.7968   50 C   -1-1 0

  75 O    1     1.3793     2.6065    1 B    0 0 0
  75 O    1     1.3793     2.6065    3 B    0 0 0
  75 O    1     2.3880     4.5126   73 O   -1 0 0
  75 O    1     2.3882     4.5131   77 O    0 1 0
  75 O    1     2.5391     4.7981   37 C    0 0 0
  75 O    1     2.5395     4.7990   49 C   -1 0 0

  76 O    1     1.3793     2.6065    2 B    0 0 0
  76 O    1     1.3793     2.6065    4 B    0 0 0
  76 O    1     2.3880     4.5126   74 O    0 0 0
  76 O    1     2.3882     4.5131   78 O    0 0 0
  76 O    1     2.5391     4.7981   38 C    0 0 0
  76 O    1     2.5395     4.7990   50 C   -1-1 0

  77 O    1     1.3793     2.6064    5 B    0 0 0
  77 O    1     1.3793     2.6065    3 B    0-1 0
  77 O    1     2.3882     4.5130   73 O   -1-1 0
  77 O    1     2.3882     4.5131   75 O    0-1 0
  77 O    1     2.5390     4.7980   37 C    0-1 0
  77 O    1     2.5391     4.7982   61 C   -1-1 0

  78 O    1     1.3793     2.6064    6 B    0 0 0
  78 O    1     1.3793     2.6065    4 B    0 0 0
  78 O    1     2.3882     4.5130   74 O    0 0 0
  78 O    1     2.3882     4.5131   76 O    0 0 0
  78 O    1     2.5390     4.7980   38 C    0 0 0
  78 O    1     2.5391     4.7982   62 C    0 0 0

  79 O    1     1.3795     2.6068   11 B    0 0 0
  79 O    1     1.3795     2.6068    7 B    0 0 0
  79 O    1     2.3880     4.5126   83 O    1 0 0
  79 O    1     2.3884     4.5134   81 O    0-1 0
  79 O    1     2.5400     4.7998   47 C    0 0 0
  79 O    1     2.5403     4.8005   59 C    0 0 0

  80 O    1     1.3795     2.6068   12 B    0 0 0
  80 O    1     1.3795     2.6068    8 B    0 0 0
  80 O    1     2.3880     4.5126   84 O    1 0 0
  80 O    1     2.3884     4.5134   82 O    0 0 0
  80 O    1     2.5400     4.7998   48 C    0 0 0
  80 O    1     2.5403     4.8005   60 C    0 0 0

  81 O    1     1.3795     2.6069    9 B    0 0 0
  81 O    1     1.3795     2.6070    7 B    0 1 0
  81 O    1     2.3881     4.5128   83 O    1 1 0
  81 O    1     2.3884     4.5134   79 O    0 1 0
  81 O    1     2.5404     4.8006   47 C    0 1 0
  81 O    1     2.5405     4.8008   71 C    0 0 0

  82 O    1     1.3795     2.6069   10 B    1 0 0
  82 O    1     1.3795     2.6070    8 B    0 0 0
  82 O    1     2.3881     4.5128   84 O    1 0 0
  82 O    1     2.3884     4.5134   80 O    0 0 0
  82 O    1     2.5404     4.8006   48 C    0 0 0
  82 O    1     2.5405     4.8008   72 C    1 0 0

  83 O    1     1.3796     2.6071   11 B   -1 0 0
  83 O    1     1.3797     2.6072    9 B   -1-1 0
  83 O    1     2.3880     4.5126   79 O   -1 0 0
  83 O    1     2.3881     4.5128   81 O   -1-1 0
  83 O    1     2.5409     4.8016   71 C   -1-1 0
  83 O    1     2.5410     4.8019   59 C   -1 0 0

  84 O    1     1.3796     2.6071   12 B   -1 0 0
  84 O    1     1.3797     2.6072   10 B    0 0 0
  84 O    1     2.3880     4.5126   80 O   -1 0 0
  84 O    1     2.3881     4.5128   82 O   -1 0 0
  84 O    1     2.5409     4.8016   72 C    0 0 0
  84 O    1     2.5410     4.8019   60 C   -1 0 0


 SYMMETRY ALLOWED INTERNAL DEGREE(S) OF FREEDOM: 249
 TTTTTTTTTTTTTTTTTTTTTTTTTTTTTT SYMM        TELAPSE        2.96 TCPU        2.96
 TTTTTTTTTTTTTTTTTTTTTTTTTTTTTT INT_SCREEN  TELAPSE        3.18 TCPU        3.17

 DFT PARAMETERS

     ATOM       ELECTRONS   NET CHARGE   R(ANGSTROM)
   1   5  B       5.0000      0.0000     0.89000000
  13   1  H       1.0000      0.0000     1.11000000
  37   6  C       6.0000      0.0000     0.77000000
  73   8  O       8.0000      0.0000     0.74000000

 SIZE OF GRID=    2504677
 TTTTTTTTTTTTTTTTTTTTTTTTTTTTTT MAKE_GRID2  TELAPSE       27.37 TCPU       27.34
 BECKE WEIGHT FUNCTION
 RADSAFE =     2.00
 TOLERANCES - DENSITY:10**- 6; POTENTIAL:10**- 9; GRID WGT:10**-14

 RADIAL INTEGRATION  - INTERVALS (POINTS,UPPER LIMIT):            1( 75,  4.0*R)

 ANGULAR INTEGRATION - INTERVALS (ACCURACY LEVEL [N. POINTS] UPPER LIMIT):
  1(  4[  86]   0.2)  2(  8[ 194]   0.5)  3( 12[ 350]   0.9)  4( 16[ 974]   3.5)
  5( 12[ 350]9999.0)
 TTTTTTTTTTTTTTTTTTTTTTTTTTTTTT INT_CALC    TELAPSE       27.67 TCPU       27.65
 EEEEEEEEEE INT_CALC TERMINATION  DATE 19 02 2026 TIME 20:03:48.4

 *******************************************************************************
 cof-1_z34_L020_serr                                                             
 CRYSTAL - SCF - TYPE OF CALCULATION :  RESTRICTED CLOSED SHELL
 *******************************************************************************

 CAPPA:IS1  2;IS2  2;IS3  8; K PTS MONK NET  20; SYMMOPS:K SPACE   2;G SPACE   1

 TTTTTTTTTTTTTTTTTTTTTTTTTTTTTT SDIK        TELAPSE       29.58 TCPU       55.04

 AAAAAAAAAAAAAAAAAAAAAAAAAAAAAAAAAAAAAAAAAAAAAAAAAAAAAAAAAAAAAAAAAAAAAAAAAAAAAAA
         ATOMIC WAVEFUNCTION(S)


 NUCLEAR CHARGE  5.0  SYMMETRY SPECIES            S    P
 N. ELECTRONS    5.0  NUMBER OF PRIMITIVE GTOS    8    4
                      NUMBER OF CONTRACTED GTOS   4    2
                      NUMBER OF CLOSED SHELLS     2    0
                      OPEN SHELL OCCUPATION       0    1

  ZNUC  SCFIT    TOTAL HF ENERGY   KINETIC ENERGY   VIRIAL THEOREM ACCURACY
   5.0    11    -2.451164084E+01  2.462155050E+01 -1.995536038E+00  1.5E-06

 NUCLEAR CHARGE  1.0  SYMMETRY SPECIES            S
 N. ELECTRONS    1.0  NUMBER OF PRIMITIVE GTOS    4
                      NUMBER OF CONTRACTED GTOS   2
                      NUMBER OF CLOSED SHELLS     0
                      OPEN SHELL OCCUPATION       1

  ZNUC  SCFIT    TOTAL HF ENERGY   KINETIC ENERGY   VIRIAL THEOREM ACCURACY
   1.0     1    -4.977266687E-01  5.190767460E-01 -1.958869132E+00  0.0E+00

 NUCLEAR CHARGE  6.0  SYMMETRY SPECIES            S    P
 N. ELECTRONS    6.0  NUMBER OF PRIMITIVE GTOS    8    4
                      NUMBER OF CONTRACTED GTOS   4    2
                      NUMBER OF CLOSED SHELLS     2    0
                      OPEN SHELL OCCUPATION       0    2

  ZNUC  SCFIT    TOTAL HF ENERGY   KINETIC ENERGY   VIRIAL THEOREM ACCURACY
   6.0     9    -3.766704647E+01  3.775180683E+01 -1.997754800E+00  1.1E-06

 NUCLEAR CHARGE  8.0  SYMMETRY SPECIES            S    P
 N. ELECTRONS    8.0  NUMBER OF PRIMITIVE GTOS    8    4
                      NUMBER OF CONTRACTED GTOS   4    2
                      NUMBER OF CLOSED SHELLS     2    0
                      OPEN SHELL OCCUPATION       0    4

  ZNUC  SCFIT    TOTAL HF ENERGY   KINETIC ENERGY   VIRIAL THEOREM ACCURACY
   8.0    12    -7.477373220E+01  7.477365593E+01 -2.000001020E+00  3.8E-06

 AAAAAAAAAAAAAAAAAAAAAAAAAAAAAAAAAAAAAAAAAAAAAAAAAAAAAAAAAAAAAAAAAAAAAAAAAAAAAAA

 CHARGE NORMALIZATION FACTOR   1.00000000
 TOTAL ATOMIC CHARGES:
   5.0000000   5.0000000   5.0000000   5.0000000   5.0000000   5.0000000
   5.0000000   5.0000000   5.0000000   5.0000000   5.0000000   5.0000000
   1.0000000   1.0000000   1.0000000   1.0000000   1.0000000   1.0000000
   1.0000000   1.0000000   1.0000000   1.0000000   1.0000000   1.0000000
   1.0000000   1.0000000   1.0000000   1.0000000   1.0000000   1.0000000
   1.0000000   1.0000000   1.0000000   1.0000000   1.0000000   1.0000000
   6.0000000   6.0000000   6.0000000   6.0000000   6.0000000   6.0000000
   6.0000000   6.0000000   6.0000000   6.0000000   6.0000000   6.0000000
   6.0000000   6.0000000   6.0000000   6.0000000   6.0000000   6.0000000
   6.0000000   6.0000000   6.0000000   6.0000000   6.0000000   6.0000000
   6.0000000   6.0000000   6.0000000   6.0000000   6.0000000   6.0000000
   6.0000000   6.0000000   6.0000000   6.0000000   6.0000000   6.0000000
   8.0000000   8.0000000   8.0000000   8.0000000   8.0000000   8.0000000
   8.0000000   8.0000000   8.0000000   8.0000000   8.0000000   8.0000000
 TTTTTTTTTTTTTTTTTTTTTTTTTTTTTT MOQGAD      TELAPSE       29.68 TCPU       58.50
 TTTTTTTTTTTTTTTTTTTTTTTTTTTTTT SHELLXN     TELAPSE       55.24 TCPU      875.14
 TTTTTTTTTTTTTTTTTTTTTTTTTTTTTT MONMO3      TELAPSE       55.92 TCPU      896.83
 NUMERICALLY INTEGRATED DENSITY    395.9999363595
 TTTTTTTTTTTTTTTTTTTTTTTTTTTTTT NUMDFT      TELAPSE       57.60 TCPU      950.40
 CYC   0 ETOT(AU) -2.591976203698E+03 DETOT -2.59E+03 tst  0.00E+00 PX  1.00E+00
 TTTTTTTTTTTTTTTTTTTTTTTTTTTTTT DIIS        TELAPSE       57.71 TCPU      953.99
 TTTTTTTTTTTTTTTTTTTTTTTTTTTTTT FDIK        TELAPSE       59.58 TCPU     1013.69
 INSULATING STATE
 TOP OF VALENCE BANDS -    BAND    198; K    3; EIG -3.0300460E-01 AU
 TOP OF VALENCE BANDS -    BAND    198; K    1; EIG -3.0303046E-01 AU
 BOTTOM OF VIRTUAL BANDS - BAND    199; K    1; EIG -1.5931543E-01 AU
 INDIRECT ENERGY BAND GAP:   3.9100 eV
 TTTTTTTTTTTTTTTTTTTTTTTTTTTTTT PDIG        TELAPSE       61.20 TCPU     1020.68
 CHARGE NORMALIZATION FACTOR   1.00000000
 TOTAL ATOMIC CHARGES:
   4.1541366   4.1093531   4.1325219   4.1492318   4.1327149   4.1494799
   4.1491294   4.1324379   4.1489451   4.1322327   4.1092115   4.1538043
   0.7859913   0.7865626   0.7866776   0.7861046   0.7843519   0.7859018
   0.7860170   0.7844813   0.7860848   0.7864004   0.7865656   0.7862503
   0.7860739   0.7863945   0.7865285   0.7862128   0.7843579   0.7859033
   0.7860832   0.7845494   0.7859426   0.7865169   0.7866706   0.7860980
   6.0511060   6.0492199   6.2700446   6.2711534   6.2711111   6.2700073
   6.2656712   6.2689085   6.2688484   6.2656021   6.0484780   6.0503211
   6.0451106   6.0522632   6.2671337   6.2662488   6.2663022   6.2672222
   6.2670410   6.2661677   6.2663151   6.2672261   6.0509431   6.0438535
   6.0514715   6.0495861   6.2654485   6.2686718   6.2692343   6.2659855
   6.2696693   6.2707719   6.2713868   6.2702794   6.0479702   6.0498483
   8.7068354   8.7061186   8.7069335   8.7062028   8.7082143   8.6931949
   8.7064922   8.7072446   8.6935927   8.7085708   8.7066454   8.7074125
 TTTTTTTTTTTTTTTTTTTTTTTTTTTTTT MOQGAD      TELAPSE       61.31 TCPU     1020.79
 TTTTTTTTTTTTTTTTTTTTTTTTTTTTTT SHELLXN     TELAPSE       87.95 TCPU     1870.86
 TTTTTTTTTTTTTTTTTTTTTTTTTTTTTT MONMO3      TELAPSE       88.63 TCPU     1892.72
 NUMERICALLY INTEGRATED DENSITY    395.9999408561
 TTTTTTTTTTTTTTTTTTTTTTTTTTTTTT NUMDFT      TELAPSE       90.33 TCPU     1946.93
 CYC   1 ETOT(AU) -2.577649445182E+03 DETOT  1.43E+01 tst  0.00E+00 PX  1.00E+00
 TTTTTTTTTTTTTTTTTTTTTTTTTTTTTT DIIS        TELAPSE       90.51 TCPU     1952.54
 DIIS TEST: 0.22395E+01 AT SCF   CYCLE   1 - MIX   30 %
 TTTTTTTTTTTTTTTTTTTTTTTTTTTTTT FDIK        TELAPSE       92.36 TCPU     2011.77
 INSULATING STATE
 TOP OF VALENCE BANDS -    BAND    198; K    1; EIG -2.0918741E-01 AU
 BOTTOM OF VIRTUAL BANDS - BAND    199; K    1; EIG -8.1190428E-02 AU
 DIRECT ENERGY BAND GAP:   3.4830 eV
 TTTTTTTTTTTTTTTTTTTTTTTTTTTTTT PDIG        TELAPSE       93.99 TCPU     2018.77
 CHARGE NORMALIZATION FACTOR   1.00000000
 TOTAL ATOMIC CHARGES:
   4.6584722   4.6914747   4.6875653   4.6805294   4.6875376   4.6805649
   4.6809118   4.6880458   4.6809173   4.6880348   4.6920574   4.6589640
   0.9156913   0.9176685   0.9177903   0.9157305   0.9192618   0.9203123
   0.9203727   0.9192523   0.9203578   0.9082586   0.9082798   0.9205117
   0.9203469   0.9082437   0.9082687   0.9204948   0.9192492   0.9203028
   0.9204452   0.9193198   0.9156253   0.9175878   0.9178062   0.9157108
   5.8789101   5.8524922   6.1584073   6.0692634   6.0698048   6.1589244
   6.1354374   6.1557611   6.1564044   6.1364266   5.8553673   5.8817306
   5.8014801   5.9443660   6.1174106   6.1474469   6.1482694   6.1181145
   6.1176102   6.1475930   6.1481744   6.1179548   5.9477885   5.8047637
   5.8788187   5.8524490   6.1354795   6.1557987   6.1562649   6.1363178
   6.1586769   6.0694606   6.0695516   6.1586452   5.8555484   5.8820455
   8.3423934   8.3530096   8.3428083   8.3533658   8.3870517   8.3414089
   8.3529076   8.3422263   8.3411294   8.3868353   8.3533304   8.3426108
 TTTTTTTTTTTTTTTTTTTTTTTTTTTTTT MOQGAD      TELAPSE       94.10 TCPU     2018.88
 TTTTTTTTTTTTTTTTTTTTTTTTTTTTTT SHELLXN     TELAPSE      120.75 TCPU     2869.45
 TTTTTTTTTTTTTTTTTTTTTTTTTTTTTT MONMO3      TELAPSE      121.44 TCPU     2891.39
 NUMERICALLY INTEGRATED DENSITY    395.9999253359
 TTTTTTTTTTTTTTTTTTTTTTTTTTTTTT NUMDFT      TELAPSE      123.09 TCPU     2943.99
 CYC   2 ETOT(AU) -2.578026459561E+03 DETOT -3.77E-01 tst  3.63E-03 PX  1.59E-01
 TTTTTTTTTTTTTTTTTTTTTTTTTTTTTT DIIS        TELAPSE      123.25 TCPU     2949.19
 DIIS TEST: 0.98043E+00 AT SCF   CYCLE   2 - DIIS ACTIVE - HISTORY:     2 CYCLES
 TTTTTTTTTTTTTTTTTTTTTTTTTTTTTT FDIK        TELAPSE      125.10 TCPU     3008.44
 INSULATING STATE
 TOP OF VALENCE BANDS -    BAND    198; K    3; EIG -2.2410054E-01 AU
 TOP OF VALENCE BANDS -    BAND    198; K    1; EIG -2.2462295E-01 AU
 BOTTOM OF VIRTUAL BANDS - BAND    199; K    9; EIG -7.5762318E-02 AU
 INDIRECT ENERGY BAND GAP:   4.0365 eV
 BOTTOM OF VIRTUAL BANDS - BAND    199; K    1; EIG -7.5634123E-02 AU
 TTTTTTTTTTTTTTTTTTTTTTTTTTTTTT PDIG        TELAPSE      126.72 TCPU     3015.43
 CHARGE NORMALIZATION FACTOR   1.00000000
 TOTAL ATOMIC CHARGES:
   4.4778737   4.4524924   4.4640613   4.4793543   4.4641850   4.4795140
   4.4786520   4.4634510   4.4785198   4.4632623   4.4518219   4.4770037
   0.8976127   0.8804323   0.8803816   0.8978692   0.8878313   0.8964935
   0.8965921   0.8878777   0.8880443   0.8878298   0.8882191   0.8880461
   0.8880749   0.8878728   0.8881492   0.8879943   0.8878224   0.8965037
   0.8966469   0.8879502   0.8976089   0.8804126   0.8803372   0.8978070
   5.8804933   5.9088095   6.1547320   6.1809825   6.1803455   6.1541161
   6.1726481   6.1614405   6.1605642   6.1713668   5.9070964   5.8786118
   5.9291429   5.8860149   6.1785734   6.1488993   6.1479061   6.1781281
   6.1786660   6.1489490   6.1478003   6.1780162   5.8836700   5.9271899
   5.8808012   5.9091705   6.1726291   6.1613338   6.1607075   6.1714555
   6.1546780   6.1809057   6.1803274   6.1541234   5.9067387   5.8783268
   8.5244024   8.5226074   8.5245881   8.5227518   8.5265333   8.5088890
   8.5226238   8.5246183   8.5091686   8.5262860   8.5227468   8.5248233
 TTTTTTTTTTTTTTTTTTTTTTTTTTTTTT MOQGAD      TELAPSE      126.83 TCPU     3015.54
 TTTTTTTTTTTTTTTTTTTTTTTTTTTTTT SHELLXN     TELAPSE      153.49 TCPU     3866.17
 TTTTTTTTTTTTTTTTTTTTTTTTTTTTTT MONMO3      TELAPSE      154.18 TCPU     3888.13
 NUMERICALLY INTEGRATED DENSITY    395.9999282279
 TTTTTTTTTTTTTTTTTTTTTTTTTTTTTT NUMDFT      TELAPSE      155.82 TCPU     3940.72
 CYC   3 ETOT(AU) -2.578224853462E+03 DETOT -1.98E-01 tst  6.54E-04 PX  6.46E-02
 TTTTTTTTTTTTTTTTTTTTTTTTTTTTTT DIIS        TELAPSE      156.01 TCPU     3946.74
 DIIS TEST: 0.41814E-01 AT SCF   CYCLE   3 - DIIS ACTIVE - HISTORY:     3 CYCLES
 TTTTTTTTTTTTTTTTTTTTTTTTTTTTTT FDIK        TELAPSE      157.89 TCPU     4006.80
 INSULATING STATE
 TOP OF VALENCE BANDS -    BAND    198; K    2; EIG -2.3366935E-01 AU
 TOP OF VALENCE BANDS -    BAND    198; K    1; EIG -2.3376815E-01 AU
 BOTTOM OF VIRTUAL BANDS - BAND    199; K    1; EIG -8.5722152E-02 AU
 INDIRECT ENERGY BAND GAP:   4.0258 eV
 TTTTTTTTTTTTTTTTTTTTTTTTTTTTTT PDIG        TELAPSE      159.52 TCPU     4013.80
 CHARGE NORMALIZATION FACTOR   1.00000000
 TOTAL ATOMIC CHARGES:
   4.4807709   4.4695710   4.4743396   4.4788855   4.4744495   4.4790165
   4.4794944   4.4749668   4.4793814   4.4748078   4.4700855   4.4813773
   0.8744742   0.8776150   0.8778261   0.8744309   0.8763831   0.8779465
   0.8780171   0.8763506   0.8805947   0.8693567   0.8692489   0.8808783
   0.8806183   0.8693755   0.8691948   0.8808426   0.8764012   0.8779600
   0.8780747   0.8763940   0.8744510   0.8775654   0.8778071   0.8743756
   5.9546316   5.9214454   6.1867541   6.1255768   6.1266855   6.1876354
   6.1683968   6.1768281   6.1782379   6.1707886   5.9258974   5.9590053
   5.8766710   6.0120719   6.1442416   6.1799556   6.1815898   6.1453250
   6.1441830   6.1799194   6.1816476   6.1453325   6.0166283   5.8809180
   5.9545888   5.9214622   6.1682533   6.1766920   6.1783261   6.1709406
   6.1866823   6.1254386   6.1267601   6.1876901   5.9259145   5.9591578
   8.4912343   8.5027938   8.4915739   8.5030799   8.5270954   8.4859591
   8.5030709   8.4912286   8.4859042   8.5274696   8.5034173   8.4915719
 TTTTTTTTTTTTTTTTTTTTTTTTTTTTTT MOQGAD      TELAPSE      159.63 TCPU     4013.91
 TTTTTTTTTTTTTTTTTTTTTTTTTTTTTT SHELLXN     TELAPSE      186.30 TCPU     4864.69
 TTTTTTTTTTTTTTTTTTTTTTTTTTTTTT MONMO3      TELAPSE      186.98 TCPU     4886.35
 NUMERICALLY INTEGRATED DENSITY    395.9999286739
 TTTTTTTTTTTTTTTTTTTTTTTTTTTTTT NUMDFT      TELAPSE      188.70 TCPU     4941.11
 CYC   4 ETOT(AU) -2.578231759241E+03 DETOT -6.91E-03 tst  1.81E-04 PX  3.13E-02
 TTTTTTTTTTTTTTTTTTTTTTTTTTTTTT DIIS        TELAPSE      188.92 TCPU     4948.03
 DIIS TEST: 0.16946E-01 AT SCF   CYCLE   4 - DIIS ACTIVE - HISTORY:     4 CYCLES
 TTTTTTTTTTTTTTTTTTTTTTTTTTTTTT FDIK        TELAPSE      190.80 TCPU     5007.78
 INSULATING STATE
 TOP OF VALENCE BANDS -    BAND    198; K    3; EIG -2.3402958E-01 AU
 TOP OF VALENCE BANDS -    BAND    198; K    1; EIG -2.3469196E-01 AU
 BOTTOM OF VIRTUAL BANDS - BAND    199; K    5; EIG -8.5175577E-02 AU
 INDIRECT ENERGY BAND GAP:   4.0505 eV
 BOTTOM OF VIRTUAL BANDS - BAND    199; K    1; EIG -8.5155422E-02 AU
 TTTTTTTTTTTTTTTTTTTTTTTTTTTTTT PDIG        TELAPSE      192.42 TCPU     5014.78
 CHARGE NORMALIZATION FACTOR   1.00000000
 TOTAL ATOMIC CHARGES:
   4.4778759   4.4720423   4.4768794   4.4836296   4.4769870   4.4837787
   4.4830676   4.4764915   4.4829470   4.4763333   4.4716333   4.4772347
   0.8790879   0.8728110   0.8727932   0.8793573   0.8762420   0.8796414
   0.8797966   0.8763495   0.8758859   0.8716148   0.8720040   0.8759077
   0.8758959   0.8716337   0.8719564   0.8758764   0.8762352   0.8796507
   0.8798559   0.8764200   0.8790569   0.8727649   0.8727694   0.8793121
   5.9264067   5.9307323   6.1744853   6.1507442   6.1499975   6.1738251
   6.1759748   6.1792105   6.1779849   6.1741315   5.9283165   5.9239506
   5.9201378   5.9544301   6.1726538   6.1659388   6.1648308   6.1721466
   6.1728016   6.1660225   6.1647097   6.1719774   5.9520310   5.9179571
   5.9266017   5.9309889   6.1759394   6.1791096   6.1780657   6.1741875
   6.1745246   6.1507390   6.1499339   6.1737594   5.9280969   5.9238326
   8.4978282   8.5011735   8.4980662   8.5013654   8.5175405   8.4897010
   8.5010422   8.4979715   8.4898178   8.5170316   8.5012508   8.4982157
 TTTTTTTTTTTTTTTTTTTTTTTTTTTTTT MOQGAD      TELAPSE      192.53 TCPU     5014.89
 TTTTTTTTTTTTTTTTTTTTTTTTTTTTTT SHELLXN     TELAPSE      219.25 TCPU     5867.64
 TTTTTTTTTTTTTTTTTTTTTTTTTTTTTT MONMO3      TELAPSE      219.93 TCPU     5889.33
 NUMERICALLY INTEGRATED DENSITY    395.9999284622
 TTTTTTTTTTTTTTTTTTTTTTTTTTTTTT NUMDFT      TELAPSE      221.63 TCPU     5943.38
 CYC   5 ETOT(AU) -2.578235799132E+03 DETOT -4.04E-03 tst  6.55E-05 PX  1.49E-02
 TTTTTTTTTTTTTTTTTTTTTTTTTTTTTT DIIS        TELAPSE      221.86 TCPU     5950.31
 DIIS TEST: 0.11176E-02 AT SCF   CYCLE   5 - DIIS ACTIVE - HISTORY:     5 CYCLES
 TTTTTTTTTTTTTTTTTTTTTTTTTTTTTT FDIK        TELAPSE      223.72 TCPU     6009.28
 INSULATING STATE
 TOP OF VALENCE BANDS -    BAND    198; K    3; EIG -2.3295587E-01 AU
 TOP OF VALENCE BANDS -    BAND    198; K    1; EIG -2.3338859E-01 AU
 BOTTOM OF VIRTUAL BANDS - BAND    199; K    5; EIG -8.4551011E-02 AU
 INDIRECT ENERGY BAND GAP:   4.0383 eV
 BOTTOM OF VIRTUAL BANDS - BAND    199; K    1; EIG -8.4542991E-02 AU
 TTTTTTTTTTTTTTTTTTTTTTTTTTTTTT PDIG        TELAPSE      225.34 TCPU     6016.27
 CHARGE NORMALIZATION FACTOR   1.00000000
 TOTAL ATOMIC CHARGES:
   4.4794778   4.4704767   4.4762031   4.4832306   4.4763109   4.4833696
   4.4837020   4.4766493   4.4835906   4.4764918   4.4708206   4.4798676
   0.8806412   0.8745243   0.8747032   0.8806339   0.8777359   0.8821440
   0.8821865   0.8776942   0.8797703   0.8734175   0.8733872   0.8800170
   0.8797958   0.8734443   0.8733278   0.8799754   0.8777427   0.8821536
   0.8822463   0.8777506   0.8806213   0.8744798   0.8746810   0.8805792
   5.9227747   5.9178151   6.1757806   6.1501830   6.1510943   6.1764856
   6.1722236   6.1736735   6.1750963   6.1745952   5.9219799   5.9267496
   5.9004856   5.9569263   6.1626903   6.1691823   6.1705115   6.1636196
   6.1626572   6.1691495   6.1705349   6.1636123   5.9605989   5.9039935
   5.9228532   5.9179585   6.1721387   6.1735580   6.1751962   6.1747088
   6.1757082   6.1500640   6.1511348   6.1765284   5.9218635   5.9267503
   8.5011110   8.5058692   8.5014036   8.5061119   8.5211617   8.4913972
   8.5061574   8.5011291   8.4914762   8.5216111   8.5064229   8.5014295
 TTTTTTTTTTTTTTTTTTTTTTTTTTTTTT MOQGAD      TELAPSE      225.45 TCPU     6016.38
 TTTTTTTTTTTTTTTTTTTTTTTTTTTTTT SHELLXN     TELAPSE      252.19 TCPU     6869.70
 TTTTTTTTTTTTTTTTTTTTTTTTTTTTTT MONMO3      TELAPSE      252.86 TCPU     6891.38
 NUMERICALLY INTEGRATED DENSITY    395.9999285957
 TTTTTTTTTTTTTTTTTTTTTTTTTTTTTT NUMDFT      TELAPSE      254.55 TCPU     6945.16
 CYC   6 ETOT(AU) -2.578236020864E+03 DETOT -2.22E-04 tst  5.99E-06 PX  4.67E-03
 TTTTTTTTTTTTTTTTTTTTTTTTTTTTTT DIIS        TELAPSE      254.81 TCPU     6952.20
 DIIS TEST: 0.29070E-03 AT SCF   CYCLE   6 - DIIS ACTIVE - HISTORY:     6 CYCLES
 TTTTTTTTTTTTTTTTTTTTTTTTTTTTTT FDIK        TELAPSE      256.66 TCPU     7010.99
 INSULATING STATE
 TOP OF VALENCE BANDS -    BAND    198; K    3; EIG -2.3309871E-01 AU
 TOP OF VALENCE BANDS -    BAND    198; K    1; EIG -2.3366413E-01 AU
 BOTTOM OF VIRTUAL BANDS - BAND    199; K    5; EIG -8.4470516E-02 AU
 INDIRECT ENERGY BAND GAP:   4.0444 eV
 BOTTOM OF VIRTUAL BANDS - BAND    199; K    1; EIG -8.4459674E-02 AU
 TTTTTTTTTTTTTTTTTTTTTTTTTTTTTT PDIG        TELAPSE      258.28 TCPU     7017.99
 CHARGE NORMALIZATION FACTOR   1.00000000
 TOTAL ATOMIC CHARGES:
   4.4803374   4.4707013   4.4762499   4.4837349   4.4763610   4.4838794
   4.4831694   4.4758650   4.4830524   4.4757051   4.4702736   4.4797293
   0.8805744   0.8749689   0.8749557   0.8808209   0.8778217   0.8819321
   0.8820912   0.8779237   0.8794343   0.8732454   0.8735992   0.8794667
   0.8794498   0.8732652   0.8735486   0.8794332   0.8778216   0.8819446
   0.8821478   0.8779866   0.8805493   0.8749265   0.8749294   0.8807706
   5.9268625   5.9230582   6.1761701   6.1491329   6.1485258   6.1756226
   6.1738534   6.1761482   6.1749385   6.1720568   5.9208756   5.9246926
   5.9071317   5.9597551   6.1649728   6.1687311   6.1677999   6.1645538
   6.1650758   6.1688018   6.1677105   6.1644203   5.9578262   5.9053748
   5.9270180   5.9232691   6.1737829   6.1760293   6.1750380   6.1721532
   6.1761721   6.1490867   6.1485006   6.1755923   5.9206942   5.9246158
   8.4995455   8.5044762   8.4997961   8.5046814   8.5211742   8.4910679
   8.5043981   8.4997200   8.4911502   8.5206751   8.5046275   8.4999784
 TTTTTTTTTTTTTTTTTTTTTTTTTTTTTT MOQGAD      TELAPSE      258.38 TCPU     7018.09
 TTTTTTTTTTTTTTTTTTTTTTTTTTTTTT SHELLXN     TELAPSE      285.00 TCPU     7867.39
 TTTTTTTTTTTTTTTTTTTTTTTTTTTTTT MONMO3      TELAPSE      285.69 TCPU     7889.34
 NUMERICALLY INTEGRATED DENSITY    395.9999285454
 TTTTTTTTTTTTTTTTTTTTTTTTTTTTTT NUMDFT      TELAPSE      287.34 TCPU     7941.98
 CYC   7 ETOT(AU) -2.578236075998E+03 DETOT -5.51E-05 tst  8.92E-07 PX  1.48E-03
 TTTTTTTTTTTTTTTTTTTTTTTTTTTTTT DIIS        TELAPSE      287.62 TCPU     7948.95
 DIIS TEST: 0.61986E-04 AT SCF   CYCLE   7 - DIIS ACTIVE - HISTORY:     7 CYCLES
 TTTTTTTTTTTTTTTTTTTTTTTTTTTTTT FDIK        TELAPSE      289.48 TCPU     8007.76
 INSULATING STATE
 TOP OF VALENCE BANDS -    BAND    198; K    3; EIG -2.3315785E-01 AU
 TOP OF VALENCE BANDS -    BAND    198; K    1; EIG -2.3370848E-01 AU
 BOTTOM OF VIRTUAL BANDS - BAND    199; K    5; EIG -8.4495981E-02 AU
 INDIRECT ENERGY BAND GAP:   4.0453 eV
 BOTTOM OF VIRTUAL BANDS - BAND    199; K    1; EIG -8.4484738E-02 AU
 TTTTTTTTTTTTTTTTTTTTTTTTTTTTTT PDIG        TELAPSE      291.10 TCPU     8014.75
 CHARGE NORMALIZATION FACTOR   1.00000000
 TOTAL ATOMIC CHARGES:
   4.4798901   4.4706774   4.4761959   4.4834940   4.4763053   4.4836371
   4.4834785   4.4762483   4.4833627   4.4760892   4.4706616   4.4797975
   0.8806211   0.8747839   0.8748713   0.8807401   0.8777770   0.8818858
   0.8819787   0.8778011   0.8792362   0.8733018   0.8734588   0.8793783
   0.8792553   0.8733254   0.8734046   0.8793415   0.8777786   0.8818964
   0.8820374   0.8778627   0.8805976   0.8747403   0.8748469   0.8806885
   5.9251700   5.9219511   6.1754420   6.1490252   6.1491754   6.1755207
   6.1729834   6.1753864   6.1755934   6.1734143   5.9231109   5.9262140
   5.9062898   5.9580744   6.1649454   6.1679753   6.1681984   6.1652269
   6.1649970   6.1680003   6.1681535   6.1651425   5.9590095   5.9072204
   5.9252987   5.9221412   6.1729144   6.1752735   6.1756876   6.1735088
   6.1754184   6.1489545   6.1491725   6.1755157   5.9229512   5.9261648
   8.4995306   8.5042334   8.4997989   8.5044537   8.5205737   8.4908320
   8.5043303   8.4996086   8.4909286   8.5205850   8.5045732   8.4998840
 TTTTTTTTTTTTTTTTTTTTTTTTTTTTTT MOQGAD      TELAPSE      291.21 TCPU     8014.86
 TTTTTTTTTTTTTTTTTTTTTTTTTTTTTT SHELLXN     TELAPSE      317.94 TCPU     8867.91
 TTTTTTTTTTTTTTTTTTTTTTTTTTTTTT MONMO3      TELAPSE      318.62 TCPU     8889.76
 NUMERICALLY INTEGRATED DENSITY    395.9999285313
 TTTTTTTTTTTTTTTTTTTTTTTTTTTTTT NUMDFT      TELAPSE      320.29 TCPU     8943.00
 CYC   8 ETOT(AU) -2.578236091528E+03 DETOT -1.55E-05 tst  1.79E-07 PX  5.46E-04
 TTTTTTTTTTTTTTTTTTTTTTTTTTTTTT DIIS        TELAPSE      320.59 TCPU     8949.93
 DIIS TEST: 0.21587E-05 AT SCF   CYCLE   8 - DIIS ACTIVE - HISTORY:     8 CYCLES
 TTTTTTTTTTTTTTTTTTTTTTTTTTTTTT FDIK        TELAPSE      322.44 TCPU     9008.78
 INSULATING STATE
 TOP OF VALENCE BANDS -    BAND    198; K    3; EIG -2.3317261E-01 AU
 TOP OF VALENCE BANDS -    BAND    198; K    1; EIG -2.3370625E-01 AU
 BOTTOM OF VIRTUAL BANDS - BAND    199; K    5; EIG -8.4524362E-02 AU
 INDIRECT ENERGY BAND GAP:   4.0449 eV
 BOTTOM OF VIRTUAL BANDS - BAND    199; K    1; EIG -8.4513311E-02 AU
 TTTTTTTTTTTTTTTTTTTTTTTTTTTTTT PDIG        TELAPSE      324.06 TCPU     9015.77
 CHARGE NORMALIZATION FACTOR   1.00000000
 TOTAL ATOMIC CHARGES:
   4.4797656   4.4709019   4.4764010   4.4835614   4.4765099   4.4837040
   4.4834654   4.4763939   4.4833502   4.4762354   4.4708287   4.4796032
   0.8805761   0.8747216   0.8747941   0.8807106   0.8777338   0.8818429
   0.8819495   0.8777713   0.8792209   0.8732581   0.8734432   0.8793493
   0.8792404   0.8732816   0.8733886   0.8793123   0.8777358   0.8818535
   0.8820081   0.8778324   0.8805526   0.8746777   0.8747700   0.8806588
   5.9253184   5.9222008   6.1753951   6.1492653   6.1493251   6.1753976
   6.1732613   6.1753814   6.1753504   6.1733322   5.9228441   5.9258773
   5.9062387   5.9582068   6.1649346   6.1681684   6.1682279   6.1651073
   6.1649803   6.1681901   6.1681884   6.1650284   5.9587414   5.9067990
   5.9254429   5.9223867   6.1731906   6.1752678   6.1754454   6.1734281
   6.1753689   6.1491922   6.1493246   6.1753958   5.9226884   5.9258322
   8.4996517   8.5043361   8.4999214   8.5045578   8.5205032   8.4907714
   8.5044147   8.4997501   8.4908530   8.5204261   8.5046589   8.5000272
 TTTTTTTTTTTTTTTTTTTTTTTTTTTTTT MOQGAD      TELAPSE      324.17 TCPU     9015.88
 TTTTTTTTTTTTTTTTTTTTTTTTTTTTTT SHELLXN     TELAPSE      350.86 TCPU     9867.72
 TTTTTTTTTTTTTTTTTTTTTTTTTTTTTT MONMO3      TELAPSE      351.55 TCPU     9889.74
 NUMERICALLY INTEGRATED DENSITY    395.9999285270
 TTTTTTTTTTTTTTTTTTTTTTTTTTTTTT NUMDFT      TELAPSE      353.20 TCPU     9942.35
 CYC   9 ETOT(AU) -2.578236091615E+03 DETOT -8.70E-08 tst  3.96E-09 PX  1.11E-04
 TTTTTTTTTTTTTTTTTTTTTTTTTTTTTT DIIS        TELAPSE      353.52 TCPU     9949.34
 DIIS TEST: 0.20441E-06 AT SCF   CYCLE   9 - DIIS ACTIVE - HISTORY:     9 CYCLES
 TTTTTTTTTTTTTTTTTTTTTTTTTTTTTT FDIK        TELAPSE      355.37 TCPU    10008.12
 INSULATING STATE
 TOP OF VALENCE BANDS -    BAND    198; K    3; EIG -2.3316596E-01 AU
 TOP OF VALENCE BANDS -    BAND    198; K    1; EIG -2.3371495E-01 AU
 BOTTOM OF VIRTUAL BANDS - BAND    199; K    5; EIG -8.4524260E-02 AU
 INDIRECT ENERGY BAND GAP:   4.0447 eV
 BOTTOM OF VIRTUAL BANDS - BAND    199; K    1; EIG -8.4513132E-02 AU
 TTTTTTTTTTTTTTTTTTTTTTTTTTTTTT PDIG        TELAPSE      357.02 TCPU    10015.14
 CHARGE NORMALIZATION FACTOR   1.00000000
 TOTAL ATOMIC CHARGES:
   4.4798046   4.4708743   4.4763510   4.4835511   4.4764603   4.4836942
   4.4834652   4.4763483   4.4833495   4.4761895   4.4708072   4.4796460
   0.8805599   0.8747499   0.8748244   0.8806957   0.8777566   0.8818363
   0.8819386   0.8777916   0.8792107   0.8732539   0.8734368   0.8793387
   0.8792292   0.8732767   0.8733832   0.8793025   0.8777581   0.8818472
   0.8819969   0.8778533   0.8805361   0.8747064   0.8747998   0.8806444
   5.9252919   5.9220759   6.1755379   6.1491535   6.1492059   6.1755359
   6.1731439   6.1754522   6.1754712   6.1732799   5.9227911   5.9259089
   5.9063444   5.9581394   6.1649541   6.1681500   6.1682236   6.1651442
   6.1650128   6.1681823   6.1681723   6.1650528   5.9586940   5.9069198
   5.9254241   5.9222684   6.1730741   6.1753380   6.1755667   6.1733752
   6.1755180   6.1490864   6.1491995   6.1755274   5.9226289   5.9258560
   8.4996296   8.5043203   8.4998950   8.5045382   8.5205839   8.4908499
   8.5043943   8.4997207   8.4909441   8.5205269   8.5046350   8.4999934
 TTTTTTTTTTTTTTTTTTTTTTTTTTTTTT MOQGAD      TELAPSE      357.13 TCPU    10015.25
 TTTTTTTTTTTTTTTTTTTTTTTTTTTTTT SHELLXN     TELAPSE      383.79 TCPU    10865.91
 +++ ENERGIES IN A.U. +++
 ::: EXT EL-POLE                                  -2.9484949237624E+03
 ::: EXT EL-SPHEROPOLE                             3.3736894176836E+01
 ::: BIELET ZONE E-E                               4.7898871314065E+03
 ::: TOTAL E-E                                     1.8751291018209E+03
 ::: TOTAL E-N + N-E                              -7.3987050321107E+03
 ::: TOTAL N-N                                     6.5291269226723E+02
 ::: KINETIC ENERGY                                2.5598713352830E+03
 ::: PSEUDO TOTAL   ENERGY                        -2.3107919027396E+03
 ::: VIRIAL COEFFICIENT                            1.0511387095291E+00
 TTTTTTTTTTTTTTTTTTTTTTTTTTTTTT MONMO3      TELAPSE      384.47 TCPU    10887.57
 NUMERICALLY INTEGRATED DENSITY    395.9999285292
 EXCHANGE ENERGY: -0.252033582706E+03  CORRELATION ENERGY: -0.154106061976E+02
 TTTTTTTTTTTTTTTTTTTTTTTTTTTTTT NUMDFT      TELAPSE      386.18 TCPU    10942.29
 CYC  10 ETOT(AU) -2.578236091643E+03 DETOT -2.74E-08 tst  5.34E-10 PX  1.11E-04

 == SCF ENDED - CONVERGENCE ON ENERGY      E(AU) -2.5782360916426E+03 CYCLES  10


 ENERGY EXPRESSION=HARTREE+FOCK EXCH*0.00000+(HSESOL     EXCH)*1.00000+PBESOL     CORR


 TOTAL ENERGY(DFT)(AU)( 10) -2.5782360916426E+03 DE-2.7E-08 tester 5.3E-10
 TTTTTTTTTTTTTTTTTTTTTTTTTTTTTT EDFT        TELAPSE      386.18 TCPU    10942.30
 
 INFORMATION **** DFTD3 ENERGY **** CALCULATE DFTD3 ENERGY

           DFT-D V3(BJ)
 DF                                         hsesol3c  
 parameters
 s6       :    1.0000
 s8       :    0.0000
 a1       :    0.5196
 a2       :    4.9385
 k1 k3    :   16.0000   -4.0000
 Cutoff   :   50.2022
 CN-Cutoff:   21.1671
 ABC-Cutoff:   21.1671
 
 Edisp /kcal,au:   -61.5751 -0.09812620

 E6    /kcal :   -66.0962
 E8    /kcal :     0.0000
 E6(ABC) "   :   4.521021
 
 INFORMATION **** DFTD3 ENERGY **** NORMAL TERMINATION OF DFTD3 MODULE

 GCP ENERGY CALCULATION
  level        hsesol3c            basis:hsesol3c
  Nbf            948
  Atoms           84

  Parameters: 
  sigma     1.0000
  eta       1.4281
  alpha     0.2936
  beta      1.9467

  dmp_scal      4.0000
  dmp_exp       6.0000
 cutoffs: 
   distance [bohr] 60.0
   noise    [a.u.] 2.2E-16
 SR-damping   T
 ** gCP correction **
  Egcp:        0.1677912942 / (a.u.) ||     105.2906 / (kcal/mol)
 INFORMATION **** GCP **** NORMAL TERMINATION OF GCP MODULE

 *******************************************************************************

 DFT-D3-GCP DISPERSION AND COUNTERPOISE CORRECTION

 D3 DISPERSION ENERGY (AU)      -9.8126204910981E-02
 GCP ENERGY (AU)                 1.6779129424721E-01
 TOTAL ENERGY + DISP + GCP (AU) -2.5781664265533E+03

 *******************************************************************************

 EIGENVECTORS IN FORTRAN UNIT  8
 TTTTTTTTTTTTTTTTTTTTTTTTTTTTTT END         TELAPSE      389.65 TCPU    10951.66
 EEEEEEEEEE TERMINATION  DATE 19 02 2026 TIME 20:09:50.3
