 Default number of threads is:           32

         
 *******************************************************************************
 *                                                                             *
 *                               CRYSTAL23                                     *
 *                      public : 1.0.1 - October 2022                          *
 *                       HTTP://WWW.CRYSTAL.UNITO.IT                           *
 *                                                                             *
 *                              MAIN AUTHORS                                   *
 *                                                                             *
 *  R. DOVESI(1,11), V.R. SAUNDERS(2), C. ROETTI(1,11), R. ORLANDO(1,11),      *
 *  C.M. ZICOVICH-WILSON(1,3), F. PASCALE(4), B. CIVALLERI(1,11),              *
 *  K. DOLL(5), N.M. HARRISON(6), I.J. BUSH(7), Ph. D'ARCO(8),                 *
 *  M. LLUNELL(9), M. CAUSA'(10), Y. NOEL(8), L. MASCHIO(1,11), A. ERBA(1,11)  *
 *  M. RE'RAT(14), S. CASASSA(1,11), B.G. SEARLE(2), J.K. DESMARAIS(1)         *
 *                                                                             *
 *        CONTRIBUTIONS TO THE CODE HAVE ALSO BEEN GIVEN BY                    *
 *                                                                             *
 *  M. FERRABONE(1,11), M. DE LA PIERRE(1,11), M. FERRERO(1,11),               *
 *  J. BAIMA(1,11), E. ALBANESE(1,11), M.F. PEINTINGER(12), R. BAST(13),       *
 *  B. KIRTMAN(15), V. LACIVITA(1,11), R. DEMICHELIS(1,16)                     *
 *  G. BRANDEBURG(17), S. SALUSTRO(1,11), G. SANSONE(1,11)                     *
 *  M.T. RUGGIERO(18), L.E. DAGA(1), L. DONA'(1), A. COSSARD(1)                *
 *                                                                             *
 * (1) THEORETICAL CHEMISTRY GROUP - UNIVERSITA' DI TORINO - TORINO (ITALY)    *
 * (2) SCIENTIFIC COMPUTING DEPARTMENT - STFC DARESBURY (UK)                   *
 * (3) UNIVERSIDAD AUTONOMA DEL ESTADO DE MORELOS - CUERNAVACA (MEXICO)        *
 * (4) UNIVERSITE' DE LORRAINE - NANCY (FRANCE)                                *
 * (5) UNIVERSITAET STUTTGART- STUTTGART (GERMANY)                             *
 * (6) IMPERIAL COLLEGE - LONDON (UK)                                          *
 * (7) SCIENTIFIC COMPUTING DEPARTMENT - STFC RAL (UK)                         *
 * (8) UPMC - SORBONNE UNIVERSITES - PARIS (FRANCE)                            *
 * (9) UNIVERSIDAD DE BARCELONA - BARCELONA (SPAIN)                            *
 *(10) UNIVERSITA' DI NAPOLI "FEDERICO II" - NAPOLI (ITALY)                    *
 *(11) NIS - NANOSTRUCTURED INTERFACES AND SURFACES - TORINO (ITALY)           *
 *(12) MPI FUER CHEMISCHE ENERGIEKONVERSION - MUELHEIM AN DER RUHR (GERMANY)   *
 *(13) UNIVERSITY OF TROMSO - TROMSO (NORWAY)                                  *
 *(14) UNIVERSITE' DE PAU ET DES PAYS DE L'ADOUR - PAU (FRANCE)                *
 *(15) UNIVERSITY OF CALIFORNIA SANTA BARBARA - SANTA BARBARA (USA)            *
 *(16) CURTIN UNIVERSITY - PERTH (AUSTRALIA)                                   *
 *(17) UNIVERSITY COLLEGE LONDON - LONDON (UK)                                 *
 *(18) UNIVERSITY OF VERMONT - BURLINGTON (USA)                                *
 *                                                                             *
 *******************************************************************************
 EEEEEEEEEE STARTING  DATE 02 12 2025 TIME 08:00:39.7
 COF-5_z36_inc_L040                                                              

 CRYSTAL CALCULATION
 (INPUT ACCORDING TO THE INTERNATIONAL TABLES FOR X-RAY CRYSTALLOGRAPHY)
 CRYSTAL FAMILY                       :  TRICLINIC   
 CRYSTAL CLASS  (GROTH - 1921)        :  TRICLINIC PEDIAL                     

 SPACE GROUP (NONCENTROSYMMETRIC)     :  P 1             

 LATTICE PARAMETERS  (ANGSTROMS AND DEGREES) - CONVENTIONAL CELL
        A           B           C        ALPHA        BETA       GAMMA
    15.02070    15.04439     5.38145    49.95955    89.99952   120.05310


 NUMBER OF IRREDUCIBLE ATOMS IN THE CONVENTIONAL CELL:   42

 INPUT COORDINATES

 ATOM AT. N.              COORDINATES
   1   5     5.384796900000E-01  7.429130000000E-02  5.006370600000E-01
   2   5     6.972575600000E-01  2.333149500000E-01  5.006470500000E-01
   3   5     5.382461600000E-01  2.334415800000E-01  4.992171200000E-01
   4   5     1.509144400000E-01  4.591023700000E-01  5.054319000000E-01
   5   5     3.088659800000E-01  4.573594000000E-01  5.094756700000E-01
   6   5     3.100576700000E-01  6.185303600000E-01  5.035102200000E-01
   7   1     8.266840600000E-01  1.545673800000E-01  5.045353300000E-01
   8   1     2.291773000000E-02  5.400189100000E-01  4.929453800000E-01
   9   1     8.285567500000E-01  4.427619100000E-01  4.928070900000E-01
  10   1     2.118991000000E-02  2.519136600000E-01  5.041039200000E-01
  11   1     5.167105600000E-01  7.483429200000E-01  5.042259800000E-01
  12   1     3.320575200000E-01 -5.328643000000E-02  4.945775500000E-01
  13   1     2.335158800000E-01  7.526003100000E-01  4.958843500000E-01
  14   1     6.150989100000E-01 -5.739532000000E-02  5.023647200000E-01
  15   1     5.173009500000E-01  5.376582800000E-01  4.977817700000E-01
  16   1     3.287144900000E-01  1.535008200000E-01  5.060646300000E-01
  17   1     2.314066600000E-01  2.495343700000E-01  5.056997600000E-01
  18   1     6.149485400000E-01  4.415123200000E-01  4.987151900000E-01
  19   6     8.165885800000E-01  2.928208300000E-01  5.003970600000E-01
  20   6     8.708406900000E-01  2.391018700000E-01  5.021631000000E-01
  21   6    -2.115727000000E-02  4.554018600000E-01  4.957704100000E-01
  22   6     8.718123100000E-01  4.017733900000E-01  4.961075600000E-01
  23   6    -2.202950000000E-02  2.928645500000E-01  5.015194100000E-01
  24   6     3.280818000000E-02  4.012072700000E-01  4.993362200000E-01
  25   6     3.692721500000E-01  7.384076600000E-01  5.018784800000E-01
  26   6     4.770853000000E-01  7.927698500000E-01  5.022686400000E-01
  27   6     3.714387600000E-01 -9.806435000000E-02  4.969924500000E-01
  28   6     3.171480900000E-01  7.946368100000E-01  4.981110900000E-01
  29   6     5.313900600000E-01 -9.992210000000E-02  5.008312900000E-01
  30   6     4.789608300000E-01 -4.442994000000E-02  4.992070800000E-01
  31   6     3.691655700000E-01  3.999378700000E-01  4.999782700000E-01
  32   6     4.770997300000E-01  4.533622500000E-01  4.994268100000E-01
  33   6     3.695652100000E-01  2.379433400000E-01  5.039501900000E-01
  34   6     3.157574100000E-01  2.911756800000E-01  5.033422700000E-01
  35   6     5.307687900000E-01  4.000094900000E-01  5.003651400000E-01
  36   6     4.778228500000E-01  2.919047300000E-01  5.016069500000E-01
  37   8     4.855216800000E-01  1.274231600000E-01  4.996069800000E-01
  38   8     6.442204400000E-01  1.268019300000E-01  5.025969200000E-01
  39   8     6.445252400000E-01  2.869340200000E-01  4.980773600000E-01
  40   8     2.041672800000E-01  5.657898300000E-01  5.027435900000E-01
  41   8     2.027738400000E-01  4.044282200000E-01  5.102310900000E-01
  42   8     3.625949500000E-01  5.647409500000E-01  5.052152400000E-01

 *******************************************************************************

 << INFORMATION >>: FROM NOW ON, ALL COORDINATES REFER TO THE PRIMITIVE CELL

 *******************************************************************************

 LATTICE PARAMETERS  (ANGSTROMS AND DEGREES) - PRIMITIVE CELL
       A          B          C        ALPHA      BETA     GAMMA        VOLUME
   15.02070   15.04439    5.38145    49.95955  89.99952 120.05310    704.196544

 COORDINATES OF THE EQUIVALENT ATOMS (FRACTIONAL UNITS)

 N. ATOM EQUIV AT. N.          X                  Y                  Z

   1   1   1    5 B    -4.61520310000E-01  7.42913000000E-02 -4.99362940000E-01

   2   2   1    5 B    -3.02742440000E-01  2.33314950000E-01 -4.99352950000E-01

   3   3   1    5 B    -4.61753840000E-01  2.33441580000E-01  4.99217120000E-01

   4   4   1    5 B     1.50914440000E-01  4.59102370000E-01 -4.94568100000E-01

   5   5   1    5 B     3.08865980000E-01  4.57359400000E-01 -4.90524330000E-01

   6   6   1    5 B     3.10057670000E-01 -3.81469640000E-01 -4.96489780000E-01

   7   7   1    1 H    -1.73315940000E-01  1.54567380000E-01 -4.95464670000E-01

   8   8   1    1 H     2.29177300000E-02 -4.59981090000E-01  4.92945380000E-01

   9   9   1    1 H    -1.71443250000E-01  4.42761910000E-01  4.92807090000E-01

  10  10   1    1 H     2.11899100000E-02  2.51913660000E-01 -4.95896080000E-01

  11  11   1    1 H    -4.83289440000E-01 -2.51657080000E-01 -4.95774020000E-01

  12  12   1    1 H     3.32057520000E-01 -5.32864300000E-02  4.94577550000E-01

  13  13   1    1 H     2.33515880000E-01 -2.47399690000E-01  4.95884350000E-01

  14  14   1    1 H    -3.84901090000E-01 -5.73953200000E-02 -4.97635280000E-01

  15  15   1    1 H    -4.82699050000E-01 -4.62341720000E-01  4.97781770000E-01

  16  16   1    1 H     3.28714490000E-01  1.53500820000E-01 -4.93935370000E-01

  17  17   1    1 H     2.31406660000E-01  2.49534370000E-01 -4.94300240000E-01

  18  18   1    1 H    -3.85051460000E-01  4.41512320000E-01  4.98715190000E-01

  19  19   1    6 C    -1.83411420000E-01  2.92820830000E-01 -4.99602940000E-01

  20  20   1    6 C    -1.29159310000E-01  2.39101870000E-01 -4.97836900000E-01

  21  21   1    6 C    -2.11572700000E-02  4.55401860000E-01  4.95770410000E-01

  22  22   1    6 C    -1.28187690000E-01  4.01773390000E-01  4.96107560000E-01

  23  23   1    6 C    -2.20295000000E-02  2.92864550000E-01 -4.98480590000E-01

  24  24   1    6 C     3.28081800000E-02  4.01207270000E-01  4.99336220000E-01

  25  25   1    6 C     3.69272150000E-01 -2.61592340000E-01 -4.98121520000E-01

  26  26   1    6 C     4.77085300000E-01 -2.07230150000E-01 -4.97731360000E-01

  27  27   1    6 C     3.71438760000E-01 -9.80643500000E-02  4.96992450000E-01

  28  28   1    6 C     3.17148090000E-01 -2.05363190000E-01  4.98111090000E-01

  29  29   1    6 C    -4.68609940000E-01 -9.99221000000E-02 -4.99168710000E-01

  30  30   1    6 C     4.78960830000E-01 -4.44299400000E-02  4.99207080000E-01

  31  31   1    6 C     3.69165570000E-01  3.99937870000E-01  4.99978270000E-01

  32  32   1    6 C     4.77099730000E-01  4.53362250000E-01  4.99426810000E-01

  33  33   1    6 C     3.69565210000E-01  2.37943340000E-01 -4.96049810000E-01

  34  34   1    6 C     3.15757410000E-01  2.91175680000E-01 -4.96657730000E-01

  35  35   1    6 C    -4.69231210000E-01  4.00009490000E-01 -4.99634860000E-01

  36  36   1    6 C     4.77822850000E-01  2.91904730000E-01 -4.98393050000E-01

  37  37   1    8 O     4.85521680000E-01  1.27423160000E-01  4.99606980000E-01

  38  38   1    8 O    -3.55779560000E-01  1.26801930000E-01 -4.97403080000E-01

  39  39   1    8 O    -3.55474760000E-01  2.86934020000E-01  4.98077360000E-01

  40  40   1    8 O     2.04167280000E-01 -4.34210170000E-01 -4.97256410000E-01

  41  41   1    8 O     2.02773840000E-01  4.04428220000E-01 -4.89768910000E-01

  42  42   1    8 O     3.62594950000E-01 -4.35259050000E-01 -4.94784760000E-01

 NUMBER OF SYMMETRY OPERATORS         :    1
 *******************************************************************************
 * GEOMETRY EDITING - INPUT COORDINATES ARE GIVEN IN ANGSTROM         
 *******************************************************************************

 GCALCO - MAX INDICES DIRECT LATTICE VECTOR     9    11    29
 NO.OF VECTORS CREATED 6999 STARS 3500 RMAX   199.68565 BOHR

 GEOMETRY FOR WAVE FUNCTION - DIMENSIONALITY OF THE SYSTEM    3
 (NON PERIODIC DIRECTION: LATTICE PARAMETER FORMALLY SET TO 500)
 *******************************************************************************
 LATTICE PARAMETERS (ANGSTROMS AND DEGREES) - BOHR = 0.5291772083 ANGSTROM
 PRIMITIVE CELL - CENTRING CODE 1/0 VOLUME=   704.196544 - DENSITY  0.920 g/cm^3
         A              B              C           ALPHA      BETA       GAMMA 
    15.02070100    15.04438700     5.38145000    49.959548  89.999522 120.053104
 *******************************************************************************
 ATOMS IN THE ASYMMETRIC UNIT   42 - ATOMS IN THE UNIT CELL:   42
     ATOM                 X/A                 Y/B                 Z/C    
 *******************************************************************************
      1 T   5 B    -4.615203100000E-01  7.429130000000E-02 -4.993629400000E-01
      2 T   5 B    -3.027424400000E-01  2.333149500000E-01 -4.993529500000E-01
      3 T   5 B    -4.617538400000E-01  2.334415800000E-01  4.992171200000E-01
      4 T   5 B     1.509144400000E-01  4.591023700000E-01 -4.945681000000E-01
      5 T   5 B     3.088659800000E-01  4.573594000000E-01 -4.905243300000E-01
      6 T   5 B     3.100576700000E-01 -3.814696400000E-01 -4.964897800000E-01
      7 T   1 H    -1.733159400000E-01  1.545673800000E-01 -4.954646700000E-01
      8 T   1 H     2.291773000000E-02 -4.599810900000E-01  4.929453800000E-01
      9 T   1 H    -1.714432500000E-01  4.427619100000E-01  4.928070900000E-01
     10 T   1 H     2.118991000000E-02  2.519136600000E-01 -4.958960800000E-01
     11 T   1 H    -4.832894400000E-01 -2.516570800000E-01 -4.957740200000E-01
     12 T   1 H     3.320575200000E-01 -5.328643000000E-02  4.945775500000E-01
     13 T   1 H     2.335158800000E-01 -2.473996900000E-01  4.958843500000E-01
     14 T   1 H    -3.849010900000E-01 -5.739532000000E-02 -4.976352800000E-01
     15 T   1 H    -4.826990500000E-01 -4.623417200000E-01  4.977817700000E-01
     16 T   1 H     3.287144900000E-01  1.535008200000E-01 -4.939353700000E-01
     17 T   1 H     2.314066600000E-01  2.495343700000E-01 -4.943002400000E-01
     18 T   1 H    -3.850514600000E-01  4.415123200000E-01  4.987151900000E-01
     19 T   6 C    -1.834114200000E-01  2.928208300000E-01 -4.996029400000E-01
     20 T   6 C    -1.291593100000E-01  2.391018700000E-01 -4.978369000000E-01
     21 T   6 C    -2.115727000000E-02  4.554018600000E-01  4.957704100000E-01
     22 T   6 C    -1.281876900000E-01  4.017733900000E-01  4.961075600000E-01
     23 T   6 C    -2.202950000000E-02  2.928645500000E-01 -4.984805900000E-01
     24 T   6 C     3.280818000000E-02  4.012072700000E-01  4.993362200000E-01
     25 T   6 C     3.692721500000E-01 -2.615923400000E-01 -4.981215200000E-01
     26 T   6 C     4.770853000000E-01 -2.072301500000E-01 -4.977313600000E-01
     27 T   6 C     3.714387600000E-01 -9.806435000000E-02  4.969924500000E-01
     28 T   6 C     3.171480900000E-01 -2.053631900000E-01  4.981110900000E-01
     29 T   6 C    -4.686099400000E-01 -9.992210000000E-02 -4.991687100000E-01
     30 T   6 C     4.789608300000E-01 -4.442994000000E-02  4.992070800000E-01
     31 T   6 C     3.691655700000E-01  3.999378700000E-01  4.999782700000E-01
     32 T   6 C     4.770997300000E-01  4.533622500000E-01  4.994268100000E-01
     33 T   6 C     3.695652100000E-01  2.379433400000E-01 -4.960498100000E-01
     34 T   6 C     3.157574100000E-01  2.911756800000E-01 -4.966577300000E-01
     35 T   6 C    -4.692312100000E-01  4.000094900000E-01 -4.996348600000E-01
     36 T   6 C     4.778228500000E-01  2.919047300000E-01 -4.983930500000E-01
     37 T   8 O     4.855216800000E-01  1.274231600000E-01  4.996069800000E-01
     38 T   8 O    -3.557795600000E-01  1.268019300000E-01 -4.974030800000E-01
     39 T   8 O    -3.554747600000E-01  2.869340200000E-01  4.980773600000E-01
     40 T   8 O     2.041672800000E-01 -4.342101700000E-01 -4.972564100000E-01
     41 T   8 O     2.027738400000E-01  4.044282200000E-01 -4.897689100000E-01
     42 T   8 O     3.625949500000E-01 -4.352590500000E-01 -4.947847600000E-01

 T = ATOM BELONGING TO THE ASYMMETRIC UNIT

 ****    1 SYMMOPS - TRANSLATORS IN FRACTIONAL UNITS
 **** MATRICES AND TRANSLATORS IN THE CRYSTALLOGRAPHIC REFERENCE FRAME
   V INV                    ROTATION MATRICES                   TRANSLATORS
   1   1  1.00  0.00  0.00  0.00  1.00  0.00 -0.00 -0.00  1.00  0.00  0.00  0.00

 DIRECT LATTICE VECTORS CARTESIAN COMPONENTS (ANGSTROM)
          X                    Y                    Z
   0.130013421718E+02  -0.752240388864E+01   0.000000000000E+00
   0.000000000000E+00   0.150443870000E+02   0.000000000000E+00
   0.200314167251E+01   0.346203904014E+01   0.360023794032E+01


 CARTESIAN COORDINATES - PRIMITIVE CELL
 *******************************************************************************
 *      ATOM          X(ANGSTROM)         Y(ANGSTROM)         Z(ANGSTROM)
 *******************************************************************************
    1     5 B    -7.000678184353E+00  2.860595249084E+00 -1.797825402576E+00
    2     5 B    -4.936332755792E+00  4.058651900888E+00 -1.797789436199E+00
    3     5 B     5.994783442997E+00 -2.270649416814E+00 -1.802937524437E+00
    4     5 B     9.714003020987E-01  4.059460286380E+00 -1.780562837690E+00
    5     5 B     3.033082564398E+00  2.859062782067E+00 -1.766004303514E+00
    6     5 B     1.033484819853E+00  1.792125043044E+00 -5.387719283252E+00
    7     1 H    -3.245825767495E+00  1.913805952765E+00 -1.783790703020E+00
    8     1 H     1.285400682478E+00 -5.385933801695E+00  1.774720659580E+00
    9     1 H     7.613117347031E-01 -1.925483681638E+00  5.374460722991E+00
   10     1 H    -7.178528325821E-01  1.913675941429E+00 -1.785343881670E+00
   11     1 H    -5.273375304546E+00  1.595121887800E+00  1.815333503689E+00
   12     1 H     5.307902338922E+00 -1.587285667991E+00  1.780596859939E+00
   13     1 H     4.029346464652E+00 -3.761806464716E+00  1.785301650879E+00
   14     1 H    -3.997923067949E+00  3.771110323120E+00  1.808632524820E+00
   15     1 H    -5.278608107738E+00 -1.601250629951E+00  1.792132814352E+00
   16     1 H     3.284307038138E+00 -1.873420951179E+00 -1.778284859138E+00
   17     1 H     2.018443758013E+00  3.020705446079E-01 -1.779598477956E+00
   18     1 H    -2.004046932892E+00 -3.169816947868E-01  5.395731288767E+00
   19     6 C    -3.385370098452E+00  4.055359784361E+00 -1.798689459682E+00
   20     6 C    -2.676482224482E+00  2.845198777079E+00 -1.792331295470E+00
   21     6 C    -1.285116210931E+00  5.264732826706E+00 -1.815346500548E+00
   22     6 C    -2.675979964925E+00  5.264218643881E+00 -1.814132680327E+00
   23     6 C    -1.284940310138E+00  2.845923161913E+00 -1.794648732629E+00
   24     6 C    -5.763501074201E-01  4.055803503937E+00 -1.802508736098E+00
   25     6 C     1.800083929464E+00  3.144521154560E+00 -5.393593935509E+00
   26     6 C    -5.792477697773E+00  2.554798638359E+00  1.808286613959E+00
   27     6 C     5.824748702136E+00 -2.548823140364E+00  1.789291074541E+00
   28     6 C     5.121137919132E+00 -3.750799291498E+00  1.793318444710E+00
   29     6 C    -5.089322147140E+00  3.755703971164E+00  1.803111811956E+00
   30     6 C    -5.774226028908E+00  4.979320266871E+00  1.797264269491E+00
   31     6 C     3.798033529085E+00  1.508712822736E+00 -1.800197203329E+00
   32     6 C     5.200217822762E+00  1.498616349740E+00 -1.802182590543E+00
   33     6 C     3.811185703943E+00 -9.176508898533E-01 -1.785897346249E+00
   34     6 C     3.110394334747E+00  2.858563952082E-01 -1.788086002897E+00
   35     6 C     5.899867243785E+00  2.954849702308E-01 -1.798804379277E+00
   36     6 C     5.213986482599E+00 -9.283049361071E-01 -1.794333567800E+00
   37     8 O     5.310075382500E+00 -3.467667012504E+00 -1.801533935674E+00
   38     8 O    -5.621980634865E+00  2.861945971263E+00 -1.790769440246E+00
   39     8 O    -1.620787799733E+00 -2.867213537243E+00  5.393434949001E+00
   40     8 O    -3.447680417400E-01  1.792572277656E+00 -5.390479333664E+00
   41     8 O     1.655255563805E+00  2.863428845802E+00 -1.763284611769E+00
   42     8 O     1.719955370522E+00  5.935925489361E-01 -5.381580805559E+00

 *******************************************************************************
 STARTING BASIS SET HANDLING 
 *******************************************************************************

 Loading internal basis set: SOLDEF2MSVP         

 Please cite in your publication:
 L. Dona', J. G. Brandenburg and B. Civalleri, J. Chem. Phys., 151, 121101 (2019
 )                                                                              
                                                                                
                    

 *******************************************************************************
 LOCAL ATOMIC FUNCTIONS BASIS SET
 *******************************************************************************
   ATOM   X(AU)   Y(AU)   Z(AU)  N. TYPE  EXPONENT  S COEF   P COEF   D/F/G COEF
 *******************************************************************************
   1 B  -13.229   5.406  -3.397
                                  1 S  
                                         2.410E+03 1.755E-03 0.000E+00 0.000E+00
                                         3.619E+02 1.344E-02 0.000E+00 0.000E+00
                                         8.231E+01 6.637E-02 0.000E+00 0.000E+00
                                         2.311E+01 2.303E-01 0.000E+00 0.000E+00
                                         7.252E+00 5.150E-01 0.000E+00 0.000E+00
                                  2 S  
                                         2.367E+00 1.000E+00 0.000E+00 0.000E+00
                                  3 S  
                                         5.533E-01 1.000E+00 0.000E+00 0.000E+00
                                  4 S  
                                         1.716E-01 1.000E+00 0.000E+00 0.000E+00
                           5-     7 P  
                                         6.002E+00 0.000E+00-3.555E-02 0.000E+00
                                         1.240E+00 0.000E+00-1.983E-01 0.000E+00
                                         3.367E-01 0.000E+00-5.048E-01 0.000E+00
                           8-    10 P  
                                         1.256E-01 0.000E+00 1.000E+00 0.000E+00
                          11-    15 D  
                                         8.880E-01 0.000E+00 0.000E+00 1.000E+00
   2 B   -9.328   7.670  -3.397
   3 B   11.328  -4.291  -3.407
   4 B    1.836   7.671  -3.365
   5 B    5.732   5.403  -3.337
   6 B    1.953   3.387 -10.181
   7 H   -6.134   3.617  -3.371
                                 91 S  
                                         1.874E+01 1.968E-02 0.000E+00 0.000E+00
                                         2.826E+00 1.380E-01 0.000E+00 0.000E+00
                                         6.401E-01 4.783E-01 0.000E+00 0.000E+00
                                 92 S  
                                         1.756E-01 1.000E+00 0.000E+00 0.000E+00
   8 H    2.429 -10.178   3.354
   9 H    1.439  -3.639  10.156
  10 H   -1.357   3.616  -3.374
  11 H   -9.965   3.014   3.430
  12 H   10.030  -3.000   3.365
  13 H    7.614  -7.109   3.374
  14 H   -7.555   7.126   3.418
  15 H   -9.975  -3.026   3.387
  16 H    6.206  -3.540  -3.360
  17 H    3.814   0.571  -3.363
  18 H   -3.787  -0.599  10.196
  19 C   -6.397   7.664  -3.399
                                115 S  
                                         3.624E+03 1.634E-03 0.000E+00 0.000E+00
                                         5.440E+02 1.252E-02 0.000E+00 0.000E+00
                                         1.237E+02 6.211E-02 0.000E+00 0.000E+00
                                         3.476E+01 2.182E-01 0.000E+00 0.000E+00
                                         1.093E+01 4.980E-01 0.000E+00 0.000E+00
                                116 S  
                                         3.574E+00 1.000E+00 0.000E+00 0.000E+00
                                117 S  
                                         7.742E-01 1.000E+00 0.000E+00 0.000E+00
                                118 S  
                                         2.330E-01 1.000E+00 0.000E+00 0.000E+00
                         119-   121 P  
                                         9.443E+00 0.000E+00 3.790E-02 0.000E+00
                                         2.002E+00 0.000E+00 2.082E-01 0.000E+00
                                         5.463E-01 0.000E+00 5.047E-01 0.000E+00
                         122-   124 P  
                                         1.820E-01 0.000E+00 1.000E+00 0.000E+00
                         125-   129 D  
                                         8.880E-01 0.000E+00 0.000E+00 1.000E+00
  20 C   -5.058   5.377  -3.387
  21 C   -2.429   9.949  -3.431
  22 C   -5.057   9.948  -3.428
  23 C   -2.428   5.378  -3.391
  24 C   -1.089   7.664  -3.406
  25 C    3.402   5.942 -10.192
  26 C  -10.946   4.828   3.417
  27 C   11.007  -4.817   3.381
  28 C    9.678  -7.088   3.389
  29 C   -9.617   7.097   3.407
  30 C  -10.912   9.410   3.396
  31 C    7.177   2.851  -3.402
  32 C    9.827   2.832  -3.406
  33 C    7.202  -1.734  -3.375
  34 C    5.878   0.540  -3.379
  35 C   11.149   0.558  -3.399
  36 C    9.853  -1.754  -3.391
  37 O   10.035  -6.553  -3.404
                                385 S  
                                         6.773E+03 1.727E-03 0.000E+00 0.000E+00
                                         1.017E+03 1.325E-02 0.000E+00 0.000E+00
                                         2.313E+02 6.603E-02 0.000E+00 0.000E+00
                                         6.501E+01 2.353E-01 0.000E+00 0.000E+00
                                         2.050E+01 5.498E-01 0.000E+00 0.000E+00
                                386 S  
                                         6.716E+00 1.000E+00 0.000E+00 0.000E+00
                                387 S  
                                         1.147E+00 1.000E+00 0.000E+00 0.000E+00
                                388 S  
                                         3.342E-01 1.000E+00 0.000E+00 0.000E+00
                         389-   391 P  
                                         1.769E+01 0.000E+00 4.359E-02 0.000E+00
                                         3.854E+00 0.000E+00 2.318E-01 0.000E+00
                                         1.047E+00 0.000E+00 5.146E-01 0.000E+00
                         392-   394 P  
                                         2.759E-01 0.000E+00 1.000E+00 0.000E+00
                         395-   399 D  
                                         8.000E-01 0.000E+00 0.000E+00 1.000E+00
  38 O  -10.624   5.408  -3.384
  39 O   -3.063  -5.418  10.192
  40 O   -0.652   3.387 -10.187
  41 O    3.128   5.411  -3.332
  42 O    3.250   1.122 -10.170

 *******************************************************************************
 FINISHED BASIS SET HANDLING 
 *******************************************************************************

 INFORMATION **** SET_MPP **** PCRYSTAL CALCULATION
 INFORMATION **** READM2 **** NEW DEFAULT: FOCK/KS MATRIX MIXING SET TO 30 %
 INFORMATION **** READM2 **** NEW DEFAULT: FULL DIRECT SCF MODE
 INFORMATION **** READM2 **** NEW DEFAULT: COULOMB BIPOLAR BUFFER SET TO 32 Mb
 INFORMATION **** READM2 **** NEW DEFAULT: EXCHANGE BIPOLAR BUFFER SET TO 32 Mb

 *******************************************************************************
 NEW DEFAULT: DFT INTEGRATION GRID INCREASED TO XLGRID
 NEW DEFAULT: DIIS ACCELERATOR ACTIVE
 USE KEYWORD NODIIS TO TURN IT OFF
 *******************************************************************************

 WARNING **** RDDFTP **** HSEsol-HJS ACTIVE
 RANGE SEPARATION - OMEGA:   0.110000000000000     
 WARNING **** RDDFTP **** HSEsol-3c has to be combined with sol-def2-mSVP basis set
 *******************************************************************************
 N. OF ATOMS PER CELL        42  COULOMB OVERLAP TOL         (T1) 10**   -6
 NUMBER OF SHELLS           234  COULOMB PENETRATION TOL     (T2) 10**   -6
 NUMBER OF AO               474  EXCHANGE OVERLAP TOL        (T3) 10**   -6
 N. OF ELECTRONS PER CELL   198  EXCHANGE PSEUDO OVP (F(G))  (T4) 10**   -6
 CORE ELECTRONS PER CELL     60  EXCHANGE PSEUDO OVP (P(G))  (T5) 10**  -12
 N. OF SYMMETRY OPERATORS     1  POLE ORDER IN MONO ZONE                  4
 *******************************************************************************
 TYPE OF CALCULATION :  RESTRICTED CLOSED SHELL
 KOHN-SHAM HAMILTONIAN

 (EXCHANGE)[CORRELATION] FUNCTIONAL:(HSEsol GGA)[PBEsol]

 RANGE-SEPARATED HYBRID FUNCTIONAL 
 OMEGA (SHORT-RANGE)[LONG-RANGE]:(    0.1100)[    0.0000]

 HYBRID EXCHANGE - PERCENTAGE OF FOCK EXCHANGE    25.0000

 CAPPA:IS1  2;IS2  2;IS3  8; K PTS MONK NET  20; SYMMOPS:K SPACE   2;G SPACE   1

 *******************************************************************************
 MAX NUMBER OF SCF CYCLES      50  CONVERGENCE ON DELTAP        10**-16
 WEIGHT OF F(I) IN F(I+1)      30% CONVERGENCE ON ENERGY        10**- 6
 SHRINK. FACT.(MONKH.)    2  2  8  NUMBER OF K POINTS IN THE IBZ     20
 SHRINKING FACTOR(GILAT NET)    8  NUMBER OF K POINTS(GILAT NET)   1028
 *******************************************************************************
 *** K POINTS COORDINATES (OBLIQUE COORDINATES IN UNITS OF IS =  2)
   1-R(  0  0  0)   2-R(  1  0  0)   3-R(  0  1  0)   4-R(  1  1  0)
   5-C(  0  0  1)   6-C(  1  0  1)   7-C(  0  1  1)   8-C(  1  1  1)
   9-C(  0  0  2)  10-C(  1  0  2)  11-C(  0  1  2)  12-C(  1  1  2)
  13-C(  0  0  3)  14-C(  1  0  3)  15-C(  0  1  3)  16-C(  1  1  3)
  17-R(  0  0  4)  18-R(  1  0  4)  19-R(  0  1  4)  20-R(  1  1  4)

 DIRECT LATTICE VECTORS COMPON. (A.U.)     RECIP. LATTICE VECTORS COMPON. (A.U.) 
        X            Y            Z              X            Y            Z
   24.5689761  -14.2152832    0.0000000      0.2557366    0.0000000   -0.1422896
    0.0000000   28.4297713    0.0000000      0.1278719    0.2210072   -0.2836705
    3.7853892    6.5423057    6.8034637      0.0000000    0.0000000    0.9235274

 DISK SPACE FOR EIGENVECTORS (FTN 10)     7189632 REALS

 SYMMETRY ADAPTION OF THE BLOCH FUNCTIONS DISABLED
 TTTTTTTTTTTTTTTTTTTTTTTTTTTTTT gordsh1     TELAPSE        0.04 TCPU        0.04

 MATRIX SIZE: P(G)  341618, F(G)   69386, P(G) IRR  171946, F(G) IRR   70010
 MAX G-VECTOR INDEX FOR 1- AND 2-ELECTRON INTEGRALS  47

 TTTTTTTTTTTTTTTTTTTTTTTTTTTTTT INPUT       TELAPSE        0.37 TCPU        0.37

 NEIGHBORS OF THE NON-EQUIVALENT ATOMS

 N = NUMBER OF NEIGHBORS AT DISTANCE R
    ATOM  N     R/ANG      R/AU   NEIGHBORS (ATOM LABELS AND CELL INDICES)
   1 B    1     1.3787     2.6054   38 O    0 0 0
   1 B    1     1.3795     2.6068   37 O   -1 0 0
   1 B    1     1.5517     2.9323   30 C    0 0-1
   1 B    1     2.3868     4.5104    2 B    0 0 0
   1 B    1     2.3912     4.5187    3 B   -1 0 0
   1 B    1     2.5629     4.8432   27 C   -1 0-1

   2 B    1     1.3792     2.6064   38 O    0 0 0
   2 B    1     1.3798     2.6075   39 O    0 1-2
   2 B    1     1.5510     2.9309   19 C    0 0 0
   2 B    1     2.3868     4.5104    1 B    0 0 0
   2 B    1     2.3894     4.5154    3 B   -1 0 0
   2 B    1     2.5618     4.8411   22 C    0 0 0

   3 B    1     1.3790     2.6060   37 O    0 0 0
   3 B    1     1.3795     2.6069   39 O    1 1-2
   3 B    1     1.5529     2.9346   36 C    0 0 0
   3 B    1     2.3894     4.5154    2 B    1 0 0
   3 B    1     2.3912     4.5187    1 B    1 0 0
   3 B    1     2.5679     4.8526   35 C    0 0 0

   4 B    1     1.3778     2.6037   41 O    0 0 0
   4 B    1     1.3786     2.6051   40 O    0 0 1
   4 B    1     1.5479     2.9251   24 C    0 0 0
   4 B    1     2.3857     4.5084    5 B    0 0 0
   4 B    1     2.3859     4.5087    6 B    0 0 1
   4 B    1     2.5585     4.8348   21 C    0 0 0

   5 B    1     1.3778     2.6037   41 O    0 0 0
   5 B    1     1.3814     2.6104   42 O    0 0 1
   5 B    1     1.5523     2.9335   31 C    0 0 0
   5 B    1     2.3857     4.5084    4 B    0 0 0
   5 B    1     2.3952     4.5263    6 B    0 0 1
   5 B    1     2.5590     4.8359   32 C    0 0 0

   6 B    1     1.3783     2.6045   40 O    0 0 0
   6 B    1     1.3812     2.6101   42 O    0 0 0
   6 B    1     1.5546     2.9377   25 C    0 0 0
   6 B    1     2.3859     4.5087    4 B    0 0-1
   6 B    1     2.3952     4.5263    5 B    0 0-1
   6 B    1     2.5605     4.8386   26 C    1 1-2

   7 H    1     1.0917     2.0629   20 C    0 0 0
   7 H    1     2.1461     4.0556   19 C    0 0 0
   7 H    1     2.1712     4.1029   23 C    0 0 0
   7 H    1     2.5280     4.7772   10 H    0 0 0
   7 H    1     2.5583     4.8346   38 O    0 0 0
   7 H    1     2.7310     5.1608    2 B    0 0 0

   8 H    1     1.0909     2.0615   21 C    0-1 1
   8 H    1     2.1454     4.0542   24 C    0-1 1
   8 H    1     2.1688     4.0985   22 C    0-1 1
   8 H    1     2.5272     4.7758    9 H    0 0-1
   8 H    1     2.5562     4.8305   40 O    0-1 2
   8 H    1     2.7243     5.1482    4 B    0-1 1

   9 H    1     1.0908     2.0614   22 C    0-1 2
   9 H    1     2.1442     4.0520   19 C    0-1 2
   9 H    1     2.1694     4.0995   21 C    0-1 2
   9 H    1     2.5272     4.7758    8 H    0 0 1
   9 H    1     2.5616     4.8407   39 O    0 0 0
   9 H    1     2.7248     5.1492    2 B    0-1 2

  10 H    1     1.0912     2.0621   23 C    0 0 0
  10 H    1     2.1469     4.0570   24 C    0 0 0
  10 H    1     2.1689     4.0986   20 C    0 0 0
  10 H    1     2.5280     4.7772    7 H    0 0 0
  10 H    1     2.5562     4.8305   41 O    0 0 0
  10 H    1     2.7309     5.1607    4 B    0 0 0

  11 H    1     1.0911     2.0619   26 C    0 0 0
  11 H    1     2.1443     4.0521   25 C   -1-1 2
  11 H    1     2.1684     4.0978   29 C    0 0 0
  11 H    1     2.5223     4.7664   14 H    0 0 0
  11 H    1     2.5622     4.8419   42 O   -1-1 2
  11 H    1     2.7179     5.1361    6 B   -1-1 2

  12 H    1     1.0917     2.0630   27 C    0 0 0
  12 H    1     2.1441     4.0518   30 C    1 0 0
  12 H    1     2.1716     4.1037   28 C    0 0 0
  12 H    1     2.5226     4.7669   13 H    0 0 0
  12 H    1     2.5541     4.8265   37 O    0 0 1
  12 H    1     2.7237     5.1470    1 B    1 0 1

  13 H    1     1.0919     2.0633   28 C    0 0 0
  13 H    1     2.1522     4.0671   25 C    0-1 2
  13 H    1     2.1668     4.0946   27 C    0 0 0
  13 H    1     2.5226     4.7669   12 H    0 0 0
  13 H    1     2.5923     4.8987   40 O    0-1 2
  13 H    1     2.7583     5.2124    6 B    0-1 2

  14 H    1     1.0915     2.0627   29 C    0 0 0
  14 H    1     2.1483     4.0597   30 C    0 0 0
  14 H    1     2.1679     4.0968   26 C    0 0 0
  14 H    1     2.5223     4.7664   11 H    0 0 0
  14 H    1     2.5809     4.8771   38 O    0 0 1
  14 H    1     2.7404     5.1785    1 B    0 0 1

  15 H    1     1.0916     2.0628   32 C   -1-1 1
  15 H    1     2.1436     4.0508   31 C   -1-1 1
  15 H    1     2.1707     4.1021   35 C   -1-1 1
  15 H    1     2.5217     4.7654   18 H    0 0-1
  15 H    1     2.5567     4.8315   42 O   -1-1 2
  15 H    1     2.7165     5.1335    5 B   -1-1 1

  16 H    1     1.0914     2.0624   33 C    0 0 0
  16 H    1     2.1488     4.0606   36 C    0 0 0
  16 H    1     2.1663     4.0937   34 C    0 0 0
  16 H    1     2.5170     4.7564   17 H    0 0 0
  16 H    1     2.5780     4.8716   37 O    0 0 0
  16 H    1     2.7395     5.1770    3 B    0 0 0

  17 H    1     1.0921     2.0638   34 C    0 0 0
  17 H    1     2.1502     4.0633   31 C    0 0 0
  17 H    1     2.1683     4.0976   33 C    0 0 0
  17 H    1     2.5170     4.7564   16 H    0 0 0
  17 H    1     2.5870     4.8888   41 O    0 0 0
  17 H    1     2.7510     5.1986    5 B    0 0 0

  18 H    1     1.0913     2.0622   35 C   -1-1 2
  18 H    1     2.1495     4.0619   36 C   -1-1 2
  18 H    1     2.1656     4.0923   32 C   -1-1 2
  18 H    1     2.5217     4.7654   15 H    0 0 1
  18 H    1     2.5789     4.8734   39 O    0 0 0
  18 H    1     2.7392     5.1763    3 B   -1-1 2

  19 C    1     1.4017     2.6489   22 C    0 0 0
  19 C    1     1.4025     2.6504   20 C    0 0 0
  19 C    1     1.5510     2.9309    2 B    0 0 0
  19 C    1     2.1442     4.0520    9 H    0 1-2
  19 C    1     2.1461     4.0556    7 H    0 0 0
  19 C    1     2.4236     4.5800   21 C    0 0 0

  20 C    1     1.0917     2.0629    7 H    0 0 0
  20 C    1     1.3915     2.6296   23 C    0 0 0
  20 C    1     1.4025     2.6504   19 C    0 0 0
  20 C    1     2.1689     4.0986   10 H    0 0 0
  20 C    1     2.4191     4.5715   22 C    0 0 0
  20 C    1     2.4241     4.5809   24 C    0 0 0

  21 C    1     1.0909     2.0615    8 H    0 1-1
  21 C    1     1.3909     2.6284   22 C    0 0 0
  21 C    1     1.4014     2.6483   24 C    0 0 0
  21 C    1     2.1694     4.0995    9 H    0 1-2
  21 C    1     2.4189     4.5711   23 C    0 0 0
  21 C    1     2.4236     4.5800   19 C    0 0 0

  22 C    1     1.0908     2.0614    9 H    0 1-2
  22 C    1     1.3909     2.6284   21 C    0 0 0
  22 C    1     1.4017     2.6489   19 C    0 0 0
  22 C    1     2.1688     4.0985    8 H    0 1-1
  22 C    1     2.4191     4.5715   20 C    0 0 0
  22 C    1     2.4226     4.5780   24 C    0 0 0

  23 C    1     1.0912     2.0621   10 H    0 0 0
  23 C    1     1.3915     2.6296   20 C    0 0 0
  23 C    1     1.4021     2.6496   24 C    0 0 0
  23 C    1     2.1712     4.1029    7 H    0 0 0
  23 C    1     2.4189     4.5711   21 C    0 0 0
  23 C    1     2.4237     4.5802   19 C    0 0 0

  24 C    1     1.4014     2.6483   21 C    0 0 0
  24 C    1     1.4021     2.6496   23 C    0 0 0
  24 C    1     1.5479     2.9251    4 B    0 0 0
  24 C    1     2.1454     4.0542    8 H    0 1-1
  24 C    1     2.1469     4.0570   10 H    0 0 0
  24 C    1     2.4226     4.5780   22 C    0 0 0

  25 C    1     1.4025     2.6504   26 C    1 1-2
  25 C    1     1.4037     2.6526   28 C    0 1-2
  25 C    1     1.5546     2.9377    6 B    0 0 0
  25 C    1     2.1443     4.0521   11 H    1 1-2
  25 C    1     2.1522     4.0671   13 H    0 1-2
  25 C    1     2.4271     4.5866   27 C    0 1-2

  26 C    1     1.0911     2.0619   11 H    0 0 0
  26 C    1     1.3916     2.6298   29 C    0 0 0
  26 C    1     1.4025     2.6504   25 C   -1-1 2
  26 C    1     2.1679     4.0968   14 H    0 0 0
  26 C    1     2.4165     4.5665   28 C   -1 0 0
  26 C    1     2.4246     4.5819   30 C    0 0 0

  27 C    1     1.0917     2.0630   12 H    0 0 0
  27 C    1     1.3928     2.6320   28 C    0 0 0
  27 C    1     1.4024     2.6502   30 C    1 0 0
  27 C    1     2.1668     4.0946   13 H    0 0 0
  27 C    1     2.4166     4.5668   29 C    1 0 0
  27 C    1     2.4271     4.5866   25 C    0-1 2

  28 C    1     1.0919     2.0633   13 H    0 0 0
  28 C    1     1.3928     2.6320   27 C    0 0 0
  28 C    1     1.4037     2.6526   25 C    0-1 2
  28 C    1     2.1716     4.1037   12 H    0 0 0
  28 C    1     2.4165     4.5665   26 C    1 0 0
  28 C    1     2.4277     4.5877   30 C    1 0 0

  29 C    1     1.0915     2.0627   14 H    0 0 0
  29 C    1     1.3916     2.6298   26 C    0 0 0
  29 C    1     1.4023     2.6499   30 C    0 0 0
  29 C    1     2.1684     4.0978   11 H    0 0 0
  29 C    1     2.4166     4.5668   27 C   -1 0 0
  29 C    1     2.4281     4.5884   25 C   -1-1 2

  30 C    1     1.4023     2.6499   29 C    0 0 0
  30 C    1     1.4024     2.6502   27 C   -1 0 0
  30 C    1     1.5517     2.9323    1 B    0 0 1
  30 C    1     2.1441     4.0518   12 H   -1 0 0
  30 C    1     2.1483     4.0597   14 H    0 0 0
  30 C    1     2.4246     4.5819   26 C    0 0 0

  31 C    1     1.4022     2.6498   32 C    0 0 0
  31 C    1     1.4030     2.6513   34 C    0 0 0
  31 C    1     1.5523     2.9335    5 B    0 0 0
  31 C    1     2.1436     4.0508   15 H    1 1-1
  31 C    1     2.1502     4.0633   17 H    0 0 0
  31 C    1     2.4264     4.5853   33 C    0 0 0

  32 C    1     1.0916     2.0628   15 H    1 1-1
  32 C    1     1.3918     2.6301   35 C    0 0 0
  32 C    1     1.4022     2.6498   31 C    0 0 0
  32 C    1     2.1656     4.0923   18 H    1 1-2
  32 C    1     2.4163     4.5661   34 C    0 0 0
  32 C    1     2.4270     4.5863   36 C    0 0 0

  33 C    1     1.0914     2.0624   16 H    0 0 0
  33 C    1     1.3927     2.6318   34 C    0 0 0
  33 C    1     1.4029     2.6510   36 C    0 0 0
  33 C    1     2.1683     4.0976   17 H    0 0 0
  33 C    1     2.4155     4.5646   35 C    0 0 0
  33 C    1     2.4264     4.5853   31 C    0 0 0

  34 C    1     1.0921     2.0638   17 H    0 0 0
  34 C    1     1.3927     2.6318   33 C    0 0 0
  34 C    1     1.4030     2.6513   31 C    0 0 0
  34 C    1     2.1663     4.0937   16 H    0 0 0
  34 C    1     2.4163     4.5661   32 C    0 0 0
  34 C    1     2.4289     4.5899   36 C    0 0 0

  35 C    1     1.0913     2.0622   18 H    1 1-2
  35 C    1     1.3918     2.6301   32 C    0 0 0
  35 C    1     1.4029     2.6511   36 C    0 0 0
  35 C    1     2.1707     4.1021   15 H    1 1-1
  35 C    1     2.4155     4.5646   33 C    0 0 0
  35 C    1     2.4269     4.5861   31 C    0 0 0

  36 C    1     1.4029     2.6510   33 C    0 0 0
  36 C    1     1.4029     2.6511   35 C    0 0 0
  36 C    1     1.5529     2.9346    3 B    0 0 0
  36 C    1     2.1488     4.0606   16 H    0 0 0
  36 C    1     2.1495     4.0619   18 H    1 1-2
  36 C    1     2.4270     4.5863   32 C    0 0 0

  37 O    1     1.3790     2.6060    3 B    0 0 0
  37 O    1     1.3795     2.6068    1 B    1 0 0
  37 O    1     2.3868     4.5105   39 O    1 1-2
  37 O    1     2.3885     4.5136   38 O    1 0 0
  37 O    1     2.5389     4.7979   30 C    1 0-1
  37 O    1     2.5412     4.8022   36 C    0 0 0

  38 O    1     1.3787     2.6054    1 B    0 0 0
  38 O    1     1.3792     2.6064    2 B    0 0 0
  38 O    1     2.3885     4.5136   37 O   -1 0 0
  38 O    1     2.3912     4.5187   39 O    0 1-2
  38 O    1     2.5351     4.7906   19 C    0 0 0
  38 O    1     2.5405     4.8008   30 C    0 0-1

  39 O    1     1.3795     2.6069    3 B   -1-1 2
  39 O    1     1.3798     2.6075    2 B    0-1 2
  39 O    1     2.3868     4.5105   37 O   -1-1 2
  39 O    1     2.3912     4.5187   38 O    0-1 2
  39 O    1     2.5416     4.8030   19 C    0-1 2
  39 O    1     2.5427     4.8050   36 C   -1-1 2

  40 O    1     1.3783     2.6045    6 B    0 0 0
  40 O    1     1.3786     2.6051    4 B    0 0-1
  40 O    1     2.3876     4.5119   42 O    0 0 0
  40 O    1     2.3913     4.5190   41 O    0 0-1
  40 O    1     2.5354     4.7912   25 C    0 0 0
  40 O    1     2.5360     4.7923   24 C    0 0-1

  41 O    1     1.3778     2.6037    5 B    0 0 0
  41 O    1     1.3778     2.6037    4 B    0 0 0
  41 O    1     2.3870     4.5107   42 O    0 0 1
  41 O    1     2.3913     4.5190   40 O    0 0 1
  41 O    1     2.5305     4.7819   24 C    0 0 0
  41 O    1     2.5354     4.7912   31 C    0 0 0

  42 O    1     1.3812     2.6101    6 B    0 0 0
  42 O    1     1.3814     2.6104    5 B    0 0-1
  42 O    1     2.3870     4.5107   41 O    0 0-1
  42 O    1     2.3876     4.5119   40 O    0 0 0
  42 O    1     2.5481     4.8152   31 C    0 0-1
  42 O    1     2.5522     4.8230   25 C    0 0 0


 SYMMETRY ALLOWED INTERNAL DEGREE(S) OF FREEDOM: 123
 TTTTTTTTTTTTTTTTTTTTTTTTTTTTTT SYMM        TELAPSE        0.38 TCPU        0.37
 TTTTTTTTTTTTTTTTTTTTTTTTTTTTTT INT_SCREEN  TELAPSE        0.41 TCPU        0.41

 DFT PARAMETERS

     ATOM       ELECTRONS   NET CHARGE   R(ANGSTROM)
   1   5  B       5.0000      0.0000     0.89000000
   7   1  H       1.0000      0.0000     1.11000000
  19   6  C       6.0000      0.0000     0.77000000
  37   8  O       8.0000      0.0000     0.74000000

 SIZE OF GRID=    1285769
 TTTTTTTTTTTTTTTTTTTTTTTTTTTTTT MAKE_GRID2  TELAPSE       10.06 TCPU       10.04
 BECKE WEIGHT FUNCTION
 RADSAFE =     2.00
 TOLERANCES - DENSITY:10**- 6; POTENTIAL:10**- 9; GRID WGT:10**-14

 RADIAL INTEGRATION  - INTERVALS (POINTS,UPPER LIMIT):            1( 75,  4.0*R)

 ANGULAR INTEGRATION - INTERVALS (ACCURACY LEVEL [N. POINTS] UPPER LIMIT):
  1(  4[  86]   0.2)  2(  8[ 194]   0.5)  3( 12[ 350]   0.9)  4( 16[ 974]   3.5)
  5( 12[ 350]9999.0)
 TTTTTTTTTTTTTTTTTTTTTTTTTTTTTT INT_CALC    TELAPSE       10.15 TCPU       10.13
 EEEEEEEEEE INT_CALC TERMINATION  DATE 02 12 2025 TIME 08:00:49.8

 *******************************************************************************
 COF-5_z36_inc_L040                                                              
 CRYSTAL - SCF - TYPE OF CALCULATION :  RESTRICTED CLOSED SHELL
 *******************************************************************************

 CAPPA:IS1  2;IS2  2;IS3  8; K PTS MONK NET  20; SYMMOPS:K SPACE   2;G SPACE   1

 TTTTTTTTTTTTTTTTTTTTTTTTTTTTTT SDIK        TELAPSE       10.99 TCPU       17.86

 AAAAAAAAAAAAAAAAAAAAAAAAAAAAAAAAAAAAAAAAAAAAAAAAAAAAAAAAAAAAAAAAAAAAAAAAAAAAAAA
         ATOMIC WAVEFUNCTION(S)


 NUCLEAR CHARGE  5.0  SYMMETRY SPECIES            S    P
 N. ELECTRONS    5.0  NUMBER OF PRIMITIVE GTOS    8    4
                      NUMBER OF CONTRACTED GTOS   4    2
                      NUMBER OF CLOSED SHELLS     2    0
                      OPEN SHELL OCCUPATION       0    1

  ZNUC  SCFIT    TOTAL HF ENERGY   KINETIC ENERGY   VIRIAL THEOREM ACCURACY
   5.0    11    -2.451164084E+01  2.462155050E+01 -1.995536038E+00  1.5E-06

 NUCLEAR CHARGE  1.0  SYMMETRY SPECIES            S
 N. ELECTRONS    1.0  NUMBER OF PRIMITIVE GTOS    4
                      NUMBER OF CONTRACTED GTOS   2
                      NUMBER OF CLOSED SHELLS     0
                      OPEN SHELL OCCUPATION       1

  ZNUC  SCFIT    TOTAL HF ENERGY   KINETIC ENERGY   VIRIAL THEOREM ACCURACY
   1.0     1    -4.977266687E-01  5.190767460E-01 -1.958869132E+00  0.0E+00

 NUCLEAR CHARGE  6.0  SYMMETRY SPECIES            S    P
 N. ELECTRONS    6.0  NUMBER OF PRIMITIVE GTOS    8    4
                      NUMBER OF CONTRACTED GTOS   4    2
                      NUMBER OF CLOSED SHELLS     2    0
                      OPEN SHELL OCCUPATION       0    2

  ZNUC  SCFIT    TOTAL HF ENERGY   KINETIC ENERGY   VIRIAL THEOREM ACCURACY
   6.0     9    -3.766704647E+01  3.775180683E+01 -1.997754800E+00  1.1E-06

 NUCLEAR CHARGE  8.0  SYMMETRY SPECIES            S    P
 N. ELECTRONS    8.0  NUMBER OF PRIMITIVE GTOS    8    4
                      NUMBER OF CONTRACTED GTOS   4    2
                      NUMBER OF CLOSED SHELLS     2    0
                      OPEN SHELL OCCUPATION       0    4

  ZNUC  SCFIT    TOTAL HF ENERGY   KINETIC ENERGY   VIRIAL THEOREM ACCURACY
   8.0    12    -7.477373220E+01  7.477365593E+01 -2.000001020E+00  3.8E-06

 AAAAAAAAAAAAAAAAAAAAAAAAAAAAAAAAAAAAAAAAAAAAAAAAAAAAAAAAAAAAAAAAAAAAAAAAAAAAAAA

 CHARGE NORMALIZATION FACTOR   1.00000000
 TOTAL ATOMIC CHARGES:
   5.0000000   5.0000000   5.0000000   5.0000000   5.0000000   5.0000000
   1.0000000   1.0000000   1.0000000   1.0000000   1.0000000   1.0000000
   1.0000000   1.0000000   1.0000000   1.0000000   1.0000000   1.0000000
   6.0000000   6.0000000   6.0000000   6.0000000   6.0000000   6.0000000
   6.0000000   6.0000000   6.0000000   6.0000000   6.0000000   6.0000000
   6.0000000   6.0000000   6.0000000   6.0000000   6.0000000   6.0000000
   8.0000000   8.0000000   8.0000000   8.0000000   8.0000000   8.0000000
 TTTTTTTTTTTTTTTTTTTTTTTTTTTTTT MOQGAD      TELAPSE       11.09 TCPU       19.45
 TTTTTTTTTTTTTTTTTTTTTTTTTTTTTT SHELLXN     TELAPSE       21.58 TCPU      285.67
 TTTTTTTTTTTTTTTTTTTTTTTTTTTTTT MONMO3      TELAPSE       21.73 TCPU      290.52
 NUMERICALLY INTEGRATED DENSITY    197.9999657585
 TTTTTTTTTTTTTTTTTTTTTTTTTTTTTT NUMDFT      TELAPSE       22.35 TCPU      310.49
 CYC   0 ETOT(AU) -1.295956910444E+03 DETOT -1.30E+03 tst  0.00E+00 PX  1.00E+00
 TTTTTTTTTTTTTTTTTTTTTTTTTTTTTT DIIS        TELAPSE       22.39 TCPU      311.67
 TTTTTTTTTTTTTTTTTTTTTTTTTTTTTT FDIK        TELAPSE       22.89 TCPU      327.69
 INSULATING STATE
 TOP OF VALENCE BANDS -    BAND     99; K   17; EIG -3.1102754E-01 AU
 TOP OF VALENCE BANDS -    BAND     99; K    1; EIG -3.1396057E-01 AU
 BOTTOM OF VIRTUAL BANDS - BAND    100; K   17; EIG -1.6263286E-01 AU
 DIRECT ENERGY BAND GAP:   4.0380 eV
 BOTTOM OF VIRTUAL BANDS - BAND    100; K    1; EIG -1.5994882E-01 AU
 TTTTTTTTTTTTTTTTTTTTTTTTTTTTTT PDIG        TELAPSE       23.21 TCPU      333.86
 CHARGE NORMALIZATION FACTOR   1.00000000
 TOTAL ATOMIC CHARGES:
   4.1453174   4.1604331   4.1615323   4.1632345   4.1604620   4.1442539
   0.7854553   0.7854375   0.7847400   0.7847280   0.7859055   0.7858036
   0.7868227   0.7863757   0.7852108   0.7857629   0.7848922   0.7851270
   6.0447458   6.2666868   6.2667030   6.2663476   6.2650601   6.0470578
   6.0453912   6.2646528   6.2630659   6.2652705   6.2653080   6.0488136
   6.0438632   6.2667487   6.2676213   6.2658657   6.2675005   6.0414431
   8.6964203   8.6955929   8.6965371   8.6951226   8.6950976   8.6975894
 TTTTTTTTTTTTTTTTTTTTTTTTTTTTTT MOQGAD      TELAPSE       23.26 TCPU      333.91
 TTTTTTTTTTTTTTTTTTTTTTTTTTTTTT SHELLXN     TELAPSE       31.93 TCPU      610.38
 TTTTTTTTTTTTTTTTTTTTTTTTTTTTTT MONMO3      TELAPSE       32.08 TCPU      615.21
 NUMERICALLY INTEGRATED DENSITY    197.9999766383
 TTTTTTTTTTTTTTTTTTTTTTTTTTTTTT NUMDFT      TELAPSE       32.71 TCPU      635.51
 CYC   1 ETOT(AU) -1.288827748255E+03 DETOT  7.13E+00 tst  0.00E+00 PX  1.00E+00
 TTTTTTTTTTTTTTTTTTTTTTTTTTTTTT DIIS        TELAPSE       32.76 TCPU      636.97
 DIIS TEST: 0.10878E+01 AT SCF   CYCLE   1 - MIX   30 %
 TTTTTTTTTTTTTTTTTTTTTTTTTTTTTT FDIK        TELAPSE       33.27 TCPU      653.21
 INSULATING STATE
 TOP OF VALENCE BANDS -    BAND     99; K   17; EIG -2.2352443E-01 AU
 TOP OF VALENCE BANDS -    BAND     99; K    1; EIG -2.2970343E-01 AU
 BOTTOM OF VIRTUAL BANDS - BAND    100; K   17; EIG -8.7790304E-02 AU
 DIRECT ENERGY BAND GAP:   3.6935 eV
 BOTTOM OF VIRTUAL BANDS - BAND    100; K    1; EIG -8.2737541E-02 AU
 TTTTTTTTTTTTTTTTTTTTTTTTTTTTTT PDIG        TELAPSE       33.59 TCPU      659.39
 CHARGE NORMALIZATION FACTOR   1.00000000
 TOTAL ATOMIC CHARGES:
   4.6627744   4.6960887   4.6967018   4.6974071   4.6970358   4.6625877
   0.9052245   0.9056639   0.9171568   0.9173384   0.8982729   0.8978355
   0.8989539   0.8991520   0.9047817   0.9053007   0.9170522   0.9170451
   5.8723175   6.1343092   6.1324519   6.1428784   6.1446646   5.8684722
   5.9026916   6.1434341   6.1465980   6.1489678   6.1476376   5.8975594
   5.8736253   6.1295278   6.1324182   6.1450385   6.1416266   5.8747594
   8.3323338   8.3308785   8.3495823   8.3294795   8.3466090   8.3357658
 TTTTTTTTTTTTTTTTTTTTTTTTTTTTTT MOQGAD      TELAPSE       33.64 TCPU      659.43
 TTTTTTTTTTTTTTTTTTTTTTTTTTTTTT SHELLXN     TELAPSE       42.30 TCPU      935.87
 TTTTTTTTTTTTTTTTTTTTTTTTTTTTTT MONMO3      TELAPSE       42.45 TCPU      940.71
 NUMERICALLY INTEGRATED DENSITY    197.9999729619
 TTTTTTTTTTTTTTTTTTTTTTTTTTTTTT NUMDFT      TELAPSE       43.09 TCPU      960.96
 CYC   2 ETOT(AU) -1.289020779939E+03 DETOT -1.93E-01 tst  3.41E-03 PX  1.59E-01
 TTTTTTTTTTTTTTTTTTTTTTTTTTTTTT DIIS        TELAPSE       43.14 TCPU      962.58
 DIIS TEST: 0.44620E+00 AT SCF   CYCLE   2 - DIIS ACTIVE - HISTORY:     2 CYCLES
 TTTTTTTTTTTTTTTTTTTTTTTTTTTTTT FDIK        TELAPSE       43.64 TCPU      978.74
 INSULATING STATE
 TOP OF VALENCE BANDS -    BAND     99; K   17; EIG -2.3550986E-01 AU
 TOP OF VALENCE BANDS -    BAND     99; K    1; EIG -2.3999858E-01 AU
 BOTTOM OF VIRTUAL BANDS - BAND    100; K   17; EIG -8.3427867E-02 AU
 DIRECT ENERGY BAND GAP:   4.1384 eV
 BOTTOM OF VIRTUAL BANDS - BAND    100; K    1; EIG -7.8910652E-02 AU
 TTTTTTTTTTTTTTTTTTTTTTTTTTTTTT PDIG        TELAPSE       43.97 TCPU      984.92
 CHARGE NORMALIZATION FACTOR   1.00000000
 TOTAL ATOMIC CHARGES:
   4.4637993   4.4950786   4.4956465   4.4968338   4.4951191   4.4632518
   0.8855478   0.8854792   0.8940900   0.8944034   0.8813929   0.8812189
   0.8828862   0.8823805   0.8844267   0.8855305   0.8945814   0.8939527
   5.8940715   6.1637265   6.1641145   6.1560948   6.1557901   5.8956091
   5.9119211   6.1629489   6.1636764   6.1659321   6.1661310   5.9126618
   5.8944885   6.1635536   6.1638860   6.1565278   6.1575640   5.8942454
   8.5181092   8.5175399   8.5154813   8.5169342   8.5131284   8.5202445
 TTTTTTTTTTTTTTTTTTTTTTTTTTTTTT MOQGAD      TELAPSE       44.02 TCPU      984.97
 TTTTTTTTTTTTTTTTTTTTTTTTTTTTTT SHELLXN     TELAPSE       52.68 TCPU     1261.42
 TTTTTTTTTTTTTTTTTTTTTTTTTTTTTT MONMO3      TELAPSE       52.83 TCPU     1266.27
 NUMERICALLY INTEGRATED DENSITY    197.9999734348
 TTTTTTTTTTTTTTTTTTTTTTTTTTTTTT NUMDFT      TELAPSE       53.47 TCPU     1286.58
 CYC   3 ETOT(AU) -1.289112808608E+03 DETOT -9.20E-02 tst  6.47E-04 PX  6.65E-02
 TTTTTTTTTTTTTTTTTTTTTTTTTTTTTT DIIS        TELAPSE       53.53 TCPU     1288.42
 DIIS TEST: 0.14926E-01 AT SCF   CYCLE   3 - DIIS ACTIVE - HISTORY:     3 CYCLES
 TTTTTTTTTTTTTTTTTTTTTTTTTTTTTT FDIK        TELAPSE       54.04 TCPU     1304.74
 INSULATING STATE
 TOP OF VALENCE BANDS -    BAND     99; K   17; EIG -2.4531031E-01 AU
 TOP OF VALENCE BANDS -    BAND     99; K    1; EIG -2.5160707E-01 AU
 BOTTOM OF VIRTUAL BANDS - BAND    100; K   17; EIG -9.2392088E-02 AU
 DIRECT ENERGY BAND GAP:   4.1611 eV
 BOTTOM OF VIRTUAL BANDS - BAND    100; K    1; EIG -8.6787248E-02 AU
 TTTTTTTTTTTTTTTTTTTTTTTTTTTTTT PDIG        TELAPSE       54.36 TCPU     1310.91
 CHARGE NORMALIZATION FACTOR   1.00000000
 TOTAL ATOMIC CHARGES:
   4.4705592   4.4990209   4.4995555   4.5008554   4.4991381   4.4700946
   0.8686929   0.8690513   0.8762673   0.8765521   0.8620182   0.8618242
   0.8633046   0.8631247   0.8681393   0.8688549   0.8766063   0.8765376
   5.9410728   6.1667661   6.1650953   6.1712563   6.1713785   5.9393098
   5.9644241   6.1741605   6.1752782   6.1767447   6.1762535   5.9622298
   5.9414600   6.1641484   6.1661631   6.1722117   6.1703151   5.9406611
   8.4783798   8.4770487   8.4903898   8.4759745   8.4882377   8.4808432
 TTTTTTTTTTTTTTTTTTTTTTTTTTTTTT MOQGAD      TELAPSE       54.41 TCPU     1310.96
 TTTTTTTTTTTTTTTTTTTTTTTTTTTTTT SHELLXN     TELAPSE       63.08 TCPU     1587.38
 TTTTTTTTTTTTTTTTTTTTTTTTTTTTTT MONMO3      TELAPSE       63.23 TCPU     1592.22
 NUMERICALLY INTEGRATED DENSITY    197.9999737030
 TTTTTTTTTTTTTTTTTTTTTTTTTTTTTT NUMDFT      TELAPSE       63.86 TCPU     1612.51
 CYC   4 ETOT(AU) -1.289116027630E+03 DETOT -3.22E-03 tst  3.08E-05 PX  1.42E-02
 TTTTTTTTTTTTTTTTTTTTTTTTTTTTTT DIIS        TELAPSE       63.92 TCPU     1614.47
 DIIS TEST: 0.41673E-02 AT SCF   CYCLE   4 - DIIS ACTIVE - HISTORY:     4 CYCLES
 TTTTTTTTTTTTTTTTTTTTTTTTTTTTTT FDIK        TELAPSE       64.43 TCPU     1630.79
 INSULATING STATE
 TOP OF VALENCE BANDS -    BAND     99; K   17; EIG -2.4374858E-01 AU
 TOP OF VALENCE BANDS -    BAND     99; K    1; EIG -2.4945718E-01 AU
 BOTTOM OF VIRTUAL BANDS - BAND    100; K   17; EIG -9.1683089E-02 AU
 DIRECT ENERGY BAND GAP:   4.1379 eV
 BOTTOM OF VIRTUAL BANDS - BAND    100; K    1; EIG -8.6713440E-02 AU
 TTTTTTTTTTTTTTTTTTTTTTTTTTTTTT PDIG        TELAPSE       64.75 TCPU     1636.96
 CHARGE NORMALIZATION FACTOR   1.00000000
 TOTAL ATOMIC CHARGES:
   4.4704532   4.5018985   4.5025397   4.5036375   4.5021619   4.4699464
   0.8711965   0.8712586   0.8799056   0.8801531   0.8657356   0.8654837
   0.8670279   0.8666815   0.8703377   0.8712906   0.8803169   0.8799043
   5.9239280   6.1682687   6.1680427   6.1680812   6.1681346   5.9241753
   5.9449676   6.1726294   6.1739820   6.1756667   6.1756525   5.9444869
   5.9244258   6.1670297   6.1679714   6.1685244   6.1685853   5.9245052
   8.4909584   8.4900344   8.4949451   8.4892627   8.4925344   8.4932786
 TTTTTTTTTTTTTTTTTTTTTTTTTTTTTT MOQGAD      TELAPSE       64.80 TCPU     1637.01
 TTTTTTTTTTTTTTTTTTTTTTTTTTTTTT SHELLXN     TELAPSE       73.47 TCPU     1913.43
 TTTTTTTTTTTTTTTTTTTTTTTTTTTTTT MONMO3      TELAPSE       73.62 TCPU     1918.28
 NUMERICALLY INTEGRATED DENSITY    197.9999737059
 TTTTTTTTTTTTTTTTTTTTTTTTTTTTTT NUMDFT      TELAPSE       74.25 TCPU     1938.58
 CYC   5 ETOT(AU) -1.289116976571E+03 DETOT -9.49E-04 tst  6.85E-06 PX  6.56E-03
 TTTTTTTTTTTTTTTTTTTTTTTTTTTTTT DIIS        TELAPSE       74.32 TCPU     1940.80
 DIIS TEST: 0.58883E-04 AT SCF   CYCLE   5 - DIIS ACTIVE - HISTORY:     5 CYCLES
 TTTTTTTTTTTTTTTTTTTTTTTTTTTTTT FDIK        TELAPSE       74.83 TCPU     1957.13
 INSULATING STATE
 TOP OF VALENCE BANDS -    BAND     99; K   17; EIG -2.4350780E-01 AU
 TOP OF VALENCE BANDS -    BAND     99; K    1; EIG -2.4922997E-01 AU
 BOTTOM OF VIRTUAL BANDS - BAND    100; K   17; EIG -9.1230178E-02 AU
 DIRECT ENERGY BAND GAP:   4.1437 eV
 BOTTOM OF VIRTUAL BANDS - BAND    100; K    1; EIG -8.6231972E-02 AU
 TTTTTTTTTTTTTTTTTTTTTTTTTTTTTT PDIG        TELAPSE       75.15 TCPU     1963.30
 CHARGE NORMALIZATION FACTOR   1.00000000
 TOTAL ATOMIC CHARGES:
   4.4714542   4.5012730   4.5018358   4.5030586   4.5014574   4.4709737
   0.8721442   0.8723923   0.8807334   0.8810419   0.8666985   0.8665349
   0.8680153   0.8677598   0.8714517   0.8722623   0.8810726   0.8808964
   5.9242421   6.1678010   6.1665557   6.1675892   6.1676117   5.9233702
   5.9457125   6.1720496   6.1727659   6.1747228   6.1744490   5.9441680
   5.9247481   6.1657723   6.1673500   6.1686747   6.1672390   5.9237171
   8.4897263   8.4886756   8.4971870   8.4876494   8.4950476   8.4921195
 TTTTTTTTTTTTTTTTTTTTTTTTTTTTTT MOQGAD      TELAPSE       75.20 TCPU     1963.35
 TTTTTTTTTTTTTTTTTTTTTTTTTTTTTT SHELLXN     TELAPSE       83.87 TCPU     2239.64
 TTTTTTTTTTTTTTTTTTTTTTTTTTTTTT MONMO3      TELAPSE       84.02 TCPU     2244.47
 NUMERICALLY INTEGRATED DENSITY    197.9999737012
 TTTTTTTTTTTTTTTTTTTTTTTTTTTTTT NUMDFT      TELAPSE       84.65 TCPU     2264.74
 CYC   6 ETOT(AU) -1.289116991682E+03 DETOT -1.51E-05 tst  1.04E-07 PX  9.31E-04
 TTTTTTTTTTTTTTTTTTTTTTTTTTTTTT DIIS        TELAPSE       84.73 TCPU     2267.09
 DIIS TEST: 0.13898E-04 AT SCF   CYCLE   6 - DIIS ACTIVE - HISTORY:     6 CYCLES
 TTTTTTTTTTTTTTTTTTTTTTTTTTTTTT FDIK        TELAPSE       85.24 TCPU     2283.37
 INSULATING STATE
 TOP OF VALENCE BANDS -    BAND     99; K   17; EIG -2.4353261E-01 AU
 TOP OF VALENCE BANDS -    BAND     99; K    1; EIG -2.4923607E-01 AU
 BOTTOM OF VIRTUAL BANDS - BAND    100; K   17; EIG -9.1281687E-02 AU
 DIRECT ENERGY BAND GAP:   4.1430 eV
 BOTTOM OF VIRTUAL BANDS - BAND    100; K    1; EIG -8.6271098E-02 AU
 TTTTTTTTTTTTTTTTTTTTTTTTTTTTTT PDIG        TELAPSE       85.56 TCPU     2289.55
 CHARGE NORMALIZATION FACTOR   1.00000000
 TOTAL ATOMIC CHARGES:
   4.4709778   4.5016469   4.5022674   4.5034153   4.5018578   4.4704695
   0.8721514   0.8722721   0.8806875   0.8809513   0.8666323   0.8663858
   0.8679304   0.8676164   0.8713428   0.8722548   0.8810984   0.8807262
   5.9239735   6.1675702   6.1670989   6.1674799   6.1674668   5.9238493
   5.9451328   6.1718528   6.1732044   6.1748900   6.1746979   5.9444247
   5.9243243   6.1661108   6.1672759   6.1679623   6.1677849   5.9243545
   8.4903756   8.4893537   8.4956189   8.4885674   8.4932538   8.4926928
 TTTTTTTTTTTTTTTTTTTTTTTTTTTTTT MOQGAD      TELAPSE       85.60 TCPU     2289.60
 TTTTTTTTTTTTTTTTTTTTTTTTTTTTTT SHELLXN     TELAPSE       94.28 TCPU     2565.84
 TTTTTTTTTTTTTTTTTTTTTTTTTTTTTT MONMO3      TELAPSE       94.43 TCPU     2570.68
 NUMERICALLY INTEGRATED DENSITY    197.9999736898
 TTTTTTTTTTTTTTTTTTTTTTTTTTTTTT NUMDFT      TELAPSE       95.06 TCPU     2590.98
 CYC   7 ETOT(AU) -1.289116994290E+03 DETOT -2.61E-06 tst  4.12E-08 PX  6.63E-04
 TTTTTTTTTTTTTTTTTTTTTTTTTTTTTT DIIS        TELAPSE       95.14 TCPU     2593.53
 DIIS TEST: 0.99131E-06 AT SCF   CYCLE   7 - DIIS ACTIVE - HISTORY:     7 CYCLES
 TTTTTTTTTTTTTTTTTTTTTTTTTTTTTT FDIK        TELAPSE       95.65 TCPU     2609.82
 INSULATING STATE
 TOP OF VALENCE BANDS -    BAND     99; K   17; EIG -2.4352911E-01 AU
 TOP OF VALENCE BANDS -    BAND     99; K    1; EIG -2.4924557E-01 AU
 BOTTOM OF VIRTUAL BANDS - BAND    100; K   17; EIG -9.1296731E-02 AU
 DIRECT ENERGY BAND GAP:   4.1425 eV
 BOTTOM OF VIRTUAL BANDS - BAND    100; K    1; EIG -8.6289916E-02 AU
 TTTTTTTTTTTTTTTTTTTTTTTTTTTTTT PDIG        TELAPSE       95.97 TCPU     2615.99
 CHARGE NORMALIZATION FACTOR   1.00000000
 TOTAL ATOMIC CHARGES:
   4.4710401   4.5016771   4.5022783   4.5034410   4.5018898   4.4705475
   0.8721060   0.8722606   0.8806708   0.8809454   0.8665691   0.8663698
   0.8678894   0.8675776   0.8713264   0.8722128   0.8810464   0.8807531
   5.9239852   6.1676372   6.1668985   6.1674935   6.1675818   5.9237225
   5.9452946   6.1720744   6.1730371   6.1748524   6.1747730   5.9442616
   5.9245732   6.1660221   6.1672382   6.1682998   6.1675685   5.9239916
   8.4902595   8.4893027   8.4958899   8.4883801   8.4936217   8.4926398
 TTTTTTTTTTTTTTTTTTTTTTTTTTTTTT MOQGAD      TELAPSE       96.02 TCPU     2616.04
 TTTTTTTTTTTTTTTTTTTTTTTTTTTTTT SHELLXN     TELAPSE      104.70 TCPU     2892.54
 TTTTTTTTTTTTTTTTTTTTTTTTTTTTTT MONMO3      TELAPSE      104.85 TCPU     2897.38
 NUMERICALLY INTEGRATED DENSITY    197.9999736910
 TTTTTTTTTTTTTTTTTTTTTTTTTTTTTT NUMDFT      TELAPSE      105.49 TCPU     2917.71
 CYC   8 ETOT(AU) -1.289116994279E+03 DETOT  1.08E-08 tst  4.08E-09 PX  1.41E-04
 TTTTTTTTTTTTTTTTTTTTTTTTTTTTTT DIIS        TELAPSE      105.58 TCPU     2920.75
 DIIS TEST: 0.11074E-06 AT SCF   CYCLE   8 - DIIS ACTIVE - HISTORY:     8 CYCLES
 TTTTTTTTTTTTTTTTTTTTTTTTTTTTTT FDIK        TELAPSE      106.09 TCPU     2937.12
 INSULATING STATE
 TOP OF VALENCE BANDS -    BAND     99; K   17; EIG -2.4353218E-01 AU
 TOP OF VALENCE BANDS -    BAND     99; K    1; EIG -2.4924607E-01 AU
 BOTTOM OF VIRTUAL BANDS - BAND    100; K   17; EIG -9.1293502E-02 AU
 DIRECT ENERGY BAND GAP:   4.1426 eV
 BOTTOM OF VIRTUAL BANDS - BAND    100; K    1; EIG -8.6287365E-02 AU
 TTTTTTTTTTTTTTTTTTTTTTTTTTTTTT PDIG        TELAPSE      106.41 TCPU     2943.30
 CHARGE NORMALIZATION FACTOR   1.00000000
 TOTAL ATOMIC CHARGES:
   4.4710633   4.5016469   4.5022526   4.5034138   4.5018565   4.4705631
   0.8721029   0.8722511   0.8806680   0.8809441   0.8665918   0.8663637
   0.8678923   0.8675925   0.8713191   0.8722078   0.8810613   0.8807355
   5.9240107   6.1676204   6.1669766   6.1675349   6.1675164   5.9237124
   5.9452485   6.1719307   6.1731437   6.1748943   6.1746838   5.9443586
   5.9243936   6.1660310   6.1672940   6.1681558   6.1676839   5.9241842
   8.4902697   8.4892438   8.4959486   8.4884035   8.4936336   8.4926008
 TTTTTTTTTTTTTTTTTTTTTTTTTTTTTT MOQGAD      TELAPSE      106.46 TCPU     2943.35
 TTTTTTTTTTTTTTTTTTTTTTTTTTTTTT SHELLXN     TELAPSE      115.14 TCPU     3219.71
 +++ ENERGIES IN A.U. +++
 ::: EXT EL-POLE                                  -1.4363834815427E+03
 ::: EXT EL-SPHEROPOLE                             1.5919290606040E+01
 ::: BIELET ZONE E-E                               2.1942978617389E+03
 ::: TOTAL E-E                                     7.7383367080233E+02
 ::: TOTAL E-N + N-E                              -3.3740682057018E+03
 ::: TOTAL N-N                                     1.6492417378201E+02
 ::: KINETIC ENERGY                                1.2799054874189E+03
 ::: PSEUDO TOTAL   ENERGY                        -1.1554048736985E+03
 ::: VIRIAL COEFFICIENT                            1.0511230994243E+00
 TTTTTTTTTTTTTTTTTTTTTTTTTTTTTT MONMO3      TELAPSE      115.29 TCPU     3224.55
 NUMERICALLY INTEGRATED DENSITY    197.9999736913
 EXCHANGE ENERGY: -0.126018313487E+03  CORRELATION ENERGY: -0.769380713338E+01
 TTTTTTTTTTTTTTTTTTTTTTTTTTTTTT NUMDFT      TELAPSE      115.92 TCPU     3244.86
 CYC   9 ETOT(AU) -1.289116994319E+03 DETOT -3.95E-08 tst  1.28E-09 PX  1.41E-04

 == SCF ENDED - CONVERGENCE ON ENERGY      E(AU) -1.2891169943186E+03 CYCLES   9


 ENERGY EXPRESSION=HARTREE+FOCK EXCH*0.00000+(HSESOL     EXCH)*1.00000+PBESOL     CORR


 TOTAL ENERGY(DFT)(AU)(  9) -1.2891169943186E+03 DE-4.0E-08 tester 1.3E-09
 TTTTTTTTTTTTTTTTTTTTTTTTTTTTTT EDFT        TELAPSE      115.92 TCPU     3244.87
 
 INFORMATION **** DFTD3 ENERGY **** CALCULATE DFTD3 ENERGY

           DFT-D V3(BJ)
 DF                                         hsesol3c  
 parameters
 s6       :    1.0000
 s8       :    0.0000
 a1       :    0.5196
 a2       :    4.9385
 k1 k3    :   16.0000   -4.0000
 Cutoff   :   50.2022
 CN-Cutoff:   21.1671
 ABC-Cutoff:   21.1671
 
 Edisp /kcal,au:   -27.1943 -0.04333682

 E6    /kcal :   -28.8913
 E8    /kcal :     0.0000
 E6(ABC) "   :   1.697015
 
 INFORMATION **** DFTD3 ENERGY **** NORMAL TERMINATION OF DFTD3 MODULE

 GCP ENERGY CALCULATION
  level        hsesol3c            basis:hsesol3c
  Nbf            474
  Atoms           42

  Parameters: 
  sigma     1.0000
  eta       1.4281
  alpha     0.2936
  beta      1.9467

  dmp_scal      4.0000
  dmp_exp       6.0000
 cutoffs: 
   distance [bohr] 60.0
   noise    [a.u.] 2.2E-16
 SR-damping   T
 ** gCP correction **
  Egcp:        0.0832354356 / (a.u.) ||      52.2310 / (kcal/mol)
 INFORMATION **** GCP **** NORMAL TERMINATION OF GCP MODULE

 *******************************************************************************

 DFT-D3-GCP DISPERSION AND COUNTERPOISE CORRECTION

 D3 DISPERSION ENERGY (AU)      -4.3336823517058E-02
 GCP ENERGY (AU)                 8.3235435580956E-02
 TOTAL ENERGY + DISP + GCP (AU) -1.2890770957065E+03

 *******************************************************************************

 EIGENVECTORS IN FORTRAN UNIT 10
 TTTTTTTTTTTTTTTTTTTTTTTTTTTTTT END         TELAPSE      117.31 TCPU     3252.22
 EEEEEEEEEE TERMINATION  DATE 02 12 2025 TIME 08:02:37.0
