 Default number of threads is:           32

         
 *******************************************************************************
 *                                                                             *
 *                               CRYSTAL23                                     *
 *                      public : 1.0.1 - October 2022                          *
 *                       HTTP://WWW.CRYSTAL.UNITO.IT                           *
 *                                                                             *
 *                              MAIN AUTHORS                                   *
 *                                                                             *
 *  R. DOVESI(1,11), V.R. SAUNDERS(2), C. ROETTI(1,11), R. ORLANDO(1,11),      *
 *  C.M. ZICOVICH-WILSON(1,3), F. PASCALE(4), B. CIVALLERI(1,11),              *
 *  K. DOLL(5), N.M. HARRISON(6), I.J. BUSH(7), Ph. D'ARCO(8),                 *
 *  M. LLUNELL(9), M. CAUSA'(10), Y. NOEL(8), L. MASCHIO(1,11), A. ERBA(1,11)  *
 *  M. RE'RAT(14), S. CASASSA(1,11), B.G. SEARLE(2), J.K. DESMARAIS(1)         *
 *                                                                             *
 *        CONTRIBUTIONS TO THE CODE HAVE ALSO BEEN GIVEN BY                    *
 *                                                                             *
 *  M. FERRABONE(1,11), M. DE LA PIERRE(1,11), M. FERRERO(1,11),               *
 *  J. BAIMA(1,11), E. ALBANESE(1,11), M.F. PEINTINGER(12), R. BAST(13),       *
 *  B. KIRTMAN(15), V. LACIVITA(1,11), R. DEMICHELIS(1,16)                     *
 *  G. BRANDEBURG(17), S. SALUSTRO(1,11), G. SANSONE(1,11)                     *
 *  M.T. RUGGIERO(18), L.E. DAGA(1), L. DONA'(1), A. COSSARD(1)                *
 *                                                                             *
 * (1) THEORETICAL CHEMISTRY GROUP - UNIVERSITA' DI TORINO - TORINO (ITALY)    *
 * (2) SCIENTIFIC COMPUTING DEPARTMENT - STFC DARESBURY (UK)                   *
 * (3) UNIVERSIDAD AUTONOMA DEL ESTADO DE MORELOS - CUERNAVACA (MEXICO)        *
 * (4) UNIVERSITE' DE LORRAINE - NANCY (FRANCE)                                *
 * (5) UNIVERSITAET STUTTGART- STUTTGART (GERMANY)                             *
 * (6) IMPERIAL COLLEGE - LONDON (UK)                                          *
 * (7) SCIENTIFIC COMPUTING DEPARTMENT - STFC RAL (UK)                         *
 * (8) UPMC - SORBONNE UNIVERSITES - PARIS (FRANCE)                            *
 * (9) UNIVERSIDAD DE BARCELONA - BARCELONA (SPAIN)                            *
 *(10) UNIVERSITA' DI NAPOLI "FEDERICO II" - NAPOLI (ITALY)                    *
 *(11) NIS - NANOSTRUCTURED INTERFACES AND SURFACES - TORINO (ITALY)           *
 *(12) MPI FUER CHEMISCHE ENERGIEKONVERSION - MUELHEIM AN DER RUHR (GERMANY)   *
 *(13) UNIVERSITY OF TROMSO - TROMSO (NORWAY)                                  *
 *(14) UNIVERSITE' DE PAU ET DES PAYS DE L'ADOUR - PAU (FRANCE)                *
 *(15) UNIVERSITY OF CALIFORNIA SANTA BARBARA - SANTA BARBARA (USA)            *
 *(16) CURTIN UNIVERSITY - PERTH (AUSTRALIA)                                   *
 *(17) UNIVERSITY COLLEGE LONDON - LONDON (UK)                                 *
 *(18) UNIVERSITY OF VERMONT - BURLINGTON (USA)                                *
 *                                                                             *
 *******************************************************************************
 EEEEEEEEEE STARTING  DATE 19 02 2026 TIME 20:22:39.8
 cof-1_z40_L020_serr                                                             

 CRYSTAL CALCULATION
 (INPUT ACCORDING TO THE INTERNATIONAL TABLES FOR X-RAY CRYSTALLOGRAPHY)
 CRYSTAL FAMILY                       :  TRICLINIC   
 CRYSTAL CLASS  (GROTH - 1921)        :  TRICLINIC PEDIAL                     

 SPACE GROUP (NONCENTROSYMMETRIC)     :  P 1             

 LATTICE PARAMETERS  (ANGSTROMS AND DEGREES) - CONVENTIONAL CELL
        A           B           C        ALPHA        BETA       GAMMA
    15.02361    15.02392     8.00000    90.00032    89.99994   119.99596


 NUMBER OF IRREDUCIBLE ATOMS IN THE CONVENTIONAL CELL:   84

 INPUT COORDINATES

 ATOM AT. N.              COORDINATES
   1   5     6.136805400000E-01  2.273182200000E-01  2.505970900000E-01
   2   5     6.905271000000E-01  3.810269500000E-01  7.505970900000E-01
   3   5     7.727362000000E-01  3.863778800000E-01  2.505971000000E-01
   4   5     8.495827600000E-01  5.400866100000E-01  7.505971000000E-01
   5   5     6.136762700000E-01  3.863606700000E-01  2.493417000000E-01
   6   5     6.905228300000E-01  5.400694000000E-01  7.493417000000E-01
   7   5     2.272552500000E-01  6.136332200000E-01  2.505970900000E-01
   8   5     3.041018100000E-01  7.673419500000E-01  7.505970900000E-01
   9   5     3.863632200000E-01  6.136124500000E-01  2.505970900000E-01
  10   5     4.632097800000E-01  7.673211800000E-01  7.505970900000E-01
  11   5     3.863435000000E-01  7.727516500000E-01  2.493417000000E-01
  12   5     4.631900600000E-01  9.264603800000E-01  7.493417000000E-01
  13   1     9.030436200000E-01  3.089300500000E-01  2.479944000000E-01
  14   1     9.798901800000E-01  4.626387800000E-01  7.479944000000E-01
  15   1     9.663453000000E-02  6.910534400000E-01  2.475964000000E-01
  16   1     1.734810900000E-01  8.447621700000E-01  7.475964100000E-01
  17   1     9.029714200000E-01  5.940724300000E-01  2.475351600000E-01
  18   1     9.798179800000E-01  7.477811600000E-01  7.475351600000E-01
  19   1     9.673618000000E-02  4.056849400000E-01  2.475504300000E-01
  20   1     1.735827400000E-01  5.593936700000E-01  7.475504300000E-01
  21   1     6.910324000000E-01  9.700412000000E-02  2.520056200000E-01
  22   1     7.678789600000E-01  2.507128500000E-01  7.520056100000E-01
  23   1     3.089297200000E-01  9.034373100000E-01  2.524036400000E-01
  24   1     3.857762800000E-01  5.714604000000E-02  7.524036400000E-01
  25   1     4.058699900000E-01  9.704998000000E-02  2.524649300000E-01
  26   1     4.827165500000E-01  2.507587100000E-01  7.524649300000E-01
  27   1     5.943122100000E-01  9.033473200000E-01  2.524495500000E-01
  28   1     6.711587700000E-01  5.705605000000E-02  7.524495500000E-01
  29   1     6.910727400000E-01  5.940542100000E-01  2.479944200000E-01
  30   1     7.679193000000E-01  7.477629400000E-01  7.479944300000E-01
  31   1     3.089618300000E-01  4.056093300000E-01  2.475963800000E-01
  32   1     3.858083900000E-01  5.593180600000E-01  7.475963800000E-01
  33   1     4.058405700000E-01  3.088232500000E-01  2.475351100000E-01
  34   1     4.826871300000E-01  4.625319800000E-01  7.475351000000E-01
  35   1     5.942908800000E-01  6.909579300000E-01  2.475504800000E-01
  36   1     6.711374400000E-01  8.446666600000E-01  7.475504800000E-01
  37   6     8.918903100000E-01  4.459436900000E-01  2.492957700000E-01
  38   6     9.687368700000E-01  5.996524200000E-01  7.492957700000E-01
  39   6     9.464891100000E-01  3.927856300000E-01  2.480556500000E-01
  40   6     2.333567000000E-02  5.464943600000E-01  7.480556500000E-01
  41   6     5.338812000000E-02  6.071853000000E-01  2.479485200000E-01
  42   6     1.302346800000E-01  7.608940300000E-01  7.479485200000E-01
  43   6     9.464521100000E-01  5.536921900000E-01  2.482700300000E-01
  44   6     2.329867000000E-02  7.074009200000E-01  7.482700300000E-01
  45   6     5.342634000000E-02  4.462499700000E-01  2.474432600000E-01
  46   6     1.302729000000E-01  5.999587000000E-01  7.474432600000E-01
  47   6     1.080358900000E-01  5.540356300000E-01  2.482853200000E-01
  48   6     1.848824500000E-01  7.077443600000E-01  7.482853200000E-01
  49   6     5.540394200000E-01  1.081684600000E-01  2.507042700000E-01
  50   6     6.308859800000E-01  2.618771900000E-01  7.507042700000E-01
  51   6     6.071778500000E-01  5.355594000000E-02  2.519443600000E-01
  52   6     6.840244100000E-01  2.072646700000E-01  7.519443600000E-01
  53   6     3.927986700000E-01  9.466631600000E-01  2.520515300000E-01
  54   6     4.696452300000E-01  1.003718900000E-01  7.520515300000E-01
  55   6     4.462875800000E-01  5.360286000000E-02  2.517300400000E-01
  56   6     5.231341400000E-01  2.073115900000E-01  7.517300400000E-01
  57   6     5.537168500000E-01  9.466235600000E-01  2.525567400000E-01
  58   6     6.305634100000E-01  1.003322900000E-01  7.525567400000E-01
  59   6     4.459279100000E-01  8.919920600000E-01  2.517147100000E-01
  60   6     5.227744700000E-01  4.570079000000E-02  7.517147100000E-01
  61   6     5.540448700000E-01  4.458745500000E-01  2.492957600000E-01
  62   6     6.308914300000E-01  5.995832800000E-01  7.492957600000E-01
  63   6     6.072102200000E-01  5.536257800000E-01  2.480556800000E-01
  64   6     6.840567800000E-01  7.073345100000E-01  7.480556800000E-01
  65   6     3.928233700000E-01  4.461720300000E-01  2.479484900000E-01
  66   6     4.696699300000E-01  5.998807600000E-01  7.479484900000E-01
  67   6     4.462872600000E-01  3.926899900000E-01  2.482699900000E-01
  68   6     5.231338200000E-01  5.463987200000E-01  7.482699900000E-01
  69   6     5.537429600000E-01  6.070980000000E-01  2.474433000000E-01
  70   6     6.305895200000E-01  7.608067300000E-01  7.474433000000E-01
  71   6     4.459599800000E-01  5.539582300000E-01  2.482853200000E-01
  72   6     5.228065400000E-01  7.076669600000E-01  7.482853200000E-01
  73   8     5.607366800000E-01  2.803706300000E-01  2.496785000000E-01
  74   8     6.375832400000E-01  4.340793600000E-01  7.496785000000E-01
  75   8     7.196817000000E-01  2.803783300000E-01  2.523271000000E-01
  76   8     7.965282600000E-01  4.340870600000E-01  7.523270900000E-01
  77   8     7.196794200000E-01  4.393234600000E-01  2.483312600000E-01
  78   8     7.965259800000E-01  5.930321900000E-01  7.483312600000E-01
  79   8     2.803245100000E-01  7.196511100000E-01  2.496785200000E-01
  80   8     3.571710700000E-01  8.733598400000E-01  7.496785200000E-01
  81   8     2.803439700000E-01  5.606956100000E-01  2.523270900000E-01
  82   8     3.571905300000E-01  7.144043400000E-01  7.523270900000E-01
  83   8     4.392638400000E-01  7.196354200000E-01  2.483312500000E-01
  84   8     5.161104000000E-01  8.733441500000E-01  7.483312500000E-01

 *******************************************************************************

 << INFORMATION >>: FROM NOW ON, ALL COORDINATES REFER TO THE PRIMITIVE CELL

 *******************************************************************************

 LATTICE PARAMETERS  (ANGSTROMS AND DEGREES) - PRIMITIVE CELL
       A          B          C        ALPHA      BETA     GAMMA        VOLUME
   15.02361   15.02392    8.00000    90.00032  89.99994 119.99596   1563.852384

 COORDINATES OF THE EQUIVALENT ATOMS (FRACTIONAL UNITS)

 N. ATOM EQUIV AT. N.          X                  Y                  Z

   1   1   1    5 B    -3.86319460000E-01  2.27318220000E-01  2.50597090000E-01

   2   2   1    5 B    -3.09472900000E-01  3.81026950000E-01 -2.49402910000E-01

   3   3   1    5 B    -2.27263800000E-01  3.86377880000E-01  2.50597100000E-01

   4   4   1    5 B    -1.50417240000E-01 -4.59913390000E-01 -2.49402900000E-01

   5   5   1    5 B    -3.86323730000E-01  3.86360670000E-01  2.49341700000E-01

   6   6   1    5 B    -3.09477170000E-01 -4.59930600000E-01 -2.50658300000E-01

   7   7   1    5 B     2.27255250000E-01 -3.86366780000E-01  2.50597090000E-01

   8   8   1    5 B     3.04101810000E-01 -2.32658050000E-01 -2.49402910000E-01

   9   9   1    5 B     3.86363220000E-01 -3.86387550000E-01  2.50597090000E-01

  10  10   1    5 B     4.63209780000E-01 -2.32678820000E-01 -2.49402910000E-01

  11  11   1    5 B     3.86343500000E-01 -2.27248350000E-01  2.49341700000E-01

  12  12   1    5 B     4.63190060000E-01 -7.35396200000E-02 -2.50658300000E-01

  13  13   1    1 H    -9.69563800000E-02  3.08930050000E-01  2.47994400000E-01

  14  14   1    1 H    -2.01098200000E-02  4.62638780000E-01 -2.52005600000E-01

  15  15   1    1 H     9.66345300000E-02 -3.08946560000E-01  2.47596400000E-01

  16  16   1    1 H     1.73481090000E-01 -1.55237830000E-01 -2.52403590000E-01

  17  17   1    1 H    -9.70285800000E-02 -4.05927570000E-01  2.47535160000E-01

  18  18   1    1 H    -2.01820200000E-02 -2.52218840000E-01 -2.52464840000E-01

  19  19   1    1 H     9.67361800000E-02  4.05684940000E-01  2.47550430000E-01

  20  20   1    1 H     1.73582740000E-01 -4.40606330000E-01 -2.52449570000E-01

  21  21   1    1 H    -3.08967600000E-01  9.70041200000E-02  2.52005620000E-01

  22  22   1    1 H    -2.32121040000E-01  2.50712850000E-01 -2.47994390000E-01

  23  23   1    1 H     3.08929720000E-01 -9.65626900000E-02  2.52403640000E-01

  24  24   1    1 H     3.85776280000E-01  5.71460400000E-02 -2.47596360000E-01

  25  25   1    1 H     4.05869990000E-01  9.70499800000E-02  2.52464930000E-01

  26  26   1    1 H     4.82716550000E-01  2.50758710000E-01 -2.47535070000E-01

  27  27   1    1 H    -4.05687790000E-01 -9.66526800000E-02  2.52449550000E-01

  28  28   1    1 H    -3.28841230000E-01  5.70560500000E-02 -2.47550450000E-01

  29  29   1    1 H    -3.08927260000E-01 -4.05945790000E-01  2.47994420000E-01

  30  30   1    1 H    -2.32080700000E-01 -2.52237060000E-01 -2.52005570000E-01

  31  31   1    1 H     3.08961830000E-01  4.05609330000E-01  2.47596380000E-01

  32  32   1    1 H     3.85808390000E-01 -4.40681940000E-01 -2.52403620000E-01

  33  33   1    1 H     4.05840570000E-01  3.08823250000E-01  2.47535110000E-01

  34  34   1    1 H     4.82687130000E-01  4.62531980000E-01 -2.52464900000E-01

  35  35   1    1 H    -4.05709120000E-01 -3.09042070000E-01  2.47550480000E-01

  36  36   1    1 H    -3.28862560000E-01 -1.55333340000E-01 -2.52449520000E-01

  37  37   1    6 C    -1.08109690000E-01  4.45943690000E-01  2.49295770000E-01

  38  38   1    6 C    -3.12631300000E-02 -4.00347580000E-01 -2.50704230000E-01

  39  39   1    6 C    -5.35108900000E-02  3.92785630000E-01  2.48055650000E-01

  40  40   1    6 C     2.33356700000E-02 -4.53505640000E-01 -2.51944350000E-01

  41  41   1    6 C     5.33881200000E-02 -3.92814700000E-01  2.47948520000E-01

  42  42   1    6 C     1.30234680000E-01 -2.39105970000E-01 -2.52051480000E-01

  43  43   1    6 C    -5.35478900000E-02 -4.46307810000E-01  2.48270030000E-01

  44  44   1    6 C     2.32986700000E-02 -2.92599080000E-01 -2.51729970000E-01

  45  45   1    6 C     5.34263400000E-02  4.46249970000E-01  2.47443260000E-01

  46  46   1    6 C     1.30272900000E-01 -4.00041300000E-01 -2.52556740000E-01

  47  47   1    6 C     1.08035890000E-01 -4.45964370000E-01  2.48285320000E-01

  48  48   1    6 C     1.84882450000E-01 -2.92255640000E-01 -2.51714680000E-01

  49  49   1    6 C    -4.45960580000E-01  1.08168460000E-01  2.50704270000E-01

  50  50   1    6 C    -3.69114020000E-01  2.61877190000E-01 -2.49295730000E-01

  51  51   1    6 C    -3.92822150000E-01  5.35559400000E-02  2.51944360000E-01

  52  52   1    6 C    -3.15975590000E-01  2.07264670000E-01 -2.48055640000E-01

  53  53   1    6 C     3.92798670000E-01 -5.33368400000E-02  2.52051530000E-01

  54  54   1    6 C     4.69645230000E-01  1.00371890000E-01 -2.47948470000E-01

  55  55   1    6 C     4.46287580000E-01  5.36028600000E-02  2.51730040000E-01

  56  56   1    6 C    -4.76865860000E-01  2.07311590000E-01 -2.48269960000E-01

  57  57   1    6 C    -4.46283150000E-01 -5.33764400000E-02  2.52556740000E-01

  58  58   1    6 C    -3.69436590000E-01  1.00332290000E-01 -2.47443260000E-01

  59  59   1    6 C     4.45927910000E-01 -1.08007940000E-01  2.51714710000E-01

  60  60   1    6 C    -4.77225530000E-01  4.57007900000E-02 -2.48285290000E-01

  61  61   1    6 C    -4.45955130000E-01  4.45874550000E-01  2.49295760000E-01

  62  62   1    6 C    -3.69108570000E-01 -4.00416720000E-01 -2.50704240000E-01

  63  63   1    6 C    -3.92789780000E-01 -4.46374220000E-01  2.48055680000E-01

  64  64   1    6 C    -3.15943220000E-01 -2.92665490000E-01 -2.51944320000E-01

  65  65   1    6 C     3.92823370000E-01  4.46172030000E-01  2.47948490000E-01

  66  66   1    6 C     4.69669930000E-01 -4.00119240000E-01 -2.52051510000E-01

  67  67   1    6 C     4.46287260000E-01  3.92689990000E-01  2.48269990000E-01

  68  68   1    6 C    -4.76866180000E-01 -4.53601280000E-01 -2.51730010000E-01

  69  69   1    6 C    -4.46257040000E-01 -3.92902000000E-01  2.47443300000E-01

  70  70   1    6 C    -3.69410480000E-01 -2.39193270000E-01 -2.52556700000E-01

  71  71   1    6 C     4.45959980000E-01 -4.46041770000E-01  2.48285320000E-01

  72  72   1    6 C    -4.77193460000E-01 -2.92333040000E-01 -2.51714680000E-01

  73  73   1    8 O    -4.39263320000E-01  2.80370630000E-01  2.49678500000E-01

  74  74   1    8 O    -3.62416760000E-01  4.34079360000E-01 -2.50321500000E-01

  75  75   1    8 O    -2.80318300000E-01  2.80378330000E-01  2.52327100000E-01

  76  76   1    8 O    -2.03471740000E-01  4.34087060000E-01 -2.47672910000E-01

  77  77   1    8 O    -2.80320580000E-01  4.39323460000E-01  2.48331260000E-01

  78  78   1    8 O    -2.03474020000E-01 -4.06967810000E-01 -2.51668740000E-01

  79  79   1    8 O     2.80324510000E-01 -2.80348890000E-01  2.49678520000E-01

  80  80   1    8 O     3.57171070000E-01 -1.26640160000E-01 -2.50321480000E-01

  81  81   1    8 O     2.80343970000E-01 -4.39304390000E-01  2.52327090000E-01

  82  82   1    8 O     3.57190530000E-01 -2.85595660000E-01 -2.47672910000E-01

  83  83   1    8 O     4.39263840000E-01 -2.80364580000E-01  2.48331250000E-01

  84  84   1    8 O    -4.83889600000E-01 -1.26655850000E-01 -2.51668750000E-01

 NUMBER OF SYMMETRY OPERATORS         :    1
 *******************************************************************************
 * GEOMETRY EDITING - INPUT COORDINATES ARE GIVEN IN ANGSTROM         
 *******************************************************************************

 GCALCO - MAX INDICES DIRECT LATTICE VECTOR    12    12    21
 NO.OF VECTORS CREATED 6999 STARS 3500 RMAX   260.07972 BOHR

 GEOMETRY FOR WAVE FUNCTION - DIMENSIONALITY OF THE SYSTEM    3
 (NON PERIODIC DIRECTION: LATTICE PARAMETER FORMALLY SET TO 500)
 *******************************************************************************
 LATTICE PARAMETERS (ANGSTROMS AND DEGREES) - BOHR = 0.5291772083 ANGSTROM
 PRIMITIVE CELL - CENTRING CODE 1/0 VOLUME=  1563.852384 - DENSITY  0.828 g/cm^3
         A              B              C           ALPHA      BETA       GAMMA 
    15.02361100    15.02391600     8.00000000    90.000323  89.999944 119.995964
 *******************************************************************************
 ATOMS IN THE ASYMMETRIC UNIT   84 - ATOMS IN THE UNIT CELL:   84
     ATOM                 X/A                 Y/B                 Z/C    
 *******************************************************************************
      1 T   5 B    -3.863194600000E-01  2.273182200000E-01  2.505970900000E-01
      2 T   5 B    -3.094729000000E-01  3.810269500000E-01 -2.494029100000E-01
      3 T   5 B    -2.272638000000E-01  3.863778800000E-01  2.505971000000E-01
      4 T   5 B    -1.504172400000E-01 -4.599133900000E-01 -2.494029000000E-01
      5 T   5 B    -3.863237300000E-01  3.863606700000E-01  2.493417000000E-01
      6 T   5 B    -3.094771700000E-01 -4.599306000000E-01 -2.506583000000E-01
      7 T   5 B     2.272552500000E-01 -3.863667800000E-01  2.505970900000E-01
      8 T   5 B     3.041018100000E-01 -2.326580500000E-01 -2.494029100000E-01
      9 T   5 B     3.863632200000E-01 -3.863875500000E-01  2.505970900000E-01
     10 T   5 B     4.632097800000E-01 -2.326788200000E-01 -2.494029100000E-01
     11 T   5 B     3.863435000000E-01 -2.272483500000E-01  2.493417000000E-01
     12 T   5 B     4.631900600000E-01 -7.353962000000E-02 -2.506583000000E-01
     13 T   1 H    -9.695638000000E-02  3.089300500000E-01  2.479944000000E-01
     14 T   1 H    -2.010982000000E-02  4.626387800000E-01 -2.520056000000E-01
     15 T   1 H     9.663453000000E-02 -3.089465600000E-01  2.475964000000E-01
     16 T   1 H     1.734810900000E-01 -1.552378300000E-01 -2.524035900000E-01
     17 T   1 H    -9.702858000000E-02 -4.059275700000E-01  2.475351600000E-01
     18 T   1 H    -2.018202000000E-02 -2.522188400000E-01 -2.524648400000E-01
     19 T   1 H     9.673618000000E-02  4.056849400000E-01  2.475504300000E-01
     20 T   1 H     1.735827400000E-01 -4.406063300000E-01 -2.524495700000E-01
     21 T   1 H    -3.089676000000E-01  9.700412000000E-02  2.520056200000E-01
     22 T   1 H    -2.321210400000E-01  2.507128500000E-01 -2.479943900000E-01
     23 T   1 H     3.089297200000E-01 -9.656269000000E-02  2.524036400000E-01
     24 T   1 H     3.857762800000E-01  5.714604000000E-02 -2.475963600000E-01
     25 T   1 H     4.058699900000E-01  9.704998000000E-02  2.524649300000E-01
     26 T   1 H     4.827165500000E-01  2.507587100000E-01 -2.475350700000E-01
     27 T   1 H    -4.056877900000E-01 -9.665268000000E-02  2.524495500000E-01
     28 T   1 H    -3.288412300000E-01  5.705605000000E-02 -2.475504500000E-01
     29 T   1 H    -3.089272600000E-01 -4.059457900000E-01  2.479944200000E-01
     30 T   1 H    -2.320807000000E-01 -2.522370600000E-01 -2.520055700000E-01
     31 T   1 H     3.089618300000E-01  4.056093300000E-01  2.475963800000E-01
     32 T   1 H     3.858083900000E-01 -4.406819400000E-01 -2.524036200000E-01
     33 T   1 H     4.058405700000E-01  3.088232500000E-01  2.475351100000E-01
     34 T   1 H     4.826871300000E-01  4.625319800000E-01 -2.524649000000E-01
     35 T   1 H    -4.057091200000E-01 -3.090420700000E-01  2.475504800000E-01
     36 T   1 H    -3.288625600000E-01 -1.553333400000E-01 -2.524495200000E-01
     37 T   6 C    -1.081096900000E-01  4.459436900000E-01  2.492957700000E-01
     38 T   6 C    -3.126313000000E-02 -4.003475800000E-01 -2.507042300000E-01
     39 T   6 C    -5.351089000000E-02  3.927856300000E-01  2.480556500000E-01
     40 T   6 C     2.333567000000E-02 -4.535056400000E-01 -2.519443500000E-01
     41 T   6 C     5.338812000000E-02 -3.928147000000E-01  2.479485200000E-01
     42 T   6 C     1.302346800000E-01 -2.391059700000E-01 -2.520514800000E-01
     43 T   6 C    -5.354789000000E-02 -4.463078100000E-01  2.482700300000E-01
     44 T   6 C     2.329867000000E-02 -2.925990800000E-01 -2.517299700000E-01
     45 T   6 C     5.342634000000E-02  4.462499700000E-01  2.474432600000E-01
     46 T   6 C     1.302729000000E-01 -4.000413000000E-01 -2.525567400000E-01
     47 T   6 C     1.080358900000E-01 -4.459643700000E-01  2.482853200000E-01
     48 T   6 C     1.848824500000E-01 -2.922556400000E-01 -2.517146800000E-01
     49 T   6 C    -4.459605800000E-01  1.081684600000E-01  2.507042700000E-01
     50 T   6 C    -3.691140200000E-01  2.618771900000E-01 -2.492957300000E-01
     51 T   6 C    -3.928221500000E-01  5.355594000000E-02  2.519443600000E-01
     52 T   6 C    -3.159755900000E-01  2.072646700000E-01 -2.480556400000E-01
     53 T   6 C     3.927986700000E-01 -5.333684000000E-02  2.520515300000E-01
     54 T   6 C     4.696452300000E-01  1.003718900000E-01 -2.479484700000E-01
     55 T   6 C     4.462875800000E-01  5.360286000000E-02  2.517300400000E-01
     56 T   6 C    -4.768658600000E-01  2.073115900000E-01 -2.482699600000E-01
     57 T   6 C    -4.462831500000E-01 -5.337644000000E-02  2.525567400000E-01
     58 T   6 C    -3.694365900000E-01  1.003322900000E-01 -2.474432600000E-01
     59 T   6 C     4.459279100000E-01 -1.080079400000E-01  2.517147100000E-01
     60 T   6 C    -4.772255300000E-01  4.570079000000E-02 -2.482852900000E-01
     61 T   6 C    -4.459551300000E-01  4.458745500000E-01  2.492957600000E-01
     62 T   6 C    -3.691085700000E-01 -4.004167200000E-01 -2.507042400000E-01
     63 T   6 C    -3.927897800000E-01 -4.463742200000E-01  2.480556800000E-01
     64 T   6 C    -3.159432200000E-01 -2.926654900000E-01 -2.519443200000E-01
     65 T   6 C     3.928233700000E-01  4.461720300000E-01  2.479484900000E-01
     66 T   6 C     4.696699300000E-01 -4.001192400000E-01 -2.520515100000E-01
     67 T   6 C     4.462872600000E-01  3.926899900000E-01  2.482699900000E-01
     68 T   6 C    -4.768661800000E-01 -4.536012800000E-01 -2.517300100000E-01
     69 T   6 C    -4.462570400000E-01 -3.929020000000E-01  2.474433000000E-01
     70 T   6 C    -3.694104800000E-01 -2.391932700000E-01 -2.525567000000E-01
     71 T   6 C     4.459599800000E-01 -4.460417700000E-01  2.482853200000E-01
     72 T   6 C    -4.771934600000E-01 -2.923330400000E-01 -2.517146800000E-01
     73 T   8 O    -4.392633200000E-01  2.803706300000E-01  2.496785000000E-01
     74 T   8 O    -3.624167600000E-01  4.340793600000E-01 -2.503215000000E-01
     75 T   8 O    -2.803183000000E-01  2.803783300000E-01  2.523271000000E-01
     76 T   8 O    -2.034717400000E-01  4.340870600000E-01 -2.476729100000E-01
     77 T   8 O    -2.803205800000E-01  4.393234600000E-01  2.483312600000E-01
     78 T   8 O    -2.034740200000E-01 -4.069678100000E-01 -2.516687400000E-01
     79 T   8 O     2.803245100000E-01 -2.803488900000E-01  2.496785200000E-01
     80 T   8 O     3.571710700000E-01 -1.266401600000E-01 -2.503214800000E-01
     81 T   8 O     2.803439700000E-01 -4.393043900000E-01  2.523270900000E-01
     82 T   8 O     3.571905300000E-01 -2.855956600000E-01 -2.476729100000E-01
     83 T   8 O     4.392638400000E-01 -2.803645800000E-01  2.483312500000E-01
     84 T   8 O    -4.838896000000E-01 -1.266558500000E-01 -2.516687500000E-01

 T = ATOM BELONGING TO THE ASYMMETRIC UNIT

 ****    1 SYMMOPS - TRANSLATORS IN FRACTIONAL UNITS
 **** MATRICES AND TRANSLATORS IN THE CRYSTALLOGRAPHIC REFERENCE FRAME
   V INV                    ROTATION MATRICES                   TRANSLATORS
   1   1  1.00  0.00  0.00  0.00  1.00  0.00 -0.00 -0.00  1.00  0.00  0.00  0.00

 DIRECT LATTICE VECTORS CARTESIAN COMPONENTS (ANGSTROM)
          X                    Y                    Z
   0.130113578931E+02  -0.751088897922E+01   0.000000000000E+00
   0.000000000000E+00   0.150239160000E+02   0.000000000000E+00
  -0.170055388808E-04  -0.450993078697E-04   0.799999999985E+01


 CARTESIAN COORDINATES - PRIMITIVE CELL
 *******************************************************************************
 *      ATOM          X(ANGSTROM)         Y(ANGSTROM)         Z(ANGSTROM)
 *******************************************************************************
    1     5 B    -5.026545016651E+00  6.316801115365E+00  2.004776719964E+00
    2     5 B    -4.026658418871E+00 -6.974971267589E+00 -1.995223279964E+00
    3     5 B    -2.957014899475E+00  7.511850682417E+00  2.004776799964E+00
    4     5 B    -1.957128301695E+00 -5.779921700537E+00 -1.995223199964E+00
    5     5 B    -5.026600553801E+00 -6.317642347288E+00  1.994733599964E+00
    6     5 B    -4.026713956021E+00 -4.585498730242E+00 -2.005266399964E+00
    7     5 B     2.956895129287E+00 -7.511642302360E+00  2.004776719964E+00
    8     5 B     3.956781727067E+00 -5.779498685314E+00 -1.995223279964E+00
    9     5 B     5.027105870595E+00  6.316919352526E+00  2.004776719964E+00
   10     5 B    -6.984365424682E+00  5.360359487887E-01 -1.995223279964E+00
   11     5 B     5.026849307966E+00 -6.315954503019E+00  1.994733599964E+00
   12     5 B     6.026735905746E+00 -4.583810885973E+00 -2.005266399964E+00
   13     1 H    -1.261538377474E+00  5.369556542707E+00  1.983955199964E+00
   14     1 H    -2.616517796939E-01  7.101700159753E+00 -2.016044799963E+00
   15     1 H     1.257342244147E+00 -5.367409558744E+00  1.980771199964E+00
   16     1 H     2.257228841927E+00 -3.635265941699E+00 -2.019228719963E+00
   17     1 H    -1.262477789704E+00 -5.369861985237E+00  1.980281279964E+00
   18     1 H    -2.625911919242E-01 -3.637718368192E+00 -2.019718719963E+00
   19     1 H     1.258664849459E+00  5.368390588418E+00  1.980403439964E+00
   20     1 H     2.258551447238E+00  7.100534205464E+00 -2.019596559963E+00
   21     1 H    -4.020092306450E+00  3.777991727030E+00  2.016044959963E+00
   22     1 H    -3.020205708670E+00  5.510135344076E+00 -1.983955119964E+00
   23     1 H     4.019590858462E+00 -3.771097955824E+00  2.019229119963E+00
   24     1 H     5.019477456242E+00 -2.038954338778E+00 -1.980770879964E+00
   25     1 H     5.280915404639E+00 -1.590385073558E+00  2.019719439963E+00
   26     1 H     6.280802002419E+00  1.417585434883E-01 -1.980280559964E+00
   27     1 H    -5.278553321574E+00  1.594962820119E+00  2.019596399963E+00
   28     1 H    -4.278666723794E+00  3.327106437165E+00 -1.980403599964E+00
   29     1 H    -4.019567360060E+00 -3.778588281377E+00  1.983955359964E+00
   30     1 H    -3.019680762281E+00 -2.046444664331E+00 -2.016044559963E+00
   31     1 H     4.020008734914E+00  3.773251332365E+00  1.980771039964E+00
   32     1 H     5.019895332694E+00  5.505394949411E+00 -2.019228959963E+00
   33     1 H     5.280532694324E+00  1.591499938653E+00  1.980280879964E+00
   34     1 H     6.280419292104E+00  3.323643555699E+00 -2.019719199963E+00
   35     1 H    -5.278830770526E+00 -1.595797106326E+00  1.980403839964E+00
   36     1 H    -4.278944172747E+00  1.363465107201E-01 -2.019596159963E+00
   37     6 C    -1.406658107706E+00  7.511809175391E+00  1.994366159964E+00
   38     6 C    -4.067715099266E-01 -5.779963207563E+00 -2.005633839964E+00
   39     6 C    -6.962535592860E-01  6.303081477958E+00  1.984445199964E+00
   40     6 C     3.036330384937E-01 -6.988690904996E+00 -2.015554799963E+00
   41     6 C     6.946477200593E-01 -6.302618480801E+00  1.983588159964E+00
   42     6 C     1.694534317839E+00 -4.570474863755E+00 -2.016411839963E+00
   43     6 C    -6.967349831737E-01 -6.303109987529E+00  1.986160239964E+00
   44     6 C     3.031516146060E-01 -4.570966370483E+00 -2.013839759963E+00
   45     6 C     6.951450227501E-01  6.303131596457E+00  1.979546079964E+00
   46     6 C     1.695031620530E+00 -6.988640786497E+00 -2.020453919963E+00
   47     6 C     1.405689407859E+00 -7.511588006930E+00  1.986282559964E+00
   48     6 C     2.405576005639E+00 -5.779444389884E+00 -2.013717439963E+00
   49     6 C     7.208800917120E+00 -2.536226023429E+00  2.005634159964E+00
   50     6 C     8.208687514900E+00 -8.040824063833E-01 -1.994365839964E+00
   51     6 C    -5.111153866420E+00  3.755052138572E+00  2.015554879963E+00
   52     6 C    -4.111267268640E+00  5.487195755618E+00 -1.984445119964E+00
   53     6 C     5.110839789015E+00 -3.751606772769E+00  2.016412239963E+00
   54     6 C     6.110726386794E+00 -2.019463155723E+00 -1.983587759964E+00
   55     6 C     5.806803145801E+00 -2.546702953034E+00  2.013840319963E+00
   56     6 C     6.806689743581E+00 -8.145593359881E-01 -1.986159679964E+00
   57     6 C    -5.806754081154E+00  2.550048651872E+00  2.020453919963E+00
   58     6 C    -4.806867483374E+00  4.282192268918E+00 -1.979546079964E+00
   59     6 C     5.802123350968E+00 -4.972028594796E+00  2.013717679963E+00
   60     6 C     6.802009948748E+00 -3.239884977750E+00 -1.986282319964E+00
   61     6 C     7.208871852973E+00  2.537401034597E+00  1.994366079964E+00
   62     6 C    -4.802599442304E+00 -3.243482369140E+00 -2.005633919964E+00
   63     6 C    -5.110732622635E+00 -3.756099543234E+00  1.984445439964E+00
   64     6 C    -4.110846024856E+00 -2.023955926188E+00 -2.015554559963E+00
   65     6 C     5.111161239329E+00  3.752787197453E+00  1.983587919964E+00
   66     6 C    -6.900310055948E+00 -2.028096206285E+00 -2.016412079963E+00
   67     6 C     5.806799041007E+00  2.547716164297E+00  1.986159919964E+00
   68     6 C    -6.204672254270E+00 -3.233167239440E+00 -2.013840079963E+00
   69     6 C    -5.806414267643E+00 -2.551150720120E+00  1.979546399964E+00
   70     6 C    -4.806527669863E+00 -8.190071030739E-01 -2.020453599963E+00
   71     6 C     5.802540683535E+00  4.973054818579E+00  1.986282559964E+00
   72     6 C    -6.208930611742E+00 -8.078285851586E-01 -2.013717439963E+00
   73     8 O     7.295941381327E+00  6.225836051150E-04  1.997427999964E+00
   74     8 O    -4.715529913950E+00 -5.780260820133E+00 -2.002571999964E+00
   75     8 O    -3.647326016232E+00  6.317808728505E+00  2.018616799963E+00
   76     8 O    -2.647439418452E+00 -6.973963654448E+00 -1.981383279964E+00
   77     8 O    -3.647355614176E+00 -6.318111684729E+00  1.986650079964E+00
   78     8 O    -2.647469016396E+00 -4.585968067683E+00 -2.013349919963E+00
   79     8 O     3.647398279888E+00 -6.317435707145E+00  1.997428159964E+00
   80     8 O     4.647284877668E+00 -4.585292090099E+00 -2.002571839964E+00
   81     8 O     3.647651435872E+00  6.318199931769E+00  2.018616719963E+00
   82     8 O     4.647538033652E+00 -6.973572451185E+00 -1.981383279964E+00
   83     8 O    -7.295943084345E+00 -5.580544706205E-04  1.986649999964E+00
   84     8 O    -6.296056486565E+00  1.731585562575E+00 -2.013349999963E+00

 *******************************************************************************
 STARTING BASIS SET HANDLING 
 *******************************************************************************

 Loading internal basis set: SOLDEF2MSVP         

 Please cite in your publication:
 L. Dona', J. G. Brandenburg and B. Civalleri, J. Chem. Phys., 151, 121101 (2019
 )                                                                              
                                                                                
                    

 *******************************************************************************
 LOCAL ATOMIC FUNCTIONS BASIS SET
 *******************************************************************************
   ATOM   X(AU)   Y(AU)   Z(AU)  N. TYPE  EXPONENT  S COEF   P COEF   D/F/G COEF
 *******************************************************************************
   1 B   -9.499  11.937   3.788
                                  1 S  
                                         2.410E+03 1.755E-03 0.000E+00 0.000E+00
                                         3.619E+02 1.344E-02 0.000E+00 0.000E+00
                                         8.231E+01 6.637E-02 0.000E+00 0.000E+00
                                         2.311E+01 2.303E-01 0.000E+00 0.000E+00
                                         7.252E+00 5.150E-01 0.000E+00 0.000E+00
                                  2 S  
                                         2.367E+00 1.000E+00 0.000E+00 0.000E+00
                                  3 S  
                                         5.533E-01 1.000E+00 0.000E+00 0.000E+00
                                  4 S  
                                         1.716E-01 1.000E+00 0.000E+00 0.000E+00
                           5-     7 P  
                                         6.002E+00 0.000E+00-3.555E-02 0.000E+00
                                         1.240E+00 0.000E+00-1.983E-01 0.000E+00
                                         3.367E-01 0.000E+00-5.048E-01 0.000E+00
                           8-    10 P  
                                         1.256E-01 0.000E+00 1.000E+00 0.000E+00
                          11-    15 D  
                                         8.880E-01 0.000E+00 0.000E+00 1.000E+00
   2 B   -7.609 -13.181  -3.770
   3 B   -5.588  14.195   3.788
   4 B   -3.698 -10.922  -3.770
   5 B   -9.499 -11.939   3.770
   6 B   -7.609  -8.665  -3.789
   7 B    5.588 -14.195   3.788
   8 B    7.477 -10.922  -3.770
   9 B    9.500  11.937   3.788
  10 B  -13.199   1.013  -3.770
  11 B    9.499 -11.935   3.770
  12 B   11.389  -8.662  -3.789
  13 H   -2.384  10.147   3.749
                                181 S  
                                         1.874E+01 1.968E-02 0.000E+00 0.000E+00
                                         2.826E+00 1.380E-01 0.000E+00 0.000E+00
                                         6.401E-01 4.783E-01 0.000E+00 0.000E+00
                                182 S  
                                         1.756E-01 1.000E+00 0.000E+00 0.000E+00
  14 H   -0.494  13.420  -3.810
  15 H    2.376 -10.143   3.743
  16 H    4.266  -6.870  -3.816
  17 H   -2.386 -10.148   3.742
  18 H   -0.496  -6.874  -3.817
  19 H    2.379  10.145   3.742
  20 H    4.268  13.418  -3.816
  21 H   -7.597   7.139   3.810
  22 H   -5.707  10.413  -3.749
  23 H    7.596  -7.126   3.816
  24 H    9.485  -3.853  -3.743
  25 H    9.979  -3.005   3.817
  26 H   11.869   0.268  -3.742
  27 H   -9.975   3.014   3.816
  28 H   -8.086   6.287  -3.742
  29 H   -7.596  -7.140   3.749
  30 H   -5.706  -3.867  -3.810
  31 H    7.597   7.130   3.743
  32 H    9.486  10.404  -3.816
  33 H    9.979   3.007   3.742
  34 H   11.868   6.281  -3.817
  35 H   -9.976  -3.016   3.742
  36 H   -8.086   0.258  -3.816
  37 C   -2.658  14.195   3.769
                                229 S  
                                         3.624E+03 1.634E-03 0.000E+00 0.000E+00
                                         5.440E+02 1.252E-02 0.000E+00 0.000E+00
                                         1.237E+02 6.211E-02 0.000E+00 0.000E+00
                                         3.476E+01 2.182E-01 0.000E+00 0.000E+00
                                         1.093E+01 4.980E-01 0.000E+00 0.000E+00
                                230 S  
                                         3.574E+00 1.000E+00 0.000E+00 0.000E+00
                                231 S  
                                         7.742E-01 1.000E+00 0.000E+00 0.000E+00
                                232 S  
                                         2.330E-01 1.000E+00 0.000E+00 0.000E+00
                         233-   235 P  
                                         9.443E+00 0.000E+00 3.790E-02 0.000E+00
                                         2.002E+00 0.000E+00 2.082E-01 0.000E+00
                                         5.463E-01 0.000E+00 5.047E-01 0.000E+00
                         236-   238 P  
                                         1.820E-01 0.000E+00 1.000E+00 0.000E+00
                         239-   243 D  
                                         8.880E-01 0.000E+00 0.000E+00 1.000E+00
  38 C   -0.769 -10.923  -3.790
  39 C   -1.316  11.911   3.750
  40 C    0.574 -13.207  -3.809
  41 C    1.313 -11.910   3.748
  42 C    3.202  -8.637  -3.810
  43 C   -1.317 -11.911   3.753
  44 C    0.573  -8.638  -3.806
  45 C    1.314  11.911   3.741
  46 C    3.203 -13.207  -3.818
  47 C    2.656 -14.195   3.754
  48 C    4.546 -10.922  -3.805
  49 C   13.623  -4.793   3.790
  50 C   15.512  -1.519  -3.769
  51 C   -9.659   7.096   3.809
  52 C   -7.769  10.369  -3.750
  53 C    9.658  -7.090   3.810
  54 C   11.548  -3.816  -3.748
  55 C   10.973  -4.813   3.806
  56 C   12.863  -1.539  -3.753
  57 C  -10.973   4.819   3.818
  58 C   -9.084   8.092  -3.741
  59 C   10.964  -9.396   3.805
  60 C   12.854  -6.122  -3.754
  61 C   13.623   4.795   3.769
  62 C   -9.076  -6.129  -3.790
  63 C   -9.658  -7.098   3.750
  64 C   -7.768  -3.825  -3.809
  65 C    9.659   7.092   3.748
  66 C  -13.040  -3.833  -3.810
  67 C   10.973   4.814   3.753
  68 C  -11.725  -6.110  -3.806
  69 C  -10.973  -4.821   3.741
  70 C   -9.083  -1.548  -3.818
  71 C   10.965   9.398   3.754
  72 C  -11.733  -1.527  -3.805
  73 O   13.787   0.001   3.775
                                769 S  
                                         6.773E+03 1.727E-03 0.000E+00 0.000E+00
                                         1.017E+03 1.325E-02 0.000E+00 0.000E+00
                                         2.313E+02 6.603E-02 0.000E+00 0.000E+00
                                         6.501E+01 2.353E-01 0.000E+00 0.000E+00
                                         2.050E+01 5.498E-01 0.000E+00 0.000E+00
                                770 S  
                                         6.716E+00 1.000E+00 0.000E+00 0.000E+00
                                771 S  
                                         1.147E+00 1.000E+00 0.000E+00 0.000E+00
                                772 S  
                                         3.342E-01 1.000E+00 0.000E+00 0.000E+00
                         773-   775 P  
                                         1.769E+01 0.000E+00 4.359E-02 0.000E+00
                                         3.854E+00 0.000E+00 2.318E-01 0.000E+00
                                         1.047E+00 0.000E+00 5.146E-01 0.000E+00
                         776-   778 P  
                                         2.759E-01 0.000E+00 1.000E+00 0.000E+00
                         779-   783 D  
                                         8.000E-01 0.000E+00 0.000E+00 1.000E+00
  74 O   -8.911 -10.923  -3.784
  75 O   -6.892  11.939   3.815
  76 O   -5.003 -13.179  -3.744
  77 O   -6.893 -11.940   3.754
  78 O   -5.003  -8.666  -3.805
  79 O    6.893 -11.938   3.775
  80 O    8.782  -8.665  -3.784
  81 O    6.893  11.940   3.815
  82 O    8.783 -13.178  -3.744
  83 O  -13.787  -0.001   3.754
  84 O  -11.898   3.272  -3.805

 *******************************************************************************
 FINISHED BASIS SET HANDLING 
 *******************************************************************************

 INFORMATION **** SET_MPP **** PCRYSTAL CALCULATION
 INFORMATION **** READM2 **** NEW DEFAULT: FOCK/KS MATRIX MIXING SET TO 30 %
 INFORMATION **** READM2 **** NEW DEFAULT: FULL DIRECT SCF MODE
 INFORMATION **** READM2 **** NEW DEFAULT: COULOMB BIPOLAR BUFFER SET TO 32 Mb
 INFORMATION **** READM2 **** NEW DEFAULT: EXCHANGE BIPOLAR BUFFER SET TO 32 Mb

 *******************************************************************************
 NEW DEFAULT: DFT INTEGRATION GRID INCREASED TO XLGRID
 NEW DEFAULT: DIIS ACCELERATOR ACTIVE
 USE KEYWORD NODIIS TO TURN IT OFF
 *******************************************************************************

 WARNING **** RDDFTP **** HSEsol-HJS ACTIVE
 RANGE SEPARATION - OMEGA:   0.110000000000000     
 WARNING **** RDDFTP **** HSEsol-3c has to be combined with sol-def2-mSVP basis set
 *******************************************************************************
 N. OF ATOMS PER CELL        84  COULOMB OVERLAP TOL         (T1) 10**   -6
 NUMBER OF SHELLS           468  COULOMB PENETRATION TOL     (T2) 10**   -6
 NUMBER OF AO               948  EXCHANGE OVERLAP TOL        (T3) 10**   -6
 N. OF ELECTRONS PER CELL   396  EXCHANGE PSEUDO OVP (F(G))  (T4) 10**   -6
 CORE ELECTRONS PER CELL    120  EXCHANGE PSEUDO OVP (P(G))  (T5) 10**  -12
 N. OF SYMMETRY OPERATORS     1  POLE ORDER IN MONO ZONE                  4
 *******************************************************************************
 TYPE OF CALCULATION :  RESTRICTED CLOSED SHELL
 KOHN-SHAM HAMILTONIAN

 (EXCHANGE)[CORRELATION] FUNCTIONAL:(HSEsol GGA)[PBEsol]

 RANGE-SEPARATED HYBRID FUNCTIONAL 
 OMEGA (SHORT-RANGE)[LONG-RANGE]:(    0.1100)[    0.0000]

 HYBRID EXCHANGE - PERCENTAGE OF FOCK EXCHANGE    25.0000

 CAPPA:IS1  2;IS2  2;IS3  8; K PTS MONK NET  20; SYMMOPS:K SPACE   2;G SPACE   1

 *******************************************************************************
 MAX NUMBER OF SCF CYCLES      50  CONVERGENCE ON DELTAP        10**-16
 WEIGHT OF F(I) IN F(I+1)      30% CONVERGENCE ON ENERGY        10**- 6
 SHRINK. FACT.(MONKH.)    2  2  8  NUMBER OF K POINTS IN THE IBZ     20
 SHRINKING FACTOR(GILAT NET)    8  NUMBER OF K POINTS(GILAT NET)   1028
 *******************************************************************************
 *** K POINTS COORDINATES (OBLIQUE COORDINATES IN UNITS OF IS =  2)
   1-R(  0  0  0)   2-R(  1  0  0)   3-R(  0  1  0)   4-R(  1  1  0)
   5-C(  0  0  1)   6-C(  1  0  1)   7-C(  0  1  1)   8-C(  1  1  1)
   9-C(  0  0  2)  10-C(  1  0  2)  11-C(  0  1  2)  12-C(  1  1  2)
  13-C(  0  0  3)  14-C(  1  0  3)  15-C(  0  1  3)  16-C(  1  1  3)
  17-R(  0  0  4)  18-R(  1  0  4)  19-R(  0  1  4)  20-R(  1  1  4)

 DIRECT LATTICE VECTORS COMPON. (A.U.)     RECIP. LATTICE VECTORS COMPON. (A.U.) 
        X            Y            Z              X            Y            Z
   24.5879030  -14.1935232    0.0000000      0.2555397    0.0000000    0.0000005
    0.0000000   28.3910867    0.0000000      0.1277517    0.2213084    0.0000015
   -0.0000321   -0.0000852   15.1178091      0.0000000    0.0000000    0.4156148

 DISK SPACE FOR EIGENVECTORS (FTN 10)    28758528 REALS

 SYMMETRY ADAPTION OF THE BLOCH FUNCTIONS DISABLED
 TTTTTTTTTTTTTTTTTTTTTTTTTTTTTT gordsh1     TELAPSE        0.06 TCPU        0.05

 MATRIX SIZE: P(G)  660122, F(G)  136861, P(G) IRR  331999, F(G) IRR  137821
 MAX G-VECTOR INDEX FOR 1- AND 2-ELECTRON INTEGRALS  53

 TTTTTTTTTTTTTTTTTTTTTTTTTTTTTT INPUT       TELAPSE        2.88 TCPU        2.87

 NEIGHBORS OF THE NON-EQUIVALENT ATOMS

 N = NUMBER OF NEIGHBORS AT DISTANCE R
    ATOM  N     R/ANG      R/AU   NEIGHBORS (ATOM LABELS AND CELL INDICES)
   1 B    1     1.3791     2.6061   73 O   -1 0 0
   1 B    1     1.3793     2.6065   75 O    0 0 0
   1 B    1     1.5503     2.9297   49 C   -1 0 0
   1 B    1     2.3895     4.5155    5 B    0 1 0
   1 B    1     2.3898     4.5160    3 B    0 0 0
   1 B    1     2.5632     4.8437   51 C    0 0 0

   2 B    1     1.3791     2.6061   74 O    0 0 0
   2 B    1     1.3793     2.6065   76 O    0 0 0
   2 B    1     1.5503     2.9297   50 C   -1-1 0
   2 B    1     2.3895     4.5155    6 B    0 0 0
   2 B    1     2.3898     4.5160    4 B    0 0 0
   2 B    1     2.5632     4.8437   52 C    0-1 0

   3 B    1     1.3793     2.6065   77 O    0 1 0
   3 B    1     1.3793     2.6065   75 O    0 0 0
   3 B    1     1.5504     2.9298   37 C    0 0 0
   3 B    1     2.3895     4.5156    5 B    0 1 0
   3 B    1     2.3898     4.5160    1 B    0 0 0
   3 B    1     2.5634     4.8440   43 C    0 1 0

   4 B    1     1.3793     2.6065   78 O    0 0 0
   4 B    1     1.3793     2.6065   76 O    0 0 0
   4 B    1     1.5504     2.9298   38 C    0 0 0
   4 B    1     2.3895     4.5156    6 B    0 0 0
   4 B    1     2.3898     4.5160    2 B    0 0 0
   4 B    1     2.5634     4.8440   44 C    0 0 0

   5 B    1     1.3791     2.6061   73 O   -1-1 0
   5 B    1     1.3793     2.6064   77 O    0 0 0
   5 B    1     1.5502     2.9294   61 C   -1-1 0
   5 B    1     2.3895     4.5155    1 B    0-1 0
   5 B    1     2.3895     4.5156    3 B    0-1 0
   5 B    1     2.5629     4.8433   63 C    0 0 0

   6 B    1     1.3791     2.6061   74 O    0 0 0
   6 B    1     1.3793     2.6064   78 O    0 0 0
   6 B    1     1.5502     2.9294   62 C    0 0 0
   6 B    1     2.3895     4.5155    2 B    0 0 0
   6 B    1     2.3895     4.5156    4 B    0 0 0
   6 B    1     2.5629     4.8433   64 C    0 0 0

   7 B    1     1.3795     2.6068   79 O    0 0 0
   7 B    1     1.3795     2.6070   81 O    0-1 0
   7 B    1     1.5513     2.9316   47 C    0 0 0
   7 B    1     2.3905     4.5174   11 B    0 0 0
   7 B    1     2.3905     4.5175    9 B    0-1 0
   7 B    1     2.5648     4.8468   45 C    0-1 0

   8 B    1     1.3795     2.6068   80 O    0 0 0
   8 B    1     1.3795     2.6070   82 O    0 0 0
   8 B    1     1.5513     2.9316   48 C    0 0 0
   8 B    1     2.3905     4.5174   12 B    0 0 0
   8 B    1     2.3905     4.5175   10 B    1 0 0
   8 B    1     2.5648     4.8468   46 C    0 0 0

   9 B    1     1.3795     2.6069   81 O    0 0 0
   9 B    1     1.3797     2.6072   83 O    1 1 0
   9 B    1     1.5516     2.9322   71 C    0 0 0
   9 B    1     2.3905     4.5175    7 B    0 1 0
   9 B    1     2.3911     4.5185   11 B    0 1 0
   9 B    1     2.5651     4.8473   69 C    1 1 0

  10 B    1     1.3795     2.6069   82 O   -1 0 0
  10 B    1     1.3797     2.6072   84 O    0 0 0
  10 B    1     1.5516     2.9322   72 C    0 0 0
  10 B    1     2.3905     4.5175    8 B   -1 0 0
  10 B    1     2.3911     4.5185   12 B   -1 0 0
  10 B    1     2.5651     4.8473   70 C    0 0 0

  11 B    1     1.3795     2.6068   79 O    0 0 0
  11 B    1     1.3796     2.6071   83 O    1 0 0
  11 B    1     1.5516     2.9322   59 C    0 0 0
  11 B    1     2.3905     4.5174    7 B    0 0 0
  11 B    1     2.3911     4.5185    9 B    0-1 0
  11 B    1     2.5651     4.8473   57 C    1 0 0

  12 B    1     1.3795     2.6068   80 O    0 0 0
  12 B    1     1.3796     2.6071   84 O    1 0 0
  12 B    1     1.5516     2.9322   60 C    0 0 0
  12 B    1     2.3905     4.5174    8 B    0 0 0
  12 B    1     2.3911     4.5185   10 B    1 0 0
  12 B    1     2.5651     4.8473   58 C    1 0 0

  13 H    1     1.0913     2.0623   39 C    0 0 0
  13 H    1     2.1472     4.0576   37 C    0 0 0
  13 H    1     2.1680     4.0969   45 C    0 0 0
  13 H    1     2.5202     4.7625   19 H    0 0 0
  13 H    1     2.5676     4.8520   75 O    0 0 0
  13 H    1     2.7321     5.1630    3 B    0 0 0

  14 H    1     1.0913     2.0623   40 C    0 1 0
  14 H    1     2.1472     4.0576   38 C    0 1 0
  14 H    1     2.1680     4.0969   46 C    0 1 0
  14 H    1     2.5202     4.7625   20 H    0 0 0
  14 H    1     2.5676     4.8520   76 O    0 1 0
  14 H    1     2.7321     5.1630    4 B    0 1 0

  15 H    1     1.0914     2.0625   41 C    0 0 0
  15 H    1     2.1493     4.0616   47 C    0 0 0
  15 H    1     2.1666     4.0942   43 C    0 0 0
  15 H    1     2.5198     4.7618   17 H    0 0 0
  15 H    1     2.5720     4.8604   79 O    0 0 0
  15 H    1     2.7362     5.1707    7 B    0 0 0

  16 H    1     1.0914     2.0625   42 C    0 0 0
  16 H    1     2.1493     4.0616   48 C    0 0 0
  16 H    1     2.1666     4.0942   44 C    0 0 0
  16 H    1     2.5198     4.7618   18 H    0 0 0
  16 H    1     2.5720     4.8604   80 O    0 0 0
  16 H    1     2.7362     5.1707    8 B    0 0 0

  17 H    1     1.0914     2.0624   43 C    0 0 0
  17 H    1     2.1471     4.0575   37 C    0-1 0
  17 H    1     2.1680     4.0970   41 C    0 0 0
  17 H    1     2.5198     4.7618   15 H    0 0 0
  17 H    1     2.5665     4.8500   77 O    0 0 0
  17 H    1     2.7315     5.1618    3 B    0-1 0

  18 H    1     1.0914     2.0624   44 C    0 0 0
  18 H    1     2.1471     4.0575   38 C    0 0 0
  18 H    1     2.1680     4.0970   42 C    0 0 0
  18 H    1     2.5198     4.7618   16 H    0 0 0
  18 H    1     2.5665     4.8500   78 O    0 0 0
  18 H    1     2.7315     5.1618    4 B    0 0 0

  19 H    1     1.0915     2.0626   45 C    0 0 0
  19 H    1     2.1490     4.0610   47 C    0 1 0
  19 H    1     2.1669     4.0948   39 C    0 0 0
  19 H    1     2.5202     4.7625   13 H    0 0 0
  19 H    1     2.5712     4.8588   81 O    0 0 0
  19 H    1     2.7351     5.1686    7 B    0 1 0

  20 H    1     1.0915     2.0626   46 C    0 1 0
  20 H    1     2.1490     4.0610   48 C    0 1 0
  20 H    1     2.1669     4.0948   40 C    0 1 0
  20 H    1     2.5202     4.7625   14 H    0 0 0
  20 H    1     2.5712     4.8588   82 O    0 1 0
  20 H    1     2.7351     5.1686    8 B    0 1 0

  21 H    1     1.0913     2.0623   51 C    0 0 0
  21 H    1     2.1469     4.0571   49 C   -1 0 0
  21 H    1     2.1680     4.0968   57 C    0 0 0
  21 H    1     2.5198     4.7617   27 H    0 0 0
  21 H    1     2.5670     4.8510   75 O    0 0 0
  21 H    1     2.7310     5.1609    1 B    0 0 0

  22 H    1     1.0913     2.0623   52 C    0 0 0
  22 H    1     2.1469     4.0571   50 C   -1 0 0
  22 H    1     2.1680     4.0968   58 C    0 0 0
  22 H    1     2.5198     4.7617   28 H    0 0 0
  22 H    1     2.5670     4.8510   76 O    0 1 0
  22 H    1     2.7310     5.1609    2 B    0 1 0

  23 H    1     1.0914     2.0625   53 C    0 0 0
  23 H    1     2.1493     4.0617   59 C    0 0 0
  23 H    1     2.1664     4.0939   55 C    0 0 0
  23 H    1     2.5192     4.7606   25 H    0 0 0
  23 H    1     2.5735     4.8632   79 O    0 0 0
  23 H    1     2.7371     5.1723   11 B    0 0 0

  24 H    1     1.0914     2.0625   54 C    0 0 0
  24 H    1     2.1493     4.0617   60 C    0 0 0
  24 H    1     2.1664     4.0939   56 C    0 0 0
  24 H    1     2.5192     4.7606   26 H    0 0 0
  24 H    1     2.5735     4.8632   80 O    0 0 0
  24 H    1     2.7371     5.1723   12 B    0 0 0

  25 H    1     1.0914     2.0624   55 C    0 0 0
  25 H    1     2.1475     4.0581   49 C    0 0 0
  25 H    1     2.1679     4.0967   53 C    0 0 0
  25 H    1     2.5192     4.7606   23 H    0 0 0
  25 H    1     2.5675     4.8519   73 O    0 0 0
  25 H    1     2.7328     5.1643    1 B    1 0 0

  26 H    1     1.0914     2.0624   56 C    0 0 0
  26 H    1     2.1475     4.0581   50 C    0 0 0
  26 H    1     2.1679     4.0967   54 C    0 0 0
  26 H    1     2.5192     4.7606   24 H    0 0 0
  26 H    1     2.5675     4.8519   74 O    1 1 0
  26 H    1     2.7328     5.1643    2 B    1 1 0

  27 H    1     1.0914     2.0625   57 C    0 0 0
  27 H    1     2.1491     4.0612   59 C   -1 0 0
  27 H    1     2.1666     4.0942   51 C    0 0 0
  27 H    1     2.5198     4.7617   21 H    0 0 0
  27 H    1     2.5723     4.8609   83 O    0 0 0
  27 H    1     2.7355     5.1693   11 B   -1 0 0

  28 H    1     1.0914     2.0625   58 C    0 0 0
  28 H    1     2.1491     4.0612   60 C   -1 0 0
  28 H    1     2.1666     4.0942   52 C    0 0 0
  28 H    1     2.5198     4.7617   22 H    0 0 0
  28 H    1     2.5723     4.8609   84 O    0 0 0
  28 H    1     2.7355     5.1693   12 B   -1 0 0

  29 H    1     1.0914     2.0624   63 C    0 0 0
  29 H    1     2.1475     4.0582   61 C   -1-1 0
  29 H    1     2.1678     4.0966   69 C    0 0 0
  29 H    1     2.5200     4.7621   35 H    0 0 0
  29 H    1     2.5667     4.8503   77 O    0 0 0
  29 H    1     2.7315     5.1618    5 B    0 0 0

  30 H    1     1.0914     2.0624   64 C    0 0 0
  30 H    1     2.1475     4.0582   62 C    0 0 0
  30 H    1     2.1678     4.0966   70 C    0 0 0
  30 H    1     2.5200     4.7621   36 H    0 0 0
  30 H    1     2.5667     4.8503   78 O    0 0 0
  30 H    1     2.7315     5.1618    6 B    0 0 0

  31 H    1     1.0913     2.0623   65 C    0 0 0
  31 H    1     2.1487     4.0605   71 C    0 0 0
  31 H    1     2.1667     4.0945   67 C    0 0 0
  31 H    1     2.5197     4.7616   33 H    0 0 0
  31 H    1     2.5723     4.8610   81 O    0 0 0
  31 H    1     2.7359     5.1701    9 B    0 0 0

  32 H    1     1.0913     2.0623   66 C    1 1 0
  32 H    1     2.1487     4.0605   72 C    1 1 0
  32 H    1     2.1667     4.0945   68 C    1 1 0
  32 H    1     2.5197     4.7616   34 H    0 0 0
  32 H    1     2.5723     4.8610   82 O    0 1 0
  32 H    1     2.7359     5.1701   10 B    1 1 0

  33 H    1     1.0915     2.0626   67 C    0 0 0
  33 H    1     2.1479     4.0589   61 C    0 0 0
  33 H    1     2.1679     4.0968   65 C    0 0 0
  33 H    1     2.5197     4.7616   31 H    0 0 0
  33 H    1     2.5677     4.8522   73 O    0 0 0
  33 H    1     2.7331     5.1648    5 B    1 1 0

  34 H    1     1.0915     2.0626   68 C    1 1 0
  34 H    1     2.1479     4.0589   62 C    1 1 0
  34 H    1     2.1679     4.0968   66 C    1 1 0
  34 H    1     2.5197     4.7616   32 H    0 0 0
  34 H    1     2.5677     4.8522   74 O    1 1 0
  34 H    1     2.7331     5.1648    6 B    1 1 0

  35 H    1     1.0914     2.0624   69 C    0 0 0
  35 H    1     2.1486     4.0602   71 C   -1-1 0
  35 H    1     2.1668     4.0947   63 C    0 0 0
  35 H    1     2.5200     4.7621   29 H    0 0 0
  35 H    1     2.5717     4.8598   83 O    0 0 0
  35 H    1     2.7349     5.1682    9 B   -1-1 0

  36 H    1     1.0914     2.0624   70 C    0 0 0
  36 H    1     2.1486     4.0602   72 C    0 0 0
  36 H    1     2.1668     4.0947   64 C    0 0 0
  36 H    1     2.5200     4.7621   30 H    0 0 0
  36 H    1     2.5717     4.8598   84 O    0 0 0
  36 H    1     2.7349     5.1682   10 B    0 0 0

  37 C    1     1.4020     2.6495   43 C    0 1 0
  37 C    1     1.4021     2.6495   39 C    0 0 0
  37 C    1     1.5504     2.9298    3 B    0 0 0
  37 C    1     2.1471     4.0575   17 H    0 1 0
  37 C    1     2.1472     4.0576   13 H    0 0 0
  37 C    1     2.4246     4.5817   41 C    0 1 0

  38 C    1     1.4020     2.6495   44 C    0 0 0
  38 C    1     1.4021     2.6495   40 C    0 0 0
  38 C    1     1.5504     2.9298    4 B    0 0 0
  38 C    1     2.1471     4.0575   18 H    0 0 0
  38 C    1     2.1472     4.0576   14 H    0-1 0
  38 C    1     2.4246     4.5817   42 C    0 0 0

  39 C    1     1.0913     2.0623   13 H    0 0 0
  39 C    1     1.3914     2.6294   45 C    0 0 0
  39 C    1     1.4021     2.6495   37 C    0 0 0
  39 C    1     2.1669     4.0948   19 H    0 0 0
  39 C    1     2.4177     4.5688   43 C    0 1 0
  39 C    1     2.4250     4.5825   47 C    0 1 0

  40 C    1     1.0913     2.0623   14 H    0-1 0
  40 C    1     1.3914     2.6294   46 C    0 0 0
  40 C    1     1.4021     2.6495   38 C    0 0 0
  40 C    1     2.1669     4.0948   20 H    0-1 0
  40 C    1     2.4177     4.5688   44 C    0 0 0
  40 C    1     2.4250     4.5825   48 C    0 0 0

  41 C    1     1.0914     2.0625   15 H    0 0 0
  41 C    1     1.3914     2.6293   43 C    0 0 0
  41 C    1     1.4026     2.6505   47 C    0 0 0
  41 C    1     2.1680     4.0970   17 H    0 0 0
  41 C    1     2.4182     4.5697   45 C    0-1 0
  41 C    1     2.4246     4.5817   37 C    0-1 0

  42 C    1     1.0914     2.0625   16 H    0 0 0
  42 C    1     1.3914     2.6293   44 C    0 0 0
  42 C    1     1.4026     2.6505   48 C    0 0 0
  42 C    1     2.1680     4.0970   18 H    0 0 0
  42 C    1     2.4182     4.5697   46 C    0 0 0
  42 C    1     2.4246     4.5817   38 C    0 0 0

  43 C    1     1.0914     2.0624   17 H    0 0 0
  43 C    1     1.3914     2.6293   41 C    0 0 0
  43 C    1     1.4020     2.6495   37 C    0-1 0
  43 C    1     2.1666     4.0942   15 H    0 0 0
  43 C    1     2.4177     4.5688   39 C    0-1 0
  43 C    1     2.4250     4.5826   47 C    0 0 0

  44 C    1     1.0914     2.0624   18 H    0 0 0
  44 C    1     1.3914     2.6293   42 C    0 0 0
  44 C    1     1.4020     2.6495   38 C    0 0 0
  44 C    1     2.1666     4.0942   16 H    0 0 0
  44 C    1     2.4177     4.5688   40 C    0 0 0
  44 C    1     2.4250     4.5826   48 C    0 0 0

  45 C    1     1.0915     2.0626   19 H    0 0 0
  45 C    1     1.3914     2.6294   39 C    0 0 0
  45 C    1     1.4025     2.6504   47 C    0 1 0
  45 C    1     2.1680     4.0969   13 H    0 0 0
  45 C    1     2.4182     4.5697   41 C    0 1 0
  45 C    1     2.4246     4.5818   37 C    0 0 0

  46 C    1     1.0915     2.0626   20 H    0-1 0
  46 C    1     1.3914     2.6294   40 C    0 0 0
  46 C    1     1.4025     2.6504   48 C    0 0 0
  46 C    1     2.1680     4.0969   14 H    0-1 0
  46 C    1     2.4182     4.5697   42 C    0 0 0
  46 C    1     2.4246     4.5818   38 C    0 0 0

  47 C    1     1.4025     2.6504   45 C    0-1 0
  47 C    1     1.4026     2.6505   41 C    0 0 0
  47 C    1     1.5513     2.9316    7 B    0 0 0
  47 C    1     2.1490     4.0610   19 H    0-1 0
  47 C    1     2.1493     4.0616   15 H    0 0 0
  47 C    1     2.4250     4.5825   39 C    0-1 0

  48 C    1     1.4025     2.6504   46 C    0 0 0
  48 C    1     1.4026     2.6505   42 C    0 0 0
  48 C    1     1.5513     2.9316    8 B    0 0 0
  48 C    1     2.1490     4.0610   20 H    0-1 0
  48 C    1     2.1493     4.0616   16 H    0 0 0
  48 C    1     2.4250     4.5825   40 C    0 0 0

  49 C    1     1.4020     2.6494   51 C    1 0 0
  49 C    1     1.4021     2.6495   55 C    0 0 0
  49 C    1     1.5503     2.9297    1 B    1 0 0
  49 C    1     2.1469     4.0571   21 H    1 0 0
  49 C    1     2.1475     4.0581   25 H    0 0 0
  49 C    1     2.4246     4.5818   53 C    0 0 0

  50 C    1     1.4020     2.6494   52 C    1 0 0
  50 C    1     1.4021     2.6495   56 C    0 0 0
  50 C    1     1.5503     2.9297    2 B    1 1 0
  50 C    1     2.1469     4.0571   22 H    1 0 0
  50 C    1     2.1475     4.0581   26 H    0 0 0
  50 C    1     2.4246     4.5818   54 C    0 0 0

  51 C    1     1.0913     2.0623   21 H    0 0 0
  51 C    1     1.3914     2.6293   57 C    0 0 0
  51 C    1     1.4020     2.6494   49 C   -1 0 0
  51 C    1     2.1666     4.0942   27 H    0 0 0
  51 C    1     2.4175     4.5684   55 C   -1 0 0
  51 C    1     2.4251     4.5828   59 C   -1 0 0

  52 C    1     1.0913     2.0623   22 H    0 0 0
  52 C    1     1.3914     2.6293   58 C    0 0 0
  52 C    1     1.4020     2.6494   50 C   -1 0 0
  52 C    1     2.1666     4.0942   28 H    0 0 0
  52 C    1     2.4175     4.5684   56 C   -1 0 0
  52 C    1     2.4251     4.5828   60 C   -1 0 0

  53 C    1     1.0914     2.0625   23 H    0 0 0
  53 C    1     1.3915     2.6295   55 C    0 0 0
  53 C    1     1.4026     2.6505   59 C    0 0 0
  53 C    1     2.1679     4.0967   25 H    0 0 0
  53 C    1     2.4179     4.5691   57 C    1 0 0
  53 C    1     2.4246     4.5818   49 C    0 0 0

  54 C    1     1.0914     2.0625   24 H    0 0 0
  54 C    1     1.3915     2.6295   56 C    0 0 0
  54 C    1     1.4026     2.6505   60 C    0 0 0
  54 C    1     2.1679     4.0967   26 H    0 0 0
  54 C    1     2.4179     4.5691   58 C    1 0 0
  54 C    1     2.4246     4.5818   50 C    0 0 0

  55 C    1     1.0914     2.0624   25 H    0 0 0
  55 C    1     1.3915     2.6295   53 C    0 0 0
  55 C    1     1.4021     2.6495   49 C    0 0 0
  55 C    1     2.1664     4.0939   23 H    0 0 0
  55 C    1     2.4175     4.5684   51 C    1 0 0
  55 C    1     2.4253     4.5832   59 C    0 0 0

  56 C    1     1.0914     2.0624   26 H    0 0 0
  56 C    1     1.3915     2.6295   54 C    0 0 0
  56 C    1     1.4021     2.6495   50 C    0 0 0
  56 C    1     2.1664     4.0939   24 H    0 0 0
  56 C    1     2.4175     4.5684   52 C    1 0 0
  56 C    1     2.4253     4.5832   60 C    0 0 0

  57 C    1     1.0914     2.0625   27 H    0 0 0
  57 C    1     1.3914     2.6293   51 C    0 0 0
  57 C    1     1.4025     2.6504   59 C   -1 0 0
  57 C    1     2.1680     4.0968   21 H    0 0 0
  57 C    1     2.4179     4.5691   53 C   -1 0 0
  57 C    1     2.4247     4.5819   49 C   -1 0 0

  58 C    1     1.0914     2.0625   28 H    0 0 0
  58 C    1     1.3914     2.6293   52 C    0 0 0
  58 C    1     1.4025     2.6504   60 C   -1 0 0
  58 C    1     2.1680     4.0968   22 H    0 0 0
  58 C    1     2.4179     4.5691   54 C   -1 0 0
  58 C    1     2.4247     4.5819   50 C   -1 0 0

  59 C    1     1.4025     2.6504   57 C    1 0 0
  59 C    1     1.4026     2.6505   53 C    0 0 0
  59 C    1     1.5516     2.9322   11 B    0 0 0
  59 C    1     2.1491     4.0612   27 H    1 0 0
  59 C    1     2.1493     4.0617   23 H    0 0 0
  59 C    1     2.4251     4.5828   51 C    1 0 0

  60 C    1     1.4025     2.6504   58 C    1 0 0
  60 C    1     1.4026     2.6505   54 C    0 0 0
  60 C    1     1.5516     2.9322   12 B    0 0 0
  60 C    1     2.1491     4.0612   28 H    1 0 0
  60 C    1     2.1493     4.0617   24 H    0 0 0
  60 C    1     2.4251     4.5828   52 C    1 0 0

  61 C    1     1.4021     2.6496   63 C    1 1 0
  61 C    1     1.4021     2.6497   67 C    0 0 0
  61 C    1     1.5502     2.9294    5 B    1 1 0
  61 C    1     2.1475     4.0582   29 H    1 1 0
  61 C    1     2.1479     4.0589   33 H    0 0 0
  61 C    1     2.4244     4.5814   65 C    0 0 0

  62 C    1     1.4021     2.6496   64 C    0 0 0
  62 C    1     1.4021     2.6497   68 C    0 0 0
  62 C    1     1.5502     2.9294    6 B    0 0 0
  62 C    1     2.1475     4.0582   30 H    0 0 0
  62 C    1     2.1479     4.0589   34 H   -1-1 0
  62 C    1     2.4244     4.5814   66 C    0 0 0

  63 C    1     1.0914     2.0624   29 H    0 0 0
  63 C    1     1.3914     2.6293   69 C    0 0 0
  63 C    1     1.4021     2.6496   61 C   -1-1 0
  63 C    1     2.1668     4.0947   35 H    0 0 0
  63 C    1     2.4179     4.5692   67 C   -1-1 0
  63 C    1     2.4251     4.5827   71 C   -1-1 0

  64 C    1     1.0914     2.0624   30 H    0 0 0
  64 C    1     1.3914     2.6293   70 C    0 0 0
  64 C    1     1.4021     2.6496   62 C    0 0 0
  64 C    1     2.1668     4.0947   36 H    0 0 0
  64 C    1     2.4179     4.5692   68 C    0 0 0
  64 C    1     2.4251     4.5827   72 C    0 0 0

  65 C    1     1.0913     2.0623   31 H    0 0 0
  65 C    1     1.3914     2.6294   67 C    0 0 0
  65 C    1     1.4025     2.6504   71 C    0 0 0
  65 C    1     2.1679     4.0968   33 H    0 0 0
  65 C    1     2.4178     4.5690   69 C    1 1 0
  65 C    1     2.4244     4.5814   61 C    0 0 0

  66 C    1     1.0913     2.0623   32 H   -1-1 0
  66 C    1     1.3914     2.6294   68 C    0 0 0
  66 C    1     1.4025     2.6504   72 C    0 0 0
  66 C    1     2.1679     4.0968   34 H   -1-1 0
  66 C    1     2.4178     4.5690   70 C    0 0 0
  66 C    1     2.4244     4.5814   62 C    0 0 0

  67 C    1     1.0915     2.0626   33 H    0 0 0
  67 C    1     1.3914     2.6294   65 C    0 0 0
  67 C    1     1.4021     2.6497   61 C    0 0 0
  67 C    1     2.1667     4.0945   31 H    0 0 0
  67 C    1     2.4179     4.5692   63 C    1 1 0
  67 C    1     2.4253     4.5832   71 C    0 0 0

  68 C    1     1.0915     2.0626   34 H   -1-1 0
  68 C    1     1.3914     2.6294   66 C    0 0 0
  68 C    1     1.4021     2.6497   62 C    0 0 0
  68 C    1     2.1667     4.0945   32 H   -1-1 0
  68 C    1     2.4179     4.5692   64 C    0 0 0
  68 C    1     2.4253     4.5832   72 C    0 0 0

  69 C    1     1.0914     2.0624   35 H    0 0 0
  69 C    1     1.3914     2.6293   63 C    0 0 0
  69 C    1     1.4025     2.6503   71 C   -1-1 0
  69 C    1     2.1678     4.0966   29 H    0 0 0
  69 C    1     2.4178     4.5690   65 C   -1-1 0
  69 C    1     2.4245     4.5817   61 C   -1-1 0

  70 C    1     1.0914     2.0624   36 H    0 0 0
  70 C    1     1.3914     2.6293   64 C    0 0 0
  70 C    1     1.4025     2.6503   72 C    0 0 0
  70 C    1     2.1678     4.0966   30 H    0 0 0
  70 C    1     2.4178     4.5690   66 C    0 0 0
  70 C    1     2.4245     4.5817   62 C    0 0 0

  71 C    1     1.4025     2.6503   69 C    1 1 0
  71 C    1     1.4025     2.6504   65 C    0 0 0
  71 C    1     1.5516     2.9322    9 B    0 0 0
  71 C    1     2.1486     4.0602   35 H    1 1 0
  71 C    1     2.1487     4.0605   31 H    0 0 0
  71 C    1     2.4251     4.5827   63 C    1 1 0

  72 C    1     1.4025     2.6503   70 C    0 0 0
  72 C    1     1.4025     2.6504   66 C    0 0 0
  72 C    1     1.5516     2.9322   10 B    0 0 0
  72 C    1     2.1486     4.0602   36 H    0 0 0
  72 C    1     2.1487     4.0605   32 H   -1-1 0
  72 C    1     2.4251     4.5827   64 C    0 0 0

  73 O    1     1.3791     2.6061    1 B    1 0 0
  73 O    1     1.3791     2.6061    5 B    1 1 0
  73 O    1     2.3880     4.5126   75 O    1 0 0
  73 O    1     2.3882     4.5130   77 O    1 1 0
  73 O    1     2.5383     4.7966   61 C    0 0 0
  73 O    1     2.5384     4.7968   49 C    0 0 0

  74 O    1     1.3791     2.6061    2 B    0 0 0
  74 O    1     1.3791     2.6061    6 B    0 0 0
  74 O    1     2.3880     4.5126   76 O    0 0 0
  74 O    1     2.3882     4.5130   78 O    0 0 0
  74 O    1     2.5383     4.7966   62 C    0 0 0
  74 O    1     2.5384     4.7968   50 C   -1-1 0

  75 O    1     1.3793     2.6065    1 B    0 0 0
  75 O    1     1.3793     2.6065    3 B    0 0 0
  75 O    1     2.3880     4.5126   73 O   -1 0 0
  75 O    1     2.3882     4.5131   77 O    0 1 0
  75 O    1     2.5391     4.7981   37 C    0 0 0
  75 O    1     2.5395     4.7990   49 C   -1 0 0

  76 O    1     1.3793     2.6065    2 B    0 0 0
  76 O    1     1.3793     2.6065    4 B    0 0 0
  76 O    1     2.3880     4.5126   74 O    0 0 0
  76 O    1     2.3882     4.5131   78 O    0 0 0
  76 O    1     2.5391     4.7981   38 C    0 0 0
  76 O    1     2.5395     4.7990   50 C   -1-1 0

  77 O    1     1.3793     2.6064    5 B    0 0 0
  77 O    1     1.3793     2.6065    3 B    0-1 0
  77 O    1     2.3882     4.5130   73 O   -1-1 0
  77 O    1     2.3882     4.5131   75 O    0-1 0
  77 O    1     2.5390     4.7980   37 C    0-1 0
  77 O    1     2.5391     4.7982   61 C   -1-1 0

  78 O    1     1.3793     2.6064    6 B    0 0 0
  78 O    1     1.3793     2.6065    4 B    0 0 0
  78 O    1     2.3882     4.5130   74 O    0 0 0
  78 O    1     2.3882     4.5131   76 O    0 0 0
  78 O    1     2.5390     4.7980   38 C    0 0 0
  78 O    1     2.5391     4.7982   62 C    0 0 0

  79 O    1     1.3795     2.6068   11 B    0 0 0
  79 O    1     1.3795     2.6068    7 B    0 0 0
  79 O    1     2.3880     4.5126   83 O    1 0 0
  79 O    1     2.3884     4.5134   81 O    0-1 0
  79 O    1     2.5400     4.7998   47 C    0 0 0
  79 O    1     2.5403     4.8005   59 C    0 0 0

  80 O    1     1.3795     2.6068   12 B    0 0 0
  80 O    1     1.3795     2.6068    8 B    0 0 0
  80 O    1     2.3880     4.5126   84 O    1 0 0
  80 O    1     2.3884     4.5134   82 O    0 0 0
  80 O    1     2.5400     4.7998   48 C    0 0 0
  80 O    1     2.5403     4.8005   60 C    0 0 0

  81 O    1     1.3795     2.6069    9 B    0 0 0
  81 O    1     1.3795     2.6070    7 B    0 1 0
  81 O    1     2.3881     4.5128   83 O    1 1 0
  81 O    1     2.3884     4.5134   79 O    0 1 0
  81 O    1     2.5404     4.8006   47 C    0 1 0
  81 O    1     2.5405     4.8008   71 C    0 0 0

  82 O    1     1.3795     2.6069   10 B    1 0 0
  82 O    1     1.3795     2.6070    8 B    0 0 0
  82 O    1     2.3881     4.5128   84 O    1 0 0
  82 O    1     2.3884     4.5134   80 O    0 0 0
  82 O    1     2.5404     4.8006   48 C    0 0 0
  82 O    1     2.5405     4.8008   72 C    1 0 0

  83 O    1     1.3796     2.6071   11 B   -1 0 0
  83 O    1     1.3797     2.6072    9 B   -1-1 0
  83 O    1     2.3880     4.5126   79 O   -1 0 0
  83 O    1     2.3881     4.5128   81 O   -1-1 0
  83 O    1     2.5409     4.8016   71 C   -1-1 0
  83 O    1     2.5410     4.8019   59 C   -1 0 0

  84 O    1     1.3796     2.6071   12 B   -1 0 0
  84 O    1     1.3797     2.6072   10 B    0 0 0
  84 O    1     2.3880     4.5126   80 O   -1 0 0
  84 O    1     2.3881     4.5128   82 O   -1 0 0
  84 O    1     2.5409     4.8016   72 C    0 0 0
  84 O    1     2.5410     4.8019   60 C   -1 0 0


 SYMMETRY ALLOWED INTERNAL DEGREE(S) OF FREEDOM: 249
 TTTTTTTTTTTTTTTTTTTTTTTTTTTTTT SYMM        TELAPSE        2.88 TCPU        2.88
 TTTTTTTTTTTTTTTTTTTTTTTTTTTTTT INT_SCREEN  TELAPSE        3.09 TCPU        3.09

 DFT PARAMETERS

     ATOM       ELECTRONS   NET CHARGE   R(ANGSTROM)
   1   5  B       5.0000      0.0000     0.89000000
  13   1  H       1.0000      0.0000     1.11000000
  37   6  C       6.0000      0.0000     0.77000000
  73   8  O       8.0000      0.0000     0.74000000

 SIZE OF GRID=    2619933
 TTTTTTTTTTTTTTTTTTTTTTTTTTTTTT MAKE_GRID2  TELAPSE       23.68 TCPU       23.66
 BECKE WEIGHT FUNCTION
 RADSAFE =     2.00
 TOLERANCES - DENSITY:10**- 6; POTENTIAL:10**- 9; GRID WGT:10**-14

 RADIAL INTEGRATION  - INTERVALS (POINTS,UPPER LIMIT):            1( 75,  4.0*R)

 ANGULAR INTEGRATION - INTERVALS (ACCURACY LEVEL [N. POINTS] UPPER LIMIT):
  1(  4[  86]   0.2)  2(  8[ 194]   0.5)  3( 12[ 350]   0.9)  4( 16[ 974]   3.5)
  5( 12[ 350]9999.0)
 TTTTTTTTTTTTTTTTTTTTTTTTTTTTTT INT_CALC    TELAPSE       23.98 TCPU       23.96
 EEEEEEEEEE INT_CALC TERMINATION  DATE 19 02 2026 TIME 20:23:03.8

 *******************************************************************************
 cof-1_z40_L020_serr                                                             
 CRYSTAL - SCF - TYPE OF CALCULATION :  RESTRICTED CLOSED SHELL
 *******************************************************************************

 CAPPA:IS1  2;IS2  2;IS3  8; K PTS MONK NET  20; SYMMOPS:K SPACE   2;G SPACE   1

 TTTTTTTTTTTTTTTTTTTTTTTTTTTTTT SDIK        TELAPSE       26.01 TCPU       52.16

 AAAAAAAAAAAAAAAAAAAAAAAAAAAAAAAAAAAAAAAAAAAAAAAAAAAAAAAAAAAAAAAAAAAAAAAAAAAAAAA
         ATOMIC WAVEFUNCTION(S)


 NUCLEAR CHARGE  5.0  SYMMETRY SPECIES            S    P
 N. ELECTRONS    5.0  NUMBER OF PRIMITIVE GTOS    8    4
                      NUMBER OF CONTRACTED GTOS   4    2
                      NUMBER OF CLOSED SHELLS     2    0
                      OPEN SHELL OCCUPATION       0    1

  ZNUC  SCFIT    TOTAL HF ENERGY   KINETIC ENERGY   VIRIAL THEOREM ACCURACY
   5.0    11    -2.451164084E+01  2.462155050E+01 -1.995536038E+00  1.5E-06

 NUCLEAR CHARGE  1.0  SYMMETRY SPECIES            S
 N. ELECTRONS    1.0  NUMBER OF PRIMITIVE GTOS    4
                      NUMBER OF CONTRACTED GTOS   2
                      NUMBER OF CLOSED SHELLS     0
                      OPEN SHELL OCCUPATION       1

  ZNUC  SCFIT    TOTAL HF ENERGY   KINETIC ENERGY   VIRIAL THEOREM ACCURACY
   1.0     1    -4.977266687E-01  5.190767460E-01 -1.958869132E+00  0.0E+00

 NUCLEAR CHARGE  6.0  SYMMETRY SPECIES            S    P
 N. ELECTRONS    6.0  NUMBER OF PRIMITIVE GTOS    8    4
                      NUMBER OF CONTRACTED GTOS   4    2
                      NUMBER OF CLOSED SHELLS     2    0
                      OPEN SHELL OCCUPATION       0    2

  ZNUC  SCFIT    TOTAL HF ENERGY   KINETIC ENERGY   VIRIAL THEOREM ACCURACY
   6.0     9    -3.766704647E+01  3.775180683E+01 -1.997754800E+00  1.1E-06

 NUCLEAR CHARGE  8.0  SYMMETRY SPECIES            S    P
 N. ELECTRONS    8.0  NUMBER OF PRIMITIVE GTOS    8    4
                      NUMBER OF CONTRACTED GTOS   4    2
                      NUMBER OF CLOSED SHELLS     2    0
                      OPEN SHELL OCCUPATION       0    4

  ZNUC  SCFIT    TOTAL HF ENERGY   KINETIC ENERGY   VIRIAL THEOREM ACCURACY
   8.0    12    -7.477373220E+01  7.477365593E+01 -2.000001020E+00  3.8E-06

 AAAAAAAAAAAAAAAAAAAAAAAAAAAAAAAAAAAAAAAAAAAAAAAAAAAAAAAAAAAAAAAAAAAAAAAAAAAAAAA

 CHARGE NORMALIZATION FACTOR   1.00000000
 TOTAL ATOMIC CHARGES:
   5.0000000   5.0000000   5.0000000   5.0000000   5.0000000   5.0000000
   5.0000000   5.0000000   5.0000000   5.0000000   5.0000000   5.0000000
   1.0000000   1.0000000   1.0000000   1.0000000   1.0000000   1.0000000
   1.0000000   1.0000000   1.0000000   1.0000000   1.0000000   1.0000000
   1.0000000   1.0000000   1.0000000   1.0000000   1.0000000   1.0000000
   1.0000000   1.0000000   1.0000000   1.0000000   1.0000000   1.0000000
   6.0000000   6.0000000   6.0000000   6.0000000   6.0000000   6.0000000
   6.0000000   6.0000000   6.0000000   6.0000000   6.0000000   6.0000000
   6.0000000   6.0000000   6.0000000   6.0000000   6.0000000   6.0000000
   6.0000000   6.0000000   6.0000000   6.0000000   6.0000000   6.0000000
   6.0000000   6.0000000   6.0000000   6.0000000   6.0000000   6.0000000
   6.0000000   6.0000000   6.0000000   6.0000000   6.0000000   6.0000000
   8.0000000   8.0000000   8.0000000   8.0000000   8.0000000   8.0000000
   8.0000000   8.0000000   8.0000000   8.0000000   8.0000000   8.0000000
 TTTTTTTTTTTTTTTTTTTTTTTTTTTTTT MOQGAD      TELAPSE       26.11 TCPU       55.34
 TTTTTTTTTTTTTTTTTTTTTTTTTTTTTT SHELLXN     TELAPSE       43.33 TCPU      605.52
 TTTTTTTTTTTTTTTTTTTTTTTTTTTTTT MONMO3      TELAPSE       43.93 TCPU      624.69
 NUMERICALLY INTEGRATED DENSITY    395.9999572451
 TTTTTTTTTTTTTTTTTTTTTTTTTTTTTT NUMDFT      TELAPSE       45.51 TCPU      675.28
 CYC   0 ETOT(AU) -2.591914444060E+03 DETOT -2.59E+03 tst  0.00E+00 PX  1.00E+00
 TTTTTTTTTTTTTTTTTTTTTTTTTTTTTT DIIS        TELAPSE       45.62 TCPU      678.86
 TTTTTTTTTTTTTTTTTTTTTTTTTTTTTT FDIK        TELAPSE       47.65 TCPU      743.35
 INSULATING STATE
 TOP OF VALENCE BANDS -    BAND    198; K    1; EIG -3.1103830E-01 AU
 BOTTOM OF VIRTUAL BANDS - BAND    199; K    1; EIG -1.5716886E-01 AU
 DIRECT ENERGY BAND GAP:   4.1870 eV
 TTTTTTTTTTTTTTTTTTTTTTTTTTTTTT PDIG        TELAPSE       49.31 TCPU      750.43
 CHARGE NORMALIZATION FACTOR   1.00000000
 TOTAL ATOMIC CHARGES:
   4.1662851   4.1436255   4.1543336   4.1622270   4.1545857   4.1624945
   4.1621051   4.1542148   4.1618602   4.1539978   4.1433160   4.1659157
   0.7853446   0.7854690   0.7855834   0.7854591   0.7853928   0.7851788
   0.7852974   0.7855135   0.7853263   0.7856644   0.7858280   0.7854928
   0.7853168   0.7856537   0.7857912   0.7854567   0.7853954   0.7851804
   0.7853616   0.7855776   0.7852964   0.7854201   0.7855770   0.7854525
   6.0452015   6.0448234   6.2666834   6.2661302   6.2660980   6.2666451
   6.2654752   6.2655552   6.2654949   6.2654177   6.0440902   6.0444531
   6.0430631   6.0480670   6.2656799   6.2660919   6.2661679   6.2657589
   6.2655830   6.2660021   6.2661778   6.2657685   6.0468195   6.0418443
   6.0455524   6.0451795   6.2652574   6.2653274   6.2658720   6.2658006
   6.2663116   6.2657580   6.2663723   6.2669208   6.0436216   6.0439850
   8.6948131   8.6962160   8.6949148   8.6963281   8.6975153   8.6913902
   8.6966323   8.6952320   8.6917926   8.6979101   8.6968068   8.6954078
 TTTTTTTTTTTTTTTTTTTTTTTTTTTTTT MOQGAD      TELAPSE       49.41 TCPU      750.53
 TTTTTTTTTTTTTTTTTTTTTTTTTTTTTT SHELLXN     TELAPSE       67.32 TCPU     1321.81
 TTTTTTTTTTTTTTTTTTTTTTTTTTTTTT MONMO3      TELAPSE       67.92 TCPU     1340.99
 NUMERICALLY INTEGRATED DENSITY    395.9999832143
 TTTTTTTTTTTTTTTTTTTTTTTTTTTTTT NUMDFT      TELAPSE       69.52 TCPU     1392.29
 CYC   1 ETOT(AU) -2.577631111234E+03 DETOT  1.43E+01 tst  0.00E+00 PX  1.00E+00
 TTTTTTTTTTTTTTTTTTTTTTTTTTTTTT DIIS        TELAPSE       69.66 TCPU     1396.82
 DIIS TEST: 0.22406E+01 AT SCF   CYCLE   1 - MIX   30 %
 TTTTTTTTTTTTTTTTTTTTTTTTTTTTTT FDIK        TELAPSE       71.72 TCPU     1462.40
 INSULATING STATE
 TOP OF VALENCE BANDS -    BAND    198; K    4; EIG -2.2059627E-01 AU
 TOP OF VALENCE BANDS -    BAND    198; K    1; EIG -2.2060005E-01 AU
 BOTTOM OF VIRTUAL BANDS - BAND    199; K    1; EIG -7.8857986E-02 AU
 INDIRECT ENERGY BAND GAP:   3.8569 eV
 TTTTTTTTTTTTTTTTTTTTTTTTTTTTTT PDIG        TELAPSE       73.38 TCPU     1469.47
 CHARGE NORMALIZATION FACTOR   1.00000000
 TOTAL ATOMIC CHARGES:
   4.6839475   4.7153255   4.7089142   4.6995192   4.7088964   4.6995799
   4.6998496   4.7092500   4.6997947   4.7092236   4.7156902   4.6842132
   0.9141321   0.9140880   0.9141893   0.9141710   0.9170079   0.9173194
   0.9173654   0.9170026   0.9163959   0.9095549   0.9095688   0.9165347
   0.9163852   0.9095354   0.9095567   0.9165119   0.9169958   0.9173059
   0.9174395   0.9170714   0.9140675   0.9140246   0.9142029   0.9141557
   5.8734369   5.8548303   6.1443966   6.0957591   6.0962725   6.1449013
   6.1321347   6.1438136   6.1444660   6.1329748   5.8575715   5.8762281
   5.8313831   5.9064152   6.1210333   6.1428084   6.1436220   6.1217160
   6.1212348   6.1430282   6.1435205   6.1216102   5.9098058   5.8346223
   5.8733893   5.8547403   6.1322212   6.1439064   6.1443374   6.1328358
   6.1446148   6.0959756   6.0960104   6.1446167   5.8577612   5.8764916
   8.3341947   8.3382625   8.3345573   8.3386082   8.3551379   8.3380822
   8.3381454   8.3340378   8.3377854   8.3549376   8.3385609   8.3344179
 TTTTTTTTTTTTTTTTTTTTTTTTTTTTTT MOQGAD      TELAPSE       73.48 TCPU     1469.57
 TTTTTTTTTTTTTTTTTTTTTTTTTTTTTT SHELLXN     TELAPSE       91.40 TCPU     2040.85
 TTTTTTTTTTTTTTTTTTTTTTTTTTTTTT MONMO3      TELAPSE       91.99 TCPU     2060.03
 NUMERICALLY INTEGRATED DENSITY    395.9999844903
 TTTTTTTTTTTTTTTTTTTTTTTTTTTTTT NUMDFT      TELAPSE       93.60 TCPU     2111.44
 CYC   2 ETOT(AU) -2.578018715320E+03 DETOT -3.88E-01 tst  4.36E-03 PX  1.58E-01
 TTTTTTTTTTTTTTTTTTTTTTTTTTTTTT DIIS        TELAPSE       93.77 TCPU     2116.61
 DIIS TEST: 0.94617E+00 AT SCF   CYCLE   2 - DIIS ACTIVE - HISTORY:     2 CYCLES
 TTTTTTTTTTTTTTTTTTTTTTTTTTTTTT FDIK        TELAPSE       95.82 TCPU     2182.23
 INSULATING STATE
 TOP OF VALENCE BANDS -    BAND    198; K    1; EIG -2.3401106E-01 AU
 BOTTOM OF VIRTUAL BANDS - BAND    199; K    1; EIG -7.4354454E-02 AU
 DIRECT ENERGY BAND GAP:   4.3445 eV
 TTTTTTTTTTTTTTTTTTTTTTTTTTTTTT PDIG        TELAPSE       97.48 TCPU     2189.30
 CHARGE NORMALIZATION FACTOR   1.00000000
 TOTAL ATOMIC CHARGES:
   4.4913504   4.4929613   4.4941730   4.4965619   4.4942786   4.4967314
   4.4961341   4.4936744   4.4959470   4.4934922   4.4923501   4.4906707
   0.8941037   0.8838092   0.8838440   0.8943367   0.8896174   0.8939175
   0.8940318   0.8896744   0.8885429   0.8888385   0.8891652   0.8886593
   0.8885797   0.8888788   0.8890984   0.8885935   0.8896138   0.8939185
   0.8940881   0.8897355   0.8940952   0.8838096   0.8838012   0.8942739
   5.8824150   5.8985610   6.1534074   6.1685303   6.1679376   6.1528651
   6.1648114   6.1575256   6.1568383   6.1638747   5.8972102   5.8810212
   5.9120471   5.8836619   6.1674265   6.1534349   6.1526577   6.1669096
   6.1674745   6.1535072   6.1525979   6.1668878   5.8818203   5.9104576
   5.8827440   5.8988279   6.1647951   6.1574762   6.1570150   6.1639809
   6.1532861   6.1684509   6.1679414   6.1528645   5.8968853   5.8807500
   8.5142381   8.5130498   8.5143870   8.5131911   8.5136538   8.5089387
   8.5131398   8.5144749   8.5091295   8.5135569   8.5133188   8.5146715
 TTTTTTTTTTTTTTTTTTTTTTTTTTTTTT MOQGAD      TELAPSE       97.58 TCPU     2189.40
 TTTTTTTTTTTTTTTTTTTTTTTTTTTTTT SHELLXN     TELAPSE      115.49 TCPU     2760.86
 TTTTTTTTTTTTTTTTTTTTTTTTTTTTTT MONMO3      TELAPSE      116.09 TCPU     2780.02
 NUMERICALLY INTEGRATED DENSITY    395.9999845865
 TTTTTTTTTTTTTTTTTTTTTTTTTTTTTT NUMDFT      TELAPSE      117.70 TCPU     2831.41
 CYC   3 ETOT(AU) -2.578213560023E+03 DETOT -1.95E-01 tst  7.07E-04 PX  6.40E-02
 TTTTTTTTTTTTTTTTTTTTTTTTTTTTTT DIIS        TELAPSE      117.89 TCPU     2837.31
 DIIS TEST: 0.29550E-01 AT SCF   CYCLE   3 - DIIS ACTIVE - HISTORY:     3 CYCLES
 TTTTTTTTTTTTTTTTTTTTTTTTTTTTTT FDIK        TELAPSE      119.93 TCPU     2902.70
 INSULATING STATE
 TOP OF VALENCE BANDS -    BAND    198; K    1; EIG -2.4414838E-01 AU
 BOTTOM OF VIRTUAL BANDS - BAND    199; K    1; EIG -8.3532105E-02 AU
 DIRECT ENERGY BAND GAP:   4.3706 eV
 TTTTTTTTTTTTTTTTTTTTTTTTTTTTTT PDIG        TELAPSE      121.60 TCPU     2909.78
 CHARGE NORMALIZATION FACTOR   1.00000000
 TOTAL ATOMIC CHARGES:
   4.4949806   4.5043643   4.5019927   4.4989235   4.5020911   4.4990801
   4.4992746   4.5022804   4.4990960   4.5021162   4.5045314   4.4951286
   0.8725848   0.8743927   0.8745426   0.8725687   0.8752055   0.8750170
   0.8750552   0.8751612   0.8758258   0.8693101   0.8692373   0.8760430
   0.8758491   0.8693263   0.8691855   0.8759940   0.8752193   0.8750211
   0.8751157   0.8752083   0.8725598   0.8743715   0.8745181   0.8725137
   5.9483042   5.9252521   6.1759442   6.1393925   6.1403264   6.1767478
   6.1658927   6.1709945   6.1722240   6.1676585   5.9289424   5.9520795
   5.9029807   5.9796340   6.1512891   6.1764953   6.1778764   6.1523101
   6.1512647   6.1765446   6.1779030   6.1523490   5.9836733   5.9067126
   5.9483311   5.9252223   6.1658169   6.1709340   6.1723377   6.1677645
   6.1758268   6.1392915   6.1403730   6.1767674   5.9289491   5.9521731
   8.4788642   8.4843005   8.4791410   8.4845556   8.4973036   8.4803444
   8.4844794   8.4788727   8.4802570   8.4975895   8.4848312   8.4791966
 TTTTTTTTTTTTTTTTTTTTTTTTTTTTTT MOQGAD      TELAPSE      121.70 TCPU     2909.88
 TTTTTTTTTTTTTTTTTTTTTTTTTTTTTT SHELLXN     TELAPSE      139.61 TCPU     3480.97
 TTTTTTTTTTTTTTTTTTTTTTTTTTTTTT MONMO3      TELAPSE      140.21 TCPU     3500.15
 NUMERICALLY INTEGRATED DENSITY    395.9999842982
 TTTTTTTTTTTTTTTTTTTTTTTTTTTTTT NUMDFT      TELAPSE      141.82 TCPU     3551.55
 CYC   4 ETOT(AU) -2.578219013091E+03 DETOT -5.45E-03 tst  6.54E-05 PX  2.34E-02
 TTTTTTTTTTTTTTTTTTTTTTTTTTTTTT DIIS        TELAPSE      142.02 TCPU     3558.19
 DIIS TEST: 0.11213E-01 AT SCF   CYCLE   4 - DIIS ACTIVE - HISTORY:     4 CYCLES
 TTTTTTTTTTTTTTTTTTTTTTTTTTTTTT FDIK        TELAPSE      144.07 TCPU     3623.59
 INSULATING STATE
 TOP OF VALENCE BANDS -    BAND    198; K    1; EIG -2.4334454E-01 AU
 BOTTOM OF VIRTUAL BANDS - BAND    199; K    1; EIG -8.2957362E-02 AU
 DIRECT ENERGY BAND GAP:   4.3644 eV
 TTTTTTTTTTTTTTTTTTTTTTTTTTTTTT PDIG        TELAPSE      145.73 TCPU     3630.66
 CHARGE NORMALIZATION FACTOR   1.00000000
 TOTAL ATOMIC CHARGES:
   4.4936610   4.5063991   4.5041215   4.5019292   4.5042149   4.5020915
   4.5016936   4.5038621   4.5015201   4.5037042   4.5060590   4.4932162
   0.8777826   0.8729560   0.8730254   0.8780232   0.8769684   0.8782880
   0.8784485   0.8770783   0.8751506   0.8734651   0.8737877   0.8752893
   0.8751667   0.8734835   0.8737387   0.8752413   0.8769650   0.8782865
   0.8785116   0.8771427   0.8777502   0.8729326   0.8730022   0.8779776
   5.9206581   5.9245817   6.1668011   6.1569339   6.1562673   6.1662363
   6.1694738   6.1709684   6.1700646   6.1682307   5.9228546   5.9189411
   5.9242399   5.9319887   6.1686881   6.1656664   6.1648579   6.1681310
   6.1687879   6.1657843   6.1647770   6.1680701   5.9301919   5.9226204
   5.9208976   5.9247653   6.1694662   6.1709377   6.1701774   6.1682868
   6.1667626   6.1569274   6.1562141   6.1661677   5.9226428   5.9187935
   8.4895745   8.4900519   8.4897662   8.4902303   8.4966826   8.4882785
   8.4900080   8.4897225   8.4883243   8.4963693   8.4902458   8.4899579
 TTTTTTTTTTTTTTTTTTTTTTTTTTTTTT MOQGAD      TELAPSE      145.83 TCPU     3630.76
 TTTTTTTTTTTTTTTTTTTTTTTTTTTTTT SHELLXN     TELAPSE      163.74 TCPU     4202.02
 TTTTTTTTTTTTTTTTTTTTTTTTTTTTTT MONMO3      TELAPSE      164.34 TCPU     4221.18
 NUMERICALLY INTEGRATED DENSITY    395.9999844317
 TTTTTTTTTTTTTTTTTTTTTTTTTTTTTT NUMDFT      TELAPSE      165.95 TCPU     4272.43
 CYC   5 ETOT(AU) -2.578221612315E+03 DETOT -2.60E-03 tst  2.90E-05 PX  1.23E-02
 TTTTTTTTTTTTTTTTTTTTTTTTTTTTTT DIIS        TELAPSE      166.18 TCPU     4279.34
 DIIS TEST: 0.66979E-03 AT SCF   CYCLE   5 - DIIS ACTIVE - HISTORY:     5 CYCLES
 TTTTTTTTTTTTTTTTTTTTTTTTTTTTTT FDIK        TELAPSE      168.23 TCPU     4344.55
 INSULATING STATE
 TOP OF VALENCE BANDS -    BAND    198; K    1; EIG -2.4235071E-01 AU
 BOTTOM OF VIRTUAL BANDS - BAND    199; K    1; EIG -8.2400442E-02 AU
 DIRECT ENERGY BAND GAP:   4.3525 eV
 TTTTTTTTTTTTTTTTTTTTTTTTTTTTTT PDIG        TELAPSE      169.89 TCPU     4351.62
 CHARGE NORMALIZATION FACTOR   1.00000000
 TOTAL ATOMIC CHARGES:
   4.4950788   4.5053263   4.5035424   4.5016888   4.5036394   4.5018477
   4.5019195   4.5036730   4.5017466   4.5035122   4.5053483   4.4950829
   0.8785583   0.8749790   0.8751099   0.8785695   0.8782404   0.8800499
   0.8800712   0.8781885   0.8782611   0.8743958   0.8743834   0.8784649
   0.8782893   0.8744200   0.8743259   0.8784098   0.8782476   0.8800511
   0.8801320   0.8782415   0.8785372   0.8749622   0.8750826   0.8785135
   5.9205569   5.9139265   6.1690971   6.1530086   6.1537898   6.1697559
   6.1671583   6.1675179   6.1687214   6.1688732   5.9173049   5.9239600
   5.9059708   5.9394022   6.1598203   6.1694359   6.1705666   6.1606736
   6.1597948   6.1694742   6.1705848   6.1607167   5.9426712   5.9090332
   5.9206839   5.9139970   6.1671094   6.1674664   6.1688567   6.1689769
   6.1689640   6.1529035   6.1538280   6.1697795   5.9171983   5.9239298
   8.4905182   8.4927363   8.4907567   8.4929568   8.5003276   8.4889651
   8.4929581   8.4905779   8.4889945   8.5007004   8.4932497   8.4908607
 TTTTTTTTTTTTTTTTTTTTTTTTTTTTTT MOQGAD      TELAPSE      169.99 TCPU     4351.72
 TTTTTTTTTTTTTTTTTTTTTTTTTTTTTT SHELLXN     TELAPSE      187.91 TCPU     4923.00
 TTTTTTTTTTTTTTTTTTTTTTTTTTTTTT MONMO3      TELAPSE      188.51 TCPU     4942.21
 NUMERICALLY INTEGRATED DENSITY    395.9999844867
 TTTTTTTTTTTTTTTTTTTTTTTTTTTTTT NUMDFT      TELAPSE      190.12 TCPU     4993.59
 CYC   6 ETOT(AU) -2.578221713572E+03 DETOT -1.01E-04 tst  5.80E-06 PX  4.24E-03
 TTTTTTTTTTTTTTTTTTTTTTTTTTTTTT DIIS        TELAPSE      190.37 TCPU     5000.53
 DIIS TEST: 0.30412E-03 AT SCF   CYCLE   6 - DIIS ACTIVE - HISTORY:     6 CYCLES
 TTTTTTTTTTTTTTTTTTTTTTTTTTTTTT FDIK        TELAPSE      192.43 TCPU     5065.86
 INSULATING STATE
 TOP OF VALENCE BANDS -    BAND    198; K    4; EIG -2.4262330E-01 AU
 TOP OF VALENCE BANDS -    BAND    198; K    1; EIG -2.4262331E-01 AU
 BOTTOM OF VIRTUAL BANDS - BAND    199; K    1; EIG -8.2332019E-02 AU
 INDIRECT ENERGY BAND GAP:   4.3617 eV
 TTTTTTTTTTTTTTTTTTTTTTTTTTTTTT PDIG        TELAPSE      194.09 TCPU     5072.93
 CHARGE NORMALIZATION FACTOR   1.00000000
 TOTAL ATOMIC CHARGES:
   4.4951152   4.5055205   4.5035918   4.5019035   4.5036887   4.5020641
   4.5017442   4.5033995   4.5015704   4.5032390   4.5052275   4.4947546
   0.8786844   0.8748557   0.8749349   0.8788702   0.8782132   0.8798312
   0.8799676   0.8782903   0.8776383   0.8744371   0.8746761   0.8777867
   0.8776590   0.8744569   0.8746247   0.8777369   0.8782155   0.8798327
   0.8800280   0.8783483   0.8786579   0.8748370   0.8749083   0.8788193
   5.9222051   5.9189492   6.1683677   6.1537972   6.1534730   6.1680918
   6.1680147   6.1691659   6.1686465   6.1673159   5.9182801   5.9215795
   5.9138017   5.9383125   6.1629051   6.1679450   6.1675955   6.1626815
   6.1629659   6.1680460   6.1675424   6.1626494   5.9377470   5.9133035
   5.9223955   5.9190807   6.1679797   6.1691189   6.1687753   6.1674025
   6.1682927   6.1537502   6.1534579   6.1680585   5.9181157   5.9214841
   8.4896383   8.4913897   8.4898474   8.4915838   8.4991171   8.4885742
   8.4914147   8.4897838   8.4885908   8.4989215   8.4916777   8.4900380
 TTTTTTTTTTTTTTTTTTTTTTTTTTTTTT MOQGAD      TELAPSE      194.19 TCPU     5073.03
 TTTTTTTTTTTTTTTTTTTTTTTTTTTTTT SHELLXN     TELAPSE      212.10 TCPU     5644.29
 TTTTTTTTTTTTTTTTTTTTTTTTTTTTTT MONMO3      TELAPSE      212.70 TCPU     5663.48
 NUMERICALLY INTEGRATED DENSITY    395.9999844606
 TTTTTTTTTTTTTTTTTTTTTTTTTTTTTT NUMDFT      TELAPSE      214.30 TCPU     5714.80
 CYC   7 ETOT(AU) -2.578221790029E+03 DETOT -7.65E-05 tst  1.10E-06 PX  1.76E-03
 TTTTTTTTTTTTTTTTTTTTTTTTTTTTTT DIIS        TELAPSE      214.58 TCPU     5721.76
 DIIS TEST: 0.11840E-04 AT SCF   CYCLE   7 - DIIS ACTIVE - HISTORY:     7 CYCLES
 TTTTTTTTTTTTTTTTTTTTTTTTTTTTTT FDIK        TELAPSE      216.64 TCPU     5787.18
 INSULATING STATE
 TOP OF VALENCE BANDS -    BAND    198; K    1; EIG -2.4263993E-01 AU
 BOTTOM OF VIRTUAL BANDS - BAND    199; K    1; EIG -8.2363333E-02 AU
 DIRECT ENERGY BAND GAP:   4.3613 eV
 TTTTTTTTTTTTTTTTTTTTTTTTTTTTTT PDIG        TELAPSE      218.34 TCPU     5794.28
 CHARGE NORMALIZATION FACTOR   1.00000000
 TOTAL ATOMIC CHARGES:
   4.4948967   4.5056090   4.5036768   4.5018532   4.5037732   4.5020135
   4.5018839   4.5036386   4.5017103   4.5034784   4.5054734   4.4947074
   0.8787181   0.8747439   0.8748482   0.8788256   0.8781902   0.8798192
   0.8798963   0.8782029   0.8775391   0.8744700   0.8745959   0.8777141
   0.8775625   0.8744923   0.8745418   0.8776619   0.8781930   0.8798196
   0.8799578   0.8782607   0.8786929   0.8747252   0.8748219   0.8787735
   5.9211057   5.9182641   6.1678550   6.1538006   6.1539683   6.1679951
   6.1675908   6.1686033   6.1689345   6.1680760   5.9195221   5.9223825
   5.9132112   5.9371988   6.1628078   6.1675232   6.1678405   6.1630735
   6.1628386   6.1675972   6.1678144   6.1630697   5.9383639   5.9143221
   5.9212802   5.9183823   6.1675587   6.1685602   6.1690598   6.1681596
   6.1677635   6.1537382   6.1539673   6.1679782   5.9193715   5.9223033
   8.4897186   8.4913606   8.4899379   8.4915636   8.4988157   8.4884542
   8.4914665   8.4898116   8.4884927   8.4989037   8.4917368   8.4900751
 TTTTTTTTTTTTTTTTTTTTTTTTTTTTTT MOQGAD      TELAPSE      218.44 TCPU     5794.39
 TTTTTTTTTTTTTTTTTTTTTTTTTTTTTT SHELLXN     TELAPSE      236.35 TCPU     6365.61
 TTTTTTTTTTTTTTTTTTTTTTTTTTTTTT MONMO3      TELAPSE      236.95 TCPU     6384.83
 NUMERICALLY INTEGRATED DENSITY    395.9999844585
 TTTTTTTTTTTTTTTTTTTTTTTTTTTTTT NUMDFT      TELAPSE      238.57 TCPU     6436.29
 CYC   8 ETOT(AU) -2.578221792439E+03 DETOT -2.41E-06 tst  5.33E-08 PX  3.03E-04
 TTTTTTTTTTTTTTTTTTTTTTTTTTTTTT DIIS        TELAPSE      238.86 TCPU     6443.24
 DIIS TEST: 0.24227E-05 AT SCF   CYCLE   8 - DIIS ACTIVE - HISTORY:     8 CYCLES
 TTTTTTTTTTTTTTTTTTTTTTTTTTTTTT FDIK        TELAPSE      240.91 TCPU     6508.50
 INSULATING STATE
 TOP OF VALENCE BANDS -    BAND    198; K    1; EIG -2.4263907E-01 AU
 BOTTOM OF VIRTUAL BANDS - BAND    199; K    1; EIG -8.2381555E-02 AU
 DIRECT ENERGY BAND GAP:   4.3608 eV
 TTTTTTTTTTTTTTTTTTTTTTTTTTTTTT PDIG        TELAPSE      242.58 TCPU     6515.57
 CHARGE NORMALIZATION FACTOR   1.00000000
 TOTAL ATOMIC CHARGES:
   4.4948867   4.5057299   4.5037754   4.5019046   4.5038715   4.5020648
   4.5018735   4.5036891   4.5017002   4.5035292   4.5055442   4.4946429
   0.8786676   0.8747390   0.8748348   0.8787999   0.8781695   0.8797817
   0.8798807   0.8782053   0.8775349   0.8744245   0.8745879   0.8777019
   0.8775577   0.8744460   0.8745344   0.8776503   0.8781724   0.8797824
   0.8799420   0.8782629   0.8786420   0.8747202   0.8748085   0.8787480
   5.9214212   5.9184872   6.1679823   6.1538564   6.1538690   6.1679914
   6.1678052   6.1687342   6.1687668   6.1678799   5.9190882   5.9220525
   5.9132807   5.9375396   6.1628143   6.1677234   6.1678214   6.1629158
   6.1628506   6.1678033   6.1677903   6.1629066   5.9381322   5.9138617
   5.9215978   5.9186069   6.1677718   6.1686898   6.1688934   6.1679647
   6.1678939   6.1537969   6.1538654   6.1679716   5.9189358   5.9219711
   8.4897602   8.4914297   8.4899774   8.4916309   8.4988981   8.4884758
   8.4915122   8.4898738   8.4885008   8.4988851   8.4917809   8.4901353
 TTTTTTTTTTTTTTTTTTTTTTTTTTTTTT MOQGAD      TELAPSE      242.68 TCPU     6515.67
 TTTTTTTTTTTTTTTTTTTTTTTTTTTTTT SHELLXN     TELAPSE      260.58 TCPU     7086.80
 TTTTTTTTTTTTTTTTTTTTTTTTTTTTTT MONMO3      TELAPSE      261.18 TCPU     7105.98
 NUMERICALLY INTEGRATED DENSITY    395.9999844593
 TTTTTTTTTTTTTTTTTTTTTTTTTTTTTT NUMDFT      TELAPSE      262.79 TCPU     7157.37
 CYC   9 ETOT(AU) -2.578221792732E+03 DETOT -2.93E-07 tst  6.01E-09 PX  1.22E-04
 TTTTTTTTTTTTTTTTTTTTTTTTTTTTTT DIIS        TELAPSE      263.12 TCPU     7164.36
 DIIS TEST: 0.66403E-07 AT SCF   CYCLE   9 - DIIS ACTIVE - HISTORY:     9 CYCLES
 TTTTTTTTTTTTTTTTTTTTTTTTTTTTTT FDIK        TELAPSE      265.17 TCPU     7229.68
 INSULATING STATE
 TOP OF VALENCE BANDS -    BAND    198; K    1; EIG -2.4264203E-01 AU
 BOTTOM OF VIRTUAL BANDS - BAND    199; K    1; EIG -8.2377249E-02 AU
 DIRECT ENERGY BAND GAP:   4.3610 eV
 TTTTTTTTTTTTTTTTTTTTTTTTTTTTTT PDIG        TELAPSE      266.84 TCPU     7236.76
 CHARGE NORMALIZATION FACTOR   1.00000000
 TOTAL ATOMIC CHARGES:
   4.4949200   4.5056916   4.5037292   4.5018938   4.5038255   4.5020541
   4.5018679   4.5036456   4.5016944   4.5034855   4.5055101   4.4946798
   0.8786588   0.8747494   0.8748464   0.8787905   0.8781790   0.8797775
   0.8798730   0.8782119   0.8775333   0.8744248   0.8745853   0.8777003
   0.8775557   0.8744461   0.8745323   0.8776491   0.8781818   0.8797783
   0.8799341   0.8782696   0.8786330   0.8747307   0.8748201   0.8787388
   5.9213984   5.9184152   6.1680607   6.1538107   6.1538271   6.1680733
   6.1677345   6.1687812   6.1688530   6.1678581   5.9190810   5.9220902
   5.9133238   5.9374993   6.1628220   6.1677104   6.1678249   6.1629387
   6.1628628   6.1677939   6.1677897   6.1629254   5.9381310   5.9139392
   5.9215779   5.9185375   6.1677011   6.1687366   6.1689798   6.1679431
   6.1679746   6.1537533   6.1538215   6.1680511   5.9189260   5.9220058
   8.4897414   8.4914106   8.4899572   8.4916106   8.4989293   8.4885135
   8.4914913   8.4898503   8.4885458   8.4989306   8.4917590   8.4901105
 TTTTTTTTTTTTTTTTTTTTTTTTTTTTTT MOQGAD      TELAPSE      266.94 TCPU     7236.86
 TTTTTTTTTTTTTTTTTTTTTTTTTTTTTT SHELLXN     TELAPSE      284.85 TCPU     7808.16
 +++ ENERGIES IN A.U. +++
 ::: EXT EL-POLE                                  -2.4784323534039E+03
 ::: EXT EL-SPHEROPOLE                             2.8619458573843E+01
 ::: BIELET ZONE E-E                               4.2622606739273E+03
 ::: TOTAL E-E                                     1.8124477790971E+03
 ::: TOTAL E-N + N-E                              -7.2835701565890E+03
 ::: TOTAL N-N                                     6.0048775570468E+02
 ::: KINETIC ENERGY                                2.5598389070409E+03
 ::: PSEUDO TOTAL   ENERGY                        -2.3107957147463E+03
 ::: VIRIAL COEFFICIENT                            1.0511315694223E+00
 TTTTTTTTTTTTTTTTTTTTTTTTTTTTTT MONMO3      TELAPSE      285.45 TCPU     7827.34
 NUMERICALLY INTEGRATED DENSITY    395.9999844593
 EXCHANGE ENERGY: -0.252045789844E+03  CORRELATION ENERGY: -0.153802881952E+02
 TTTTTTTTTTTTTTTTTTTTTTTTTTTTTT NUMDFT      TELAPSE      287.06 TCPU     7878.74
 CYC  10 ETOT(AU) -2.578221792786E+03 DETOT -5.35E-08 tst  1.57E-10 PX  1.22E-04

 == SCF ENDED - CONVERGENCE ON ENERGY      E(AU) -2.5782217927856E+03 CYCLES  10


 ENERGY EXPRESSION=HARTREE+FOCK EXCH*0.00000+(HSESOL     EXCH)*1.00000+PBESOL     CORR


 TOTAL ENERGY(DFT)(AU)( 10) -2.5782217927856E+03 DE-5.3E-08 tester 1.6E-10
 TTTTTTTTTTTTTTTTTTTTTTTTTTTTTT EDFT        TELAPSE      287.06 TCPU     7878.75
 
 INFORMATION **** DFTD3 ENERGY **** CALCULATE DFTD3 ENERGY

           DFT-D V3(BJ)
 DF                                         hsesol3c  
 parameters
 s6       :    1.0000
 s8       :    0.0000
 a1       :    0.5196
 a2       :    4.9385
 k1 k3    :   16.0000   -4.0000
 Cutoff   :   50.2022
 CN-Cutoff:   21.1671
 ABC-Cutoff:   21.1671
 
 Edisp /kcal,au:   -51.2019 -0.08159545

 E6    /kcal :   -54.6219
 E8    /kcal :     0.0000
 E6(ABC) "   :   3.419932
 
 INFORMATION **** DFTD3 ENERGY **** NORMAL TERMINATION OF DFTD3 MODULE

 GCP ENERGY CALCULATION
  level        hsesol3c            basis:hsesol3c
  Nbf            948
  Atoms           84

  Parameters: 
  sigma     1.0000
  eta       1.4281
  alpha     0.2936
  beta      1.9467

  dmp_scal      4.0000
  dmp_exp       6.0000
 cutoffs: 
   distance [bohr] 60.0
   noise    [a.u.] 2.2E-16
 SR-damping   T
 ** gCP correction **
  Egcp:        0.1659348693 / (a.u.) ||     104.1257 / (kcal/mol)
 INFORMATION **** GCP **** NORMAL TERMINATION OF GCP MODULE

 *******************************************************************************

 DFT-D3-GCP DISPERSION AND COUNTERPOISE CORRECTION

 D3 DISPERSION ENERGY (AU)      -8.1595451583729E-02
 GCP ENERGY (AU)                 1.6593486930199E-01
 TOTAL ENERGY + DISP + GCP (AU) -2.5781374533679E+03

 *******************************************************************************

 EIGENVECTORS IN FORTRAN UNIT  8
 TTTTTTTTTTTTTTTTTTTTTTTTTTTTTT END         TELAPSE      289.99 TCPU     7887.64
 EEEEEEEEEE TERMINATION  DATE 19 02 2026 TIME 20:27:29.8
