 Default number of threads is:           32

         
 *******************************************************************************
 *                                                                             *
 *                               CRYSTAL23                                     *
 *                      public : 1.0.1 - October 2022                          *
 *                       HTTP://WWW.CRYSTAL.UNITO.IT                           *
 *                                                                             *
 *                              MAIN AUTHORS                                   *
 *                                                                             *
 *  R. DOVESI(1,11), V.R. SAUNDERS(2), C. ROETTI(1,11), R. ORLANDO(1,11),      *
 *  C.M. ZICOVICH-WILSON(1,3), F. PASCALE(4), B. CIVALLERI(1,11),              *
 *  K. DOLL(5), N.M. HARRISON(6), I.J. BUSH(7), Ph. D'ARCO(8),                 *
 *  M. LLUNELL(9), M. CAUSA'(10), Y. NOEL(8), L. MASCHIO(1,11), A. ERBA(1,11)  *
 *  M. RE'RAT(14), S. CASASSA(1,11), B.G. SEARLE(2), J.K. DESMARAIS(1)         *
 *                                                                             *
 *        CONTRIBUTIONS TO THE CODE HAVE ALSO BEEN GIVEN BY                    *
 *                                                                             *
 *  M. FERRABONE(1,11), M. DE LA PIERRE(1,11), M. FERRERO(1,11),               *
 *  J. BAIMA(1,11), E. ALBANESE(1,11), M.F. PEINTINGER(12), R. BAST(13),       *
 *  B. KIRTMAN(15), V. LACIVITA(1,11), R. DEMICHELIS(1,16)                     *
 *  G. BRANDEBURG(17), S. SALUSTRO(1,11), G. SANSONE(1,11)                     *
 *  M.T. RUGGIERO(18), L.E. DAGA(1), L. DONA'(1), A. COSSARD(1)                *
 *                                                                             *
 * (1) THEORETICAL CHEMISTRY GROUP - UNIVERSITA' DI TORINO - TORINO (ITALY)    *
 * (2) SCIENTIFIC COMPUTING DEPARTMENT - STFC DARESBURY (UK)                   *
 * (3) UNIVERSIDAD AUTONOMA DEL ESTADO DE MORELOS - CUERNAVACA (MEXICO)        *
 * (4) UNIVERSITE' DE LORRAINE - NANCY (FRANCE)                                *
 * (5) UNIVERSITAET STUTTGART- STUTTGART (GERMANY)                             *
 * (6) IMPERIAL COLLEGE - LONDON (UK)                                          *
 * (7) SCIENTIFIC COMPUTING DEPARTMENT - STFC RAL (UK)                         *
 * (8) UPMC - SORBONNE UNIVERSITES - PARIS (FRANCE)                            *
 * (9) UNIVERSIDAD DE BARCELONA - BARCELONA (SPAIN)                            *
 *(10) UNIVERSITA' DI NAPOLI "FEDERICO II" - NAPOLI (ITALY)                    *
 *(11) NIS - NANOSTRUCTURED INTERFACES AND SURFACES - TORINO (ITALY)           *
 *(12) MPI FUER CHEMISCHE ENERGIEKONVERSION - MUELHEIM AN DER RUHR (GERMANY)   *
 *(13) UNIVERSITY OF TROMSO - TROMSO (NORWAY)                                  *
 *(14) UNIVERSITE' DE PAU ET DES PAYS DE L'ADOUR - PAU (FRANCE)                *
 *(15) UNIVERSITY OF CALIFORNIA SANTA BARBARA - SANTA BARBARA (USA)            *
 *(16) CURTIN UNIVERSITY - PERTH (AUSTRALIA)                                   *
 *(17) UNIVERSITY COLLEGE LONDON - LONDON (UK)                                 *
 *(18) UNIVERSITY OF VERMONT - BURLINGTON (USA)                                *
 *                                                                             *
 *******************************************************************************
 EEEEEEEEEE STARTING  DATE 02 12 2025 TIME 07:59:57.9
 COF-5_z35_inc_L075                                                              

 CRYSTAL CALCULATION
 (INPUT ACCORDING TO THE INTERNATIONAL TABLES FOR X-RAY CRYSTALLOGRAPHY)
 CRYSTAL FAMILY                       :  TRICLINIC   
 CRYSTAL CLASS  (GROTH - 1921)        :  TRICLINIC PEDIAL                     

 SPACE GROUP (NONCENTROSYMMETRIC)     :  P 1             

 LATTICE PARAMETERS  (ANGSTROMS AND DEGREES) - CONVENTIONAL CELL
        A           B           C        ALPHA        BETA       GAMMA
    15.02070    15.04439     8.27647    38.34097    89.99970   120.05310


 NUMBER OF IRREDUCIBLE ATOMS IN THE CONVENTIONAL CELL:   42

 INPUT COORDINATES

 ATOM AT. N.              COORDINATES
   1   5     4.709939200000E-01 -6.025181000000E-02  5.006063600000E-01
   2   5     6.297704300000E-01  9.876915000000E-02  5.006163500000E-01
   3   5     4.709518000000E-01  9.928007000000E-02  4.991865100000E-01
   4   5     8.278232000000E-02  3.232706700000E-01  5.054009100000E-01
   5   5     2.401887600000E-01  3.204409700000E-01  5.094444300000E-01
   6   5     2.421845900000E-01  4.832151000000E-01  5.034793500000E-01
   7   1     7.586728000000E-01  1.897662000000E-02  5.045044000000E-01
   8   1    -4.353121000000E-02  4.075428900000E-01  4.929151500000E-01
   9   1     7.621264600000E-01  3.103230500000E-01  4.927768700000E-01
  10   1    -4.676320000000E-02  1.164388400000E-01  5.040730100000E-01
  11   1     4.487410000000E-01  6.128353000000E-01  5.041950700000E-01
  12   1     2.653885600000E-01 -1.862010900000E-01  4.945472300000E-01
  13   1     1.666707700000E-01  6.193344500000E-01  4.958539500000E-01
  14   1     5.473802500000E-01 -1.924027400000E-01  5.023339100000E-01
  15   1     4.502000700000E-01  4.038825000000E-01  4.977512500000E-01
  16   1     2.604970800000E-01  1.749908000000E-02  5.060336000000E-01
  17   1     1.632384300000E-01  1.136306800000E-01  5.056687600000E-01
  18   1     5.477218300000E-01  3.074856900000E-01  4.986846100000E-01
  19   6     7.491351600000E-01  1.583422100000E-01  5.003663800000E-01
  20   6     8.031492000000E-01  1.041486400000E-01  5.021323100000E-01
  21   6    -8.798702000000E-02  3.221666300000E-01  4.957400100000E-01
  22   6     8.049371100000E-01  2.684475500000E-01  4.960771400000E-01
  23   6    -8.963421000000E-02  1.580843000000E-01  5.014886600000E-01
  24   6    -3.450224000000E-02  2.670137500000E-01  4.993056000000E-01
  25   6     3.016190300000E-01  6.035309200000E-01  5.018477100000E-01
  26   6     4.093795800000E-01  6.577882500000E-01  5.022378500000E-01
  27   6     3.044442700000E-01 -2.316280000000E-01  4.969619800000E-01
  28   6     2.500028100000E-01  6.607725300000E-01  4.980805500000E-01
  29   6     4.638781000000E-01 -2.345174100000E-01  5.008005800000E-01
  30   6     4.116678200000E-01 -1.785887600000E-01  4.991764800000E-01
  31   6     3.017686000000E-01  2.655717900000E-01  4.999476200000E-01
  32   6     4.097770900000E-01  3.191443800000E-01  4.993961900000E-01
  33   6     3.016328200000E-01  1.025098400000E-01  5.039192900000E-01
  34   6     2.479069800000E-01  1.559055500000E-01  5.033114100000E-01
  35   6     4.633196700000E-01  2.655394500000E-01  5.003344600000E-01
  36   6     4.102063300000E-01  1.571009600000E-01  5.015761900000E-01
  37   8     4.181747600000E-01 -6.843130000000E-03  4.995763400000E-01
  38   8     5.764704800000E-01 -8.267890000000E-03  5.025661000000E-01
  39   8     5.773845100000E-01  1.530788100000E-01  4.980468200000E-01
  40   8     1.363975400000E-01  4.306805900000E-01  5.027127700000E-01
  41   8     1.339948000000E-01  2.673067600000E-01  5.101998000000E-01
  42   8     2.944920400000E-01  4.289674700000E-01  5.051842600000E-01

 *******************************************************************************

 << INFORMATION >>: FROM NOW ON, ALL COORDINATES REFER TO THE PRIMITIVE CELL

 *******************************************************************************

 LATTICE PARAMETERS  (ANGSTROMS AND DEGREES) - PRIMITIVE CELL
       A          B          C        ALPHA      BETA     GAMMA        VOLUME
   15.02070   15.04439    8.27647    38.34097  89.99970 120.05310    684.677483

 COORDINATES OF THE EQUIVALENT ATOMS (FRACTIONAL UNITS)

 N. ATOM EQUIV AT. N.          X                  Y                  Z

   1   1   1    5 B     4.70993920000E-01 -6.02518100000E-02 -4.99393640000E-01

   2   2   1    5 B    -3.70229570000E-01  9.87691500000E-02 -4.99383650000E-01

   3   3   1    5 B     4.70951800000E-01  9.92800700000E-02  4.99186510000E-01

   4   4   1    5 B     8.27823200000E-02  3.23270670000E-01 -4.94599090000E-01

   5   5   1    5 B     2.40188760000E-01  3.20440970000E-01 -4.90555570000E-01

   6   6   1    5 B     2.42184590000E-01  4.83215100000E-01 -4.96520650000E-01

   7   7   1    1 H    -2.41327200000E-01  1.89766200000E-02 -4.95495600000E-01

   8   8   1    1 H    -4.35312100000E-02  4.07542890000E-01  4.92915150000E-01

   9   9   1    1 H    -2.37873540000E-01  3.10323050000E-01  4.92776870000E-01

  10  10   1    1 H    -4.67632000000E-02  1.16438840000E-01 -4.95926990000E-01

  11  11   1    1 H     4.48741000000E-01 -3.87164700000E-01 -4.95804930000E-01

  12  12   1    1 H     2.65388560000E-01 -1.86201090000E-01  4.94547230000E-01

  13  13   1    1 H     1.66670770000E-01 -3.80665550000E-01  4.95853950000E-01

  14  14   1    1 H    -4.52619750000E-01 -1.92402740000E-01 -4.97666090000E-01

  15  15   1    1 H     4.50200070000E-01  4.03882500000E-01  4.97751250000E-01

  16  16   1    1 H     2.60497080000E-01  1.74990800000E-02 -4.93966400000E-01

  17  17   1    1 H     1.63238430000E-01  1.13630680000E-01 -4.94331240000E-01

  18  18   1    1 H    -4.52278170000E-01  3.07485690000E-01  4.98684610000E-01

  19  19   1    6 C    -2.50864840000E-01  1.58342210000E-01 -4.99633620000E-01

  20  20   1    6 C    -1.96850800000E-01  1.04148640000E-01 -4.97867690000E-01

  21  21   1    6 C    -8.79870200000E-02  3.22166630000E-01  4.95740010000E-01

  22  22   1    6 C    -1.95062890000E-01  2.68447550000E-01  4.96077140000E-01

  23  23   1    6 C    -8.96342100000E-02  1.58084300000E-01 -4.98511340000E-01

  24  24   1    6 C    -3.45022400000E-02  2.67013750000E-01  4.99305600000E-01

  25  25   1    6 C     3.01619030000E-01 -3.96469080000E-01 -4.98152290000E-01

  26  26   1    6 C     4.09379580000E-01 -3.42211750000E-01 -4.97762150000E-01

  27  27   1    6 C     3.04444270000E-01 -2.31628000000E-01  4.96961980000E-01

  28  28   1    6 C     2.50002810000E-01 -3.39227470000E-01  4.98080550000E-01

  29  29   1    6 C     4.63878100000E-01 -2.34517410000E-01 -4.99199420000E-01

  30  30   1    6 C     4.11667820000E-01 -1.78588760000E-01  4.99176480000E-01

  31  31   1    6 C     3.01768600000E-01  2.65571790000E-01  4.99947620000E-01

  32  32   1    6 C     4.09777090000E-01  3.19144380000E-01  4.99396190000E-01

  33  33   1    6 C     3.01632820000E-01  1.02509840000E-01 -4.96080710000E-01

  34  34   1    6 C     2.47906980000E-01  1.55905550000E-01 -4.96688590000E-01

  35  35   1    6 C     4.63319670000E-01  2.65539450000E-01 -4.99665540000E-01

  36  36   1    6 C     4.10206330000E-01  1.57100960000E-01 -4.98423810000E-01

  37  37   1    8 O     4.18174760000E-01 -6.84313000000E-03  4.99576340000E-01

  38  38   1    8 O    -4.23529520000E-01 -8.26789000000E-03 -4.97433900000E-01

  39  39   1    8 O    -4.22615490000E-01  1.53078810000E-01  4.98046820000E-01

  40  40   1    8 O     1.36397540000E-01  4.30680590000E-01 -4.97287230000E-01

  41  41   1    8 O     1.33994800000E-01  2.67306760000E-01 -4.89800200000E-01

  42  42   1    8 O     2.94492040000E-01  4.28967470000E-01 -4.94815740000E-01

 NUMBER OF SYMMETRY OPERATORS         :    1
 *******************************************************************************
 * GEOMETRY EDITING - INPUT COORDINATES ARE GIVEN IN ANGSTROM         
 *******************************************************************************

 GCALCO - MAX INDICES DIRECT LATTICE VECTOR     9    15    23
 NO.OF VECTORS CREATED 6999 STARS 3500 RMAX   210.14093 BOHR

 GEOMETRY FOR WAVE FUNCTION - DIMENSIONALITY OF THE SYSTEM    3
 (NON PERIODIC DIRECTION: LATTICE PARAMETER FORMALLY SET TO 500)
 *******************************************************************************
 LATTICE PARAMETERS (ANGSTROMS AND DEGREES) - BOHR = 0.5291772083 ANGSTROM
 PRIMITIVE CELL - CENTRING CODE 1/0 VOLUME=   684.677483 - DENSITY  0.946 g/cm^3
         A              B              C           ALPHA      BETA       GAMMA 
    15.02070100    15.04438700     8.27647300    38.340974  89.999698 120.053104
 *******************************************************************************
 ATOMS IN THE ASYMMETRIC UNIT   42 - ATOMS IN THE UNIT CELL:   42
     ATOM                 X/A                 Y/B                 Z/C    
 *******************************************************************************
      1 T   5 B     4.709939200000E-01 -6.025181000000E-02 -4.993936400000E-01
      2 T   5 B    -3.702295700000E-01  9.876915000000E-02 -4.993836500000E-01
      3 T   5 B     4.709518000000E-01  9.928007000000E-02  4.991865100000E-01
      4 T   5 B     8.278232000000E-02  3.232706700000E-01 -4.945990900000E-01
      5 T   5 B     2.401887600000E-01  3.204409700000E-01 -4.905555700000E-01
      6 T   5 B     2.421845900000E-01  4.832151000000E-01 -4.965206500000E-01
      7 T   1 H    -2.413272000000E-01  1.897662000000E-02 -4.954956000000E-01
      8 T   1 H    -4.353121000000E-02  4.075428900000E-01  4.929151500000E-01
      9 T   1 H    -2.378735400000E-01  3.103230500000E-01  4.927768700000E-01
     10 T   1 H    -4.676320000000E-02  1.164388400000E-01 -4.959269900000E-01
     11 T   1 H     4.487410000000E-01 -3.871647000000E-01 -4.958049300000E-01
     12 T   1 H     2.653885600000E-01 -1.862010900000E-01  4.945472300000E-01
     13 T   1 H     1.666707700000E-01 -3.806655500000E-01  4.958539500000E-01
     14 T   1 H    -4.526197500000E-01 -1.924027400000E-01 -4.976660900000E-01
     15 T   1 H     4.502000700000E-01  4.038825000000E-01  4.977512500000E-01
     16 T   1 H     2.604970800000E-01  1.749908000000E-02 -4.939664000000E-01
     17 T   1 H     1.632384300000E-01  1.136306800000E-01 -4.943312400000E-01
     18 T   1 H    -4.522781700000E-01  3.074856900000E-01  4.986846100000E-01
     19 T   6 C    -2.508648400000E-01  1.583422100000E-01 -4.996336200000E-01
     20 T   6 C    -1.968508000000E-01  1.041486400000E-01 -4.978676900000E-01
     21 T   6 C    -8.798702000000E-02  3.221666300000E-01  4.957400100000E-01
     22 T   6 C    -1.950628900000E-01  2.684475500000E-01  4.960771400000E-01
     23 T   6 C    -8.963421000000E-02  1.580843000000E-01 -4.985113400000E-01
     24 T   6 C    -3.450224000000E-02  2.670137500000E-01  4.993056000000E-01
     25 T   6 C     3.016190300000E-01 -3.964690800000E-01 -4.981522900000E-01
     26 T   6 C     4.093795800000E-01 -3.422117500000E-01 -4.977621500000E-01
     27 T   6 C     3.044442700000E-01 -2.316280000000E-01  4.969619800000E-01
     28 T   6 C     2.500028100000E-01 -3.392274700000E-01  4.980805500000E-01
     29 T   6 C     4.638781000000E-01 -2.345174100000E-01 -4.991994200000E-01
     30 T   6 C     4.116678200000E-01 -1.785887600000E-01  4.991764800000E-01
     31 T   6 C     3.017686000000E-01  2.655717900000E-01  4.999476200000E-01
     32 T   6 C     4.097770900000E-01  3.191443800000E-01  4.993961900000E-01
     33 T   6 C     3.016328200000E-01  1.025098400000E-01 -4.960807100000E-01
     34 T   6 C     2.479069800000E-01  1.559055500000E-01 -4.966885900000E-01
     35 T   6 C     4.633196700000E-01  2.655394500000E-01 -4.996655400000E-01
     36 T   6 C     4.102063300000E-01  1.571009600000E-01 -4.984238100000E-01
     37 T   8 O     4.181747600000E-01 -6.843130000000E-03  4.995763400000E-01
     38 T   8 O    -4.235295200000E-01 -8.267890000000E-03 -4.974339000000E-01
     39 T   8 O    -4.226154900000E-01  1.530788100000E-01  4.980468200000E-01
     40 T   8 O     1.363975400000E-01  4.306805900000E-01 -4.972872300000E-01
     41 T   8 O     1.339948000000E-01  2.673067600000E-01 -4.898002000000E-01
     42 T   8 O     2.944920400000E-01  4.289674700000E-01 -4.948157400000E-01

 T = ATOM BELONGING TO THE ASYMMETRIC UNIT

 ****    1 SYMMOPS - TRANSLATORS IN FRACTIONAL UNITS
 **** MATRICES AND TRANSLATORS IN THE CRYSTALLOGRAPHIC REFERENCE FRAME
   V INV                    ROTATION MATRICES                   TRANSLATORS
   1   1  1.00 -0.00  0.00  0.00  1.00  0.00  0.00 -0.00  1.00  0.00  0.00  0.00

 DIRECT LATTICE VECTORS CARTESIAN COMPONENTS (ANGSTROM)
          X                    Y                    Z
   0.130013421718E+02  -0.752240388864E+01   0.000000000000E+00
   0.000000000000E+00   0.150443870000E+02   0.000000000000E+00
   0.375595212527E+01   0.649151045531E+01   0.350044582319E+01


 CARTESIAN COORDINATES - PRIMITIVE CELL
 *******************************************************************************
 *      ATOM          X(ANGSTROM)         Y(ANGSTROM)         Z(ANGSTROM)
 *******************************************************************************
    1     5 B     4.919023859699E-01  8.615994668956E-01 -5.248546204449E+00
    2     5 B     2.556247643282E+00  2.059656144188E+00 -5.248511234996E+00
    3     5 B    -1.247463915150E+00  1.609199355447E-01  5.247821157106E+00
    4     5 B    -7.814092351491E-01  1.029991855431E+00 -1.731317318742E+00
    5     5 B     1.280273018869E+00 -1.704055104603E-01 -1.717163196047E+00
    6     5 B     1.283816932713E+00  2.224695676308E+00 -1.738043635418E+00
    7     1 H    -4.998635254438E+00 -1.115662585011E+00 -1.734455503427E+00
    8     1 H    -2.470550576411E+00  3.166945694138E+00 -1.775023045183E+00
    9     1 H    -1.241828954990E+00 -5.387519894741E+00  1.724938736354E+00
   10     1 H    -2.470662396317E+00 -1.115792592337E+00 -1.735965560751E+00
   11     1 H     3.972015706951E+00  2.625597490181E+00 -1.735538296333E+00
   12     1 H     5.307903196599E+00 -1.587282679339E+00  1.731135785622E+00
   13     1 H     2.733952828588E-01  4.791072945285E+00 -1.764735934998E+00
   14     1 H     1.491515794640E+00 -1.689924683378E+00 -5.242499009268E+00
   15     1 H     3.966782895850E+00 -5.707751364967E-01 -1.758094539138E+00
   16     1 H     1.531497521936E+00 -4.902889366078E+00 -1.729102621674E+00
   17     1 H     2.656342125475E-01 -2.727397888459E+00 -1.730379724328E+00
   18     1 H    -4.007187724224E+00 -3.779017858207E+00  1.745618460162E+00
   19     6 C    -5.138179580603E+00  1.025891265563E+00 -1.748940418252E+00
   20     6 C    -4.429291815946E+00 -1.842696459080E-01 -1.742758875960E+00
   21     6 C    -3.037925734824E+00  2.235264364326E+00 -1.765134775795E+00
   22     6 C    -4.428789514894E+00  2.234750159310E+00 -1.763954670495E+00
   23     6 C    -3.037749761451E+00 -1.835454580151E-01 -1.745011937914E+00
   24     6 C    -2.329159623724E+00  1.026335041151E+00 -1.752653621173E+00
   25     6 C     2.050416062215E+00  3.577091763916E+00 -1.743755102841E+00
   26     6 C     3.452913192545E+00  3.585274251550E+00 -1.742389438907E+00
   27     6 C     2.068797406195E+00  6.004056401195E+00 -1.760857336013E+00
   28     6 C     1.365186651773E+00  4.802080192777E+00 -1.756941842328E+00
   29     6 C     4.001166563390E-01 -1.705330807092E+00 -5.247866347862E+00
   30     6 C    -2.018272896634E+00 -3.573553346376E+00  5.247786047634E+00
   31     6 C     2.045224025890E+00 -1.520755758038E+00 -1.750406264945E+00
   32     6 C     3.447408217156E+00 -1.530852080278E+00 -1.752336515785E+00
   33     6 C     2.058376106027E+00 -3.947119309483E+00 -1.736503649283E+00
   34     6 C     1.357584908543E+00 -2.743612175742E+00 -1.738631500290E+00
   35     6 C     4.147057717696E+00 -2.733983514791E+00 -1.749052152483E+00
   36     6 C     3.461176888903E+00 -3.957773425414E+00 -1.744705543891E+00
   37     8 O    -1.932172088186E+00 -1.036097758486E+00  5.249185735901E+00
   38     8 O     1.870599923250E+00  8.629500647477E-01 -5.241686240752E+00
   39     8 O     1.320235447519E-01  1.622608590836E-01  5.243831734006E+00
   40     8 O    -9.443593946019E-02  2.225142831216E+00 -1.740727007177E+00
   41     8 O    -9.755385810954E-02 -1.660397787326E-01 -1.714519064286E+00
   42     8 O     1.970287548633E+00  1.026163012561E+00 -1.732075690330E+00

 *******************************************************************************
 STARTING BASIS SET HANDLING 
 *******************************************************************************

 Loading internal basis set: SOLDEF2MSVP         

 Please cite in your publication:
 L. Dona', J. G. Brandenburg and B. Civalleri, J. Chem. Phys., 151, 121101 (2019
 )                                                                              
                                                                                
                    

 *******************************************************************************
 LOCAL ATOMIC FUNCTIONS BASIS SET
 *******************************************************************************
   ATOM   X(AU)   Y(AU)   Z(AU)  N. TYPE  EXPONENT  S COEF   P COEF   D/F/G COEF
 *******************************************************************************
   1 B    0.930   1.628  -9.918
                                  1 S  
                                         2.410E+03 1.755E-03 0.000E+00 0.000E+00
                                         3.619E+02 1.344E-02 0.000E+00 0.000E+00
                                         8.231E+01 6.637E-02 0.000E+00 0.000E+00
                                         2.311E+01 2.303E-01 0.000E+00 0.000E+00
                                         7.252E+00 5.150E-01 0.000E+00 0.000E+00
                                  2 S  
                                         2.367E+00 1.000E+00 0.000E+00 0.000E+00
                                  3 S  
                                         5.533E-01 1.000E+00 0.000E+00 0.000E+00
                                  4 S  
                                         1.716E-01 1.000E+00 0.000E+00 0.000E+00
                           5-     7 P  
                                         6.002E+00 0.000E+00-3.555E-02 0.000E+00
                                         1.240E+00 0.000E+00-1.983E-01 0.000E+00
                                         3.367E-01 0.000E+00-5.048E-01 0.000E+00
                           8-    10 P  
                                         1.256E-01 0.000E+00 1.000E+00 0.000E+00
                          11-    15 D  
                                         8.880E-01 0.000E+00 0.000E+00 1.000E+00
   2 B    4.831   3.892  -9.918
   3 B   -2.357   0.304   9.917
   4 B   -1.477   1.946  -3.272
   5 B    2.419  -0.322  -3.245
   6 B    2.426   4.204  -3.284
   7 H   -9.446  -2.108  -3.278
                                 91 S  
                                         1.874E+01 1.968E-02 0.000E+00 0.000E+00
                                         2.826E+00 1.380E-01 0.000E+00 0.000E+00
                                         6.401E-01 4.783E-01 0.000E+00 0.000E+00
                                 92 S  
                                         1.756E-01 1.000E+00 0.000E+00 0.000E+00
   8 H   -4.669   5.985  -3.354
   9 H   -2.347 -10.181   3.260
  10 H   -4.669  -2.109  -3.280
  11 H    7.506   4.962  -3.280
  12 H   10.030  -3.000   3.271
  13 H    0.517   9.054  -3.335
  14 H    2.819  -3.193  -9.907
  15 H    7.496  -1.079  -3.322
  16 H    2.894  -9.265  -3.268
  17 H    0.502  -5.154  -3.270
  18 H   -7.572  -7.141   3.299
  19 C   -9.710   1.939  -3.305
                                115 S  
                                         3.624E+03 1.634E-03 0.000E+00 0.000E+00
                                         5.440E+02 1.252E-02 0.000E+00 0.000E+00
                                         1.237E+02 6.211E-02 0.000E+00 0.000E+00
                                         3.476E+01 2.182E-01 0.000E+00 0.000E+00
                                         1.093E+01 4.980E-01 0.000E+00 0.000E+00
                                116 S  
                                         3.574E+00 1.000E+00 0.000E+00 0.000E+00
                                117 S  
                                         7.742E-01 1.000E+00 0.000E+00 0.000E+00
                                118 S  
                                         2.330E-01 1.000E+00 0.000E+00 0.000E+00
                         119-   121 P  
                                         9.443E+00 0.000E+00 3.790E-02 0.000E+00
                                         2.002E+00 0.000E+00 2.082E-01 0.000E+00
                                         5.463E-01 0.000E+00 5.047E-01 0.000E+00
                         122-   124 P  
                                         1.820E-01 0.000E+00 1.000E+00 0.000E+00
                         125-   129 D  
                                         8.880E-01 0.000E+00 0.000E+00 1.000E+00
  20 C   -8.370  -0.348  -3.293
  21 C   -5.741   4.224  -3.336
  22 C   -8.369   4.223  -3.333
  23 C   -5.741  -0.347  -3.298
  24 C   -4.401   1.939  -3.312
  25 C    3.875   6.760  -3.295
  26 C    6.525   6.775  -3.293
  27 C    3.909  11.346  -3.328
  28 C    2.580   9.075  -3.320
  29 C    0.756  -3.223  -9.917
  30 C   -3.814  -6.753   9.917
  31 C    3.865  -2.874  -3.308
  32 C    6.515  -2.893  -3.311
  33 C    3.890  -7.459  -3.282
  34 C    2.565  -5.185  -3.286
  35 C    7.837  -5.166  -3.305
  36 C    6.541  -7.479  -3.297
  37 O   -3.651  -1.958   9.920
                                385 S  
                                         6.773E+03 1.727E-03 0.000E+00 0.000E+00
                                         1.017E+03 1.325E-02 0.000E+00 0.000E+00
                                         2.313E+02 6.603E-02 0.000E+00 0.000E+00
                                         6.501E+01 2.353E-01 0.000E+00 0.000E+00
                                         2.050E+01 5.498E-01 0.000E+00 0.000E+00
                                386 S  
                                         6.716E+00 1.000E+00 0.000E+00 0.000E+00
                                387 S  
                                         1.147E+00 1.000E+00 0.000E+00 0.000E+00
                                388 S  
                                         3.342E-01 1.000E+00 0.000E+00 0.000E+00
                         389-   391 P  
                                         1.769E+01 0.000E+00 4.359E-02 0.000E+00
                                         3.854E+00 0.000E+00 2.318E-01 0.000E+00
                                         1.047E+00 0.000E+00 5.146E-01 0.000E+00
                         392-   394 P  
                                         2.759E-01 0.000E+00 1.000E+00 0.000E+00
                         395-   399 D  
                                         8.000E-01 0.000E+00 0.000E+00 1.000E+00
  38 O    3.535   1.631  -9.905
  39 O    0.249   0.307   9.909
  40 O   -0.178   4.205  -3.289
  41 O   -0.184  -0.314  -3.240
  42 O    3.723   1.939  -3.273

 *******************************************************************************
 FINISHED BASIS SET HANDLING 
 *******************************************************************************

 INFORMATION **** SET_MPP **** PCRYSTAL CALCULATION
 INFORMATION **** READM2 **** NEW DEFAULT: FOCK/KS MATRIX MIXING SET TO 30 %
 INFORMATION **** READM2 **** NEW DEFAULT: FULL DIRECT SCF MODE
 INFORMATION **** READM2 **** NEW DEFAULT: COULOMB BIPOLAR BUFFER SET TO 32 Mb
 INFORMATION **** READM2 **** NEW DEFAULT: EXCHANGE BIPOLAR BUFFER SET TO 32 Mb

 *******************************************************************************
 NEW DEFAULT: DFT INTEGRATION GRID INCREASED TO XLGRID
 NEW DEFAULT: DIIS ACCELERATOR ACTIVE
 USE KEYWORD NODIIS TO TURN IT OFF
 *******************************************************************************

 WARNING **** RDDFTP **** HSEsol-HJS ACTIVE
 RANGE SEPARATION - OMEGA:   0.110000000000000     
 WARNING **** RDDFTP **** HSEsol-3c has to be combined with sol-def2-mSVP basis set
 *******************************************************************************
 N. OF ATOMS PER CELL        42  COULOMB OVERLAP TOL         (T1) 10**   -6
 NUMBER OF SHELLS           234  COULOMB PENETRATION TOL     (T2) 10**   -6
 NUMBER OF AO               474  EXCHANGE OVERLAP TOL        (T3) 10**   -6
 N. OF ELECTRONS PER CELL   198  EXCHANGE PSEUDO OVP (F(G))  (T4) 10**   -6
 CORE ELECTRONS PER CELL     60  EXCHANGE PSEUDO OVP (P(G))  (T5) 10**  -12
 N. OF SYMMETRY OPERATORS     1  POLE ORDER IN MONO ZONE                  4
 *******************************************************************************
 TYPE OF CALCULATION :  RESTRICTED CLOSED SHELL
 KOHN-SHAM HAMILTONIAN

 (EXCHANGE)[CORRELATION] FUNCTIONAL:(HSEsol GGA)[PBEsol]

 RANGE-SEPARATED HYBRID FUNCTIONAL 
 OMEGA (SHORT-RANGE)[LONG-RANGE]:(    0.1100)[    0.0000]

 HYBRID EXCHANGE - PERCENTAGE OF FOCK EXCHANGE    25.0000

 CAPPA:IS1  2;IS2  2;IS3  8; K PTS MONK NET  20; SYMMOPS:K SPACE   2;G SPACE   1

 *******************************************************************************
 MAX NUMBER OF SCF CYCLES      50  CONVERGENCE ON DELTAP        10**-16
 WEIGHT OF F(I) IN F(I+1)      30% CONVERGENCE ON ENERGY        10**- 6
 SHRINK. FACT.(MONKH.)    2  2  8  NUMBER OF K POINTS IN THE IBZ     20
 SHRINKING FACTOR(GILAT NET)    8  NUMBER OF K POINTS(GILAT NET)   1028
 *******************************************************************************
 *** K POINTS COORDINATES (OBLIQUE COORDINATES IN UNITS OF IS =  2)
   1-R(  0  0  0)   2-R(  1  0  0)   3-R(  0  1  0)   4-R(  1  1  0)
   5-C(  0  0  1)   6-C(  1  0  1)   7-C(  0  1  1)   8-C(  1  1  1)
   9-C(  0  0  2)  10-C(  1  0  2)  11-C(  0  1  2)  12-C(  1  1  2)
  13-C(  0  0  3)  14-C(  1  0  3)  15-C(  0  1  3)  16-C(  1  1  3)
  17-R(  0  0  4)  18-R(  1  0  4)  19-R(  0  1  4)  20-R(  1  1  4)

 DIRECT LATTICE VECTORS COMPON. (A.U.)     RECIP. LATTICE VECTORS COMPON. (A.U.) 
        X            Y            Z              X            Y            Z
   24.5689761  -14.2152832    0.0000000      0.2557366    0.0000000   -0.2744034
    0.0000000   28.4297713    0.0000000      0.1278719    0.2210072   -0.5470593
    7.0977209   12.2671770    6.6148840      0.0000000    0.0000000    0.9498557

 DISK SPACE FOR EIGENVECTORS (FTN 10)     7189632 REALS

 SYMMETRY ADAPTION OF THE BLOCH FUNCTIONS DISABLED
 TTTTTTTTTTTTTTTTTTTTTTTTTTTTTT gordsh1     TELAPSE        0.05 TCPU        0.04

 MATRIX SIZE: P(G)  332802, F(G)   64022, P(G) IRR  167622, F(G) IRR   64502
 MAX G-VECTOR INDEX FOR 1- AND 2-ELECTRON INTEGRALS  59

 TTTTTTTTTTTTTTTTTTTTTTTTTTTTTT INPUT       TELAPSE        0.43 TCPU        0.43

 NEIGHBORS OF THE NON-EQUIVALENT ATOMS

 N = NUMBER OF NEIGHBORS AT DISTANCE R
    ATOM  N     R/ANG      R/AU   NEIGHBORS (ATOM LABELS AND CELL INDICES)
   1 B    1     1.3787     2.6054   38 O    0 0 0
   1 B    1     1.3795     2.6068   37 O    1 2-3
   1 B    1     1.5517     2.9323   30 C    1 2-3
   1 B    1     2.3868     4.5104    2 B    0 0 0
   1 B    1     2.3912     4.5187    3 B    1 2-3
   1 B    1     2.5629     4.8432   27 C    0 0-1

   2 B    1     1.3792     2.6064   38 O    0 0 0
   2 B    1     1.3798     2.6075   39 O    1 2-3
   2 B    1     1.5510     2.9309   19 C    1 1-1
   2 B    1     2.3868     4.5104    1 B    0 0 0
   2 B    1     2.3894     4.5154    3 B    1 2-3
   2 B    1     2.5618     4.8411   22 C    1 1-1

   3 B    1     1.3790     2.6060   37 O    0 0 0
   3 B    1     1.3795     2.6069   39 O    0 0 0
   3 B    1     1.5529     2.9346   36 C   -1-1 2
   3 B    1     2.3894     4.5154    2 B   -1-2 3
   3 B    1     2.3912     4.5187    1 B   -1-2 3
   3 B    1     2.5679     4.8526   35 C   -1-1 2

   4 B    1     1.3778     2.6037   41 O    0 0 0
   4 B    1     1.3786     2.6051   40 O    0 0 0
   4 B    1     1.5479     2.9251   24 C    0 0 0
   4 B    1     2.3857     4.5084    5 B    0 0 0
   4 B    1     2.3859     4.5087    6 B    0 0 0
   4 B    1     2.5585     4.8348   21 C    0 0 0

   5 B    1     1.3778     2.6037   41 O    0 0 0
   5 B    1     1.3813     2.6104   42 O    0 0 0
   5 B    1     1.5523     2.9335   31 C    0 0 0
   5 B    1     2.3857     4.5084    4 B    0 0 0
   5 B    1     2.3952     4.5263    6 B    0 0 0
   5 B    1     2.5590     4.8358   32 C    0 0 0

   6 B    1     1.3783     2.6045   40 O    0 0 0
   6 B    1     1.3812     2.6101   42 O    0 0 0
   6 B    1     1.5546     2.9377   25 C    0 0 0
   6 B    1     2.3859     4.5087    4 B    0 0 0
   6 B    1     2.3952     4.5263    5 B    0 0 0
   6 B    1     2.5605     4.8386   26 C    0 0 0

   7 H    1     1.0917     2.0629   20 C    0 0 0
   7 H    1     2.1461     4.0556   19 C    0 0 0
   7 H    1     2.1712     4.1029   23 C    0 0 0
   7 H    1     2.5280     4.7772   10 H    0 0 0
   7 H    1     2.5583     4.8346   38 O   -1-1 1
   7 H    1     2.7310     5.1608    2 B   -1-1 1

   8 H    1     1.0909     2.0615   21 C    0 0 0
   8 H    1     2.1454     4.0542   24 C    0 0 0
   8 H    1     2.1688     4.0985   22 C    0 0 0
   8 H    1     2.5272     4.7758    9 H    0 1-1
   8 H    1     2.5562     4.8305   40 O    0 0 0
   8 H    1     2.7243     5.1481    4 B    0 0 0

   9 H    1     1.0908     2.0614   22 C    0-1 1
   9 H    1     2.1442     4.0520   19 C    0-1 1
   9 H    1     2.1694     4.0995   21 C    0-1 1
   9 H    1     2.5272     4.7758    8 H    0-1 1
   9 H    1     2.5616     4.8406   39 O    0 0-1
   9 H    1     2.7248     5.1492    2 B   -1-2 2

  10 H    1     1.0912     2.0621   23 C    0 0 0
  10 H    1     2.1469     4.0570   24 C    0 0 0
  10 H    1     2.1689     4.0986   20 C    0 0 0
  10 H    1     2.5280     4.7772    7 H    0 0 0
  10 H    1     2.5562     4.8305   41 O    0 0 0
  10 H    1     2.7309     5.1607    4 B    0 0 0

  11 H    1     1.0911     2.0619   26 C    0 0 0
  11 H    1     2.1443     4.0521   25 C    0 0 0
  11 H    1     2.1684     4.0978   29 C    0 0 1
  11 H    1     2.5223     4.7664   14 H    0 0 1
  11 H    1     2.5622     4.8419   42 O    0 0 0
  11 H    1     2.7179     5.1361    6 B    0 0 0

  12 H    1     1.0917     2.0630   27 C    0-1 1
  12 H    1     2.1441     4.0518   30 C    1 1-1
  12 H    1     2.1716     4.1037   28 C    0-1 1
  12 H    1     2.5226     4.7669   13 H    0-1 1
  12 H    1     2.5541     4.8265   37 O    1 1-1
  12 H    1     2.7237     5.1470    1 B    0-1 2

  13 H    1     1.0919     2.0633   28 C    0 0 0
  13 H    1     2.1522     4.0671   25 C    0 0 0
  13 H    1     2.1668     4.0946   27 C    0 0 0
  13 H    1     2.5226     4.7669   12 H    0 1-1
  13 H    1     2.5923     4.8987   40 O    0 0 0
  13 H    1     2.7583     5.2123    6 B    0 0 0

  14 H    1     1.0915     2.0627   29 C    0 0 0
  14 H    1     2.1483     4.0597   30 C    1 2-3
  14 H    1     2.1679     4.0968   26 C    0 0-1
  14 H    1     2.5223     4.7664   11 H    0 0-1
  14 H    1     2.5809     4.8771   38 O    0 0 0
  14 H    1     2.7404     5.1785    1 B    0 0 0

  15 H    1     1.0916     2.0628   32 C    0 0 0
  15 H    1     2.1436     4.0508   31 C    0 0 0
  15 H    1     2.1707     4.1021   35 C    0 0 0
  15 H    1     2.5217     4.7654   18 H    1 1-1
  15 H    1     2.5567     4.8315   42 O    0 0 0
  15 H    1     2.7165     5.1334    5 B    0 0 0

  16 H    1     1.0914     2.0624   33 C    0 0 0
  16 H    1     2.1488     4.0606   36 C    0 0 0
  16 H    1     2.1663     4.0937   34 C    0 0 0
  16 H    1     2.5170     4.7564   17 H    0 0 0
  16 H    1     2.5780     4.8716   37 O    1 1-2
  16 H    1     2.7395     5.1770    3 B    1 1-2

  17 H    1     1.0921     2.0638   34 C    0 0 0
  17 H    1     2.1502     4.0633   31 C    0 0 0
  17 H    1     2.1683     4.0976   33 C    0 0 0
  17 H    1     2.5170     4.7564   16 H    0 0 0
  17 H    1     2.5870     4.8888   41 O    0 0 0
  17 H    1     2.7510     5.1986    5 B    0 0 0

  18 H    1     1.0913     2.0622   35 C   -1-1 1
  18 H    1     2.1495     4.0619   36 C   -1-1 1
  18 H    1     2.1656     4.0923   32 C   -1-1 1
  18 H    1     2.5217     4.7654   15 H   -1-1 1
  18 H    1     2.5789     4.8734   39 O    0 0-1
  18 H    1     2.7392     5.1763    3 B    0 0-1

  19 C    1     1.4017     2.6489   22 C    0 0 0
  19 C    1     1.4025     2.6504   20 C    0 0 0
  19 C    1     1.5510     2.9309    2 B   -1-1 1
  19 C    1     2.1442     4.0520    9 H    0 1-1
  19 C    1     2.1461     4.0556    7 H    0 0 0
  19 C    1     2.4236     4.5800   21 C    0 0 0

  20 C    1     1.0917     2.0629    7 H    0 0 0
  20 C    1     1.3915     2.6296   23 C    0 0 0
  20 C    1     1.4025     2.6504   19 C    0 0 0
  20 C    1     2.1689     4.0986   10 H    0 0 0
  20 C    1     2.4191     4.5715   22 C    0 0 0
  20 C    1     2.4241     4.5809   24 C    0 0 0

  21 C    1     1.0909     2.0615    8 H    0 0 0
  21 C    1     1.3909     2.6284   22 C    0 0 0
  21 C    1     1.4014     2.6483   24 C    0 0 0
  21 C    1     2.1694     4.0995    9 H    0 1-1
  21 C    1     2.4189     4.5710   23 C    0 0 0
  21 C    1     2.4236     4.5800   19 C    0 0 0

  22 C    1     1.0908     2.0614    9 H    0 1-1
  22 C    1     1.3909     2.6284   21 C    0 0 0
  22 C    1     1.4017     2.6489   19 C    0 0 0
  22 C    1     2.1688     4.0985    8 H    0 0 0
  22 C    1     2.4191     4.5715   20 C    0 0 0
  22 C    1     2.4226     4.5780   24 C    0 0 0

  23 C    1     1.0912     2.0621   10 H    0 0 0
  23 C    1     1.3915     2.6296   20 C    0 0 0
  23 C    1     1.4021     2.6496   24 C    0 0 0
  23 C    1     2.1712     4.1029    7 H    0 0 0
  23 C    1     2.4189     4.5710   21 C    0 0 0
  23 C    1     2.4237     4.5802   19 C    0 0 0

  24 C    1     1.4014     2.6483   21 C    0 0 0
  24 C    1     1.4021     2.6496   23 C    0 0 0
  24 C    1     1.5479     2.9251    4 B    0 0 0
  24 C    1     2.1454     4.0542    8 H    0 0 0
  24 C    1     2.1469     4.0570   10 H    0 0 0
  24 C    1     2.4226     4.5780   22 C    0 0 0

  25 C    1     1.4025     2.6504   26 C    0 0 0
  25 C    1     1.4037     2.6526   28 C    0 0 0
  25 C    1     1.5546     2.9377    6 B    0 0 0
  25 C    1     2.1443     4.0521   11 H    0 0 0
  25 C    1     2.1522     4.0671   13 H    0 0 0
  25 C    1     2.4271     4.5865   27 C    0 0 0

  26 C    1     1.0911     2.0619   11 H    0 0 0
  26 C    1     1.3916     2.6298   29 C    0 0 1
  26 C    1     1.4025     2.6504   25 C    0 0 0
  26 C    1     2.1679     4.0968   14 H    0 0 1
  26 C    1     2.4165     4.5665   28 C    0 0 0
  26 C    1     2.4246     4.5819   30 C    1 2-2

  27 C    1     1.0917     2.0630   12 H    0 1-1
  27 C    1     1.3928     2.6320   28 C    0 0 0
  27 C    1     1.4024     2.6502   30 C    1 2-2
  27 C    1     2.1668     4.0946   13 H    0 0 0
  27 C    1     2.4166     4.5668   29 C    0 0 1
  27 C    1     2.4271     4.5865   25 C    0 0 0

  28 C    1     1.0919     2.0633   13 H    0 0 0
  28 C    1     1.3928     2.6320   27 C    0 0 0
  28 C    1     1.4037     2.6526   25 C    0 0 0
  28 C    1     2.1716     4.1037   12 H    0 1-1
  28 C    1     2.4165     4.5665   26 C    0 0 0
  28 C    1     2.4277     4.5877   30 C    1 2-2

  29 C    1     1.0915     2.0627   14 H    0 0 0
  29 C    1     1.3916     2.6298   26 C    0 0-1
  29 C    1     1.4023     2.6499   30 C    1 2-3
  29 C    1     2.1684     4.0978   11 H    0 0-1
  29 C    1     2.4166     4.5668   27 C    0 0-1
  29 C    1     2.4281     4.5884   25 C    0 0-1

  30 C    1     1.4023     2.6499   29 C   -1-2 3
  30 C    1     1.4024     2.6502   27 C   -1-2 2
  30 C    1     1.5517     2.9323    1 B   -1-2 3
  30 C    1     2.1441     4.0518   12 H   -1-1 1
  30 C    1     2.1483     4.0597   14 H   -1-2 3
  30 C    1     2.4246     4.5819   26 C   -1-2 2

  31 C    1     1.4022     2.6498   32 C    0 0 0
  31 C    1     1.4030     2.6513   34 C    0 0 0
  31 C    1     1.5523     2.9335    5 B    0 0 0
  31 C    1     2.1436     4.0508   15 H    0 0 0
  31 C    1     2.1502     4.0633   17 H    0 0 0
  31 C    1     2.4264     4.5853   33 C    0 0 0

  32 C    1     1.0916     2.0628   15 H    0 0 0
  32 C    1     1.3918     2.6301   35 C    0 0 0
  32 C    1     1.4022     2.6498   31 C    0 0 0
  32 C    1     2.1656     4.0923   18 H    1 1-1
  32 C    1     2.4163     4.5661   34 C    0 0 0
  32 C    1     2.4270     4.5863   36 C    0 0 0

  33 C    1     1.0914     2.0624   16 H    0 0 0
  33 C    1     1.3927     2.6318   34 C    0 0 0
  33 C    1     1.4029     2.6510   36 C    0 0 0
  33 C    1     2.1683     4.0976   17 H    0 0 0
  33 C    1     2.4155     4.5646   35 C    0 0 0
  33 C    1     2.4264     4.5853   31 C    0 0 0

  34 C    1     1.0921     2.0638   17 H    0 0 0
  34 C    1     1.3927     2.6318   33 C    0 0 0
  34 C    1     1.4030     2.6513   31 C    0 0 0
  34 C    1     2.1663     4.0937   16 H    0 0 0
  34 C    1     2.4163     4.5661   32 C    0 0 0
  34 C    1     2.4289     4.5899   36 C    0 0 0

  35 C    1     1.0913     2.0622   18 H    1 1-1
  35 C    1     1.3918     2.6301   32 C    0 0 0
  35 C    1     1.4029     2.6511   36 C    0 0 0
  35 C    1     2.1707     4.1021   15 H    0 0 0
  35 C    1     2.4155     4.5646   33 C    0 0 0
  35 C    1     2.4269     4.5861   31 C    0 0 0

  36 C    1     1.4029     2.6510   33 C    0 0 0
  36 C    1     1.4029     2.6511   35 C    0 0 0
  36 C    1     1.5529     2.9346    3 B    1 1-2
  36 C    1     2.1488     4.0606   16 H    0 0 0
  36 C    1     2.1495     4.0619   18 H    1 1-1
  36 C    1     2.4270     4.5863   32 C    0 0 0

  37 O    1     1.3790     2.6060    3 B    0 0 0
  37 O    1     1.3795     2.6068    1 B   -1-2 3
  37 O    1     2.3868     4.5105   39 O    0 0 0
  37 O    1     2.3885     4.5136   38 O   -1-2 3
  37 O    1     2.5389     4.7979   30 C    0 0 0
  37 O    1     2.5412     4.8022   36 C   -1-1 2

  38 O    1     1.3787     2.6054    1 B    0 0 0
  38 O    1     1.3792     2.6064    2 B    0 0 0
  38 O    1     2.3885     4.5136   37 O    1 2-3
  38 O    1     2.3912     4.5187   39 O    1 2-3
  38 O    1     2.5351     4.7906   19 C    1 1-1
  38 O    1     2.5405     4.8008   30 C    1 2-3

  39 O    1     1.3795     2.6069    3 B    0 0 0
  39 O    1     1.3798     2.6075    2 B   -1-2 3
  39 O    1     2.3868     4.5105   37 O    0 0 0
  39 O    1     2.3912     4.5187   38 O   -1-2 3
  39 O    1     2.5416     4.8030   19 C    0-1 2
  39 O    1     2.5427     4.8050   36 C   -1-1 2

  40 O    1     1.3783     2.6045    6 B    0 0 0
  40 O    1     1.3786     2.6051    4 B    0 0 0
  40 O    1     2.3876     4.5119   42 O    0 0 0
  40 O    1     2.3913     4.5190   41 O    0 0 0
  40 O    1     2.5354     4.7912   25 C    0 0 0
  40 O    1     2.5360     4.7923   24 C    0 0 0

  41 O    1     1.3778     2.6037    4 B    0 0 0
  41 O    1     1.3778     2.6037    5 B    0 0 0
  41 O    1     2.3870     4.5107   42 O    0 0 0
  41 O    1     2.3913     4.5190   40 O    0 0 0
  41 O    1     2.5305     4.7819   24 C    0 0 0
  41 O    1     2.5354     4.7911   31 C    0 0 0

  42 O    1     1.3812     2.6101    6 B    0 0 0
  42 O    1     1.3813     2.6104    5 B    0 0 0
  42 O    1     2.3870     4.5107   41 O    0 0 0
  42 O    1     2.3876     4.5119   40 O    0 0 0
  42 O    1     2.5481     4.8152   31 C    0 0 0
  42 O    1     2.5522     4.8230   25 C    0 0 0


 SYMMETRY ALLOWED INTERNAL DEGREE(S) OF FREEDOM: 123
 TTTTTTTTTTTTTTTTTTTTTTTTTTTTTT SYMM        TELAPSE        0.44 TCPU        0.43
 TTTTTTTTTTTTTTTTTTTTTTTTTTTTTT INT_SCREEN  TELAPSE        0.47 TCPU        0.47

 DFT PARAMETERS

     ATOM       ELECTRONS   NET CHARGE   R(ANGSTROM)
   1   5  B       5.0000      0.0000     0.89000000
   7   1  H       1.0000      0.0000     1.11000000
  19   6  C       6.0000      0.0000     0.77000000
  37   8  O       8.0000      0.0000     0.74000000

 SIZE OF GRID=    1293773
 TTTTTTTTTTTTTTTTTTTTTTTTTTTTTT MAKE_GRID2  TELAPSE        9.56 TCPU        9.55
 BECKE WEIGHT FUNCTION
 RADSAFE =     2.00
 TOLERANCES - DENSITY:10**- 6; POTENTIAL:10**- 9; GRID WGT:10**-14

 RADIAL INTEGRATION  - INTERVALS (POINTS,UPPER LIMIT):            1( 75,  4.0*R)

 ANGULAR INTEGRATION - INTERVALS (ACCURACY LEVEL [N. POINTS] UPPER LIMIT):
  1(  4[  86]   0.2)  2(  8[ 194]   0.5)  3( 12[ 350]   0.9)  4( 16[ 974]   3.5)
  5( 12[ 350]9999.0)
 TTTTTTTTTTTTTTTTTTTTTTTTTTTTTT INT_CALC    TELAPSE        9.64 TCPU        9.63
 EEEEEEEEEE INT_CALC TERMINATION  DATE 02 12 2025 TIME 08:00:07.5

 *******************************************************************************
 COF-5_z35_inc_L075                                                              
 CRYSTAL - SCF - TYPE OF CALCULATION :  RESTRICTED CLOSED SHELL
 *******************************************************************************

 CAPPA:IS1  2;IS2  2;IS3  8; K PTS MONK NET  20; SYMMOPS:K SPACE   2;G SPACE   1

 TTTTTTTTTTTTTTTTTTTTTTTTTTTTTT SDIK        TELAPSE       10.24 TCPU       17.98

 AAAAAAAAAAAAAAAAAAAAAAAAAAAAAAAAAAAAAAAAAAAAAAAAAAAAAAAAAAAAAAAAAAAAAAAAAAAAAAA
         ATOMIC WAVEFUNCTION(S)


 NUCLEAR CHARGE  5.0  SYMMETRY SPECIES            S    P
 N. ELECTRONS    5.0  NUMBER OF PRIMITIVE GTOS    8    4
                      NUMBER OF CONTRACTED GTOS   4    2
                      NUMBER OF CLOSED SHELLS     2    0
                      OPEN SHELL OCCUPATION       0    1

  ZNUC  SCFIT    TOTAL HF ENERGY   KINETIC ENERGY   VIRIAL THEOREM ACCURACY
   5.0    11    -2.451164084E+01  2.462155050E+01 -1.995536038E+00  1.5E-06

 NUCLEAR CHARGE  1.0  SYMMETRY SPECIES            S
 N. ELECTRONS    1.0  NUMBER OF PRIMITIVE GTOS    4
                      NUMBER OF CONTRACTED GTOS   2
                      NUMBER OF CLOSED SHELLS     0
                      OPEN SHELL OCCUPATION       1

  ZNUC  SCFIT    TOTAL HF ENERGY   KINETIC ENERGY   VIRIAL THEOREM ACCURACY
   1.0     1    -4.977266687E-01  5.190767460E-01 -1.958869132E+00  0.0E+00

 NUCLEAR CHARGE  6.0  SYMMETRY SPECIES            S    P
 N. ELECTRONS    6.0  NUMBER OF PRIMITIVE GTOS    8    4
                      NUMBER OF CONTRACTED GTOS   4    2
                      NUMBER OF CLOSED SHELLS     2    0
                      OPEN SHELL OCCUPATION       0    2

  ZNUC  SCFIT    TOTAL HF ENERGY   KINETIC ENERGY   VIRIAL THEOREM ACCURACY
   6.0     9    -3.766704647E+01  3.775180683E+01 -1.997754800E+00  1.1E-06

 NUCLEAR CHARGE  8.0  SYMMETRY SPECIES            S    P
 N. ELECTRONS    8.0  NUMBER OF PRIMITIVE GTOS    8    4
                      NUMBER OF CONTRACTED GTOS   4    2
                      NUMBER OF CLOSED SHELLS     2    0
                      OPEN SHELL OCCUPATION       0    4

  ZNUC  SCFIT    TOTAL HF ENERGY   KINETIC ENERGY   VIRIAL THEOREM ACCURACY
   8.0    12    -7.477373220E+01  7.477365593E+01 -2.000001020E+00  3.8E-06

 AAAAAAAAAAAAAAAAAAAAAAAAAAAAAAAAAAAAAAAAAAAAAAAAAAAAAAAAAAAAAAAAAAAAAAAAAAAAAAA

 CHARGE NORMALIZATION FACTOR   1.00000000
 TOTAL ATOMIC CHARGES:
   5.0000000   5.0000000   5.0000000   5.0000000   5.0000000   5.0000000
   1.0000000   1.0000000   1.0000000   1.0000000   1.0000000   1.0000000
   1.0000000   1.0000000   1.0000000   1.0000000   1.0000000   1.0000000
   6.0000000   6.0000000   6.0000000   6.0000000   6.0000000   6.0000000
   6.0000000   6.0000000   6.0000000   6.0000000   6.0000000   6.0000000
   6.0000000   6.0000000   6.0000000   6.0000000   6.0000000   6.0000000
   8.0000000   8.0000000   8.0000000   8.0000000   8.0000000   8.0000000
 TTTTTTTTTTTTTTTTTTTTTTTTTTTTTT MOQGAD      TELAPSE       10.28 TCPU       19.49
 TTTTTTTTTTTTTTTTTTTTTTTTTTTTTT SHELLXN     TELAPSE       18.09 TCPU      268.88
 TTTTTTTTTTTTTTTTTTTTTTTTTTTTTT MONMO3      TELAPSE       18.24 TCPU      273.82
 NUMERICALLY INTEGRATED DENSITY    197.9999706146
 TTTTTTTTTTTTTTTTTTTTTTTTTTTTTT NUMDFT      TELAPSE       18.93 TCPU      295.92
 CYC   0 ETOT(AU) -1.295956185118E+03 DETOT -1.30E+03 tst  0.00E+00 PX  1.00E+00
 TTTTTTTTTTTTTTTTTTTTTTTTTTTTTT DIIS        TELAPSE       18.97 TCPU      297.26
 TTTTTTTTTTTTTTTTTTTTTTTTTTTTTT FDIK        TELAPSE       19.52 TCPU      314.49
 INSULATING STATE
 TOP OF VALENCE BANDS -    BAND     99; K    1; EIG -3.0729986E-01 AU
 BOTTOM OF VIRTUAL BANDS - BAND    100; K    1; EIG -1.6025489E-01 AU
 DIRECT ENERGY BAND GAP:   4.0013 eV
 TTTTTTTTTTTTTTTTTTTTTTTTTTTTTT PDIG        TELAPSE       19.87 TCPU      320.69
 CHARGE NORMALIZATION FACTOR   1.00000000
 TOTAL ATOMIC CHARGES:
   4.1429950   4.1571044   4.1582815   4.1599183   4.1574330   4.1411624
   0.7854185   0.7853837   0.7855844   0.7856280   0.7857571   0.7856497
   0.7866397   0.7861995   0.7851434   0.7857234   0.7858153   0.7860464
   6.0436778   6.2666942   6.2667170   6.2665747   6.2652858   6.0460298
   6.0444476   6.2679008   6.2660037   6.2687066   6.2684037   6.0477767
   6.0429362   6.2666597   6.2676168   6.2660828   6.2676976   6.0403898
   8.6976636   8.6969112   8.6979284   8.6965547   8.6965092   8.6989480
 TTTTTTTTTTTTTTTTTTTTTTTTTTTTTT MOQGAD      TELAPSE       19.91 TCPU      320.74
 TTTTTTTTTTTTTTTTTTTTTTTTTTTTTT SHELLXN     TELAPSE       28.12 TCPU      582.56
 TTTTTTTTTTTTTTTTTTTTTTTTTTTTTT MONMO3      TELAPSE       28.27 TCPU      587.48
 NUMERICALLY INTEGRATED DENSITY    197.9999832377
 TTTTTTTTTTTTTTTTTTTTTTTTTTTTTT NUMDFT      TELAPSE       28.98 TCPU      609.92
 CYC   1 ETOT(AU) -1.288818046294E+03 DETOT  7.14E+00 tst  0.00E+00 PX  1.00E+00
 TTTTTTTTTTTTTTTTTTTTTTTTTTTTTT DIIS        TELAPSE       29.03 TCPU      611.67
 DIIS TEST: 0.11131E+01 AT SCF   CYCLE   1 - MIX   30 %
 TTTTTTTTTTTTTTTTTTTTTTTTTTTTTT FDIK        TELAPSE       29.56 TCPU      628.48
 INSULATING STATE
 TOP OF VALENCE BANDS -    BAND     99; K    1; EIG -2.1782344E-01 AU
 BOTTOM OF VIRTUAL BANDS - BAND    100; K    1; EIG -8.7015120E-02 AU
 DIRECT ENERGY BAND GAP:   3.5595 eV
 TTTTTTTTTTTTTTTTTTTTTTTTTTTTTT PDIG        TELAPSE       29.90 TCPU      634.68
 CHARGE NORMALIZATION FACTOR   1.00000000
 TOTAL ATOMIC CHARGES:
   4.7086414   4.7014005   4.7012609   4.7022177   4.7010023   4.7086589
   0.9063059   0.9067849   0.9072857   0.9071852   0.9042588   0.9038969
   0.9045266   0.9048416   0.9060649   0.9063079   0.9071376   0.9071514
   5.8715693   6.1467184   6.1452427   6.1299233   6.1309610   5.8671815
   5.8972923   6.1241742   6.1253663   6.1300389   6.1265260   5.8905255
   5.8719071   6.1420815   6.1445445   6.1315760   6.1294050   5.8740084
   8.3409152   8.3398803   8.3322208   8.3391727   8.3288267   8.3450134
 TTTTTTTTTTTTTTTTTTTTTTTTTTTTTT MOQGAD      TELAPSE       29.95 TCPU      634.73
 TTTTTTTTTTTTTTTTTTTTTTTTTTTTTT SHELLXN     TELAPSE       38.20 TCPU      897.80
 TTTTTTTTTTTTTTTTTTTTTTTTTTTTTT MONMO3      TELAPSE       38.35 TCPU      902.58
 NUMERICALLY INTEGRATED DENSITY    197.9999801214
 TTTTTTTTTTTTTTTTTTTTTTTTTTTTTT NUMDFT      TELAPSE       39.06 TCPU      925.21
 CYC   2 ETOT(AU) -1.289010975238E+03 DETOT -1.93E-01 tst  3.37E-03 PX  1.60E-01
 TTTTTTTTTTTTTTTTTTTTTTTTTTTTTT DIIS        TELAPSE       39.12 TCPU      927.00
 DIIS TEST: 0.46564E+00 AT SCF   CYCLE   2 - DIIS ACTIVE - HISTORY:     2 CYCLES
 TTTTTTTTTTTTTTTTTTTTTTTTTTTTTT FDIK        TELAPSE       39.64 TCPU      943.81
 INSULATING STATE
 TOP OF VALENCE BANDS -    BAND     99; K    1; EIG -2.3130926E-01 AU
 BOTTOM OF VIRTUAL BANDS - BAND    100; K    1; EIG -8.0846780E-02 AU
 DIRECT ENERGY BAND GAP:   4.0943 eV
 TTTTTTTTTTTTTTTTTTTTTTTTTTTTTT PDIG        TELAPSE       39.99 TCPU      950.00
 CHARGE NORMALIZATION FACTOR   1.00000000
 TOTAL ATOMIC CHARGES:
   4.4927644   4.4944791   4.4946848   4.4966635   4.4947314   4.4913401
   0.8858047   0.8856502   0.8864068   0.8863519   0.8823872   0.8821155
   0.8835061   0.8829419   0.8846339   0.8856043   0.8864932   0.8861830
   5.8906885   6.1641028   6.1647272   6.1632082   6.1634177   5.8927552
   5.8904476   6.1643404   6.1654761   6.1671816   6.1679385   5.8932738
   5.8921708   6.1637819   6.1644922   6.1646088   6.1644862   5.8910538
   8.5139607   8.5132247   8.5176733   8.5124889   8.5159188   8.5158405
 TTTTTTTTTTTTTTTTTTTTTTTTTTTTTT MOQGAD      TELAPSE       40.03 TCPU      950.04
 TTTTTTTTTTTTTTTTTTTTTTTTTTTTTT SHELLXN     TELAPSE       48.08 TCPU     1206.44
 TTTTTTTTTTTTTTTTTTTTTTTTTTTTTT MONMO3      TELAPSE       48.22 TCPU     1211.01
 NUMERICALLY INTEGRATED DENSITY    197.9999800392
 TTTTTTTTTTTTTTTTTTTTTTTTTTTTTT NUMDFT      TELAPSE       48.91 TCPU     1233.14
 CYC   3 ETOT(AU) -1.289106595336E+03 DETOT -9.56E-02 tst  6.82E-04 PX  6.54E-02
 TTTTTTTTTTTTTTTTTTTTTTTTTTTTTT DIIS        TELAPSE       48.98 TCPU     1235.20
 DIIS TEST: 0.13537E-01 AT SCF   CYCLE   3 - DIIS ACTIVE - HISTORY:     3 CYCLES
 TTTTTTTTTTTTTTTTTTTTTTTTTTTTTT FDIK        TELAPSE       49.56 TCPU     1253.83
 INSULATING STATE
 TOP OF VALENCE BANDS -    BAND     99; K    1; EIG -2.4028988E-01 AU
 BOTTOM OF VIRTUAL BANDS - BAND    100; K    1; EIG -8.9385653E-02 AU
 DIRECT ENERGY BAND GAP:   4.1063 eV
 TTTTTTTTTTTTTTTTTTTTTTTTTTTTTT PDIG        TELAPSE       49.90 TCPU     1260.01
 CHARGE NORMALIZATION FACTOR   1.00000000
 TOTAL ATOMIC CHARGES:
   4.4992929   4.4997084   4.4998096   4.5012712   4.4991772   4.4981848
   0.8684120   0.8688221   0.8697905   0.8699429   0.8665376   0.8665612
   0.8674923   0.8676243   0.8679366   0.8685262   0.8701577   0.8699259
   5.9420222   6.1754090   6.1739310   6.1648677   6.1641957   5.9388169
   5.9575295   6.1633969   6.1623249   6.1664361   6.1634197   5.9524438
   5.9407976   6.1729217   6.1745396   6.1650237   6.1647078   5.9417604
   8.4854192   8.4844637   8.4783277   8.4840622   8.4754721   8.4885374
 TTTTTTTTTTTTTTTTTTTTTTTTTTTTTT MOQGAD      TELAPSE       49.95 TCPU     1260.06
 TTTTTTTTTTTTTTTTTTTTTTTTTTTTTT SHELLXN     TELAPSE       58.09 TCPU     1519.68
 TTTTTTTTTTTTTTTTTTTTTTTTTTTTTT MONMO3      TELAPSE       58.23 TCPU     1524.21
 NUMERICALLY INTEGRATED DENSITY    197.9999804869
 TTTTTTTTTTTTTTTTTTTTTTTTTTTTTT NUMDFT      TELAPSE       58.91 TCPU     1545.84
 CYC   4 ETOT(AU) -1.289109430673E+03 DETOT -2.84E-03 tst  3.83E-05 PX  1.44E-02
 TTTTTTTTTTTTTTTTTTTTTTTTTTTTTT DIIS        TELAPSE       58.98 TCPU     1548.07
 DIIS TEST: 0.38539E-02 AT SCF   CYCLE   4 - DIIS ACTIVE - HISTORY:     4 CYCLES
 TTTTTTTTTTTTTTTTTTTTTTTTTTTTTT FDIK        TELAPSE       59.56 TCPU     1566.63
 INSULATING STATE
 TOP OF VALENCE BANDS -    BAND     99; K    1; EIG -2.3884700E-01 AU
 BOTTOM OF VIRTUAL BANDS - BAND    100; K    1; EIG -8.9215445E-02 AU
 DIRECT ENERGY BAND GAP:   4.0717 eV
 TTTTTTTTTTTTTTTTTTTTTTTTTTTTTT PDIG        TELAPSE       59.90 TCPU     1572.83
 CHARGE NORMALIZATION FACTOR   1.00000000
 TOTAL ATOMIC CHARGES:
   4.5033881   4.5018510   4.5019817   4.5037097   4.5017729   4.5022649
   0.8716392   0.8716229   0.8724808   0.8723950   0.8688874   0.8685542
   0.8698595   0.8694508   0.8707796   0.8715948   0.8726086   0.8724330
   5.9212283   6.1731938   6.1734260   6.1667801   6.1671525   5.9222213
   5.9298956   6.1657893   6.1669614   6.1688955   6.1688298   5.9309074
   5.9226497   6.1720127   6.1730070   6.1680368   6.1673902   5.9218661
   8.4926839   8.4918264   8.4919068   8.4911145   8.4899787   8.4949722
 TTTTTTTTTTTTTTTTTTTTTTTTTTTTTT MOQGAD      TELAPSE       59.95 TCPU     1572.88
 TTTTTTTTTTTTTTTTTTTTTTTTTTTTTT SHELLXN     TELAPSE       68.17 TCPU     1835.35
 TTTTTTTTTTTTTTTTTTTTTTTTTTTTTT MONMO3      TELAPSE       68.32 TCPU     1839.97
 NUMERICALLY INTEGRATED DENSITY    197.9999804519
 TTTTTTTTTTTTTTTTTTTTTTTTTTTTTT NUMDFT      TELAPSE       69.03 TCPU     1862.50
 CYC   5 ETOT(AU) -1.289110312612E+03 DETOT -8.82E-04 tst  7.02E-06 PX  7.29E-03
 TTTTTTTTTTTTTTTTTTTTTTTTTTTTTT DIIS        TELAPSE       69.10 TCPU     1864.97
 DIIS TEST: 0.81149E-04 AT SCF   CYCLE   5 - DIIS ACTIVE - HISTORY:     5 CYCLES
 TTTTTTTTTTTTTTTTTTTTTTTTTTTTTT FDIK        TELAPSE       69.61 TCPU     1881.18
 INSULATING STATE
 TOP OF VALENCE BANDS -    BAND     99; K    1; EIG -2.3867187E-01 AU
 BOTTOM OF VIRTUAL BANDS - BAND    100; K    1; EIG -8.8625012E-02 AU
 DIRECT ENERGY BAND GAP:   4.0830 eV
 TTTTTTTTTTTTTTTTTTTTTTTTTTTTTT PDIG        TELAPSE       69.95 TCPU     1887.38
 CHARGE NORMALIZATION FACTOR   1.00000000
 TOTAL ATOMIC CHARGES:
   4.5019516   4.5020098   4.5021405   4.5037163   4.5017468   4.5007977
   0.8723274   0.8726350   0.8732549   0.8733928   0.8697247   0.8697433
   0.8706710   0.8706827   0.8717097   0.8723625   0.8735692   0.8732667
   5.9232580   6.1737257   6.1725707   6.1664879   6.1657169   5.9207980
   5.9324822   6.1662010   6.1651936   6.1692768   6.1668877   5.9287225
   5.9221251   6.1716795   6.1730973   6.1667456   6.1667865   5.9230224
   8.4930956   8.4922565   8.4895647   8.4918122   8.4867988   8.4959922
 TTTTTTTTTTTTTTTTTTTTTTTTTTTTTT MOQGAD      TELAPSE       69.99 TCPU     1887.42
 TTTTTTTTTTTTTTTTTTTTTTTTTTTTTT SHELLXN     TELAPSE       77.51 TCPU     2127.17
 TTTTTTTTTTTTTTTTTTTTTTTTTTTTTT MONMO3      TELAPSE       77.65 TCPU     2131.67
 NUMERICALLY INTEGRATED DENSITY    197.9999804260
 TTTTTTTTTTTTTTTTTTTTTTTTTTTTTT NUMDFT      TELAPSE       78.32 TCPU     2152.94
 CYC   6 ETOT(AU) -1.289110331169E+03 DETOT -1.86E-05 tst  2.26E-07 PX  1.59E-03
 TTTTTTTTTTTTTTTTTTTTTTTTTTTTTT DIIS        TELAPSE       78.39 TCPU     2155.29
 DIIS TEST: 0.20399E-04 AT SCF   CYCLE   6 - DIIS ACTIVE - HISTORY:     6 CYCLES
 TTTTTTTTTTTTTTTTTTTTTTTTTTTTTT FDIK        TELAPSE       78.89 TCPU     2171.10
 INSULATING STATE
 TOP OF VALENCE BANDS -    BAND     99; K    1; EIG -2.3868002E-01 AU
 BOTTOM OF VIRTUAL BANDS - BAND    100; K    1; EIG -8.8711339E-02 AU
 DIRECT ENERGY BAND GAP:   4.0809 eV
 TTTTTTTTTTTTTTTTTTTTTTTTTTTTTT PDIG        TELAPSE       79.22 TCPU     2177.29
 CHARGE NORMALIZATION FACTOR   1.00000000
 TOTAL ATOMIC CHARGES:
   4.5025980   4.5018389   4.5019804   4.5036685   4.5017065   4.5014328
   0.8724450   0.8725076   0.8733552   0.8733097   0.8697797   0.8695203
   0.8707408   0.8704445   0.8716432   0.8724181   0.8735163   0.8733270
   5.9220324   6.1728363   6.1727305   6.1659998   6.1662219   5.9222820
   5.9311534   6.1651458   6.1659022   6.1682695   6.1676178   5.9310255
   5.9229622   6.1714320   6.1725707   6.1671141   6.1664993   5.9224627
   8.4926259   8.4917358   8.4905545   8.4910803   8.4884760   8.4950369
 TTTTTTTTTTTTTTTTTTTTTTTTTTTTTT MOQGAD      TELAPSE       79.27 TCPU     2177.33
 TTTTTTTTTTTTTTTTTTTTTTTTTTTTTT SHELLXN     TELAPSE       86.79 TCPU     2417.10
 TTTTTTTTTTTTTTTTTTTTTTTTTTTTTT MONMO3      TELAPSE       86.93 TCPU     2421.60
 NUMERICALLY INTEGRATED DENSITY    197.9999804285
 TTTTTTTTTTTTTTTTTTTTTTTTTTTTTT NUMDFT      TELAPSE       87.59 TCPU     2442.84
 CYC   7 ETOT(AU) -1.289110335266E+03 DETOT -4.10E-06 tst  8.00E-08 PX  6.35E-04
 TTTTTTTTTTTTTTTTTTTTTTTTTTTTTT DIIS        TELAPSE       87.68 TCPU     2445.52
 DIIS TEST: 0.19740E-05 AT SCF   CYCLE   7 - DIIS ACTIVE - HISTORY:     7 CYCLES
 TTTTTTTTTTTTTTTTTTTTTTTTTTTTTT FDIK        TELAPSE       88.17 TCPU     2461.31
 INSULATING STATE
 TOP OF VALENCE BANDS -    BAND     99; K    1; EIG -2.3868259E-01 AU
 BOTTOM OF VIRTUAL BANDS - BAND    100; K    1; EIG -8.8737219E-02 AU
 DIRECT ENERGY BAND GAP:   4.0802 eV
 TTTTTTTTTTTTTTTTTTTTTTTTTTTTTT PDIG        TELAPSE       88.51 TCPU     2467.51
 CHARGE NORMALIZATION FACTOR   1.00000000
 TOTAL ATOMIC CHARGES:
   4.5026749   4.5019320   4.5020657   4.5037219   4.5017574   4.5015282
   0.8723726   0.8725086   0.8732844   0.8733103   0.8697005   0.8695392
   0.8706659   0.8704585   0.8716242   0.8723662   0.8735079   0.8732659
   5.9224139   6.1730667   6.1726472   6.1661861   6.1659969   5.9217381
   5.9315783   6.1654832   6.1656132   6.1685529   6.1673904   5.9302974
   5.9226145   6.1714814   6.1726689   6.1669412   6.1666384   5.9226402
   8.4926631   8.4918173   8.4905661   8.4912347   8.4882296   8.4952559
 TTTTTTTTTTTTTTTTTTTTTTTTTTTTTT MOQGAD      TELAPSE       88.56 TCPU     2467.56
 TTTTTTTTTTTTTTTTTTTTTTTTTTTTTT SHELLXN     TELAPSE       96.62 TCPU     2724.49
 TTTTTTTTTTTTTTTTTTTTTTTTTTTTTT MONMO3      TELAPSE       96.77 TCPU     2729.31
 NUMERICALLY INTEGRATED DENSITY    197.9999804268
 TTTTTTTTTTTTTTTTTTTTTTTTTTTTTT NUMDFT      TELAPSE       97.48 TCPU     2752.01
 CYC   8 ETOT(AU) -1.289110335597E+03 DETOT -3.31E-07 tst  8.30E-09 PX  1.69E-04
 TTTTTTTTTTTTTTTTTTTTTTTTTTTTTT DIIS        TELAPSE       97.57 TCPU     2755.08
 DIIS TEST: 0.11215E-06 AT SCF   CYCLE   8 - DIIS ACTIVE - HISTORY:     8 CYCLES
 TTTTTTTTTTTTTTTTTTTTTTTTTTTTTT FDIK        TELAPSE       98.13 TCPU     2772.98
 INSULATING STATE
 TOP OF VALENCE BANDS -    BAND     99; K    1; EIG -2.3868583E-01 AU
 BOTTOM OF VIRTUAL BANDS - BAND    100; K    1; EIG -8.8730003E-02 AU
 DIRECT ENERGY BAND GAP:   4.0805 eV
 TTTTTTTTTTTTTTTTTTTTTTTTTTTTTT PDIG        TELAPSE       98.48 TCPU     2779.17
 CHARGE NORMALIZATION FACTOR   1.00000000
 TOTAL ATOMIC CHARGES:
   4.5026170   4.5019427   4.5020759   4.5037358   4.5017715   4.5014647
   0.8723711   0.8724961   0.8732862   0.8732872   0.8697097   0.8695213
   0.8706683   0.8704482   0.8716159   0.8723605   0.8734868   0.8732672
   5.9222820   6.1730692   6.1726971   6.1661337   6.1660967   5.9218488
   5.9313985   6.1654373   6.1657386   6.1685491   6.1674610   5.9303617
   5.9226850   6.1715027   6.1727062   6.1670268   6.1665894   5.9225485
   8.4927434   8.4918707   8.4904185   8.4912686   8.4881624   8.4952780
 TTTTTTTTTTTTTTTTTTTTTTTTTTTTTT MOQGAD      TELAPSE       98.52 TCPU     2779.22
 TTTTTTTTTTTTTTTTTTTTTTTTTTTTTT SHELLXN     TELAPSE      106.76 TCPU     3042.19
 +++ ENERGIES IN A.U. +++
 ::: EXT EL-POLE                                  -1.4855996843931E+03
 ::: EXT EL-SPHEROPOLE                             1.6344909447293E+01
 ::: BIELET ZONE E-E                               2.1219712332988E+03
 ::: TOTAL E-E                                     6.5271645835305E+02
 ::: TOTAL E-N + N-E                              -3.1311736739866E+03
 ::: TOTAL N-N                                     4.3133172835879E+01
 ::: KINETIC ENERGY                                1.2799294812056E+03
 ::: PSEUDO TOTAL   ENERGY                        -1.1553945615921E+03
 ::: VIRIAL COEFFICIENT                            1.0511368990019E+00
 TTTTTTTTTTTTTTTTTTTTTTTTTTTTTT MONMO3      TELAPSE      106.92 TCPU     3047.09
 NUMERICALLY INTEGRATED DENSITY    197.9999804267
 EXCHANGE ENERGY: -0.126022228020E+03  CORRELATION ENERGY: -0.769354602960E+01
 TTTTTTTTTTTTTTTTTTTTTTTTTTTTTT NUMDFT      TELAPSE      107.62 TCPU     3069.53
 CYC   9 ETOT(AU) -1.289110335642E+03 DETOT -4.45E-08 tst  4.98E-10 PX  1.69E-04

 == SCF ENDED - CONVERGENCE ON ENERGY      E(AU) -1.2891103356416E+03 CYCLES   9


 ENERGY EXPRESSION=HARTREE+FOCK EXCH*0.00000+(HSESOL     EXCH)*1.00000+PBESOL     CORR


 TOTAL ENERGY(DFT)(AU)(  9) -1.2891103356416E+03 DE-4.4E-08 tester 5.0E-10
 TTTTTTTTTTTTTTTTTTTTTTTTTTTTTT EDFT        TELAPSE      107.62 TCPU     3069.54
 
 INFORMATION **** DFTD3 ENERGY **** CALCULATE DFTD3 ENERGY

           DFT-D V3(BJ)
 DF                                         hsesol3c  
 parameters
 s6       :    1.0000
 s8       :    0.0000
 a1       :    0.5196
 a2       :    4.9385
 k1 k3    :   16.0000   -4.0000
 Cutoff   :   50.2022
 CN-Cutoff:   21.1671
 ABC-Cutoff:   21.1671
 
 Edisp /kcal,au:   -25.9434 -0.04134339

 E6    /kcal :   -27.4828
 E8    /kcal :     0.0000
 E6(ABC) "   :   1.539412
 
 INFORMATION **** DFTD3 ENERGY **** NORMAL TERMINATION OF DFTD3 MODULE

 GCP ENERGY CALCULATION
  level        hsesol3c            basis:hsesol3c
  Nbf            474
  Atoms           42

  Parameters: 
  sigma     1.0000
  eta       1.4281
  alpha     0.2936
  beta      1.9467

  dmp_scal      4.0000
  dmp_exp       6.0000
 cutoffs: 
   distance [bohr] 60.0
   noise    [a.u.] 2.2E-16
 SR-damping   T
 ** gCP correction **
  Egcp:        0.0832976896 / (a.u.) ||      52.2701 / (kcal/mol)
 INFORMATION **** GCP **** NORMAL TERMINATION OF GCP MODULE

 *******************************************************************************

 DFT-D3-GCP DISPERSION AND COUNTERPOISE CORRECTION

 D3 DISPERSION ENERGY (AU)      -4.1343394498725E-02
 GCP ENERGY (AU)                 8.3297689576018E-02
 TOTAL ENERGY + DISP + GCP (AU) -1.2890683813466E+03

 *******************************************************************************

 EIGENVECTORS IN FORTRAN UNIT 10
 TTTTTTTTTTTTTTTTTTTTTTTTTTTTTT END         TELAPSE      109.53 TCPU     3077.42
 EEEEEEEEEE TERMINATION  DATE 02 12 2025 TIME 08:01:47.4
