 Default number of threads is:           32

         
 *******************************************************************************
 *                                                                             *
 *                               CRYSTAL23                                     *
 *                      public : 1.0.1 - October 2022                          *
 *                       HTTP://WWW.CRYSTAL.UNITO.IT                           *
 *                                                                             *
 *                              MAIN AUTHORS                                   *
 *                                                                             *
 *  R. DOVESI(1,11), V.R. SAUNDERS(2), C. ROETTI(1,11), R. ORLANDO(1,11),      *
 *  C.M. ZICOVICH-WILSON(1,3), F. PASCALE(4), B. CIVALLERI(1,11),              *
 *  K. DOLL(5), N.M. HARRISON(6), I.J. BUSH(7), Ph. D'ARCO(8),                 *
 *  M. LLUNELL(9), M. CAUSA'(10), Y. NOEL(8), L. MASCHIO(1,11), A. ERBA(1,11)  *
 *  M. RE'RAT(14), S. CASASSA(1,11), B.G. SEARLE(2), J.K. DESMARAIS(1)         *
 *                                                                             *
 *        CONTRIBUTIONS TO THE CODE HAVE ALSO BEEN GIVEN BY                    *
 *                                                                             *
 *  M. FERRABONE(1,11), M. DE LA PIERRE(1,11), M. FERRERO(1,11),               *
 *  J. BAIMA(1,11), E. ALBANESE(1,11), M.F. PEINTINGER(12), R. BAST(13),       *
 *  B. KIRTMAN(15), V. LACIVITA(1,11), R. DEMICHELIS(1,16)                     *
 *  G. BRANDEBURG(17), S. SALUSTRO(1,11), G. SANSONE(1,11)                     *
 *  M.T. RUGGIERO(18), L.E. DAGA(1), L. DONA'(1), A. COSSARD(1)                *
 *                                                                             *
 * (1) THEORETICAL CHEMISTRY GROUP - UNIVERSITA' DI TORINO - TORINO (ITALY)    *
 * (2) SCIENTIFIC COMPUTING DEPARTMENT - STFC DARESBURY (UK)                   *
 * (3) UNIVERSIDAD AUTONOMA DEL ESTADO DE MORELOS - CUERNAVACA (MEXICO)        *
 * (4) UNIVERSITE' DE LORRAINE - NANCY (FRANCE)                                *
 * (5) UNIVERSITAET STUTTGART- STUTTGART (GERMANY)                             *
 * (6) IMPERIAL COLLEGE - LONDON (UK)                                          *
 * (7) SCIENTIFIC COMPUTING DEPARTMENT - STFC RAL (UK)                         *
 * (8) UPMC - SORBONNE UNIVERSITES - PARIS (FRANCE)                            *
 * (9) UNIVERSIDAD DE BARCELONA - BARCELONA (SPAIN)                            *
 *(10) UNIVERSITA' DI NAPOLI "FEDERICO II" - NAPOLI (ITALY)                    *
 *(11) NIS - NANOSTRUCTURED INTERFACES AND SURFACES - TORINO (ITALY)           *
 *(12) MPI FUER CHEMISCHE ENERGIEKONVERSION - MUELHEIM AN DER RUHR (GERMANY)   *
 *(13) UNIVERSITY OF TROMSO - TROMSO (NORWAY)                                  *
 *(14) UNIVERSITE' DE PAU ET DES PAYS DE L'ADOUR - PAU (FRANCE)                *
 *(15) UNIVERSITY OF CALIFORNIA SANTA BARBARA - SANTA BARBARA (USA)            *
 *(16) CURTIN UNIVERSITY - PERTH (AUSTRALIA)                                   *
 *(17) UNIVERSITY COLLEGE LONDON - LONDON (UK)                                 *
 *(18) UNIVERSITY OF VERMONT - BURLINGTON (USA)                                *
 *                                                                             *
 *******************************************************************************
 EEEEEEEEEE STARTING  DATE 19 02 2026 TIME 18:12:50.4
 cof-1_z34_L000_incl                                                             

 CRYSTAL CALCULATION
 (INPUT ACCORDING TO THE INTERNATIONAL TABLES FOR X-RAY CRYSTALLOGRAPHY)
 CRYSTAL FAMILY                       :  TRICLINIC   
 CRYSTAL CLASS  (GROTH - 1921)        :  TRICLINIC PEDIAL                     

 SPACE GROUP (NONCENTROSYMMETRIC)     :  P 1             

 LATTICE PARAMETERS  (ANGSTROMS AND DEGREES) - CONVENTIONAL CELL
        A           B           C        ALPHA        BETA       GAMMA
    15.02361    15.02392     3.40000    90.00032    89.99994   119.99596


 NUMBER OF IRREDUCIBLE ATOMS IN THE CONVENTIONAL CELL:   42

 INPUT COORDINATES

 ATOM AT. N.              COORDINATES
   1   5     6.136805400000E-01  2.273182200000E-01  5.014049200000E-01
   2   5     7.727362000000E-01  3.863778800000E-01  5.014049400000E-01
   3   5     6.136762700000E-01  3.863606700000E-01  4.984510500000E-01
   4   5     2.272552500000E-01  6.136332200000E-01  5.014049300000E-01
   5   5     3.863632200000E-01  6.136124500000E-01  5.014049200000E-01
   6   5     3.863435000000E-01  7.727516500000E-01  4.984510600000E-01
   7   1     9.030436200000E-01  3.089300500000E-01  4.952809500000E-01
   8   1     9.663453000000E-02  6.910534400000E-01  4.943444900000E-01
   9   1     9.029714200000E-01  5.940724300000E-01  4.942003600000E-01
  10   1     9.673618000000E-02  4.056849400000E-01  4.942363100000E-01
  11   1     6.910324000000E-01  9.700412000000E-02  5.047191000000E-01
  12   1     3.089297200000E-01  9.034373100000E-01  5.056556200000E-01
  13   1     4.058699900000E-01  9.704998000000E-02  5.057998300000E-01
  14   1     5.943122100000E-01  9.033473200000E-01  5.057636400000E-01
  15   1     6.910727400000E-01  5.940542100000E-01  4.952810000000E-01
  16   1     3.089618300000E-01  4.056093300000E-01  4.943444300000E-01
  17   1     4.058405700000E-01  3.088232500000E-01  4.942002500000E-01
  18   1     5.942908800000E-01  6.909579300000E-01  4.942364200000E-01
  19   6     8.918903100000E-01  4.459436900000E-01  4.983429700000E-01
  20   6     9.464891100000E-01  3.927856300000E-01  4.954250600000E-01
  21   6     5.338812000000E-02  6.071853000000E-01  4.951729900000E-01
  22   6     9.464521100000E-01  5.536921900000E-01  4.959294700000E-01
  23   6     5.342634000000E-02  4.462499700000E-01  4.939841500000E-01
  24   6     1.080358900000E-01  5.540356300000E-01  4.959654600000E-01
  25   6     5.540394200000E-01  1.081684600000E-01  5.016571100000E-01
  26   6     6.071778500000E-01  5.355594000000E-02  5.045749600000E-01
  27   6     3.927986700000E-01  9.466631600000E-01  5.048271200000E-01
  28   6     4.462875800000E-01  5.360286000000E-02  5.040706700000E-01
  29   6     5.537168500000E-01  9.466235600000E-01  5.060158500000E-01
  30   6     4.459279100000E-01  8.919920600000E-01  5.040346100000E-01
  31   6     5.540448700000E-01  4.458745500000E-01  4.983429700000E-01
  32   6     6.072102200000E-01  5.536257800000E-01  4.954251200000E-01
  33   6     3.928233700000E-01  4.461720300000E-01  4.951729300000E-01
  34   6     4.462872600000E-01  3.926899900000E-01  4.959293900000E-01
  35   6     5.537429600000E-01  6.070980000000E-01  4.939842200000E-01
  36   6     4.459599800000E-01  5.539582300000E-01  4.959654600000E-01
  37   8     5.607366800000E-01  2.803706300000E-01  4.992435400000E-01
  38   8     7.196817000000E-01  2.803783300000E-01  5.054755100000E-01
  39   8     7.196794200000E-01  4.393234600000E-01  4.960735500000E-01
  40   8     2.803245100000E-01  7.196511100000E-01  4.992435800000E-01
  41   8     2.803439700000E-01  5.606956100000E-01  5.054755100000E-01
  42   8     4.392638400000E-01  7.196354200000E-01  4.960735300000E-01

 *******************************************************************************

 << INFORMATION >>: FROM NOW ON, ALL COORDINATES REFER TO THE PRIMITIVE CELL

 *******************************************************************************

 LATTICE PARAMETERS  (ANGSTROMS AND DEGREES) - PRIMITIVE CELL
       A          B          C        ALPHA      BETA     GAMMA        VOLUME
   15.02361   15.02392    3.40000    90.00032  89.99994 119.99596    664.637263

 COORDINATES OF THE EQUIVALENT ATOMS (FRACTIONAL UNITS)

 N. ATOM EQUIV AT. N.          X                  Y                  Z

   1   1   1    5 B    -3.86319460000E-01  2.27318220000E-01 -4.98595080000E-01

   2   2   1    5 B    -2.27263800000E-01  3.86377880000E-01 -4.98595060000E-01

   3   3   1    5 B    -3.86323730000E-01  3.86360670000E-01  4.98451050000E-01

   4   4   1    5 B     2.27255250000E-01 -3.86366780000E-01 -4.98595070000E-01

   5   5   1    5 B     3.86363220000E-01 -3.86387550000E-01 -4.98595080000E-01

   6   6   1    5 B     3.86343500000E-01 -2.27248350000E-01  4.98451060000E-01

   7   7   1    1 H    -9.69563800000E-02  3.08930050000E-01  4.95280950000E-01

   8   8   1    1 H     9.66345300000E-02 -3.08946560000E-01  4.94344490000E-01

   9   9   1    1 H    -9.70285800000E-02 -4.05927570000E-01  4.94200360000E-01

  10  10   1    1 H     9.67361800000E-02  4.05684940000E-01  4.94236310000E-01

  11  11   1    1 H    -3.08967600000E-01  9.70041200000E-02 -4.95280900000E-01

  12  12   1    1 H     3.08929720000E-01 -9.65626900000E-02 -4.94344380000E-01

  13  13   1    1 H     4.05869990000E-01  9.70499800000E-02 -4.94200170000E-01

  14  14   1    1 H    -4.05687790000E-01 -9.66526800000E-02 -4.94236360000E-01

  15  15   1    1 H    -3.08927260000E-01 -4.05945790000E-01  4.95281000000E-01

  16  16   1    1 H     3.08961830000E-01  4.05609330000E-01  4.94344430000E-01

  17  17   1    1 H     4.05840570000E-01  3.08823250000E-01  4.94200250000E-01

  18  18   1    1 H    -4.05709120000E-01 -3.09042070000E-01  4.94236420000E-01

  19  19   1    6 C    -1.08109690000E-01  4.45943690000E-01  4.98342970000E-01

  20  20   1    6 C    -5.35108900000E-02  3.92785630000E-01  4.95425060000E-01

  21  21   1    6 C     5.33881200000E-02 -3.92814700000E-01  4.95172990000E-01

  22  22   1    6 C    -5.35478900000E-02 -4.46307810000E-01  4.95929470000E-01

  23  23   1    6 C     5.34263400000E-02  4.46249970000E-01  4.93984150000E-01

  24  24   1    6 C     1.08035890000E-01 -4.45964370000E-01  4.95965460000E-01

  25  25   1    6 C    -4.45960580000E-01  1.08168460000E-01 -4.98342890000E-01

  26  26   1    6 C    -3.92822150000E-01  5.35559400000E-02 -4.95425040000E-01

  27  27   1    6 C     3.92798670000E-01 -5.33368400000E-02 -4.95172880000E-01

  28  28   1    6 C     4.46287580000E-01  5.36028600000E-02 -4.95929330000E-01

  29  29   1    6 C    -4.46283150000E-01 -5.33764400000E-02 -4.93984150000E-01

  30  30   1    6 C     4.45927910000E-01 -1.08007940000E-01 -4.95965390000E-01

  31  31   1    6 C    -4.45955130000E-01  4.45874550000E-01  4.98342970000E-01

  32  32   1    6 C    -3.92789780000E-01 -4.46374220000E-01  4.95425120000E-01

  33  33   1    6 C     3.92823370000E-01  4.46172030000E-01  4.95172930000E-01

  34  34   1    6 C     4.46287260000E-01  3.92689990000E-01  4.95929390000E-01

  35  35   1    6 C    -4.46257040000E-01 -3.92902000000E-01  4.93984220000E-01

  36  36   1    6 C     4.45959980000E-01 -4.46041770000E-01  4.95965460000E-01

  37  37   1    8 O    -4.39263320000E-01  2.80370630000E-01  4.99243540000E-01

  38  38   1    8 O    -2.80318300000E-01  2.80378330000E-01 -4.94524490000E-01

  39  39   1    8 O    -2.80320580000E-01  4.39323460000E-01  4.96073550000E-01

  40  40   1    8 O     2.80324510000E-01 -2.80348890000E-01  4.99243580000E-01

  41  41   1    8 O     2.80343970000E-01 -4.39304390000E-01 -4.94524490000E-01

  42  42   1    8 O     4.39263840000E-01 -2.80364580000E-01  4.96073530000E-01

 NUMBER OF SYMMETRY OPERATORS         :    1
 *******************************************************************************
 * GEOMETRY EDITING - INPUT COORDINATES ARE GIVEN IN ANGSTROM         
 *******************************************************************************

 GCALCO - MAX INDICES DIRECT LATTICE VECTOR     9     9    38
 NO.OF VECTORS CREATED 6999 STARS 3500 RMAX   195.99792 BOHR

 GEOMETRY FOR WAVE FUNCTION - DIMENSIONALITY OF THE SYSTEM    3
 (NON PERIODIC DIRECTION: LATTICE PARAMETER FORMALLY SET TO 500)
 *******************************************************************************
 LATTICE PARAMETERS (ANGSTROMS AND DEGREES) - BOHR = 0.5291772083 ANGSTROM
 PRIMITIVE CELL - CENTRING CODE 1/0 VOLUME=   664.637263 - DENSITY  0.975 g/cm^3
         A              B              C           ALPHA      BETA       GAMMA 
    15.02361100    15.02391600     3.40000000    90.000323  89.999944 119.995964
 *******************************************************************************
 ATOMS IN THE ASYMMETRIC UNIT   42 - ATOMS IN THE UNIT CELL:   42
     ATOM                 X/A                 Y/B                 Z/C    
 *******************************************************************************
      1 T   5 B    -3.863194600000E-01  2.273182200000E-01 -4.985950800000E-01
      2 T   5 B    -2.272638000000E-01  3.863778800000E-01 -4.985950600000E-01
      3 T   5 B    -3.863237300000E-01  3.863606700000E-01  4.984510500000E-01
      4 T   5 B     2.272552500000E-01 -3.863667800000E-01 -4.985950700000E-01
      5 T   5 B     3.863632200000E-01 -3.863875500000E-01 -4.985950800000E-01
      6 T   5 B     3.863435000000E-01 -2.272483500000E-01  4.984510600000E-01
      7 T   1 H    -9.695638000000E-02  3.089300500000E-01  4.952809500000E-01
      8 T   1 H     9.663453000000E-02 -3.089465600000E-01  4.943444900000E-01
      9 T   1 H    -9.702858000000E-02 -4.059275700000E-01  4.942003600000E-01
     10 T   1 H     9.673618000000E-02  4.056849400000E-01  4.942363100000E-01
     11 T   1 H    -3.089676000000E-01  9.700412000000E-02 -4.952809000000E-01
     12 T   1 H     3.089297200000E-01 -9.656269000000E-02 -4.943443800000E-01
     13 T   1 H     4.058699900000E-01  9.704998000000E-02 -4.942001700000E-01
     14 T   1 H    -4.056877900000E-01 -9.665268000000E-02 -4.942363600000E-01
     15 T   1 H    -3.089272600000E-01 -4.059457900000E-01  4.952810000000E-01
     16 T   1 H     3.089618300000E-01  4.056093300000E-01  4.943444300000E-01
     17 T   1 H     4.058405700000E-01  3.088232500000E-01  4.942002500000E-01
     18 T   1 H    -4.057091200000E-01 -3.090420700000E-01  4.942364200000E-01
     19 T   6 C    -1.081096900000E-01  4.459436900000E-01  4.983429700000E-01
     20 T   6 C    -5.351089000000E-02  3.927856300000E-01  4.954250600000E-01
     21 T   6 C     5.338812000000E-02 -3.928147000000E-01  4.951729900000E-01
     22 T   6 C    -5.354789000000E-02 -4.463078100000E-01  4.959294700000E-01
     23 T   6 C     5.342634000000E-02  4.462499700000E-01  4.939841500000E-01
     24 T   6 C     1.080358900000E-01 -4.459643700000E-01  4.959654600000E-01
     25 T   6 C    -4.459605800000E-01  1.081684600000E-01 -4.983428900000E-01
     26 T   6 C    -3.928221500000E-01  5.355594000000E-02 -4.954250400000E-01
     27 T   6 C     3.927986700000E-01 -5.333684000000E-02 -4.951728800000E-01
     28 T   6 C     4.462875800000E-01  5.360286000000E-02 -4.959293300000E-01
     29 T   6 C    -4.462831500000E-01 -5.337644000000E-02 -4.939841500000E-01
     30 T   6 C     4.459279100000E-01 -1.080079400000E-01 -4.959653900000E-01
     31 T   6 C    -4.459551300000E-01  4.458745500000E-01  4.983429700000E-01
     32 T   6 C    -3.927897800000E-01 -4.463742200000E-01  4.954251200000E-01
     33 T   6 C     3.928233700000E-01  4.461720300000E-01  4.951729300000E-01
     34 T   6 C     4.462872600000E-01  3.926899900000E-01  4.959293900000E-01
     35 T   6 C    -4.462570400000E-01 -3.929020000000E-01  4.939842200000E-01
     36 T   6 C     4.459599800000E-01 -4.460417700000E-01  4.959654600000E-01
     37 T   8 O    -4.392633200000E-01  2.803706300000E-01  4.992435400000E-01
     38 T   8 O    -2.803183000000E-01  2.803783300000E-01 -4.945244900000E-01
     39 T   8 O    -2.803205800000E-01  4.393234600000E-01  4.960735500000E-01
     40 T   8 O     2.803245100000E-01 -2.803488900000E-01  4.992435800000E-01
     41 T   8 O     2.803439700000E-01 -4.393043900000E-01 -4.945244900000E-01
     42 T   8 O     4.392638400000E-01 -2.803645800000E-01  4.960735300000E-01

 T = ATOM BELONGING TO THE ASYMMETRIC UNIT

 ****    1 SYMMOPS - TRANSLATORS IN FRACTIONAL UNITS
 **** MATRICES AND TRANSLATORS IN THE CRYSTALLOGRAPHIC REFERENCE FRAME
   V INV                    ROTATION MATRICES                   TRANSLATORS
   1   1  1.00  0.00  0.00  0.00  1.00  0.00  0.00 -0.00  1.00  0.00  0.00  0.00

 DIRECT LATTICE VECTORS CARTESIAN COMPONENTS (ANGSTROM)
          X                    Y                    Z
   0.130113578931E+02  -0.751088897922E+01   0.000000000000E+00
   0.000000000000E+00   0.150239160000E+02   0.000000000000E+00
  -0.722735402434E-05  -0.191672058446E-04   0.339999999994E+01


 CARTESIAN COORDINATES - PRIMITIVE CELL
 *******************************************************************************
 *      ATOM          X(ANGSTROM)         Y(ANGSTROM)         Z(ANGSTROM)
 *******************************************************************************
    1     5 B    -5.026537151589E+00  6.316821973795E+00 -1.695223271969E+00
    2     5 B    -2.957007034413E+00  7.511871540847E+00 -1.695223203969E+00
    3     5 B    -5.026599916093E+00 -6.317640656063E+00  1.694733569969E+00
    4     5 B     2.956902994349E+00 -7.511621443930E+00 -1.695223237969E+00
    5     5 B     5.027113735657E+00  6.316940210956E+00 -1.695223271969E+00
    6     5 B     5.026849945674E+00 -6.315952811795E+00  1.694733603969E+00
    7     1 H    -1.261537739766E+00  5.369558233931E+00  1.683955229969E+00
    8     1 H     1.257342881855E+00 -5.367407867520E+00  1.680771265969E+00
    9     1 H    -1.262477151996E+00 -5.369860294013E+00  1.680281223970E+00
   10     1 H     1.258665487166E+00  5.368392279642E+00  1.680403453970E+00
   11     1 H    -4.020084441388E+00  3.778012585460E+00 -1.683955059969E+00
   12     1 H     4.019598723524E+00 -3.771077097394E+00 -1.680770891969E+00
   13     1 H     5.280923269701E+00 -1.590364215128E+00 -1.680280577970E+00
   14     1 H    -5.278545456512E+00  1.594983678549E+00 -1.680403623970E+00
   15     1 H    -4.019566722352E+00 -3.778586590153E+00  1.683955399969E+00
   16     1 H     4.020009372622E+00  3.773253023589E+00  1.680771061969E+00
   17     1 H     5.280533332032E+00  1.591501629877E+00  1.680280849970E+00
   18     1 H    -5.278830132819E+00 -1.595795415102E+00  1.680403827970E+00
   19     6 C    -1.406657469998E+00  7.511810866615E+00  1.694366097969E+00
   20     6 C    -6.962529215783E-01  6.303083169182E+00  1.684445203969E+00
   21     6 C     6.946483577669E-01 -6.302616789577E+00  1.683588165969E+00
   22     6 C    -6.967343454659E-01 -6.303108296305E+00  1.686160197969E+00
   23     6 C     6.951456604578E-01  6.303133287681E+00  1.679546109970E+00
   24     6 C     1.405690045567E+00 -7.511586315706E+00  1.686282563969E+00
   25     6 C     7.208808782182E+00 -2.536205164999E+00 -1.694365825969E+00
   26     6 C    -5.111146001358E+00  3.755072997002E+00 -1.684445135969E+00
   27     6 C     5.110847654076E+00 -3.751585914339E+00 -1.683587791969E+00
   28     6 C     5.806811010863E+00 -2.546682094604E+00 -1.686159721969E+00
   29     6 C    -5.806746216092E+00  2.550069510302E+00 -1.679546109970E+00
   30     6 C     5.802131216030E+00 -4.972007736366E+00 -1.686282325969E+00
   31     6 C     7.208872490681E+00  2.537402725821E+00  1.694366097969E+00
   32     6 C    -5.110731984928E+00 -3.756097852010E+00  1.684445407969E+00
   33     6 C     5.111161877037E+00  3.752788888676E+00  1.683587961969E+00
   34     6 C     5.806799678714E+00  2.547717855521E+00  1.686159925969E+00
   35     6 C    -5.806413629935E+00 -2.551149028895E+00  1.679546347970E+00
   36     6 C     5.802541321242E+00  4.973056509803E+00  1.686282563969E+00
   37     8 O     7.295942019035E+00  6.242748289573E-04  1.697428035969E+00
   38     8 O    -3.647318151170E+00  6.317829586936E+00 -1.681383265969E+00
   39     8 O    -3.647354976468E+00 -6.318109993505E+00  1.686650069969E+00
   40     8 O     3.647398917596E+00 -6.317434015921E+00  1.697428171969E+00
   41     8 O     3.647659300934E+00  6.318220790199E+00 -1.681383265969E+00
   42     8 O    -7.295942446637E+00 -5.563632465866E-04  1.686650001969E+00

 *******************************************************************************
 STARTING BASIS SET HANDLING 
 *******************************************************************************

 Loading internal basis set: SOLDEF2MSVP         

 Please cite in your publication:
 L. Dona', J. G. Brandenburg and B. Civalleri, J. Chem. Phys., 151, 121101 (2019
 )                                                                              
                                                                                
                    

 *******************************************************************************
 LOCAL ATOMIC FUNCTIONS BASIS SET
 *******************************************************************************
   ATOM   X(AU)   Y(AU)   Z(AU)  N. TYPE  EXPONENT  S COEF   P COEF   D/F/G COEF
 *******************************************************************************
   1 B   -9.499  11.937  -3.204
                                  1 S  
                                         2.410E+03 1.755E-03 0.000E+00 0.000E+00
                                         3.619E+02 1.344E-02 0.000E+00 0.000E+00
                                         8.231E+01 6.637E-02 0.000E+00 0.000E+00
                                         2.311E+01 2.303E-01 0.000E+00 0.000E+00
                                         7.252E+00 5.150E-01 0.000E+00 0.000E+00
                                  2 S  
                                         2.367E+00 1.000E+00 0.000E+00 0.000E+00
                                  3 S  
                                         5.533E-01 1.000E+00 0.000E+00 0.000E+00
                                  4 S  
                                         1.716E-01 1.000E+00 0.000E+00 0.000E+00
                           5-     7 P  
                                         6.002E+00 0.000E+00-3.555E-02 0.000E+00
                                         1.240E+00 0.000E+00-1.983E-01 0.000E+00
                                         3.367E-01 0.000E+00-5.048E-01 0.000E+00
                           8-    10 P  
                                         1.256E-01 0.000E+00 1.000E+00 0.000E+00
                          11-    15 D  
                                         8.880E-01 0.000E+00 0.000E+00 1.000E+00
   2 B   -5.588  14.195  -3.204
   3 B   -9.499 -11.939   3.203
   4 B    5.588 -14.195  -3.204
   5 B    9.500  11.937  -3.204
   6 B    9.499 -11.935   3.203
   7 H   -2.384  10.147   3.182
                                 91 S  
                                         1.874E+01 1.968E-02 0.000E+00 0.000E+00
                                         2.826E+00 1.380E-01 0.000E+00 0.000E+00
                                         6.401E-01 4.783E-01 0.000E+00 0.000E+00
                                 92 S  
                                         1.756E-01 1.000E+00 0.000E+00 0.000E+00
   8 H    2.376 -10.143   3.176
   9 H   -2.386 -10.148   3.175
  10 H    2.379  10.145   3.176
  11 H   -7.597   7.139  -3.182
  12 H    7.596  -7.126  -3.176
  13 H    9.979  -3.005  -3.175
  14 H   -9.975   3.014  -3.176
  15 H   -7.596  -7.140   3.182
  16 H    7.597   7.130   3.176
  17 H    9.979   3.008   3.175
  18 H   -9.976  -3.016   3.176
  19 C   -2.658  14.195   3.202
                                115 S  
                                         3.624E+03 1.634E-03 0.000E+00 0.000E+00
                                         5.440E+02 1.252E-02 0.000E+00 0.000E+00
                                         1.237E+02 6.211E-02 0.000E+00 0.000E+00
                                         3.476E+01 2.182E-01 0.000E+00 0.000E+00
                                         1.093E+01 4.980E-01 0.000E+00 0.000E+00
                                116 S  
                                         3.574E+00 1.000E+00 0.000E+00 0.000E+00
                                117 S  
                                         7.742E-01 1.000E+00 0.000E+00 0.000E+00
                                118 S  
                                         2.330E-01 1.000E+00 0.000E+00 0.000E+00
                         119-   121 P  
                                         9.443E+00 0.000E+00 3.790E-02 0.000E+00
                                         2.002E+00 0.000E+00 2.082E-01 0.000E+00
                                         5.463E-01 0.000E+00 5.047E-01 0.000E+00
                         122-   124 P  
                                         1.820E-01 0.000E+00 1.000E+00 0.000E+00
                         125-   129 D  
                                         8.880E-01 0.000E+00 0.000E+00 1.000E+00
  20 C   -1.316  11.911   3.183
  21 C    1.313 -11.910   3.182
  22 C   -1.317 -11.911   3.186
  23 C    1.314  11.911   3.174
  24 C    2.656 -14.195   3.187
  25 C   13.623  -4.793  -3.202
  26 C   -9.659   7.096  -3.183
  27 C    9.658  -7.089  -3.182
  28 C   10.973  -4.813  -3.186
  29 C  -10.973   4.819  -3.174
  30 C   10.964  -9.396  -3.187
  31 C   13.623   4.795   3.202
  32 C   -9.658  -7.098   3.183
  33 C    9.659   7.092   3.182
  34 C   10.973   4.814   3.186
  35 C  -10.973  -4.821   3.174
  36 C   10.965   9.398   3.187
  37 O   13.787   0.001   3.208
                                385 S  
                                         6.773E+03 1.727E-03 0.000E+00 0.000E+00
                                         1.017E+03 1.325E-02 0.000E+00 0.000E+00
                                         2.313E+02 6.603E-02 0.000E+00 0.000E+00
                                         6.501E+01 2.353E-01 0.000E+00 0.000E+00
                                         2.050E+01 5.498E-01 0.000E+00 0.000E+00
                                386 S  
                                         6.716E+00 1.000E+00 0.000E+00 0.000E+00
                                387 S  
                                         1.147E+00 1.000E+00 0.000E+00 0.000E+00
                                388 S  
                                         3.342E-01 1.000E+00 0.000E+00 0.000E+00
                         389-   391 P  
                                         1.769E+01 0.000E+00 4.359E-02 0.000E+00
                                         3.854E+00 0.000E+00 2.318E-01 0.000E+00
                                         1.047E+00 0.000E+00 5.146E-01 0.000E+00
                         392-   394 P  
                                         2.759E-01 0.000E+00 1.000E+00 0.000E+00
                         395-   399 D  
                                         8.000E-01 0.000E+00 0.000E+00 1.000E+00
  38 O   -6.892  11.939  -3.177
  39 O   -6.893 -11.939   3.187
  40 O    6.893 -11.938   3.208
  41 O    6.893  11.940  -3.177
  42 O  -13.787  -0.001   3.187

 *******************************************************************************
 FINISHED BASIS SET HANDLING 
 *******************************************************************************

 INFORMATION **** SET_MPP **** PCRYSTAL CALCULATION
 INFORMATION **** READM2 **** NEW DEFAULT: FOCK/KS MATRIX MIXING SET TO 30 %
 INFORMATION **** READM2 **** NEW DEFAULT: FULL DIRECT SCF MODE
 INFORMATION **** READM2 **** NEW DEFAULT: COULOMB BIPOLAR BUFFER SET TO 32 Mb
 INFORMATION **** READM2 **** NEW DEFAULT: EXCHANGE BIPOLAR BUFFER SET TO 32 Mb

 *******************************************************************************
 NEW DEFAULT: DFT INTEGRATION GRID INCREASED TO XLGRID
 NEW DEFAULT: DIIS ACCELERATOR ACTIVE
 USE KEYWORD NODIIS TO TURN IT OFF
 *******************************************************************************

 WARNING **** RDDFTP **** HSEsol-HJS ACTIVE
 RANGE SEPARATION - OMEGA:   0.110000000000000     
 WARNING **** RDDFTP **** HSEsol-3c has to be combined with sol-def2-mSVP basis set
 *******************************************************************************
 N. OF ATOMS PER CELL        42  COULOMB OVERLAP TOL         (T1) 10**   -6
 NUMBER OF SHELLS           234  COULOMB PENETRATION TOL     (T2) 10**   -6
 NUMBER OF AO               474  EXCHANGE OVERLAP TOL        (T3) 10**   -6
 N. OF ELECTRONS PER CELL   198  EXCHANGE PSEUDO OVP (F(G))  (T4) 10**   -6
 CORE ELECTRONS PER CELL     60  EXCHANGE PSEUDO OVP (P(G))  (T5) 10**  -12
 N. OF SYMMETRY OPERATORS     1  POLE ORDER IN MONO ZONE                  4
 *******************************************************************************
 TYPE OF CALCULATION :  RESTRICTED CLOSED SHELL
 KOHN-SHAM HAMILTONIAN

 (EXCHANGE)[CORRELATION] FUNCTIONAL:(HSEsol GGA)[PBEsol]

 RANGE-SEPARATED HYBRID FUNCTIONAL 
 OMEGA (SHORT-RANGE)[LONG-RANGE]:(    0.1100)[    0.0000]

 HYBRID EXCHANGE - PERCENTAGE OF FOCK EXCHANGE    25.0000

 CAPPA:IS1  2;IS2  2;IS3  8; K PTS MONK NET  20; SYMMOPS:K SPACE   2;G SPACE   1

 *******************************************************************************
 MAX NUMBER OF SCF CYCLES      50  CONVERGENCE ON DELTAP        10**-16
 WEIGHT OF F(I) IN F(I+1)      30% CONVERGENCE ON ENERGY        10**- 6
 SHRINK. FACT.(MONKH.)    2  2  8  NUMBER OF K POINTS IN THE IBZ     20
 SHRINKING FACTOR(GILAT NET)    8  NUMBER OF K POINTS(GILAT NET)   1028
 *******************************************************************************
 *** K POINTS COORDINATES (OBLIQUE COORDINATES IN UNITS OF IS =  2)
   1-R(  0  0  0)   2-R(  1  0  0)   3-R(  0  1  0)   4-R(  1  1  0)
   5-C(  0  0  1)   6-C(  1  0  1)   7-C(  0  1  1)   8-C(  1  1  1)
   9-C(  0  0  2)  10-C(  1  0  2)  11-C(  0  1  2)  12-C(  1  1  2)
  13-C(  0  0  3)  14-C(  1  0  3)  15-C(  0  1  3)  16-C(  1  1  3)
  17-R(  0  0  4)  18-R(  1  0  4)  19-R(  0  1  4)  20-R(  1  1  4)

 DIRECT LATTICE VECTORS COMPON. (A.U.)     RECIP. LATTICE VECTORS COMPON. (A.U.) 
        X            Y            Z              X            Y            Z
   24.5879030  -14.1935232    0.0000000      0.2555397    0.0000000    0.0000005
    0.0000000   28.3910867    0.0000000      0.1277517    0.2213084    0.0000015
   -0.0000137   -0.0000362    6.4250689      0.0000000    0.0000000    0.9779172

 DISK SPACE FOR EIGENVECTORS (FTN 10)     7189632 REALS

 SYMMETRY ADAPTION OF THE BLOCH FUNCTIONS DISABLED
 TTTTTTTTTTTTTTTTTTTTTTTTTTTTTT gordsh1     TELAPSE        0.04 TCPU        0.04

 MATRIX SIZE: P(G)  398990, F(G)   82034, P(G) IRR  201952, F(G) IRR   82874
 MAX G-VECTOR INDEX FOR 1- AND 2-ELECTRON INTEGRALS 123

 TTTTTTTTTTTTTTTTTTTTTTTTTTTTTT INPUT       TELAPSE        0.29 TCPU        0.28

 NEIGHBORS OF THE NON-EQUIVALENT ATOMS

 N = NUMBER OF NEIGHBORS AT DISTANCE R
    ATOM  N     R/ANG      R/AU   NEIGHBORS (ATOM LABELS AND CELL INDICES)
   1 B    1     1.3791     2.6061   37 O   -1 0-1
   1 B    1     1.3793     2.6065   38 O    0 0 0
   1 B    1     1.5503     2.9297   25 C   -1 0 0
   1 B    1     2.3895     4.5155    3 B    0 1-1
   1 B    1     2.3898     4.5160    2 B    0 0 0
   1 B    1     2.5632     4.8437   26 C    0 0 0

   2 B    1     1.3793     2.6065   39 O    0 1-1
   2 B    1     1.3793     2.6065   38 O    0 0 0
   2 B    1     1.5504     2.9298   19 C    0 0-1
   2 B    1     2.3895     4.5156    3 B    0 1-1
   2 B    1     2.3898     4.5160    1 B    0 0 0
   2 B    1     2.5634     4.8440   22 C    0 1-1

   3 B    1     1.3791     2.6061   37 O   -1-1 0
   3 B    1     1.3793     2.6064   39 O    0 0 0
   3 B    1     1.5502     2.9294   31 C   -1-1 0
   3 B    1     2.3895     4.5155    1 B    0-1 1
   3 B    1     2.3895     4.5156    2 B    0-1 1
   3 B    1     2.5629     4.8433   32 C    0 0 0

   4 B    1     1.3795     2.6068   40 O    0 0-1
   4 B    1     1.3795     2.6070   41 O    0-1 0
   4 B    1     1.5513     2.9316   24 C    0 0-1
   4 B    1     2.3905     4.5174    6 B    0 0-1
   4 B    1     2.3905     4.5175    5 B    0-1 0
   4 B    1     2.5648     4.8468   23 C    0-1-1

   5 B    1     1.3795     2.6069   41 O    0 0 0
   5 B    1     1.3797     2.6072   42 O    1 1-1
   5 B    1     1.5516     2.9322   36 C    0 0-1
   5 B    1     2.3905     4.5175    4 B    0 1 0
   5 B    1     2.3911     4.5185    6 B    0 1-1
   5 B    1     2.5651     4.8473   35 C    1 1-1

   6 B    1     1.3795     2.6068   40 O    0 0 0
   6 B    1     1.3796     2.6071   42 O    1 0 0
   6 B    1     1.5516     2.9322   30 C    0 0 1
   6 B    1     2.3905     4.5174    4 B    0 0 1
   6 B    1     2.3911     4.5185    5 B    0-1 1
   6 B    1     2.5651     4.8473   29 C    1 0 1

   7 H    1     1.0913     2.0623   20 C    0 0 0
   7 H    1     2.1472     4.0576   19 C    0 0 0
   7 H    1     2.1680     4.0969   23 C    0 0 0
   7 H    1     2.5202     4.7625   10 H    0 0 0
   7 H    1     2.5676     4.8520   38 O    0 0 1
   7 H    1     2.7321     5.1630    2 B    0 0 1

   8 H    1     1.0914     2.0625   21 C    0 0 0
   8 H    1     2.1493     4.0616   24 C    0 0 0
   8 H    1     2.1666     4.0942   22 C    0 0 0
   8 H    1     2.5198     4.7618    9 H    0 0 0
   8 H    1     2.5720     4.8604   40 O    0 0 0
   8 H    1     2.7362     5.1707    4 B    0 0 1

   9 H    1     1.0914     2.0624   22 C    0 0 0
   9 H    1     2.1471     4.0575   19 C    0-1 0
   9 H    1     2.1680     4.0970   21 C    0 0 0
   9 H    1     2.5198     4.7618    8 H    0 0 0
   9 H    1     2.5665     4.8500   39 O    0 0 0
   9 H    1     2.7315     5.1618    2 B    0-1 1

  10 H    1     1.0915     2.0626   23 C    0 0 0
  10 H    1     2.1490     4.0610   24 C    0 1 0
  10 H    1     2.1669     4.0948   20 C    0 0 0
  10 H    1     2.5202     4.7625    7 H    0 0 0
  10 H    1     2.5712     4.8588   41 O    0 0 1
  10 H    1     2.7351     5.1686    4 B    0 1 1

  11 H    1     1.0913     2.0623   26 C    0 0 0
  11 H    1     2.1469     4.0571   25 C   -1 0 0
  11 H    1     2.1680     4.0968   29 C    0 0 0
  11 H    1     2.5198     4.7617   14 H    0 0 0
  11 H    1     2.5670     4.8510   38 O    0 0 0
  11 H    1     2.7310     5.1609    1 B    0 0 0

  12 H    1     1.0914     2.0625   27 C    0 0 0
  12 H    1     2.1493     4.0617   30 C    0 0 0
  12 H    1     2.1664     4.0939   28 C    0 0 0
  12 H    1     2.5192     4.7606   13 H    0 0 0
  12 H    1     2.5735     4.8632   40 O    0 0-1
  12 H    1     2.7371     5.1723    6 B    0 0-1

  13 H    1     1.0914     2.0624   28 C    0 0 0
  13 H    1     2.1475     4.0581   25 C    0 0 0
  13 H    1     2.1679     4.0967   27 C    0 0 0
  13 H    1     2.5192     4.7606   12 H    0 0 0
  13 H    1     2.5675     4.8519   37 O    0 0-1
  13 H    1     2.7328     5.1643    1 B    1 0 0

  14 H    1     1.0914     2.0625   29 C    0 0 0
  14 H    1     2.1491     4.0612   30 C   -1 0 0
  14 H    1     2.1666     4.0942   26 C    0 0 0
  14 H    1     2.5198     4.7617   11 H    0 0 0
  14 H    1     2.5723     4.8609   42 O    0 0-1
  14 H    1     2.7355     5.1693    6 B   -1 0-1

  15 H    1     1.0914     2.0624   32 C    0 0 0
  15 H    1     2.1475     4.0582   31 C   -1-1 0
  15 H    1     2.1678     4.0966   35 C    0 0 0
  15 H    1     2.5200     4.7621   18 H    0 0 0
  15 H    1     2.5667     4.8503   39 O    0 0 0
  15 H    1     2.7315     5.1618    3 B    0 0 0

  16 H    1     1.0913     2.0623   33 C    0 0 0
  16 H    1     2.1487     4.0605   36 C    0 0 0
  16 H    1     2.1667     4.0945   34 C    0 0 0
  16 H    1     2.5197     4.7616   17 H    0 0 0
  16 H    1     2.5723     4.8610   41 O    0 0 1
  16 H    1     2.7359     5.1701    5 B    0 0 1

  17 H    1     1.0915     2.0626   34 C    0 0 0
  17 H    1     2.1479     4.0589   31 C    0 0 0
  17 H    1     2.1679     4.0968   33 C    0 0 0
  17 H    1     2.5197     4.7616   16 H    0 0 0
  17 H    1     2.5677     4.8522   37 O    0 0 0
  17 H    1     2.7331     5.1648    3 B    1 1 0

  18 H    1     1.0914     2.0624   35 C    0 0 0
  18 H    1     2.1486     4.0602   36 C   -1-1 0
  18 H    1     2.1668     4.0947   32 C    0 0 0
  18 H    1     2.5200     4.7621   15 H    0 0 0
  18 H    1     2.5717     4.8598   42 O    0 0 0
  18 H    1     2.7349     5.1682    5 B   -1-1 1

  19 C    1     1.4020     2.6495   22 C    0 1 0
  19 C    1     1.4021     2.6495   20 C    0 0 0
  19 C    1     1.5504     2.9298    2 B    0 0 1
  19 C    1     2.1471     4.0575    9 H    0 1 0
  19 C    1     2.1472     4.0576    7 H    0 0 0
  19 C    1     2.4246     4.5817   21 C    0 1 0

  20 C    1     1.0913     2.0623    7 H    0 0 0
  20 C    1     1.3914     2.6294   23 C    0 0 0
  20 C    1     1.4021     2.6495   19 C    0 0 0
  20 C    1     2.1669     4.0948   10 H    0 0 0
  20 C    1     2.4177     4.5688   22 C    0 1 0
  20 C    1     2.4250     4.5825   24 C    0 1 0

  21 C    1     1.0914     2.0625    8 H    0 0 0
  21 C    1     1.3914     2.6293   22 C    0 0 0
  21 C    1     1.4026     2.6505   24 C    0 0 0
  21 C    1     2.1680     4.0970    9 H    0 0 0
  21 C    1     2.4182     4.5697   23 C    0-1 0
  21 C    1     2.4246     4.5817   19 C    0-1 0

  22 C    1     1.0914     2.0624    9 H    0 0 0
  22 C    1     1.3914     2.6293   21 C    0 0 0
  22 C    1     1.4020     2.6495   19 C    0-1 0
  22 C    1     2.1666     4.0942    8 H    0 0 0
  22 C    1     2.4177     4.5688   20 C    0-1 0
  22 C    1     2.4250     4.5826   24 C    0 0 0

  23 C    1     1.0915     2.0626   10 H    0 0 0
  23 C    1     1.3914     2.6294   20 C    0 0 0
  23 C    1     1.4025     2.6504   24 C    0 1 0
  23 C    1     2.1680     4.0969    7 H    0 0 0
  23 C    1     2.4182     4.5697   21 C    0 1 0
  23 C    1     2.4246     4.5818   19 C    0 0 0

  24 C    1     1.4025     2.6504   23 C    0-1 0
  24 C    1     1.4026     2.6505   21 C    0 0 0
  24 C    1     1.5513     2.9316    4 B    0 0 1
  24 C    1     2.1490     4.0610   10 H    0-1 0
  24 C    1     2.1493     4.0616    8 H    0 0 0
  24 C    1     2.4250     4.5825   20 C    0-1 0

  25 C    1     1.4020     2.6494   26 C    1 0 0
  25 C    1     1.4021     2.6495   28 C    0 0 0
  25 C    1     1.5503     2.9297    1 B    1 0 0
  25 C    1     2.1469     4.0571   11 H    1 0 0
  25 C    1     2.1475     4.0581   13 H    0 0 0
  25 C    1     2.4246     4.5818   27 C    0 0 0

  26 C    1     1.0913     2.0623   11 H    0 0 0
  26 C    1     1.3914     2.6293   29 C    0 0 0
  26 C    1     1.4020     2.6494   25 C   -1 0 0
  26 C    1     2.1666     4.0942   14 H    0 0 0
  26 C    1     2.4175     4.5684   28 C   -1 0 0
  26 C    1     2.4251     4.5828   30 C   -1 0 0

  27 C    1     1.0914     2.0625   12 H    0 0 0
  27 C    1     1.3915     2.6295   28 C    0 0 0
  27 C    1     1.4026     2.6505   30 C    0 0 0
  27 C    1     2.1679     4.0967   13 H    0 0 0
  27 C    1     2.4179     4.5691   29 C    1 0 0
  27 C    1     2.4246     4.5818   25 C    0 0 0

  28 C    1     1.0914     2.0624   13 H    0 0 0
  28 C    1     1.3915     2.6295   27 C    0 0 0
  28 C    1     1.4021     2.6495   25 C    0 0 0
  28 C    1     2.1664     4.0939   12 H    0 0 0
  28 C    1     2.4175     4.5684   26 C    1 0 0
  28 C    1     2.4253     4.5832   30 C    0 0 0

  29 C    1     1.0914     2.0625   14 H    0 0 0
  29 C    1     1.3914     2.6293   26 C    0 0 0
  29 C    1     1.4025     2.6504   30 C   -1 0 0
  29 C    1     2.1680     4.0968   11 H    0 0 0
  29 C    1     2.4179     4.5691   27 C   -1 0 0
  29 C    1     2.4247     4.5819   25 C   -1 0 0

  30 C    1     1.4025     2.6504   29 C    1 0 0
  30 C    1     1.4026     2.6505   27 C    0 0 0
  30 C    1     1.5516     2.9322    6 B    0 0-1
  30 C    1     2.1491     4.0612   14 H    1 0 0
  30 C    1     2.1493     4.0617   12 H    0 0 0
  30 C    1     2.4251     4.5828   26 C    1 0 0

  31 C    1     1.4021     2.6496   32 C    1 1 0
  31 C    1     1.4021     2.6497   34 C    0 0 0
  31 C    1     1.5502     2.9294    3 B    1 1 0
  31 C    1     2.1475     4.0582   15 H    1 1 0
  31 C    1     2.1479     4.0589   17 H    0 0 0
  31 C    1     2.4244     4.5814   33 C    0 0 0

  32 C    1     1.0914     2.0624   15 H    0 0 0
  32 C    1     1.3914     2.6293   35 C    0 0 0
  32 C    1     1.4021     2.6496   31 C   -1-1 0
  32 C    1     2.1668     4.0947   18 H    0 0 0
  32 C    1     2.4179     4.5692   34 C   -1-1 0
  32 C    1     2.4251     4.5827   36 C   -1-1 0

  33 C    1     1.0913     2.0623   16 H    0 0 0
  33 C    1     1.3914     2.6294   34 C    0 0 0
  33 C    1     1.4025     2.6504   36 C    0 0 0
  33 C    1     2.1679     4.0968   17 H    0 0 0
  33 C    1     2.4178     4.5690   35 C    1 1 0
  33 C    1     2.4244     4.5814   31 C    0 0 0

  34 C    1     1.0915     2.0626   17 H    0 0 0
  34 C    1     1.3914     2.6294   33 C    0 0 0
  34 C    1     1.4021     2.6497   31 C    0 0 0
  34 C    1     2.1667     4.0945   16 H    0 0 0
  34 C    1     2.4179     4.5692   32 C    1 1 0
  34 C    1     2.4253     4.5832   36 C    0 0 0

  35 C    1     1.0914     2.0624   18 H    0 0 0
  35 C    1     1.3914     2.6293   32 C    0 0 0
  35 C    1     1.4025     2.6503   36 C   -1-1 0
  35 C    1     2.1678     4.0966   15 H    0 0 0
  35 C    1     2.4178     4.5690   33 C   -1-1 0
  35 C    1     2.4245     4.5817   31 C   -1-1 0

  36 C    1     1.4025     2.6503   35 C    1 1 0
  36 C    1     1.4025     2.6504   33 C    0 0 0
  36 C    1     1.5516     2.9322    5 B    0 0 1
  36 C    1     2.1486     4.0602   18 H    1 1 0
  36 C    1     2.1487     4.0605   16 H    0 0 0
  36 C    1     2.4251     4.5827   32 C    1 1 0

  37 O    1     1.3791     2.6061    1 B    1 0 1
  37 O    1     1.3791     2.6061    3 B    1 1 0
  37 O    1     2.3880     4.5126   38 O    1 0 1
  37 O    1     2.3882     4.5130   39 O    1 1 0
  37 O    1     2.5383     4.7966   31 C    0 0 0
  37 O    1     2.5384     4.7968   25 C    0 0 1

  38 O    1     1.3793     2.6065    1 B    0 0 0
  38 O    1     1.3793     2.6065    2 B    0 0 0
  38 O    1     2.3880     4.5126   37 O   -1 0-1
  38 O    1     2.3882     4.5131   39 O    0 1-1
  38 O    1     2.5391     4.7981   19 C    0 0-1
  38 O    1     2.5395     4.7990   25 C   -1 0 0

  39 O    1     1.3793     2.6064    3 B    0 0 0
  39 O    1     1.3793     2.6065    2 B    0-1 1
  39 O    1     2.3882     4.5130   37 O   -1-1 0
  39 O    1     2.3882     4.5131   38 O    0-1 1
  39 O    1     2.5390     4.7980   19 C    0-1 0
  39 O    1     2.5391     4.7982   31 C   -1-1 0

  40 O    1     1.3795     2.6068    6 B    0 0 0
  40 O    1     1.3795     2.6068    4 B    0 0 1
  40 O    1     2.3880     4.5126   42 O    1 0 0
  40 O    1     2.3884     4.5134   41 O    0-1 1
  40 O    1     2.5400     4.7998   24 C    0 0 0
  40 O    1     2.5403     4.8005   30 C    0 0 1

  41 O    1     1.3795     2.6069    5 B    0 0 0
  41 O    1     1.3795     2.6070    4 B    0 1 0
  41 O    1     2.3881     4.5128   42 O    1 1-1
  41 O    1     2.3884     4.5134   40 O    0 1-1
  41 O    1     2.5404     4.8006   24 C    0 1-1
  41 O    1     2.5405     4.8008   36 C    0 0-1

  42 O    1     1.3796     2.6071    6 B   -1 0 0
  42 O    1     1.3797     2.6072    5 B   -1-1 1
  42 O    1     2.3880     4.5126   40 O   -1 0 0
  42 O    1     2.3881     4.5128   41 O   -1-1 1
  42 O    1     2.5409     4.8016   36 C   -1-1 0
  42 O    1     2.5410     4.8019   30 C   -1 0 1


 SYMMETRY ALLOWED INTERNAL DEGREE(S) OF FREEDOM: 123
 TTTTTTTTTTTTTTTTTTTTTTTTTTTTTT SYMM        TELAPSE        0.29 TCPU        0.29
 TTTTTTTTTTTTTTTTTTTTTTTTTTTTTT INT_SCREEN  TELAPSE        0.32 TCPU        0.31

 DFT PARAMETERS

     ATOM       ELECTRONS   NET CHARGE   R(ANGSTROM)
   1   5  B       5.0000      0.0000     0.89000000
   7   1  H       1.0000      0.0000     1.11000000
  19   6  C       6.0000      0.0000     0.77000000
  37   8  O       8.0000      0.0000     0.74000000

 SIZE OF GRID=    1246699
 TTTTTTTTTTTTTTTTTTTTTTTTTTTTTT MAKE_GRID2  TELAPSE       12.43 TCPU       12.41
 BECKE WEIGHT FUNCTION
 RADSAFE =     2.00
 TOLERANCES - DENSITY:10**- 6; POTENTIAL:10**- 9; GRID WGT:10**-14

 RADIAL INTEGRATION  - INTERVALS (POINTS,UPPER LIMIT):            1( 75,  4.0*R)

 ANGULAR INTEGRATION - INTERVALS (ACCURACY LEVEL [N. POINTS] UPPER LIMIT):
  1(  4[  86]   0.2)  2(  8[ 194]   0.5)  3( 12[ 350]   0.9)  4( 16[ 974]   3.5)
  5( 12[ 350]9999.0)
 TTTTTTTTTTTTTTTTTTTTTTTTTTTTTT INT_CALC    TELAPSE       12.54 TCPU       12.53
 EEEEEEEEEE INT_CALC TERMINATION  DATE 19 02 2026 TIME 18:13:02.9

 *******************************************************************************
 cof-1_z34_L000_incl                                                             
 CRYSTAL - SCF - TYPE OF CALCULATION :  RESTRICTED CLOSED SHELL
 *******************************************************************************

 CAPPA:IS1  2;IS2  2;IS3  8; K PTS MONK NET  20; SYMMOPS:K SPACE   2;G SPACE   1

 TTTTTTTTTTTTTTTTTTTTTTTTTTTTTT SDIK        TELAPSE       13.13 TCPU       20.48

 AAAAAAAAAAAAAAAAAAAAAAAAAAAAAAAAAAAAAAAAAAAAAAAAAAAAAAAAAAAAAAAAAAAAAAAAAAAAAAA
         ATOMIC WAVEFUNCTION(S)


 NUCLEAR CHARGE  5.0  SYMMETRY SPECIES            S    P
 N. ELECTRONS    5.0  NUMBER OF PRIMITIVE GTOS    8    4
                      NUMBER OF CONTRACTED GTOS   4    2
                      NUMBER OF CLOSED SHELLS     2    0
                      OPEN SHELL OCCUPATION       0    1

  ZNUC  SCFIT    TOTAL HF ENERGY   KINETIC ENERGY   VIRIAL THEOREM ACCURACY
   5.0    11    -2.451164084E+01  2.462155050E+01 -1.995536038E+00  1.5E-06

 NUCLEAR CHARGE  1.0  SYMMETRY SPECIES            S
 N. ELECTRONS    1.0  NUMBER OF PRIMITIVE GTOS    4
                      NUMBER OF CONTRACTED GTOS   2
                      NUMBER OF CLOSED SHELLS     0
                      OPEN SHELL OCCUPATION       1

  ZNUC  SCFIT    TOTAL HF ENERGY   KINETIC ENERGY   VIRIAL THEOREM ACCURACY
   1.0     1    -4.977266687E-01  5.190767460E-01 -1.958869132E+00  0.0E+00

 NUCLEAR CHARGE  6.0  SYMMETRY SPECIES            S    P
 N. ELECTRONS    6.0  NUMBER OF PRIMITIVE GTOS    8    4
                      NUMBER OF CONTRACTED GTOS   4    2
                      NUMBER OF CLOSED SHELLS     2    0
                      OPEN SHELL OCCUPATION       0    2

  ZNUC  SCFIT    TOTAL HF ENERGY   KINETIC ENERGY   VIRIAL THEOREM ACCURACY
   6.0     9    -3.766704647E+01  3.775180683E+01 -1.997754800E+00  1.1E-06

 NUCLEAR CHARGE  8.0  SYMMETRY SPECIES            S    P
 N. ELECTRONS    8.0  NUMBER OF PRIMITIVE GTOS    8    4
                      NUMBER OF CONTRACTED GTOS   4    2
                      NUMBER OF CLOSED SHELLS     2    0
                      OPEN SHELL OCCUPATION       0    4

  ZNUC  SCFIT    TOTAL HF ENERGY   KINETIC ENERGY   VIRIAL THEOREM ACCURACY
   8.0    12    -7.477373220E+01  7.477365593E+01 -2.000001020E+00  3.8E-06

 AAAAAAAAAAAAAAAAAAAAAAAAAAAAAAAAAAAAAAAAAAAAAAAAAAAAAAAAAAAAAAAAAAAAAAAAAAAAAAA

 CHARGE NORMALIZATION FACTOR   1.00000000
 TOTAL ATOMIC CHARGES:
   5.0000000   5.0000000   5.0000000   5.0000000   5.0000000   5.0000000
   1.0000000   1.0000000   1.0000000   1.0000000   1.0000000   1.0000000
   1.0000000   1.0000000   1.0000000   1.0000000   1.0000000   1.0000000
   6.0000000   6.0000000   6.0000000   6.0000000   6.0000000   6.0000000
   6.0000000   6.0000000   6.0000000   6.0000000   6.0000000   6.0000000
   6.0000000   6.0000000   6.0000000   6.0000000   6.0000000   6.0000000
   8.0000000   8.0000000   8.0000000   8.0000000   8.0000000   8.0000000
 TTTTTTTTTTTTTTTTTTTTTTTTTTTTTT MOQGAD      TELAPSE       13.19 TCPU       22.27
 TTTTTTTTTTTTTTTTTTTTTTTTTTTTTT SHELLXN     TELAPSE       24.70 TCPU      390.15
 TTTTTTTTTTTTTTTTTTTTTTTTTTTTTT MONMO3      TELAPSE       24.88 TCPU      396.20
 NUMERICALLY INTEGRATED DENSITY    197.9999686831
 TTTTTTTTTTTTTTTTTTTTTTTTTTTTTT NUMDFT      TELAPSE       25.52 TCPU      416.54
 CYC   0 ETOT(AU) -1.296001408842E+03 DETOT -1.30E+03 tst  0.00E+00 PX  1.00E+00
 TTTTTTTTTTTTTTTTTTTTTTTTTTTTTT DIIS        TELAPSE       25.55 TCPU      417.60
 TTTTTTTTTTTTTTTTTTTTTTTTTTTTTT FDIK        TELAPSE       26.03 TCPU      432.68
 INSULATING STATE
 TOP OF VALENCE BANDS -    BAND     99; K    1; EIG -2.8693310E-01 AU
 BOTTOM OF VIRTUAL BANDS - BAND    100; K   17; EIG -1.8688121E-01 AU
 INDIRECT ENERGY BAND GAP:   2.7226 eV
 BOTTOM OF VIRTUAL BANDS - BAND    100; K    1; EIG -1.2173830E-01 AU
 TTTTTTTTTTTTTTTTTTTTTTTTTTTTTT PDIG        TELAPSE       26.31 TCPU      438.82
 CHARGE NORMALIZATION FACTOR   1.00000000
 TOTAL ATOMIC CHARGES:
   4.1107023   4.1105649   4.1107611   4.1106082   4.1104569   4.1106302
   0.7865115   0.7866197   0.7864689   0.7865817   0.7864906   0.7866489
   0.7864803   0.7866118   0.7864697   0.7866491   0.7864621   0.7866140
   6.0606677   6.2740532   6.2739785   6.2739915   6.2739024   6.0598818
   6.0607213   6.2740281   6.2740737   6.2739329   6.2740806   6.0593902
   6.0610662   6.2737454   6.2742863   6.2736589   6.2742569   6.0593541
   8.7078517   8.7079567   8.7079000   8.7082325   8.7082577   8.7083999
 TTTTTTTTTTTTTTTTTTTTTTTTTTTTTT MOQGAD      TELAPSE       26.37 TCPU      438.88
 TTTTTTTTTTTTTTTTTTTTTTTTTTTTTT SHELLXN     TELAPSE       38.28 TCPU      819.03
 TTTTTTTTTTTTTTTTTTTTTTTTTTTTTT MONMO3      TELAPSE       38.47 TCPU      825.06
 NUMERICALLY INTEGRATED DENSITY    197.9999731748
 TTTTTTTTTTTTTTTTTTTTTTTTTTTTTT NUMDFT      TELAPSE       39.12 TCPU      845.80
 CYC   1 ETOT(AU) -1.288793117560E+03 DETOT  7.21E+00 tst  0.00E+00 PX  1.00E+00
 TTTTTTTTTTTTTTTTTTTTTTTTTTTTTT DIIS        TELAPSE       39.16 TCPU      847.17
 DIIS TEST: 0.11280E+01 AT SCF   CYCLE   1 - MIX   30 %
 TTTTTTTTTTTTTTTTTTTTTTTTTTTTTT FDIK        TELAPSE       39.64 TCPU      862.53
 INSULATING STATE
 TOP OF VALENCE BANDS -    BAND     99; K    1; EIG -1.8180786E-01 AU
 BOTTOM OF VIRTUAL BANDS - BAND    100; K   17; EIG -1.1121293E-01 AU
 INDIRECT ENERGY BAND GAP:   1.9210 eV
 BOTTOM OF VIRTUAL BANDS - BAND    100; K    1; EIG -3.5319709E-02 AU
 TTTTTTTTTTTTTTTTTTTTTTTTTTTTTT PDIG        TELAPSE       39.92 TCPU      868.67
 CHARGE NORMALIZATION FACTOR   1.00000000
 TOTAL ATOMIC CHARGES:
   4.6869277   4.6868467   4.6868474   4.6875617   4.6876158   4.6877092
   0.9267933   0.9268699   0.9267658   0.9268089   0.9267866   0.9268690
   0.9267767   0.9268452   0.9267537   0.9268825   0.9267314   0.9268607
   5.8660926   6.1200079   6.1205840   6.1198688   6.1205739   5.8690589
   5.8658861   6.1196965   6.1205726   6.1199965   6.1204348   5.8695193
   5.8660269   6.1200096   6.1204469   6.1201919   6.1202412   5.8692712
   8.3508890   8.3512982   8.3512448   8.3507311   8.3509288   8.3511763
 TTTTTTTTTTTTTTTTTTTTTTTTTTTTTT MOQGAD      TELAPSE       39.98 TCPU      868.72
 TTTTTTTTTTTTTTTTTTTTTTTTTTTTTT SHELLXN     TELAPSE       51.89 TCPU     1248.85
 TTTTTTTTTTTTTTTTTTTTTTTTTTTTTT MONMO3      TELAPSE       52.08 TCPU     1254.86
 NUMERICALLY INTEGRATED DENSITY    197.9999688936
 TTTTTTTTTTTTTTTTTTTTTTTTTTTTTT NUMDFT      TELAPSE       52.73 TCPU     1275.66
 CYC   2 ETOT(AU) -1.288985344241E+03 DETOT -1.92E-01 tst  4.89E-03 PX  1.55E-01
 TTTTTTTTTTTTTTTTTTTTTTTTTTTTTT DIIS        TELAPSE       52.78 TCPU     1277.13
 DIIS TEST: 0.51336E+00 AT SCF   CYCLE   2 - DIIS ACTIVE - HISTORY:     2 CYCLES
 TTTTTTTTTTTTTTTTTTTTTTTTTTTTTT FDIK        TELAPSE       53.26 TCPU     1292.42
 INSULATING STATE
 TOP OF VALENCE BANDS -    BAND     99; K    1; EIG -2.0147391E-01 AU
 BOTTOM OF VIRTUAL BANDS - BAND    100; K   17; EIG -1.0539231E-01 AU
 INDIRECT ENERGY BAND GAP:   2.6145 eV
 BOTTOM OF VIRTUAL BANDS - BAND    100; K    1; EIG -2.7124686E-02 AU
 TTTTTTTTTTTTTTTTTTTTTTTTTTTTTT PDIG        TELAPSE       53.54 TCPU     1298.56
 CHARGE NORMALIZATION FACTOR   1.00000000
 TOTAL ATOMIC CHARGES:
   4.4592584   4.4590549   4.4592278   4.4584331   4.4582851   4.4583588
   0.8949464   0.8950655   0.8949083   0.8950128   0.8948808   0.8951116
   0.8949447   0.8950204   0.8949107   0.8950749   0.8949510   0.8949997
   5.9011690   6.1687754   6.1677623   6.1686847   6.1676714   5.8989176
   5.9013575   6.1687759   6.1676798   6.1688577   6.1676364   5.8985257
   5.9015212   6.1687277   6.1678769   6.1686251   6.1676283   5.8985377
   8.5146766   8.5148410   8.5147950   8.5147494   8.5148373   8.5149257
 TTTTTTTTTTTTTTTTTTTTTTTTTTTTTT MOQGAD      TELAPSE       53.60 TCPU     1298.61
 TTTTTTTTTTTTTTTTTTTTTTTTTTTTTT SHELLXN     TELAPSE       65.51 TCPU     1678.88
 TTTTTTTTTTTTTTTTTTTTTTTTTTTTTT MONMO3      TELAPSE       65.70 TCPU     1684.90
 NUMERICALLY INTEGRATED DENSITY    197.9999679268
 TTTTTTTTTTTTTTTTTTTTTTTTTTTTTT NUMDFT      TELAPSE       66.35 TCPU     1705.63
 CYC   3 ETOT(AU) -1.289093732627E+03 DETOT -1.08E-01 tst  7.02E-04 PX  5.59E-02
 TTTTTTTTTTTTTTTTTTTTTTTTTTTTTT DIIS        TELAPSE       66.41 TCPU     1707.43
 DIIS TEST: 0.99052E-02 AT SCF   CYCLE   3 - DIIS ACTIVE - HISTORY:     3 CYCLES
 TTTTTTTTTTTTTTTTTTTTTTTTTTTTTT FDIK        TELAPSE       66.89 TCPU     1722.76
 INSULATING STATE
 TOP OF VALENCE BANDS -    BAND     99; K    1; EIG -2.0935081E-01 AU
 BOTTOM OF VIRTUAL BANDS - BAND    100; K   17; EIG -1.1647996E-01 AU
 INDIRECT ENERGY BAND GAP:   2.5271 eV
 BOTTOM OF VIRTUAL BANDS - BAND    100; K    1; EIG -3.9583337E-02 AU
 TTTTTTTTTTTTTTTTTTTTTTTTTTTTTT PDIG        TELAPSE       67.17 TCPU     1728.89
 CHARGE NORMALIZATION FACTOR   1.00000000
 TOTAL ATOMIC CHARGES:
   4.4691733   4.4690687   4.4691795   4.4704347   4.4703581   4.4704860
   0.8805653   0.8806212   0.8805349   0.8805552   0.8805598   0.8806141
   0.8805813   0.8805604   0.8805492   0.8806110   0.8805502   0.8805658
   5.9543137   6.1574239   6.1595587   6.1573135   6.1595721   5.9609271
   5.9539090   6.1571410   6.1596779   6.1572240   6.1596985   5.9613129
   5.9542103   6.1573115   6.1597056   6.1571955   6.1595556   5.9610790
   8.4942508   8.4945973   8.4945340   8.4944562   8.4945913   8.4948717
 TTTTTTTTTTTTTTTTTTTTTTTTTTTTTT MOQGAD      TELAPSE       67.23 TCPU     1728.95
 TTTTTTTTTTTTTTTTTTTTTTTTTTTTTT SHELLXN     TELAPSE       79.16 TCPU     2109.50
 TTTTTTTTTTTTTTTTTTTTTTTTTTTTTT MONMO3      TELAPSE       79.34 TCPU     2115.53
 NUMERICALLY INTEGRATED DENSITY    197.9999681294
 TTTTTTTTTTTTTTTTTTTTTTTTTTTTTT NUMDFT      TELAPSE       79.99 TCPU     2136.22
 CYC   4 ETOT(AU) -1.289095656144E+03 DETOT -1.92E-03 tst  4.07E-05 PX  1.34E-02
 TTTTTTTTTTTTTTTTTTTTTTTTTTTTTT DIIS        TELAPSE       80.05 TCPU     2138.03
 DIIS TEST: 0.36236E-02 AT SCF   CYCLE   4 - DIIS ACTIVE - HISTORY:     4 CYCLES
 TTTTTTTTTTTTTTTTTTTTTTTTTTTTTT FDIK        TELAPSE       80.53 TCPU     2153.36
 INSULATING STATE
 TOP OF VALENCE BANDS -    BAND     99; K    1; EIG -2.0895843E-01 AU
 BOTTOM OF VIRTUAL BANDS - BAND    100; K   17; EIG -1.1460630E-01 AU
 INDIRECT ENERGY BAND GAP:   2.5675 eV
 BOTTOM OF VIRTUAL BANDS - BAND    100; K    1; EIG -3.7370375E-02 AU
 TTTTTTTTTTTTTTTTTTTTTTTTTTTTTT PDIG        TELAPSE       80.81 TCPU     2159.49
 CHARGE NORMALIZATION FACTOR   1.00000000
 TOTAL ATOMIC CHARGES:
   4.4709033   4.4707120   4.4708754   4.4696038   4.4694829   4.4695664
   0.8826709   0.8828764   0.8826289   0.8828261   0.8826125   0.8829189
   0.8826491   0.8828508   0.8826263   0.8828949   0.8826428   0.8828358
   5.9303497   6.1695381   6.1669597   6.1694493   6.1668997   5.9239780
   5.9305911   6.1694980   6.1668730   6.1697008   6.1667417   5.9236290
   5.9307016   6.1695085   6.1670358   6.1695376   6.1667024   5.9236354
   8.5007331   8.5009181   8.5008528   8.5005531   8.5006737   8.5007626
 TTTTTTTTTTTTTTTTTTTTTTTTTTTTTT MOQGAD      TELAPSE       80.86 TCPU     2159.55
 TTTTTTTTTTTTTTTTTTTTTTTTTTTTTT SHELLXN     TELAPSE       92.78 TCPU     2539.79
 TTTTTTTTTTTTTTTTTTTTTTTTTTTTTT MONMO3      TELAPSE       92.97 TCPU     2545.82
 NUMERICALLY INTEGRATED DENSITY    197.9999682632
 TTTTTTTTTTTTTTTTTTTTTTTTTTTTTT NUMDFT      TELAPSE       93.61 TCPU     2566.51
 CYC   5 ETOT(AU) -1.289096414993E+03 DETOT -7.59E-04 tst  1.03E-05 PX  8.20E-03
 TTTTTTTTTTTTTTTTTTTTTTTTTTTTTT DIIS        TELAPSE       93.68 TCPU     2568.51
 DIIS TEST: 0.31451E-03 AT SCF   CYCLE   5 - DIIS ACTIVE - HISTORY:     5 CYCLES
 TTTTTTTTTTTTTTTTTTTTTTTTTTTTTT FDIK        TELAPSE       94.15 TCPU     2583.77
 INSULATING STATE
 TOP OF VALENCE BANDS -    BAND     99; K    1; EIG -2.0848014E-01 AU
 BOTTOM OF VIRTUAL BANDS - BAND    100; K   17; EIG -1.1417205E-01 AU
 INDIRECT ENERGY BAND GAP:   2.5663 eV
 BOTTOM OF VIRTUAL BANDS - BAND    100; K    1; EIG -3.6909036E-02 AU
 TTTTTTTTTTTTTTTTTTTTTTTTTTTTTT PDIG        TELAPSE       94.44 TCPU     2589.90
 CHARGE NORMALIZATION FACTOR   1.00000000
 TOTAL ATOMIC CHARGES:
   4.4686756   4.4685488   4.4686701   4.4705715   4.4704883   4.4705983
   0.8840220   0.8839897   0.8839895   0.8839299   0.8839966   0.8839998
   0.8840381   0.8839285   0.8839997   0.8839882   0.8840199   0.8839264
   5.9241905   6.1641476   6.1680149   6.1640516   6.1679673   5.9352495
   5.9238726   6.1639649   6.1680663   6.1639434   6.1681573   5.9354714
   5.9241665   6.1640754   6.1681318   6.1638392   6.1680591   5.9352910
   8.5002641   8.5005785   8.5005340   8.5007079   8.5008110   8.5010635
 TTTTTTTTTTTTTTTTTTTTTTTTTTTTTT MOQGAD      TELAPSE       94.49 TCPU     2589.96
 TTTTTTTTTTTTTTTTTTTTTTTTTTTTTT SHELLXN     TELAPSE      106.41 TCPU     2970.14
 TTTTTTTTTTTTTTTTTTTTTTTTTTTTTT MONMO3      TELAPSE      106.60 TCPU     2976.17
 NUMERICALLY INTEGRATED DENSITY    197.9999682496
 TTTTTTTTTTTTTTTTTTTTTTTTTTTTTT NUMDFT      TELAPSE      107.24 TCPU     2996.86
 CYC   6 ETOT(AU) -1.289096376363E+03 DETOT  3.86E-05 tst  5.76E-06 PX  2.79E-03
 TTTTTTTTTTTTTTTTTTTTTTTTTTTTTT DIIS        TELAPSE      107.31 TCPU     2999.05
 DIIS TEST: 0.44091E-03 AT SCF   CYCLE   6 - DIIS ACTIVE - HISTORY:     6 CYCLES
 TTTTTTTTTTTTTTTTTTTTTTTTTTTTTT FDIK        TELAPSE      107.79 TCPU     3014.31
 INSULATING STATE
 TOP OF VALENCE BANDS -    BAND     99; K    1; EIG -2.0846497E-01 AU
 BOTTOM OF VIRTUAL BANDS - BAND    100; K   17; EIG -1.1418422E-01 AU
 INDIRECT ENERGY BAND GAP:   2.5655 eV
 BOTTOM OF VIRTUAL BANDS - BAND    100; K    1; EIG -3.6926018E-02 AU
 TTTTTTTTTTTTTTTTTTTTTTTTTTTTTT PDIG        TELAPSE      108.07 TCPU     3020.45
 CHARGE NORMALIZATION FACTOR   1.00000000
 TOTAL ATOMIC CHARGES:
   4.4697617   4.4696094   4.4697486   4.4696395   4.4695397   4.4696410
   0.8840088   0.8841369   0.8839742   0.8840786   0.8839754   0.8841551
   0.8840108   0.8840891   0.8839817   0.8841387   0.8839955   0.8840829
   5.9309339   6.1656861   6.1654104   6.1655802   6.1653768   5.9309223
   5.9308388   6.1655299   6.1654325   6.1656467   6.1653932   5.9309241
   5.9310642   6.1656013   6.1655397   6.1655290   6.1653101   5.9308098
   8.5001483   8.5004043   8.5003460   8.5001967   8.5003141   8.5004943
 TTTTTTTTTTTTTTTTTTTTTTTTTTTTTT MOQGAD      TELAPSE      108.12 TCPU     3020.50
 TTTTTTTTTTTTTTTTTTTTTTTTTTTTTT SHELLXN     TELAPSE      120.03 TCPU     3400.49
 TTTTTTTTTTTTTTTTTTTTTTTTTTTTTT MONMO3      TELAPSE      120.22 TCPU     3406.51
 NUMERICALLY INTEGRATED DENSITY    197.9999682272
 TTTTTTTTTTTTTTTTTTTTTTTTTTTTTT NUMDFT      TELAPSE      120.87 TCPU     3427.19
 CYC   7 ETOT(AU) -1.289096493127E+03 DETOT -1.17E-04 tst  2.26E-06 PX  1.66E-03
 TTTTTTTTTTTTTTTTTTTTTTTTTTTTTT DIIS        TELAPSE      120.94 TCPU     3429.55
 DIIS TEST: 0.35344E-05 AT SCF   CYCLE   7 - DIIS ACTIVE - HISTORY:     7 CYCLES
 TTTTTTTTTTTTTTTTTTTTTTTTTTTTTT FDIK        TELAPSE      121.42 TCPU     3444.86
 INSULATING STATE
 TOP OF VALENCE BANDS -    BAND     99; K    1; EIG -2.0856597E-01 AU
 BOTTOM OF VIRTUAL BANDS - BAND    100; K   17; EIG -1.1427219E-01 AU
 INDIRECT ENERGY BAND GAP:   2.5659 eV
 BOTTOM OF VIRTUAL BANDS - BAND    100; K    1; EIG -3.7011240E-02 AU
 TTTTTTTTTTTTTTTTTTTTTTTTTTTTTT PDIG        TELAPSE      121.70 TCPU     3451.00
 CHARGE NORMALIZATION FACTOR   1.00000000
 TOTAL ATOMIC CHARGES:
   4.4699783   4.4698098   4.4699586   4.4699711   4.4698628   4.4699566
   0.8838192   0.8839262   0.8837808   0.8838719   0.8837737   0.8839562
   0.8838116   0.8838876   0.8837832   0.8839369   0.8838004   0.8838775
   5.9301346   6.1658698   6.1658983   6.1657782   6.1658483   5.9308437
   5.9301740   6.1657733   6.1658634   6.1659055   6.1658050   5.9307089
   5.9303499   6.1658239   6.1659900   6.1657681   6.1657418   5.9306444
   8.5000560   8.5002907   8.5002302   8.5001177   8.5002358   8.5003859
 TTTTTTTTTTTTTTTTTTTTTTTTTTTTTT MOQGAD      TELAPSE      121.76 TCPU     3451.06
 TTTTTTTTTTTTTTTTTTTTTTTTTTTTTT SHELLXN     TELAPSE      133.67 TCPU     3831.09
 TTTTTTTTTTTTTTTTTTTTTTTTTTTTTT MONMO3      TELAPSE      133.86 TCPU     3837.12
 NUMERICALLY INTEGRATED DENSITY    197.9999682247
 TTTTTTTTTTTTTTTTTTTTTTTTTTTTTT NUMDFT      TELAPSE      134.51 TCPU     3857.85
 CYC   8 ETOT(AU) -1.289096494083E+03 DETOT -9.56E-07 tst  7.62E-09 PX  1.91E-04
 TTTTTTTTTTTTTTTTTTTTTTTTTTTTTT DIIS        TELAPSE      134.59 TCPU     3860.32
 DIIS TEST: 0.12115E-06 AT SCF   CYCLE   8 - DIIS ACTIVE - HISTORY:     8 CYCLES
 TTTTTTTTTTTTTTTTTTTTTTTTTTTTTT FDIK        TELAPSE      135.07 TCPU     3875.60
 INSULATING STATE
 TOP OF VALENCE BANDS -    BAND     99; K    1; EIG -2.0854506E-01 AU
 BOTTOM OF VIRTUAL BANDS - BAND    100; K   17; EIG -1.1427533E-01 AU
 INDIRECT ENERGY BAND GAP:   2.5652 eV
 BOTTOM OF VIRTUAL BANDS - BAND    100; K    1; EIG -3.7010932E-02 AU
 TTTTTTTTTTTTTTTTTTTTTTTTTTTTTT PDIG        TELAPSE      135.35 TCPU     3881.74
 CHARGE NORMALIZATION FACTOR   1.00000000
 TOTAL ATOMIC CHARGES:
   4.4699329   4.4697868   4.4699216   4.4699180   4.4698228   4.4699253
   0.8838353   0.8839573   0.8838008   0.8838991   0.8838027   0.8839745
   0.8838395   0.8839070   0.8838083   0.8839590   0.8838237   0.8839015
   5.9303099   6.1658438   6.1657647   6.1657421   6.1657259   5.9308051
   5.9301718   6.1656866   6.1657886   6.1657703   6.1657815   5.9308490
   5.9304082   6.1657665   6.1658866   6.1656550   6.1656958   5.9307239
   8.5001143   8.5003822   8.5003279   8.5001879   8.5003009   8.5004955
 TTTTTTTTTTTTTTTTTTTTTTTTTTTTTT MOQGAD      TELAPSE      135.40 TCPU     3881.79
 TTTTTTTTTTTTTTTTTTTTTTTTTTTTTT SHELLXN     TELAPSE      147.31 TCPU     4261.78
 +++ ENERGIES IN A.U. +++
 ::: EXT EL-POLE                                  -1.5095177853371E+03
 ::: EXT EL-SPHEROPOLE                             1.6820437332599E+01
 ::: BIELET ZONE E-E                               2.4825116222324E+03
 ::: TOTAL E-E                                     9.8981427422781E+02
 ::: TOTAL E-N + N-E                              -3.8036187648581E+03
 ::: TOTAL N-N                                     3.7841390169314E+02
 ::: KINETIC ENERGY                                1.2800321259411E+03
 ::: PSEUDO TOTAL   ENERGY                        -1.1553584629961E+03
 ::: VIRIAL COEFFICIENT                            1.0511924713478E+00
 TTTTTTTTTTTTTTTTTTTTTTTTTTTTTT MONMO3      TELAPSE      147.50 TCPU     4267.80
 NUMERICALLY INTEGRATED DENSITY    197.9999682238
 EXCHANGE ENERGY: -0.126027104043E+03  CORRELATION ENERGY: -0.771092697749E+01
 TTTTTTTTTTTTTTTTTTTTTTTTTTTTTT NUMDFT      TELAPSE      148.15 TCPU     4288.50
 CYC   9 ETOT(AU) -1.289096494017E+03 DETOT  6.62E-08 tst  4.12E-10 PX  1.91E-04

 == SCF ENDED - CONVERGENCE ON ENERGY      E(AU) -1.2890964940166E+03 CYCLES   9


 ENERGY EXPRESSION=HARTREE+FOCK EXCH*0.00000+(HSESOL     EXCH)*1.00000+PBESOL     CORR


 TOTAL ENERGY(DFT)(AU)(  9) -1.2890964940166E+03 DE 6.6E-08 tester 4.1E-10
 TTTTTTTTTTTTTTTTTTTTTTTTTTTTTT EDFT        TELAPSE      148.15 TCPU     4288.51
 
 INFORMATION **** DFTD3 ENERGY **** CALCULATE DFTD3 ENERGY

           DFT-D V3(BJ)
 DF                                         hsesol3c  
 parameters
 s6       :    1.0000
 s8       :    0.0000
 a1       :    0.5196
 a2       :    4.9385
 k1 k3    :   16.0000   -4.0000
 Cutoff   :   50.2022
 CN-Cutoff:   21.1671
 ABC-Cutoff:   21.1671
 
 Edisp /kcal,au:   -31.7251 -0.05055718

 E6    /kcal :   -34.0122
 E8    /kcal :     0.0000
 E6(ABC) "   :   2.287107
 
 INFORMATION **** DFTD3 ENERGY **** NORMAL TERMINATION OF DFTD3 MODULE

 GCP ENERGY CALCULATION
  level        hsesol3c            basis:hsesol3c
  Nbf            474
  Atoms           42

  Parameters: 
  sigma     1.0000
  eta       1.4281
  alpha     0.2936
  beta      1.9467

  dmp_scal      4.0000
  dmp_exp       6.0000
 cutoffs: 
   distance [bohr] 60.0
   noise    [a.u.] 2.2E-16
 SR-damping   T
 ** gCP correction **
  Egcp:        0.0842359437 / (a.u.) ||      52.8589 / (kcal/mol)
 INFORMATION **** GCP **** NORMAL TERMINATION OF GCP MODULE

 *******************************************************************************

 DFT-D3-GCP DISPERSION AND COUNTERPOISE CORRECTION

 D3 DISPERSION ENERGY (AU)      -5.0557175916867E-02
 GCP ENERGY (AU)                 8.4235943673781E-02
 TOTAL ENERGY + DISP + GCP (AU) -1.2890628152489E+03

 *******************************************************************************

 EIGENVECTORS IN FORTRAN UNIT 10
 TTTTTTTTTTTTTTTTTTTTTTTTTTTTTT END         TELAPSE      149.58 TCPU     4295.90
 EEEEEEEEEE TERMINATION  DATE 19 02 2026 TIME 18:15:19.9
