 Default number of threads is:           32

         
 *******************************************************************************
 *                                                                             *
 *                               CRYSTAL23                                     *
 *                      public : 1.0.1 - October 2022                          *
 *                       HTTP://WWW.CRYSTAL.UNITO.IT                           *
 *                                                                             *
 *                              MAIN AUTHORS                                   *
 *                                                                             *
 *  R. DOVESI(1,11), V.R. SAUNDERS(2), C. ROETTI(1,11), R. ORLANDO(1,11),      *
 *  C.M. ZICOVICH-WILSON(1,3), F. PASCALE(4), B. CIVALLERI(1,11),              *
 *  K. DOLL(5), N.M. HARRISON(6), I.J. BUSH(7), Ph. D'ARCO(8),                 *
 *  M. LLUNELL(9), M. CAUSA'(10), Y. NOEL(8), L. MASCHIO(1,11), A. ERBA(1,11)  *
 *  M. RE'RAT(14), S. CASASSA(1,11), B.G. SEARLE(2), J.K. DESMARAIS(1)         *
 *                                                                             *
 *        CONTRIBUTIONS TO THE CODE HAVE ALSO BEEN GIVEN BY                    *
 *                                                                             *
 *  M. FERRABONE(1,11), M. DE LA PIERRE(1,11), M. FERRERO(1,11),               *
 *  J. BAIMA(1,11), E. ALBANESE(1,11), M.F. PEINTINGER(12), R. BAST(13),       *
 *  B. KIRTMAN(15), V. LACIVITA(1,11), R. DEMICHELIS(1,16)                     *
 *  G. BRANDEBURG(17), S. SALUSTRO(1,11), G. SANSONE(1,11)                     *
 *  M.T. RUGGIERO(18), L.E. DAGA(1), L. DONA'(1), A. COSSARD(1)                *
 *                                                                             *
 * (1) THEORETICAL CHEMISTRY GROUP - UNIVERSITA' DI TORINO - TORINO (ITALY)    *
 * (2) SCIENTIFIC COMPUTING DEPARTMENT - STFC DARESBURY (UK)                   *
 * (3) UNIVERSIDAD AUTONOMA DEL ESTADO DE MORELOS - CUERNAVACA (MEXICO)        *
 * (4) UNIVERSITE' DE LORRAINE - NANCY (FRANCE)                                *
 * (5) UNIVERSITAET STUTTGART- STUTTGART (GERMANY)                             *
 * (6) IMPERIAL COLLEGE - LONDON (UK)                                          *
 * (7) SCIENTIFIC COMPUTING DEPARTMENT - STFC RAL (UK)                         *
 * (8) UPMC - SORBONNE UNIVERSITES - PARIS (FRANCE)                            *
 * (9) UNIVERSIDAD DE BARCELONA - BARCELONA (SPAIN)                            *
 *(10) UNIVERSITA' DI NAPOLI "FEDERICO II" - NAPOLI (ITALY)                    *
 *(11) NIS - NANOSTRUCTURED INTERFACES AND SURFACES - TORINO (ITALY)           *
 *(12) MPI FUER CHEMISCHE ENERGIEKONVERSION - MUELHEIM AN DER RUHR (GERMANY)   *
 *(13) UNIVERSITY OF TROMSO - TROMSO (NORWAY)                                  *
 *(14) UNIVERSITE' DE PAU ET DES PAYS DE L'ADOUR - PAU (FRANCE)                *
 *(15) UNIVERSITY OF CALIFORNIA SANTA BARBARA - SANTA BARBARA (USA)            *
 *(16) CURTIN UNIVERSITY - PERTH (AUSTRALIA)                                   *
 *(17) UNIVERSITY COLLEGE LONDON - LONDON (UK)                                 *
 *(18) UNIVERSITY OF VERMONT - BURLINGTON (USA)                                *
 *                                                                             *
 *******************************************************************************
 EEEEEEEEEE STARTING  DATE 19 02 2026 TIME 19:43:23.7
 cof-1_z31_L070_serr                                                             

 CRYSTAL CALCULATION
 (INPUT ACCORDING TO THE INTERNATIONAL TABLES FOR X-RAY CRYSTALLOGRAPHY)
 CRYSTAL FAMILY                       :  TRICLINIC   
 CRYSTAL CLASS  (GROTH - 1921)        :  TRICLINIC PEDIAL                     

 SPACE GROUP (NONCENTROSYMMETRIC)     :  P 1             

 LATTICE PARAMETERS  (ANGSTROMS AND DEGREES) - CONVENTIONAL CELL
        A           B           C        ALPHA        BETA       GAMMA
    15.02361    15.02392     6.20000    90.00032    89.99994   119.99596


 NUMBER OF IRREDUCIBLE ATOMS IN THE CONVENTIONAL CELL:   84

 INPUT COORDINATES

 ATOM AT. N.              COORDINATES
   1   5     6.136805400000E-01  2.273182200000E-01  2.507704400000E-01
   2   5     8.826434800000E-01  7.652987900000E-01  7.507704400000E-01
   3   5     7.727362000000E-01  3.863778800000E-01  2.507704500000E-01
   4   5     4.169914000000E-02  9.243584500000E-01  7.507704500000E-01
   5   5     6.136762700000E-01  3.863606700000E-01  2.491505800000E-01
   6   5     8.826392100000E-01  9.243412400000E-01  7.491505800000E-01
   7   5     2.272552500000E-01  6.136332200000E-01  2.507704500000E-01
   8   5     4.962181900000E-01  1.516137900000E-01  7.507704500000E-01
   9   5     3.863632200000E-01  6.136124500000E-01  2.507704400000E-01
  10   5     6.553261600000E-01  1.515930200000E-01  7.507704400000E-01
  11   5     3.863435000000E-01  7.727516500000E-01  2.491505800000E-01
  12   5     6.553064400000E-01  3.107322200000E-01  7.491505800000E-01
  13   1     9.030436200000E-01  3.089300500000E-01  2.474121300000E-01
  14   1     1.720065600000E-01  8.469106200000E-01  7.474121300000E-01
  15   1     9.663453000000E-02  6.910534400000E-01  2.468985900000E-01
  16   1     3.655974700000E-01  2.290340100000E-01  7.468985900000E-01
  17   1     9.029714200000E-01  5.940724300000E-01  2.468195500000E-01
  18   1     1.719343600000E-01  1.320530000000E-01  7.468195500000E-01
  19   1     9.673618000000E-02  4.056849400000E-01  2.468392700000E-01
  20   1     3.656991200000E-01  9.436655100000E-01  7.468392700000E-01
  21   1     6.910324000000E-01  9.700412000000E-02  2.525878900000E-01
  22   1     9.599953400000E-01  6.349846900000E-01  7.525878900000E-01
  23   1     3.089297200000E-01  9.034373100000E-01  2.531014700000E-01
  24   1     5.778926600000E-01  4.414178800000E-01  7.531014700000E-01
  25   1     4.058699900000E-01  9.704998000000E-02  2.531805500000E-01
  26   1     6.748329300000E-01  6.350305500000E-01  7.531805600000E-01
  27   1     5.943122100000E-01  9.033473200000E-01  2.531607000000E-01
  28   1     8.632751500000E-01  4.413278900000E-01  7.531607000000E-01
  29   1     6.910727400000E-01  5.940542100000E-01  2.474121600000E-01
  30   1     9.600356800000E-01  1.320347800000E-01  7.474121600000E-01
  31   1     3.089618300000E-01  4.056093300000E-01  2.468985500000E-01
  32   1     5.779247700000E-01  9.435899000000E-01  7.468985500000E-01
  33   1     4.058405700000E-01  3.088232500000E-01  2.468194900000E-01
  34   1     6.748035100000E-01  8.468038200000E-01  7.468194900000E-01
  35   1     5.942908800000E-01  6.909579300000E-01  2.468393300000E-01
  36   1     8.632538200000E-01  2.289385000000E-01  7.468393300000E-01
  37   6     8.918903100000E-01  4.459436900000E-01  2.490913100000E-01
  38   6     1.608532500000E-01  9.839242600000E-01  7.490913000000E-01
  39   6     9.464891100000E-01  3.927856300000E-01  2.474911700000E-01
  40   6     2.154520500000E-01  9.307662000000E-01  7.474911700000E-01
  41   6     5.338812000000E-02  6.071853000000E-01  2.473529300000E-01
  42   6     3.223510600000E-01  1.451658700000E-01  7.473529300000E-01
  43   6     9.464521100000E-01  5.536921900000E-01  2.477677700000E-01
  44   6     2.154150500000E-01  9.167276000000E-02  7.477677700000E-01
  45   6     5.342634000000E-02  4.462499700000E-01  2.467009900000E-01
  46   6     3.223892800000E-01  9.842305400000E-01  7.467009900000E-01
  47   6     1.080358900000E-01  5.540356300000E-01  2.477875100000E-01
  48   6     3.769988300000E-01  9.201620000000E-02  7.477875100000E-01
  49   6     5.540394200000E-01  1.081684600000E-01  2.509087300000E-01
  50   6     8.230023600000E-01  6.461490300000E-01  7.509087300000E-01
  51   6     6.071778500000E-01  5.355594000000E-02  2.525088500000E-01
  52   6     8.761407900000E-01  5.915365100000E-01  7.525088500000E-01
  53   6     3.927986700000E-01  9.466631600000E-01  2.526471400000E-01
  54   6     6.617616100000E-01  4.846437300000E-01  7.526471400000E-01
  55   6     4.462875800000E-01  5.360286000000E-02  2.522323000000E-01
  56   6     7.152505200000E-01  5.915834300000E-01  7.522323000000E-01
  57   6     5.537168500000E-01  9.466235600000E-01  2.532990200000E-01
  58   6     8.226797900000E-01  4.846041300000E-01  7.532990100000E-01
  59   6     4.459279100000E-01  8.919920600000E-01  2.522125300000E-01
  60   6     7.148908500000E-01  4.299726300000E-01  7.522125300000E-01
  61   6     5.540448700000E-01  4.458745500000E-01  2.490913100000E-01
  62   6     8.230078100000E-01  9.838551200000E-01  7.490913000000E-01
  63   6     6.072102200000E-01  5.536257800000E-01  2.474911900000E-01
  64   6     8.761731600000E-01  9.160635000000E-02  7.474912000000E-01
  65   6     3.928233700000E-01  4.461720300000E-01  2.473529000000E-01
  66   6     6.617863100000E-01  9.841526000000E-01  7.473529000000E-01
  67   6     4.462872600000E-01  3.926899900000E-01  2.477677300000E-01
  68   6     7.152502000000E-01  9.306705600000E-01  7.477677300000E-01
  69   6     5.537429600000E-01  6.070980000000E-01  2.467010200000E-01
  70   6     8.227059000000E-01  1.450785700000E-01  7.467010300000E-01
  71   6     4.459599800000E-01  5.539582300000E-01  2.477875100000E-01
  72   6     7.149229200000E-01  9.193880000000E-02  7.477875100000E-01
  73   8     5.607366800000E-01  2.803706300000E-01  2.495851700000E-01
  74   8     8.296996200000E-01  8.183512000000E-01  7.495851700000E-01
  75   8     7.196817000000E-01  2.803783300000E-01  2.530027000000E-01
  76   8     9.886446400000E-01  8.183589000000E-01  7.530027000000E-01
  77   8     7.196794200000E-01  4.393234600000E-01  2.478467900000E-01
  78   8     9.886423600000E-01  9.773040300000E-01  7.478467900000E-01
  79   8     2.803245100000E-01  7.196511100000E-01  2.495851900000E-01
  80   8     5.492874500000E-01  2.576316800000E-01  7.495851900000E-01
  81   8     2.803439700000E-01  5.606956100000E-01  2.530027000000E-01
  82   8     5.493069100000E-01  9.867618000000E-02  7.530027000000E-01
  83   8     4.392638400000E-01  7.196354200000E-01  2.478467700000E-01
  84   8     7.082267800000E-01  2.576159900000E-01  7.478467800000E-01

 *******************************************************************************

 << INFORMATION >>: FROM NOW ON, ALL COORDINATES REFER TO THE PRIMITIVE CELL

 *******************************************************************************

 LATTICE PARAMETERS  (ANGSTROMS AND DEGREES) - PRIMITIVE CELL
       A          B          C        ALPHA      BETA     GAMMA        VOLUME
   15.02361   15.02392    6.20000    90.00032  89.99994 119.99596   1211.985598

 COORDINATES OF THE EQUIVALENT ATOMS (FRACTIONAL UNITS)

 N. ATOM EQUIV AT. N.          X                  Y                  Z

   1   1   1    5 B    -3.86319460000E-01  2.27318220000E-01  2.50770440000E-01

   2   2   1    5 B    -1.17356520000E-01 -2.34701210000E-01 -2.49229560000E-01

   3   3   1    5 B    -2.27263800000E-01  3.86377880000E-01  2.50770450000E-01

   4   4   1    5 B     4.16991400000E-02 -7.56415500000E-02 -2.49229550000E-01

   5   5   1    5 B    -3.86323730000E-01  3.86360670000E-01  2.49150580000E-01

   6   6   1    5 B    -1.17360790000E-01 -7.56587600000E-02 -2.50849420000E-01

   7   7   1    5 B     2.27255250000E-01 -3.86366780000E-01  2.50770450000E-01

   8   8   1    5 B     4.96218190000E-01  1.51613790000E-01 -2.49229550000E-01

   9   9   1    5 B     3.86363220000E-01 -3.86387550000E-01  2.50770440000E-01

  10  10   1    5 B    -3.44673840000E-01  1.51593020000E-01 -2.49229560000E-01

  11  11   1    5 B     3.86343500000E-01 -2.27248350000E-01  2.49150580000E-01

  12  12   1    5 B    -3.44693560000E-01  3.10732220000E-01 -2.50849420000E-01

  13  13   1    1 H    -9.69563800000E-02  3.08930050000E-01  2.47412130000E-01

  14  14   1    1 H     1.72006560000E-01 -1.53089380000E-01 -2.52587870000E-01

  15  15   1    1 H     9.66345300000E-02 -3.08946560000E-01  2.46898590000E-01

  16  16   1    1 H     3.65597470000E-01  2.29034010000E-01 -2.53101410000E-01

  17  17   1    1 H    -9.70285800000E-02 -4.05927570000E-01  2.46819550000E-01

  18  18   1    1 H     1.71934360000E-01  1.32053000000E-01 -2.53180450000E-01

  19  19   1    1 H     9.67361800000E-02  4.05684940000E-01  2.46839270000E-01

  20  20   1    1 H     3.65699120000E-01 -5.63344900000E-02 -2.53160730000E-01

  21  21   1    1 H    -3.08967600000E-01  9.70041200000E-02  2.52587890000E-01

  22  22   1    1 H    -4.00046600000E-02 -3.65015310000E-01 -2.47412110000E-01

  23  23   1    1 H     3.08929720000E-01 -9.65626900000E-02  2.53101470000E-01

  24  24   1    1 H    -4.22107340000E-01  4.41417880000E-01 -2.46898530000E-01

  25  25   1    1 H     4.05869990000E-01  9.70499800000E-02  2.53180550000E-01

  26  26   1    1 H    -3.25167070000E-01 -3.64969450000E-01 -2.46819440000E-01

  27  27   1    1 H    -4.05687790000E-01 -9.66526800000E-02  2.53160700000E-01

  28  28   1    1 H    -1.36724850000E-01  4.41327890000E-01 -2.46839300000E-01

  29  29   1    1 H    -3.08927260000E-01 -4.05945790000E-01  2.47412160000E-01

  30  30   1    1 H    -3.99643200000E-02  1.32034780000E-01 -2.52587840000E-01

  31  31   1    1 H     3.08961830000E-01  4.05609330000E-01  2.46898550000E-01

  32  32   1    1 H    -4.22075230000E-01 -5.64101000000E-02 -2.53101450000E-01

  33  33   1    1 H     4.05840570000E-01  3.08823250000E-01  2.46819490000E-01

  34  34   1    1 H    -3.25196490000E-01 -1.53196180000E-01 -2.53180510000E-01

  35  35   1    1 H    -4.05709120000E-01 -3.09042070000E-01  2.46839330000E-01

  36  36   1    1 H    -1.36746180000E-01  2.28938500000E-01 -2.53160670000E-01

  37  37   1    6 C    -1.08109690000E-01  4.45943690000E-01  2.49091310000E-01

  38  38   1    6 C     1.60853250000E-01 -1.60757400000E-02 -2.50908700000E-01

  39  39   1    6 C    -5.35108900000E-02  3.92785630000E-01  2.47491170000E-01

  40  40   1    6 C     2.15452050000E-01 -6.92338000000E-02 -2.52508830000E-01

  41  41   1    6 C     5.33881200000E-02 -3.92814700000E-01  2.47352930000E-01

  42  42   1    6 C     3.22351060000E-01  1.45165870000E-01 -2.52647070000E-01

  43  43   1    6 C    -5.35478900000E-02 -4.46307810000E-01  2.47767770000E-01

  44  44   1    6 C     2.15415050000E-01  9.16727600000E-02 -2.52232230000E-01

  45  45   1    6 C     5.34263400000E-02  4.46249970000E-01  2.46700990000E-01

  46  46   1    6 C     3.22389280000E-01 -1.57694600000E-02 -2.53299010000E-01

  47  47   1    6 C     1.08035890000E-01 -4.45964370000E-01  2.47787510000E-01

  48  48   1    6 C     3.76998830000E-01  9.20162000000E-02 -2.52212490000E-01

  49  49   1    6 C    -4.45960580000E-01  1.08168460000E-01  2.50908730000E-01

  50  50   1    6 C    -1.76997640000E-01 -3.53850970000E-01 -2.49091270000E-01

  51  51   1    6 C    -3.92822150000E-01  5.35559400000E-02  2.52508850000E-01

  52  52   1    6 C    -1.23859210000E-01 -4.08463490000E-01 -2.47491150000E-01

  53  53   1    6 C     3.92798670000E-01 -5.33368400000E-02  2.52647140000E-01

  54  54   1    6 C    -3.38238390000E-01  4.84643730000E-01 -2.47352860000E-01

  55  55   1    6 C     4.46287580000E-01  5.36028600000E-02  2.52232300000E-01

  56  56   1    6 C    -2.84749480000E-01 -4.08416570000E-01 -2.47767700000E-01

  57  57   1    6 C    -4.46283150000E-01 -5.33764400000E-02  2.53299020000E-01

  58  58   1    6 C    -1.77320210000E-01  4.84604130000E-01 -2.46700990000E-01

  59  59   1    6 C     4.45927910000E-01 -1.08007940000E-01  2.52212530000E-01

  60  60   1    6 C    -2.85109150000E-01  4.29972630000E-01 -2.47787470000E-01

  61  61   1    6 C    -4.45955130000E-01  4.45874550000E-01  2.49091310000E-01

  62  62   1    6 C    -1.76992190000E-01 -1.61448800000E-02 -2.50908700000E-01

  63  63   1    6 C    -3.92789780000E-01 -4.46374220000E-01  2.47491190000E-01

  64  64   1    6 C    -1.23826840000E-01  9.16063500000E-02 -2.52508800000E-01

  65  65   1    6 C     3.92823370000E-01  4.46172030000E-01  2.47352900000E-01

  66  66   1    6 C    -3.38213690000E-01 -1.58474000000E-02 -2.52647100000E-01

  67  67   1    6 C     4.46287260000E-01  3.92689990000E-01  2.47767730000E-01

  68  68   1    6 C    -2.84749800000E-01 -6.93294400000E-02 -2.52232270000E-01

  69  69   1    6 C    -4.46257040000E-01 -3.92902000000E-01  2.46701020000E-01

  70  70   1    6 C    -1.77294100000E-01  1.45078570000E-01 -2.53298970000E-01

  71  71   1    6 C     4.45959980000E-01 -4.46041770000E-01  2.47787510000E-01

  72  72   1    6 C    -2.85077080000E-01  9.19388000000E-02 -2.52212490000E-01

  73  73   1    8 O    -4.39263320000E-01  2.80370630000E-01  2.49585170000E-01

  74  74   1    8 O    -1.70300380000E-01 -1.81648800000E-01 -2.50414830000E-01

  75  75   1    8 O    -2.80318300000E-01  2.80378330000E-01  2.53002700000E-01

  76  76   1    8 O    -1.13553600000E-02 -1.81641100000E-01 -2.46997300000E-01

  77  77   1    8 O    -2.80320580000E-01  4.39323460000E-01  2.47846790000E-01

  78  78   1    8 O    -1.13576400000E-02 -2.26959700000E-02 -2.52153210000E-01

  79  79   1    8 O     2.80324510000E-01 -2.80348890000E-01  2.49585190000E-01

  80  80   1    8 O    -4.50712550000E-01  2.57631680000E-01 -2.50414810000E-01

  81  81   1    8 O     2.80343970000E-01 -4.39304390000E-01  2.53002700000E-01

  82  82   1    8 O    -4.50693090000E-01  9.86761800000E-02 -2.46997300000E-01

  83  83   1    8 O     4.39263840000E-01 -2.80364580000E-01  2.47846770000E-01

  84  84   1    8 O    -2.91773220000E-01  2.57615990000E-01 -2.52153220000E-01

 NUMBER OF SYMMETRY OPERATORS         :    1
 *******************************************************************************
 * GEOMETRY EDITING - INPUT COORDINATES ARE GIVEN IN ANGSTROM         
 *******************************************************************************

 GCALCO - MAX INDICES DIRECT LATTICE VECTOR    11    11    25
 NO.OF VECTORS CREATED 6999 STARS 3500 RMAX   238.87863 BOHR

 GEOMETRY FOR WAVE FUNCTION - DIMENSIONALITY OF THE SYSTEM    3
 (NON PERIODIC DIRECTION: LATTICE PARAMETER FORMALLY SET TO 500)
 *******************************************************************************
 LATTICE PARAMETERS (ANGSTROMS AND DEGREES) - BOHR = 0.5291772083 ANGSTROM
 PRIMITIVE CELL - CENTRING CODE 1/0 VOLUME=  1211.985598 - DENSITY  1.069 g/cm^3
         A              B              C           ALPHA      BETA       GAMMA 
    15.02361100    15.02391600     6.20000000    90.000323  89.999944 119.995964
 *******************************************************************************
 ATOMS IN THE ASYMMETRIC UNIT   84 - ATOMS IN THE UNIT CELL:   84
     ATOM                 X/A                 Y/B                 Z/C    
 *******************************************************************************
      1 T   5 B    -3.863194600000E-01  2.273182200000E-01  2.507704400000E-01
      2 T   5 B    -1.173565200000E-01 -2.347012100000E-01 -2.492295600000E-01
      3 T   5 B    -2.272638000000E-01  3.863778800000E-01  2.507704500000E-01
      4 T   5 B     4.169914000000E-02 -7.564155000000E-02 -2.492295500000E-01
      5 T   5 B    -3.863237300000E-01  3.863606700000E-01  2.491505800000E-01
      6 T   5 B    -1.173607900000E-01 -7.565876000000E-02 -2.508494200000E-01
      7 T   5 B     2.272552500000E-01 -3.863667800000E-01  2.507704500000E-01
      8 T   5 B     4.962181900000E-01  1.516137900000E-01 -2.492295500000E-01
      9 T   5 B     3.863632200000E-01 -3.863875500000E-01  2.507704400000E-01
     10 T   5 B    -3.446738400000E-01  1.515930200000E-01 -2.492295600000E-01
     11 T   5 B     3.863435000000E-01 -2.272483500000E-01  2.491505800000E-01
     12 T   5 B    -3.446935600000E-01  3.107322200000E-01 -2.508494200000E-01
     13 T   1 H    -9.695638000000E-02  3.089300500000E-01  2.474121300000E-01
     14 T   1 H     1.720065600000E-01 -1.530893800000E-01 -2.525878700000E-01
     15 T   1 H     9.663453000000E-02 -3.089465600000E-01  2.468985900000E-01
     16 T   1 H     3.655974700000E-01  2.290340100000E-01 -2.531014100000E-01
     17 T   1 H    -9.702858000000E-02 -4.059275700000E-01  2.468195500000E-01
     18 T   1 H     1.719343600000E-01  1.320530000000E-01 -2.531804500000E-01
     19 T   1 H     9.673618000000E-02  4.056849400000E-01  2.468392700000E-01
     20 T   1 H     3.656991200000E-01 -5.633449000000E-02 -2.531607300000E-01
     21 T   1 H    -3.089676000000E-01  9.700412000000E-02  2.525878900000E-01
     22 T   1 H    -4.000466000000E-02 -3.650153100000E-01 -2.474121100000E-01
     23 T   1 H     3.089297200000E-01 -9.656269000000E-02  2.531014700000E-01
     24 T   1 H    -4.221073400000E-01  4.414178800000E-01 -2.468985300000E-01
     25 T   1 H     4.058699900000E-01  9.704998000000E-02  2.531805500000E-01
     26 T   1 H    -3.251670700000E-01 -3.649694500000E-01 -2.468194400000E-01
     27 T   1 H    -4.056877900000E-01 -9.665268000000E-02  2.531607000000E-01
     28 T   1 H    -1.367248500000E-01  4.413278900000E-01 -2.468393000000E-01
     29 T   1 H    -3.089272600000E-01 -4.059457900000E-01  2.474121600000E-01
     30 T   1 H    -3.996432000000E-02  1.320347800000E-01 -2.525878400000E-01
     31 T   1 H     3.089618300000E-01  4.056093300000E-01  2.468985500000E-01
     32 T   1 H    -4.220752300000E-01 -5.641010000000E-02 -2.531014500000E-01
     33 T   1 H     4.058405700000E-01  3.088232500000E-01  2.468194900000E-01
     34 T   1 H    -3.251964900000E-01 -1.531961800000E-01 -2.531805100000E-01
     35 T   1 H    -4.057091200000E-01 -3.090420700000E-01  2.468393300000E-01
     36 T   1 H    -1.367461800000E-01  2.289385000000E-01 -2.531606700000E-01
     37 T   6 C    -1.081096900000E-01  4.459436900000E-01  2.490913100000E-01
     38 T   6 C     1.608532500000E-01 -1.607574000000E-02 -2.509087000000E-01
     39 T   6 C    -5.351089000000E-02  3.927856300000E-01  2.474911700000E-01
     40 T   6 C     2.154520500000E-01 -6.923380000000E-02 -2.525088300000E-01
     41 T   6 C     5.338812000000E-02 -3.928147000000E-01  2.473529300000E-01
     42 T   6 C     3.223510600000E-01  1.451658700000E-01 -2.526470700000E-01
     43 T   6 C    -5.354789000000E-02 -4.463078100000E-01  2.477677700000E-01
     44 T   6 C     2.154150500000E-01  9.167276000000E-02 -2.522322300000E-01
     45 T   6 C     5.342634000000E-02  4.462499700000E-01  2.467009900000E-01
     46 T   6 C     3.223892800000E-01 -1.576946000000E-02 -2.532990100000E-01
     47 T   6 C     1.080358900000E-01 -4.459643700000E-01  2.477875100000E-01
     48 T   6 C     3.769988300000E-01  9.201620000000E-02 -2.522124900000E-01
     49 T   6 C    -4.459605800000E-01  1.081684600000E-01  2.509087300000E-01
     50 T   6 C    -1.769976400000E-01 -3.538509700000E-01 -2.490912700000E-01
     51 T   6 C    -3.928221500000E-01  5.355594000000E-02  2.525088500000E-01
     52 T   6 C    -1.238592100000E-01 -4.084634900000E-01 -2.474911500000E-01
     53 T   6 C     3.927986700000E-01 -5.333684000000E-02  2.526471400000E-01
     54 T   6 C    -3.382383900000E-01  4.846437300000E-01 -2.473528600000E-01
     55 T   6 C     4.462875800000E-01  5.360286000000E-02  2.522323000000E-01
     56 T   6 C    -2.847494800000E-01 -4.084165700000E-01 -2.477677000000E-01
     57 T   6 C    -4.462831500000E-01 -5.337644000000E-02  2.532990200000E-01
     58 T   6 C    -1.773202100000E-01  4.846041300000E-01 -2.467009900000E-01
     59 T   6 C     4.459279100000E-01 -1.080079400000E-01  2.522125300000E-01
     60 T   6 C    -2.851091500000E-01  4.299726300000E-01 -2.477874700000E-01
     61 T   6 C    -4.459551300000E-01  4.458745500000E-01  2.490913100000E-01
     62 T   6 C    -1.769921900000E-01 -1.614488000000E-02 -2.509087000000E-01
     63 T   6 C    -3.927897800000E-01 -4.463742200000E-01  2.474911900000E-01
     64 T   6 C    -1.238268400000E-01  9.160635000000E-02 -2.525088000000E-01
     65 T   6 C     3.928233700000E-01  4.461720300000E-01  2.473529000000E-01
     66 T   6 C    -3.382136900000E-01 -1.584740000000E-02 -2.526471000000E-01
     67 T   6 C     4.462872600000E-01  3.926899900000E-01  2.477677300000E-01
     68 T   6 C    -2.847498000000E-01 -6.932944000000E-02 -2.522322700000E-01
     69 T   6 C    -4.462570400000E-01 -3.929020000000E-01  2.467010200000E-01
     70 T   6 C    -1.772941000000E-01  1.450785700000E-01 -2.532989700000E-01
     71 T   6 C     4.459599800000E-01 -4.460417700000E-01  2.477875100000E-01
     72 T   6 C    -2.850770800000E-01  9.193880000000E-02 -2.522124900000E-01
     73 T   8 O    -4.392633200000E-01  2.803706300000E-01  2.495851700000E-01
     74 T   8 O    -1.703003800000E-01 -1.816488000000E-01 -2.504148300000E-01
     75 T   8 O    -2.803183000000E-01  2.803783300000E-01  2.530027000000E-01
     76 T   8 O    -1.135536000000E-02 -1.816411000000E-01 -2.469973000000E-01
     77 T   8 O    -2.803205800000E-01  4.393234600000E-01  2.478467900000E-01
     78 T   8 O    -1.135764000000E-02 -2.269597000000E-02 -2.521532100000E-01
     79 T   8 O     2.803245100000E-01 -2.803488900000E-01  2.495851900000E-01
     80 T   8 O    -4.507125500000E-01  2.576316800000E-01 -2.504148100000E-01
     81 T   8 O     2.803439700000E-01 -4.393043900000E-01  2.530027000000E-01
     82 T   8 O    -4.506930900000E-01  9.867618000000E-02 -2.469973000000E-01
     83 T   8 O     4.392638400000E-01 -2.803645800000E-01  2.478467700000E-01
     84 T   8 O    -2.917732200000E-01  2.576159900000E-01 -2.521532200000E-01

 T = ATOM BELONGING TO THE ASYMMETRIC UNIT

 ****    1 SYMMOPS - TRANSLATORS IN FRACTIONAL UNITS
 **** MATRICES AND TRANSLATORS IN THE CRYSTALLOGRAPHIC REFERENCE FRAME
   V INV                    ROTATION MATRICES                   TRANSLATORS
   1   1  1.00 -0.00  0.00  0.00  1.00  0.00  0.00  0.00  1.00  0.00  0.00  0.00

 DIRECT LATTICE VECTORS CARTESIAN COMPONENTS (ANGSTROM)
          X                    Y                    Z
   0.130113578931E+02  -0.751088897922E+01   0.000000000000E+00
   0.000000000000E+00   0.150239160000E+02   0.000000000000E+00
  -0.131792926326E-04  -0.349519635990E-04   0.619999999989E+01


 CARTESIAN COORDINATES - PRIMITIVE CELL
 *******************************************************************************
 *      ATOM          X(ANGSTROM)         Y(ANGSTROM)         Z(ANGSTROM)
 *******************************************************************************
    1     5 B    -5.026544060089E+00  6.316803652201E+00  1.554776727972E+00
    2     5 B    -1.526964398134E+00 -2.644670760369E+00 -1.545223271972E+00
    3     5 B    -2.957013942913E+00  7.511853219253E+00  1.554776789972E+00
    4     5 B     5.425657190418E-01 -1.449621193316E+00 -1.545223209972E+00
    5     5 B    -5.026599597239E+00 -6.317639810451E+00  1.544733595972E+00
    6     5 B    -1.527019935284E+00 -2.551982230212E-01 -1.555266403972E+00
    7     5 B     2.956896085849E+00 -7.511639765524E+00  1.554776789972E+00
    8     5 B     6.456475747804E+00 -1.449198178094E+00 -1.545223209972E+00
    9     5 B     5.027106827157E+00  6.316921889362E+00  1.554776727972E+00
   10     5 B    -4.484671403945E+00  4.866336456009E+00 -1.545223271972E+00
   11     5 B     5.026850264528E+00 -6.315951966183E+00  1.544733595972E+00
   12     5 B     8.526429926483E+00 -2.535103787523E-01 -1.555266403972E+00
   13     1 H    -1.261537420912E+00  5.369559079543E+00  1.533955205972E+00
   14     1 H     2.238042241043E+00 -3.591915333027E+00 -1.566044793972E+00
   15     1 H     1.257343200709E+00 -5.367407021908E+00  1.530771257972E+00
   16     1 H     4.756922862664E+00  6.950345655220E-01 -1.569228741972E+00
   17     1 H    -1.262476833142E+00 -5.369859448401E+00  1.530281209972E+00
   18     1 H     2.237102828813E+00  6.925821390292E-01 -1.569718789972E+00
   19     1 H     1.258665806020E+00  5.368393125254E+00  1.530403473972E+00
   20     1 H     4.758245467975E+00 -3.593081287315E+00 -1.569596525972E+00
   21     1 H    -4.020091349888E+00  3.777994263866E+00  1.566044917972E+00
   22     1 H    -5.205116879334E-01 -5.183480148704E+00 -1.533955081972E+00
   23     1 H     4.019591815023E+00 -3.771095418988E+00  1.569229113972E+00
   24     1 H    -5.492186416078E+00 -5.221680852341E+00 -1.530770885972E+00
   25     1 H     5.280916361201E+00 -1.590382536721E+00  1.569719409972E+00
   26     1 H    -4.230861869901E+00 -3.040967970075E+00 -1.530280527972E+00
   27     1 H    -5.278552365012E+00  1.594965356955E+00  1.569596339972E+00
   28     1 H    -1.778972703057E+00 -7.366509055615E+00 -1.530403659972E+00
   29     1 H    -4.019566403499E+00 -3.778585744541E+00  1.533955391972E+00
   30     1 H    -5.199867415436E-01  2.283855842889E+00 -1.566044607972E+00
   31     1 H     4.020009691475E+00  3.773253869202E+00  1.530771009972E+00
   32     1 H    -5.491768539626E+00  2.322668435848E+00 -1.569228989972E+00
   33     1 H     5.280533650886E+00  1.591502475489E+00  1.530280837972E+00
   34     1 H    -4.231244580216E+00  1.409170421360E-01 -1.569719161972E+00
   35     1 H    -5.278829813965E+00 -1.595794569490E+00  1.530403845972E+00
   36     1 H    -1.779250152010E+00  4.466647017940E+00 -1.569596153972E+00
   37     6 C    -1.406657151145E+00  7.511811712227E+00  1.544366121972E+00
   38     6 C     2.092922510810E+00 -1.449662700342E+00 -1.555633939972E+00
   39     6 C    -6.962526027245E-01  6.303084014794E+00  1.534445253972E+00
   40     6 C     2.803327059230E+00 -2.658390397776E+00 -1.565554745972E+00
   41     6 C     6.946486766208E-01 -6.302615943965E+00  1.533588165972E+00
   42     6 C     4.194228338576E+00 -2.401743565346E-01 -1.566411833972E+00
   43     6 C    -6.967340266120E-01 -6.303107450693E+00  1.536160173972E+00
   44     6 C     2.802845635343E+00 -2.406658632625E-01 -1.563839825972E+00
   45     6 C     6.951459793116E-01  6.303134133293E+00  1.529546137972E+00
   46     6 C     4.194725641267E+00 -2.658340279277E+00 -1.570453861971E+00
   47     6 C     1.405690364421E+00 -7.511585470094E+00  1.536282561972E+00
   48     6 C     4.905270026376E+00 -1.449143882664E+00 -1.563717437972E+00
   49     6 C     7.208801873682E+00 -2.536223486593E+00  1.555634125972E+00
   50     6 C    -2.302976357420E+00 -3.986808919946E+00 -1.544365873972E+00
   51     6 C    -5.111152909858E+00  3.755054675408E+00  1.565554869972E+00
   52     6 C    -1.611573247903E+00 -5.206419737162E+00 -1.534445129972E+00
   53     6 C     5.110840745576E+00 -3.751604235933E+00  1.566412267972E+00
   54     6 C    -4.400937485526E+00 -5.202189669286E+00 -1.533587731972E+00
   55     6 C     5.806804102363E+00 -2.546700416198E+00  1.563840259972E+00
   56     6 C    -3.704974128739E+00 -3.997285849551E+00 -1.536159739972E+00
   57     6 C    -5.806753124593E+00  2.550051188708E+00  1.570453923971E+00
   58     6 C    -2.307173462637E+00 -6.411423223862E+00 -1.529546137972E+00
   59     6 C     5.802124307530E+00 -4.972026057960E+00  1.563717685972E+00
   60     6 C    -3.709653923572E+00 -6.422611491314E+00 -1.536282313972E+00
   61     6 C     7.208872809535E+00  2.537403571433E+00  1.544366121972E+00
   62     6 C    -2.302905421567E+00  1.086818138080E+00 -1.555633939972E+00
   63     6 C    -5.110731666074E+00 -3.756097006398E+00  1.534445377972E+00
   64     6 C    -1.611152004119E+00  2.306344581032E+00 -1.565554559972E+00
   65     6 C     5.111162195890E+00  3.752789734288E+00  1.533587979972E+00
   66     6 C    -4.400616035211E+00  2.302204300935E+00 -1.566412019972E+00
   67     6 C     5.806799997568E+00  2.547718701133E+00  1.536159925972E+00
   68     6 C    -3.704978233533E+00  1.097133267780E+00 -1.563840073972E+00
   69     6 C    -5.806413311081E+00 -2.551148183283E+00  1.529546323972E+00
   70     6 C    -2.306833649126E+00  3.511293404147E+00 -1.570453613971E+00
   71     6 C     5.802541640096E+00  4.973057355415E+00  1.536282561972E+00
   72     6 C    -3.709236591005E+00  3.522471922062E+00 -1.563717437972E+00
   73     8 O     7.295942337888E+00  6.251204408774E-04  1.547428053972E+00
   74     8 O    -2.215835893213E+00 -1.449960312912E+00 -1.552571945972E+00
   75     8 O    -3.647325059670E+00  6.317811265342E+00  1.568616739972E+00
   76     8 O    -1.477453977148E-01 -2.643663147228E+00 -1.531383259972E+00
   77     8 O    -3.647354657615E+00 -6.318109147893E+00  1.536650097972E+00
   78     8 O    -1.477749956596E-01 -2.556675604628E-01 -1.563349901972E+00
   79     8 O     3.647399236449E+00 -6.317433170309E+00  1.547428177972E+00
   80     8 O     7.146978898404E+00 -2.549915828787E-01 -1.552571821972E+00
   81     8 O     3.647652392434E+00  6.318202468605E+00  1.568616739972E+00
   82     8 O     7.147232054389E+00 -2.643271943965E+00 -1.531383259972E+00
   83     8 O    -7.295942127783E+00 -5.555176344062E-04  1.536649973972E+00
   84     8 O    -3.796362465828E+00  6.061886069796E+00 -1.563349963972E+00

 *******************************************************************************
 STARTING BASIS SET HANDLING 
 *******************************************************************************

 Loading internal basis set: SOLDEF2MSVP         

 Please cite in your publication:
 L. Dona', J. G. Brandenburg and B. Civalleri, J. Chem. Phys., 151, 121101 (2019
 )                                                                              
                                                                                
                    

 *******************************************************************************
 LOCAL ATOMIC FUNCTIONS BASIS SET
 *******************************************************************************
   ATOM   X(AU)   Y(AU)   Z(AU)  N. TYPE  EXPONENT  S COEF   P COEF   D/F/G COEF
 *******************************************************************************
   1 B   -9.499  11.937   2.938
                                  1 S  
                                         2.410E+03 1.755E-03 0.000E+00 0.000E+00
                                         3.619E+02 1.344E-02 0.000E+00 0.000E+00
                                         8.231E+01 6.637E-02 0.000E+00 0.000E+00
                                         2.311E+01 2.303E-01 0.000E+00 0.000E+00
                                         7.252E+00 5.150E-01 0.000E+00 0.000E+00
                                  2 S  
                                         2.367E+00 1.000E+00 0.000E+00 0.000E+00
                                  3 S  
                                         5.533E-01 1.000E+00 0.000E+00 0.000E+00
                                  4 S  
                                         1.716E-01 1.000E+00 0.000E+00 0.000E+00
                           5-     7 P  
                                         6.002E+00 0.000E+00-3.555E-02 0.000E+00
                                         1.240E+00 0.000E+00-1.983E-01 0.000E+00
                                         3.367E-01 0.000E+00-5.048E-01 0.000E+00
                           8-    10 P  
                                         1.256E-01 0.000E+00 1.000E+00 0.000E+00
                          11-    15 D  
                                         8.880E-01 0.000E+00 0.000E+00 1.000E+00
   2 B   -2.886  -4.998  -2.920
   3 B   -5.588  14.195   2.938
   4 B    1.025  -2.739  -2.920
   5 B   -9.499 -11.939   2.919
   6 B   -2.886  -0.482  -2.939
   7 B    5.588 -14.195   2.938
   8 B   12.201  -2.739  -2.920
   9 B    9.500  11.937   2.938
  10 B   -8.475   9.196  -2.920
  11 B    9.499 -11.935   2.919
  12 B   16.113  -0.479  -2.939
  13 H   -2.384  10.147   2.899
                                181 S  
                                         1.874E+01 1.968E-02 0.000E+00 0.000E+00
                                         2.826E+00 1.380E-01 0.000E+00 0.000E+00
                                         6.401E-01 4.783E-01 0.000E+00 0.000E+00
                                182 S  
                                         1.756E-01 1.000E+00 0.000E+00 0.000E+00
  14 H    4.229  -6.788  -2.959
  15 H    2.376 -10.143   2.893
  16 H    8.989   1.313  -2.965
  17 H   -2.386 -10.148   2.892
  18 H    4.228   1.309  -2.966
  19 H    2.379  10.145   2.892
  20 H    8.992  -6.790  -2.966
  21 H   -7.597   7.139   2.959
  22 H   -0.984  -9.795  -2.899
  23 H    7.596  -7.126   2.965
  24 H  -10.379  -9.868  -2.893
  25 H    9.979  -3.005   2.966
  26 H   -7.995  -5.747  -2.892
  27 H   -9.975   3.014   2.966
  28 H   -3.362 -13.921  -2.892
  29 H   -7.596  -7.140   2.899
  30 H   -0.983   4.316  -2.959
  31 H    7.597   7.130   2.893
  32 H  -10.378   4.389  -2.965
  33 H    9.979   3.008   2.892
  34 H   -7.996   0.266  -2.966
  35 H   -9.976  -3.016   2.892
  36 H   -3.362   8.441  -2.966
  37 C   -2.658  14.195   2.918
                                229 S  
                                         3.624E+03 1.634E-03 0.000E+00 0.000E+00
                                         5.440E+02 1.252E-02 0.000E+00 0.000E+00
                                         1.237E+02 6.211E-02 0.000E+00 0.000E+00
                                         3.476E+01 2.182E-01 0.000E+00 0.000E+00
                                         1.093E+01 4.980E-01 0.000E+00 0.000E+00
                                230 S  
                                         3.574E+00 1.000E+00 0.000E+00 0.000E+00
                                231 S  
                                         7.742E-01 1.000E+00 0.000E+00 0.000E+00
                                232 S  
                                         2.330E-01 1.000E+00 0.000E+00 0.000E+00
                         233-   235 P  
                                         9.443E+00 0.000E+00 3.790E-02 0.000E+00
                                         2.002E+00 0.000E+00 2.082E-01 0.000E+00
                                         5.463E-01 0.000E+00 5.047E-01 0.000E+00
                         236-   238 P  
                                         1.820E-01 0.000E+00 1.000E+00 0.000E+00
                         239-   243 D  
                                         8.880E-01 0.000E+00 0.000E+00 1.000E+00
  38 C    3.955  -2.739  -2.940
  39 C   -1.316  11.911   2.900
  40 C    5.298  -5.024  -2.958
  41 C    1.313 -11.910   2.898
  42 C    7.926  -0.454  -2.960
  43 C   -1.317 -11.911   2.903
  44 C    5.297  -0.455  -2.955
  45 C    1.314  11.911   2.890
  46 C    7.927  -5.024  -2.968
  47 C    2.656 -14.195   2.903
  48 C    9.270  -2.738  -2.955
  49 C   13.623  -4.793   2.940
  50 C   -4.352  -7.534  -2.918
  51 C   -9.659   7.096   2.958
  52 C   -3.045  -9.839  -2.900
  53 C    9.658  -7.090   2.960
  54 C   -8.317  -9.831  -2.898
  55 C   10.973  -4.813   2.955
  56 C   -7.001  -7.554  -2.903
  57 C  -10.973   4.819   2.968
  58 C   -4.360 -12.116  -2.890
  59 C   10.964  -9.396   2.955
  60 C   -7.010 -12.137  -2.903
  61 C   13.623   4.795   2.918
  62 C   -4.352   2.054  -2.940
  63 C   -9.658  -7.098   2.900
  64 C   -3.045   4.358  -2.958
  65 C    9.659   7.092   2.898
  66 C   -8.316   4.351  -2.960
  67 C   10.973   4.814   2.903
  68 C   -7.001   2.073  -2.955
  69 C  -10.973  -4.821   2.890
  70 C   -4.359   6.635  -2.968
  71 C   10.965   9.398   2.903
  72 C   -7.009   6.657  -2.955
  73 O   13.787   0.001   2.924
                                769 S  
                                         6.773E+03 1.727E-03 0.000E+00 0.000E+00
                                         1.017E+03 1.325E-02 0.000E+00 0.000E+00
                                         2.313E+02 6.603E-02 0.000E+00 0.000E+00
                                         6.501E+01 2.353E-01 0.000E+00 0.000E+00
                                         2.050E+01 5.498E-01 0.000E+00 0.000E+00
                                770 S  
                                         6.716E+00 1.000E+00 0.000E+00 0.000E+00
                                771 S  
                                         1.147E+00 1.000E+00 0.000E+00 0.000E+00
                                772 S  
                                         3.342E-01 1.000E+00 0.000E+00 0.000E+00
                         773-   775 P  
                                         1.769E+01 0.000E+00 4.359E-02 0.000E+00
                                         3.854E+00 0.000E+00 2.318E-01 0.000E+00
                                         1.047E+00 0.000E+00 5.146E-01 0.000E+00
                         776-   778 P  
                                         2.759E-01 0.000E+00 1.000E+00 0.000E+00
                         779-   783 D  
                                         8.000E-01 0.000E+00 0.000E+00 1.000E+00
  74 O   -4.187  -2.740  -2.934
  75 O   -6.892  11.939   2.964
  76 O   -0.279  -4.996  -2.894
  77 O   -6.893 -11.939   2.904
  78 O   -0.279  -0.483  -2.954
  79 O    6.893 -11.938   2.924
  80 O   13.506  -0.482  -2.934
  81 O    6.893  11.940   2.964
  82 O   13.506  -4.995  -2.894
  83 O  -13.787  -0.001   2.904
  84 O   -7.174  11.455  -2.954

 *******************************************************************************
 FINISHED BASIS SET HANDLING 
 *******************************************************************************

 INFORMATION **** SET_MPP **** PCRYSTAL CALCULATION
 INFORMATION **** READM2 **** NEW DEFAULT: FOCK/KS MATRIX MIXING SET TO 30 %
 INFORMATION **** READM2 **** NEW DEFAULT: FULL DIRECT SCF MODE
 INFORMATION **** READM2 **** NEW DEFAULT: COULOMB BIPOLAR BUFFER SET TO 32 Mb
 INFORMATION **** READM2 **** NEW DEFAULT: EXCHANGE BIPOLAR BUFFER SET TO 32 Mb

 *******************************************************************************
 NEW DEFAULT: DFT INTEGRATION GRID INCREASED TO XLGRID
 NEW DEFAULT: DIIS ACCELERATOR ACTIVE
 USE KEYWORD NODIIS TO TURN IT OFF
 *******************************************************************************

 WARNING **** RDDFTP **** HSEsol-HJS ACTIVE
 RANGE SEPARATION - OMEGA:   0.110000000000000     
 WARNING **** RDDFTP **** HSEsol-3c has to be combined with sol-def2-mSVP basis set
 *******************************************************************************
 N. OF ATOMS PER CELL        84  COULOMB OVERLAP TOL         (T1) 10**   -6
 NUMBER OF SHELLS           468  COULOMB PENETRATION TOL     (T2) 10**   -6
 NUMBER OF AO               948  EXCHANGE OVERLAP TOL        (T3) 10**   -6
 N. OF ELECTRONS PER CELL   396  EXCHANGE PSEUDO OVP (F(G))  (T4) 10**   -6
 CORE ELECTRONS PER CELL    120  EXCHANGE PSEUDO OVP (P(G))  (T5) 10**  -12
 N. OF SYMMETRY OPERATORS     1  POLE ORDER IN MONO ZONE                  4
 *******************************************************************************
 TYPE OF CALCULATION :  RESTRICTED CLOSED SHELL
 KOHN-SHAM HAMILTONIAN

 (EXCHANGE)[CORRELATION] FUNCTIONAL:(HSEsol GGA)[PBEsol]

 RANGE-SEPARATED HYBRID FUNCTIONAL 
 OMEGA (SHORT-RANGE)[LONG-RANGE]:(    0.1100)[    0.0000]

 HYBRID EXCHANGE - PERCENTAGE OF FOCK EXCHANGE    25.0000

 CAPPA:IS1  2;IS2  2;IS3  8; K PTS MONK NET  20; SYMMOPS:K SPACE   2;G SPACE   1

 *******************************************************************************
 MAX NUMBER OF SCF CYCLES      50  CONVERGENCE ON DELTAP        10**-16
 WEIGHT OF F(I) IN F(I+1)      30% CONVERGENCE ON ENERGY        10**- 6
 SHRINK. FACT.(MONKH.)    2  2  8  NUMBER OF K POINTS IN THE IBZ     20
 SHRINKING FACTOR(GILAT NET)    8  NUMBER OF K POINTS(GILAT NET)   1028
 *******************************************************************************
 *** K POINTS COORDINATES (OBLIQUE COORDINATES IN UNITS OF IS =  2)
   1-R(  0  0  0)   2-R(  1  0  0)   3-R(  0  1  0)   4-R(  1  1  0)
   5-C(  0  0  1)   6-C(  1  0  1)   7-C(  0  1  1)   8-C(  1  1  1)
   9-C(  0  0  2)  10-C(  1  0  2)  11-C(  0  1  2)  12-C(  1  1  2)
  13-C(  0  0  3)  14-C(  1  0  3)  15-C(  0  1  3)  16-C(  1  1  3)
  17-R(  0  0  4)  18-R(  1  0  4)  19-R(  0  1  4)  20-R(  1  1  4)

 DIRECT LATTICE VECTORS COMPON. (A.U.)     RECIP. LATTICE VECTORS COMPON. (A.U.) 
        X            Y            Z              X            Y            Z
   24.5879030  -14.1935232    0.0000000      0.2555397    0.0000000    0.0000005
    0.0000000   28.3910867    0.0000000      0.1277517    0.2213084    0.0000015
   -0.0000249   -0.0000660   11.7163020      0.0000000    0.0000000    0.5362772

 DISK SPACE FOR EIGENVECTORS (FTN 10)    28758528 REALS

 SYMMETRY ADAPTION OF THE BLOCH FUNCTIONS DISABLED
 TTTTTTTTTTTTTTTTTTTTTTTTTTTTTT gordsh1     TELAPSE        0.05 TCPU        0.05

 MATRIX SIZE: P(G)  796438, F(G)  145722, P(G) IRR  400385, F(G) IRR  146970
 MAX G-VECTOR INDEX FOR 1- AND 2-ELECTRON INTEGRALS  57

 TTTTTTTTTTTTTTTTTTTTTTTTTTTTTT INPUT       TELAPSE        2.75 TCPU        2.75

 NEIGHBORS OF THE NON-EQUIVALENT ATOMS

 N = NUMBER OF NEIGHBORS AT DISTANCE R
    ATOM  N     R/ANG      R/AU   NEIGHBORS (ATOM LABELS AND CELL INDICES)
   1 B    1     1.3791     2.6061   73 O   -1 0 0
   1 B    1     1.3793     2.6065   75 O    0 0 0
   1 B    1     1.5503     2.9297   49 C   -1 0 0
   1 B    1     2.3895     4.5155    5 B    0 1 0
   1 B    1     2.3898     4.5160    3 B    0 0 0
   1 B    1     2.5632     4.8437   51 C    0 0 0

   2 B    1     1.3791     2.6061   74 O    0 0 0
   2 B    1     1.3793     2.6065   76 O    0 0 0
   2 B    1     1.5503     2.9297   50 C    0 0 0
   2 B    1     2.3895     4.5155    6 B    0 0 0
   2 B    1     2.3898     4.5160    4 B    0 0 0
   2 B    1     2.5632     4.8437   52 C    0 0 0

   3 B    1     1.3793     2.6065   77 O    0 1 0
   3 B    1     1.3793     2.6065   75 O    0 0 0
   3 B    1     1.5504     2.9298   37 C    0 0 0
   3 B    1     2.3895     4.5156    5 B    0 1 0
   3 B    1     2.3898     4.5160    1 B    0 0 0
   3 B    1     2.5634     4.8440   43 C    0 1 0

   4 B    1     1.3793     2.6065   78 O    0 0 0
   4 B    1     1.3793     2.6065   76 O    0 0 0
   4 B    1     1.5504     2.9298   38 C    0 0 0
   4 B    1     2.3895     4.5156    6 B    0 0 0
   4 B    1     2.3898     4.5160    2 B    0 0 0
   4 B    1     2.5634     4.8440   44 C    0 0 0

   5 B    1     1.3791     2.6061   73 O   -1-1 0
   5 B    1     1.3793     2.6064   77 O    0 0 0
   5 B    1     1.5502     2.9294   61 C   -1-1 0
   5 B    1     2.3895     4.5155    1 B    0-1 0
   5 B    1     2.3895     4.5156    3 B    0-1 0
   5 B    1     2.5629     4.8433   63 C    0 0 0

   6 B    1     1.3791     2.6061   74 O    0 0 0
   6 B    1     1.3793     2.6064   78 O    0 0 0
   6 B    1     1.5502     2.9294   62 C    0 0 0
   6 B    1     2.3895     4.5155    2 B    0 0 0
   6 B    1     2.3895     4.5156    4 B    0 0 0
   6 B    1     2.5629     4.8433   64 C    0 0 0

   7 B    1     1.3795     2.6068   79 O    0 0 0
   7 B    1     1.3795     2.6070   81 O    0-1 0
   7 B    1     1.5513     2.9316   47 C    0 0 0
   7 B    1     2.3905     4.5174   11 B    0 0 0
   7 B    1     2.3905     4.5175    9 B    0-1 0
   7 B    1     2.5648     4.8468   45 C    0-1 0

   8 B    1     1.3795     2.6068   80 O    0 0 0
   8 B    1     1.3795     2.6070   82 O    0 0 0
   8 B    1     1.5513     2.9316   48 C    0 0 0
   8 B    1     2.3905     4.5174   12 B    0 0 0
   8 B    1     2.3905     4.5175   10 B    1 0 0
   8 B    1     2.5648     4.8468   46 C    0 0 0

   9 B    1     1.3795     2.6069   81 O    0 0 0
   9 B    1     1.3797     2.6072   83 O    1 1 0
   9 B    1     1.5516     2.9322   71 C    0 0 0
   9 B    1     2.3905     4.5175    7 B    0 1 0
   9 B    1     2.3911     4.5185   11 B    0 1 0
   9 B    1     2.5651     4.8473   69 C    1 1 0

  10 B    1     1.3795     2.6069   82 O   -1 0 0
  10 B    1     1.3797     2.6072   84 O    0 0 0
  10 B    1     1.5516     2.9322   72 C    0 0 0
  10 B    1     2.3905     4.5175    8 B   -1 0 0
  10 B    1     2.3911     4.5185   12 B   -1 0 0
  10 B    1     2.5651     4.8473   70 C    0 0 0

  11 B    1     1.3795     2.6068   79 O    0 0 0
  11 B    1     1.3796     2.6071   83 O    1 0 0
  11 B    1     1.5516     2.9322   59 C    0 0 0
  11 B    1     2.3905     4.5174    7 B    0 0 0
  11 B    1     2.3911     4.5185    9 B    0-1 0
  11 B    1     2.5651     4.8473   57 C    1 0 0

  12 B    1     1.3795     2.6068   80 O    0 0 0
  12 B    1     1.3796     2.6071   84 O    1 0 0
  12 B    1     1.5516     2.9322   60 C    1 1 0
  12 B    1     2.3905     4.5174    8 B    0 0 0
  12 B    1     2.3911     4.5185   10 B    1 0 0
  12 B    1     2.5651     4.8473   58 C    1 1 0

  13 H    1     1.0913     2.0623   39 C    0 0 0
  13 H    1     2.1472     4.0576   37 C    0 0 0
  13 H    1     2.1680     4.0969   45 C    0 0 0
  13 H    1     2.5202     4.7625   19 H    0 0 0
  13 H    1     2.5676     4.8520   75 O    0 0 0
  13 H    1     2.7321     5.1630    3 B    0 0 0

  14 H    1     1.0913     2.0623   40 C    0 0 0
  14 H    1     2.1472     4.0576   38 C    0 0 0
  14 H    1     2.1680     4.0969   46 C    0 0 0
  14 H    1     2.5202     4.7625   20 H    0 0 0
  14 H    1     2.5676     4.8520   76 O    0 0 0
  14 H    1     2.7321     5.1630    4 B    0 0 0

  15 H    1     1.0914     2.0625   41 C    0 0 0
  15 H    1     2.1493     4.0616   47 C    0 0 0
  15 H    1     2.1666     4.0942   43 C    0 0 0
  15 H    1     2.5198     4.7618   17 H    0 0 0
  15 H    1     2.5720     4.8604   79 O    0 0 0
  15 H    1     2.7362     5.1707    7 B    0 0 0

  16 H    1     1.0914     2.0625   42 C    0 0 0
  16 H    1     2.1493     4.0616   48 C    0 0 0
  16 H    1     2.1666     4.0942   44 C    0 0 0
  16 H    1     2.5198     4.7618   18 H    0 0 0
  16 H    1     2.5720     4.8604   80 O    0 0 0
  16 H    1     2.7362     5.1707    8 B    0 0 0

  17 H    1     1.0914     2.0624   43 C    0 0 0
  17 H    1     2.1471     4.0575   37 C    0-1 0
  17 H    1     2.1680     4.0970   41 C    0 0 0
  17 H    1     2.5198     4.7618   15 H    0 0 0
  17 H    1     2.5665     4.8500   77 O    0 0 0
  17 H    1     2.7315     5.1618    3 B    0-1 0

  18 H    1     1.0914     2.0624   44 C    0 0 0
  18 H    1     2.1471     4.0575   38 C    0 0 0
  18 H    1     2.1680     4.0970   42 C    0 0 0
  18 H    1     2.5198     4.7618   16 H    0 0 0
  18 H    1     2.5665     4.8500   78 O    0 0 0
  18 H    1     2.7315     5.1618    4 B    0 0 0

  19 H    1     1.0915     2.0626   45 C    0 0 0
  19 H    1     2.1490     4.0610   47 C    0 1 0
  19 H    1     2.1669     4.0948   39 C    0 0 0
  19 H    1     2.5202     4.7625   13 H    0 0 0
  19 H    1     2.5712     4.8588   81 O    0 0 0
  19 H    1     2.7351     5.1686    7 B    0 1 0

  20 H    1     1.0915     2.0626   46 C    0 0 0
  20 H    1     2.1490     4.0610   48 C    0 0 0
  20 H    1     2.1669     4.0948   40 C    0 0 0
  20 H    1     2.5202     4.7625   14 H    0 0 0
  20 H    1     2.5712     4.8588   82 O    0 0 0
  20 H    1     2.7351     5.1686    8 B    0 0 0

  21 H    1     1.0913     2.0623   51 C    0 0 0
  21 H    1     2.1469     4.0571   49 C   -1 0 0
  21 H    1     2.1680     4.0968   57 C    0 0 0
  21 H    1     2.5198     4.7617   27 H    0 0 0
  21 H    1     2.5670     4.8510   75 O    0 0 0
  21 H    1     2.7310     5.1609    1 B    0 0 0

  22 H    1     1.0913     2.0623   52 C    0 0 0
  22 H    1     2.1469     4.0571   50 C    0 0 0
  22 H    1     2.1680     4.0968   58 C    0 0 0
  22 H    1     2.5198     4.7617   28 H    0 0 0
  22 H    1     2.5670     4.8510   76 O    0 0 0
  22 H    1     2.7310     5.1609    2 B    0 0 0

  23 H    1     1.0914     2.0625   53 C    0 0 0
  23 H    1     2.1493     4.0617   59 C    0 0 0
  23 H    1     2.1664     4.0939   55 C    0 0 0
  23 H    1     2.5192     4.7606   25 H    0 0 0
  23 H    1     2.5735     4.8632   79 O    0 0 0
  23 H    1     2.7371     5.1723   11 B    0 0 0

  24 H    1     1.0914     2.0625   54 C    0 0 0
  24 H    1     2.1493     4.0617   60 C    0 0 0
  24 H    1     2.1664     4.0939   56 C    0 0 0
  24 H    1     2.5192     4.7606   26 H    0 0 0
  24 H    1     2.5735     4.8632   80 O   -1-1 0
  24 H    1     2.7371     5.1723   12 B   -1-1 0

  25 H    1     1.0914     2.0624   55 C    0 0 0
  25 H    1     2.1475     4.0581   49 C    0 0 0
  25 H    1     2.1679     4.0967   53 C    0 0 0
  25 H    1     2.5192     4.7606   23 H    0 0 0
  25 H    1     2.5675     4.8519   73 O    0 0 0
  25 H    1     2.7328     5.1643    1 B    1 0 0

  26 H    1     1.0914     2.0624   56 C    0 0 0
  26 H    1     2.1475     4.0581   50 C    0 0 0
  26 H    1     2.1679     4.0967   54 C    0 0 0
  26 H    1     2.5192     4.7606   24 H    0 0 0
  26 H    1     2.5675     4.8519   74 O    0 0 0
  26 H    1     2.7328     5.1643    2 B    0 0 0

  27 H    1     1.0914     2.0625   57 C    0 0 0
  27 H    1     2.1491     4.0612   59 C   -1 0 0
  27 H    1     2.1666     4.0942   51 C    0 0 0
  27 H    1     2.5198     4.7617   21 H    0 0 0
  27 H    1     2.5723     4.8609   83 O    0 0 0
  27 H    1     2.7355     5.1693   11 B   -1 0 0

  28 H    1     1.0914     2.0625   58 C    0 0 0
  28 H    1     2.1491     4.0612   60 C    0 0 0
  28 H    1     2.1666     4.0942   52 C    0 0 0
  28 H    1     2.5198     4.7617   22 H    0 0 0
  28 H    1     2.5723     4.8609   84 O    0-1 0
  28 H    1     2.7355     5.1693   12 B   -1-1 0

  29 H    1     1.0914     2.0624   63 C    0 0 0
  29 H    1     2.1475     4.0582   61 C   -1-1 0
  29 H    1     2.1678     4.0966   69 C    0 0 0
  29 H    1     2.5200     4.7621   35 H    0 0 0
  29 H    1     2.5667     4.8503   77 O    0 0 0
  29 H    1     2.7315     5.1618    5 B    0 0 0

  30 H    1     1.0914     2.0624   64 C    0 0 0
  30 H    1     2.1475     4.0582   62 C    0 0 0
  30 H    1     2.1678     4.0966   70 C    0 0 0
  30 H    1     2.5200     4.7621   36 H    0 0 0
  30 H    1     2.5667     4.8503   78 O    0 0 0
  30 H    1     2.7315     5.1618    6 B    0 0 0

  31 H    1     1.0913     2.0623   65 C    0 0 0
  31 H    1     2.1487     4.0605   71 C    0 0 0
  31 H    1     2.1667     4.0945   67 C    0 0 0
  31 H    1     2.5197     4.7616   33 H    0 0 0
  31 H    1     2.5723     4.8610   81 O    0 0 0
  31 H    1     2.7359     5.1701    9 B    0 0 0

  32 H    1     1.0913     2.0623   66 C    0 0 0
  32 H    1     2.1487     4.0605   72 C    0 0 0
  32 H    1     2.1667     4.0945   68 C    0 0 0
  32 H    1     2.5197     4.7616   34 H    0 0 0
  32 H    1     2.5723     4.8610   82 O   -1 0 0
  32 H    1     2.7359     5.1701   10 B    0 0 0

  33 H    1     1.0915     2.0626   67 C    0 0 0
  33 H    1     2.1479     4.0589   61 C    0 0 0
  33 H    1     2.1679     4.0968   65 C    0 0 0
  33 H    1     2.5197     4.7616   31 H    0 0 0
  33 H    1     2.5677     4.8522   73 O    0 0 0
  33 H    1     2.7331     5.1648    5 B    1 1 0

  34 H    1     1.0915     2.0626   68 C    0 0 0
  34 H    1     2.1479     4.0589   62 C    0 0 0
  34 H    1     2.1679     4.0968   66 C    0 0 0
  34 H    1     2.5197     4.7616   32 H    0 0 0
  34 H    1     2.5677     4.8522   74 O    0 0 0
  34 H    1     2.7331     5.1648    6 B    0 0 0

  35 H    1     1.0914     2.0624   69 C    0 0 0
  35 H    1     2.1486     4.0602   71 C   -1-1 0
  35 H    1     2.1668     4.0947   63 C    0 0 0
  35 H    1     2.5200     4.7621   29 H    0 0 0
  35 H    1     2.5717     4.8598   83 O    0 0 0
  35 H    1     2.7349     5.1682    9 B   -1-1 0

  36 H    1     1.0914     2.0624   70 C    0 0 0
  36 H    1     2.1486     4.0602   72 C    0 0 0
  36 H    1     2.1668     4.0947   64 C    0 0 0
  36 H    1     2.5200     4.7621   30 H    0 0 0
  36 H    1     2.5717     4.8598   84 O    0 0 0
  36 H    1     2.7349     5.1682   10 B    0 0 0

  37 C    1     1.4020     2.6495   43 C    0 1 0
  37 C    1     1.4021     2.6495   39 C    0 0 0
  37 C    1     1.5504     2.9298    3 B    0 0 0
  37 C    1     2.1471     4.0575   17 H    0 1 0
  37 C    1     2.1472     4.0576   13 H    0 0 0
  37 C    1     2.4246     4.5817   41 C    0 1 0

  38 C    1     1.4020     2.6495   44 C    0 0 0
  38 C    1     1.4021     2.6495   40 C    0 0 0
  38 C    1     1.5504     2.9298    4 B    0 0 0
  38 C    1     2.1471     4.0575   18 H    0 0 0
  38 C    1     2.1472     4.0576   14 H    0 0 0
  38 C    1     2.4246     4.5817   42 C    0 0 0

  39 C    1     1.0913     2.0623   13 H    0 0 0
  39 C    1     1.3914     2.6294   45 C    0 0 0
  39 C    1     1.4021     2.6495   37 C    0 0 0
  39 C    1     2.1669     4.0948   19 H    0 0 0
  39 C    1     2.4177     4.5688   43 C    0 1 0
  39 C    1     2.4250     4.5825   47 C    0 1 0

  40 C    1     1.0913     2.0623   14 H    0 0 0
  40 C    1     1.3914     2.6294   46 C    0 0 0
  40 C    1     1.4021     2.6495   38 C    0 0 0
  40 C    1     2.1669     4.0948   20 H    0 0 0
  40 C    1     2.4177     4.5688   44 C    0 0 0
  40 C    1     2.4250     4.5825   48 C    0 0 0

  41 C    1     1.0914     2.0625   15 H    0 0 0
  41 C    1     1.3914     2.6293   43 C    0 0 0
  41 C    1     1.4026     2.6505   47 C    0 0 0
  41 C    1     2.1680     4.0970   17 H    0 0 0
  41 C    1     2.4182     4.5697   45 C    0-1 0
  41 C    1     2.4246     4.5817   37 C    0-1 0

  42 C    1     1.0914     2.0625   16 H    0 0 0
  42 C    1     1.3914     2.6293   44 C    0 0 0
  42 C    1     1.4026     2.6505   48 C    0 0 0
  42 C    1     2.1680     4.0970   18 H    0 0 0
  42 C    1     2.4182     4.5697   46 C    0 0 0
  42 C    1     2.4246     4.5817   38 C    0 0 0

  43 C    1     1.0914     2.0624   17 H    0 0 0
  43 C    1     1.3914     2.6293   41 C    0 0 0
  43 C    1     1.4020     2.6495   37 C    0-1 0
  43 C    1     2.1666     4.0942   15 H    0 0 0
  43 C    1     2.4177     4.5688   39 C    0-1 0
  43 C    1     2.4250     4.5826   47 C    0 0 0

  44 C    1     1.0914     2.0624   18 H    0 0 0
  44 C    1     1.3914     2.6293   42 C    0 0 0
  44 C    1     1.4020     2.6495   38 C    0 0 0
  44 C    1     2.1666     4.0942   16 H    0 0 0
  44 C    1     2.4177     4.5688   40 C    0 0 0
  44 C    1     2.4250     4.5826   48 C    0 0 0

  45 C    1     1.0915     2.0626   19 H    0 0 0
  45 C    1     1.3914     2.6294   39 C    0 0 0
  45 C    1     1.4025     2.6504   47 C    0 1 0
  45 C    1     2.1680     4.0969   13 H    0 0 0
  45 C    1     2.4182     4.5697   41 C    0 1 0
  45 C    1     2.4246     4.5818   37 C    0 0 0

  46 C    1     1.0915     2.0626   20 H    0 0 0
  46 C    1     1.3914     2.6294   40 C    0 0 0
  46 C    1     1.4025     2.6504   48 C    0 0 0
  46 C    1     2.1680     4.0969   14 H    0 0 0
  46 C    1     2.4182     4.5697   42 C    0 0 0
  46 C    1     2.4246     4.5818   38 C    0 0 0

  47 C    1     1.4025     2.6504   45 C    0-1 0
  47 C    1     1.4026     2.6505   41 C    0 0 0
  47 C    1     1.5513     2.9316    7 B    0 0 0
  47 C    1     2.1490     4.0610   19 H    0-1 0
  47 C    1     2.1493     4.0616   15 H    0 0 0
  47 C    1     2.4250     4.5825   39 C    0-1 0

  48 C    1     1.4025     2.6504   46 C    0 0 0
  48 C    1     1.4026     2.6505   42 C    0 0 0
  48 C    1     1.5513     2.9316    8 B    0 0 0
  48 C    1     2.1490     4.0610   20 H    0 0 0
  48 C    1     2.1493     4.0616   16 H    0 0 0
  48 C    1     2.4250     4.5825   40 C    0 0 0

  49 C    1     1.4020     2.6494   51 C    1 0 0
  49 C    1     1.4021     2.6495   55 C    0 0 0
  49 C    1     1.5503     2.9297    1 B    1 0 0
  49 C    1     2.1469     4.0571   21 H    1 0 0
  49 C    1     2.1475     4.0581   25 H    0 0 0
  49 C    1     2.4246     4.5818   53 C    0 0 0

  50 C    1     1.4020     2.6494   52 C    0 0 0
  50 C    1     1.4021     2.6495   56 C    0 0 0
  50 C    1     1.5503     2.9297    2 B    0 0 0
  50 C    1     2.1469     4.0571   22 H    0 0 0
  50 C    1     2.1475     4.0581   26 H    0 0 0
  50 C    1     2.4246     4.5818   54 C    0 0 0

  51 C    1     1.0913     2.0623   21 H    0 0 0
  51 C    1     1.3914     2.6293   57 C    0 0 0
  51 C    1     1.4020     2.6494   49 C   -1 0 0
  51 C    1     2.1666     4.0942   27 H    0 0 0
  51 C    1     2.4175     4.5684   55 C   -1 0 0
  51 C    1     2.4251     4.5828   59 C   -1 0 0

  52 C    1     1.0913     2.0623   22 H    0 0 0
  52 C    1     1.3914     2.6293   58 C    0 0 0
  52 C    1     1.4020     2.6494   50 C    0 0 0
  52 C    1     2.1666     4.0942   28 H    0 0 0
  52 C    1     2.4175     4.5684   56 C    0 0 0
  52 C    1     2.4251     4.5828   60 C    0 0 0

  53 C    1     1.0914     2.0625   23 H    0 0 0
  53 C    1     1.3915     2.6295   55 C    0 0 0
  53 C    1     1.4026     2.6505   59 C    0 0 0
  53 C    1     2.1679     4.0967   25 H    0 0 0
  53 C    1     2.4179     4.5691   57 C    1 0 0
  53 C    1     2.4246     4.5818   49 C    0 0 0

  54 C    1     1.0914     2.0625   24 H    0 0 0
  54 C    1     1.3915     2.6295   56 C    0 0 0
  54 C    1     1.4026     2.6505   60 C    0 0 0
  54 C    1     2.1679     4.0967   26 H    0 0 0
  54 C    1     2.4179     4.5691   58 C    0 0 0
  54 C    1     2.4246     4.5818   50 C    0 0 0

  55 C    1     1.0914     2.0624   25 H    0 0 0
  55 C    1     1.3915     2.6295   53 C    0 0 0
  55 C    1     1.4021     2.6495   49 C    0 0 0
  55 C    1     2.1664     4.0939   23 H    0 0 0
  55 C    1     2.4175     4.5684   51 C    1 0 0
  55 C    1     2.4253     4.5832   59 C    0 0 0

  56 C    1     1.0914     2.0624   26 H    0 0 0
  56 C    1     1.3915     2.6295   54 C    0 0 0
  56 C    1     1.4021     2.6495   50 C    0 0 0
  56 C    1     2.1664     4.0939   24 H    0 0 0
  56 C    1     2.4175     4.5684   52 C    0 0 0
  56 C    1     2.4253     4.5832   60 C    0 0 0

  57 C    1     1.0914     2.0625   27 H    0 0 0
  57 C    1     1.3914     2.6293   51 C    0 0 0
  57 C    1     1.4025     2.6504   59 C   -1 0 0
  57 C    1     2.1680     4.0968   21 H    0 0 0
  57 C    1     2.4179     4.5691   53 C   -1 0 0
  57 C    1     2.4247     4.5819   49 C   -1 0 0

  58 C    1     1.0914     2.0625   28 H    0 0 0
  58 C    1     1.3914     2.6293   52 C    0 0 0
  58 C    1     1.4025     2.6504   60 C    0 0 0
  58 C    1     2.1680     4.0968   22 H    0 0 0
  58 C    1     2.4179     4.5691   54 C    0 0 0
  58 C    1     2.4247     4.5819   50 C    0 0 0

  59 C    1     1.4025     2.6504   57 C    1 0 0
  59 C    1     1.4026     2.6505   53 C    0 0 0
  59 C    1     1.5516     2.9322   11 B    0 0 0
  59 C    1     2.1491     4.0612   27 H    1 0 0
  59 C    1     2.1493     4.0617   23 H    0 0 0
  59 C    1     2.4251     4.5828   51 C    1 0 0

  60 C    1     1.4025     2.6504   58 C    0 0 0
  60 C    1     1.4026     2.6505   54 C    0 0 0
  60 C    1     1.5516     2.9322   12 B   -1-1 0
  60 C    1     2.1491     4.0612   28 H    0 0 0
  60 C    1     2.1493     4.0617   24 H    0 0 0
  60 C    1     2.4251     4.5828   52 C    0 0 0

  61 C    1     1.4021     2.6496   63 C    1 1 0
  61 C    1     1.4021     2.6497   67 C    0 0 0
  61 C    1     1.5502     2.9294    5 B    1 1 0
  61 C    1     2.1475     4.0582   29 H    1 1 0
  61 C    1     2.1479     4.0589   33 H    0 0 0
  61 C    1     2.4244     4.5814   65 C    0 0 0

  62 C    1     1.4021     2.6496   64 C    0 0 0
  62 C    1     1.4021     2.6497   68 C    0 0 0
  62 C    1     1.5502     2.9294    6 B    0 0 0
  62 C    1     2.1475     4.0582   30 H    0 0 0
  62 C    1     2.1479     4.0589   34 H    0 0 0
  62 C    1     2.4244     4.5814   66 C    0 0 0

  63 C    1     1.0914     2.0624   29 H    0 0 0
  63 C    1     1.3914     2.6293   69 C    0 0 0
  63 C    1     1.4021     2.6496   61 C   -1-1 0
  63 C    1     2.1668     4.0947   35 H    0 0 0
  63 C    1     2.4179     4.5692   67 C   -1-1 0
  63 C    1     2.4251     4.5827   71 C   -1-1 0

  64 C    1     1.0914     2.0624   30 H    0 0 0
  64 C    1     1.3914     2.6293   70 C    0 0 0
  64 C    1     1.4021     2.6496   62 C    0 0 0
  64 C    1     2.1668     4.0947   36 H    0 0 0
  64 C    1     2.4179     4.5692   68 C    0 0 0
  64 C    1     2.4251     4.5827   72 C    0 0 0

  65 C    1     1.0913     2.0623   31 H    0 0 0
  65 C    1     1.3914     2.6294   67 C    0 0 0
  65 C    1     1.4025     2.6504   71 C    0 0 0
  65 C    1     2.1679     4.0968   33 H    0 0 0
  65 C    1     2.4178     4.5690   69 C    1 1 0
  65 C    1     2.4244     4.5814   61 C    0 0 0

  66 C    1     1.0913     2.0623   32 H    0 0 0
  66 C    1     1.3914     2.6294   68 C    0 0 0
  66 C    1     1.4025     2.6504   72 C    0 0 0
  66 C    1     2.1679     4.0968   34 H    0 0 0
  66 C    1     2.4178     4.5690   70 C    0 0 0
  66 C    1     2.4244     4.5814   62 C    0 0 0

  67 C    1     1.0915     2.0626   33 H    0 0 0
  67 C    1     1.3914     2.6294   65 C    0 0 0
  67 C    1     1.4021     2.6497   61 C    0 0 0
  67 C    1     2.1667     4.0945   31 H    0 0 0
  67 C    1     2.4179     4.5692   63 C    1 1 0
  67 C    1     2.4253     4.5832   71 C    0 0 0

  68 C    1     1.0915     2.0626   34 H    0 0 0
  68 C    1     1.3914     2.6294   66 C    0 0 0
  68 C    1     1.4021     2.6497   62 C    0 0 0
  68 C    1     2.1667     4.0945   32 H    0 0 0
  68 C    1     2.4179     4.5692   64 C    0 0 0
  68 C    1     2.4253     4.5832   72 C    0 0 0

  69 C    1     1.0914     2.0624   35 H    0 0 0
  69 C    1     1.3914     2.6293   63 C    0 0 0
  69 C    1     1.4025     2.6503   71 C   -1-1 0
  69 C    1     2.1678     4.0966   29 H    0 0 0
  69 C    1     2.4178     4.5690   65 C   -1-1 0
  69 C    1     2.4245     4.5817   61 C   -1-1 0

  70 C    1     1.0914     2.0624   36 H    0 0 0
  70 C    1     1.3914     2.6293   64 C    0 0 0
  70 C    1     1.4025     2.6503   72 C    0 0 0
  70 C    1     2.1678     4.0966   30 H    0 0 0
  70 C    1     2.4178     4.5690   66 C    0 0 0
  70 C    1     2.4245     4.5817   62 C    0 0 0

  71 C    1     1.4025     2.6503   69 C    1 1 0
  71 C    1     1.4025     2.6504   65 C    0 0 0
  71 C    1     1.5516     2.9322    9 B    0 0 0
  71 C    1     2.1486     4.0602   35 H    1 1 0
  71 C    1     2.1487     4.0605   31 H    0 0 0
  71 C    1     2.4251     4.5827   63 C    1 1 0

  72 C    1     1.4025     2.6503   70 C    0 0 0
  72 C    1     1.4025     2.6504   66 C    0 0 0
  72 C    1     1.5516     2.9322   10 B    0 0 0
  72 C    1     2.1486     4.0602   36 H    0 0 0
  72 C    1     2.1487     4.0605   32 H    0 0 0
  72 C    1     2.4251     4.5827   64 C    0 0 0

  73 O    1     1.3791     2.6061    1 B    1 0 0
  73 O    1     1.3791     2.6061    5 B    1 1 0
  73 O    1     2.3880     4.5126   75 O    1 0 0
  73 O    1     2.3882     4.5130   77 O    1 1 0
  73 O    1     2.5383     4.7966   61 C    0 0 0
  73 O    1     2.5384     4.7968   49 C    0 0 0

  74 O    1     1.3791     2.6061    2 B    0 0 0
  74 O    1     1.3791     2.6061    6 B    0 0 0
  74 O    1     2.3880     4.5126   76 O    0 0 0
  74 O    1     2.3882     4.5130   78 O    0 0 0
  74 O    1     2.5383     4.7966   62 C    0 0 0
  74 O    1     2.5384     4.7968   50 C    0 0 0

  75 O    1     1.3793     2.6065    1 B    0 0 0
  75 O    1     1.3793     2.6065    3 B    0 0 0
  75 O    1     2.3880     4.5126   73 O   -1 0 0
  75 O    1     2.3882     4.5131   77 O    0 1 0
  75 O    1     2.5391     4.7981   37 C    0 0 0
  75 O    1     2.5395     4.7990   49 C   -1 0 0

  76 O    1     1.3793     2.6065    2 B    0 0 0
  76 O    1     1.3793     2.6065    4 B    0 0 0
  76 O    1     2.3880     4.5126   74 O    0 0 0
  76 O    1     2.3882     4.5131   78 O    0 0 0
  76 O    1     2.5391     4.7981   38 C    0 0 0
  76 O    1     2.5395     4.7990   50 C    0 0 0

  77 O    1     1.3793     2.6064    5 B    0 0 0
  77 O    1     1.3793     2.6065    3 B    0-1 0
  77 O    1     2.3882     4.5130   73 O   -1-1 0
  77 O    1     2.3882     4.5131   75 O    0-1 0
  77 O    1     2.5390     4.7980   37 C    0-1 0
  77 O    1     2.5391     4.7982   61 C   -1-1 0

  78 O    1     1.3793     2.6064    6 B    0 0 0
  78 O    1     1.3793     2.6065    4 B    0 0 0
  78 O    1     2.3882     4.5130   74 O    0 0 0
  78 O    1     2.3882     4.5131   76 O    0 0 0
  78 O    1     2.5390     4.7980   38 C    0 0 0
  78 O    1     2.5391     4.7982   62 C    0 0 0

  79 O    1     1.3795     2.6068   11 B    0 0 0
  79 O    1     1.3795     2.6068    7 B    0 0 0
  79 O    1     2.3880     4.5126   83 O    1 0 0
  79 O    1     2.3884     4.5134   81 O    0-1 0
  79 O    1     2.5400     4.7998   47 C    0 0 0
  79 O    1     2.5403     4.8005   59 C    0 0 0

  80 O    1     1.3795     2.6068   12 B    0 0 0
  80 O    1     1.3795     2.6068    8 B    0 0 0
  80 O    1     2.3880     4.5126   84 O    1 0 0
  80 O    1     2.3884     4.5134   82 O    0 0 0
  80 O    1     2.5400     4.7998   48 C    0 0 0
  80 O    1     2.5403     4.8005   60 C    1 1 0

  81 O    1     1.3795     2.6069    9 B    0 0 0
  81 O    1     1.3795     2.6070    7 B    0 1 0
  81 O    1     2.3881     4.5128   83 O    1 1 0
  81 O    1     2.3884     4.5134   79 O    0 1 0
  81 O    1     2.5404     4.8006   47 C    0 1 0
  81 O    1     2.5405     4.8008   71 C    0 0 0

  82 O    1     1.3795     2.6069   10 B    1 0 0
  82 O    1     1.3795     2.6070    8 B    0 0 0
  82 O    1     2.3881     4.5128   84 O    1 0 0
  82 O    1     2.3884     4.5134   80 O    0 0 0
  82 O    1     2.5404     4.8006   48 C    0 0 0
  82 O    1     2.5405     4.8008   72 C    1 0 0

  83 O    1     1.3796     2.6071   11 B   -1 0 0
  83 O    1     1.3797     2.6072    9 B   -1-1 0
  83 O    1     2.3880     4.5126   79 O   -1 0 0
  83 O    1     2.3881     4.5128   81 O   -1-1 0
  83 O    1     2.5409     4.8016   71 C   -1-1 0
  83 O    1     2.5410     4.8019   59 C   -1 0 0

  84 O    1     1.3796     2.6071   12 B   -1 0 0
  84 O    1     1.3797     2.6072   10 B    0 0 0
  84 O    1     2.3880     4.5126   80 O   -1 0 0
  84 O    1     2.3881     4.5128   82 O   -1 0 0
  84 O    1     2.5409     4.8016   72 C    0 0 0
  84 O    1     2.5410     4.8019   60 C    0 1 0


 SYMMETRY ALLOWED INTERNAL DEGREE(S) OF FREEDOM: 249
 TTTTTTTTTTTTTTTTTTTTTTTTTTTTTT SYMM        TELAPSE        2.76 TCPU        2.75
 TTTTTTTTTTTTTTTTTTTTTTTTTTTTTT INT_SCREEN  TELAPSE        2.97 TCPU        2.97

 DFT PARAMETERS

     ATOM       ELECTRONS   NET CHARGE   R(ANGSTROM)
   1   5  B       5.0000      0.0000     0.89000000
  13   1  H       1.0000      0.0000     1.11000000
  37   6  C       6.0000      0.0000     0.77000000
  73   8  O       8.0000      0.0000     0.74000000

 SIZE OF GRID=    2508186
 TTTTTTTTTTTTTTTTTTTTTTTTTTTTTT MAKE_GRID2  TELAPSE       26.47 TCPU       26.44
 BECKE WEIGHT FUNCTION
 RADSAFE =     2.00
 TOLERANCES - DENSITY:10**- 6; POTENTIAL:10**- 9; GRID WGT:10**-14

 RADIAL INTEGRATION  - INTERVALS (POINTS,UPPER LIMIT):            1( 75,  4.0*R)

 ANGULAR INTEGRATION - INTERVALS (ACCURACY LEVEL [N. POINTS] UPPER LIMIT):
  1(  4[  86]   0.2)  2(  8[ 194]   0.5)  3( 12[ 350]   0.9)  4( 16[ 974]   3.5)
  5( 12[ 350]9999.0)
 TTTTTTTTTTTTTTTTTTTTTTTTTTTTTT INT_CALC    TELAPSE       26.75 TCPU       26.72
 EEEEEEEEEE INT_CALC TERMINATION  DATE 19 02 2026 TIME 19:43:50.4

 *******************************************************************************
 cof-1_z31_L070_serr                                                             
 CRYSTAL - SCF - TYPE OF CALCULATION :  RESTRICTED CLOSED SHELL
 *******************************************************************************

 CAPPA:IS1  2;IS2  2;IS3  8; K PTS MONK NET  20; SYMMOPS:K SPACE   2;G SPACE   1

 TTTTTTTTTTTTTTTTTTTTTTTTTTTTTT SDIK        TELAPSE       28.65 TCPU       54.18

 AAAAAAAAAAAAAAAAAAAAAAAAAAAAAAAAAAAAAAAAAAAAAAAAAAAAAAAAAAAAAAAAAAAAAAAAAAAAAAA
         ATOMIC WAVEFUNCTION(S)


 NUCLEAR CHARGE  5.0  SYMMETRY SPECIES            S    P
 N. ELECTRONS    5.0  NUMBER OF PRIMITIVE GTOS    8    4
                      NUMBER OF CONTRACTED GTOS   4    2
                      NUMBER OF CLOSED SHELLS     2    0
                      OPEN SHELL OCCUPATION       0    1

  ZNUC  SCFIT    TOTAL HF ENERGY   KINETIC ENERGY   VIRIAL THEOREM ACCURACY
   5.0    11    -2.451164084E+01  2.462155050E+01 -1.995536038E+00  1.5E-06

 NUCLEAR CHARGE  1.0  SYMMETRY SPECIES            S
 N. ELECTRONS    1.0  NUMBER OF PRIMITIVE GTOS    4
                      NUMBER OF CONTRACTED GTOS   2
                      NUMBER OF CLOSED SHELLS     0
                      OPEN SHELL OCCUPATION       1

  ZNUC  SCFIT    TOTAL HF ENERGY   KINETIC ENERGY   VIRIAL THEOREM ACCURACY
   1.0     1    -4.977266687E-01  5.190767460E-01 -1.958869132E+00  0.0E+00

 NUCLEAR CHARGE  6.0  SYMMETRY SPECIES            S    P
 N. ELECTRONS    6.0  NUMBER OF PRIMITIVE GTOS    8    4
                      NUMBER OF CONTRACTED GTOS   4    2
                      NUMBER OF CLOSED SHELLS     2    0
                      OPEN SHELL OCCUPATION       0    2

  ZNUC  SCFIT    TOTAL HF ENERGY   KINETIC ENERGY   VIRIAL THEOREM ACCURACY
   6.0     9    -3.766704647E+01  3.775180683E+01 -1.997754800E+00  1.1E-06

 NUCLEAR CHARGE  8.0  SYMMETRY SPECIES            S    P
 N. ELECTRONS    8.0  NUMBER OF PRIMITIVE GTOS    8    4
                      NUMBER OF CONTRACTED GTOS   4    2
                      NUMBER OF CLOSED SHELLS     2    0
                      OPEN SHELL OCCUPATION       0    4

  ZNUC  SCFIT    TOTAL HF ENERGY   KINETIC ENERGY   VIRIAL THEOREM ACCURACY
   8.0    12    -7.477373220E+01  7.477365593E+01 -2.000001020E+00  3.8E-06

 AAAAAAAAAAAAAAAAAAAAAAAAAAAAAAAAAAAAAAAAAAAAAAAAAAAAAAAAAAAAAAAAAAAAAAAAAAAAAAA

 CHARGE NORMALIZATION FACTOR   1.00000000
 TOTAL ATOMIC CHARGES:
   5.0000000   5.0000000   5.0000000   5.0000000   5.0000000   5.0000000
   5.0000000   5.0000000   5.0000000   5.0000000   5.0000000   5.0000000
   1.0000000   1.0000000   1.0000000   1.0000000   1.0000000   1.0000000
   1.0000000   1.0000000   1.0000000   1.0000000   1.0000000   1.0000000
   1.0000000   1.0000000   1.0000000   1.0000000   1.0000000   1.0000000
   1.0000000   1.0000000   1.0000000   1.0000000   1.0000000   1.0000000
   6.0000000   6.0000000   6.0000000   6.0000000   6.0000000   6.0000000
   6.0000000   6.0000000   6.0000000   6.0000000   6.0000000   6.0000000
   6.0000000   6.0000000   6.0000000   6.0000000   6.0000000   6.0000000
   6.0000000   6.0000000   6.0000000   6.0000000   6.0000000   6.0000000
   6.0000000   6.0000000   6.0000000   6.0000000   6.0000000   6.0000000
   6.0000000   6.0000000   6.0000000   6.0000000   6.0000000   6.0000000
   8.0000000   8.0000000   8.0000000   8.0000000   8.0000000   8.0000000
   8.0000000   8.0000000   8.0000000   8.0000000   8.0000000   8.0000000
 TTTTTTTTTTTTTTTTTTTTTTTTTTTTTT MOQGAD      TELAPSE       28.75 TCPU       57.38
 TTTTTTTTTTTTTTTTTTTTTTTTTTTTTT SHELLXN     TELAPSE       50.38 TCPU      748.63
 TTTTTTTTTTTTTTTTTTTTTTTTTTTTTT MONMO3      TELAPSE       51.00 TCPU      768.57
 NUMERICALLY INTEGRATED DENSITY    396.0002171001
 TTTTTTTTTTTTTTTTTTTTTTTTTTTTTT NUMDFT      TELAPSE       52.53 TCPU      817.40
 CYC   0 ETOT(AU) -2.592006411976E+03 DETOT -2.59E+03 tst  0.00E+00 PX  1.00E+00
 TTTTTTTTTTTTTTTTTTTTTTTTTTTTTT DIIS        TELAPSE       52.64 TCPU      820.86
 TTTTTTTTTTTTTTTTTTTTTTTTTTTTTT FDIK        TELAPSE       54.46 TCPU      878.79
 INSULATING STATE
 TOP OF VALENCE BANDS -    BAND    198; K    4; EIG -2.9804972E-01 AU
 TOP OF VALENCE BANDS -    BAND    198; K    1; EIG -2.9862987E-01 AU
 BOTTOM OF VIRTUAL BANDS - BAND    199; K    1; EIG -1.6503732E-01 AU
 INDIRECT ENERGY BAND GAP:   3.6195 eV
 TTTTTTTTTTTTTTTTTTTTTTTTTTTTTT PDIG        TELAPSE       56.03 TCPU      885.75
 CHARGE NORMALIZATION FACTOR   1.00000000
 TOTAL ATOMIC CHARGES:
   4.0778401   4.1622619   4.1384553   4.1660039   4.1386904   4.1662521
   4.1658320   4.1382735   4.1656108   4.1380769   4.1618720   4.0774320
   0.7864843   0.7851124   0.7852302   0.7866030   0.7852554   0.7850616
   0.7851804   0.7853745   0.7860197   0.7859359   0.7861100   0.7861929
   0.7860138   0.7859225   0.7860724   0.7861435   0.7852585   0.7850635
   0.7852450   0.7854468   0.7864373   0.7850639   0.7852189   0.7865935
   6.0487016   6.0420514   6.2739848   6.2680596   6.2680347   6.2739641
   6.2697618   6.2643525   6.2643019   6.2697396   6.0413189   6.0479439
   6.0646296   6.0401477   6.2671910   6.2650941   6.2650971   6.2672651
   6.2671257   6.2649970   6.2651294   6.2672781   6.0389650   6.0633379
   6.0490451   6.0424121   6.2695348   6.2641167   6.2646771   6.2701336
   6.2736104   6.2676767   6.2683243   6.2742484   6.0408542   6.0474269
   8.7152567   8.6907652   8.7153593   8.6908732   8.7184816   8.6908689
   8.6911942   8.7156609   8.6912735   8.7188973   8.6913695   8.7158257
 TTTTTTTTTTTTTTTTTTTTTTTTTTTTTT MOQGAD      TELAPSE       56.13 TCPU      885.85
 TTTTTTTTTTTTTTTTTTTTTTTTTTTTTT SHELLXN     TELAPSE       78.60 TCPU     1602.98
 TTTTTTTTTTTTTTTTTTTTTTTTTTTTTT MONMO3      TELAPSE       79.23 TCPU     1622.92
 NUMERICALLY INTEGRATED DENSITY    396.0001446230
 TTTTTTTTTTTTTTTTTTTTTTTTTTTTTT NUMDFT      TELAPSE       80.78 TCPU     1672.62
 CYC   1 ETOT(AU) -2.577636824137E+03 DETOT  1.44E+01 tst  0.00E+00 PX  1.00E+00
 TTTTTTTTTTTTTTTTTTTTTTTTTTTTTT DIIS        TELAPSE       80.92 TCPU     1677.07
 DIIS TEST: 0.22291E+01 AT SCF   CYCLE   1 - MIX   30 %
 TTTTTTTTTTTTTTTTTTTTTTTTTTTTTT FDIK        TELAPSE       82.76 TCPU     1735.68
 INSULATING STATE
 TOP OF VALENCE BANDS -    BAND    198; K    4; EIG -2.0518946E-01 AU
 TOP OF VALENCE BANDS -    BAND    198; K    1; EIG -2.0617461E-01 AU
 BOTTOM OF VIRTUAL BANDS - BAND    199; K    1; EIG -8.9368071E-02 AU
 INDIRECT ENERGY BAND GAP:   3.1517 eV
 TTTTTTTTTTTTTTTTTTTTTTTTTTTTTT PDIG        TELAPSE       84.33 TCPU     1742.64
 CHARGE NORMALIZATION FACTOR   1.00000000
 TOTAL ATOMIC CHARGES:
   4.6711221   4.7169201   4.6608642   4.7191060   4.6607959   4.7191150
   4.7192478   4.6606327   4.7192295   4.6606978   4.7169698   4.6710901
   0.9040885   0.9096023   0.9095785   0.9040951   0.9020260   0.9135209
   0.9135066   0.9022469   0.8965470   0.9065317   0.9063755   0.8965735
   0.8965107   0.9065350   0.9063712   0.8965666   0.9020326   0.9135171
   0.9135788   0.9023366   0.9040116   0.9095606   0.9095952   0.9041196
   5.8563859   5.8827423   6.1595009   6.1552709   6.1555977   6.1599368
   6.1082323   6.1482998   6.1489067   6.1090080   5.8853953   5.8588442
   5.9351713   5.8862238   6.1227309   6.1206636   6.1212993   6.1230400
   6.1229187   6.1209113   6.1211977   6.1230299   5.8893225   5.9381560
   5.8562517   5.8826685   6.1082552   6.1483590   6.1487711   6.1089040
   6.1597080   6.1554750   6.1554162   6.1596233   5.8856264   5.8589527
   8.3614125   8.3323263   8.3617101   8.3326949   8.3231832   8.3361896
   8.3321479   8.3611965   8.3359170   8.3230535   8.3325413   8.3616106
 TTTTTTTTTTTTTTTTTTTTTTTTTTTTTT MOQGAD      TELAPSE       84.43 TCPU     1742.74
 TTTTTTTTTTTTTTTTTTTTTTTTTTTTTT SHELLXN     TELAPSE      106.91 TCPU     2459.85
 TTTTTTTTTTTTTTTTTTTTTTTTTTTTTT MONMO3      TELAPSE      107.53 TCPU     2479.80
 NUMERICALLY INTEGRATED DENSITY    396.0001618666
 TTTTTTTTTTTTTTTTTTTTTTTTTTTTTT NUMDFT      TELAPSE      109.09 TCPU     2529.45
 CYC   2 ETOT(AU) -2.578014467619E+03 DETOT -3.78E-01 tst  2.51E-03 PX  1.64E-01
 TTTTTTTTTTTTTTTTTTTTTTTTTTTTTT DIIS        TELAPSE      109.24 TCPU     2534.52
 DIIS TEST: 0.95875E+00 AT SCF   CYCLE   2 - DIIS ACTIVE - HISTORY:     2 CYCLES
 TTTTTTTTTTTTTTTTTTTTTTTTTTTTTT FDIK        TELAPSE      111.09 TCPU     2593.42
 INSULATING STATE
 TOP OF VALENCE BANDS -    BAND    198; K    4; EIG -2.2171388E-01 AU
 TOP OF VALENCE BANDS -    BAND    198; K    1; EIG -2.2276749E-01 AU
 BOTTOM OF VIRTUAL BANDS - BAND    199; K    1; EIG -8.5665571E-02 AU
 INDIRECT ENERGY BAND GAP:   3.7021 eV
 TTTTTTTTTTTTTTTTTTTTTTTTTTTTTT PDIG        TELAPSE      112.66 TCPU     2600.38
 CHARGE NORMALIZATION FACTOR   1.00000000
 TOTAL ATOMIC CHARGES:
   4.4271697   4.5122057   4.4592608   4.5128556   4.4593875   4.5129614
   4.5126358   4.4592536   4.5124718   4.4590982   4.5118212   4.4268124
   0.8837322   0.8883964   0.8885507   0.8838815   0.8805899   0.8921674
   0.8923449   0.8805983   0.8729782   0.8790004   0.8793499   0.8729962
   0.8729958   0.8790275   0.8793174   0.8729402   0.8805813   0.8921773
   0.8923917   0.8806743   0.8837120   0.8884098   0.8885203   0.8838480
   5.9257955   5.8694732   6.1691844   6.1663137   6.1660940   6.1690225
   6.1845684   6.1441489   6.1436102   6.1836999   5.8689677   5.9255501
   5.9106589   5.8900375   6.1755578   6.1729082   6.1725969   6.1755468
   6.1756927   6.1729847   6.1725023   6.1754179   5.8893462   5.9104062
   5.9260328   5.8697570   6.1845205   6.1440988   6.1437247   6.1838180
   6.1691759   6.1661802   6.1661464   6.1690005   5.8686490   5.9252337
   8.5244795   8.5070749   8.5245897   8.5072746   8.5443593   8.5008520
   8.5073672   8.5247385   8.5009837   8.5443094   8.5075662   8.5248677
 TTTTTTTTTTTTTTTTTTTTTTTTTTTTTT MOQGAD      TELAPSE      112.76 TCPU     2600.48
 TTTTTTTTTTTTTTTTTTTTTTTTTTTTTT SHELLXN     TELAPSE      135.26 TCPU     3318.49
 TTTTTTTTTTTTTTTTTTTTTTTTTTTTTT MONMO3      TELAPSE      135.89 TCPU     3338.44
 NUMERICALLY INTEGRATED DENSITY    396.0001614365
 TTTTTTTTTTTTTTTTTTTTTTTTTTTTTT NUMDFT      TELAPSE      137.45 TCPU     3388.27
 CYC   3 ETOT(AU) -2.578208385851E+03 DETOT -1.94E-01 tst  5.67E-04 PX  7.62E-02
 TTTTTTTTTTTTTTTTTTTTTTTTTTTTTT DIIS        TELAPSE      137.63 TCPU     3393.96
 DIIS TEST: 0.38047E-01 AT SCF   CYCLE   3 - DIIS ACTIVE - HISTORY:     3 CYCLES
 TTTTTTTTTTTTTTTTTTTTTTTTTTTTTT FDIK        TELAPSE      139.46 TCPU     3452.43
 INSULATING STATE
 TOP OF VALENCE BANDS -    BAND    198; K    4; EIG -2.2693354E-01 AU
 TOP OF VALENCE BANDS -    BAND    198; K    1; EIG -2.2771657E-01 AU
 BOTTOM OF VIRTUAL BANDS - BAND    199; K    1; EIG -9.2091931E-02 AU
 INDIRECT ENERGY BAND GAP:   3.6692 eV
 TTTTTTTTTTTTTTTTTTTTTTTTTTTTTT PDIG        TELAPSE      141.02 TCPU     3459.39
 CHARGE NORMALIZATION FACTOR   1.00000000
 TOTAL ATOMIC CHARGES:
   4.4426630   4.5101643   4.4672293   4.5106942   4.4673127   4.5108016
   4.5106428   4.4670412   4.5104794   4.4669309   4.5098866   4.4424425
   0.8674574   0.8705812   0.8706529   0.8675227   0.8699164   0.8722321
   0.8722158   0.8700148   0.8636871   0.8701761   0.8701063   0.8638667
   0.8636942   0.8702158   0.8700609   0.8638071   0.8699427   0.8722398
   0.8722758   0.8700679   0.8674380   0.8705702   0.8706349   0.8674987
   5.9203068   5.9567618   6.1894257   6.1773268   6.1773485   6.1895046
   6.1374991   6.1900501   6.1907615   6.1386385   5.9587834   5.9218941
   5.9903917   5.9361098   6.1661585   6.1541690   6.1546610   6.1661600
   6.1660931   6.1542026   6.1546812   6.1663067   5.9379936   5.9920967
   5.9202129   5.9567655   6.1373884   6.1899489   6.1908491   6.1387647
   6.1893211   6.1772503   6.1774595   6.1895139   5.9588276   5.9218628
   8.5108030   8.4782312   8.5110622   8.4784981   8.4797694   8.4871756
   8.4782317   8.5107095   8.4871908   8.4800647   8.4785484   8.5110618
 TTTTTTTTTTTTTTTTTTTTTTTTTTTTTT MOQGAD      TELAPSE      141.12 TCPU     3459.49
 TTTTTTTTTTTTTTTTTTTTTTTTTTTTTT SHELLXN     TELAPSE      163.61 TCPU     4177.23
 TTTTTTTTTTTTTTTTTTTTTTTTTTTTTT MONMO3      TELAPSE      164.24 TCPU     4197.15
 NUMERICALLY INTEGRATED DENSITY    396.0001595411
 TTTTTTTTTTTTTTTTTTTTTTTTTTTTTT NUMDFT      TELAPSE      165.79 TCPU     4246.83
 CYC   4 ETOT(AU) -2.578214552442E+03 DETOT -6.17E-03 tst  9.39E-05 PX  2.24E-02
 TTTTTTTTTTTTTTTTTTTTTTTTTTTTTT DIIS        TELAPSE      165.99 TCPU     4253.14
 DIIS TEST: 0.16723E-01 AT SCF   CYCLE   4 - DIIS ACTIVE - HISTORY:     4 CYCLES
 TTTTTTTTTTTTTTTTTTTTTTTTTTTTTT FDIK        TELAPSE      167.82 TCPU     4311.63
 INSULATING STATE
 TOP OF VALENCE BANDS -    BAND    198; K    4; EIG -2.2893360E-01 AU
 TOP OF VALENCE BANDS -    BAND    198; K    1; EIG -2.2987349E-01 AU
 BOTTOM OF VIRTUAL BANDS - BAND    199; K    1; EIG -9.3097036E-02 AU
 INDIRECT ENERGY BAND GAP:   3.6963 eV
 TTTTTTTTTTTTTTTTTTTTTTTTTTTTTT PDIG        TELAPSE      169.39 TCPU     4318.59
 CHARGE NORMALIZATION FACTOR   1.00000000
 TOTAL ATOMIC CHARGES:
   4.4480366   4.5152548   4.4667848   4.5173194   4.4668868   4.5174246
   4.5172522   4.4667222   4.5171009   4.4665974   4.5150209   4.4477866
   0.8689646   0.8724973   0.8725891   0.8690505   0.8674316   0.8762495
   0.8763927   0.8675475   0.8602536   0.8667474   0.8669309   0.8602964
   0.8602509   0.8667638   0.8669066   0.8602525   0.8674324   0.8762565
   0.8764496   0.8676262   0.8689284   0.8724905   0.8725741   0.8690381
   5.9402834   5.9182344   6.1800166   6.1810665   6.1810428   6.1801061
   6.1736753   6.1590141   6.1587425   6.1733045   5.9185672   5.9406470
   5.9649157   5.9327409   6.1713084   6.1679150   6.1679120   6.1713711
   6.1714423   6.1680407   6.1678084   6.1713029   5.9331847   5.9655705
   5.9404068   5.9184093   6.1736249   6.1589770   6.1588017   6.1733685
   6.1800423   6.1810200   6.1810549   6.1800347   5.9183948   5.9404343
   8.5054215   8.4847143   8.5055737   8.4849533   8.5019590   8.4797074
   8.4848569   8.5055245   8.4796974   8.5018520   8.4851119   8.5057378
 TTTTTTTTTTTTTTTTTTTTTTTTTTTTTT MOQGAD      TELAPSE      169.49 TCPU     4318.69
 TTTTTTTTTTTTTTTTTTTTTTTTTTTTTT SHELLXN     TELAPSE      191.98 TCPU     5036.33
 TTTTTTTTTTTTTTTTTTTTTTTTTTTTTT MONMO3      TELAPSE      192.60 TCPU     5056.25
 NUMERICALLY INTEGRATED DENSITY    396.0001594461
 TTTTTTTTTTTTTTTTTTTTTTTTTTTTTT NUMDFT      TELAPSE      194.16 TCPU     5105.89
 CYC   5 ETOT(AU) -2.578218214113E+03 DETOT -3.66E-03 tst  4.27E-05 PX  9.26E-03
 TTTTTTTTTTTTTTTTTTTTTTTTTTTTTT DIIS        TELAPSE      194.38 TCPU     5112.69
 DIIS TEST: 0.20156E-02 AT SCF   CYCLE   5 - DIIS ACTIVE - HISTORY:     5 CYCLES
 TTTTTTTTTTTTTTTTTTTTTTTTTTTTTT FDIK        TELAPSE      196.21 TCPU     5171.03
 INSULATING STATE
 TOP OF VALENCE BANDS -    BAND    198; K    4; EIG -2.2744484E-01 AU
 TOP OF VALENCE BANDS -    BAND    198; K    1; EIG -2.2833200E-01 AU
 BOTTOM OF VIRTUAL BANDS - BAND    199; K    1; EIG -9.2445411E-02 AU
 INDIRECT ENERGY BAND GAP:   3.6735 eV
 TTTTTTTTTTTTTTTTTTTTTTTTTTTTTT PDIG        TELAPSE      197.78 TCPU     5177.98
 CHARGE NORMALIZATION FACTOR   1.00000000
 TOTAL ATOMIC CHARGES:
   4.4458369   4.5166001   4.4669107   4.5174179   4.4670024   4.5175219
   4.5173223   4.4668049   4.5171700   4.4666901   4.5163207   4.4455721
   0.8700001   0.8744429   0.8745459   0.8700983   0.8696593   0.8770102
   0.8770864   0.8697497   0.8628749   0.8693088   0.8694243   0.8629766
   0.8628809   0.8693394   0.8693876   0.8629257   0.8696688   0.8770169
   0.8771436   0.8698160   0.8699721   0.8744377   0.8745277   0.8700785
   5.9270146   5.9202402   6.1846071   6.1753679   6.1752832   6.1845837
   6.1619053   6.1717943   6.1719258   6.1620769   5.9210777   5.9277700
   5.9566099   5.9225647   6.1719364   6.1660317   6.1661253   6.1718951
   6.1719678   6.1660937   6.1660959   6.1719175   5.9232416   5.9574003
   5.9270708   5.9203609   6.1618274   6.1717274   6.1720102   6.1621879
   6.1845646   6.1752829   6.1753524   6.1845598   5.9209661   5.9276155
   8.5104935   8.4854746   8.5106910   8.4857169   8.5023494   8.4876673
   8.4855955   8.5105520   8.4877261   8.5024729   8.4858622   8.5108035
 TTTTTTTTTTTTTTTTTTTTTTTTTTTTTT MOQGAD      TELAPSE      197.88 TCPU     5178.08
 TTTTTTTTTTTTTTTTTTTTTTTTTTTTTT SHELLXN     TELAPSE      220.37 TCPU     5895.55
 TTTTTTTTTTTTTTTTTTTTTTTTTTTTTT MONMO3      TELAPSE      220.99 TCPU     5915.50
 NUMERICALLY INTEGRATED DENSITY    396.0001594167
 TTTTTTTTTTTTTTTTTTTTTTTTTTTTTT NUMDFT      TELAPSE      222.55 TCPU     5965.18
 CYC   6 ETOT(AU) -2.578218690137E+03 DETOT -4.76E-04 tst  6.02E-06 PX  3.33E-03
 TTTTTTTTTTTTTTTTTTTTTTTTTTTTTT DIIS        TELAPSE      222.79 TCPU     5972.06
 DIIS TEST: 0.26463E-03 AT SCF   CYCLE   6 - DIIS ACTIVE - HISTORY:     6 CYCLES
 TTTTTTTTTTTTTTTTTTTTTTTTTTTTTT FDIK        TELAPSE      224.63 TCPU     6030.54
 INSULATING STATE
 TOP OF VALENCE BANDS -    BAND    198; K    4; EIG -2.2767772E-01 AU
 TOP OF VALENCE BANDS -    BAND    198; K    1; EIG -2.2857992E-01 AU
 BOTTOM OF VIRTUAL BANDS - BAND    199; K    1; EIG -9.2407953E-02 AU
 INDIRECT ENERGY BAND GAP:   3.6809 eV
 TTTTTTTTTTTTTTTTTTTTTTTTTTTTTT PDIG        TELAPSE      226.21 TCPU     6037.50
 CHARGE NORMALIZATION FACTOR   1.00000000
 TOTAL ATOMIC CHARGES:
   4.4454143   4.5159920   4.4675407   4.5170928   4.4676382   4.5171981
   4.5169998   4.4674358   4.5168461   4.4673134   4.5157147   4.4451491
   0.8705291   0.8742833   0.8743772   0.8706180   0.8695810   0.8774401
   0.8775322   0.8696775   0.8627031   0.8695243   0.8696412   0.8627809
   0.8627063   0.8695503   0.8696101   0.8627318   0.8695875   0.8774480
   0.8775879   0.8697482   0.8705003   0.8742790   0.8743589   0.8705995
   5.9296617   5.9206625   6.1818089   6.1778256   6.1777854   6.1818566
   6.1641824   6.1676411   6.1676725   6.1642563   5.9214563   5.9303599
   5.9608824   5.9233031   6.1716577   6.1651033   6.1652387   6.1717083
   6.1717318   6.1651915   6.1651744   6.1716961   5.9240800   5.9617866
   5.9297388   5.9208012   6.1641120   6.1675803   6.1677537   6.1643506
   6.1817837   6.1777535   6.1778373   6.1818195   5.9213279   5.9301846
   8.5097328   8.4855404   8.5099131   8.4857818   8.5009423   8.4850694
   8.4856659   8.5098011   8.4850946   8.5009855   8.4859312   8.5100447
 TTTTTTTTTTTTTTTTTTTTTTTTTTTTTT MOQGAD      TELAPSE      226.31 TCPU     6037.60
 TTTTTTTTTTTTTTTTTTTTTTTTTTTTTT SHELLXN     TELAPSE      248.79 TCPU     6754.95
 TTTTTTTTTTTTTTTTTTTTTTTTTTTTTT MONMO3      TELAPSE      249.41 TCPU     6774.89
 NUMERICALLY INTEGRATED DENSITY    396.0001595397
 TTTTTTTTTTTTTTTTTTTTTTTTTTTTTT NUMDFT      TELAPSE      250.97 TCPU     6824.60
 CYC   7 ETOT(AU) -2.578218750156E+03 DETOT -6.00E-05 tst  4.84E-07 PX  1.11E-03
 TTTTTTTTTTTTTTTTTTTTTTTTTTTTTT DIIS        TELAPSE      251.23 TCPU     6831.44
 DIIS TEST: 0.12513E-04 AT SCF   CYCLE   7 - DIIS ACTIVE - HISTORY:     7 CYCLES
 TTTTTTTTTTTTTTTTTTTTTTTTTTTTTT FDIK        TELAPSE      253.07 TCPU     6889.87
 INSULATING STATE
 TOP OF VALENCE BANDS -    BAND    198; K    4; EIG -2.2769863E-01 AU
 TOP OF VALENCE BANDS -    BAND    198; K    1; EIG -2.2859725E-01 AU
 BOTTOM OF VIRTUAL BANDS - BAND    199; K    1; EIG -9.2410807E-02 AU
 INDIRECT ENERGY BAND GAP:   3.6814 eV
 TTTTTTTTTTTTTTTTTTTTTTTTTTTTTT PDIG        TELAPSE      254.64 TCPU     6896.82
 CHARGE NORMALIZATION FACTOR   1.00000000
 TOTAL ATOMIC CHARGES:
   4.4458523   4.5161301   4.4673020   4.5171381   4.4673974   4.5172427
   4.5170469   4.4672072   4.5168940   4.4670881   4.5158566   4.4455913
   0.8703324   0.8743806   0.8744784   0.8704249   0.8696484   0.8773370
   0.8774292   0.8697425   0.8627631   0.8693123   0.8694407   0.8628485
   0.8627678   0.8693398   0.8694071   0.8627985   0.8696559   0.8773442
   0.8774859   0.8698115   0.8703036   0.8743757   0.8744606   0.8704060
   5.9298887   5.9203465   6.1827337   6.1768339   6.1767744   6.1827529
   6.1640487   6.1681829   6.1682129   6.1640967   5.9210898   5.9305627
   5.9598567   5.9247643   6.1712505   6.1656150   6.1656968   6.1712439
   6.1713062   6.1656939   6.1656473   6.1712456   5.9254350   5.9606579
   5.9299587   5.9204788   6.1639769   6.1681217   6.1682923   6.1641955
   6.1827061   6.1767588   6.1768300   6.1827184   5.9209661   5.9303968
   8.5093617   8.4852432   8.5095486   8.4854856   8.5014611   8.4854336
   8.4853669   8.5094274   8.4854697   8.5015185   8.4856328   8.5096728
 TTTTTTTTTTTTTTTTTTTTTTTTTTTTTT MOQGAD      TELAPSE      254.74 TCPU     6896.92
 TTTTTTTTTTTTTTTTTTTTTTTTTTTTTT SHELLXN     TELAPSE      277.23 TCPU     7614.37
 TTTTTTTTTTTTTTTTTTTTTTTTTTTTTT MONMO3      TELAPSE      277.85 TCPU     7634.30
 NUMERICALLY INTEGRATED DENSITY    396.0001595393
 TTTTTTTTTTTTTTTTTTTTTTTTTTTTTT NUMDFT      TELAPSE      279.40 TCPU     7683.96
 CYC   8 ETOT(AU) -2.578218753366E+03 DETOT -3.21E-06 tst  2.67E-08 PX  3.27E-04
 TTTTTTTTTTTTTTTTTTTTTTTTTTTTTT DIIS        TELAPSE      279.69 TCPU     7690.85
 DIIS TEST: 0.11300E-05 AT SCF   CYCLE   8 - DIIS ACTIVE - HISTORY:     8 CYCLES
 TTTTTTTTTTTTTTTTTTTTTTTTTTTTTT FDIK        TELAPSE      281.53 TCPU     7749.13
 INSULATING STATE
 TOP OF VALENCE BANDS -    BAND    198; K    4; EIG -2.2769745E-01 AU
 TOP OF VALENCE BANDS -    BAND    198; K    1; EIG -2.2859693E-01 AU
 BOTTOM OF VIRTUAL BANDS - BAND    199; K    1; EIG -9.2423567E-02 AU
 INDIRECT ENERGY BAND GAP:   3.6810 eV
 TTTTTTTTTTTTTTTTTTTTTTTTTTTTTT PDIG        TELAPSE      283.09 TCPU     7756.09
 CHARGE NORMALIZATION FACTOR   1.00000000
 TOTAL ATOMIC CHARGES:
   4.4459735   4.5161318   4.4673310   4.5171922   4.4674269   4.5172970
   4.5171010   4.4672311   4.5169480   4.4671112   4.5158581   4.4457116
   0.8703471   0.8743336   0.8744311   0.8704391   0.8696150   0.8773295
   0.8774204   0.8697094   0.8627152   0.8693320   0.8694548   0.8627987
   0.8627190   0.8693587   0.8694224   0.8627493   0.8696220   0.8773368
   0.8774768   0.8697794   0.8703181   0.8743288   0.8744132   0.8704206
   5.9297785   5.9203950   6.1825455   6.1770475   6.1769913   6.1825704
   6.1640578   6.1680864   6.1681263   6.1641257   5.9211600   5.9304660
   5.9600164   5.9242866   6.1714127   6.1654759   6.1655820   6.1714297
   6.1714780   6.1655590   6.1655260   6.1714245   5.9249935   5.9608522
   5.9298529   5.9205310   6.1639871   6.1680265   6.1682054   6.1642220
   6.1825201   6.1769742   6.1770448   6.1825340   5.9210332   5.9302945
   8.5094446   8.4853257   8.5096283   8.4855675   8.5014442   8.4854129
   8.4854503   8.5095113   8.4854466   8.5015020   8.4857151   8.5097545
 TTTTTTTTTTTTTTTTTTTTTTTTTTTTTT MOQGAD      TELAPSE      283.20 TCPU     7756.19
 TTTTTTTTTTTTTTTTTTTTTTTTTTTTTT SHELLXN     TELAPSE      305.77 TCPU     8473.38
 TTTTTTTTTTTTTTTTTTTTTTTTTTTTTT MONMO3      TELAPSE      306.39 TCPU     8493.33
 NUMERICALLY INTEGRATED DENSITY    396.0001595367
 TTTTTTTTTTTTTTTTTTTTTTTTTTTTTT NUMDFT      TELAPSE      307.95 TCPU     8543.05
 CYC   9 ETOT(AU) -2.578218753265E+03 DETOT  1.01E-07 tst  2.74E-09 PX  1.10E-04
 TTTTTTTTTTTTTTTTTTTTTTTTTTTTTT DIIS        TELAPSE      308.26 TCPU     8549.95
 DIIS TEST: 0.53570E-07 AT SCF   CYCLE   9 - DIIS ACTIVE - HISTORY:     9 CYCLES
 TTTTTTTTTTTTTTTTTTTTTTTTTTTTTT FDIK        TELAPSE      310.10 TCPU     8608.52
 INSULATING STATE
 TOP OF VALENCE BANDS -    BAND    198; K    4; EIG -2.2769740E-01 AU
 TOP OF VALENCE BANDS -    BAND    198; K    1; EIG -2.2859696E-01 AU
 BOTTOM OF VIRTUAL BANDS - BAND    199; K    1; EIG -9.2419932E-02 AU
 INDIRECT ENERGY BAND GAP:   3.6811 eV
 TTTTTTTTTTTTTTTTTTTTTTTTTTTTTT PDIG        TELAPSE      311.67 TCPU     8615.47
 CHARGE NORMALIZATION FACTOR   1.00000000
 TOTAL ATOMIC CHARGES:
   4.4458699   4.5161342   4.4673304   4.5171855   4.4674259   4.5172902
   4.5170943   4.4672324   4.5169414   4.4671130   4.5158606   4.4456077
   0.8703461   0.8743354   0.8744322   0.8704378   0.8696155   0.8773279
   0.8774201   0.8697109   0.8627200   0.8693280   0.8694539   0.8628037
   0.8627244   0.8693553   0.8694207   0.8627540   0.8696230   0.8773352
   0.8774766   0.8697801   0.8703173   0.8743306   0.8744143   0.8704190
   5.9297788   5.9204111   6.1825366   6.1770682   6.1770131   6.1825623
   6.1640715   6.1681047   6.1681350   6.1641249   5.9211647   5.9304570
   5.9599509   5.9243821   6.1713894   6.1655263   6.1656202   6.1713954
   6.1714480   6.1656065   6.1655686   6.1713949   5.9250759   5.9607752
   5.9298496   5.9205441   6.1639997   6.1680433   6.1682150   6.1642233
   6.1825089   6.1769934   6.1770685   6.1825277   5.9210407   5.9302898
   8.5094674   8.4853307   8.5096534   8.4855730   8.5013972   8.4853855
   8.4854550   8.5095343   8.4854190   8.5014516   8.4857208   8.5097797
 TTTTTTTTTTTTTTTTTTTTTTTTTTTTTT MOQGAD      TELAPSE      311.78 TCPU     8615.57
 TTTTTTTTTTTTTTTTTTTTTTTTTTTTTT SHELLXN     TELAPSE      334.25 TCPU     9332.92
 +++ ENERGIES IN A.U. +++
 ::: EXT EL-POLE                                  -3.1988191170932E+03
 ::: EXT EL-SPHEROPOLE                             3.6934522653035E+01
 ::: BIELET ZONE E-E                               4.5372894459186E+03
 ::: TOTAL E-E                                     1.3754048514784E+03
 ::: TOTAL E-N + N-E                              -6.3938589292049E+03
 ::: TOTAL N-N                                     1.4770273410997E+02
 ::: KINETIC ENERGY                                2.5600070864945E+03
 ::: PSEUDO TOTAL   ENERGY                        -2.3107442571221E+03
 ::: VIRIAL COEFFICIENT                            1.0511754371734E+00
 TTTTTTTTTTTTTTTTTTTTTTTTTTTTTT MONMO3      TELAPSE      334.88 TCPU     9352.86
 NUMERICALLY INTEGRATED DENSITY    396.0001595372
 EXCHANGE ENERGY: -0.252058907910E+03  CORRELATION ENERGY: -0.154155883479E+02
 TTTTTTTTTTTTTTTTTTTTTTTTTTTTTT NUMDFT      TELAPSE      336.43 TCPU     9402.58
 CYC  10 ETOT(AU) -2.578218753380E+03 DETOT -1.15E-07 tst  3.76E-10 PX  1.10E-04

 == SCF ENDED - CONVERGENCE ON ENERGY      E(AU) -2.5782187533797E+03 CYCLES  10


 ENERGY EXPRESSION=HARTREE+FOCK EXCH*0.00000+(HSESOL     EXCH)*1.00000+PBESOL     CORR


 TOTAL ENERGY(DFT)(AU)( 10) -2.5782187533797E+03 DE-1.1E-07 tester 3.8E-10
 TTTTTTTTTTTTTTTTTTTTTTTTTTTTTT EDFT        TELAPSE      336.43 TCPU     9402.59
 
 INFORMATION **** DFTD3 ENERGY **** CALCULATE DFTD3 ENERGY

           DFT-D V3(BJ)
 DF                                         hsesol3c  
 parameters
 s6       :    1.0000
 s8       :    0.0000
 a1       :    0.5196
 a2       :    4.9385
 k1 k3    :   16.0000   -4.0000
 Cutoff   :   50.2022
 CN-Cutoff:   21.1671
 ABC-Cutoff:   21.1671
 
 Edisp /kcal,au:   -58.6569 -0.09347568

 E6    /kcal :   -63.0667
 E8    /kcal :     0.0000
 E6(ABC) "   :   4.409799
 
 INFORMATION **** DFTD3 ENERGY **** NORMAL TERMINATION OF DFTD3 MODULE

 GCP ENERGY CALCULATION
  level        hsesol3c            basis:hsesol3c
  Nbf            948
  Atoms           84

  Parameters: 
  sigma     1.0000
  eta       1.4281
  alpha     0.2936
  beta      1.9467

  dmp_scal      4.0000
  dmp_exp       6.0000
 cutoffs: 
   distance [bohr] 60.0
   noise    [a.u.] 2.2E-16
 SR-damping   T
 ** gCP correction **
  Egcp:        0.1699651461 / (a.u.) ||     106.6548 / (kcal/mol)
 INFORMATION **** GCP **** NORMAL TERMINATION OF GCP MODULE

 *******************************************************************************

 DFT-D3-GCP DISPERSION AND COUNTERPOISE CORRECTION

 D3 DISPERSION ENERGY (AU)      -9.3475675571033E-02
 GCP ENERGY (AU)                 1.6996514609279E-01
 TOTAL ENERGY + DISP + GCP (AU) -2.5781422639092E+03

 *******************************************************************************

 EIGENVECTORS IN FORTRAN UNIT  8
 TTTTTTTTTTTTTTTTTTTTTTTTTTTTTT END         TELAPSE      340.22 TCPU     9412.27
 EEEEEEEEEE TERMINATION  DATE 19 02 2026 TIME 19:49:03.9
