 Default number of threads is:           32

         
 *******************************************************************************
 *                                                                             *
 *                               CRYSTAL23                                     *
 *                      public : 1.0.1 - October 2022                          *
 *                       HTTP://WWW.CRYSTAL.UNITO.IT                           *
 *                                                                             *
 *                              MAIN AUTHORS                                   *
 *                                                                             *
 *  R. DOVESI(1,11), V.R. SAUNDERS(2), C. ROETTI(1,11), R. ORLANDO(1,11),      *
 *  C.M. ZICOVICH-WILSON(1,3), F. PASCALE(4), B. CIVALLERI(1,11),              *
 *  K. DOLL(5), N.M. HARRISON(6), I.J. BUSH(7), Ph. D'ARCO(8),                 *
 *  M. LLUNELL(9), M. CAUSA'(10), Y. NOEL(8), L. MASCHIO(1,11), A. ERBA(1,11)  *
 *  M. RE'RAT(14), S. CASASSA(1,11), B.G. SEARLE(2), J.K. DESMARAIS(1)         *
 *                                                                             *
 *        CONTRIBUTIONS TO THE CODE HAVE ALSO BEEN GIVEN BY                    *
 *                                                                             *
 *  M. FERRABONE(1,11), M. DE LA PIERRE(1,11), M. FERRERO(1,11),               *
 *  J. BAIMA(1,11), E. ALBANESE(1,11), M.F. PEINTINGER(12), R. BAST(13),       *
 *  B. KIRTMAN(15), V. LACIVITA(1,11), R. DEMICHELIS(1,16)                     *
 *  G. BRANDEBURG(17), S. SALUSTRO(1,11), G. SANSONE(1,11)                     *
 *  M.T. RUGGIERO(18), L.E. DAGA(1), L. DONA'(1), A. COSSARD(1)                *
 *                                                                             *
 * (1) THEORETICAL CHEMISTRY GROUP - UNIVERSITA' DI TORINO - TORINO (ITALY)    *
 * (2) SCIENTIFIC COMPUTING DEPARTMENT - STFC DARESBURY (UK)                   *
 * (3) UNIVERSIDAD AUTONOMA DEL ESTADO DE MORELOS - CUERNAVACA (MEXICO)        *
 * (4) UNIVERSITE' DE LORRAINE - NANCY (FRANCE)                                *
 * (5) UNIVERSITAET STUTTGART- STUTTGART (GERMANY)                             *
 * (6) IMPERIAL COLLEGE - LONDON (UK)                                          *
 * (7) SCIENTIFIC COMPUTING DEPARTMENT - STFC RAL (UK)                         *
 * (8) UPMC - SORBONNE UNIVERSITES - PARIS (FRANCE)                            *
 * (9) UNIVERSIDAD DE BARCELONA - BARCELONA (SPAIN)                            *
 *(10) UNIVERSITA' DI NAPOLI "FEDERICO II" - NAPOLI (ITALY)                    *
 *(11) NIS - NANOSTRUCTURED INTERFACES AND SURFACES - TORINO (ITALY)           *
 *(12) MPI FUER CHEMISCHE ENERGIEKONVERSION - MUELHEIM AN DER RUHR (GERMANY)   *
 *(13) UNIVERSITY OF TROMSO - TROMSO (NORWAY)                                  *
 *(14) UNIVERSITE' DE PAU ET DES PAYS DE L'ADOUR - PAU (FRANCE)                *
 *(15) UNIVERSITY OF CALIFORNIA SANTA BARBARA - SANTA BARBARA (USA)            *
 *(16) CURTIN UNIVERSITY - PERTH (AUSTRALIA)                                   *
 *(17) UNIVERSITY COLLEGE LONDON - LONDON (UK)                                 *
 *(18) UNIVERSITY OF VERMONT - BURLINGTON (USA)                                *
 *                                                                             *
 *******************************************************************************
 EEEEEEEEEE STARTING  DATE 19 02 2026 TIME 17:46:27.7
 cof-1_z30_L070_incl                                                             

 CRYSTAL CALCULATION
 (INPUT ACCORDING TO THE INTERNATIONAL TABLES FOR X-RAY CRYSTALLOGRAPHY)
 CRYSTAL FAMILY                       :  TRICLINIC   
 CRYSTAL CLASS  (GROTH - 1921)        :  TRICLINIC PEDIAL                     

 SPACE GROUP (NONCENTROSYMMETRIC)     :  P 1             

 LATTICE PARAMETERS  (ANGSTROMS AND DEGREES) - CONVENTIONAL CELL
        A           B           C        ALPHA        BETA       GAMMA
    15.02361    15.02392     7.61577    37.24706    89.99998   119.99596


 NUMBER OF IRREDUCIBLE ATOMS IN THE CONVENTIONAL CELL:   42

 INPUT COORDINATES

 ATOM AT. N.              COORDINATES
   1   5     4.787726800000E-01 -4.252492000000E-02  5.015853000000E-01
   2   5     6.378283400000E-01  1.165347300000E-01  5.015853200000E-01
   3   5     4.796688100000E-01  1.183185000000E-01  4.982376300000E-01
   4   5     9.234739000000E-02  3.437900700000E-01  5.015853200000E-01
   5   5     2.514553600000E-01  3.437693000000E-01  5.015853100000E-01
   6   5     2.523360400000E-01  5.047094800000E-01  4.982376300000E-01
   7   1     7.700024700000E-01  4.282071000000E-02  4.946448900000E-01
   8   1    -3.612116000000E-02  4.255150600000E-01  4.935835900000E-01
   9   1     7.702596600000E-01  3.286219200000E-01  4.934202500000E-01
  10   1    -3.598654000000E-02  1.402125200000E-01  4.934609900000E-01
  11   1     5.551143100000E-01 -1.748596900000E-01  5.053413200000E-01
  12   1     1.727261600000E-01  6.310025000000E-01  5.064026900000E-01
  13   1     2.696224700000E-01 -1.754727500000E-01  5.065661300000E-01
  14   1     4.580757200000E-01  6.308466500000E-01  5.065251200000E-01
  15   1     5.580315800000E-01  3.279448400000E-01  4.946449500000E-01
  16   1     1.762061500000E-01  1.400709900000E-01  4.935835200000E-01
  17   1     2.731288400000E-01  4.337282000000E-02  4.934201100000E-01
  18   1     4.615681300000E-01  4.254854400000E-01  4.934611100000E-01
  19   6     7.579158000000E-01  1.779674300000E-01  4.981151400000E-01
  20   6     8.134040300000E-01  1.265884200000E-01  4.948082200000E-01
  21   6    -7.962012000000E-02  3.411417800000E-01  4.945225500000E-01
  22   6     8.132132800000E-01  2.871874400000E-01  4.953798700000E-01
  23   6    -7.921951000000E-02  1.809312900000E-01  4.931752000000E-01
  24   6    -2.521391000000E-02  2.875089400000E-01  4.954206600000E-01
  25   6     4.190546900000E-01 -1.618284400000E-01  5.018711000000E-01
  26   6     4.713037000000E-01 -2.182199900000E-01  5.051779700000E-01
  27   6     2.568476500000E-01  6.747334900000E-01  5.054637400000E-01
  28   6     3.105671500000E-01 -2.178656000000E-01  5.046064500000E-01
  29   6     4.174034800000E-01  6.739691100000E-01  5.068109600000E-01
  30   6     3.102184700000E-01  6.205455900000E-01  5.045655700000E-01
  31   6     4.200703600000E-01  1.778982900000E-01  4.981151400000E-01
  32   6     4.741251300000E-01  2.874285300000E-01  4.948082900000E-01
  33   6     2.598151500000E-01  1.801285500000E-01  4.945224800000E-01
  34   6     3.130484600000E-01  1.261852900000E-01  4.953797800000E-01
  35   6     4.210970800000E-01  3.417792700000E-01  4.931752900000E-01
  36   6     3.127101800000E-01  2.874315400000E-01  4.954206600000E-01
  37   8     4.264876500000E-01  1.184528000000E-02  4.991357700000E-01
  38   8     5.835330400000E-01  8.053330000000E-03  5.061985700000E-01
  39   8     5.863966700000E-01  1.727308600000E-01  4.955431700000E-01
  40   8     1.460754700000E-01  4.511257400000E-01  4.991358100000E-01
  41   8     1.441953100000E-01  2.883706100000E-01  5.061985700000E-01
  42   8     3.059811000000E-01  4.530428400000E-01  4.955431400000E-01

 *******************************************************************************

 << INFORMATION >>: FROM NOW ON, ALL COORDINATES REFER TO THE PRIMITIVE CELL

 *******************************************************************************

 LATTICE PARAMETERS  (ANGSTROMS AND DEGREES) - PRIMITIVE CELL
       A          B          C        ALPHA      BETA     GAMMA        VOLUME
   15.02361   15.02392    7.61577    37.24706  89.99998 119.99596    586.452788

 COORDINATES OF THE EQUIVALENT ATOMS (FRACTIONAL UNITS)

 N. ATOM EQUIV AT. N.          X                  Y                  Z

   1   1   1    5 B     4.78772680000E-01 -4.25249200000E-02 -4.98414700000E-01

   2   2   1    5 B    -3.62171660000E-01  1.16534730000E-01 -4.98414680000E-01

   3   3   1    5 B     4.79668810000E-01  1.18318500000E-01  4.98237630000E-01

   4   4   1    5 B     9.23473900000E-02  3.43790070000E-01 -4.98414680000E-01

   5   5   1    5 B     2.51455360000E-01  3.43769300000E-01 -4.98414690000E-01

   6   6   1    5 B     2.52336040000E-01 -4.95290520000E-01  4.98237630000E-01

   7   7   1    1 H    -2.29997530000E-01  4.28207100000E-02  4.94644890000E-01

   8   8   1    1 H    -3.61211600000E-02  4.25515060000E-01  4.93583590000E-01

   9   9   1    1 H    -2.29740340000E-01  3.28621920000E-01  4.93420250000E-01

  10  10   1    1 H    -3.59865400000E-02  1.40212520000E-01  4.93460990000E-01

  11  11   1    1 H    -4.44885690000E-01 -1.74859690000E-01 -4.94658680000E-01

  12  12   1    1 H     1.72726160000E-01 -3.68997500000E-01 -4.93597310000E-01

  13  13   1    1 H     2.69622470000E-01 -1.75472750000E-01 -4.93433870000E-01

  14  14   1    1 H     4.58075720000E-01 -3.69153350000E-01 -4.93474880000E-01

  15  15   1    1 H    -4.41968420000E-01  3.27944840000E-01  4.94644950000E-01

  16  16   1    1 H     1.76206150000E-01  1.40070990000E-01  4.93583520000E-01

  17  17   1    1 H     2.73128840000E-01  4.33728200000E-02  4.93420110000E-01

  18  18   1    1 H     4.61568130000E-01  4.25485440000E-01  4.93461110000E-01

  19  19   1    6 C    -2.42084200000E-01  1.77967430000E-01  4.98115140000E-01

  20  20   1    6 C    -1.86595970000E-01  1.26588420000E-01  4.94808220000E-01

  21  21   1    6 C    -7.96201200000E-02  3.41141780000E-01  4.94522550000E-01

  22  22   1    6 C    -1.86786720000E-01  2.87187440000E-01  4.95379870000E-01

  23  23   1    6 C    -7.92195100000E-02  1.80931290000E-01  4.93175200000E-01

  24  24   1    6 C    -2.52139100000E-02  2.87508940000E-01  4.95420660000E-01

  25  25   1    6 C     4.19054690000E-01 -1.61828440000E-01 -4.98128900000E-01

  26  26   1    6 C     4.71303700000E-01 -2.18219990000E-01 -4.94822030000E-01

  27  27   1    6 C     2.56847650000E-01 -3.25266510000E-01 -4.94536260000E-01

  28  28   1    6 C     3.10567150000E-01 -2.17865600000E-01 -4.95393550000E-01

  29  29   1    6 C     4.17403480000E-01 -3.26030890000E-01 -4.93189040000E-01

  30  30   1    6 C     3.10218470000E-01 -3.79454410000E-01 -4.95434430000E-01

  31  31   1    6 C     4.20070360000E-01  1.77898290000E-01  4.98115140000E-01

  32  32   1    6 C     4.74125130000E-01  2.87428530000E-01  4.94808290000E-01

  33  33   1    6 C     2.59815150000E-01  1.80128550000E-01  4.94522480000E-01

  34  34   1    6 C     3.13048460000E-01  1.26185290000E-01  4.95379780000E-01

  35  35   1    6 C     4.21097080000E-01  3.41779270000E-01  4.93175290000E-01

  36  36   1    6 C     3.12710180000E-01  2.87431540000E-01  4.95420660000E-01

  37  37   1    8 O     4.26487650000E-01  1.18452800000E-02  4.99135770000E-01

  38  38   1    8 O    -4.16466960000E-01  8.05333000000E-03 -4.93801430000E-01

  39  39   1    8 O    -4.13603330000E-01  1.72730860000E-01  4.95543170000E-01

  40  40   1    8 O     1.46075470000E-01  4.51125740000E-01  4.99135810000E-01

  41  41   1    8 O     1.44195310000E-01  2.88370610000E-01 -4.93801430000E-01

  42  42   1    8 O     3.05981100000E-01  4.53042840000E-01  4.95543140000E-01

 NUMBER OF SYMMETRY OPERATORS         :    1
 *******************************************************************************
 * GEOMETRY EDITING - INPUT COORDINATES ARE GIVEN IN ANGSTROM         
 *******************************************************************************

 GCALCO - MAX INDICES DIRECT LATTICE VECTOR     8    14    25
 NO.OF VECTORS CREATED 6999 STARS 3500 RMAX   207.10685 BOHR

 GEOMETRY FOR WAVE FUNCTION - DIMENSIONALITY OF THE SYSTEM    3
 (NON PERIODIC DIRECTION: LATTICE PARAMETER FORMALLY SET TO 500)
 *******************************************************************************
 LATTICE PARAMETERS (ANGSTROMS AND DEGREES) - BOHR = 0.5291772083 ANGSTROM
 PRIMITIVE CELL - CENTRING CODE 1/0 VOLUME=   586.452788 - DENSITY  1.105 g/cm^3
         A              B              C           ALPHA      BETA       GAMMA 
    15.02361100    15.02391600     7.61577300    37.247057  89.999978 119.995964
 *******************************************************************************
 ATOMS IN THE ASYMMETRIC UNIT   42 - ATOMS IN THE UNIT CELL:   42
     ATOM                 X/A                 Y/B                 Z/C    
 *******************************************************************************
      1 T   5 B     4.787726800000E-01 -4.252492000000E-02 -4.984147000000E-01
      2 T   5 B    -3.621716600000E-01  1.165347300000E-01 -4.984146800000E-01
      3 T   5 B     4.796688100000E-01  1.183185000000E-01  4.982376300000E-01
      4 T   5 B     9.234739000000E-02  3.437900700000E-01 -4.984146800000E-01
      5 T   5 B     2.514553600000E-01  3.437693000000E-01 -4.984146900000E-01
      6 T   5 B     2.523360400000E-01 -4.952905200000E-01  4.982376300000E-01
      7 T   1 H    -2.299975300000E-01  4.282071000000E-02  4.946448900000E-01
      8 T   1 H    -3.612116000000E-02  4.255150600000E-01  4.935835900000E-01
      9 T   1 H    -2.297403400000E-01  3.286219200000E-01  4.934202500000E-01
     10 T   1 H    -3.598654000000E-02  1.402125200000E-01  4.934609900000E-01
     11 T   1 H    -4.448856900000E-01 -1.748596900000E-01 -4.946586800000E-01
     12 T   1 H     1.727261600000E-01 -3.689975000000E-01 -4.935973100000E-01
     13 T   1 H     2.696224700000E-01 -1.754727500000E-01 -4.934338700000E-01
     14 T   1 H     4.580757200000E-01 -3.691533500000E-01 -4.934748800000E-01
     15 T   1 H    -4.419684200000E-01  3.279448400000E-01  4.946449500000E-01
     16 T   1 H     1.762061500000E-01  1.400709900000E-01  4.935835200000E-01
     17 T   1 H     2.731288400000E-01  4.337282000000E-02  4.934201100000E-01
     18 T   1 H     4.615681300000E-01  4.254854400000E-01  4.934611100000E-01
     19 T   6 C    -2.420842000000E-01  1.779674300000E-01  4.981151400000E-01
     20 T   6 C    -1.865959700000E-01  1.265884200000E-01  4.948082200000E-01
     21 T   6 C    -7.962012000000E-02  3.411417800000E-01  4.945225500000E-01
     22 T   6 C    -1.867867200000E-01  2.871874400000E-01  4.953798700000E-01
     23 T   6 C    -7.921951000000E-02  1.809312900000E-01  4.931752000000E-01
     24 T   6 C    -2.521391000000E-02  2.875089400000E-01  4.954206600000E-01
     25 T   6 C     4.190546900000E-01 -1.618284400000E-01 -4.981289000000E-01
     26 T   6 C     4.713037000000E-01 -2.182199900000E-01 -4.948220300000E-01
     27 T   6 C     2.568476500000E-01 -3.252665100000E-01 -4.945362600000E-01
     28 T   6 C     3.105671500000E-01 -2.178656000000E-01 -4.953935500000E-01
     29 T   6 C     4.174034800000E-01 -3.260308900000E-01 -4.931890400000E-01
     30 T   6 C     3.102184700000E-01 -3.794544100000E-01 -4.954344300000E-01
     31 T   6 C     4.200703600000E-01  1.778982900000E-01  4.981151400000E-01
     32 T   6 C     4.741251300000E-01  2.874285300000E-01  4.948082900000E-01
     33 T   6 C     2.598151500000E-01  1.801285500000E-01  4.945224800000E-01
     34 T   6 C     3.130484600000E-01  1.261852900000E-01  4.953797800000E-01
     35 T   6 C     4.210970800000E-01  3.417792700000E-01  4.931752900000E-01
     36 T   6 C     3.127101800000E-01  2.874315400000E-01  4.954206600000E-01
     37 T   8 O     4.264876500000E-01  1.184528000000E-02  4.991357700000E-01
     38 T   8 O    -4.164669600000E-01  8.053330000000E-03 -4.938014300000E-01
     39 T   8 O    -4.136033300000E-01  1.727308600000E-01  4.955431700000E-01
     40 T   8 O     1.460754700000E-01  4.511257400000E-01  4.991358100000E-01
     41 T   8 O     1.441953100000E-01  2.883706100000E-01 -4.938014300000E-01
     42 T   8 O     3.059811000000E-01  4.530428400000E-01  4.955431400000E-01

 T = ATOM BELONGING TO THE ASYMMETRIC UNIT

 ****    1 SYMMOPS - TRANSLATORS IN FRACTIONAL UNITS
 **** MATRICES AND TRANSLATORS IN THE CRYSTALLOGRAPHIC REFERENCE FRAME
   V INV                    ROTATION MATRICES                   TRANSLATORS
   1   1  1.00  0.00  0.00  0.00  1.00  0.00  0.00  0.00  1.00  0.00  0.00  0.00

 DIRECT LATTICE VECTORS CARTESIAN COMPONENTS (ANGSTROM)
          X                    Y                    Z
   0.130113578931E+02  -0.751088897922E+01   0.000000000000E+00
   0.000000000000E+00   0.150239160000E+02   0.000000000000E+00
   0.349956651166E+01   0.606240733247E+01   0.300004165859E+01


 CARTESIAN COORDINATES - PRIMITIVE CELL
 *******************************************************************************
 *      ATOM          X(ANGSTROM)         Y(ANGSTROM)         Z(ANGSTROM)
 *******************************************************************************
    1     5 B     9.856807842056E-01  1.705016463893E+00 -4.495306521841E+00
    2     5 B     3.055210971373E+00  2.900066001955E+00 -4.495306461840E+00
    3     5 B    -1.527033099560E+00 -2.552322003486E-01  4.494775304464E+00
    4     5 B    -5.426703812658E-01  1.449869328862E+00 -1.495264803252E+00
    5     5 B     1.527540325046E+00  2.545149231240E-01 -1.495264833252E+00
    6     5 B     1.527283738896E+00  2.645556978984E+00 -1.505308012712E+00
    7     1 H    -4.761103996799E+00 -6.928478609399E-01 -1.516086382380E+00
    8     1 H    -2.242223249661E+00  3.594101983469E+00 -1.519270326593E+00
    9     1 H     2.237089708516E+00  6.925481836827E-01  4.480322963779E+00
   10     1 H    -2.240900707516E+00 -6.940137790907E-01 -1.519638131700E+00
   11     1 H     1.992133496084E+00 -8.337929886996E-01 -4.484038305370E+00
   12     1 H     5.200252689341E-01  5.190413592793E+00 -1.480812492567E+00
   13     1 H    -1.718216705644E+00  1.308719261195E+00 -4.480363824347E+00
   14     1 H     4.233238970648E+00  3.045585470586E+00 -1.480445197467E+00
   15     1 H    -5.199998762138E-01  2.283821968050E+00  4.483997114798E+00
   16     1 H     5.204431262492E-01 -2.289153023943E+00 -1.519270536596E+00
   17     1 H     1.780967069633E+00 -4.470904429516E+00 -1.519760773403E+00
   18     1 H     4.232961595164E+00 -1.451745519078E-01 -1.519637771695E+00
   19     6 C     2.092909408094E+00 -1.449696521504E+00  4.494407829362E+00
   20     6 C    -4.195819182324E+00  2.406770519173E-01 -1.515596385576E+00
   21     6 C    -2.804917833225E+00  2.658893129365E+00 -1.516453407477E+00
   22     6 C    -4.196300571645E+00  2.658401515304E+00 -1.513881411762E+00
   23     6 C    -2.804420494079E+00  2.407270635328E-01 -1.520495513606E+00
   24     6 C    -2.093876167631E+00  1.449923551923E+00 -1.513759040063E+00
   25     6 C     2.096688197707E-01  3.628782298765E-01 -4.494449109935E+00
   26     6 C     9.010719999490E-01 -8.567326008818E-01 -4.484528362175E+00
   27     6 C    -1.888292347810E+00 -8.525024888394E-01 -4.483671040271E+00
   28     6 C    -1.192328850849E+00  3.524013196231E-01 -4.486242945984E+00
   29     6 C     2.054717041323E-01 -2.061736087441E+00 -4.479629324147E+00
   30     6 C     2.302557798257E+00  3.989483009669E+00 -1.486323929099E+00
   31     6 C    -2.302918524283E+00  1.086784316918E+00  4.494407829362E+00
   32     6 C     4.401059762240E+00 -2.305477049969E+00 -1.515596175573E+00
   33     6 C     1.611595701302E+00 -2.309617166013E+00 -1.516453617480E+00
   34     6 C     2.307233527914E+00 -3.514688352619E+00 -1.513881681766E+00
   35     6 C     3.705378033206E+00 -1.100528212511E+00 -1.520495243602E+00
   36     6 C     2.302975108045E+00 -1.089349622568E+00 -1.513759040063E+00
   37     8 O    -2.215849104821E+00 -1.449994234811E+00  4.497469761880E+00
   38     8 O     2.364899766372E+00  1.706023931812E+00 -4.481466519659E+00
   39     8 O    -1.477881579230E-01 -2.557014958573E-01  4.486691812217E+00
   40     8 O     1.478326733550E-01  2.644075847414E+00 -1.502613435295E+00
   41     8 O     1.480858370747E-01  2.557954467598E-01 -1.481424861070E+00
   42     8 O     2.215849266780E+00  1.450064533745E+00 -1.513391594961E+00

 *******************************************************************************
 STARTING BASIS SET HANDLING 
 *******************************************************************************

 Loading internal basis set: SOLDEF2MSVP         

 Please cite in your publication:
 L. Dona', J. G. Brandenburg and B. Civalleri, J. Chem. Phys., 151, 121101 (2019
 )                                                                              
                                                                                
                    

 *******************************************************************************
 LOCAL ATOMIC FUNCTIONS BASIS SET
 *******************************************************************************
   ATOM   X(AU)   Y(AU)   Z(AU)  N. TYPE  EXPONENT  S COEF   P COEF   D/F/G COEF
 *******************************************************************************
   1 B    1.863   3.222  -8.495
                                  1 S  
                                         2.410E+03 1.755E-03 0.000E+00 0.000E+00
                                         3.619E+02 1.344E-02 0.000E+00 0.000E+00
                                         8.231E+01 6.637E-02 0.000E+00 0.000E+00
                                         2.311E+01 2.303E-01 0.000E+00 0.000E+00
                                         7.252E+00 5.150E-01 0.000E+00 0.000E+00
                                  2 S  
                                         2.367E+00 1.000E+00 0.000E+00 0.000E+00
                                  3 S  
                                         5.533E-01 1.000E+00 0.000E+00 0.000E+00
                                  4 S  
                                         1.716E-01 1.000E+00 0.000E+00 0.000E+00
                           5-     7 P  
                                         6.002E+00 0.000E+00-3.555E-02 0.000E+00
                                         1.240E+00 0.000E+00-1.983E-01 0.000E+00
                                         3.367E-01 0.000E+00-5.048E-01 0.000E+00
                           8-    10 P  
                                         1.256E-01 0.000E+00 1.000E+00 0.000E+00
                          11-    15 D  
                                         8.880E-01 0.000E+00 0.000E+00 1.000E+00
   2 B    5.774   5.480  -8.495
   3 B   -2.886  -0.482   8.494
   4 B   -1.025   2.740  -2.826
   5 B    2.887   0.481  -2.826
   6 B    2.886   4.999  -2.845
   7 H   -8.997  -1.309  -2.865
                                 91 S  
                                         1.874E+01 1.968E-02 0.000E+00 0.000E+00
                                         2.826E+00 1.380E-01 0.000E+00 0.000E+00
                                         6.401E-01 4.783E-01 0.000E+00 0.000E+00
                                 92 S  
                                         1.756E-01 1.000E+00 0.000E+00 0.000E+00
   8 H   -4.237   6.792  -2.871
   9 H    4.227   1.309   8.467
  10 H   -4.235  -1.311  -2.872
  11 H    3.765  -1.576  -8.474
  12 H    0.983   9.808  -2.798
  13 H   -3.247   2.473  -8.467
  14 H    8.000   5.755  -2.798
  15 H   -0.983   4.316   8.474
  16 H    0.983  -4.326  -2.871
  17 H    3.366  -8.449  -2.872
  18 H    7.999  -0.274  -2.872
  19 C    3.955  -2.740   8.493
                                115 S  
                                         3.624E+03 1.634E-03 0.000E+00 0.000E+00
                                         5.440E+02 1.252E-02 0.000E+00 0.000E+00
                                         1.237E+02 6.211E-02 0.000E+00 0.000E+00
                                         3.476E+01 2.182E-01 0.000E+00 0.000E+00
                                         1.093E+01 4.980E-01 0.000E+00 0.000E+00
                                116 S  
                                         3.574E+00 1.000E+00 0.000E+00 0.000E+00
                                117 S  
                                         7.742E-01 1.000E+00 0.000E+00 0.000E+00
                                118 S  
                                         2.330E-01 1.000E+00 0.000E+00 0.000E+00
                         119-   121 P  
                                         9.443E+00 0.000E+00 3.790E-02 0.000E+00
                                         2.002E+00 0.000E+00 2.082E-01 0.000E+00
                                         5.463E-01 0.000E+00 5.047E-01 0.000E+00
                         122-   124 P  
                                         1.820E-01 0.000E+00 1.000E+00 0.000E+00
                         125-   129 D  
                                         8.880E-01 0.000E+00 0.000E+00 1.000E+00
  20 C   -7.929   0.455  -2.864
  21 C   -5.301   5.025  -2.866
  22 C   -7.930   5.024  -2.861
  23 C   -5.300   0.455  -2.873
  24 C   -3.957   2.740  -2.861
  25 C    0.396   0.686  -8.493
  26 C    1.703  -1.619  -8.475
  27 C   -3.568  -1.611  -8.473
  28 C   -2.253   0.666  -8.478
  29 C    0.388  -3.896  -8.465
  30 C    4.351   7.539  -2.809
  31 C   -4.352   2.054   8.493
  32 C    8.317  -4.357  -2.864
  33 C    3.045  -4.365  -2.866
  34 C    4.360  -6.642  -2.861
  35 C    7.002  -2.080  -2.873
  36 C    4.352  -2.059  -2.861
  37 O   -4.187  -2.740   8.499
                                385 S  
                                         6.773E+03 1.727E-03 0.000E+00 0.000E+00
                                         1.017E+03 1.325E-02 0.000E+00 0.000E+00
                                         2.313E+02 6.603E-02 0.000E+00 0.000E+00
                                         6.501E+01 2.353E-01 0.000E+00 0.000E+00
                                         2.050E+01 5.498E-01 0.000E+00 0.000E+00
                                386 S  
                                         6.716E+00 1.000E+00 0.000E+00 0.000E+00
                                387 S  
                                         1.147E+00 1.000E+00 0.000E+00 0.000E+00
                                388 S  
                                         3.342E-01 1.000E+00 0.000E+00 0.000E+00
                         389-   391 P  
                                         1.769E+01 0.000E+00 4.359E-02 0.000E+00
                                         3.854E+00 0.000E+00 2.318E-01 0.000E+00
                                         1.047E+00 0.000E+00 5.146E-01 0.000E+00
                         392-   394 P  
                                         2.759E-01 0.000E+00 1.000E+00 0.000E+00
                         395-   399 D  
                                         8.000E-01 0.000E+00 0.000E+00 1.000E+00
  38 O    4.469   3.224  -8.469
  39 O   -0.279  -0.483   8.479
  40 O    0.279   4.997  -2.840
  41 O    0.280   0.483  -2.799
  42 O    4.187   2.740  -2.860

 *******************************************************************************
 FINISHED BASIS SET HANDLING 
 *******************************************************************************

 INFORMATION **** SET_MPP **** PCRYSTAL CALCULATION
 INFORMATION **** READM2 **** NEW DEFAULT: FOCK/KS MATRIX MIXING SET TO 30 %
 INFORMATION **** READM2 **** NEW DEFAULT: FULL DIRECT SCF MODE
 INFORMATION **** READM2 **** NEW DEFAULT: COULOMB BIPOLAR BUFFER SET TO 32 Mb
 INFORMATION **** READM2 **** NEW DEFAULT: EXCHANGE BIPOLAR BUFFER SET TO 32 Mb

 *******************************************************************************
 NEW DEFAULT: DFT INTEGRATION GRID INCREASED TO XLGRID
 NEW DEFAULT: DIIS ACCELERATOR ACTIVE
 USE KEYWORD NODIIS TO TURN IT OFF
 *******************************************************************************

 WARNING **** RDDFTP **** HSEsol-HJS ACTIVE
 RANGE SEPARATION - OMEGA:   0.110000000000000     
 WARNING **** RDDFTP **** HSEsol-3c has to be combined with sol-def2-mSVP basis set
 *******************************************************************************
 N. OF ATOMS PER CELL        42  COULOMB OVERLAP TOL         (T1) 10**   -6
 NUMBER OF SHELLS           234  COULOMB PENETRATION TOL     (T2) 10**   -6
 NUMBER OF AO               474  EXCHANGE OVERLAP TOL        (T3) 10**   -6
 N. OF ELECTRONS PER CELL   198  EXCHANGE PSEUDO OVP (F(G))  (T4) 10**   -6
 CORE ELECTRONS PER CELL     60  EXCHANGE PSEUDO OVP (P(G))  (T5) 10**  -12
 N. OF SYMMETRY OPERATORS     1  POLE ORDER IN MONO ZONE                  4
 *******************************************************************************
 TYPE OF CALCULATION :  RESTRICTED CLOSED SHELL
 KOHN-SHAM HAMILTONIAN

 (EXCHANGE)[CORRELATION] FUNCTIONAL:(HSEsol GGA)[PBEsol]

 RANGE-SEPARATED HYBRID FUNCTIONAL 
 OMEGA (SHORT-RANGE)[LONG-RANGE]:(    0.1100)[    0.0000]

 HYBRID EXCHANGE - PERCENTAGE OF FOCK EXCHANGE    25.0000

 CAPPA:IS1  2;IS2  2;IS3  8; K PTS MONK NET  20; SYMMOPS:K SPACE   2;G SPACE   1

 *******************************************************************************
 MAX NUMBER OF SCF CYCLES      50  CONVERGENCE ON DELTAP        10**-16
 WEIGHT OF F(I) IN F(I+1)      30% CONVERGENCE ON ENERGY        10**- 6
 SHRINK. FACT.(MONKH.)    2  2  8  NUMBER OF K POINTS IN THE IBZ     20
 SHRINKING FACTOR(GILAT NET)    8  NUMBER OF K POINTS(GILAT NET)   1028
 *******************************************************************************
 *** K POINTS COORDINATES (OBLIQUE COORDINATES IN UNITS OF IS =  2)
   1-R(  0  0  0)   2-R(  1  0  0)   3-R(  0  1  0)   4-R(  1  1  0)
   5-C(  0  0  1)   6-C(  1  0  1)   7-C(  0  1  1)   8-C(  1  1  1)
   9-C(  0  0  2)  10-C(  1  0  2)  11-C(  0  1  2)  12-C(  1  1  2)
  13-C(  0  0  3)  14-C(  1  0  3)  15-C(  0  1  3)  16-C(  1  1  3)
  17-R(  0  0  4)  18-R(  1  0  4)  19-R(  0  1  4)  20-R(  1  1  4)

 DIRECT LATTICE VECTORS COMPON. (A.U.)     RECIP. LATTICE VECTORS COMPON. (A.U.) 
        X            Y            Z              X            Y            Z
   24.5879030  -14.1935232    0.0000000      0.2555397    0.0000000   -0.2980886
    0.0000000   28.3910867    0.0000000      0.1277517    0.2213084   -0.5962374
    6.6132223   11.4562896    5.6692571      0.0000000    0.0000000    1.1082908

 DISK SPACE FOR EIGENVECTORS (FTN 10)     7189632 REALS

 SYMMETRY ADAPTION OF THE BLOCH FUNCTIONS DISABLED
 TTTTTTTTTTTTTTTTTTTTTTTTTTTTTT gordsh1     TELAPSE        0.04 TCPU        0.04

 MATRIX SIZE: P(G)  391822, F(G)   74040, P(G) IRR  197150, F(G) IRR   74556
 MAX G-VECTOR INDEX FOR 1- AND 2-ELECTRON INTEGRALS  63

 TTTTTTTTTTTTTTTTTTTTTTTTTTTTTT INPUT       TELAPSE        0.45 TCPU        0.45

 NEIGHBORS OF THE NON-EQUIVALENT ATOMS

 N = NUMBER OF NEIGHBORS AT DISTANCE R
    ATOM  N     R/ANG      R/AU   NEIGHBORS (ATOM LABELS AND CELL INDICES)
   1 B    1     1.3791     2.6061   37 O    1 2-3
   1 B    1     1.3793     2.6065   38 O    0 0 0
   1 B    1     1.5503     2.9297   25 C    0 0 0
   1 B    1     2.3895     4.5155    3 B    1 2-3
   1 B    1     2.3898     4.5160    2 B    0 0 0
   1 B    1     2.5632     4.8437   26 C    0 0 0

   2 B    1     1.3793     2.6065   39 O    1 2-3
   2 B    1     1.3793     2.6065   38 O    0 0 0
   2 B    1     1.5504     2.9298   19 C    1 2-3
   2 B    1     2.3895     4.5156    3 B    1 2-3
   2 B    1     2.3898     4.5160    1 B    0 0 0
   2 B    1     2.5634     4.8440   22 C    1 1-1

   3 B    1     1.3791     2.6061   37 O    0 0 0
   3 B    1     1.3793     2.6064   39 O    0 0 0
   3 B    1     1.5502     2.9294   31 C    0 0 0
   3 B    1     2.3895     4.5155    1 B   -1-2 3
   3 B    1     2.3895     4.5156    2 B   -1-2 3
   3 B    1     2.5629     4.8433   32 C   -1-1 2

   4 B    1     1.3795     2.6068   40 O    0 0 0
   4 B    1     1.3795     2.6070   41 O    0 0 0
   4 B    1     1.5513     2.9316   24 C    0 0 0
   4 B    1     2.3905     4.5174    6 B    0 0 0
   4 B    1     2.3905     4.5175    5 B    0 0 0
   4 B    1     2.5648     4.8468   23 C    0 0 0

   5 B    1     1.3795     2.6069   41 O    0 0 0
   5 B    1     1.3797     2.6072   42 O    0 0 0
   5 B    1     1.5516     2.9322   36 C    0 0 0
   5 B    1     2.3905     4.5175    4 B    0 0 0
   5 B    1     2.3911     4.5185    6 B    0 0 0
   5 B    1     2.5651     4.8473   35 C    0 0 0

   6 B    1     1.3795     2.6068   40 O    0 0 0
   6 B    1     1.3796     2.6071   42 O    0 0 0
   6 B    1     1.5516     2.9322   30 C    0 0 0
   6 B    1     2.3905     4.5174    4 B    0 0 0
   6 B    1     2.3911     4.5185    5 B    0 0 0
   6 B    1     2.5651     4.8473   29 C    0 0 1

   7 H    1     1.0913     2.0623   20 C    0 0 0
   7 H    1     2.1472     4.0576   19 C    0 1-2
   7 H    1     2.1680     4.0969   23 C    0 0 0
   7 H    1     2.5202     4.7625   10 H    0 0 0
   7 H    1     2.5676     4.8520   38 O   -1-1 1
   7 H    1     2.7321     5.1630    2 B   -1-1 1

   8 H    1     1.0914     2.0625   21 C    0 0 0
   8 H    1     2.1493     4.0616   24 C    0 0 0
   8 H    1     2.1666     4.0942   22 C    0 0 0
   8 H    1     2.5198     4.7618    9 H    0 1-2
   8 H    1     2.5720     4.8604   40 O    0 0 0
   8 H    1     2.7362     5.1707    4 B    0 0 0

   9 H    1     1.0914     2.0624   22 C    0-1 2
   9 H    1     2.1471     4.0575   19 C    0 0 0
   9 H    1     2.1680     4.0970   21 C    0-1 2
   9 H    1     2.5198     4.7618    8 H    0-1 2
   9 H    1     2.5665     4.8500   39 O    0 0 0
   9 H    1     2.7315     5.1618    2 B   -1-2 3

  10 H    1     1.0915     2.0626   23 C    0 0 0
  10 H    1     2.1490     4.0610   24 C    0 0 0
  10 H    1     2.1669     4.0948   20 C    0 0 0
  10 H    1     2.5202     4.7625    7 H    0 0 0
  10 H    1     2.5712     4.8588   41 O    0 0 0
  10 H    1     2.7351     5.1686    4 B    0 0 0

  11 H    1     1.0913     2.0623   26 C    0 0 0
  11 H    1     2.1469     4.0571   25 C    0 0 0
  11 H    1     2.1680     4.0968   29 C    0 0 0
  11 H    1     2.5198     4.7617   14 H    0 0-1
  11 H    1     2.5670     4.8510   38 O    0 0 0
  11 H    1     2.7310     5.1609    1 B    0 0 0

  12 H    1     1.0914     2.0625   27 C    0 0 1
  12 H    1     2.1493     4.0617   30 C    0 0 0
  12 H    1     2.1664     4.0939   28 C    0 0 1
  12 H    1     2.5192     4.7606   13 H    0 0 1
  12 H    1     2.5735     4.8632   40 O    0 0 0
  12 H    1     2.7371     5.1723    6 B    0 0 0

  13 H    1     1.0914     2.0624   28 C    0 0 0
  13 H    1     2.1475     4.0581   25 C    0 0 0
  13 H    1     2.1679     4.0967   27 C    0 0 0
  13 H    1     2.5192     4.7606   12 H    0 0-1
  13 H    1     2.5675     4.8519   37 O    1 2-3
  13 H    1     2.7328     5.1643    1 B    0 0 0

  14 H    1     1.0914     2.0625   29 C    0 0 1
  14 H    1     2.1491     4.0612   30 C    0 0 0
  14 H    1     2.1666     4.0942   26 C    0 0 1
  14 H    1     2.5198     4.7617   11 H    0 0 1
  14 H    1     2.5723     4.8609   42 O    0 0 0
  14 H    1     2.7355     5.1693    6 B    0 0 0

  15 H    1     1.0914     2.0624   32 C   -1-1 2
  15 H    1     2.1475     4.0582   31 C    0 0 0
  15 H    1     2.1678     4.0966   35 C   -1-1 2
  15 H    1     2.5200     4.7621   18 H   -1-1 2
  15 H    1     2.5667     4.8503   39 O    0 0 0
  15 H    1     2.7315     5.1618    3 B    0 0 0

  16 H    1     1.0913     2.0623   33 C    0 0 0
  16 H    1     2.1487     4.0605   36 C    0 0 0
  16 H    1     2.1667     4.0945   34 C    0 0 0
  16 H    1     2.5197     4.7616   17 H    0 0 0
  16 H    1     2.5723     4.8610   41 O    0 0 0
  16 H    1     2.7359     5.1701    5 B    0 0 0

  17 H    1     1.0915     2.0626   34 C    0 0 0
  17 H    1     2.1479     4.0589   31 C    1 1-2
  17 H    1     2.1679     4.0968   33 C    0 0 0
  17 H    1     2.5197     4.7616   16 H    0 0 0
  17 H    1     2.5677     4.8522   37 O    1 1-2
  17 H    1     2.7331     5.1648    3 B    1 1-2

  18 H    1     1.0914     2.0624   35 C    0 0 0
  18 H    1     2.1486     4.0602   36 C    0 0 0
  18 H    1     2.1668     4.0947   32 C    0 0 0
  18 H    1     2.5200     4.7621   15 H    1 1-2
  18 H    1     2.5717     4.8598   42 O    0 0 0
  18 H    1     2.7349     5.1682    5 B    0 0 0

  19 C    1     1.4020     2.6495   22 C    0-1 2
  19 C    1     1.4021     2.6495   20 C    0-1 2
  19 C    1     1.5504     2.9298    2 B   -1-2 3
  19 C    1     2.1471     4.0575    9 H    0 0 0
  19 C    1     2.1472     4.0576    7 H    0-1 2
  19 C    1     2.4246     4.5817   21 C    0-1 2

  20 C    1     1.0913     2.0623    7 H    0 0 0
  20 C    1     1.3914     2.6294   23 C    0 0 0
  20 C    1     1.4021     2.6495   19 C    0 1-2
  20 C    1     2.1669     4.0948   10 H    0 0 0
  20 C    1     2.4177     4.5688   22 C    0 0 0
  20 C    1     2.4250     4.5825   24 C    0 0 0

  21 C    1     1.0914     2.0625    8 H    0 0 0
  21 C    1     1.3914     2.6293   22 C    0 0 0
  21 C    1     1.4026     2.6505   24 C    0 0 0
  21 C    1     2.1680     4.0970    9 H    0 1-2
  21 C    1     2.4182     4.5697   23 C    0 0 0
  21 C    1     2.4246     4.5817   19 C    0 1-2

  22 C    1     1.0914     2.0624    9 H    0 1-2
  22 C    1     1.3914     2.6293   21 C    0 0 0
  22 C    1     1.4020     2.6495   19 C    0 1-2
  22 C    1     2.1666     4.0942    8 H    0 0 0
  22 C    1     2.4177     4.5688   20 C    0 0 0
  22 C    1     2.4250     4.5826   24 C    0 0 0

  23 C    1     1.0915     2.0626   10 H    0 0 0
  23 C    1     1.3914     2.6294   20 C    0 0 0
  23 C    1     1.4025     2.6504   24 C    0 0 0
  23 C    1     2.1680     4.0969    7 H    0 0 0
  23 C    1     2.4182     4.5697   21 C    0 0 0
  23 C    1     2.4246     4.5818   19 C    0 1-2

  24 C    1     1.4025     2.6504   23 C    0 0 0
  24 C    1     1.4026     2.6505   21 C    0 0 0
  24 C    1     1.5513     2.9316    4 B    0 0 0
  24 C    1     2.1490     4.0610   10 H    0 0 0
  24 C    1     2.1493     4.0616    8 H    0 0 0
  24 C    1     2.4250     4.5825   20 C    0 0 0

  25 C    1     1.4020     2.6494   26 C    0 0 0
  25 C    1     1.4021     2.6495   28 C    0 0 0
  25 C    1     1.5503     2.9297    1 B    0 0 0
  25 C    1     2.1469     4.0571   11 H    0 0 0
  25 C    1     2.1475     4.0581   13 H    0 0 0
  25 C    1     2.4246     4.5818   27 C    0 0 0

  26 C    1     1.0913     2.0623   11 H    0 0 0
  26 C    1     1.3914     2.6293   29 C    0 0 0
  26 C    1     1.4020     2.6494   25 C    0 0 0
  26 C    1     2.1666     4.0942   14 H    0 0-1
  26 C    1     2.4175     4.5684   28 C    0 0 0
  26 C    1     2.4251     4.5828   30 C    0 0-1

  27 C    1     1.0914     2.0625   12 H    0 0-1
  27 C    1     1.3915     2.6295   28 C    0 0 0
  27 C    1     1.4026     2.6505   30 C    0 0-1
  27 C    1     2.1679     4.0967   13 H    0 0 0
  27 C    1     2.4179     4.5691   29 C    0 0 0
  27 C    1     2.4246     4.5818   25 C    0 0 0

  28 C    1     1.0914     2.0624   13 H    0 0 0
  28 C    1     1.3915     2.6295   27 C    0 0 0
  28 C    1     1.4021     2.6495   25 C    0 0 0
  28 C    1     2.1664     4.0939   12 H    0 0-1
  28 C    1     2.4175     4.5684   26 C    0 0 0
  28 C    1     2.4253     4.5832   30 C    0 0-1

  29 C    1     1.0914     2.0625   14 H    0 0-1
  29 C    1     1.3914     2.6293   26 C    0 0 0
  29 C    1     1.4025     2.6504   30 C    0 0-1
  29 C    1     2.1680     4.0968   11 H    0 0 0
  29 C    1     2.4179     4.5691   27 C    0 0 0
  29 C    1     2.4247     4.5819   25 C    0 0 0

  30 C    1     1.4025     2.6504   29 C    0 0 1
  30 C    1     1.4026     2.6505   27 C    0 0 1
  30 C    1     1.5516     2.9322    6 B    0 0 0
  30 C    1     2.1491     4.0612   14 H    0 0 0
  30 C    1     2.1493     4.0617   12 H    0 0 0
  30 C    1     2.4251     4.5828   26 C    0 0 1

  31 C    1     1.4021     2.6496   32 C   -1-1 2
  31 C    1     1.4021     2.6497   34 C   -1-1 2
  31 C    1     1.5502     2.9294    3 B    0 0 0
  31 C    1     2.1475     4.0582   15 H    0 0 0
  31 C    1     2.1479     4.0589   17 H   -1-1 2
  31 C    1     2.4244     4.5814   33 C   -1-1 2

  32 C    1     1.0914     2.0624   15 H    1 1-2
  32 C    1     1.3914     2.6293   35 C    0 0 0
  32 C    1     1.4021     2.6496   31 C    1 1-2
  32 C    1     2.1668     4.0947   18 H    0 0 0
  32 C    1     2.4179     4.5692   34 C    0 0 0
  32 C    1     2.4251     4.5827   36 C    0 0 0

  33 C    1     1.0913     2.0623   16 H    0 0 0
  33 C    1     1.3914     2.6294   34 C    0 0 0
  33 C    1     1.4025     2.6504   36 C    0 0 0
  33 C    1     2.1679     4.0968   17 H    0 0 0
  33 C    1     2.4178     4.5690   35 C    0 0 0
  33 C    1     2.4244     4.5814   31 C    1 1-2

  34 C    1     1.0915     2.0626   17 H    0 0 0
  34 C    1     1.3914     2.6294   33 C    0 0 0
  34 C    1     1.4021     2.6497   31 C    1 1-2
  34 C    1     2.1667     4.0945   16 H    0 0 0
  34 C    1     2.4179     4.5692   32 C    0 0 0
  34 C    1     2.4253     4.5832   36 C    0 0 0

  35 C    1     1.0914     2.0624   18 H    0 0 0
  35 C    1     1.3914     2.6293   32 C    0 0 0
  35 C    1     1.4025     2.6503   36 C    0 0 0
  35 C    1     2.1678     4.0966   15 H    1 1-2
  35 C    1     2.4178     4.5690   33 C    0 0 0
  35 C    1     2.4245     4.5817   31 C    1 1-2

  36 C    1     1.4025     2.6503   35 C    0 0 0
  36 C    1     1.4025     2.6504   33 C    0 0 0
  36 C    1     1.5516     2.9322    5 B    0 0 0
  36 C    1     2.1486     4.0602   18 H    0 0 0
  36 C    1     2.1487     4.0605   16 H    0 0 0
  36 C    1     2.4251     4.5827   32 C    0 0 0

  37 O    1     1.3791     2.6061    1 B   -1-2 3
  37 O    1     1.3791     2.6061    3 B    0 0 0
  37 O    1     2.3880     4.5126   38 O   -1-2 3
  37 O    1     2.3882     4.5130   39 O    0 0 0
  37 O    1     2.5383     4.7966   31 C    0 0 0
  37 O    1     2.5384     4.7968   25 C   -1-2 3

  38 O    1     1.3793     2.6065    1 B    0 0 0
  38 O    1     1.3793     2.6065    2 B    0 0 0
  38 O    1     2.3880     4.5126   37 O    1 2-3
  38 O    1     2.3882     4.5131   39 O    1 2-3
  38 O    1     2.5391     4.7981   19 C    1 2-3
  38 O    1     2.5395     4.7990   25 C    0 0 0

  39 O    1     1.3793     2.6064    3 B    0 0 0
  39 O    1     1.3793     2.6065    2 B   -1-2 3
  39 O    1     2.3882     4.5130   37 O    0 0 0
  39 O    1     2.3882     4.5131   38 O   -1-2 3
  39 O    1     2.5390     4.7980   19 C    0 0 0
  39 O    1     2.5391     4.7982   31 C    0 0 0

  40 O    1     1.3795     2.6068    6 B    0 0 0
  40 O    1     1.3795     2.6068    4 B    0 0 0
  40 O    1     2.3880     4.5126   42 O    0 0 0
  40 O    1     2.3884     4.5134   41 O    0 0 0
  40 O    1     2.5400     4.7998   24 C    0 0 0
  40 O    1     2.5403     4.8005   30 C    0 0 0

  41 O    1     1.3795     2.6069    5 B    0 0 0
  41 O    1     1.3795     2.6070    4 B    0 0 0
  41 O    1     2.3881     4.5128   42 O    0 0 0
  41 O    1     2.3884     4.5134   40 O    0 0 0
  41 O    1     2.5404     4.8006   24 C    0 0 0
  41 O    1     2.5405     4.8008   36 C    0 0 0

  42 O    1     1.3796     2.6071    6 B    0 0 0
  42 O    1     1.3797     2.6072    5 B    0 0 0
  42 O    1     2.3880     4.5126   40 O    0 0 0
  42 O    1     2.3881     4.5128   41 O    0 0 0
  42 O    1     2.5409     4.8016   36 C    0 0 0
  42 O    1     2.5410     4.8019   30 C    0 0 0


 SYMMETRY ALLOWED INTERNAL DEGREE(S) OF FREEDOM: 123
 TTTTTTTTTTTTTTTTTTTTTTTTTTTTTT SYMM        TELAPSE        0.45 TCPU        0.45
 TTTTTTTTTTTTTTTTTTTTTTTTTTTTTT INT_SCREEN  TELAPSE        0.49 TCPU        0.49

 DFT PARAMETERS

     ATOM       ELECTRONS   NET CHARGE   R(ANGSTROM)
   1   5  B       5.0000      0.0000     0.89000000
   7   1  H       1.0000      0.0000     1.11000000
  19   6  C       6.0000      0.0000     0.77000000
  37   8  O       8.0000      0.0000     0.74000000

 SIZE OF GRID=    1245989
 TTTTTTTTTTTTTTTTTTTTTTTTTTTTTT MAKE_GRID2  TELAPSE       11.63 TCPU       11.62
 BECKE WEIGHT FUNCTION
 RADSAFE =     2.00
 TOLERANCES - DENSITY:10**- 6; POTENTIAL:10**- 9; GRID WGT:10**-14

 RADIAL INTEGRATION  - INTERVALS (POINTS,UPPER LIMIT):            1( 75,  4.0*R)

 ANGULAR INTEGRATION - INTERVALS (ACCURACY LEVEL [N. POINTS] UPPER LIMIT):
  1(  4[  86]   0.2)  2(  8[ 194]   0.5)  3( 12[ 350]   0.9)  4( 16[ 974]   3.5)
  5( 12[ 350]9999.0)
 TTTTTTTTTTTTTTTTTTTTTTTTTTTTTT INT_CALC    TELAPSE       11.72 TCPU       11.71
 EEEEEEEEEE INT_CALC TERMINATION  DATE 19 02 2026 TIME 17:46:39.4

 *******************************************************************************
 cof-1_z30_L070_incl                                                             
 CRYSTAL - SCF - TYPE OF CALCULATION :  RESTRICTED CLOSED SHELL
 *******************************************************************************

 CAPPA:IS1  2;IS2  2;IS3  8; K PTS MONK NET  20; SYMMOPS:K SPACE   2;G SPACE   1

 TTTTTTTTTTTTTTTTTTTTTTTTTTTTTT SDIK        TELAPSE       12.30 TCPU       19.86

 AAAAAAAAAAAAAAAAAAAAAAAAAAAAAAAAAAAAAAAAAAAAAAAAAAAAAAAAAAAAAAAAAAAAAAAAAAAAAAA
         ATOMIC WAVEFUNCTION(S)


 NUCLEAR CHARGE  5.0  SYMMETRY SPECIES            S    P
 N. ELECTRONS    5.0  NUMBER OF PRIMITIVE GTOS    8    4
                      NUMBER OF CONTRACTED GTOS   4    2
                      NUMBER OF CLOSED SHELLS     2    0
                      OPEN SHELL OCCUPATION       0    1

  ZNUC  SCFIT    TOTAL HF ENERGY   KINETIC ENERGY   VIRIAL THEOREM ACCURACY
   5.0    11    -2.451164084E+01  2.462155050E+01 -1.995536038E+00  1.5E-06

 NUCLEAR CHARGE  1.0  SYMMETRY SPECIES            S
 N. ELECTRONS    1.0  NUMBER OF PRIMITIVE GTOS    4
                      NUMBER OF CONTRACTED GTOS   2
                      NUMBER OF CLOSED SHELLS     0
                      OPEN SHELL OCCUPATION       1

  ZNUC  SCFIT    TOTAL HF ENERGY   KINETIC ENERGY   VIRIAL THEOREM ACCURACY
   1.0     1    -4.977266687E-01  5.190767460E-01 -1.958869132E+00  0.0E+00

 NUCLEAR CHARGE  6.0  SYMMETRY SPECIES            S    P
 N. ELECTRONS    6.0  NUMBER OF PRIMITIVE GTOS    8    4
                      NUMBER OF CONTRACTED GTOS   4    2
                      NUMBER OF CLOSED SHELLS     2    0
                      OPEN SHELL OCCUPATION       0    2

  ZNUC  SCFIT    TOTAL HF ENERGY   KINETIC ENERGY   VIRIAL THEOREM ACCURACY
   6.0     9    -3.766704647E+01  3.775180683E+01 -1.997754800E+00  1.1E-06

 NUCLEAR CHARGE  8.0  SYMMETRY SPECIES            S    P
 N. ELECTRONS    8.0  NUMBER OF PRIMITIVE GTOS    8    4
                      NUMBER OF CONTRACTED GTOS   4    2
                      NUMBER OF CLOSED SHELLS     2    0
                      OPEN SHELL OCCUPATION       0    4

  ZNUC  SCFIT    TOTAL HF ENERGY   KINETIC ENERGY   VIRIAL THEOREM ACCURACY
   8.0    12    -7.477373220E+01  7.477365593E+01 -2.000001020E+00  3.8E-06

 AAAAAAAAAAAAAAAAAAAAAAAAAAAAAAAAAAAAAAAAAAAAAAAAAAAAAAAAAAAAAAAAAAAAAAAAAAAAAAA

 CHARGE NORMALIZATION FACTOR   1.00000000
 TOTAL ATOMIC CHARGES:
   5.0000000   5.0000000   5.0000000   5.0000000   5.0000000   5.0000000
   1.0000000   1.0000000   1.0000000   1.0000000   1.0000000   1.0000000
   1.0000000   1.0000000   1.0000000   1.0000000   1.0000000   1.0000000
   6.0000000   6.0000000   6.0000000   6.0000000   6.0000000   6.0000000
   6.0000000   6.0000000   6.0000000   6.0000000   6.0000000   6.0000000
   6.0000000   6.0000000   6.0000000   6.0000000   6.0000000   6.0000000
   8.0000000   8.0000000   8.0000000   8.0000000   8.0000000   8.0000000
 TTTTTTTTTTTTTTTTTTTTTTTTTTTTTT MOQGAD      TELAPSE       12.35 TCPU       21.52
 TTTTTTTTTTTTTTTTTTTTTTTTTTTTTT SHELLXN     TELAPSE       22.80 TCPU      355.39
 TTTTTTTTTTTTTTTTTTTTTTTTTTTTTT MONMO3      TELAPSE       22.97 TCPU      360.67
 NUMERICALLY INTEGRATED DENSITY    198.0001429418
 TTTTTTTTTTTTTTTTTTTTTTTTTTTTTT NUMDFT      TELAPSE       23.74 TCPU      385.23
 CYC   0 ETOT(AU) -1.296023187236E+03 DETOT -1.30E+03 tst  0.00E+00 PX  1.00E+00
 TTTTTTTTTTTTTTTTTTTTTTTTTTTTTT DIIS        TELAPSE       23.78 TCPU      386.52
 TTTTTTTTTTTTTTTTTTTTTTTTTTTTTT FDIK        TELAPSE       24.27 TCPU      402.22
 INSULATING STATE
 TOP OF VALENCE BANDS -    BAND     99; K    1; EIG -2.9569787E-01 AU
 BOTTOM OF VIRTUAL BANDS - BAND    100; K   17; EIG -1.6731958E-01 AU
 INDIRECT ENERGY BAND GAP:   3.4934 eV
 BOTTOM OF VIRTUAL BANDS - BAND    100; K    1; EIG -1.6204864E-01 AU
 TTTTTTTTTTTTTTTTTTTTTTTTTTTTTT PDIG        TELAPSE       24.62 TCPU      408.19
 CHARGE NORMALIZATION FACTOR   1.00000000
 TOTAL ATOMIC CHARGES:
   4.1317988   4.1534695   4.1543085   4.1540261   4.1537812   4.1287346
   0.7859291   0.7860538   0.7849198   0.7848711   0.7855234   0.7857872
   0.7855017   0.7856761   0.7849146   0.7849599   0.7858611   0.7860358
   6.0437859   6.2715332   6.2712186   6.2674082   6.2670009   6.0433021
   6.0474895   6.2663192   6.2666898   6.2662457   6.2665578   6.0466133
   6.0442676   6.2669680   6.2673801   6.2710158   6.2715587   6.0428128
   8.6995429   8.6997715   8.7048867   8.6999719   8.7052093   8.7002982
 TTTTTTTTTTTTTTTTTTTTTTTTTTTTTT MOQGAD      TELAPSE       24.68 TCPU      408.24
 TTTTTTTTTTTTTTTTTTTTTTTTTTTTTT SHELLXN     TELAPSE       35.54 TCPU      754.95
 TTTTTTTTTTTTTTTTTTTTTTTTTTTTTT MONMO3      TELAPSE       35.71 TCPU      760.20
 NUMERICALLY INTEGRATED DENSITY    198.0001012354
 TTTTTTTTTTTTTTTTTTTTTTTTTTTTTT NUMDFT      TELAPSE       36.49 TCPU      785.18
 CYC   1 ETOT(AU) -1.288816235723E+03 DETOT  7.21E+00 tst  0.00E+00 PX  1.00E+00
 TTTTTTTTTTTTTTTTTTTTTTTTTTTTTT DIIS        TELAPSE       36.54 TCPU      786.78
 DIIS TEST: 0.11106E+01 AT SCF   CYCLE   1 - MIX   30 %
 TTTTTTTTTTTTTTTTTTTTTTTTTTTTTT FDIK        TELAPSE       37.04 TCPU      802.83
 INSULATING STATE
 TOP OF VALENCE BANDS -    BAND     99; K    1; EIG -2.0506560E-01 AU
 BOTTOM OF VIRTUAL BANDS - BAND    100; K   17; EIG -9.2729309E-02 AU
 INDIRECT ENERGY BAND GAP:   3.0568 eV
 BOTTOM OF VIRTUAL BANDS - BAND    100; K    1; EIG -8.9894688E-02 AU
 TTTTTTTTTTTTTTTTTTTTTTTTTTTTTT PDIG        TELAPSE       37.39 TCPU      808.80
 CHARGE NORMALIZATION FACTOR   1.00000000
 TOTAL ATOMIC CHARGES:
   4.7053381   4.6896299   4.6907285   4.6901270   4.6895733   4.7038052
   0.9061909   0.9063193   0.9073455   0.9067816   0.8967764   0.8971535
   0.8968544   0.8969143   0.9071750   0.9068673   0.9063051   0.9062901
   5.8675451   6.1592613   6.1595842   6.1294727   6.1292863   5.8707344
   5.9121179   6.1244245   6.1266790   6.1250295   6.1271296   5.9166032
   5.8676829   6.1293326   6.1295993   6.1596107   6.1589130   5.8703751
   8.3431087   8.3431027   8.3275912   8.3432810   8.3262276   8.3431323
 TTTTTTTTTTTTTTTTTTTTTTTTTTTTTT MOQGAD      TELAPSE       37.44 TCPU      808.85
 TTTTTTTTTTTTTTTTTTTTTTTTTTTTTT SHELLXN     TELAPSE       48.31 TCPU     1155.37
 TTTTTTTTTTTTTTTTTTTTTTTTTTTTTT MONMO3      TELAPSE       48.47 TCPU     1160.62
 NUMERICALLY INTEGRATED DENSITY    198.0001132303
 TTTTTTTTTTTTTTTTTTTTTTTTTTTTTT NUMDFT      TELAPSE       49.25 TCPU     1185.58
 CYC   2 ETOT(AU) -1.289006133785E+03 DETOT -1.90E-01 tst  2.58E-03 PX  1.61E-01
 TTTTTTTTTTTTTTTTTTTTTTTTTTTTTT DIIS        TELAPSE       49.31 TCPU     1187.31
 DIIS TEST: 0.47045E+00 AT SCF   CYCLE   2 - DIIS ACTIVE - HISTORY:     2 CYCLES
 TTTTTTTTTTTTTTTTTTTTTTTTTTTTTT FDIK        TELAPSE       49.81 TCPU     1203.33
 INSULATING STATE
 TOP OF VALENCE BANDS -    BAND     99; K    1; EIG -2.1800127E-01 AU
 BOTTOM OF VIRTUAL BANDS - BAND    100; K   17; EIG -8.7828823E-02 AU
 INDIRECT ENERGY BAND GAP:   3.5422 eV
 BOTTOM OF VIRTUAL BANDS - BAND    100; K    1; EIG -8.2125501E-02 AU
 TTTTTTTTTTTTTTTTTTTTTTTTTTTTTT PDIG        TELAPSE       50.16 TCPU     1209.30
 CHARGE NORMALIZATION FACTOR   1.00000000
 TOTAL ATOMIC CHARGES:
   4.4801905   4.4855158   4.4863054   4.4859955   4.4855443   4.4780695
   0.8852092   0.8854763   0.8861046   0.8856399   0.8766730   0.8774033
   0.8767481   0.8772320   0.8859176   0.8857501   0.8853813   0.8853288
   5.8961127   6.1699325   6.1693250   6.1654953   6.1657042   5.8968723
   5.8946606   6.1727849   6.1719677   6.1726446   6.1722247   5.8932146
   5.8961057   6.1654415   6.1658153   6.1693598   6.1696356   5.8969728
   8.5126922   8.5131018   8.5244765   8.5128648   8.5248803   8.5132296
 TTTTTTTTTTTTTTTTTTTTTTTTTTTTTT MOQGAD      TELAPSE       50.21 TCPU     1209.35
 TTTTTTTTTTTTTTTTTTTTTTTTTTTTTT SHELLXN     TELAPSE       61.08 TCPU     1555.95
 TTTTTTTTTTTTTTTTTTTTTTTTTTTTTT MONMO3      TELAPSE       61.24 TCPU     1561.20
 NUMERICALLY INTEGRATED DENSITY    198.0001134529
 TTTTTTTTTTTTTTTTTTTTTTTTTTTTTT NUMDFT      TELAPSE       62.02 TCPU     1586.18
 CYC   3 ETOT(AU) -1.289102032195E+03 DETOT -9.59E-02 tst  7.73E-04 PX  6.89E-02
 TTTTTTTTTTTTTTTTTTTTTTTTTTTTTT DIIS        TELAPSE       62.08 TCPU     1588.03
 DIIS TEST: 0.14538E-01 AT SCF   CYCLE   3 - DIIS ACTIVE - HISTORY:     3 CYCLES
 TTTTTTTTTTTTTTTTTTTTTTTTTTTTTT FDIK        TELAPSE       62.82 TCPU     1611.38
 INSULATING STATE
 TOP OF VALENCE BANDS -    BAND     99; K    1; EIG -2.2705569E-01 AU
 BOTTOM OF VIRTUAL BANDS - BAND    100; K   17; EIG -9.5409134E-02 AU
 INDIRECT ENERGY BAND GAP:   3.5823 eV
 BOTTOM OF VIRTUAL BANDS - BAND    100; K    1; EIG -9.1212668E-02 AU
 TTTTTTTTTTTTTTTTTTTTTTTTTTTTTT PDIG        TELAPSE       63.18 TCPU     1617.35
 CHARGE NORMALIZATION FACTOR   1.00000000
 TOTAL ATOMIC CHARGES:
   4.4876098   4.4903290   4.4911871   4.4905837   4.4900524   4.4856517
   0.8679961   0.8681573   0.8703383   0.8700497   0.8616504   0.8619339
   0.8616934   0.8617783   0.8702102   0.8701361   0.8680651   0.8681357
   5.9394422   6.1846921   6.1849921   6.1644050   6.1641997   5.9410678
   5.9668410   6.1634220   6.1651828   6.1638530   6.1652421   5.9701080
   5.9400350   6.1641581   6.1645163   6.1848823   6.1845565   5.9404182
   8.4890164   8.4890066   8.4783440   8.4893391   8.4774672   8.4892544
 TTTTTTTTTTTTTTTTTTTTTTTTTTTTTT MOQGAD      TELAPSE       63.23 TCPU     1617.41
 TTTTTTTTTTTTTTTTTTTTTTTTTTTTTT SHELLXN     TELAPSE       74.10 TCPU     1964.11
 TTTTTTTTTTTTTTTTTTTTTTTTTTTTTT MONMO3      TELAPSE       74.26 TCPU     1969.37
 NUMERICALLY INTEGRATED DENSITY    198.0001120166
 TTTTTTTTTTTTTTTTTTTTTTTTTTTTTT NUMDFT      TELAPSE       75.04 TCPU     1994.40
 CYC   4 ETOT(AU) -1.289105077631E+03 DETOT -3.05E-03 tst  5.18E-05 PX  1.65E-02
 TTTTTTTTTTTTTTTTTTTTTTTTTTTTTT DIIS        TELAPSE       75.11 TCPU     1996.46
 DIIS TEST: 0.39265E-02 AT SCF   CYCLE   4 - DIIS ACTIVE - HISTORY:     4 CYCLES
 TTTTTTTTTTTTTTTTTTTTTTTTTTTTTT FDIK        TELAPSE       75.61 TCPU     2012.54
 INSULATING STATE
 TOP OF VALENCE BANDS -    BAND     99; K    1; EIG -2.2582903E-01 AU
 BOTTOM OF VIRTUAL BANDS - BAND    100; K   17; EIG -9.5356003E-02 AU
 INDIRECT ENERGY BAND GAP:   3.5504 eV
 BOTTOM OF VIRTUAL BANDS - BAND    100; K    1; EIG -9.0952210E-02 AU
 TTTTTTTTTTTTTTTTTTTTTTTTTTTTTT PDIG        TELAPSE       75.96 TCPU     2018.50
 CHARGE NORMALIZATION FACTOR   1.00000000
 TOTAL ATOMIC CHARGES:
   4.4930534   4.4922727   4.4931561   4.4927459   4.4922469   4.4911192
   0.8710088   0.8712405   0.8725524   0.8721311   0.8629056   0.8635287
   0.8629909   0.8633419   0.8723951   0.8722289   0.8711640   0.8711327
   5.9232226   6.1815311   6.1811435   6.1681138   6.1682003   5.9244759
   5.9397280   6.1709495   6.1707263   6.1708974   6.1711434   5.9394840
   5.9231614   6.1679602   6.1684315   6.1811170   6.1812878   5.9245036
   8.4927963   8.4931322   8.4953386   8.4929380   8.4952939   8.4932087
 TTTTTTTTTTTTTTTTTTTTTTTTTTTTTT MOQGAD      TELAPSE       76.01 TCPU     2018.56
 TTTTTTTTTTTTTTTTTTTTTTTTTTTTTT SHELLXN     TELAPSE       86.88 TCPU     2365.31
 TTTTTTTTTTTTTTTTTTTTTTTTTTTTTT MONMO3      TELAPSE       87.04 TCPU     2370.57
 NUMERICALLY INTEGRATED DENSITY    198.0001119271
 TTTTTTTTTTTTTTTTTTTTTTTTTTTTTT NUMDFT      TELAPSE       87.83 TCPU     2395.52
 CYC   5 ETOT(AU) -1.289105966354E+03 DETOT -8.89E-04 tst  6.68E-06 PX  7.39E-03
 TTTTTTTTTTTTTTTTTTTTTTTTTTTTTT DIIS        TELAPSE       87.90 TCPU     2397.75
 DIIS TEST: 0.98380E-04 AT SCF   CYCLE   5 - DIIS ACTIVE - HISTORY:     5 CYCLES
 TTTTTTTTTTTTTTTTTTTTTTTTTTTTTT FDIK        TELAPSE       88.40 TCPU     2413.73
 INSULATING STATE
 TOP OF VALENCE BANDS -    BAND     99; K    1; EIG -2.2552228E-01 AU
 BOTTOM OF VIRTUAL BANDS - BAND    100; K   17; EIG -9.4981746E-02 AU
 INDIRECT ENERGY BAND GAP:   3.5522 eV
 BOTTOM OF VIRTUAL BANDS - BAND    100; K    1; EIG -9.0335181E-02 AU
 TTTTTTTTTTTTTTTTTTTTTTTTTTTTTT PDIG        TELAPSE       88.75 TCPU     2419.70
 CHARGE NORMALIZATION FACTOR   1.00000000
 TOTAL ATOMIC CHARGES:
   4.4907010   4.4928326   4.4936967   4.4931288   4.4926317   4.4886893
   0.8719012   0.8720914   0.8733969   0.8730463   0.8643407   0.8647005
   0.8643665   0.8645729   0.8732337   0.8731486   0.8719847   0.8720520
   5.9233439   6.1817053   6.1818003   6.1666551   6.1666199   5.9246396
   5.9385918   6.1688269   6.1702989   6.1692721   6.1702211   5.9409644
   5.9239344   6.1665402   6.1668053   6.1817708   6.1814820   5.9240223
   8.4949313   8.4949841   8.4910616   8.4952710   8.4904851   8.4952571
 TTTTTTTTTTTTTTTTTTTTTTTTTTTTTT MOQGAD      TELAPSE       88.80 TCPU     2419.75
 TTTTTTTTTTTTTTTTTTTTTTTTTTTTTT SHELLXN     TELAPSE       99.67 TCPU     2766.35
 TTTTTTTTTTTTTTTTTTTTTTTTTTTTTT MONMO3      TELAPSE       99.83 TCPU     2771.61
 NUMERICALLY INTEGRATED DENSITY    198.0001120555
 TTTTTTTTTTTTTTTTTTTTTTTTTTTTTT NUMDFT      TELAPSE      100.62 TCPU     2796.64
 CYC   6 ETOT(AU) -1.289105984975E+03 DETOT -1.86E-05 tst  2.79E-07 PX  2.12E-03
 TTTTTTTTTTTTTTTTTTTTTTTTTTTTTT DIIS        TELAPSE      100.69 TCPU     2799.01
 DIIS TEST: 0.36887E-04 AT SCF   CYCLE   6 - DIIS ACTIVE - HISTORY:     6 CYCLES
 TTTTTTTTTTTTTTTTTTTTTTTTTTTTTT FDIK        TELAPSE      101.19 TCPU     2815.01
 INSULATING STATE
 TOP OF VALENCE BANDS -    BAND     99; K    1; EIG -2.2560740E-01 AU
 BOTTOM OF VIRTUAL BANDS - BAND    100; K   17; EIG -9.4998202E-02 AU
 INDIRECT ENERGY BAND GAP:   3.5541 eV
 BOTTOM OF VIRTUAL BANDS - BAND    100; K    1; EIG -9.0449078E-02 AU
 TTTTTTTTTTTTTTTTTTTTTTTTTTTTTT PDIG        TELAPSE      101.54 TCPU     2820.98
 CHARGE NORMALIZATION FACTOR   1.00000000
 TOTAL ATOMIC CHARGES:
   4.4916272   4.4925149   4.4933751   4.4929344   4.4924428   4.4896530
   0.8718785   0.8720818   0.8734270   0.8730333   0.8640225   0.8645809
   0.8641027   0.8643978   0.8732781   0.8731219   0.8720116   0.8719943
   5.9234894   6.1811999   6.1810092   6.1669872   6.1669998   5.9248155
   5.9402828   6.1695141   6.1696737   6.1695267   6.1700292   5.9408495
   5.9235690   6.1667852   6.1672771   6.1809266   6.1810216   5.9247092
   8.4935068   8.4937683   8.4931063   8.4936956   8.4928876   8.4938920
 TTTTTTTTTTTTTTTTTTTTTTTTTTTTTT MOQGAD      TELAPSE      101.59 TCPU     2821.03
 TTTTTTTTTTTTTTTTTTTTTTTTTTTTTT SHELLXN     TELAPSE      112.46 TCPU     3167.58
 TTTTTTTTTTTTTTTTTTTTTTTTTTTTTT MONMO3      TELAPSE      112.62 TCPU     3172.84
 NUMERICALLY INTEGRATED DENSITY    198.0001120589
 TTTTTTTTTTTTTTTTTTTTTTTTTTTTTT NUMDFT      TELAPSE      113.40 TCPU     3197.85
 CYC   7 ETOT(AU) -1.289105992930E+03 DETOT -7.96E-06 tst  8.69E-08 PX  8.60E-04
 TTTTTTTTTTTTTTTTTTTTTTTTTTTTTT DIIS        TELAPSE      113.48 TCPU     3200.42
 DIIS TEST: 0.13087E-05 AT SCF   CYCLE   7 - DIIS ACTIVE - HISTORY:     7 CYCLES
 TTTTTTTTTTTTTTTTTTTTTTTTTTTTTT FDIK        TELAPSE      113.99 TCPU     3216.52
 INSULATING STATE
 TOP OF VALENCE BANDS -    BAND     99; K    1; EIG -2.2560606E-01 AU
 BOTTOM OF VIRTUAL BANDS - BAND    100; K   17; EIG -9.5018709E-02 AU
 INDIRECT ENERGY BAND GAP:   3.5535 eV
 BOTTOM OF VIRTUAL BANDS - BAND    100; K    1; EIG -9.0478222E-02 AU
 TTTTTTTTTTTTTTTTTTTTTTTTTTTTTT PDIG        TELAPSE      114.33 TCPU     3222.49
 CHARGE NORMALIZATION FACTOR   1.00000000
 TOTAL ATOMIC CHARGES:
   4.4917759   4.4925909   4.4934621   4.4929720   4.4924709   4.4898052
   0.8718304   0.8720437   0.8733906   0.8730032   0.8640357   0.8645148
   0.8640850   0.8643632   0.8732265   0.8731075   0.8719496   0.8719706
   5.9234029   6.1813115   6.1811656   6.1669223   6.1669572   5.9246847
   5.9397339   6.1692738   6.1699773   6.1695192   6.1701005   5.9408699
   5.9237124   6.1668109   6.1671420   6.1811498   6.1810667   5.9243475
   8.4937220   8.4939017   8.4929562   8.4939668   8.4926266   8.4940807
 TTTTTTTTTTTTTTTTTTTTTTTTTTTTTT MOQGAD      TELAPSE      114.39 TCPU     3222.54
 TTTTTTTTTTTTTTTTTTTTTTTTTTTTTT SHELLXN     TELAPSE      125.25 TCPU     3569.15
 TTTTTTTTTTTTTTTTTTTTTTTTTTTTTT MONMO3      TELAPSE      125.41 TCPU     3574.41
 NUMERICALLY INTEGRATED DENSITY    198.0001120572
 TTTTTTTTTTTTTTTTTTTTTTTTTTTTTT NUMDFT      TELAPSE      126.20 TCPU     3599.47
 CYC   8 ETOT(AU) -1.289105993030E+03 DETOT -9.99E-08 tst  2.29E-09 PX  1.28E-04
 TTTTTTTTTTTTTTTTTTTTTTTTTTTTTT DIIS        TELAPSE      126.28 TCPU     3602.18
 DIIS TEST: 0.10244E-06 AT SCF   CYCLE   8 - DIIS ACTIVE - HISTORY:     8 CYCLES
 TTTTTTTTTTTTTTTTTTTTTTTTTTTTTT FDIK        TELAPSE      126.79 TCPU     3618.22
 INSULATING STATE
 TOP OF VALENCE BANDS -    BAND     99; K    1; EIG -2.2560843E-01 AU
 BOTTOM OF VIRTUAL BANDS - BAND    100; K   17; EIG -9.5018507E-02 AU
 INDIRECT ENERGY BAND GAP:   3.5535 eV
 BOTTOM OF VIRTUAL BANDS - BAND    100; K    1; EIG -9.0471909E-02 AU
 TTTTTTTTTTTTTTTTTTTTTTTTTTTTTT PDIG        TELAPSE      127.13 TCPU     3624.19
 CHARGE NORMALIZATION FACTOR   1.00000000
 TOTAL ATOMIC CHARGES:
   4.4917142   4.4925911   4.4934536   4.4929865   4.4924940   4.4897386
   0.8718334   0.8720354   0.8733832   0.8729976   0.8640072   0.8645348
   0.8640810   0.8643585   0.8732337   0.8730869   0.8719584   0.8719560
   5.9234102   6.1813001   6.1811532   6.1669591   6.1669585   5.9247165
   5.9398597   6.1694709   6.1698327   6.1695373   6.1701342   5.9407100
   5.9235596   6.1667628   6.1672298   6.1810811   6.1811115   5.9245395
   8.4937213   8.4939537   8.4928947   8.4939354   8.4926222   8.4941022
 TTTTTTTTTTTTTTTTTTTTTTTTTTTTTT MOQGAD      TELAPSE      127.18 TCPU     3624.24
 TTTTTTTTTTTTTTTTTTTTTTTTTTTTTT SHELLXN     TELAPSE      138.05 TCPU     3970.72
 +++ ENERGIES IN A.U. +++
 ::: EXT EL-POLE                                  -1.7137657127139E+03
 ::: EXT EL-SPHEROPOLE                             1.9063681784752E+01
 ::: BIELET ZONE E-E                               2.3086964912029E+03
 ::: TOTAL E-E                                     6.1399446027376E+02
 ::: TOTAL E-N + N-E                              -3.0483325715789E+03
 ::: TOTAL N-N                                    -1.0595100835918E+00
 ::: KINETIC ENERGY                                1.2800395113004E+03
 ::: PSEUDO TOTAL   ENERGY                        -1.1553581100883E+03
 ::: VIRIAL COEFFICIENT                            1.0511955009388E+00
 TTTTTTTTTTTTTTTTTTTTTTTTTTTTTT MONMO3      TELAPSE      138.21 TCPU     3975.99
 NUMERICALLY INTEGRATED DENSITY    198.0001120579
 EXCHANGE ENERGY: -0.126034442659E+03  CORRELATION ENERGY: -0.771344031929E+01
 TTTTTTTTTTTTTTTTTTTTTTTTTTTTTT NUMDFT      TELAPSE      139.00 TCPU     4001.00
 CYC   9 ETOT(AU) -1.289105993066E+03 DETOT -3.61E-08 tst  7.91E-10 PX  1.28E-04

 == SCF ENDED - CONVERGENCE ON ENERGY      E(AU) -1.2891059930664E+03 CYCLES   9


 ENERGY EXPRESSION=HARTREE+FOCK EXCH*0.00000+(HSESOL     EXCH)*1.00000+PBESOL     CORR


 TOTAL ENERGY(DFT)(AU)(  9) -1.2891059930664E+03 DE-3.6E-08 tester 7.9E-10
 TTTTTTTTTTTTTTTTTTTTTTTTTTTTTT EDFT        TELAPSE      139.00 TCPU     4001.01
 
 INFORMATION **** DFTD3 ENERGY **** CALCULATE DFTD3 ENERGY

           DFT-D V3(BJ)
 DF                                         hsesol3c  
 parameters
 s6       :    1.0000
 s8       :    0.0000
 a1       :    0.5196
 a2       :    4.9385
 k1 k3    :   16.0000   -4.0000
 Cutoff   :   50.2022
 CN-Cutoff:   21.1671
 ABC-Cutoff:   21.1671
 
 Edisp /kcal,au:   -29.9843 -0.04778304

 E6    /kcal :   -32.0585
 E8    /kcal :     0.0000
 E6(ABC) "   :   2.074204
 
 INFORMATION **** DFTD3 ENERGY **** NORMAL TERMINATION OF DFTD3 MODULE

 GCP ENERGY CALCULATION
  level        hsesol3c            basis:hsesol3c
  Nbf            474
  Atoms           42

  Parameters: 
  sigma     1.0000
  eta       1.4281
  alpha     0.2936
  beta      1.9467

  dmp_scal      4.0000
  dmp_exp       6.0000
 cutoffs: 
   distance [bohr] 60.0
   noise    [a.u.] 2.2E-16
 SR-damping   T
 ** gCP correction **
  Egcp:        0.0859622004 / (a.u.) ||      53.9421 / (kcal/mol)
 INFORMATION **** GCP **** NORMAL TERMINATION OF GCP MODULE

 *******************************************************************************

 DFT-D3-GCP DISPERSION AND COUNTERPOISE CORRECTION

 D3 DISPERSION ENERGY (AU)      -4.7783036413984E-02
 GCP ENERGY (AU)                 8.5962200422048E-02
 TOTAL ENERGY + DISP + GCP (AU) -1.2890678139024E+03

 *******************************************************************************

 EIGENVECTORS IN FORTRAN UNIT 10
 TTTTTTTTTTTTTTTTTTTTTTTTTTTTTT END         TELAPSE      141.42 TCPU     4009.16
 EEEEEEEEEE TERMINATION  DATE 19 02 2026 TIME 17:48:49.1
