 Default number of threads is:           32

         
 *******************************************************************************
 *                                                                             *
 *                               CRYSTAL23                                     *
 *                      public : 1.0.1 - October 2022                          *
 *                       HTTP://WWW.CRYSTAL.UNITO.IT                           *
 *                                                                             *
 *                              MAIN AUTHORS                                   *
 *                                                                             *
 *  R. DOVESI(1,11), V.R. SAUNDERS(2), C. ROETTI(1,11), R. ORLANDO(1,11),      *
 *  C.M. ZICOVICH-WILSON(1,3), F. PASCALE(4), B. CIVALLERI(1,11),              *
 *  K. DOLL(5), N.M. HARRISON(6), I.J. BUSH(7), Ph. D'ARCO(8),                 *
 *  M. LLUNELL(9), M. CAUSA'(10), Y. NOEL(8), L. MASCHIO(1,11), A. ERBA(1,11)  *
 *  M. RE'RAT(14), S. CASASSA(1,11), B.G. SEARLE(2), J.K. DESMARAIS(1)         *
 *                                                                             *
 *        CONTRIBUTIONS TO THE CODE HAVE ALSO BEEN GIVEN BY                    *
 *                                                                             *
 *  M. FERRABONE(1,11), M. DE LA PIERRE(1,11), M. FERRERO(1,11),               *
 *  J. BAIMA(1,11), E. ALBANESE(1,11), M.F. PEINTINGER(12), R. BAST(13),       *
 *  B. KIRTMAN(15), V. LACIVITA(1,11), R. DEMICHELIS(1,16)                     *
 *  G. BRANDEBURG(17), S. SALUSTRO(1,11), G. SANSONE(1,11)                     *
 *  M.T. RUGGIERO(18), L.E. DAGA(1), L. DONA'(1), A. COSSARD(1)                *
 *                                                                             *
 * (1) THEORETICAL CHEMISTRY GROUP - UNIVERSITA' DI TORINO - TORINO (ITALY)    *
 * (2) SCIENTIFIC COMPUTING DEPARTMENT - STFC DARESBURY (UK)                   *
 * (3) UNIVERSIDAD AUTONOMA DEL ESTADO DE MORELOS - CUERNAVACA (MEXICO)        *
 * (4) UNIVERSITE' DE LORRAINE - NANCY (FRANCE)                                *
 * (5) UNIVERSITAET STUTTGART- STUTTGART (GERMANY)                             *
 * (6) IMPERIAL COLLEGE - LONDON (UK)                                          *
 * (7) SCIENTIFIC COMPUTING DEPARTMENT - STFC RAL (UK)                         *
 * (8) UPMC - SORBONNE UNIVERSITES - PARIS (FRANCE)                            *
 * (9) UNIVERSIDAD DE BARCELONA - BARCELONA (SPAIN)                            *
 *(10) UNIVERSITA' DI NAPOLI "FEDERICO II" - NAPOLI (ITALY)                    *
 *(11) NIS - NANOSTRUCTURED INTERFACES AND SURFACES - TORINO (ITALY)           *
 *(12) MPI FUER CHEMISCHE ENERGIEKONVERSION - MUELHEIM AN DER RUHR (GERMANY)   *
 *(13) UNIVERSITY OF TROMSO - TROMSO (NORWAY)                                  *
 *(14) UNIVERSITE' DE PAU ET DES PAYS DE L'ADOUR - PAU (FRANCE)                *
 *(15) UNIVERSITY OF CALIFORNIA SANTA BARBARA - SANTA BARBARA (USA)            *
 *(16) CURTIN UNIVERSITY - PERTH (AUSTRALIA)                                   *
 *(17) UNIVERSITY COLLEGE LONDON - LONDON (UK)                                 *
 *(18) UNIVERSITY OF VERMONT - BURLINGTON (USA)                                *
 *                                                                             *
 *******************************************************************************
 EEEEEEEEEE STARTING  DATE 19 02 2026 TIME 19:03:40.0
 cof-1_z39_L080_incl                                                             

 CRYSTAL CALCULATION
 (INPUT ACCORDING TO THE INTERNATIONAL TABLES FOR X-RAY CRYSTALLOGRAPHY)
 CRYSTAL FAMILY                       :  TRICLINIC   
 CRYSTAL CLASS  (GROTH - 1921)        :  TRICLINIC PEDIAL                     

 SPACE GROUP (NONCENTROSYMMETRIC)     :  P 1             

 LATTICE PARAMETERS  (ANGSTROMS AND DEGREES) - CONVENTIONAL CELL
        A           B           C        ALPHA        BETA       GAMMA
    15.02361    15.02392     8.90000    38.87848    89.99998   119.99596


 NUMBER OF IRREDUCIBLE ATOMS IN THE CONVENTIONAL CELL:   42

 INPUT COORDINATES

 ATOM AT. N.              COORDINATES
   1   5     4.596128200000E-01 -8.084855000000E-02  5.012187000000E-01
   2   5     6.186684700000E-01  7.821110000000E-02  5.012187200000E-01
   3   5     4.604001100000E-01  7.977718000000E-02  4.986435700000E-01
   4   5     7.318752000000E-02  3.054664500000E-01  5.012187100000E-01
   5   5     2.322954900000E-01  3.054456800000E-01  5.012187100000E-01
   6   5     2.330673400000E-01  4.661681600000E-01  4.986435700000E-01
   7   1     7.506169700000E-01  4.045750000000E-03  4.958799200000E-01
   8   1    -5.554118000000E-02  3.866710900000E-01  4.950635300000E-01
   9   1     7.508343400000E-01  2.897673300000E-01  4.949378800000E-01
  10   1    -5.541054000000E-02  1.013605700000E-01  4.949692200000E-01
  11   1     5.360765600000E-01 -2.129390600000E-01  5.041079500000E-01
  12   1     1.537229200000E-01  5.929921500000E-01  5.049244000000E-01
  13   1     2.506245400000E-01 -2.134724700000E-01  5.050501200000E-01
  14   1     4.390764600000E-01  5.928442600000E-01  5.050185700000E-01
  15   1     5.386460700000E-01  2.891698800000E-01  4.958799700000E-01
  16   1     1.567861400000E-01  1.012270100000E-01  4.950634800000E-01
  17   1     2.537035200000E-01  4.518210000000E-03  4.949377800000E-01
  18   1     4.421441300000E-01  3.866335000000E-01  4.949693200000E-01
  19   6     7.386431100000E-01  1.394181400000E-01  4.985493400000E-01
  20   6     7.940238400000E-01  8.782409000000E-02  4.960055600000E-01
  21   6    -9.900961000000E-02  3.023588700000E-01  4.957858100000E-01
  22   6     7.938516700000E-01  2.484602800000E-01  4.964452900000E-01
  23   6    -9.865281000000E-02  1.420607600000E-01  4.947493900000E-01
  24   6    -4.457420000000E-02  2.487844300000E-01  4.964766700000E-01
  25   6     3.999041200000E-01 -2.001334800000E-01  5.014385600000E-01
  26   6     4.522606400000E-01 -2.563099800000E-01  5.039823000000E-01
  27   6     2.378138800000E-01  6.366620800000E-01  5.042021300000E-01
  28   6     2.915055000000E-01 -2.559927600000E-01  5.035426600000E-01
  29   6     3.984135100000E-01  6.359853100000E-01  5.052384400000E-01
  30   6     2.911555000000E-01  5.824157700000E-01  5.035112200000E-01
  31   6     4.007976700000E-01  1.393490000000E-01  4.985493400000E-01
  32   6     4.547449300000E-01  2.486642100000E-01  4.960056100000E-01
  33   6     2.404256600000E-01  1.413456300000E-01  4.957857600000E-01
  34   6     2.936868400000E-01  8.745813000000E-02  4.964452200000E-01
  35   6     4.016637900000E-01  3.029087500000E-01  4.947494600000E-01
  36   6     2.933498900000E-01  2.487070300000E-01  4.964766700000E-01
  37   8     4.072481500000E-01 -2.663764000000E-02  4.993344500000E-01
  38   8     5.645231600000E-01 -2.997029000000E-02  5.047673900000E-01
  39   8     5.670403700000E-01  1.340143200000E-01  4.965709000000E-01
  40   8     1.268359700000E-01  4.126428300000E-01  4.993344700000E-01
  41   8     1.251854300000E-01  2.503469900000E-01  5.047673800000E-01
  42   8     2.866247900000E-01  4.143263000000E-01  4.965708800000E-01

 *******************************************************************************

 << INFORMATION >>: FROM NOW ON, ALL COORDINATES REFER TO THE PRIMITIVE CELL

 *******************************************************************************

 LATTICE PARAMETERS  (ANGSTROMS AND DEGREES) - PRIMITIVE CELL
       A          B          C        ALPHA      BETA     GAMMA        VOLUME
   15.02361   15.02392    8.90000    38.87848  89.99998 119.99596    762.387325

 COORDINATES OF THE EQUIVALENT ATOMS (FRACTIONAL UNITS)

 N. ATOM EQUIV AT. N.          X                  Y                  Z

   1   1   1    5 B     4.59612820000E-01 -8.08485500000E-02 -4.98781300000E-01

   2   2   1    5 B    -3.81331530000E-01  7.82111000000E-02 -4.98781280000E-01

   3   3   1    5 B     4.60400110000E-01  7.97771800000E-02  4.98643570000E-01

   4   4   1    5 B     7.31875200000E-02  3.05466450000E-01 -4.98781290000E-01

   5   5   1    5 B     2.32295490000E-01  3.05445680000E-01 -4.98781290000E-01

   6   6   1    5 B     2.33067340000E-01  4.66168160000E-01  4.98643570000E-01

   7   7   1    1 H    -2.49383030000E-01  4.04575000000E-03  4.95879920000E-01

   8   8   1    1 H    -5.55411800000E-02  3.86671090000E-01  4.95063530000E-01

   9   9   1    1 H    -2.49165660000E-01  2.89767330000E-01  4.94937880000E-01

  10  10   1    1 H    -5.54105400000E-02  1.01360570000E-01  4.94969220000E-01

  11  11   1    1 H    -4.63923440000E-01 -2.12939060000E-01 -4.95892050000E-01

  12  12   1    1 H     1.53722920000E-01 -4.07007850000E-01 -4.95075600000E-01

  13  13   1    1 H     2.50624540000E-01 -2.13472470000E-01 -4.94949880000E-01

  14  14   1    1 H     4.39076460000E-01 -4.07155740000E-01 -4.94981430000E-01

  15  15   1    1 H    -4.61353930000E-01  2.89169880000E-01  4.95879970000E-01

  16  16   1    1 H     1.56786140000E-01  1.01227010000E-01  4.95063480000E-01

  17  17   1    1 H     2.53703520000E-01  4.51821000000E-03  4.94937780000E-01

  18  18   1    1 H     4.42144130000E-01  3.86633500000E-01  4.94969320000E-01

  19  19   1    6 C    -2.61356890000E-01  1.39418140000E-01  4.98549340000E-01

  20  20   1    6 C    -2.05976160000E-01  8.78240900000E-02  4.96005560000E-01

  21  21   1    6 C    -9.90096100000E-02  3.02358870000E-01  4.95785810000E-01

  22  22   1    6 C    -2.06148330000E-01  2.48460280000E-01  4.96445290000E-01

  23  23   1    6 C    -9.86528100000E-02  1.42060760000E-01  4.94749390000E-01

  24  24   1    6 C    -4.45742000000E-02  2.48784430000E-01  4.96476670000E-01

  25  25   1    6 C     3.99904120000E-01 -2.00133480000E-01 -4.98561440000E-01

  26  26   1    6 C     4.52260640000E-01 -2.56309980000E-01 -4.96017700000E-01

  27  27   1    6 C     2.37813880000E-01 -3.63337920000E-01 -4.95797870000E-01

  28  28   1    6 C     2.91505500000E-01 -2.55992760000E-01 -4.96457340000E-01

  29  29   1    6 C     3.98413510000E-01 -3.64014690000E-01 -4.94761560000E-01

  30  30   1    6 C     2.91155500000E-01 -4.17584230000E-01 -4.96488780000E-01

  31  31   1    6 C     4.00797670000E-01  1.39349000000E-01  4.98549340000E-01

  32  32   1    6 C     4.54744930000E-01  2.48664210000E-01  4.96005610000E-01

  33  33   1    6 C     2.40425660000E-01  1.41345630000E-01  4.95785760000E-01

  34  34   1    6 C     2.93686840000E-01  8.74581300000E-02  4.96445220000E-01

  35  35   1    6 C     4.01663790000E-01  3.02908750000E-01  4.94749460000E-01

  36  36   1    6 C     2.93349890000E-01  2.48707030000E-01  4.96476670000E-01

  37  37   1    8 O     4.07248150000E-01 -2.66376400000E-02  4.99334450000E-01

  38  38   1    8 O    -4.35476840000E-01 -2.99702900000E-02 -4.95232610000E-01

  39  39   1    8 O    -4.32959630000E-01  1.34014320000E-01  4.96570900000E-01

  40  40   1    8 O     1.26835970000E-01  4.12642830000E-01  4.99334470000E-01

  41  41   1    8 O     1.25185430000E-01  2.50346990000E-01 -4.95232620000E-01

  42  42   1    8 O     2.86624790000E-01  4.14326300000E-01  4.96570880000E-01

 NUMBER OF SYMMETRY OPERATORS         :    1
 *******************************************************************************
 * GEOMETRY EDITING - INPUT COORDINATES ARE GIVEN IN ANGSTROM         
 *******************************************************************************

 GCALCO - MAX INDICES DIRECT LATTICE VECTOR     9    15    23
 NO.OF VECTORS CREATED 6999 STARS 3500 RMAX   216.00188 BOHR

 GEOMETRY FOR WAVE FUNCTION - DIMENSIONALITY OF THE SYSTEM    3
 (NON PERIODIC DIRECTION: LATTICE PARAMETER FORMALLY SET TO 500)
 *******************************************************************************
 LATTICE PARAMETERS (ANGSTROMS AND DEGREES) - BOHR = 0.5291772083 ANGSTROM
 PRIMITIVE CELL - CENTRING CODE 1/0 VOLUME=   762.387325 - DENSITY  0.850 g/cm^3
         A              B              C           ALPHA      BETA       GAMMA 
    15.02361100    15.02391600     8.90000000    38.878477  89.999975 119.995964
 *******************************************************************************
 ATOMS IN THE ASYMMETRIC UNIT   42 - ATOMS IN THE UNIT CELL:   42
     ATOM                 X/A                 Y/B                 Z/C    
 *******************************************************************************
      1 T   5 B     4.596128200000E-01 -8.084855000000E-02 -4.987813000000E-01
      2 T   5 B    -3.813315300000E-01  7.821110000000E-02 -4.987812800000E-01
      3 T   5 B     4.604001100000E-01  7.977718000000E-02  4.986435700000E-01
      4 T   5 B     7.318752000000E-02  3.054664500000E-01 -4.987812900000E-01
      5 T   5 B     2.322954900000E-01  3.054456800000E-01 -4.987812900000E-01
      6 T   5 B     2.330673400000E-01  4.661681600000E-01  4.986435700000E-01
      7 T   1 H    -2.493830300000E-01  4.045750000000E-03  4.958799200000E-01
      8 T   1 H    -5.554118000000E-02  3.866710900000E-01  4.950635300000E-01
      9 T   1 H    -2.491656600000E-01  2.897673300000E-01  4.949378800000E-01
     10 T   1 H    -5.541054000000E-02  1.013605700000E-01  4.949692200000E-01
     11 T   1 H    -4.639234400000E-01 -2.129390600000E-01 -4.958920500000E-01
     12 T   1 H     1.537229200000E-01 -4.070078500000E-01 -4.950756000000E-01
     13 T   1 H     2.506245400000E-01 -2.134724700000E-01 -4.949498800000E-01
     14 T   1 H     4.390764600000E-01 -4.071557400000E-01 -4.949814300000E-01
     15 T   1 H    -4.613539300000E-01  2.891698800000E-01  4.958799700000E-01
     16 T   1 H     1.567861400000E-01  1.012270100000E-01  4.950634800000E-01
     17 T   1 H     2.537035200000E-01  4.518210000000E-03  4.949377800000E-01
     18 T   1 H     4.421441300000E-01  3.866335000000E-01  4.949693200000E-01
     19 T   6 C    -2.613568900000E-01  1.394181400000E-01  4.985493400000E-01
     20 T   6 C    -2.059761600000E-01  8.782409000000E-02  4.960055600000E-01
     21 T   6 C    -9.900961000000E-02  3.023588700000E-01  4.957858100000E-01
     22 T   6 C    -2.061483300000E-01  2.484602800000E-01  4.964452900000E-01
     23 T   6 C    -9.865281000000E-02  1.420607600000E-01  4.947493900000E-01
     24 T   6 C    -4.457420000000E-02  2.487844300000E-01  4.964766700000E-01
     25 T   6 C     3.999041200000E-01 -2.001334800000E-01 -4.985614400000E-01
     26 T   6 C     4.522606400000E-01 -2.563099800000E-01 -4.960177000000E-01
     27 T   6 C     2.378138800000E-01 -3.633379200000E-01 -4.957978700000E-01
     28 T   6 C     2.915055000000E-01 -2.559927600000E-01 -4.964573400000E-01
     29 T   6 C     3.984135100000E-01 -3.640146900000E-01 -4.947615600000E-01
     30 T   6 C     2.911555000000E-01 -4.175842300000E-01 -4.964887800000E-01
     31 T   6 C     4.007976700000E-01  1.393490000000E-01  4.985493400000E-01
     32 T   6 C     4.547449300000E-01  2.486642100000E-01  4.960056100000E-01
     33 T   6 C     2.404256600000E-01  1.413456300000E-01  4.957857600000E-01
     34 T   6 C     2.936868400000E-01  8.745813000000E-02  4.964452200000E-01
     35 T   6 C     4.016637900000E-01  3.029087500000E-01  4.947494600000E-01
     36 T   6 C     2.933498900000E-01  2.487070300000E-01  4.964766700000E-01
     37 T   8 O     4.072481500000E-01 -2.663764000000E-02  4.993344500000E-01
     38 T   8 O    -4.354768400000E-01 -2.997029000000E-02 -4.952326100000E-01
     39 T   8 O    -4.329596300000E-01  1.340143200000E-01  4.965709000000E-01
     40 T   8 O     1.268359700000E-01  4.126428300000E-01  4.993344700000E-01
     41 T   8 O     1.251854300000E-01  2.503469900000E-01 -4.952326200000E-01
     42 T   8 O     2.866247900000E-01  4.143263000000E-01  4.965708800000E-01

 T = ATOM BELONGING TO THE ASYMMETRIC UNIT

 ****    1 SYMMOPS - TRANSLATORS IN FRACTIONAL UNITS
 **** MATRICES AND TRANSLATORS IN THE CRYSTALLOGRAPHIC REFERENCE FRAME
   V INV                    ROTATION MATRICES                   TRANSLATORS
   1   1  1.00 -0.00  0.00  0.00  1.00  0.00  0.00 -0.00  1.00  0.00  0.00  0.00

 DIRECT LATTICE VECTORS CARTESIAN COMPONENTS (ANGSTROM)
          X                    Y                    Z
   0.130113578931E+02  -0.751088897922E+01   0.000000000000E+00
   0.000000000000E+00   0.150239160000E+02   0.000000000000E+00
   0.399950374027E+01   0.692846297705E+01   0.390004751347E+01


 CARTESIAN COORDINATES - PRIMITIVE CELL
 *******************************************************************************
 *      ATOM          X(ANGSTROM)         Y(ANGSTROM)         Z(ANGSTROM)
 *******************************************************************************
    1     5 B    -1.419452193765E-02 -2.709743610436E-02 -5.845318282294E+00
    2     5 B     2.055335545115E+00  1.167952194387E+00 -5.845318204293E+00
    3     5 B    -1.027096724299E+00  6.108210085564E-01  5.844781128750E+00
    4     5 B    -1.042608618906E+00  5.838112468261E-01 -1.945270729828E+00
    5     5 B     1.027602122402E+00 -6.115430982877E-01 -1.945270729828E+00
    6     5 B     1.027345656930E+00  1.779498898735E+00 -1.955313898181E+00
    7     1 H    -5.261042001289E+00 -1.558906050478E+00 -1.966092264492E+00
    8     1 H    -2.742161471146E+00  2.728043974388E+00 -1.969276224282E+00
    9     1 H    -1.262477674659E+00 -5.369861587325E+00  1.930281248214E+00
   10     1 H    -2.740838860548E+00 -1.560071957888E+00 -1.969644037763E+00
   11     1 H    -4.020092281294E+00  3.777992170146E+00  1.966044956916E+00
   12     1 H     2.008721456998E-02  4.324355499140E+00 -1.930818362757E+00
   13     1 H     5.280915430686E+00 -1.590384495027E+00  1.969719464681E+00
   14     1 H     3.733300882828E+00  2.179527306795E+00 -1.930451095283E+00
   15     1 H    -4.019567303859E+00 -3.778587851591E+00  1.933955443976E+00
   16     1 H     2.050507987266E-02 -3.155211180427E+00 -1.969276419284E+00
   17     1 H     1.281029059490E+00 -5.336962657220E+00 -1.969766655256E+00
   18     1 H     3.733023422134E+00 -1.011232615108E+00 -1.969643647758E+00
   19     6 C    -5.406161823836E+00  5.833466763546E-01 -1.955681399659E+00
   20     6 C    -4.695757183052E+00 -6.253809971150E-01 -1.965602262522E+00
   21     6 C    -3.304856009363E+00  1.792835105405E+00 -1.966459297964E+00
   22     6 C    -4.696238646761E+00  1.792343430786E+00 -1.963887294629E+00
   23     6 C    -3.304358722534E+00 -6.253309169807E-01 -1.970501385207E+00
   24     6 C    -2.593814310644E+00  5.838654959817E-01 -1.963764911138E+00
   25     6 C    -7.902064560745E-01 -1.369235495827E+00 -5.844460817847E+00
   26     6 C     3.900700401593E+00  4.339616663400E+00 -1.934492597520E+00
   27     6 C     1.111336069134E+00  4.343846773516E+00 -1.933635250075E+00
   28     6 C     1.807299400081E+00  5.548750529948E+00 -1.936207214409E+00
   29     6 C     3.205100058278E+00  3.134613082319E+00 -1.929593591836E+00
   30     6 C     1.802619680420E+00  3.123424838619E+00 -1.936329831903E+00
   31     6 C     3.209368136843E+00 -4.391061464440E+00 -1.955681399659E+00
   32     6 C     3.901121586404E+00 -3.171534951599E+00 -1.965602067520E+00
   33     6 C     1.111657570158E+00 -3.175675262267E+00 -1.966459492966E+00
   34     6 C     1.807295357681E+00 -4.380746301404E+00 -1.963887567633E+00
   35     6 C     3.205439899869E+00 -1.966586178519E+00 -1.970501112204E+00
   36     6 C     1.803036965031E+00 -1.955407678509E+00 -1.963764911138E+00
   37     8 O    -1.715912721433E+00 -5.839411011894E-01  5.847475593576E+00
   38     8 O     1.365024457413E+00 -2.608968086805E-02 -5.831478222683E+00
   39     8 O     3.521482129518E-01  6.103516730633E-01  5.836697617270E+00
   40     8 O    -3.521054604756E-01  1.778017738193E+00 -1.952619355354E+00
   41     8 O    -3.518522832668E-01 -6.102625906278E-01 -1.931430748218E+00
   42     8 O     1.715911075312E+00  5.840065319230E-01 -1.963397487662E+00

 *******************************************************************************
 STARTING BASIS SET HANDLING 
 *******************************************************************************

 Loading internal basis set: SOLDEF2MSVP         

 Please cite in your publication:
 L. Dona', J. G. Brandenburg and B. Civalleri, J. Chem. Phys., 151, 121101 (2019
 )                                                                              
                                                                                
                    

 *******************************************************************************
 LOCAL ATOMIC FUNCTIONS BASIS SET
 *******************************************************************************
   ATOM   X(AU)   Y(AU)   Z(AU)  N. TYPE  EXPONENT  S COEF   P COEF   D/F/G COEF
 *******************************************************************************
   1 B   -0.027  -0.051 -11.046
                                  1 S  
                                         2.410E+03 1.755E-03 0.000E+00 0.000E+00
                                         3.619E+02 1.344E-02 0.000E+00 0.000E+00
                                         8.231E+01 6.637E-02 0.000E+00 0.000E+00
                                         2.311E+01 2.303E-01 0.000E+00 0.000E+00
                                         7.252E+00 5.150E-01 0.000E+00 0.000E+00
                                  2 S  
                                         2.367E+00 1.000E+00 0.000E+00 0.000E+00
                                  3 S  
                                         5.533E-01 1.000E+00 0.000E+00 0.000E+00
                                  4 S  
                                         1.716E-01 1.000E+00 0.000E+00 0.000E+00
                           5-     7 P  
                                         6.002E+00 0.000E+00-3.555E-02 0.000E+00
                                         1.240E+00 0.000E+00-1.983E-01 0.000E+00
                                         3.367E-01 0.000E+00-5.048E-01 0.000E+00
                           8-    10 P  
                                         1.256E-01 0.000E+00 1.000E+00 0.000E+00
                          11-    15 D  
                                         8.880E-01 0.000E+00 0.000E+00 1.000E+00
   2 B    3.884   2.207 -11.046
   3 B   -1.941   1.154  11.045
   4 B   -1.970   1.103  -3.676
   5 B    1.942  -1.156  -3.676
   6 B    1.941   3.363  -3.695
   7 H   -9.942  -2.946  -3.715
                                 91 S  
                                         1.874E+01 1.968E-02 0.000E+00 0.000E+00
                                         2.826E+00 1.380E-01 0.000E+00 0.000E+00
                                         6.401E-01 4.783E-01 0.000E+00 0.000E+00
                                 92 S  
                                         1.756E-01 1.000E+00 0.000E+00 0.000E+00
   8 H   -5.182   5.155  -3.721
   9 H   -2.386 -10.148   3.648
  10 H   -5.179  -2.948  -3.722
  11 H   -7.597   7.139   3.715
  12 H    0.038   8.172  -3.649
  13 H    9.979  -3.005   3.722
  14 H    7.055   4.119  -3.648
  15 H   -7.596  -7.140   3.655
  16 H    0.039  -5.962  -3.721
  17 H    2.421 -10.085  -3.722
  18 H    7.054  -1.911  -3.722
  19 C  -10.216   1.102  -3.696
                                115 S  
                                         3.624E+03 1.634E-03 0.000E+00 0.000E+00
                                         5.440E+02 1.252E-02 0.000E+00 0.000E+00
                                         1.237E+02 6.211E-02 0.000E+00 0.000E+00
                                         3.476E+01 2.182E-01 0.000E+00 0.000E+00
                                         1.093E+01 4.980E-01 0.000E+00 0.000E+00
                                116 S  
                                         3.574E+00 1.000E+00 0.000E+00 0.000E+00
                                117 S  
                                         7.742E-01 1.000E+00 0.000E+00 0.000E+00
                                118 S  
                                         2.330E-01 1.000E+00 0.000E+00 0.000E+00
                         119-   121 P  
                                         9.443E+00 0.000E+00 3.790E-02 0.000E+00
                                         2.002E+00 0.000E+00 2.082E-01 0.000E+00
                                         5.463E-01 0.000E+00 5.047E-01 0.000E+00
                         122-   124 P  
                                         1.820E-01 0.000E+00 1.000E+00 0.000E+00
                         125-   129 D  
                                         8.880E-01 0.000E+00 0.000E+00 1.000E+00
  20 C   -8.874  -1.182  -3.714
  21 C   -6.245   3.388  -3.716
  22 C   -8.875   3.387  -3.711
  23 C   -6.244  -1.182  -3.724
  24 C   -4.902   1.103  -3.711
  25 C   -1.493  -2.587 -11.044
  26 C    7.371   8.201  -3.656
  27 C    2.100   8.209  -3.654
  28 C    3.415  10.486  -3.659
  29 C    6.057   5.924  -3.646
  30 C    3.406   5.902  -3.659
  31 C    6.065  -8.298  -3.696
  32 C    7.372  -5.993  -3.714
  33 C    2.101  -6.001  -3.716
  34 C    3.415  -8.278  -3.711
  35 C    6.057  -3.716  -3.724
  36 C    3.407  -3.695  -3.711
  37 O   -3.243  -1.103  11.050
                                385 S  
                                         6.773E+03 1.727E-03 0.000E+00 0.000E+00
                                         1.017E+03 1.325E-02 0.000E+00 0.000E+00
                                         2.313E+02 6.603E-02 0.000E+00 0.000E+00
                                         6.501E+01 2.353E-01 0.000E+00 0.000E+00
                                         2.050E+01 5.498E-01 0.000E+00 0.000E+00
                                386 S  
                                         6.716E+00 1.000E+00 0.000E+00 0.000E+00
                                387 S  
                                         1.147E+00 1.000E+00 0.000E+00 0.000E+00
                                388 S  
                                         3.342E-01 1.000E+00 0.000E+00 0.000E+00
                         389-   391 P  
                                         1.769E+01 0.000E+00 4.359E-02 0.000E+00
                                         3.854E+00 0.000E+00 2.318E-01 0.000E+00
                                         1.047E+00 0.000E+00 5.146E-01 0.000E+00
                         392-   394 P  
                                         2.759E-01 0.000E+00 1.000E+00 0.000E+00
                         395-   399 D  
                                         8.000E-01 0.000E+00 0.000E+00 1.000E+00
  38 O    2.580  -0.049 -11.020
  39 O    0.665   1.153  11.030
  40 O   -0.665   3.360  -3.690
  41 O   -0.665  -1.153  -3.650
  42 O    3.243   1.104  -3.710

 *******************************************************************************
 FINISHED BASIS SET HANDLING 
 *******************************************************************************

 INFORMATION **** SET_MPP **** PCRYSTAL CALCULATION
 INFORMATION **** READM2 **** NEW DEFAULT: FOCK/KS MATRIX MIXING SET TO 30 %
 INFORMATION **** READM2 **** NEW DEFAULT: FULL DIRECT SCF MODE
 INFORMATION **** READM2 **** NEW DEFAULT: COULOMB BIPOLAR BUFFER SET TO 32 Mb
 INFORMATION **** READM2 **** NEW DEFAULT: EXCHANGE BIPOLAR BUFFER SET TO 32 Mb

 *******************************************************************************
 NEW DEFAULT: DFT INTEGRATION GRID INCREASED TO XLGRID
 NEW DEFAULT: DIIS ACCELERATOR ACTIVE
 USE KEYWORD NODIIS TO TURN IT OFF
 *******************************************************************************

 WARNING **** RDDFTP **** HSEsol-HJS ACTIVE
 RANGE SEPARATION - OMEGA:   0.110000000000000     
 WARNING **** RDDFTP **** HSEsol-3c has to be combined with sol-def2-mSVP basis set
 *******************************************************************************
 N. OF ATOMS PER CELL        42  COULOMB OVERLAP TOL         (T1) 10**   -6
 NUMBER OF SHELLS           234  COULOMB PENETRATION TOL     (T2) 10**   -6
 NUMBER OF AO               474  EXCHANGE OVERLAP TOL        (T3) 10**   -6
 N. OF ELECTRONS PER CELL   198  EXCHANGE PSEUDO OVP (F(G))  (T4) 10**   -6
 CORE ELECTRONS PER CELL     60  EXCHANGE PSEUDO OVP (P(G))  (T5) 10**  -12
 N. OF SYMMETRY OPERATORS     1  POLE ORDER IN MONO ZONE                  4
 *******************************************************************************
 TYPE OF CALCULATION :  RESTRICTED CLOSED SHELL
 KOHN-SHAM HAMILTONIAN

 (EXCHANGE)[CORRELATION] FUNCTIONAL:(HSEsol GGA)[PBEsol]

 RANGE-SEPARATED HYBRID FUNCTIONAL 
 OMEGA (SHORT-RANGE)[LONG-RANGE]:(    0.1100)[    0.0000]

 HYBRID EXCHANGE - PERCENTAGE OF FOCK EXCHANGE    25.0000

 CAPPA:IS1  2;IS2  2;IS3  8; K PTS MONK NET  20; SYMMOPS:K SPACE   2;G SPACE   1

 *******************************************************************************
 MAX NUMBER OF SCF CYCLES      50  CONVERGENCE ON DELTAP        10**-16
 WEIGHT OF F(I) IN F(I+1)      30% CONVERGENCE ON ENERGY        10**- 6
 SHRINK. FACT.(MONKH.)    2  2  8  NUMBER OF K POINTS IN THE IBZ     20
 SHRINKING FACTOR(GILAT NET)    8  NUMBER OF K POINTS(GILAT NET)   1028
 *******************************************************************************
 *** K POINTS COORDINATES (OBLIQUE COORDINATES IN UNITS OF IS =  2)
   1-R(  0  0  0)   2-R(  1  0  0)   3-R(  0  1  0)   4-R(  1  1  0)
   5-C(  0  0  1)   6-C(  1  0  1)   7-C(  0  1  1)   8-C(  1  1  1)
   9-C(  0  0  2)  10-C(  1  0  2)  11-C(  0  1  2)  12-C(  1  1  2)
  13-C(  0  0  3)  14-C(  1  0  3)  15-C(  0  1  3)  16-C(  1  1  3)
  17-R(  0  0  4)  18-R(  1  0  4)  19-R(  0  1  4)  20-R(  1  1  4)

 DIRECT LATTICE VECTORS COMPON. (A.U.)     RECIP. LATTICE VECTORS COMPON. (A.U.) 
        X            Y            Z              X            Y            Z
   24.5879030  -14.1935232    0.0000000      0.2555397    0.0000000   -0.2620563
    0.0000000   28.3910867    0.0000000      0.1277517    0.2213084   -0.5241654
    7.5579667   13.0928976    7.3700217      0.0000000    0.0000000    0.8525328

 DISK SPACE FOR EIGENVECTORS (FTN 10)     7189632 REALS

 SYMMETRY ADAPTION OF THE BLOCH FUNCTIONS DISABLED
 TTTTTTTTTTTTTTTTTTTTTTTTTTTTTT gordsh1     TELAPSE        0.04 TCPU        0.04

 MATRIX SIZE: P(G)  300738, F(G)   58725, P(G) IRR  151428, F(G) IRR   59205
 MAX G-VECTOR INDEX FOR 1- AND 2-ELECTRON INTEGRALS  55

 TTTTTTTTTTTTTTTTTTTTTTTTTTTTTT INPUT       TELAPSE        0.40 TCPU        0.40

 NEIGHBORS OF THE NON-EQUIVALENT ATOMS

 N = NUMBER OF NEIGHBORS AT DISTANCE R
    ATOM  N     R/ANG      R/AU   NEIGHBORS (ATOM LABELS AND CELL INDICES)
   1 B    1     1.3791     2.6061   37 O    1 2-3
   1 B    1     1.3793     2.6065   38 O    0 0 0
   1 B    1     1.5503     2.9297   25 C    0 0 0
   1 B    1     2.3895     4.5155    3 B    1 2-3
   1 B    1     2.3898     4.5160    2 B    0 0 0
   1 B    1     2.5632     4.8437   26 C    0 0-1

   2 B    1     1.3793     2.6065   39 O    1 2-3
   2 B    1     1.3793     2.6065   38 O    0 0 0
   2 B    1     1.5504     2.9298   19 C    1 1-1
   2 B    1     2.3895     4.5156    3 B    1 2-3
   2 B    1     2.3898     4.5160    1 B    0 0 0
   2 B    1     2.5634     4.8440   22 C    1 1-1

   3 B    1     1.3791     2.6061   37 O    0 0 0
   3 B    1     1.3793     2.6064   39 O    0 0 0
   3 B    1     1.5502     2.9294   31 C   -1-1 2
   3 B    1     2.3895     4.5155    1 B   -1-2 3
   3 B    1     2.3895     4.5156    2 B   -1-2 3
   3 B    1     2.5629     4.8433   32 C   -1-1 2

   4 B    1     1.3795     2.6068   40 O    0 0 0
   4 B    1     1.3795     2.6070   41 O    0 0 0
   4 B    1     1.5513     2.9316   24 C    0 0 0
   4 B    1     2.3905     4.5174    6 B    0 0 0
   4 B    1     2.3905     4.5175    5 B    0 0 0
   4 B    1     2.5648     4.8468   23 C    0 0 0

   5 B    1     1.3795     2.6069   41 O    0 0 0
   5 B    1     1.3797     2.6072   42 O    0 0 0
   5 B    1     1.5516     2.9322   36 C    0 0 0
   5 B    1     2.3905     4.5175    4 B    0 0 0
   5 B    1     2.3911     4.5185    6 B    0 0 0
   5 B    1     2.5651     4.8473   35 C    0 0 0

   6 B    1     1.3795     2.6068   40 O    0 0 0
   6 B    1     1.3796     2.6071   42 O    0 0 0
   6 B    1     1.5516     2.9322   30 C    0 0 0
   6 B    1     2.3905     4.5174    4 B    0 0 0
   6 B    1     2.3911     4.5185    5 B    0 0 0
   6 B    1     2.5651     4.8473   29 C    0 0 0

   7 H    1     1.0913     2.0623   20 C    0 0 0
   7 H    1     2.1472     4.0576   19 C    0 0 0
   7 H    1     2.1680     4.0969   23 C    0 0 0
   7 H    1     2.5202     4.7625   10 H    0 0 0
   7 H    1     2.5676     4.8520   38 O   -1-1 1
   7 H    1     2.7321     5.1630    2 B   -1-1 1

   8 H    1     1.0914     2.0625   21 C    0 0 0
   8 H    1     2.1493     4.0616   24 C    0 0 0
   8 H    1     2.1666     4.0942   22 C    0 0 0
   8 H    1     2.5198     4.7618    9 H    0 1-1
   8 H    1     2.5720     4.8604   40 O    0 0 0
   8 H    1     2.7362     5.1707    4 B    0 0 0

   9 H    1     1.0914     2.0624   22 C    0-1 1
   9 H    1     2.1471     4.0575   19 C    0-1 1
   9 H    1     2.1680     4.0970   21 C    0-1 1
   9 H    1     2.5198     4.7618    8 H    0-1 1
   9 H    1     2.5665     4.8500   39 O    0 0-1
   9 H    1     2.7315     5.1618    2 B   -1-2 2

  10 H    1     1.0915     2.0626   23 C    0 0 0
  10 H    1     2.1490     4.0610   24 C    0 0 0
  10 H    1     2.1669     4.0948   20 C    0 0 0
  10 H    1     2.5202     4.7625    7 H    0 0 0
  10 H    1     2.5712     4.8588   41 O    0 0 0
  10 H    1     2.7351     5.1686    4 B    0 0 0

  11 H    1     1.0913     2.0623   26 C   -1-1 1
  11 H    1     2.1469     4.0571   25 C   -1-1 2
  11 H    1     2.1680     4.0968   29 C   -1-1 1
  11 H    1     2.5198     4.7617   14 H   -1-1 1
  11 H    1     2.5670     4.8510   38 O   -1-1 2
  11 H    1     2.7310     5.1609    1 B   -1-1 2

  12 H    1     1.0914     2.0625   27 C    0 0 0
  12 H    1     2.1493     4.0617   30 C    0 0 0
  12 H    1     2.1664     4.0939   28 C    0 0 0
  12 H    1     2.5192     4.7606   13 H    0 1-1
  12 H    1     2.5735     4.8632   40 O    0 0 0
  12 H    1     2.7371     5.1723    6 B    0 0 0

  13 H    1     1.0914     2.0624   28 C    0-1 1
  13 H    1     2.1475     4.0581   25 C    0-1 2
  13 H    1     2.1679     4.0967   27 C    0-1 1
  13 H    1     2.5192     4.7606   12 H    0-1 1
  13 H    1     2.5675     4.8519   37 O    1 1-1
  13 H    1     2.7328     5.1643    1 B    0-1 2

  14 H    1     1.0914     2.0625   29 C    0 0 0
  14 H    1     2.1491     4.0612   30 C    0 0 0
  14 H    1     2.1666     4.0942   26 C    0 0 0
  14 H    1     2.5198     4.7617   11 H    1 1-1
  14 H    1     2.5723     4.8609   42 O    0 0 0
  14 H    1     2.7355     5.1693    6 B    0 0 0

  15 H    1     1.0914     2.0624   32 C   -1-1 1
  15 H    1     2.1475     4.0582   31 C   -1-1 1
  15 H    1     2.1678     4.0966   35 C   -1-1 1
  15 H    1     2.5200     4.7621   18 H   -1-1 1
  15 H    1     2.5667     4.8503   39 O    0 0-1
  15 H    1     2.7315     5.1618    3 B    0 0-1

  16 H    1     1.0913     2.0623   33 C    0 0 0
  16 H    1     2.1487     4.0605   36 C    0 0 0
  16 H    1     2.1667     4.0945   34 C    0 0 0
  16 H    1     2.5197     4.7616   17 H    0 0 0
  16 H    1     2.5723     4.8610   41 O    0 0 0
  16 H    1     2.7359     5.1701    5 B    0 0 0

  17 H    1     1.0915     2.0626   34 C    0 0 0
  17 H    1     2.1479     4.0589   31 C    0 0 0
  17 H    1     2.1679     4.0968   33 C    0 0 0
  17 H    1     2.5197     4.7616   16 H    0 0 0
  17 H    1     2.5677     4.8522   37 O    1 1-2
  17 H    1     2.7331     5.1648    3 B    1 1-2

  18 H    1     1.0914     2.0624   35 C    0 0 0
  18 H    1     2.1486     4.0602   36 C    0 0 0
  18 H    1     2.1668     4.0947   32 C    0 0 0
  18 H    1     2.5200     4.7621   15 H    1 1-1
  18 H    1     2.5717     4.8598   42 O    0 0 0
  18 H    1     2.7349     5.1682    5 B    0 0 0

  19 C    1     1.4020     2.6495   22 C    0 0 0
  19 C    1     1.4021     2.6495   20 C    0 0 0
  19 C    1     1.5504     2.9298    2 B   -1-1 1
  19 C    1     2.1471     4.0575    9 H    0 1-1
  19 C    1     2.1472     4.0576    7 H    0 0 0
  19 C    1     2.4246     4.5817   21 C    0 0 0

  20 C    1     1.0913     2.0623    7 H    0 0 0
  20 C    1     1.3914     2.6294   23 C    0 0 0
  20 C    1     1.4021     2.6495   19 C    0 0 0
  20 C    1     2.1669     4.0948   10 H    0 0 0
  20 C    1     2.4177     4.5688   22 C    0 0 0
  20 C    1     2.4250     4.5825   24 C    0 0 0

  21 C    1     1.0914     2.0625    8 H    0 0 0
  21 C    1     1.3914     2.6293   22 C    0 0 0
  21 C    1     1.4026     2.6505   24 C    0 0 0
  21 C    1     2.1680     4.0970    9 H    0 1-1
  21 C    1     2.4182     4.5697   23 C    0 0 0
  21 C    1     2.4246     4.5817   19 C    0 0 0

  22 C    1     1.0914     2.0624    9 H    0 1-1
  22 C    1     1.3914     2.6293   21 C    0 0 0
  22 C    1     1.4020     2.6495   19 C    0 0 0
  22 C    1     2.1666     4.0942    8 H    0 0 0
  22 C    1     2.4177     4.5688   20 C    0 0 0
  22 C    1     2.4250     4.5826   24 C    0 0 0

  23 C    1     1.0915     2.0626   10 H    0 0 0
  23 C    1     1.3914     2.6294   20 C    0 0 0
  23 C    1     1.4025     2.6504   24 C    0 0 0
  23 C    1     2.1680     4.0969    7 H    0 0 0
  23 C    1     2.4182     4.5697   21 C    0 0 0
  23 C    1     2.4246     4.5818   19 C    0 0 0

  24 C    1     1.4025     2.6504   23 C    0 0 0
  24 C    1     1.4026     2.6505   21 C    0 0 0
  24 C    1     1.5513     2.9316    4 B    0 0 0
  24 C    1     2.1490     4.0610   10 H    0 0 0
  24 C    1     2.1493     4.0616    8 H    0 0 0
  24 C    1     2.4250     4.5825   20 C    0 0 0

  25 C    1     1.4020     2.6494   26 C    0 0-1
  25 C    1     1.4021     2.6495   28 C    0 0-1
  25 C    1     1.5503     2.9297    1 B    0 0 0
  25 C    1     2.1469     4.0571   11 H    1 1-2
  25 C    1     2.1475     4.0581   13 H    0 1-2
  25 C    1     2.4246     4.5818   27 C    0 0-1

  26 C    1     1.0913     2.0623   11 H    1 1-1
  26 C    1     1.3914     2.6293   29 C    0 0 0
  26 C    1     1.4020     2.6494   25 C    0 0 1
  26 C    1     2.1666     4.0942   14 H    0 0 0
  26 C    1     2.4175     4.5684   28 C    0 0 0
  26 C    1     2.4251     4.5828   30 C    0 0 0

  27 C    1     1.0914     2.0625   12 H    0 0 0
  27 C    1     1.3915     2.6295   28 C    0 0 0
  27 C    1     1.4026     2.6505   30 C    0 0 0
  27 C    1     2.1679     4.0967   13 H    0 1-1
  27 C    1     2.4179     4.5691   29 C    0 0 0
  27 C    1     2.4246     4.5818   25 C    0 0 1

  28 C    1     1.0914     2.0624   13 H    0 1-1
  28 C    1     1.3915     2.6295   27 C    0 0 0
  28 C    1     1.4021     2.6495   25 C    0 0 1
  28 C    1     2.1664     4.0939   12 H    0 0 0
  28 C    1     2.4175     4.5684   26 C    0 0 0
  28 C    1     2.4253     4.5832   30 C    0 0 0

  29 C    1     1.0914     2.0625   14 H    0 0 0
  29 C    1     1.3914     2.6293   26 C    0 0 0
  29 C    1     1.4025     2.6504   30 C    0 0 0
  29 C    1     2.1680     4.0968   11 H    1 1-1
  29 C    1     2.4179     4.5691   27 C    0 0 0
  29 C    1     2.4247     4.5819   25 C    0 0 1

  30 C    1     1.4025     2.6504   29 C    0 0 0
  30 C    1     1.4026     2.6505   27 C    0 0 0
  30 C    1     1.5516     2.9322    6 B    0 0 0
  30 C    1     2.1491     4.0612   14 H    0 0 0
  30 C    1     2.1493     4.0617   12 H    0 0 0
  30 C    1     2.4251     4.5828   26 C    0 0 0

  31 C    1     1.4021     2.6496   32 C    0 0 0
  31 C    1     1.4021     2.6497   34 C    0 0 0
  31 C    1     1.5502     2.9294    3 B    1 1-2
  31 C    1     2.1475     4.0582   15 H    1 1-1
  31 C    1     2.1479     4.0589   17 H    0 0 0
  31 C    1     2.4244     4.5814   33 C    0 0 0

  32 C    1     1.0914     2.0624   15 H    1 1-1
  32 C    1     1.3914     2.6293   35 C    0 0 0
  32 C    1     1.4021     2.6496   31 C    0 0 0
  32 C    1     2.1668     4.0947   18 H    0 0 0
  32 C    1     2.4179     4.5692   34 C    0 0 0
  32 C    1     2.4251     4.5827   36 C    0 0 0

  33 C    1     1.0913     2.0623   16 H    0 0 0
  33 C    1     1.3914     2.6294   34 C    0 0 0
  33 C    1     1.4025     2.6504   36 C    0 0 0
  33 C    1     2.1679     4.0968   17 H    0 0 0
  33 C    1     2.4178     4.5690   35 C    0 0 0
  33 C    1     2.4244     4.5814   31 C    0 0 0

  34 C    1     1.0915     2.0626   17 H    0 0 0
  34 C    1     1.3914     2.6294   33 C    0 0 0
  34 C    1     1.4021     2.6497   31 C    0 0 0
  34 C    1     2.1667     4.0945   16 H    0 0 0
  34 C    1     2.4179     4.5692   32 C    0 0 0
  34 C    1     2.4253     4.5832   36 C    0 0 0

  35 C    1     1.0914     2.0624   18 H    0 0 0
  35 C    1     1.3914     2.6293   32 C    0 0 0
  35 C    1     1.4025     2.6503   36 C    0 0 0
  35 C    1     2.1678     4.0966   15 H    1 1-1
  35 C    1     2.4178     4.5690   33 C    0 0 0
  35 C    1     2.4245     4.5817   31 C    0 0 0

  36 C    1     1.4025     2.6503   35 C    0 0 0
  36 C    1     1.4025     2.6504   33 C    0 0 0
  36 C    1     1.5516     2.9322    5 B    0 0 0
  36 C    1     2.1486     4.0602   18 H    0 0 0
  36 C    1     2.1487     4.0605   16 H    0 0 0
  36 C    1     2.4251     4.5827   32 C    0 0 0

  37 O    1     1.3791     2.6061    1 B   -1-2 3
  37 O    1     1.3791     2.6061    3 B    0 0 0
  37 O    1     2.3880     4.5126   38 O   -1-2 3
  37 O    1     2.3882     4.5130   39 O    0 0 0
  37 O    1     2.5383     4.7966   31 C   -1-1 2
  37 O    1     2.5384     4.7968   25 C   -1-2 3

  38 O    1     1.3793     2.6065    1 B    0 0 0
  38 O    1     1.3793     2.6065    2 B    0 0 0
  38 O    1     2.3880     4.5126   37 O    1 2-3
  38 O    1     2.3882     4.5131   39 O    1 2-3
  38 O    1     2.5391     4.7981   19 C    1 1-1
  38 O    1     2.5395     4.7990   25 C    0 0 0

  39 O    1     1.3793     2.6064    3 B    0 0 0
  39 O    1     1.3793     2.6065    2 B   -1-2 3
  39 O    1     2.3882     4.5130   37 O    0 0 0
  39 O    1     2.3882     4.5131   38 O   -1-2 3
  39 O    1     2.5390     4.7980   19 C    0-1 2
  39 O    1     2.5391     4.7982   31 C   -1-1 2

  40 O    1     1.3795     2.6068    6 B    0 0 0
  40 O    1     1.3795     2.6068    4 B    0 0 0
  40 O    1     2.3880     4.5126   42 O    0 0 0
  40 O    1     2.3884     4.5134   41 O    0 0 0
  40 O    1     2.5400     4.7998   24 C    0 0 0
  40 O    1     2.5403     4.8005   30 C    0 0 0

  41 O    1     1.3795     2.6069    5 B    0 0 0
  41 O    1     1.3795     2.6070    4 B    0 0 0
  41 O    1     2.3881     4.5128   42 O    0 0 0
  41 O    1     2.3884     4.5134   40 O    0 0 0
  41 O    1     2.5404     4.8006   24 C    0 0 0
  41 O    1     2.5405     4.8008   36 C    0 0 0

  42 O    1     1.3796     2.6071    6 B    0 0 0
  42 O    1     1.3797     2.6072    5 B    0 0 0
  42 O    1     2.3880     4.5126   40 O    0 0 0
  42 O    1     2.3881     4.5128   41 O    0 0 0
  42 O    1     2.5409     4.8016   36 C    0 0 0
  42 O    1     2.5410     4.8019   30 C    0 0 0


 SYMMETRY ALLOWED INTERNAL DEGREE(S) OF FREEDOM: 123
 TTTTTTTTTTTTTTTTTTTTTTTTTTTTTT SYMM        TELAPSE        0.41 TCPU        0.40
 TTTTTTTTTTTTTTTTTTTTTTTTTTTTTT INT_SCREEN  TELAPSE        0.44 TCPU        0.44

 DFT PARAMETERS

     ATOM       ELECTRONS   NET CHARGE   R(ANGSTROM)
   1   5  B       5.0000      0.0000     0.89000000
   7   1  H       1.0000      0.0000     1.11000000
  19   6  C       6.0000      0.0000     0.77000000
  37   8  O       8.0000      0.0000     0.74000000

 SIZE OF GRID=    1321214
 TTTTTTTTTTTTTTTTTTTTTTTTTTTTTT MAKE_GRID2  TELAPSE        8.47 TCPU        8.46
 BECKE WEIGHT FUNCTION
 RADSAFE =     2.00
 TOLERANCES - DENSITY:10**- 6; POTENTIAL:10**- 9; GRID WGT:10**-14

 RADIAL INTEGRATION  - INTERVALS (POINTS,UPPER LIMIT):            1( 75,  4.0*R)

 ANGULAR INTEGRATION - INTERVALS (ACCURACY LEVEL [N. POINTS] UPPER LIMIT):
  1(  4[  86]   0.2)  2(  8[ 194]   0.5)  3( 12[ 350]   0.9)  4( 16[ 974]   3.5)
  5( 12[ 350]9999.0)
 TTTTTTTTTTTTTTTTTTTTTTTTTTTTTT INT_CALC    TELAPSE        8.54 TCPU        8.53
 EEEEEEEEEE INT_CALC TERMINATION  DATE 19 02 2026 TIME 19:03:48.5

 *******************************************************************************
 cof-1_z39_L080_incl                                                             
 CRYSTAL - SCF - TYPE OF CALCULATION :  RESTRICTED CLOSED SHELL
 *******************************************************************************

 CAPPA:IS1  2;IS2  2;IS3  8; K PTS MONK NET  20; SYMMOPS:K SPACE   2;G SPACE   1

 TTTTTTTTTTTTTTTTTTTTTTTTTTTTTT SDIK        TELAPSE        9.15 TCPU       16.55

 AAAAAAAAAAAAAAAAAAAAAAAAAAAAAAAAAAAAAAAAAAAAAAAAAAAAAAAAAAAAAAAAAAAAAAAAAAAAAAA
         ATOMIC WAVEFUNCTION(S)


 NUCLEAR CHARGE  5.0  SYMMETRY SPECIES            S    P
 N. ELECTRONS    5.0  NUMBER OF PRIMITIVE GTOS    8    4
                      NUMBER OF CONTRACTED GTOS   4    2
                      NUMBER OF CLOSED SHELLS     2    0
                      OPEN SHELL OCCUPATION       0    1

  ZNUC  SCFIT    TOTAL HF ENERGY   KINETIC ENERGY   VIRIAL THEOREM ACCURACY
   5.0    11    -2.451164084E+01  2.462155050E+01 -1.995536038E+00  1.5E-06

 NUCLEAR CHARGE  1.0  SYMMETRY SPECIES            S
 N. ELECTRONS    1.0  NUMBER OF PRIMITIVE GTOS    4
                      NUMBER OF CONTRACTED GTOS   2
                      NUMBER OF CLOSED SHELLS     0
                      OPEN SHELL OCCUPATION       1

  ZNUC  SCFIT    TOTAL HF ENERGY   KINETIC ENERGY   VIRIAL THEOREM ACCURACY
   1.0     1    -4.977266687E-01  5.190767460E-01 -1.958869132E+00  0.0E+00

 NUCLEAR CHARGE  6.0  SYMMETRY SPECIES            S    P
 N. ELECTRONS    6.0  NUMBER OF PRIMITIVE GTOS    8    4
                      NUMBER OF CONTRACTED GTOS   4    2
                      NUMBER OF CLOSED SHELLS     2    0
                      OPEN SHELL OCCUPATION       0    2

  ZNUC  SCFIT    TOTAL HF ENERGY   KINETIC ENERGY   VIRIAL THEOREM ACCURACY
   6.0     9    -3.766704647E+01  3.775180683E+01 -1.997754800E+00  1.1E-06

 NUCLEAR CHARGE  8.0  SYMMETRY SPECIES            S    P
 N. ELECTRONS    8.0  NUMBER OF PRIMITIVE GTOS    8    4
                      NUMBER OF CONTRACTED GTOS   4    2
                      NUMBER OF CLOSED SHELLS     2    0
                      OPEN SHELL OCCUPATION       0    4

  ZNUC  SCFIT    TOTAL HF ENERGY   KINETIC ENERGY   VIRIAL THEOREM ACCURACY
   8.0    12    -7.477373220E+01  7.477365593E+01 -2.000001020E+00  3.8E-06

 AAAAAAAAAAAAAAAAAAAAAAAAAAAAAAAAAAAAAAAAAAAAAAAAAAAAAAAAAAAAAAAAAAAAAAAAAAAAAAA

 CHARGE NORMALIZATION FACTOR   1.00000000
 TOTAL ATOMIC CHARGES:
   5.0000000   5.0000000   5.0000000   5.0000000   5.0000000   5.0000000
   1.0000000   1.0000000   1.0000000   1.0000000   1.0000000   1.0000000
   1.0000000   1.0000000   1.0000000   1.0000000   1.0000000   1.0000000
   6.0000000   6.0000000   6.0000000   6.0000000   6.0000000   6.0000000
   6.0000000   6.0000000   6.0000000   6.0000000   6.0000000   6.0000000
   6.0000000   6.0000000   6.0000000   6.0000000   6.0000000   6.0000000
   8.0000000   8.0000000   8.0000000   8.0000000   8.0000000   8.0000000
 TTTTTTTTTTTTTTTTTTTTTTTTTTTTTT MOQGAD      TELAPSE        9.19 TCPU       17.77
 TTTTTTTTTTTTTTTTTTTTTTTTTTTTTT SHELLXN     TELAPSE       15.09 TCPU      205.88
 TTTTTTTTTTTTTTTTTTTTTTTTTTTTTT MONMO3      TELAPSE       15.23 TCPU      210.11
 NUMERICALLY INTEGRATED DENSITY    198.0000044586
 TTTTTTTTTTTTTTTTTTTTTTTTTTTTTT NUMDFT      TELAPSE       15.82 TCPU      229.13
 CYC   0 ETOT(AU) -1.295956107885E+03 DETOT -1.30E+03 tst  0.00E+00 PX  1.00E+00
 TTTTTTTTTTTTTTTTTTTTTTTTTTTTTT DIIS        TELAPSE       15.86 TCPU      230.27
 TTTTTTTTTTTTTTTTTTTTTTTTTTTTTT FDIK        TELAPSE       16.34 TCPU      245.77
 INSULATING STATE
 TOP OF VALENCE BANDS -    BAND     99; K    1; EIG -3.1164052E-01 AU
 BOTTOM OF VIRTUAL BANDS - BAND    100; K    1; EIG -1.5841382E-01 AU
 DIRECT ENERGY BAND GAP:   4.1695 eV
 TTTTTTTTTTTTTTTTTTTTTTTTTTTTTT PDIG        TELAPSE       16.68 TCPU      251.96
 CHARGE NORMALIZATION FACTOR   1.00000000
 TOTAL ATOMIC CHARGES:
   4.1555095   4.1615686   4.1619734   4.1614526   4.1611479   4.1548829
   0.7852633   0.7853853   0.7852606   0.7854134   0.7854231   0.7855727
   0.7854119   0.7855351   0.7852641   0.7854808   0.7852134   0.7853782
   6.0434271   6.2657625   6.2657291   6.2653502   6.2653338   6.0428606
   6.0458329   6.2658522   6.2659440   6.2657724   6.2659346   6.0445286
   6.0438650   6.2650950   6.2657075   6.2653723   6.2660043   6.0424295
   8.6943565   8.6945969   8.6943958   8.6948235   8.6947655   8.6951230
 TTTTTTTTTTTTTTTTTTTTTTTTTTTTTT MOQGAD      TELAPSE       16.72 TCPU      252.00
 TTTTTTTTTTTTTTTTTTTTTTTTTTTTTT SHELLXN     TELAPSE       22.84 TCPU      447.13
 TTTTTTTTTTTTTTTTTTTTTTTTTTTTTT MONMO3      TELAPSE       22.97 TCPU      451.23
 NUMERICALLY INTEGRATED DENSITY    198.0000191058
 TTTTTTTTTTTTTTTTTTTTTTTTTTTTTT NUMDFT      TELAPSE       23.57 TCPU      470.37
 CYC   1 ETOT(AU) -1.288813600332E+03 DETOT  7.14E+00 tst  0.00E+00 PX  1.00E+00
 TTTTTTTTTTTTTTTTTTTTTTTTTTTTTT DIIS        TELAPSE       23.61 TCPU      471.84
 DIIS TEST: 0.11156E+01 AT SCF   CYCLE   1 - MIX   30 %
 TTTTTTTTTTTTTTTTTTTTTTTTTTTTTT FDIK        TELAPSE       24.10 TCPU      487.57
 INSULATING STATE
 TOP OF VALENCE BANDS -    BAND     99; K    1; EIG -2.2317087E-01 AU
 BOTTOM OF VIRTUAL BANDS - BAND    100; K    1; EIG -8.3680721E-02 AU
 DIRECT ENERGY BAND GAP:   3.7957 eV
 TTTTTTTTTTTTTTTTTTTTTTTTTTTTTT PDIG        TELAPSE       24.44 TCPU      493.75
 CHARGE NORMALIZATION FACTOR   1.00000000
 TOTAL ATOMIC CHARGES:
   4.7132767   4.7085284   4.7091636   4.7090986   4.7084393   4.7135275
   0.9070724   0.9071792   0.9071502   0.9068266   0.9063649   0.9067237
   0.9063655   0.9066108   0.9070608   0.9068968   0.9071274   0.9071917
   5.8715119   6.1371280   6.1374697   6.1307792   6.1311299   5.8742792
   5.8793286   6.1285465   6.1298476   6.1290232   6.1298468   5.8828787
   5.8716697   6.1309220   6.1311199   6.1374356   6.1369565   5.8741026
   8.3363161   8.3368271   8.3327789   8.3363877   8.3321234   8.3369870
 TTTTTTTTTTTTTTTTTTTTTTTTTTTTTT MOQGAD      TELAPSE       24.48 TCPU      493.80
 TTTTTTTTTTTTTTTTTTTTTTTTTTTTTT SHELLXN     TELAPSE       30.59 TCPU      688.72
 TTTTTTTTTTTTTTTTTTTTTTTTTTTTTT MONMO3      TELAPSE       30.72 TCPU      692.88
 NUMERICALLY INTEGRATED DENSITY    198.0000190558
 TTTTTTTTTTTTTTTTTTTTTTTTTTTTTT NUMDFT      TELAPSE       31.33 TCPU      712.29
 CYC   2 ETOT(AU) -1.289008095411E+03 DETOT -1.94E-01 tst  3.67E-03 PX  1.59E-01
 TTTTTTTTTTTTTTTTTTTTTTTTTTTTTT DIIS        TELAPSE       31.38 TCPU      713.89
 DIIS TEST: 0.46378E+00 AT SCF   CYCLE   2 - DIIS ACTIVE - HISTORY:     2 CYCLES
 TTTTTTTTTTTTTTTTTTTTTTTTTTTTTT FDIK        TELAPSE       31.88 TCPU      729.66
 INSULATING STATE
 TOP OF VALENCE BANDS -    BAND     99; K    1; EIG -2.3647463E-01 AU
 BOTTOM OF VIRTUAL BANDS - BAND    100; K    1; EIG -7.8006787E-02 AU
 DIRECT ENERGY BAND GAP:   4.3121 eV
 TTTTTTTTTTTTTTTTTTTTTTTTTTTTTT PDIG        TELAPSE       32.21 TCPU      735.85
 CHARGE NORMALIZATION FACTOR   1.00000000
 TOTAL ATOMIC CHARGES:
   4.5019141   4.5007426   4.5013248   4.5013075   4.5006983   4.5016666
   0.8859647   0.8862099   0.8861322   0.8859647   0.8846951   0.8853107
   0.8847391   0.8851693   0.8860669   0.8860156   0.8860765   0.8861297
   5.8902790   6.1625782   6.1619787   6.1622042   6.1623674   5.8899327
   5.8906801   6.1630809   6.1623618   6.1630392   6.1624851   5.8896328
   5.8902778   6.1621819   6.1625894   6.1622470   6.1621407   5.8898886
   8.5114884   8.5119344   8.5132294   8.5116832   8.5134638   8.5121268
 TTTTTTTTTTTTTTTTTTTTTTTTTTTTTT MOQGAD      TELAPSE       32.25 TCPU      735.89
 TTTTTTTTTTTTTTTTTTTTTTTTTTTTTT SHELLXN     TELAPSE       38.40 TCPU      932.08
 TTTTTTTTTTTTTTTTTTTTTTTTTTTTTT MONMO3      TELAPSE       38.53 TCPU      936.21
 NUMERICALLY INTEGRATED DENSITY    198.0000192831
 TTTTTTTTTTTTTTTTTTTTTTTTTTTTTT NUMDFT      TELAPSE       39.13 TCPU      955.38
 CYC   3 ETOT(AU) -1.289103568365E+03 DETOT -9.55E-02 tst  7.04E-04 PX  6.36E-02
 TTTTTTTTTTTTTTTTTTTTTTTTTTTTTT DIIS        TELAPSE       39.19 TCPU      957.25
 DIIS TEST: 0.13298E-01 AT SCF   CYCLE   3 - DIIS ACTIVE - HISTORY:     3 CYCLES
 TTTTTTTTTTTTTTTTTTTTTTTTTTTTTT FDIK        TELAPSE       39.68 TCPU      973.05
 INSULATING STATE
 TOP OF VALENCE BANDS -    BAND     99; K    1; EIG -2.4555154E-01 AU
 BOTTOM OF VIRTUAL BANDS - BAND    100; K    1; EIG -8.6411966E-02 AU
 DIRECT ENERGY BAND GAP:   4.3304 eV
 TTTTTTTTTTTTTTTTTTTTTTTTTTTTTT PDIG        TELAPSE       40.01 TCPU      979.24
 CHARGE NORMALIZATION FACTOR   1.00000000
 TOTAL ATOMIC CHARGES:
   4.5078907   4.5059171   4.5065319   4.5063648   4.5056581   4.5075769
   0.8691606   0.8692511   0.8694788   0.8692928   0.8685410   0.8688369
   0.8685451   0.8687289   0.8694245   0.8693622   0.8692035   0.8692461
   5.9407592   6.1687195   6.1691897   6.1648116   6.1651099   5.9423262
   5.9453786   6.1638832   6.1648193   6.1641607   6.1647709   5.9480706
   5.9411155   6.1647860   6.1652582   6.1688299   6.1689363   5.9419336
   8.4805261   8.4809330   8.4775753   8.4807325   8.4771451   8.4812182
 TTTTTTTTTTTTTTTTTTTTTTTTTTTTTT MOQGAD      TELAPSE       40.06 TCPU      979.28
 TTTTTTTTTTTTTTTTTTTTTTTTTTTTTT SHELLXN     TELAPSE       46.19 TCPU     1174.79
 TTTTTTTTTTTTTTTTTTTTTTTTTTTTTT MONMO3      TELAPSE       46.32 TCPU     1179.04
 NUMERICALLY INTEGRATED DENSITY    198.0000193513
 TTTTTTTTTTTTTTTTTTTTTTTTTTTTTT NUMDFT      TELAPSE       46.93 TCPU     1198.41
 CYC   4 ETOT(AU) -1.289106360674E+03 DETOT -2.79E-03 tst  3.15E-05 PX  1.29E-02
 TTTTTTTTTTTTTTTTTTTTTTTTTTTTTT DIIS        TELAPSE       46.99 TCPU     1200.38
 DIIS TEST: 0.38581E-02 AT SCF   CYCLE   4 - DIIS ACTIVE - HISTORY:     4 CYCLES
 TTTTTTTTTTTTTTTTTTTTTTTTTTTTTT FDIK        TELAPSE       47.49 TCPU     1216.33
 INSULATING STATE
 TOP OF VALENCE BANDS -    BAND     99; K    1; EIG -2.4397307E-01 AU
 BOTTOM OF VIRTUAL BANDS - BAND    100; K    1; EIG -8.6225814E-02 AU
 DIRECT ENERGY BAND GAP:   4.2925 eV
 TTTTTTTTTTTTTTTTTTTTTTTTTTTTTT PDIG        TELAPSE       47.82 TCPU     1222.52
 CHARGE NORMALIZATION FACTOR   1.00000000
 TOTAL ATOMIC CHARGES:
   4.5110311   4.5083105   4.5089273   4.5089075   4.5082394   4.5108663
   0.8720070   0.8722326   0.8722075   0.8720173   0.8710053   0.8715500
   0.8710326   0.8714183   0.8721448   0.8720775   0.8720981   0.8721816
   5.9217177   6.1691659   6.1687716   6.1664896   6.1666872   5.9219688
   5.9248531   6.1665074   6.1661795   6.1665679   6.1663047   5.9248509
   5.9217381   6.1664751   6.1668708   6.1689488   6.1688231   5.9219018
   8.4893070   8.4897793   8.4891966   8.4894595   8.4892170   8.4899636
 TTTTTTTTTTTTTTTTTTTTTTTTTTTTTT MOQGAD      TELAPSE       47.86 TCPU     1222.56
 TTTTTTTTTTTTTTTTTTTTTTTTTTTTTT SHELLXN     TELAPSE       54.03 TCPU     1419.25
 TTTTTTTTTTTTTTTTTTTTTTTTTTTTTT MONMO3      TELAPSE       54.17 TCPU     1423.47
 NUMERICALLY INTEGRATED DENSITY    198.0000193268
 TTTTTTTTTTTTTTTTTTTTTTTTTTTTTT NUMDFT      TELAPSE       54.77 TCPU     1442.72
 CYC   5 ETOT(AU) -1.289107246355E+03 DETOT -8.86E-04 tst  6.82E-06 PX  6.66E-03
 TTTTTTTTTTTTTTTTTTTTTTTTTTTTTT DIIS        TELAPSE       54.84 TCPU     1444.96
 DIIS TEST: 0.70063E-04 AT SCF   CYCLE   5 - DIIS ACTIVE - HISTORY:     5 CYCLES
 TTTTTTTTTTTTTTTTTTTTTTTTTTTTTT FDIK        TELAPSE       55.34 TCPU     1460.86
 INSULATING STATE
 TOP OF VALENCE BANDS -    BAND     99; K    1; EIG -2.4384922E-01 AU
 BOTTOM OF VIRTUAL BANDS - BAND    100; K    1; EIG -8.5651160E-02 AU
 DIRECT ENERGY BAND GAP:   4.3048 eV
 TTTTTTTTTTTTTTTTTTTTTTTTTTTTTT PDIG        TELAPSE       55.67 TCPU     1467.04
 CHARGE NORMALIZATION FACTOR   1.00000000
 TOTAL ATOMIC CHARGES:
   4.5102688   4.5081998   4.5088097   4.5086742   4.5080080   4.5099404
   0.8729280   0.8730397   0.8731016   0.8729023   0.8720102   0.8723839
   0.8720149   0.8722745   0.8730369   0.8729645   0.8729815   0.8730264
   5.9215461   6.1684547   6.1687488   6.1658509   6.1661384   5.9226418
   5.9240678   6.1654783   6.1661281   6.1657103   6.1660799   5.9260404
   5.9218665   6.1658410   6.1663088   6.1684903   6.1685541   5.9222750
   8.4891796   8.4895648   8.4877430   8.4894126   8.4874626   8.4898509
 TTTTTTTTTTTTTTTTTTTTTTTTTTTTTT MOQGAD      TELAPSE       55.71 TCPU     1467.09
 TTTTTTTTTTTTTTTTTTTTTTTTTTTTTT SHELLXN     TELAPSE       61.87 TCPU     1663.52
 TTTTTTTTTTTTTTTTTTTTTTTTTTTTTT MONMO3      TELAPSE       62.00 TCPU     1667.74
 NUMERICALLY INTEGRATED DENSITY    198.0000193273
 TTTTTTTTTTTTTTTTTTTTTTTTTTTTTT NUMDFT      TELAPSE       62.61 TCPU     1687.10
 CYC   6 ETOT(AU) -1.289107266893E+03 DETOT -2.05E-05 tst  2.29E-07 PX  1.07E-03
 TTTTTTTTTTTTTTTTTTTTTTTTTTTTTT DIIS        TELAPSE       62.68 TCPU     1689.29
 DIIS TEST: 0.56720E-05 AT SCF   CYCLE   6 - DIIS ACTIVE - HISTORY:     6 CYCLES
 TTTTTTTTTTTTTTTTTTTTTTTTTTTTTT FDIK        TELAPSE       63.18 TCPU     1705.15
 INSULATING STATE
 TOP OF VALENCE BANDS -    BAND     99; K    1; EIG -2.4381733E-01 AU
 BOTTOM OF VIRTUAL BANDS - BAND    100; K    1; EIG -8.5744238E-02 AU
 DIRECT ENERGY BAND GAP:   4.3014 eV
 TTTTTTTTTTTTTTTTTTTTTTTTTTTTTT PDIG        TELAPSE       63.51 TCPU     1711.34
 CHARGE NORMALIZATION FACTOR   1.00000000
 TOTAL ATOMIC CHARGES:
   4.5106788   4.5081729   4.5087884   4.5087659   4.5080957   4.5104890
   0.8728666   0.8730813   0.8730959   0.8729021   0.8718823   0.8724250
   0.8719115   0.8722905   0.8730344   0.8729609   0.8729596   0.8730285
   5.9221133   6.1684512   6.1680916   6.1657087   6.1659322   5.9224501
   5.9253715   6.1657162   6.1653892   6.1657683   6.1655236   5.9254666
   5.9221246   6.1656854   6.1661210   6.1682302   6.1681502   5.9223938
   8.4889059   8.4893880   8.4884804   8.4890510   8.4884876   8.4895702
 TTTTTTTTTTTTTTTTTTTTTTTTTTTTTT MOQGAD      TELAPSE       63.55 TCPU     1711.38
 TTTTTTTTTTTTTTTTTTTTTTTTTTTTTT SHELLXN     TELAPSE       69.65 TCPU     1905.81
 TTTTTTTTTTTTTTTTTTTTTTTTTTTTTT MONMO3      TELAPSE       69.78 TCPU     1910.07
 NUMERICALLY INTEGRATED DENSITY    198.0000193267
 TTTTTTTTTTTTTTTTTTTTTTTTTTTTTT NUMDFT      TELAPSE       70.39 TCPU     1929.43
 CYC   7 ETOT(AU) -1.289107267179E+03 DETOT -2.86E-07 tst  2.26E-08 PX  4.09E-04
 TTTTTTTTTTTTTTTTTTTTTTTTTTTTTT DIIS        TELAPSE       70.47 TCPU     1932.03
 DIIS TEST: 0.11727E-05 AT SCF   CYCLE   7 - DIIS ACTIVE - HISTORY:     7 CYCLES
 TTTTTTTTTTTTTTTTTTTTTTTTTTTTTT FDIK        TELAPSE       70.97 TCPU     1948.06
 INSULATING STATE
 TOP OF VALENCE BANDS -    BAND     99; K    1; EIG -2.4383041E-01 AU
 BOTTOM OF VIRTUAL BANDS - BAND    100; K    1; EIG -8.5744921E-02 AU
 DIRECT ENERGY BAND GAP:   4.3017 eV
 TTTTTTTTTTTTTTTTTTTTTTTTTTTTTT PDIG        TELAPSE       71.30 TCPU     1954.24
 CHARGE NORMALIZATION FACTOR   1.00000000
 TOTAL ATOMIC CHARGES:
   4.5106610   4.5082763   4.5088884   4.5088061   4.5081381   4.5104079
   0.8728563   0.8730198   0.8730573   0.8728633   0.8719042   0.8723550
   0.8719188   0.8722354   0.8729931   0.8729251   0.8729270   0.8729895
   5.9218112   6.1684199   6.1683987   6.1657502   6.1659867   5.9225130
   5.9246810   6.1655380   6.1657476   6.1656978   6.1657741   5.9257587
   5.9220034   6.1657407   6.1661599   6.1683454   6.1683112   5.9222757
   8.4890545   8.4894771   8.4882544   8.4892525   8.4881075   8.4897181
 TTTTTTTTTTTTTTTTTTTTTTTTTTTTTT MOQGAD      TELAPSE       71.34 TCPU     1954.28
 TTTTTTTTTTTTTTTTTTTTTTTTTTTTTT SHELLXN     TELAPSE       77.53 TCPU     2151.25
 +++ ENERGIES IN A.U. +++
 ::: EXT EL-POLE                                  -1.3482193998448E+03
 ::: EXT EL-SPHEROPOLE                             1.4661420792195E+01
 ::: BIELET ZONE E-E                               2.0187940356886E+03
 ::: TOTAL E-E                                     6.8523605663602E+02
 ::: TOTAL E-N + N-E                              -3.1994981450597E+03
 ::: TOTAL N-N                                     7.8925453446720E+01
 ::: KINETIC ENERGY                                1.2799490077209E+03
 ::: PSEUDO TOTAL   ENERGY                        -1.1553876272561E+03
 ::: VIRIAL COEFFICIENT                            1.0511474999702E+00
 TTTTTTTTTTTTTTTTTTTTTTTTTTTTTT MONMO3      TELAPSE       77.66 TCPU     2155.49
 NUMERICALLY INTEGRATED DENSITY    198.0000193275
 EXCHANGE ENERGY: -0.126029393343E+03  CORRELATION ENERGY: -0.769024686883E+01
 TTTTTTTTTTTTTTTTTTTTTTTTTTTTTT NUMDFT      TELAPSE       78.27 TCPU     2174.92
 CYC   8 ETOT(AU) -1.289107267468E+03 DETOT -2.89E-07 tst  6.39E-09 PX  4.09E-04

 == SCF ENDED - CONVERGENCE ON ENERGY      E(AU) -1.2891072674682E+03 CYCLES   8


 ENERGY EXPRESSION=HARTREE+FOCK EXCH*0.00000+(HSESOL     EXCH)*1.00000+PBESOL     CORR


 TOTAL ENERGY(DFT)(AU)(  8) -1.2891072674682E+03 DE-2.9E-07 tester 6.4E-09
 TTTTTTTTTTTTTTTTTTTTTTTTTTTTTT EDFT        TELAPSE       78.27 TCPU     2174.93
 
 INFORMATION **** DFTD3 ENERGY **** CALCULATE DFTD3 ENERGY

           DFT-D V3(BJ)
 DF                                         hsesol3c  
 parameters
 s6       :    1.0000
 s8       :    0.0000
 a1       :    0.5196
 a2       :    4.9385
 k1 k3    :   16.0000   -4.0000
 Cutoff   :   50.2022
 CN-Cutoff:   21.1671
 ABC-Cutoff:   21.1671
 
 Edisp /kcal,au:   -23.5086 -0.03746334

 E6    /kcal :   -24.7291
 E8    /kcal :     0.0000
 E6(ABC) "   :   1.220454
 
 INFORMATION **** DFTD3 ENERGY **** NORMAL TERMINATION OF DFTD3 MODULE

 GCP ENERGY CALCULATION
  level        hsesol3c            basis:hsesol3c
  Nbf            474
  Atoms           42

  Parameters: 
  sigma     1.0000
  eta       1.4281
  alpha     0.2936
  beta      1.9467

  dmp_scal      4.0000
  dmp_exp       6.0000
 cutoffs: 
   distance [bohr] 60.0
   noise    [a.u.] 2.2E-16
 SR-damping   T
 ** gCP correction **
  Egcp:        0.0829702512 / (a.u.) ||      52.0646 / (kcal/mol)
 INFORMATION **** GCP **** NORMAL TERMINATION OF GCP MODULE

 *******************************************************************************

 DFT-D3-GCP DISPERSION AND COUNTERPOISE CORRECTION

 D3 DISPERSION ENERGY (AU)      -3.7463338369485E-02
 GCP ENERGY (AU)                 8.2970251223034E-02
 TOTAL ENERGY + DISP + GCP (AU) -1.2890617605554E+03

 *******************************************************************************

 EIGENVECTORS IN FORTRAN UNIT  8
 TTTTTTTTTTTTTTTTTTTTTTTTTTTTTT END         TELAPSE       79.86 TCPU     2182.43
 EEEEEEEEEE TERMINATION  DATE 19 02 2026 TIME 19:04:59.8
