 Default number of threads is:           32

         
 *******************************************************************************
 *                                                                             *
 *                               CRYSTAL23                                     *
 *                      public : 1.0.1 - October 2022                          *
 *                       HTTP://WWW.CRYSTAL.UNITO.IT                           *
 *                                                                             *
 *                              MAIN AUTHORS                                   *
 *                                                                             *
 *  R. DOVESI(1,11), V.R. SAUNDERS(2), C. ROETTI(1,11), R. ORLANDO(1,11),      *
 *  C.M. ZICOVICH-WILSON(1,3), F. PASCALE(4), B. CIVALLERI(1,11),              *
 *  K. DOLL(5), N.M. HARRISON(6), I.J. BUSH(7), Ph. D'ARCO(8),                 *
 *  M. LLUNELL(9), M. CAUSA'(10), Y. NOEL(8), L. MASCHIO(1,11), A. ERBA(1,11)  *
 *  M. RE'RAT(14), S. CASASSA(1,11), B.G. SEARLE(2), J.K. DESMARAIS(1)         *
 *                                                                             *
 *        CONTRIBUTIONS TO THE CODE HAVE ALSO BEEN GIVEN BY                    *
 *                                                                             *
 *  M. FERRABONE(1,11), M. DE LA PIERRE(1,11), M. FERRERO(1,11),               *
 *  J. BAIMA(1,11), E. ALBANESE(1,11), M.F. PEINTINGER(12), R. BAST(13),       *
 *  B. KIRTMAN(15), V. LACIVITA(1,11), R. DEMICHELIS(1,16)                     *
 *  G. BRANDEBURG(17), S. SALUSTRO(1,11), G. SANSONE(1,11)                     *
 *  M.T. RUGGIERO(18), L.E. DAGA(1), L. DONA'(1), A. COSSARD(1)                *
 *                                                                             *
 * (1) THEORETICAL CHEMISTRY GROUP - UNIVERSITA' DI TORINO - TORINO (ITALY)    *
 * (2) SCIENTIFIC COMPUTING DEPARTMENT - STFC DARESBURY (UK)                   *
 * (3) UNIVERSIDAD AUTONOMA DEL ESTADO DE MORELOS - CUERNAVACA (MEXICO)        *
 * (4) UNIVERSITE' DE LORRAINE - NANCY (FRANCE)                                *
 * (5) UNIVERSITAET STUTTGART- STUTTGART (GERMANY)                             *
 * (6) IMPERIAL COLLEGE - LONDON (UK)                                          *
 * (7) SCIENTIFIC COMPUTING DEPARTMENT - STFC RAL (UK)                         *
 * (8) UPMC - SORBONNE UNIVERSITES - PARIS (FRANCE)                            *
 * (9) UNIVERSIDAD DE BARCELONA - BARCELONA (SPAIN)                            *
 *(10) UNIVERSITA' DI NAPOLI "FEDERICO II" - NAPOLI (ITALY)                    *
 *(11) NIS - NANOSTRUCTURED INTERFACES AND SURFACES - TORINO (ITALY)           *
 *(12) MPI FUER CHEMISCHE ENERGIEKONVERSION - MUELHEIM AN DER RUHR (GERMANY)   *
 *(13) UNIVERSITY OF TROMSO - TROMSO (NORWAY)                                  *
 *(14) UNIVERSITE' DE PAU ET DES PAYS DE L'ADOUR - PAU (FRANCE)                *
 *(15) UNIVERSITY OF CALIFORNIA SANTA BARBARA - SANTA BARBARA (USA)            *
 *(16) CURTIN UNIVERSITY - PERTH (AUSTRALIA)                                   *
 *(17) UNIVERSITY COLLEGE LONDON - LONDON (UK)                                 *
 *(18) UNIVERSITY OF VERMONT - BURLINGTON (USA)                                *
 *                                                                             *
 *******************************************************************************
 EEEEEEEEEE STARTING  DATE 02 12 2025 TIME 08:03:53.3
 COF-5_z41_inc_L010                                                              

 CRYSTAL CALCULATION
 (INPUT ACCORDING TO THE INTERNATIONAL TABLES FOR X-RAY CRYSTALLOGRAPHY)
 CRYSTAL FAMILY                       :  TRICLINIC   
 CRYSTAL CLASS  (GROTH - 1921)        :  TRICLINIC PEDIAL                     

 SPACE GROUP (NONCENTROSYMMETRIC)     :  P 1             

 LATTICE PARAMETERS  (ANGSTROMS AND DEGREES) - CONVENTIONAL CELL
        A           B           C        ALPHA        BETA       GAMMA
    15.02070    15.04439     4.22019    78.16792    89.99931   120.05310


 NUMBER OF IRREDUCIBLE ATOMS IN THE CONVENTIONAL CELL:   42

 INPUT COORDINATES

 ATOM AT. N.              COORDINATES
   1   5     5.963312500000E-01  1.896271500000E-01  5.006628600000E-01
   2   5     7.551102700000E-01  3.486531000000E-01  5.006728500000E-01
   3   5     5.959336400000E-01  3.484503000000E-01  4.992428500000E-01
   4   5     2.093200700000E-01  5.755428400000E-01  5.054579500000E-01
   5   5     3.677388900000E-01  5.747314700000E-01  5.095019200000E-01
   6   5     3.682412300000E-01  7.345281100000E-01  5.035361700000E-01
   7   1     8.849860900000E-01  2.708013000000E-01  5.045613400000E-01
   8   1     7.988047000000E-02  6.535827600000E-01  4.929707800000E-01
   9   1     8.855035100000E-01  5.562939000000E-01  4.928324900000E-01
  10   1     7.944208000000E-02  3.680481900000E-01  5.041299000000E-01
  11   1     5.749768400000E-01  8.645055700000E-01  5.042519700000E-01
  12   1     3.892088600000E-01  6.065343000000E-02  4.946030400000E-01
  13   1     2.908182300000E-01  8.668412300000E-01  4.959099100000E-01
  14   1     6.731501100000E-01  5.833854000000E-02  5.023906100000E-01
  15   1     5.748225600000E-01  6.523363300000E-01  4.978074200000E-01
  16   1     3.871932400000E-01  2.700870600000E-01  5.060907100000E-01
  17   1     2.898432400000E-01  3.660365500000E-01  5.057258300000E-01
  18   1     6.725780200000E-01  5.564054000000E-01  4.987408900000E-01
  19   6     8.744124100000E-01  4.081013900000E-01  5.004228600000E-01
  20   6     9.288685900000E-01  3.547892800000E-01  5.021889800000E-01
  21   6     3.613192000000E-02  5.696165400000E-01  4.957959600000E-01
  22   6     9.291404500000E-01  5.160657300000E-01  4.961331300000E-01
  23   6     3.592402000000E-02  4.084036600000E-01  5.015452600000E-01
  24   6     9.050942000000E-02  5.162434300000E-01  4.993619500000E-01
  25   6     4.272671600000E-01  8.540295000000E-01  5.019043400000E-01
  26   6     5.351253900000E-01  9.084815700000E-01  5.022945300000E-01
  27   6     4.288691600000E-01  1.643186000000E-02  4.970180700000E-01
  28   6     3.747077600000E-01  9.093907300000E-01  4.981367600000E-01
  29   6     5.892640600000E-01  1.545849000000E-02  5.008571000000E-01
  30   6     5.366471500000E-01  7.057647000000E-02  4.992328100000E-01
  31   6     4.269410000000E-01  5.151219400000E-01  5.000040400000E-01
  32   6     5.348114300000E-01  5.684192800000E-01  4.994525500000E-01
  33   6     4.277996200000E-01  3.540424500000E-01  5.039761600000E-01
  34   6     3.739215700000E-01  4.071347400000E-01  5.033682100000E-01
  35   6     5.885889300000E-01  5.152826900000E-01  5.003909300000E-01
  36   6     5.357864800000E-01  4.074640100000E-01  5.016328000000E-01
  37   8     5.432542000000E-01  2.425216900000E-01  4.996327300000E-01
  38   8     7.022984800000E-01  2.425892800000E-01  5.026228200000E-01
  39   8     7.020810100000E-01  4.016801700000E-01  4.981030300000E-01
  40   8     2.622622600000E-01  6.816109700000E-01  5.027695000000E-01
  41   8     2.617340500000E-01  5.219743100000E-01  5.102573800000E-01
  42   8     4.209755400000E-01  6.811315000000E-01  5.052412800000E-01

 *******************************************************************************

 << INFORMATION >>: FROM NOW ON, ALL COORDINATES REFER TO THE PRIMITIVE CELL

 *******************************************************************************

 LATTICE PARAMETERS  (ANGSTROMS AND DEGREES) - PRIMITIVE CELL
       A          B          C        ALPHA      BETA     GAMMA        VOLUME
   15.02070   15.04439    4.22019    78.16792  89.99931 120.05310    801.960318

 COORDINATES OF THE EQUIVALENT ATOMS (FRACTIONAL UNITS)

 N. ATOM EQUIV AT. N.          X                  Y                  Z

   1   1   1    5 B    -4.03668750000E-01  1.89627150000E-01 -4.99337140000E-01

   2   2   1    5 B    -2.44889730000E-01  3.48653100000E-01 -4.99327150000E-01

   3   3   1    5 B    -4.04066360000E-01  3.48450300000E-01  4.99242850000E-01

   4   4   1    5 B     2.09320070000E-01 -4.24457160000E-01 -4.94542050000E-01

   5   5   1    5 B     3.67738890000E-01 -4.25268530000E-01 -4.90498080000E-01

   6   6   1    5 B     3.68241230000E-01 -2.65471890000E-01 -4.96463830000E-01

   7   7   1    1 H    -1.15013910000E-01  2.70801300000E-01 -4.95438660000E-01

   8   8   1    1 H     7.98804700000E-02 -3.46417240000E-01  4.92970780000E-01

   9   9   1    1 H    -1.14496490000E-01 -4.43706100000E-01  4.92832490000E-01

  10  10   1    1 H     7.94420800000E-02  3.68048190000E-01 -4.95870100000E-01

  11  11   1    1 H    -4.25023160000E-01 -1.35494430000E-01 -4.95748030000E-01

  12  12   1    1 H     3.89208860000E-01  6.06534300000E-02  4.94603040000E-01

  13  13   1    1 H     2.90818230000E-01 -1.33158770000E-01  4.95909910000E-01

  14  14   1    1 H    -3.26849890000E-01  5.83385400000E-02 -4.97609390000E-01

  15  15   1    1 H    -4.25177440000E-01 -3.47663670000E-01  4.97807420000E-01

  16  16   1    1 H     3.87193240000E-01  2.70087060000E-01 -4.93909290000E-01

  17  17   1    1 H     2.89843240000E-01  3.66036550000E-01 -4.94274170000E-01

  18  18   1    1 H    -3.27421980000E-01 -4.43594600000E-01  4.98740890000E-01

  19  19   1    6 C    -1.25587590000E-01  4.08101390000E-01 -4.99577140000E-01

  20  20   1    6 C    -7.11314100000E-02  3.54789280000E-01 -4.97811020000E-01

  21  21   1    6 C     3.61319200000E-02 -4.30383460000E-01  4.95795960000E-01

  22  22   1    6 C    -7.08595500000E-02 -4.83934270000E-01  4.96133130000E-01

  23  23   1    6 C     3.59240200000E-02  4.08403660000E-01 -4.98454740000E-01

  24  24   1    6 C     9.05094200000E-02 -4.83756570000E-01  4.99361950000E-01

  25  25   1    6 C     4.27267160000E-01 -1.45970500000E-01 -4.98095660000E-01

  26  26   1    6 C    -4.64874610000E-01 -9.15184300000E-02 -4.97705470000E-01

  27  27   1    6 C     4.28869160000E-01  1.64318600000E-02  4.97018070000E-01

  28  28   1    6 C     3.74707760000E-01 -9.06092700000E-02  4.98136760000E-01

  29  29   1    6 C    -4.10735940000E-01  1.54584900000E-02 -4.99142900000E-01

  30  30   1    6 C    -4.63352850000E-01  7.05764700000E-02  4.99232810000E-01

  31  31   1    6 C     4.26941000000E-01 -4.84878060000E-01 -4.99995960000E-01

  32  32   1    6 C    -4.65188570000E-01 -4.31580720000E-01  4.99452550000E-01

  33  33   1    6 C     4.27799620000E-01  3.54042450000E-01 -4.96023840000E-01

  34  34   1    6 C     3.73921570000E-01  4.07134740000E-01 -4.96631790000E-01

  35  35   1    6 C    -4.11411070000E-01 -4.84717310000E-01 -4.99609070000E-01

  36  36   1    6 C    -4.64213520000E-01  4.07464010000E-01 -4.98367200000E-01

  37  37   1    8 O    -4.56745800000E-01  2.42521690000E-01  4.99632730000E-01

  38  38   1    8 O    -2.97701520000E-01  2.42589280000E-01 -4.97377180000E-01

  39  39   1    8 O    -2.97918990000E-01  4.01680170000E-01  4.98103030000E-01

  40  40   1    8 O     2.62262260000E-01 -3.18389030000E-01 -4.97230500000E-01

  41  41   1    8 O     2.61734050000E-01 -4.78025690000E-01 -4.89742620000E-01

  42  42   1    8 O     4.20975540000E-01 -3.18868500000E-01 -4.94758720000E-01

 NUMBER OF SYMMETRY OPERATORS         :    1
 *******************************************************************************
 * GEOMETRY EDITING - INPUT COORDINATES ARE GIVEN IN ANGSTROM         
 *******************************************************************************

 GCALCO - MAX INDICES DIRECT LATTICE VECTOR    10    10    31
 NO.OF VECTORS CREATED 6999 STARS 3500 RMAX   208.18988 BOHR

 GEOMETRY FOR WAVE FUNCTION - DIMENSIONALITY OF THE SYSTEM    3
 (NON PERIODIC DIRECTION: LATTICE PARAMETER FORMALLY SET TO 500)
 *******************************************************************************
 LATTICE PARAMETERS (ANGSTROMS AND DEGREES) - BOHR = 0.5291772083 ANGSTROM
 PRIMITIVE CELL - CENTRING CODE 1/0 VOLUME=   801.960318 - DENSITY  0.808 g/cm^3
         A              B              C           ALPHA      BETA       GAMMA 
    15.02070100    15.04438700     4.22019000    78.167917  89.999306 120.053104
 *******************************************************************************
 ATOMS IN THE ASYMMETRIC UNIT   42 - ATOMS IN THE UNIT CELL:   42
     ATOM                 X/A                 Y/B                 Z/C    
 *******************************************************************************
      1 T   5 B    -4.036687500000E-01  1.896271500000E-01 -4.993371400000E-01
      2 T   5 B    -2.448897300000E-01  3.486531000000E-01 -4.993271500000E-01
      3 T   5 B    -4.040663600000E-01  3.484503000000E-01  4.992428500000E-01
      4 T   5 B     2.093200700000E-01 -4.244571600000E-01 -4.945420500000E-01
      5 T   5 B     3.677388900000E-01 -4.252685300000E-01 -4.904980800000E-01
      6 T   5 B     3.682412300000E-01 -2.654718900000E-01 -4.964638300000E-01
      7 T   1 H    -1.150139100000E-01  2.708013000000E-01 -4.954386600000E-01
      8 T   1 H     7.988047000000E-02 -3.464172400000E-01  4.929707800000E-01
      9 T   1 H    -1.144964900000E-01 -4.437061000000E-01  4.928324900000E-01
     10 T   1 H     7.944208000000E-02  3.680481900000E-01 -4.958701000000E-01
     11 T   1 H    -4.250231600000E-01 -1.354944300000E-01 -4.957480300000E-01
     12 T   1 H     3.892088600000E-01  6.065343000000E-02  4.946030400000E-01
     13 T   1 H     2.908182300000E-01 -1.331587700000E-01  4.959099100000E-01
     14 T   1 H    -3.268498900000E-01  5.833854000000E-02 -4.976093900000E-01
     15 T   1 H    -4.251774400000E-01 -3.476636700000E-01  4.978074200000E-01
     16 T   1 H     3.871932400000E-01  2.700870600000E-01 -4.939092900000E-01
     17 T   1 H     2.898432400000E-01  3.660365500000E-01 -4.942741700000E-01
     18 T   1 H    -3.274219800000E-01 -4.435946000000E-01  4.987408900000E-01
     19 T   6 C    -1.255875900000E-01  4.081013900000E-01 -4.995771400000E-01
     20 T   6 C    -7.113141000000E-02  3.547892800000E-01 -4.978110200000E-01
     21 T   6 C     3.613192000000E-02 -4.303834600000E-01  4.957959600000E-01
     22 T   6 C    -7.085955000000E-02 -4.839342700000E-01  4.961331300000E-01
     23 T   6 C     3.592402000000E-02  4.084036600000E-01 -4.984547400000E-01
     24 T   6 C     9.050942000000E-02 -4.837565700000E-01  4.993619500000E-01
     25 T   6 C     4.272671600000E-01 -1.459705000000E-01 -4.980956600000E-01
     26 T   6 C    -4.648746100000E-01 -9.151843000000E-02 -4.977054700000E-01
     27 T   6 C     4.288691600000E-01  1.643186000000E-02  4.970180700000E-01
     28 T   6 C     3.747077600000E-01 -9.060927000000E-02  4.981367600000E-01
     29 T   6 C    -4.107359400000E-01  1.545849000000E-02 -4.991429000000E-01
     30 T   6 C    -4.633528500000E-01  7.057647000000E-02  4.992328100000E-01
     31 T   6 C     4.269410000000E-01 -4.848780600000E-01 -4.999959600000E-01
     32 T   6 C    -4.651885700000E-01 -4.315807200000E-01  4.994525500000E-01
     33 T   6 C     4.277996200000E-01  3.540424500000E-01 -4.960238400000E-01
     34 T   6 C     3.739215700000E-01  4.071347400000E-01 -4.966317900000E-01
     35 T   6 C    -4.114110700000E-01 -4.847173100000E-01 -4.996090700000E-01
     36 T   6 C    -4.642135200000E-01  4.074640100000E-01 -4.983672000000E-01
     37 T   8 O    -4.567458000000E-01  2.425216900000E-01  4.996327300000E-01
     38 T   8 O    -2.977015200000E-01  2.425892800000E-01 -4.973771800000E-01
     39 T   8 O    -2.979189900000E-01  4.016801700000E-01  4.981030300000E-01
     40 T   8 O     2.622622600000E-01 -3.183890300000E-01 -4.972305000000E-01
     41 T   8 O     2.617340500000E-01 -4.780256900000E-01 -4.897426200000E-01
     42 T   8 O     4.209755400000E-01 -3.188685000000E-01 -4.947587200000E-01

 T = ATOM BELONGING TO THE ASYMMETRIC UNIT

 ****    1 SYMMOPS - TRANSLATORS IN FRACTIONAL UNITS
 **** MATRICES AND TRANSLATORS IN THE CRYSTALLOGRAPHIC REFERENCE FRAME
   V INV                    ROTATION MATRICES                   TRANSLATORS
   1   1  1.00 -0.00  0.00  0.00  1.00  0.00 -0.00 -0.00  1.00  0.00  0.00  0.00

 DIRECT LATTICE VECTORS CARTESIAN COMPONENTS (ANGSTROM)
          X                    Y                    Z
   0.130013421718E+02  -0.752240388864E+01   0.000000000000E+00
   0.000000000000E+00   0.150443870000E+02   0.000000000000E+00
   0.500724741838E+00   0.865325231075E+00   0.410005983048E+01


 CARTESIAN COORDINATES - PRIMITIVE CELL
 *******************************************************************************
 *      ATOM          X(ANGSTROM)         Y(ANGSTROM)         Z(ANGSTROM)
 *******************************************************************************
    1     5 B    -5.498266003319E+00  5.457294578975E+00 -2.047312149578E+00
    2     5 B    -3.433920632360E+00  6.655351240934E+00 -2.047271189981E+00
    3     5 B     7.497195670653E+00  3.260498360212E-01 -2.053134275538E+00
    4     5 B     2.473812413175E+00  6.656159397808E+00 -2.027651993686E+00
    5     5 B     4.535494614278E+00  5.455761835200E+00 -2.011071474733E+00
    6     5 B    -7.961578920059E+00  1.194205330010E+00  2.064528423808E+00
    7     1 H    -1.743413593549E+00  4.510505068187E+00 -2.031328148330E+00
    8     1 H     1.285395989861E+00 -5.385948126070E+00  2.021209692676E+00
    9     1 H    -1.241834622632E+00 -5.387537052758E+00  2.020642695402E+00
   10     1 H     7.845592371096E-01  4.510375084630E+00 -2.033097078144E+00
   11     1 H    -5.273380096589E+00  1.595107182743E+00  2.067463246635E+00
   12     1 H     4.807172802824E+00 -2.452625309357E+00 -2.072157774140E+00
   13     1 H     4.029341679679E+00 -3.761820895101E+00  2.033260301526E+00
   14     1 H    -4.498652592041E+00  2.905770495926E+00 -2.040228271206E+00
   15     1 H    -5.278612889294E+00 -1.601265048559E+00  2.041040206054E+00
   16     1 H     4.786719198111E+00  7.232781496009E-01 -2.025057639827E+00
   17     1 H     3.520855833245E+00  2.898769688303E+00 -2.026553669658E+00
   18     1 H    -4.007193293150E+00 -3.779035382045E+00  2.044867488904E+00
   19     6 C    -1.882957864573E+00  6.652059117669E+00 -2.048296163938E+00
   20     6 C    -1.174070095045E+00  5.441897991047E+00 -2.041054966270E+00
   21     6 C     7.180207593186E-01 -6.317629472498E+00  2.032793099708E+00
   22     6 C    -6.728431222512E-01 -6.318143770614E+00  2.034175516881E+00
   23     6 C     2.174718552011E-01  5.442622262442E+00 -2.043694256784E+00
   24     6 C     9.260620808481E-01  6.652502797859E+00 -2.052645958412E+00
   25     6 C    -7.194979704778E+00  2.546601539174E+00  2.057837823175E+00
   26     6 C    -5.792482572719E+00  2.554784025683E+00  2.059437625520E+00
   27     6 C     5.324019199033E+00 -3.414162730737E+00 -2.062256006648E+00
   28     6 C     5.121133202730E+00 -3.750813727642E+00  2.042390519759E+00
   29     6 C    -5.590051697928E+00  2.890364192975E+00 -2.046515753957E+00
   30     6 C    -6.274955471050E+00  4.113980524026E+00 -2.053175440139E+00
   31     6 C     5.300445680168E+00  4.105412059306E+00 -2.050013350996E+00
   32     6 C    -5.797987523809E+00 -2.561342172259E+00  2.047785337483E+00
   33     6 C     5.313597831345E+00  1.679048163214E+00 -2.033727421342E+00
   34     6 C     4.612806452140E+00  2.882555499048E+00 -2.036220052716E+00
   35     6 C    -5.098337975083E+00 -3.764473667310E+00  2.051632751627E+00
   36     6 C     6.716398569930E+00  1.668394241878E+00 -2.043335337546E+00
   37     8 O     6.812487468358E+00 -8.709677698823E-01 -2.051535744212E+00
   38     8 O    -4.119568386629E+00  5.458645058859E+00 -2.039276196313E+00
   39     8 O    -3.623934217354E+00 -6.329266983884E+00  2.042252224741E+00
   40     8 O     3.661510509094E+00 -6.327751294578E+00  2.061385030938E+00
   41     8 O     3.157667695087E+00  5.460127642369E+00 -2.007974043534E+00
   42     8 O    -7.275108320792E+00 -4.327239221928E-03  2.071519476826E+00

 *******************************************************************************
 STARTING BASIS SET HANDLING 
 *******************************************************************************

 Loading internal basis set: SOLDEF2MSVP         

 Please cite in your publication:
 L. Dona', J. G. Brandenburg and B. Civalleri, J. Chem. Phys., 151, 121101 (2019
 )                                                                              
                                                                                
                    

 *******************************************************************************
 LOCAL ATOMIC FUNCTIONS BASIS SET
 *******************************************************************************
   ATOM   X(AU)   Y(AU)   Z(AU)  N. TYPE  EXPONENT  S COEF   P COEF   D/F/G COEF
 *******************************************************************************
   1 B  -10.390  10.313  -3.869
                                  1 S  
                                         2.410E+03 1.755E-03 0.000E+00 0.000E+00
                                         3.619E+02 1.344E-02 0.000E+00 0.000E+00
                                         8.231E+01 6.637E-02 0.000E+00 0.000E+00
                                         2.311E+01 2.303E-01 0.000E+00 0.000E+00
                                         7.252E+00 5.150E-01 0.000E+00 0.000E+00
                                  2 S  
                                         2.367E+00 1.000E+00 0.000E+00 0.000E+00
                                  3 S  
                                         5.533E-01 1.000E+00 0.000E+00 0.000E+00
                                  4 S  
                                         1.716E-01 1.000E+00 0.000E+00 0.000E+00
                           5-     7 P  
                                         6.002E+00 0.000E+00-3.555E-02 0.000E+00
                                         1.240E+00 0.000E+00-1.983E-01 0.000E+00
                                         3.367E-01 0.000E+00-5.048E-01 0.000E+00
                           8-    10 P  
                                         1.256E-01 0.000E+00 1.000E+00 0.000E+00
                          11-    15 D  
                                         8.880E-01 0.000E+00 0.000E+00 1.000E+00
   2 B   -6.489  12.577  -3.869
   3 B   14.168   0.616  -3.880
   4 B    4.675  12.578  -3.832
   5 B    8.571  10.310  -3.800
   6 B  -15.045   2.257   3.901
   7 H   -3.295   8.524  -3.839
                                 91 S  
                                         1.874E+01 1.968E-02 0.000E+00 0.000E+00
                                         2.826E+00 1.380E-01 0.000E+00 0.000E+00
                                         6.401E-01 4.783E-01 0.000E+00 0.000E+00
                                 92 S  
                                         1.756E-01 1.000E+00 0.000E+00 0.000E+00
   8 H    2.429 -10.178   3.820
   9 H   -2.347 -10.181   3.818
  10 H    1.483   8.523  -3.842
  11 H   -9.965   3.014   3.907
  12 H    9.084  -4.635  -3.916
  13 H    7.614  -7.109   3.842
  14 H   -8.501   5.491  -3.855
  15 H   -9.975  -3.026   3.857
  16 H    9.046   1.367  -3.827
  17 H    6.653   5.478  -3.830
  18 H   -7.572  -7.141   3.864
  19 C   -3.558  12.571  -3.871
                                115 S  
                                         3.624E+03 1.634E-03 0.000E+00 0.000E+00
                                         5.440E+02 1.252E-02 0.000E+00 0.000E+00
                                         1.237E+02 6.211E-02 0.000E+00 0.000E+00
                                         3.476E+01 2.182E-01 0.000E+00 0.000E+00
                                         1.093E+01 4.980E-01 0.000E+00 0.000E+00
                                116 S  
                                         3.574E+00 1.000E+00 0.000E+00 0.000E+00
                                117 S  
                                         7.742E-01 1.000E+00 0.000E+00 0.000E+00
                                118 S  
                                         2.330E-01 1.000E+00 0.000E+00 0.000E+00
                         119-   121 P  
                                         9.443E+00 0.000E+00 3.790E-02 0.000E+00
                                         2.002E+00 0.000E+00 2.082E-01 0.000E+00
                                         5.463E-01 0.000E+00 5.047E-01 0.000E+00
                         122-   124 P  
                                         1.820E-01 0.000E+00 1.000E+00 0.000E+00
                         125-   129 D  
                                         8.880E-01 0.000E+00 0.000E+00 1.000E+00
  20 C   -2.219  10.284  -3.857
  21 C    1.357 -11.939   3.841
  22 C   -1.271 -11.940   3.844
  23 C    0.411  10.285  -3.862
  24 C    1.750  12.571  -3.879
  25 C  -13.597   4.812   3.889
  26 C  -10.946   4.828   3.892
  27 C   10.061  -6.452  -3.897
  28 C    9.678  -7.088   3.860
  29 C  -10.564   5.462  -3.867
  30 C  -11.858   7.774  -3.880
  31 C   10.016   7.758  -3.874
  32 C  -10.957  -4.840   3.870
  33 C   10.041   3.173  -3.843
  34 C    8.717   5.447  -3.848
  35 C   -9.634  -7.114   3.877
  36 C   12.692   3.153  -3.861
  37 O   12.874  -1.646  -3.877
                                385 S  
                                         6.773E+03 1.727E-03 0.000E+00 0.000E+00
                                         1.017E+03 1.325E-02 0.000E+00 0.000E+00
                                         2.313E+02 6.603E-02 0.000E+00 0.000E+00
                                         6.501E+01 2.353E-01 0.000E+00 0.000E+00
                                         2.050E+01 5.498E-01 0.000E+00 0.000E+00
                                386 S  
                                         6.716E+00 1.000E+00 0.000E+00 0.000E+00
                                387 S  
                                         1.147E+00 1.000E+00 0.000E+00 0.000E+00
                                388 S  
                                         3.342E-01 1.000E+00 0.000E+00 0.000E+00
                         389-   391 P  
                                         1.769E+01 0.000E+00 4.359E-02 0.000E+00
                                         3.854E+00 0.000E+00 2.318E-01 0.000E+00
                                         1.047E+00 0.000E+00 5.146E-01 0.000E+00
                         392-   394 P  
                                         2.759E-01 0.000E+00 1.000E+00 0.000E+00
                         395-   399 D  
                                         8.000E-01 0.000E+00 0.000E+00 1.000E+00
  38 O   -7.785  10.315  -3.854
  39 O   -6.848 -11.961   3.859
  40 O    6.919 -11.958   3.895
  41 O    5.967  10.318  -3.795
  42 O  -13.748  -0.008   3.915

 *******************************************************************************
 FINISHED BASIS SET HANDLING 
 *******************************************************************************

 INFORMATION **** SET_MPP **** PCRYSTAL CALCULATION
 INFORMATION **** READM2 **** NEW DEFAULT: FOCK/KS MATRIX MIXING SET TO 30 %
 INFORMATION **** READM2 **** NEW DEFAULT: FULL DIRECT SCF MODE
 INFORMATION **** READM2 **** NEW DEFAULT: COULOMB BIPOLAR BUFFER SET TO 32 Mb
 INFORMATION **** READM2 **** NEW DEFAULT: EXCHANGE BIPOLAR BUFFER SET TO 32 Mb

 *******************************************************************************
 NEW DEFAULT: DFT INTEGRATION GRID INCREASED TO XLGRID
 NEW DEFAULT: DIIS ACCELERATOR ACTIVE
 USE KEYWORD NODIIS TO TURN IT OFF
 *******************************************************************************

 WARNING **** RDDFTP **** HSEsol-HJS ACTIVE
 RANGE SEPARATION - OMEGA:   0.110000000000000     
 WARNING **** RDDFTP **** HSEsol-3c has to be combined with sol-def2-mSVP basis set
 *******************************************************************************
 N. OF ATOMS PER CELL        42  COULOMB OVERLAP TOL         (T1) 10**   -6
 NUMBER OF SHELLS           234  COULOMB PENETRATION TOL     (T2) 10**   -6
 NUMBER OF AO               474  EXCHANGE OVERLAP TOL        (T3) 10**   -6
 N. OF ELECTRONS PER CELL   198  EXCHANGE PSEUDO OVP (F(G))  (T4) 10**   -6
 CORE ELECTRONS PER CELL     60  EXCHANGE PSEUDO OVP (P(G))  (T5) 10**  -12
 N. OF SYMMETRY OPERATORS     1  POLE ORDER IN MONO ZONE                  4
 *******************************************************************************
 TYPE OF CALCULATION :  RESTRICTED CLOSED SHELL
 KOHN-SHAM HAMILTONIAN

 (EXCHANGE)[CORRELATION] FUNCTIONAL:(HSEsol GGA)[PBEsol]

 RANGE-SEPARATED HYBRID FUNCTIONAL 
 OMEGA (SHORT-RANGE)[LONG-RANGE]:(    0.1100)[    0.0000]

 HYBRID EXCHANGE - PERCENTAGE OF FOCK EXCHANGE    25.0000

 CAPPA:IS1  2;IS2  2;IS3  8; K PTS MONK NET  20; SYMMOPS:K SPACE   2;G SPACE   1

 *******************************************************************************
 MAX NUMBER OF SCF CYCLES      50  CONVERGENCE ON DELTAP        10**-16
 WEIGHT OF F(I) IN F(I+1)      30% CONVERGENCE ON ENERGY        10**- 6
 SHRINK. FACT.(MONKH.)    2  2  8  NUMBER OF K POINTS IN THE IBZ     20
 SHRINKING FACTOR(GILAT NET)    8  NUMBER OF K POINTS(GILAT NET)   1028
 *******************************************************************************
 *** K POINTS COORDINATES (OBLIQUE COORDINATES IN UNITS OF IS =  2)
   1-R(  0  0  0)   2-R(  1  0  0)   3-R(  0  1  0)   4-R(  1  1  0)
   5-C(  0  0  1)   6-C(  1  0  1)   7-C(  0  1  1)   8-C(  1  1  1)
   9-C(  0  0  2)  10-C(  1  0  2)  11-C(  0  1  2)  12-C(  1  1  2)
  13-C(  0  0  3)  14-C(  1  0  3)  15-C(  0  1  3)  16-C(  1  1  3)
  17-R(  0  0  4)  18-R(  1  0  4)  19-R(  0  1  4)  20-R(  1  1  4)

 DIRECT LATTICE VECTORS COMPON. (A.U.)     RECIP. LATTICE VECTORS COMPON. (A.U.) 
        X            Y            Z              X            Y            Z
   24.5689761  -14.2152832    0.0000000      0.2557366    0.0000000   -0.0312321
    0.0000000   28.4297713    0.0000000      0.1278719    0.2210072   -0.0622605
    0.9462326    1.6352277    7.7479902      0.0000000    0.0000000    0.8109439

 DISK SPACE FOR EIGENVECTORS (FTN 10)     7189632 REALS

 SYMMETRY ADAPTION OF THE BLOCH FUNCTIONS DISABLED
 TTTTTTTTTTTTTTTTTTTTTTTTTTTTTT gordsh1     TELAPSE        0.04 TCPU        0.03

 MATRIX SIZE: P(G)  322160, F(G)   68487, P(G) IRR  162745, F(G) IRR   69183
 MAX G-VECTOR INDEX FOR 1- AND 2-ELECTRON INTEGRALS  93

 TTTTTTTTTTTTTTTTTTTTTTTTTTTTTT INPUT       TELAPSE        0.29 TCPU        0.29

 NEIGHBORS OF THE NON-EQUIVALENT ATOMS

 N = NUMBER OF NEIGHBORS AT DISTANCE R
    ATOM  N     R/ANG      R/AU   NEIGHBORS (ATOM LABELS AND CELL INDICES)
   1 B    1     1.3787     2.6054   38 O    0 0 0
   1 B    1     1.3795     2.6068   37 O   -1 0 0
   1 B    1     1.5517     2.9323   30 C    0 0 0
   1 B    1     2.3868     4.5104    2 B    0 0 0
   1 B    1     2.3912     4.5187    3 B   -1 0 0
   1 B    1     2.5629     4.8432   27 C   -1 0 0

   2 B    1     1.3792     2.6064   38 O    0 0 0
   2 B    1     1.3798     2.6075   39 O    0 1-1
   2 B    1     1.5510     2.9309   19 C    0 0 0
   2 B    1     2.3868     4.5104    1 B    0 0 0
   2 B    1     2.3894     4.5154    3 B   -1 0 0
   2 B    1     2.5618     4.8411   22 C    0 1-1

   3 B    1     1.3790     2.6060   37 O    0 0 0
   3 B    1     1.3795     2.6069   39 O    1 1-1
   3 B    1     1.5529     2.9346   36 C    0 0 0
   3 B    1     2.3894     4.5154    2 B    1 0 0
   3 B    1     2.3912     4.5187    1 B    1 0 0
   3 B    1     2.5679     4.8526   35 C    1 1-1

   4 B    1     1.3779     2.6038   41 O    0 0 0
   4 B    1     1.3786     2.6051   40 O    0 1-1
   4 B    1     1.5480     2.9252   24 C    0 0 0
   4 B    1     2.3857     4.5084    5 B    0 0 0
   4 B    1     2.3859     4.5087    6 B    1 1-1
   4 B    1     2.5585     4.8349   21 C    0 1-1

   5 B    1     1.3778     2.6037   41 O    0 0 0
   5 B    1     1.3814     2.6104   42 O    1 1-1
   5 B    1     1.5525     2.9337   31 C    0 0 0
   5 B    1     2.3857     4.5084    4 B    0 0 0
   5 B    1     2.3952     4.5263    6 B    1 1-1
   5 B    1     2.5591     4.8360   32 C    1 1-1

   6 B    1     1.3783     2.6045   40 O   -1 0 0
   6 B    1     1.3812     2.6101   42 O    0 0 0
   6 B    1     1.5546     2.9377   25 C    0 0 0
   6 B    1     2.3859     4.5087    4 B   -1-1 1
   6 B    1     2.3952     4.5263    5 B   -1-1 1
   6 B    1     2.5605     4.8387   26 C    0 0 0

   7 H    1     1.0917     2.0630   20 C    0 0 0
   7 H    1     2.1462     4.0557   19 C    0 0 0
   7 H    1     2.1712     4.1030   23 C    0 0 0
   7 H    1     2.5280     4.7772   10 H    0 0 0
   7 H    1     2.5583     4.8346   38 O    0 0 0
   7 H    1     2.7310     5.1609    2 B    0 0 0

   8 H    1     1.0909     2.0615   21 C    0 0 0
   8 H    1     2.1454     4.0543   24 C    0-1 1
   8 H    1     2.1688     4.0985   22 C    0 0 0
   8 H    1     2.5272     4.7758    9 H    0 0 0
   8 H    1     2.5563     4.8307   40 O    0 0 0
   8 H    1     2.7244     5.1484    4 B    0-1 1

   9 H    1     1.0909     2.0614   22 C    0 0 0
   9 H    1     2.1443     4.0521   19 C    0-1 1
   9 H    1     2.1694     4.0996   21 C    0 0 0
   9 H    1     2.5272     4.7758    8 H    0 0 0
   9 H    1     2.5616     4.8407   39 O    0 0 0
   9 H    1     2.7249     5.1493    2 B    0-1 1

  10 H    1     1.0912     2.0621   23 C    0 0 0
  10 H    1     2.1469     4.0570   24 C    0 0 0
  10 H    1     2.1689     4.0986   20 C    0 0 0
  10 H    1     2.5280     4.7772    7 H    0 0 0
  10 H    1     2.5562     4.8306   41 O    0 0 0
  10 H    1     2.7309     5.1607    4 B    0 0 0

  11 H    1     1.0911     2.0619   26 C    0 0 0
  11 H    1     2.1443     4.0521   25 C    0 0 0
  11 H    1     2.1685     4.0978   29 C    0 0 1
  11 H    1     2.5223     4.7664   14 H    0 0 1
  11 H    1     2.5622     4.8419   42 O    0 0 0
  11 H    1     2.7179     5.1361    6 B    0 0 0

  12 H    1     1.0917     2.0630   27 C    0 0 0
  12 H    1     2.1441     4.0518   30 C    1 0 0
  12 H    1     2.1716     4.1037   28 C    0 0-1
  12 H    1     2.5226     4.7669   13 H    0 0-1
  12 H    1     2.5541     4.8265   37 O    0 0 0
  12 H    1     2.7237     5.1471    1 B    1 0 0

  13 H    1     1.0919     2.0634   28 C    0 0 0
  13 H    1     2.1522     4.0672   25 C    1 0 0
  13 H    1     2.1668     4.0946   27 C    0 0 1
  13 H    1     2.5226     4.7669   12 H    0 0 1
  13 H    1     2.5923     4.8988   40 O    0 0 0
  13 H    1     2.7583     5.2124    6 B    1 0 0

  14 H    1     1.0915     2.0627   29 C    0 0 0
  14 H    1     2.1483     4.0597   30 C    0 0 0
  14 H    1     2.1679     4.0968   26 C    0 0-1
  14 H    1     2.5223     4.7664   11 H    0 0-1
  14 H    1     2.5809     4.8771   38 O    0 0 0
  14 H    1     2.7404     5.1785    1 B    0 0 0

  15 H    1     1.0916     2.0628   32 C    0 0 0
  15 H    1     2.1436     4.0508   31 C   -1-1 1
  15 H    1     2.1707     4.1021   35 C    0 0 0
  15 H    1     2.5217     4.7654   18 H    0 0 0
  15 H    1     2.5568     4.8316   42 O    0 0 0
  15 H    1     2.7166     5.1336    5 B   -1-1 1

  16 H    1     1.0914     2.0625   33 C    0 0 0
  16 H    1     2.1488     4.0606   36 C    0 0 0
  16 H    1     2.1663     4.0937   34 C    0 0 0
  16 H    1     2.5170     4.7564   17 H    0 0 0
  16 H    1     2.5780     4.8717   37 O    0 0 0
  16 H    1     2.7396     5.1770    3 B    0 0 0

  17 H    1     1.0921     2.0638   34 C    0 0 0
  17 H    1     2.1502     4.0633   31 C    0 0 0
  17 H    1     2.1683     4.0976   33 C    0 0 0
  17 H    1     2.5170     4.7564   16 H    0 0 0
  17 H    1     2.5870     4.8888   41 O    0 0 0
  17 H    1     2.7510     5.1986    5 B    0 0 0

  18 H    1     1.0913     2.0622   35 C    0 0 0
  18 H    1     2.1495     4.0619   36 C   -1-1 1
  18 H    1     2.1656     4.0923   32 C    0 0 0
  18 H    1     2.5217     4.7654   15 H    0 0 0
  18 H    1     2.5789     4.8734   39 O    0 0 0
  18 H    1     2.7392     5.1763    3 B   -1-1 1

  19 C    1     1.4017     2.6489   22 C    0 1-1
  19 C    1     1.4025     2.6504   20 C    0 0 0
  19 C    1     1.5510     2.9309    2 B    0 0 0
  19 C    1     2.1443     4.0521    9 H    0 1-1
  19 C    1     2.1462     4.0557    7 H    0 0 0
  19 C    1     2.4236     4.5800   21 C    0 1-1

  20 C    1     1.0917     2.0630    7 H    0 0 0
  20 C    1     1.3915     2.6296   23 C    0 0 0
  20 C    1     1.4025     2.6504   19 C    0 0 0
  20 C    1     2.1689     4.0986   10 H    0 0 0
  20 C    1     2.4191     4.5715   22 C    0 1-1
  20 C    1     2.4241     4.5809   24 C    0 0 0

  21 C    1     1.0909     2.0615    8 H    0 0 0
  21 C    1     1.3909     2.6284   22 C    0 0 0
  21 C    1     1.4015     2.6484   24 C    0-1 1
  21 C    1     2.1694     4.0996    9 H    0 0 0
  21 C    1     2.4189     4.5711   23 C    0-1 1
  21 C    1     2.4236     4.5800   19 C    0-1 1

  22 C    1     1.0909     2.0614    9 H    0 0 0
  22 C    1     1.3909     2.6284   21 C    0 0 0
  22 C    1     1.4017     2.6489   19 C    0-1 1
  22 C    1     2.1688     4.0985    8 H    0 0 0
  22 C    1     2.4191     4.5715   20 C    0-1 1
  22 C    1     2.4226     4.5780   24 C    0-1 1

  23 C    1     1.0912     2.0621   10 H    0 0 0
  23 C    1     1.3915     2.6296   20 C    0 0 0
  23 C    1     1.4021     2.6497   24 C    0 0 0
  23 C    1     2.1712     4.1030    7 H    0 0 0
  23 C    1     2.4189     4.5711   21 C    0 1-1
  23 C    1     2.4237     4.5802   19 C    0 0 0

  24 C    1     1.4015     2.6484   21 C    0 1-1
  24 C    1     1.4021     2.6497   23 C    0 0 0
  24 C    1     1.5480     2.9252    4 B    0 0 0
  24 C    1     2.1454     4.0543    8 H    0 1-1
  24 C    1     2.1469     4.0570   10 H    0 0 0
  24 C    1     2.4226     4.5780   22 C    0 1-1

  25 C    1     1.4025     2.6504   26 C    0 0 0
  25 C    1     1.4037     2.6526   28 C   -1 0 0
  25 C    1     1.5546     2.9377    6 B    0 0 0
  25 C    1     2.1443     4.0521   11 H    0 0 0
  25 C    1     2.1522     4.0672   13 H   -1 0 0
  25 C    1     2.4271     4.5866   27 C   -1 0 1

  26 C    1     1.0911     2.0619   11 H    0 0 0
  26 C    1     1.3916     2.6298   29 C    0 0 1
  26 C    1     1.4025     2.6504   25 C    0 0 0
  26 C    1     2.1679     4.0968   14 H    0 0 1
  26 C    1     2.4165     4.5665   28 C   -1 0 0
  26 C    1     2.4246     4.5819   30 C    0 0 1

  27 C    1     1.0917     2.0630   12 H    0 0 0
  27 C    1     1.3928     2.6320   28 C    0 0-1
  27 C    1     1.4024     2.6502   30 C    1 0 0
  27 C    1     2.1668     4.0946   13 H    0 0-1
  27 C    1     2.4166     4.5668   29 C    1 0 0
  27 C    1     2.4271     4.5866   25 C    1 0-1

  28 C    1     1.0919     2.0634   13 H    0 0 0
  28 C    1     1.3928     2.6320   27 C    0 0 1
  28 C    1     1.4037     2.6526   25 C    1 0 0
  28 C    1     2.1716     4.1037   12 H    0 0 1
  28 C    1     2.4165     4.5665   26 C    1 0 0
  28 C    1     2.4277     4.5877   30 C    1 0 1

  29 C    1     1.0915     2.0627   14 H    0 0 0
  29 C    1     1.3916     2.6298   26 C    0 0-1
  29 C    1     1.4023     2.6499   30 C    0 0 0
  29 C    1     2.1685     4.0978   11 H    0 0-1
  29 C    1     2.4166     4.5668   27 C   -1 0 0
  29 C    1     2.4281     4.5885   25 C    0 0-1

  30 C    1     1.4023     2.6499   29 C    0 0 0
  30 C    1     1.4024     2.6502   27 C   -1 0 0
  30 C    1     1.5517     2.9323    1 B    0 0 0
  30 C    1     2.1441     4.0518   12 H   -1 0 0
  30 C    1     2.1483     4.0597   14 H    0 0 0
  30 C    1     2.4246     4.5819   26 C    0 0-1

  31 C    1     1.4022     2.6498   32 C    1 1-1
  31 C    1     1.4030     2.6513   34 C    0 0 0
  31 C    1     1.5525     2.9337    5 B    0 0 0
  31 C    1     2.1436     4.0508   15 H    1 1-1
  31 C    1     2.1502     4.0633   17 H    0 0 0
  31 C    1     2.4265     4.5853   33 C    0 0 0

  32 C    1     1.0916     2.0628   15 H    0 0 0
  32 C    1     1.3918     2.6301   35 C    0 0 0
  32 C    1     1.4022     2.6498   31 C   -1-1 1
  32 C    1     2.1656     4.0923   18 H    0 0 0
  32 C    1     2.4163     4.5661   34 C   -1-1 1
  32 C    1     2.4270     4.5863   36 C   -1-1 1

  33 C    1     1.0914     2.0625   16 H    0 0 0
  33 C    1     1.3927     2.6318   34 C    0 0 0
  33 C    1     1.4029     2.6510   36 C    0 0 0
  33 C    1     2.1683     4.0976   17 H    0 0 0
  33 C    1     2.4155     4.5646   35 C    1 1-1
  33 C    1     2.4265     4.5853   31 C    0 0 0

  34 C    1     1.0921     2.0638   17 H    0 0 0
  34 C    1     1.3927     2.6318   33 C    0 0 0
  34 C    1     1.4030     2.6513   31 C    0 0 0
  34 C    1     2.1663     4.0937   16 H    0 0 0
  34 C    1     2.4163     4.5661   32 C    1 1-1
  34 C    1     2.4289     4.5899   36 C    0 0 0

  35 C    1     1.0913     2.0622   18 H    0 0 0
  35 C    1     1.3918     2.6301   32 C    0 0 0
  35 C    1     1.4029     2.6511   36 C   -1-1 1
  35 C    1     2.1707     4.1021   15 H    0 0 0
  35 C    1     2.4155     4.5646   33 C   -1-1 1
  35 C    1     2.4269     4.5861   31 C   -1-1 1

  36 C    1     1.4029     2.6510   33 C    0 0 0
  36 C    1     1.4029     2.6511   35 C    1 1-1
  36 C    1     1.5529     2.9346    3 B    0 0 0
  36 C    1     2.1488     4.0606   16 H    0 0 0
  36 C    1     2.1495     4.0619   18 H    1 1-1
  36 C    1     2.4270     4.5863   32 C    1 1-1

  37 O    1     1.3790     2.6060    3 B    0 0 0
  37 O    1     1.3795     2.6068    1 B    1 0 0
  37 O    1     2.3868     4.5105   39 O    1 1-1
  37 O    1     2.3885     4.5136   38 O    1 0 0
  37 O    1     2.5389     4.7979   30 C    1 0 0
  37 O    1     2.5412     4.8022   36 C    0 0 0

  38 O    1     1.3787     2.6054    1 B    0 0 0
  38 O    1     1.3792     2.6064    2 B    0 0 0
  38 O    1     2.3885     4.5136   37 O   -1 0 0
  38 O    1     2.3912     4.5188   39 O    0 1-1
  38 O    1     2.5351     4.7906   19 C    0 0 0
  38 O    1     2.5405     4.8008   30 C    0 0 0

  39 O    1     1.3795     2.6069    3 B   -1-1 1
  39 O    1     1.3798     2.6075    2 B    0-1 1
  39 O    1     2.3868     4.5105   37 O   -1-1 1
  39 O    1     2.3912     4.5188   38 O    0-1 1
  39 O    1     2.5416     4.8030   19 C    0-1 1
  39 O    1     2.5427     4.8050   36 C   -1-1 1

  40 O    1     1.3783     2.6045    6 B    1 0 0
  40 O    1     1.3786     2.6051    4 B    0-1 1
  40 O    1     2.3876     4.5120   42 O    1 0 0
  40 O    1     2.3914     4.5191   41 O    0-1 1
  40 O    1     2.5354     4.7912   25 C    1 0 0
  40 O    1     2.5360     4.7924   24 C    0-1 1

  41 O    1     1.3778     2.6037    5 B    0 0 0
  41 O    1     1.3779     2.6038    4 B    0 0 0
  41 O    1     2.3870     4.5108   42 O    1 1-1
  41 O    1     2.3914     4.5191   40 O    0 1-1
  41 O    1     2.5306     4.7821   24 C    0 0 0
  41 O    1     2.5355     4.7913   31 C    0 0 0

  42 O    1     1.3812     2.6101    6 B    0 0 0
  42 O    1     1.3814     2.6104    5 B   -1-1 1
  42 O    1     2.3870     4.5108   41 O   -1-1 1
  42 O    1     2.3876     4.5120   40 O   -1 0 0
  42 O    1     2.5481     4.8152   31 C   -1-1 1
  42 O    1     2.5522     4.8230   25 C    0 0 0


 SYMMETRY ALLOWED INTERNAL DEGREE(S) OF FREEDOM: 123
 TTTTTTTTTTTTTTTTTTTTTTTTTTTTTT SYMM        TELAPSE        0.29 TCPU        0.29
 TTTTTTTTTTTTTTTTTTTTTTTTTTTTTT INT_SCREEN  TELAPSE        0.32 TCPU        0.32

 DFT PARAMETERS

     ATOM       ELECTRONS   NET CHARGE   R(ANGSTROM)
   1   5  B       5.0000      0.0000     0.89000000
   7   1  H       1.0000      0.0000     1.11000000
  19   6  C       6.0000      0.0000     0.77000000
  37   8  O       8.0000      0.0000     0.74000000

 SIZE OF GRID=    1316407
 TTTTTTTTTTTTTTTTTTTTTTTTTTTTTT MAKE_GRID2  TELAPSE        9.59 TCPU        9.58
 BECKE WEIGHT FUNCTION
 RADSAFE =     2.00
 TOLERANCES - DENSITY:10**- 6; POTENTIAL:10**- 9; GRID WGT:10**-14

 RADIAL INTEGRATION  - INTERVALS (POINTS,UPPER LIMIT):            1( 75,  4.0*R)

 ANGULAR INTEGRATION - INTERVALS (ACCURACY LEVEL [N. POINTS] UPPER LIMIT):
  1(  4[  86]   0.2)  2(  8[ 194]   0.5)  3( 12[ 350]   0.9)  4( 16[ 974]   3.5)
  5( 12[ 350]9999.0)
 TTTTTTTTTTTTTTTTTTTTTTTTTTTTTT INT_CALC    TELAPSE        9.69 TCPU        9.68
 EEEEEEEEEE INT_CALC TERMINATION  DATE 02 12 2025 TIME 08:04:03.0

 *******************************************************************************
 COF-5_z41_inc_L010                                                              
 CRYSTAL - SCF - TYPE OF CALCULATION :  RESTRICTED CLOSED SHELL
 *******************************************************************************

 CAPPA:IS1  2;IS2  2;IS3  8; K PTS MONK NET  20; SYMMOPS:K SPACE   2;G SPACE   1

 TTTTTTTTTTTTTTTTTTTTTTTTTTTTTT SDIK        TELAPSE       10.48 TCPU       17.43

 AAAAAAAAAAAAAAAAAAAAAAAAAAAAAAAAAAAAAAAAAAAAAAAAAAAAAAAAAAAAAAAAAAAAAAAAAAAAAAA
         ATOMIC WAVEFUNCTION(S)


 NUCLEAR CHARGE  5.0  SYMMETRY SPECIES            S    P
 N. ELECTRONS    5.0  NUMBER OF PRIMITIVE GTOS    8    4
                      NUMBER OF CONTRACTED GTOS   4    2
                      NUMBER OF CLOSED SHELLS     2    0
                      OPEN SHELL OCCUPATION       0    1

  ZNUC  SCFIT    TOTAL HF ENERGY   KINETIC ENERGY   VIRIAL THEOREM ACCURACY
   5.0    11    -2.451164084E+01  2.462155050E+01 -1.995536038E+00  1.5E-06

 NUCLEAR CHARGE  1.0  SYMMETRY SPECIES            S
 N. ELECTRONS    1.0  NUMBER OF PRIMITIVE GTOS    4
                      NUMBER OF CONTRACTED GTOS   2
                      NUMBER OF CLOSED SHELLS     0
                      OPEN SHELL OCCUPATION       1

  ZNUC  SCFIT    TOTAL HF ENERGY   KINETIC ENERGY   VIRIAL THEOREM ACCURACY
   1.0     1    -4.977266687E-01  5.190767460E-01 -1.958869132E+00  0.0E+00

 NUCLEAR CHARGE  6.0  SYMMETRY SPECIES            S    P
 N. ELECTRONS    6.0  NUMBER OF PRIMITIVE GTOS    8    4
                      NUMBER OF CONTRACTED GTOS   4    2
                      NUMBER OF CLOSED SHELLS     2    0
                      OPEN SHELL OCCUPATION       0    2

  ZNUC  SCFIT    TOTAL HF ENERGY   KINETIC ENERGY   VIRIAL THEOREM ACCURACY
   6.0     9    -3.766704647E+01  3.775180683E+01 -1.997754800E+00  1.1E-06

 NUCLEAR CHARGE  8.0  SYMMETRY SPECIES            S    P
 N. ELECTRONS    8.0  NUMBER OF PRIMITIVE GTOS    8    4
                      NUMBER OF CONTRACTED GTOS   4    2
                      NUMBER OF CLOSED SHELLS     2    0
                      OPEN SHELL OCCUPATION       0    4

  ZNUC  SCFIT    TOTAL HF ENERGY   KINETIC ENERGY   VIRIAL THEOREM ACCURACY
   8.0    12    -7.477373220E+01  7.477365593E+01 -2.000001020E+00  3.8E-06

 AAAAAAAAAAAAAAAAAAAAAAAAAAAAAAAAAAAAAAAAAAAAAAAAAAAAAAAAAAAAAAAAAAAAAAAAAAAAAAA

 CHARGE NORMALIZATION FACTOR   1.00000000
 TOTAL ATOMIC CHARGES:
   5.0000000   5.0000000   5.0000000   5.0000000   5.0000000   5.0000000
   1.0000000   1.0000000   1.0000000   1.0000000   1.0000000   1.0000000
   1.0000000   1.0000000   1.0000000   1.0000000   1.0000000   1.0000000
   6.0000000   6.0000000   6.0000000   6.0000000   6.0000000   6.0000000
   6.0000000   6.0000000   6.0000000   6.0000000   6.0000000   6.0000000
   6.0000000   6.0000000   6.0000000   6.0000000   6.0000000   6.0000000
   8.0000000   8.0000000   8.0000000   8.0000000   8.0000000   8.0000000
 TTTTTTTTTTTTTTTTTTTTTTTTTTTTTT MOQGAD      TELAPSE       10.53 TCPU       18.74
 TTTTTTTTTTTTTTTTTTTTTTTTTTTTTT SHELLXN     TELAPSE       17.94 TCPU      255.15
 TTTTTTTTTTTTTTTTTTTTTTTTTTTTTT MONMO3      TELAPSE       18.10 TCPU      260.35
 NUMERICALLY INTEGRATED DENSITY    197.9999966293
 TTTTTTTTTTTTTTTTTTTTTTTTTTTTTT NUMDFT      TELAPSE       18.66 TCPU      278.20
 CYC   0 ETOT(AU) -1.295948197208E+03 DETOT -1.30E+03 tst  0.00E+00 PX  1.00E+00
 TTTTTTTTTTTTTTTTTTTTTTTTTTTTTT DIIS        TELAPSE       18.70 TCPU      279.46
 TTTTTTTTTTTTTTTTTTTTTTTTTTTTTT FDIK        TELAPSE       19.25 TCPU      296.94
 INSULATING STATE
 TOP OF VALENCE BANDS -    BAND     99; K    1; EIG -3.0862494E-01 AU
 BOTTOM OF VIRTUAL BANDS - BAND    100; K   17; EIG -1.6205402E-01 AU
 INDIRECT ENERGY BAND GAP:   3.9884 eV
 BOTTOM OF VIRTUAL BANDS - BAND    100; K    1; EIG -1.4943277E-01 AU
 TTTTTTTTTTTTTTTTTTTTTTTTTTTTTT PDIG        TELAPSE       19.53 TCPU      302.95
 CHARGE NORMALIZATION FACTOR   1.00000000
 TOTAL ATOMIC CHARGES:
   4.1543720   4.1534628   4.1546167   4.1563508   4.1536755   4.1533866
   0.7854579   0.7854207   0.7855684   0.7856131   0.7853745   0.7852854
   0.7862378   0.7858145   0.7851738   0.7857586   0.7857798   0.7860167
   6.0468735   6.2662339   6.2663230   6.2672838   6.2659950   6.0490558
   6.0428580   6.2674710   6.2656422   6.2681256   6.2679391   6.0463085
   6.0458542   6.2663241   6.2672183   6.2668384   6.2684324   6.0434883
   8.6953789   8.6945871   8.6943936   8.6941993   8.6931874   8.6966233
 TTTTTTTTTTTTTTTTTTTTTTTTTTTTTT MOQGAD      TELAPSE       19.58 TCPU      303.00
 TTTTTTTTTTTTTTTTTTTTTTTTTTTTTT SHELLXN     TELAPSE       27.65 TCPU      560.19
 TTTTTTTTTTTTTTTTTTTTTTTTTTTTTT MONMO3      TELAPSE       27.81 TCPU      565.43
 NUMERICALLY INTEGRATED DENSITY    197.9999998584
 TTTTTTTTTTTTTTTTTTTTTTTTTTTTTT NUMDFT      TELAPSE       28.39 TCPU      583.81
 CYC   1 ETOT(AU) -1.288808936989E+03 DETOT  7.14E+00 tst  0.00E+00 PX  1.00E+00
 TTTTTTTTTTTTTTTTTTTTTTTTTTTTTT DIIS        TELAPSE       28.44 TCPU      585.43
 DIIS TEST: 0.11145E+01 AT SCF   CYCLE   1 - MIX   30 %
 TTTTTTTTTTTTTTTTTTTTTTTTTTTTTT FDIK        TELAPSE       29.00 TCPU      603.32
 INSULATING STATE
 TOP OF VALENCE BANDS -    BAND     99; K    1; EIG -2.1428005E-01 AU
 BOTTOM OF VIRTUAL BANDS - BAND    100; K   17; EIG -8.4606584E-02 AU
 INDIRECT ENERGY BAND GAP:   3.5286 eV
 BOTTOM OF VIRTUAL BANDS - BAND    100; K    1; EIG -6.9082191E-02 AU
 TTTTTTTTTTTTTTTTTTTTTTTTTTTTTT PDIG        TELAPSE       29.28 TCPU      609.33
 CHARGE NORMALIZATION FACTOR   1.00000000
 TOTAL ATOMIC CHARGES:
   4.7108065   4.7099509   4.7100719   4.7103918   4.7092451   4.7108678
   0.9170677   0.9174216   0.9184073   0.9182530   0.9167570   0.9163257
   0.9173181   0.9175793   0.9166231   0.9171465   0.9180694   0.9183079
   5.8645979   6.1243498   6.1223959   6.1286560   6.1308006   5.8605478
   5.8688129   6.1231825   6.1253377   6.1287459   6.1260949   5.8637190
   5.8665070   6.1190752   6.1219155   6.1307936   6.1282776   5.8670385
   8.3376616   8.3363242   8.3405211   8.3350140   8.3375412   8.3414788
 TTTTTTTTTTTTTTTTTTTTTTTTTTTTTT MOQGAD      TELAPSE       29.33 TCPU      609.38
 TTTTTTTTTTTTTTTTTTTTTTTTTTTTTT SHELLXN     TELAPSE       37.43 TCPU      867.89
 TTTTTTTTTTTTTTTTTTTTTTTTTTTTTT MONMO3      TELAPSE       37.60 TCPU      873.31
 NUMERICALLY INTEGRATED DENSITY    198.0000053303
 TTTTTTTTTTTTTTTTTTTTTTTTTTTTTT NUMDFT      TELAPSE       38.17 TCPU      891.46
 CYC   2 ETOT(AU) -1.289003859111E+03 DETOT -1.95E-01 tst  4.63E-03 PX  1.58E-01
 TTTTTTTTTTTTTTTTTTTTTTTTTTTTTT DIIS        TELAPSE       38.23 TCPU      893.29
 DIIS TEST: 0.47610E+00 AT SCF   CYCLE   2 - DIIS ACTIVE - HISTORY:     2 CYCLES
 TTTTTTTTTTTTTTTTTTTTTTTTTTTTTT FDIK        TELAPSE       38.78 TCPU      911.04
 INSULATING STATE
 TOP OF VALENCE BANDS -    BAND     99; K    1; EIG -2.2998820E-01 AU
 BOTTOM OF VIRTUAL BANDS - BAND    100; K   17; EIG -8.0169960E-02 AU
 INDIRECT ENERGY BAND GAP:   4.0768 eV
 BOTTOM OF VIRTUAL BANDS - BAND    100; K    1; EIG -6.3552300E-02 AU
 TTTTTTTTTTTTTTTTTTTTTTTTTTTTTT PDIG        TELAPSE       39.07 TCPU      917.06
 CHARGE NORMALIZATION FACTOR   1.00000000
 TOTAL ATOMIC CHARGES:
   4.4990655   4.4972984   4.4977987   4.4993395   4.4971746   4.4980794
   0.8911276   0.8908768   0.8917534   0.8918894   0.8903549   0.8901834
   0.8919132   0.8912472   0.8898716   0.8910970   0.8921280   0.8917546
   5.8888530   6.1593654   6.1606320   6.1595289   6.1597913   5.8913818
   5.8897257   6.1582494   6.1586289   6.1610179   6.1612770   5.8917995
   5.8902390   6.1593402   6.1597689   6.1607922   6.1612224   5.8889586
   8.5101575   8.5095547   8.5087237   8.5089920   8.5069658   8.5120810
 TTTTTTTTTTTTTTTTTTTTTTTTTTTTTT MOQGAD      TELAPSE       39.12 TCPU      917.11
 TTTTTTTTTTTTTTTTTTTTTTTTTTTTTT SHELLXN     TELAPSE       46.91 TCPU     1165.32
 TTTTTTTTTTTTTTTTTTTTTTTTTTTTTT MONMO3      TELAPSE       47.06 TCPU     1170.17
 NUMERICALLY INTEGRATED DENSITY    198.0000044163
 TTTTTTTTTTTTTTTTTTTTTTTTTTTTTT NUMDFT      TELAPSE       47.61 TCPU     1187.95
 CYC   3 ETOT(AU) -1.289103574351E+03 DETOT -9.97E-02 tst  7.37E-04 PX  6.09E-02
 TTTTTTTTTTTTTTTTTTTTTTTTTTTTTT DIIS        TELAPSE       47.68 TCPU     1189.93
 DIIS TEST: 0.10769E-01 AT SCF   CYCLE   3 - DIIS ACTIVE - HISTORY:     3 CYCLES
 TTTTTTTTTTTTTTTTTTTTTTTTTTTTTT FDIK        TELAPSE       48.19 TCPU     1206.33
 INSULATING STATE
 TOP OF VALENCE BANDS -    BAND     99; K    1; EIG -2.3955000E-01 AU
 BOTTOM OF VIRTUAL BANDS - BAND    100; K   17; EIG -8.9511810E-02 AU
 INDIRECT ENERGY BAND GAP:   4.0827 eV
 BOTTOM OF VIRTUAL BANDS - BAND    100; K    1; EIG -7.3531910E-02 AU
 TTTTTTTTTTTTTTTTTTTTTTTTTTTTTT PDIG        TELAPSE       48.50 TCPU     1212.38
 CHARGE NORMALIZATION FACTOR   1.00000000
 TOTAL ATOMIC CHARGES:
   4.5058492   4.5038934   4.5041155   4.5053072   4.5032304   4.5054108
   0.8742368   0.8746720   0.8749148   0.8749847   0.8735252   0.8733987
   0.8747232   0.8747190   0.8737134   0.8745008   0.8751245   0.8751762
   5.9438256   6.1606800   6.1582271   6.1643038   6.1644437   5.9401386
   5.9447532   6.1611863   6.1611003   6.1636928   6.1615647   5.9417098
   5.9433846   6.1574006   6.1592673   6.1648463   6.1640103   5.9430176
   8.4799247   8.4786413   8.4821531   8.4776286   8.4797389   8.4828649
 TTTTTTTTTTTTTTTTTTTTTTTTTTTTTT MOQGAD      TELAPSE       48.54 TCPU     1212.43
 TTTTTTTTTTTTTTTTTTTTTTTTTTTTTT SHELLXN     TELAPSE       55.96 TCPU     1448.86
 TTTTTTTTTTTTTTTTTTTTTTTTTTTTTT MONMO3      TELAPSE       56.11 TCPU     1453.71
 NUMERICALLY INTEGRATED DENSITY    198.0000041738
 TTTTTTTTTTTTTTTTTTTTTTTTTTTTTT NUMDFT      TELAPSE       56.67 TCPU     1471.47
 CYC   4 ETOT(AU) -1.289105778809E+03 DETOT -2.20E-03 tst  2.71E-05 PX  1.18E-02
 TTTTTTTTTTTTTTTTTTTTTTTTTTTTTT DIIS        TELAPSE       56.73 TCPU     1473.43
 DIIS TEST: 0.38519E-02 AT SCF   CYCLE   4 - DIIS ACTIVE - HISTORY:     4 CYCLES
 TTTTTTTTTTTTTTTTTTTTTTTTTTTTTT FDIK        TELAPSE       57.25 TCPU     1490.00
 INSULATING STATE
 TOP OF VALENCE BANDS -    BAND     99; K    1; EIG -2.3771526E-01 AU
 BOTTOM OF VIRTUAL BANDS - BAND    100; K   17; EIG -8.8590624E-02 AU
 INDIRECT ENERGY BAND GAP:   4.0579 eV
 BOTTOM OF VIRTUAL BANDS - BAND    100; K    1; EIG -7.2429377E-02 AU
 TTTTTTTTTTTTTTTTTTTTTTTTTTTTTT PDIG        TELAPSE       57.53 TCPU     1496.01
 CHARGE NORMALIZATION FACTOR   1.00000000
 TOTAL ATOMIC CHARGES:
   4.5069345   4.5053020   4.5057326   4.5069961   4.5049644   4.5062516
   0.8778613   0.8777094   0.8785097   0.8785151   0.8771738   0.8768999
   0.8784905   0.8780027   0.8768666   0.8779159   0.8787246   0.8785688
   5.9185413   6.1624734   6.1632646   6.1647809   6.1656468   5.9202319
   5.9197452   6.1624742   6.1632957   6.1653699   6.1650460   5.9205267
   5.9204807   6.1614445   6.1624071   6.1661632   6.1657779   5.9192769
   8.4907157   8.4897969   8.4904911   8.4891009   8.4886067   8.4929222
 TTTTTTTTTTTTTTTTTTTTTTTTTTTTTT MOQGAD      TELAPSE       57.57 TCPU     1496.06
 TTTTTTTTTTTTTTTTTTTTTTTTTTTTTT SHELLXN     TELAPSE       65.35 TCPU     1744.15
 TTTTTTTTTTTTTTTTTTTTTTTTTTTTTT MONMO3      TELAPSE       65.52 TCPU     1749.51
 NUMERICALLY INTEGRATED DENSITY    198.0000042707
 TTTTTTTTTTTTTTTTTTTTTTTTTTTTTT NUMDFT      TELAPSE       66.10 TCPU     1767.96
 CYC   5 ETOT(AU) -1.289106651013E+03 DETOT -8.72E-04 tst  5.19E-06 PX  7.03E-03
 TTTTTTTTTTTTTTTTTTTTTTTTTTTTTT DIIS        TELAPSE       66.17 TCPU     1770.33
 DIIS TEST: 0.82915E-04 AT SCF   CYCLE   5 - DIIS ACTIVE - HISTORY:     5 CYCLES
 TTTTTTTTTTTTTTTTTTTTTTTTTTTTTT FDIK        TELAPSE       66.70 TCPU     1787.13
 INSULATING STATE
 TOP OF VALENCE BANDS -    BAND     99; K    1; EIG -2.3749738E-01 AU
 BOTTOM OF VIRTUAL BANDS - BAND    100; K   17; EIG -8.7976969E-02 AU
 INDIRECT ENERGY BAND GAP:   4.0687 eV
 BOTTOM OF VIRTUAL BANDS - BAND    100; K    1; EIG -7.1815255E-02 AU
 TTTTTTTTTTTTTTTTTTTTTTTTTTTTTT PDIG        TELAPSE       66.98 TCPU     1793.14
 CHARGE NORMALIZATION FACTOR   1.00000000
 TOTAL ATOMIC CHARGES:
   4.5066738   4.5049365   4.5052298   4.5064328   4.5043950   4.5060656
   0.8786256   0.8789302   0.8794025   0.8795363   0.8780360   0.8779295
   0.8793005   0.8791415   0.8779401   0.8788422   0.8796720   0.8795876
   5.9217406   6.1627969   6.1608506   6.1648789   6.1644890   5.9187386
   5.9221103   6.1623578   6.1620148   6.1649395   6.1635117   5.9203634
   5.9209518   6.1602434   6.1616010   6.1652665   6.1652099   5.9206765
   8.4894382   8.4885121   8.4905908   8.4875744   8.4882333   8.4922322
 TTTTTTTTTTTTTTTTTTTTTTTTTTTTTT MOQGAD      TELAPSE       67.03 TCPU     1793.19
 TTTTTTTTTTTTTTTTTTTTTTTTTTTTTT SHELLXN     TELAPSE       74.67 TCPU     2036.98
 TTTTTTTTTTTTTTTTTTTTTTTTTTTTTT MONMO3      TELAPSE       74.82 TCPU     2041.83
 NUMERICALLY INTEGRATED DENSITY    198.0000042715
 TTTTTTTTTTTTTTTTTTTTTTTTTTTTTT NUMDFT      TELAPSE       75.39 TCPU     2059.96
 CYC   6 ETOT(AU) -1.289106668938E+03 DETOT -1.79E-05 tst  2.27E-07 PX  9.70E-04
 TTTTTTTTTTTTTTTTTTTTTTTTTTTTTT DIIS        TELAPSE       75.46 TCPU     2062.07
 DIIS TEST: 0.12169E-04 AT SCF   CYCLE   6 - DIIS ACTIVE - HISTORY:     6 CYCLES
 TTTTTTTTTTTTTTTTTTTTTTTTTTTTTT FDIK        TELAPSE       75.98 TCPU     2078.82
 INSULATING STATE
 TOP OF VALENCE BANDS -    BAND     99; K    1; EIG -2.3750055E-01 AU
 BOTTOM OF VIRTUAL BANDS - BAND    100; K   17; EIG -8.8066882E-02 AU
 INDIRECT ENERGY BAND GAP:   4.0663 eV
 BOTTOM OF VIRTUAL BANDS - BAND    100; K    1; EIG -7.1905744E-02 AU
 TTTTTTTTTTTTTTTTTTTTTTTTTTTTTT PDIG        TELAPSE       76.27 TCPU     2084.84
 CHARGE NORMALIZATION FACTOR   1.00000000
 TOTAL ATOMIC CHARGES:
   4.5068025   4.5050615   4.5054757   4.5067980   4.5047364   4.5061487
   0.8787643   0.8786875   0.8794150   0.8794184   0.8780618   0.8778044
   0.8793702   0.8789600   0.8778263   0.8788408   0.8796277   0.8795060
   5.9196871   6.1615365   6.1620212   6.1638621   6.1648947   5.9211352
   5.9212384   6.1615646   6.1623666   6.1645458   6.1637594   5.9213529
   5.9216316   6.1602379   6.1614412   6.1653997   6.1646725   5.9202985
   8.4898969   8.4888398   8.4899699   8.4881388   8.4880933   8.4921102
 TTTTTTTTTTTTTTTTTTTTTTTTTTTTTT MOQGAD      TELAPSE       76.32 TCPU     2084.89
 TTTTTTTTTTTTTTTTTTTTTTTTTTTTTT SHELLXN     TELAPSE       84.34 TCPU     2340.62
 TTTTTTTTTTTTTTTTTTTTTTTTTTTTTT MONMO3      TELAPSE       84.50 TCPU     2345.84
 NUMERICALLY INTEGRATED DENSITY    198.0000042727
 TTTTTTTTTTTTTTTTTTTTTTTTTTTTTT NUMDFT      TELAPSE       85.07 TCPU     2364.04
 CYC   7 ETOT(AU) -1.289106670708E+03 DETOT -1.77E-06 tst  1.51E-07 PX  5.47E-04
 TTTTTTTTTTTTTTTTTTTTTTTTTTTTTT DIIS        TELAPSE       85.16 TCPU     2366.78
 DIIS TEST: 0.34285E-05 AT SCF   CYCLE   7 - DIIS ACTIVE - HISTORY:     7 CYCLES
 TTTTTTTTTTTTTTTTTTTTTTTTTTTTTT FDIK        TELAPSE       85.72 TCPU     2384.83
 INSULATING STATE
 TOP OF VALENCE BANDS -    BAND     99; K    1; EIG -2.3751009E-01 AU
 BOTTOM OF VIRTUAL BANDS - BAND    100; K   17; EIG -8.8093883E-02 AU
 INDIRECT ENERGY BAND GAP:   4.0658 eV
 BOTTOM OF VIRTUAL BANDS - BAND    100; K    1; EIG -7.1930492E-02 AU
 TTTTTTTTTTTTTTTTTTTTTTTTTTTTTT PDIG        TELAPSE       86.01 TCPU     2390.84
 CHARGE NORMALIZATION FACTOR   1.00000000
 TOTAL ATOMIC CHARGES:
   4.5068937   4.5051905   4.5055647   4.5068020   4.5047577   4.5062266
   0.8786619   0.8787041   0.8793431   0.8794082   0.8779922   0.8777912
   0.8793026   0.8789438   0.8777935   0.8787872   0.8795940   0.8794566
   5.9205366   6.1619962   6.1616074   6.1643076   6.1645809   5.9200871
   5.9212928   6.1618559   6.1621905   6.1645439   6.1638405   5.9210904
   5.9212160   6.1603174   6.1614231   6.1651694   6.1650156   5.9205159
   8.4897743   8.4888602   8.4901857   8.4880480   8.4880737   8.4922577
 TTTTTTTTTTTTTTTTTTTTTTTTTTTTTT MOQGAD      TELAPSE       86.05 TCPU     2390.89
 TTTTTTTTTTTTTTTTTTTTTTTTTTTTTT SHELLXN     TELAPSE       94.14 TCPU     2648.59
 TTTTTTTTTTTTTTTTTTTTTTTTTTTTTT MONMO3      TELAPSE       94.30 TCPU     2653.85
 NUMERICALLY INTEGRATED DENSITY    198.0000042740
 TTTTTTTTTTTTTTTTTTTTTTTTTTTTTT NUMDFT      TELAPSE       94.89 TCPU     2672.54
 CYC   8 ETOT(AU) -1.289106671493E+03 DETOT -7.86E-07 tst  3.16E-08 PX  2.56E-04
 TTTTTTTTTTTTTTTTTTTTTTTTTTTTTT DIIS        TELAPSE       94.97 TCPU     2675.33
 DIIS TEST: 0.18227E-06 AT SCF   CYCLE   8 - DIIS ACTIVE - HISTORY:     8 CYCLES
 TTTTTTTTTTTTTTTTTTTTTTTTTTTTTT FDIK        TELAPSE       95.53 TCPU     2693.19
 INSULATING STATE
 TOP OF VALENCE BANDS -    BAND     99; K    1; EIG -2.3751493E-01 AU
 BOTTOM OF VIRTUAL BANDS - BAND    100; K   17; EIG -8.8088652E-02 AU
 INDIRECT ENERGY BAND GAP:   4.0661 eV
 BOTTOM OF VIRTUAL BANDS - BAND    100; K    1; EIG -7.1924800E-02 AU
 TTTTTTTTTTTTTTTTTTTTTTTTTTTTTT PDIG        TELAPSE       95.83 TCPU     2699.22
 CHARGE NORMALIZATION FACTOR   1.00000000
 TOTAL ATOMIC CHARGES:
   4.5068740   4.5051590   4.5055240   4.5067932   4.5047457   4.5062450
   0.8786401   0.8787050   0.8793395   0.8793926   0.8779814   0.8777824
   0.8792727   0.8789555   0.8777938   0.8787682   0.8795711   0.8794637
   5.9203820   6.1620389   6.1616146   6.1642658   6.1647417   5.9201593
   5.9214709   6.1619002   6.1622372   6.1647229   6.1637109   5.9208729
   5.9213074   6.1602888   6.1615125   6.1653644   6.1649077   5.9203488
   8.4897732   8.4887895   8.4902171   8.4879980   8.4881537   8.4922146
 TTTTTTTTTTTTTTTTTTTTTTTTTTTTTT MOQGAD      TELAPSE       95.88 TCPU     2699.26
 TTTTTTTTTTTTTTTTTTTTTTTTTTTTTT SHELLXN     TELAPSE      103.88 TCPU     2954.29
 +++ ENERGIES IN A.U. +++
 ::: EXT EL-POLE                                  -1.2091810160650E+03
 ::: EXT EL-SPHEROPOLE                             1.3942764724168E+01
 ::: BIELET ZONE E-E                               2.1184172684153E+03
 ::: TOTAL E-E                                     9.2317901707453E+02
 ::: TOTAL E-N + N-E                              -3.6763606274327E+03
 ::: TOTAL N-N                                     3.1787342752365E+02
 ::: KINETIC ENERGY                                1.2799116913510E+03
 ::: PSEUDO TOTAL   ENERGY                        -1.1553964914835E+03
 ::: VIRIAL COEFFICIENT                            1.0511291345979E+00
 TTTTTTTTTTTTTTTTTTTTTTTTTTTTTT MONMO3      TELAPSE      104.03 TCPU     2959.14
 NUMERICALLY INTEGRATED DENSITY    198.0000042738
 EXCHANGE ENERGY: -0.126020615330E+03  CORRELATION ENERGY: -0.768956475221E+01
 TTTTTTTTTTTTTTTTTTTTTTTTTTTTTT NUMDFT      TELAPSE      104.59 TCPU     2976.87
 CYC   9 ETOT(AU) -1.289106671566E+03 DETOT -7.25E-08 tst  1.62E-09 PX  2.56E-04

 == SCF ENDED - CONVERGENCE ON ENERGY      E(AU) -1.2891066715659E+03 CYCLES   9


 ENERGY EXPRESSION=HARTREE+FOCK EXCH*0.00000+(HSESOL     EXCH)*1.00000+PBESOL     CORR


 TOTAL ENERGY(DFT)(AU)(  9) -1.2891066715659E+03 DE-7.2E-08 tester 1.6E-09
 TTTTTTTTTTTTTTTTTTTTTTTTTTTTTT EDFT        TELAPSE      104.59 TCPU     2976.88
 
 INFORMATION **** DFTD3 ENERGY **** CALCULATE DFTD3 ENERGY

           DFT-D V3(BJ)
 DF                                         hsesol3c  
 parameters
 s6       :    1.0000
 s8       :    0.0000
 a1       :    0.5196
 a2       :    4.9385
 k1 k3    :   16.0000   -4.0000
 Cutoff   :   50.2022
 CN-Cutoff:   21.1671
 ABC-Cutoff:   21.1671
 
 Edisp /kcal,au:   -25.2877 -0.04029849

 E6    /kcal :   -26.9430
 E8    /kcal :     0.0000
 E6(ABC) "   :   1.655298
 
 INFORMATION **** DFTD3 ENERGY **** NORMAL TERMINATION OF DFTD3 MODULE

 GCP ENERGY CALCULATION
  level        hsesol3c            basis:hsesol3c
  Nbf            474
  Atoms           42

  Parameters: 
  sigma     1.0000
  eta       1.4281
  alpha     0.2936
  beta      1.9467

  dmp_scal      4.0000
  dmp_exp       6.0000
 cutoffs: 
   distance [bohr] 60.0
   noise    [a.u.] 2.2E-16
 SR-damping   T
 ** gCP correction **
  Egcp:        0.0829757406 / (a.u.) ||      52.0681 / (kcal/mol)
 INFORMATION **** GCP **** NORMAL TERMINATION OF GCP MODULE

 *******************************************************************************

 DFT-D3-GCP DISPERSION AND COUNTERPOISE CORRECTION

 D3 DISPERSION ENERGY (AU)      -4.0298494211875E-02
 GCP ENERGY (AU)                 8.2975740580980E-02
 TOTAL ENERGY + DISP + GCP (AU) -1.2890639943195E+03

 *******************************************************************************

 EIGENVECTORS IN FORTRAN UNIT 10
 TTTTTTTTTTTTTTTTTTTTTTTTTTTTTT END         TELAPSE      105.67 TCPU     2983.81
 EEEEEEEEEE TERMINATION  DATE 02 12 2025 TIME 08:05:39.0
