 Default number of threads is:           32

         
 *******************************************************************************
 *                                                                             *
 *                               CRYSTAL23                                     *
 *                      public : 1.0.1 - October 2022                          *
 *                       HTTP://WWW.CRYSTAL.UNITO.IT                           *
 *                                                                             *
 *                              MAIN AUTHORS                                   *
 *                                                                             *
 *  R. DOVESI(1,11), V.R. SAUNDERS(2), C. ROETTI(1,11), R. ORLANDO(1,11),      *
 *  C.M. ZICOVICH-WILSON(1,3), F. PASCALE(4), B. CIVALLERI(1,11),              *
 *  K. DOLL(5), N.M. HARRISON(6), I.J. BUSH(7), Ph. D'ARCO(8),                 *
 *  M. LLUNELL(9), M. CAUSA'(10), Y. NOEL(8), L. MASCHIO(1,11), A. ERBA(1,11)  *
 *  M. RE'RAT(14), S. CASASSA(1,11), B.G. SEARLE(2), J.K. DESMARAIS(1)         *
 *                                                                             *
 *        CONTRIBUTIONS TO THE CODE HAVE ALSO BEEN GIVEN BY                    *
 *                                                                             *
 *  M. FERRABONE(1,11), M. DE LA PIERRE(1,11), M. FERRERO(1,11),               *
 *  J. BAIMA(1,11), E. ALBANESE(1,11), M.F. PEINTINGER(12), R. BAST(13),       *
 *  B. KIRTMAN(15), V. LACIVITA(1,11), R. DEMICHELIS(1,16)                     *
 *  G. BRANDEBURG(17), S. SALUSTRO(1,11), G. SANSONE(1,11)                     *
 *  M.T. RUGGIERO(18), L.E. DAGA(1), L. DONA'(1), A. COSSARD(1)                *
 *                                                                             *
 * (1) THEORETICAL CHEMISTRY GROUP - UNIVERSITA' DI TORINO - TORINO (ITALY)    *
 * (2) SCIENTIFIC COMPUTING DEPARTMENT - STFC DARESBURY (UK)                   *
 * (3) UNIVERSIDAD AUTONOMA DEL ESTADO DE MORELOS - CUERNAVACA (MEXICO)        *
 * (4) UNIVERSITE' DE LORRAINE - NANCY (FRANCE)                                *
 * (5) UNIVERSITAET STUTTGART- STUTTGART (GERMANY)                             *
 * (6) IMPERIAL COLLEGE - LONDON (UK)                                          *
 * (7) SCIENTIFIC COMPUTING DEPARTMENT - STFC RAL (UK)                         *
 * (8) UPMC - SORBONNE UNIVERSITES - PARIS (FRANCE)                            *
 * (9) UNIVERSIDAD DE BARCELONA - BARCELONA (SPAIN)                            *
 *(10) UNIVERSITA' DI NAPOLI "FEDERICO II" - NAPOLI (ITALY)                    *
 *(11) NIS - NANOSTRUCTURED INTERFACES AND SURFACES - TORINO (ITALY)           *
 *(12) MPI FUER CHEMISCHE ENERGIEKONVERSION - MUELHEIM AN DER RUHR (GERMANY)   *
 *(13) UNIVERSITY OF TROMSO - TROMSO (NORWAY)                                  *
 *(14) UNIVERSITE' DE PAU ET DES PAYS DE L'ADOUR - PAU (FRANCE)                *
 *(15) UNIVERSITY OF CALIFORNIA SANTA BARBARA - SANTA BARBARA (USA)            *
 *(16) CURTIN UNIVERSITY - PERTH (AUSTRALIA)                                   *
 *(17) UNIVERSITY COLLEGE LONDON - LONDON (UK)                                 *
 *(18) UNIVERSITY OF VERMONT - BURLINGTON (USA)                                *
 *                                                                             *
 *******************************************************************************
 EEEEEEEEEE STARTING  DATE 19 02 2026 TIME 17:58:38.6
 cof-1_z32_L030_incl                                                             

 CRYSTAL CALCULATION
 (INPUT ACCORDING TO THE INTERNATIONAL TABLES FOR X-RAY CRYSTALLOGRAPHY)
 CRYSTAL FAMILY                       :  TRICLINIC   
 CRYSTAL CLASS  (GROTH - 1921)        :  TRICLINIC PEDIAL                     

 SPACE GROUP (NONCENTROSYMMETRIC)     :  P 1             

 LATTICE PARAMETERS  (ANGSTROMS AND DEGREES) - CONVENTIONAL CELL
        A           B           C        ALPHA        BETA       GAMMA
    15.02361    15.02392     4.38634    53.67745    89.99996   119.99596


 NUMBER OF IRREDUCIBLE ATOMS IN THE CONVENTIONAL CELL:   42

 INPUT COORDINATES

 ATOM AT. N.              COORDINATES
   1   5     5.558738800000E-01  1.116931400000E-01  5.014899400000E-01
   2   5     7.149295400000E-01  2.707528000000E-01  5.014899600000E-01
   3   5     5.562313800000E-01  2.714592100000E-01  4.983514800000E-01
   4   5     1.694485900000E-01  4.980081400000E-01  5.014899500000E-01
   5   5     3.285565600000E-01  4.979873700000E-01  5.014899400000E-01
   6   5     3.288986100000E-01  6.578501900000E-01  4.983514800000E-01
   7   1     8.459869800000E-01  1.948051800000E-01  4.949832600000E-01
   8   1     3.969258000000E-02  5.771579700000E-01  4.939882700000E-01
   9   1     8.460471300000E-01  4.802122700000E-01  4.938351300000E-01
  10   1     3.980748000000E-02  2.918159700000E-01  4.938733300000E-01
  11   1     6.328198400000E-01 -1.943284000000E-02  5.050112300000E-01
  12   1     2.506024600000E-01  7.867709300000E-01  5.060062800000E-01
  13   1     3.475250700000E-01 -1.965172000000E-02  5.061595100000E-01
  14   1     5.359717200000E-01  7.866544800000E-01  5.061210600000E-01
  15   1     6.340161000000E-01  4.799293200000E-01  4.949833100000E-01
  16   1     2.520198900000E-01  2.917138800000E-01  4.939882000000E-01
  17   1     3.489162900000E-01  1.949631200000E-01  4.938350100000E-01
  18   1     5.373621700000E-01  5.770889400000E-01  4.938734500000E-01
  19   6     8.344586600000E-01  3.310687100000E-01  4.982366400000E-01
  20   6     8.894148200000E-01  2.786254500000E-01  4.951363800000E-01
  21   6    -3.655290000000E-03  4.930868700000E-01  4.948685500000E-01
  22   6     8.893160500000E-01  4.394084500000E-01  4.956723000000E-01
  23   6    -3.471470000000E-03  3.324427700000E-01  4.936054200000E-01
  24   6     5.089542000000E-02  4.397430700000E-01  4.957105400000E-01
  25   6     4.962018700000E-01 -7.518390000000E-03  5.017578800000E-01
  26   6     5.489829400000E-01 -6.284571000000E-02  5.048580900000E-01
  27   6     3.345728800000E-01  8.301997400000E-01  5.051260100000E-01
  28   6     3.881544300000E-01 -6.267525000000E-02  5.043222900000E-01
  29   6     4.953454700000E-01  8.298689400000E-01  5.063890200000E-01
  30   6     3.877991800000E-01  7.757227900000E-01  5.042839700000E-01
  31   6     4.966132200000E-01  3.309995700000E-01  4.982366300000E-01
  32   6     5.501359300000E-01  4.394655900000E-01  4.951364400000E-01
  33   6     3.357799600000E-01  3.320736200000E-01  4.948684900000E-01
  34   6     3.891512100000E-01  2.784062700000E-01  4.956722200000E-01
  35   6     4.968451400000E-01  4.932907900000E-01  4.936055000000E-01
  36   6     3.888195100000E-01  4.396656700000E-01  4.957105400000E-01
  37   8     5.031947300000E-01  1.652750300000E-01  4.991934900000E-01
  38   8     6.613765000000E-01  1.637560700000E-01  5.058149200000E-01
  39   8     6.625257100000E-01  3.250044200000E-01  4.958253900000E-01
  40   8     2.227825600000E-01  6.045555000000E-01  4.991935200000E-01
  41   8     2.220387700000E-01  4.440733500000E-01  5.058149200000E-01
  42   8     3.821101300000E-01  6.053163800000E-01  4.958253700000E-01

 *******************************************************************************

 << INFORMATION >>: FROM NOW ON, ALL COORDINATES REFER TO THE PRIMITIVE CELL

 *******************************************************************************

 LATTICE PARAMETERS  (ANGSTROMS AND DEGREES) - PRIMITIVE CELL
       A          B          C        ALPHA      BETA     GAMMA        VOLUME
   15.02361   15.02392    4.38634    53.67745  89.99996 119.99596    625.544377

 COORDINATES OF THE EQUIVALENT ATOMS (FRACTIONAL UNITS)

 N. ATOM EQUIV AT. N.          X                  Y                  Z

   1   1   1    5 B    -4.44126120000E-01  1.11693140000E-01 -4.98510060000E-01

   2   2   1    5 B    -2.85070460000E-01  2.70752800000E-01 -4.98510040000E-01

   3   3   1    5 B    -4.43768620000E-01  2.71459210000E-01  4.98351480000E-01

   4   4   1    5 B     1.69448590000E-01  4.98008140000E-01 -4.98510050000E-01

   5   5   1    5 B     3.28556560000E-01  4.97987370000E-01 -4.98510060000E-01

   6   6   1    5 B     3.28898610000E-01 -3.42149810000E-01  4.98351480000E-01

   7   7   1    1 H    -1.54013020000E-01  1.94805180000E-01  4.94983260000E-01

   8   8   1    1 H     3.96925800000E-02 -4.22842030000E-01  4.93988270000E-01

   9   9   1    1 H    -1.53952870000E-01  4.80212270000E-01  4.93835130000E-01

  10  10   1    1 H     3.98074800000E-02  2.91815970000E-01  4.93873330000E-01

  11  11   1    1 H    -3.67180160000E-01 -1.94328400000E-02 -4.94988770000E-01

  12  12   1    1 H     2.50602460000E-01 -2.13229070000E-01 -4.93993720000E-01

  13  13   1    1 H     3.47525070000E-01 -1.96517200000E-02 -4.93840490000E-01

  14  14   1    1 H    -4.64028280000E-01 -2.13345520000E-01 -4.93878940000E-01

  15  15   1    1 H    -3.65983900000E-01  4.79929320000E-01  4.94983310000E-01

  16  16   1    1 H     2.52019890000E-01  2.91713880000E-01  4.93988200000E-01

  17  17   1    1 H     3.48916290000E-01  1.94963120000E-01  4.93835010000E-01

  18  18   1    1 H    -4.62637830000E-01 -4.22911060000E-01  4.93873450000E-01

  19  19   1    6 C    -1.65541340000E-01  3.31068710000E-01  4.98236640000E-01

  20  20   1    6 C    -1.10585180000E-01  2.78625450000E-01  4.95136380000E-01

  21  21   1    6 C    -3.65529000000E-03  4.93086870000E-01  4.94868550000E-01

  22  22   1    6 C    -1.10683950000E-01  4.39408450000E-01  4.95672300000E-01

  23  23   1    6 C    -3.47147000000E-03  3.32442770000E-01  4.93605420000E-01

  24  24   1    6 C     5.08954200000E-02  4.39743070000E-01  4.95710540000E-01

  25  25   1    6 C     4.96201870000E-01 -7.51839000000E-03 -4.98242120000E-01

  26  26   1    6 C    -4.51017060000E-01 -6.28457100000E-02 -4.95141910000E-01

  27  27   1    6 C     3.34572880000E-01 -1.69800260000E-01 -4.94873990000E-01

  28  28   1    6 C     3.88154430000E-01 -6.26752500000E-02 -4.95677710000E-01

  29  29   1    6 C     4.95345470000E-01 -1.70131060000E-01 -4.93610980000E-01

  30  30   1    6 C     3.87799180000E-01 -2.24277210000E-01 -4.95716030000E-01

  31  31   1    6 C     4.96613220000E-01  3.30999570000E-01  4.98236630000E-01

  32  32   1    6 C    -4.49864070000E-01  4.39465590000E-01  4.95136440000E-01

  33  33   1    6 C     3.35779960000E-01  3.32073620000E-01  4.94868490000E-01

  34  34   1    6 C     3.89151210000E-01  2.78406270000E-01  4.95672220000E-01

  35  35   1    6 C     4.96845140000E-01  4.93290790000E-01  4.93605500000E-01

  36  36   1    6 C     3.88819510000E-01  4.39665670000E-01  4.95710540000E-01

  37  37   1    8 O    -4.96805270000E-01  1.65275030000E-01  4.99193490000E-01

  38  38   1    8 O    -3.38623500000E-01  1.63756070000E-01 -4.94185080000E-01

  39  39   1    8 O    -3.37474290000E-01  3.25004420000E-01  4.95825390000E-01

  40  40   1    8 O     2.22782560000E-01 -3.95444500000E-01  4.99193520000E-01

  41  41   1    8 O     2.22038770000E-01  4.44073350000E-01 -4.94185080000E-01

  42  42   1    8 O     3.82110130000E-01 -3.94683620000E-01  4.95825370000E-01

 NUMBER OF SYMMETRY OPERATORS         :    1
 *******************************************************************************
 * GEOMETRY EDITING - INPUT COORDINATES ARE GIVEN IN ANGSTROM         
 *******************************************************************************

 GCALCO - MAX INDICES DIRECT LATTICE VECTOR     8    11    33
 NO.OF VECTORS CREATED 6999 STARS 3499 RMAX   191.48210 BOHR

 GEOMETRY FOR WAVE FUNCTION - DIMENSIONALITY OF THE SYSTEM    3
 (NON PERIODIC DIRECTION: LATTICE PARAMETER FORMALLY SET TO 500)
 *******************************************************************************
 LATTICE PARAMETERS (ANGSTROMS AND DEGREES) - BOHR = 0.5291772083 ANGSTROM
 PRIMITIVE CELL - CENTRING CODE 1/0 VOLUME=   625.544377 - DENSITY  1.036 g/cm^3
         A              B              C           ALPHA      BETA       GAMMA 
    15.02361100    15.02391600     4.38634200    53.677447  89.999959 119.995964
 *******************************************************************************
 ATOMS IN THE ASYMMETRIC UNIT   42 - ATOMS IN THE UNIT CELL:   42
     ATOM                 X/A                 Y/B                 Z/C    
 *******************************************************************************
      1 T   5 B    -4.441261200000E-01  1.116931400000E-01 -4.985100600000E-01
      2 T   5 B    -2.850704600000E-01  2.707528000000E-01 -4.985100400000E-01
      3 T   5 B    -4.437686200000E-01  2.714592100000E-01  4.983514800000E-01
      4 T   5 B     1.694485900000E-01  4.980081400000E-01 -4.985100500000E-01
      5 T   5 B     3.285565600000E-01  4.979873700000E-01 -4.985100600000E-01
      6 T   5 B     3.288986100000E-01 -3.421498100000E-01  4.983514800000E-01
      7 T   1 H    -1.540130200000E-01  1.948051800000E-01  4.949832600000E-01
      8 T   1 H     3.969258000000E-02 -4.228420300000E-01  4.939882700000E-01
      9 T   1 H    -1.539528700000E-01  4.802122700000E-01  4.938351300000E-01
     10 T   1 H     3.980748000000E-02  2.918159700000E-01  4.938733300000E-01
     11 T   1 H    -3.671801600000E-01 -1.943284000000E-02 -4.949887700000E-01
     12 T   1 H     2.506024600000E-01 -2.132290700000E-01 -4.939937200000E-01
     13 T   1 H     3.475250700000E-01 -1.965172000000E-02 -4.938404900000E-01
     14 T   1 H    -4.640282800000E-01 -2.133455200000E-01 -4.938789400000E-01
     15 T   1 H    -3.659839000000E-01  4.799293200000E-01  4.949833100000E-01
     16 T   1 H     2.520198900000E-01  2.917138800000E-01  4.939882000000E-01
     17 T   1 H     3.489162900000E-01  1.949631200000E-01  4.938350100000E-01
     18 T   1 H    -4.626378300000E-01 -4.229110600000E-01  4.938734500000E-01
     19 T   6 C    -1.655413400000E-01  3.310687100000E-01  4.982366400000E-01
     20 T   6 C    -1.105851800000E-01  2.786254500000E-01  4.951363800000E-01
     21 T   6 C    -3.655290000000E-03  4.930868700000E-01  4.948685500000E-01
     22 T   6 C    -1.106839500000E-01  4.394084500000E-01  4.956723000000E-01
     23 T   6 C    -3.471470000000E-03  3.324427700000E-01  4.936054200000E-01
     24 T   6 C     5.089542000000E-02  4.397430700000E-01  4.957105400000E-01
     25 T   6 C     4.962018700000E-01 -7.518390000000E-03 -4.982421200000E-01
     26 T   6 C    -4.510170600000E-01 -6.284571000000E-02 -4.951419100000E-01
     27 T   6 C     3.345728800000E-01 -1.698002600000E-01 -4.948739900000E-01
     28 T   6 C     3.881544300000E-01 -6.267525000000E-02 -4.956777100000E-01
     29 T   6 C     4.953454700000E-01 -1.701310600000E-01 -4.936109800000E-01
     30 T   6 C     3.877991800000E-01 -2.242772100000E-01 -4.957160300000E-01
     31 T   6 C     4.966132200000E-01  3.309995700000E-01  4.982366300000E-01
     32 T   6 C    -4.498640700000E-01  4.394655900000E-01  4.951364400000E-01
     33 T   6 C     3.357799600000E-01  3.320736200000E-01  4.948684900000E-01
     34 T   6 C     3.891512100000E-01  2.784062700000E-01  4.956722200000E-01
     35 T   6 C     4.968451400000E-01  4.932907900000E-01  4.936055000000E-01
     36 T   6 C     3.888195100000E-01  4.396656700000E-01  4.957105400000E-01
     37 T   8 O    -4.968052700000E-01  1.652750300000E-01  4.991934900000E-01
     38 T   8 O    -3.386235000000E-01  1.637560700000E-01 -4.941850800000E-01
     39 T   8 O    -3.374742900000E-01  3.250044200000E-01  4.958253900000E-01
     40 T   8 O     2.227825600000E-01 -3.954445000000E-01  4.991935200000E-01
     41 T   8 O     2.220387700000E-01  4.440733500000E-01 -4.941850800000E-01
     42 T   8 O     3.821101300000E-01 -3.946836200000E-01  4.958253700000E-01

 T = ATOM BELONGING TO THE ASYMMETRIC UNIT

 ****    1 SYMMOPS - TRANSLATORS IN FRACTIONAL UNITS
 **** MATRICES AND TRANSLATORS IN THE CRYSTALLOGRAPHIC REFERENCE FRAME
   V INV                    ROTATION MATRICES                   TRANSLATORS
   1   1  1.00  0.00  0.00  0.00  1.00  0.00  0.00 -0.00  1.00  0.00  0.00  0.00

 DIRECT LATTICE VECTORS CARTESIAN COMPONENTS (ANGSTROM)
          X                    Y                    Z
   0.130113578931E+02  -0.751088897922E+01   0.000000000000E+00
   0.000000000000E+00   0.150239160000E+02   0.000000000000E+00
   0.149981004085E+01   0.259816356107E+01   0.320001751437E+01


 CARTESIAN COORDINATES - PRIMITIVE CELL
 *******************************************************************************
 *      ATOM          X(ANGSTROM)         Y(ANGSTROM)         Z(ANGSTROM)
 *******************************************************************************
    1     5 B    -6.526354290429E+00  3.718639660510E+00 -1.595240923089E+00
    2     5 B    -4.456824143256E+00  4.913689279525E+00 -1.595240859089E+00
    3     5 B     6.484948069254E+00 -1.402776678597E+00 -1.605284050057E+00
    4     5 B    -4.272417034451E-02  2.315948707700E+00 -4.795258405458E+00
    5     5 B     2.027486555965E+00  1.120594336605E+00 -4.795258437459E+00
    6     5 B     3.527040037964E+00  6.109800144889E+00 -1.605284050057E+00
    7     1 H    -2.761347700861E+00  2.771395263662E+00 -1.616062413050E+00
    8     1 H     1.257342931488E+00 -5.367407378960E+00  1.580771115893E+00
    9     1 H     2.373330371189E-01 -2.771696277742E+00  4.780298579580E+00
   10     1 H    -2.411444925085E-01  2.770229186638E+00 -1.619614208489E+00
   11     1 H    -4.020091559493E+00  3.777993837045E+00  1.616044780953E+00
   12     1 H     4.019591595419E+00 -3.771095813050E+00  1.619228958381E+00
   13     1 H     5.280916177951E+00 -1.590382813831E+00  1.619719297065E+00
   14     1 H    -5.278552575905E+00  1.594965018421E+00  1.619596256391E+00
   15     1 H    -2.519756526752E+00 -1.180422608858E+00  4.783972775690E+00
   16     1 H     2.520199406529E+00  1.175089994580E+00 -1.619246622478E+00
   17     1 H     3.780723389578E+00 -1.006661412158E+00 -1.619736833161E+00
   18     1 H    -5.278830021777E+00 -1.595794860627E+00  1.580403689882E+00
   19     6 C    -2.906467346296E+00  4.913647837249E+00 -1.605651540069E+00
   20     6 C    -2.196062881185E+00  3.704920105197E+00 -1.615572426368E+00
   21     6 C    -8.051615070533E-01  6.123136066021E+00 -1.616429487059E+00
   22     6 C     8.030758468977E-01 -3.704944228123E+00  4.786177555757E+00
   23     6 C    -8.046642143023E-01  3.704970131775E+00 -1.620471525182E+00
   24     6 C    -9.411987086663E-02  4.914166596890E+00 -1.613735104312E+00
   25     6 C     7.208801624275E+00 -2.536223776371E+00  1.605634003973E+00
   26     6 C    -5.111153150947E+00  3.755054290340E+00  1.615554730271E+00
   27     6 C     5.110840544684E+00 -3.751604607226E+00  1.616412078963E+00
   28     6 C     5.806803840873E+00 -2.546700724889E+00  1.613840160887E+00
   29     6 C    -5.806753365409E+00  2.550050892746E+00  1.620453733084E+00
   30     6 C     2.802504001556E+00  4.855562562186E+00 -4.786317492523E+00
   31     6 C     5.709062599385E+00 -6.076032952681E-02 -1.605651572069E+00
   32     6 C    -3.610921772841E+00 -1.157933788211E+00  4.784462794372E+00
   33     6 C     3.611351922227E+00  1.154625888862E+00 -1.616429679060E+00
   34     6 C     4.306989799501E+00 -5.044518091379E-02 -1.613857728983E+00
   35     6 C     5.705134378233E+00  2.363714968706E+00 -1.620471269180E+00
   36     6 C     4.302731404809E+00  2.374893422399E+00 -1.613735104312E+00
   37     8 O     5.796132089708E+00 -2.597538809766E+00 -1.602589603310E+00
   38     8 O    -5.147135294523E+00  3.719647287145E+00 -1.581400911340E+00
   39     8 O    -2.147544827611E+00 -3.719945946746E+00  4.786667446438E+00
   40     8 O     2.147589033263E+00  6.108318827191E+00 -1.602589507310E+00
   41     8 O     2.147842157581E+00  3.720038490408E+00 -1.581400911340E+00
   42     8 O     4.215605483575E+00  4.914307530200E+00 -1.613367646301E+00

 *******************************************************************************
 STARTING BASIS SET HANDLING 
 *******************************************************************************

 Loading internal basis set: SOLDEF2MSVP         

 Please cite in your publication:
 L. Dona', J. G. Brandenburg and B. Civalleri, J. Chem. Phys., 151, 121101 (2019
 )                                                                              
                                                                                
                    

 *******************************************************************************
 LOCAL ATOMIC FUNCTIONS BASIS SET
 *******************************************************************************
   ATOM   X(AU)   Y(AU)   Z(AU)  N. TYPE  EXPONENT  S COEF   P COEF   D/F/G COEF
 *******************************************************************************
   1 B  -12.333   7.027  -3.015
                                  1 S  
                                         2.410E+03 1.755E-03 0.000E+00 0.000E+00
                                         3.619E+02 1.344E-02 0.000E+00 0.000E+00
                                         8.231E+01 6.637E-02 0.000E+00 0.000E+00
                                         2.311E+01 2.303E-01 0.000E+00 0.000E+00
                                         7.252E+00 5.150E-01 0.000E+00 0.000E+00
                                  2 S  
                                         2.367E+00 1.000E+00 0.000E+00 0.000E+00
                                  3 S  
                                         5.533E-01 1.000E+00 0.000E+00 0.000E+00
                                  4 S  
                                         1.716E-01 1.000E+00 0.000E+00 0.000E+00
                           5-     7 P  
                                         6.002E+00 0.000E+00-3.555E-02 0.000E+00
                                         1.240E+00 0.000E+00-1.983E-01 0.000E+00
                                         3.367E-01 0.000E+00-5.048E-01 0.000E+00
                           8-    10 P  
                                         1.256E-01 0.000E+00 1.000E+00 0.000E+00
                          11-    15 D  
                                         8.880E-01 0.000E+00 0.000E+00 1.000E+00
   2 B   -8.422   9.286  -3.015
   3 B   12.255  -2.651  -3.034
   4 B   -0.081   4.377  -9.062
   5 B    3.831   2.118  -9.062
   6 B    6.665  11.546  -3.034
   7 H   -5.218   5.237  -3.054
                                 91 S  
                                         1.874E+01 1.968E-02 0.000E+00 0.000E+00
                                         2.826E+00 1.380E-01 0.000E+00 0.000E+00
                                         6.401E-01 4.783E-01 0.000E+00 0.000E+00
                                 92 S  
                                         1.756E-01 1.000E+00 0.000E+00 0.000E+00
   8 H    2.376 -10.143   2.987
   9 H    0.448  -5.238   9.033
  10 H   -0.456   5.235  -3.061
  11 H   -7.597   7.139   3.054
  12 H    7.596  -7.126   3.060
  13 H    9.979  -3.005   3.061
  14 H   -9.975   3.014   3.061
  15 H   -4.762  -2.231   9.040
  16 H    4.762   2.221  -3.060
  17 H    7.145  -1.902  -3.061
  18 H   -9.976  -3.016   2.987
  19 C   -5.492   9.285  -3.034
                                115 S  
                                         3.624E+03 1.634E-03 0.000E+00 0.000E+00
                                         5.440E+02 1.252E-02 0.000E+00 0.000E+00
                                         1.237E+02 6.211E-02 0.000E+00 0.000E+00
                                         3.476E+01 2.182E-01 0.000E+00 0.000E+00
                                         1.093E+01 4.980E-01 0.000E+00 0.000E+00
                                116 S  
                                         3.574E+00 1.000E+00 0.000E+00 0.000E+00
                                117 S  
                                         7.742E-01 1.000E+00 0.000E+00 0.000E+00
                                118 S  
                                         2.330E-01 1.000E+00 0.000E+00 0.000E+00
                         119-   121 P  
                                         9.443E+00 0.000E+00 3.790E-02 0.000E+00
                                         2.002E+00 0.000E+00 2.082E-01 0.000E+00
                                         5.463E-01 0.000E+00 5.047E-01 0.000E+00
                         122-   124 P  
                                         1.820E-01 0.000E+00 1.000E+00 0.000E+00
                         125-   129 D  
                                         8.880E-01 0.000E+00 0.000E+00 1.000E+00
  20 C   -4.150   7.001  -3.053
  21 C   -1.522  11.571  -3.055
  22 C    1.518  -7.001   9.045
  23 C   -1.521   7.001  -3.062
  24 C   -0.178   9.286  -3.050
  25 C   13.623  -4.793   3.034
  26 C   -9.659   7.096   3.053
  27 C    9.658  -7.090   3.055
  28 C   10.973  -4.813   3.050
  29 C  -10.973   4.819   3.062
  30 C    5.296   9.176  -9.045
  31 C   10.789  -0.115  -3.034
  32 C   -6.824  -2.188   9.041
  33 C    6.824   2.182  -3.055
  34 C    8.139  -0.095  -3.050
  35 C   10.781   4.467  -3.062
  36 C    8.131   4.488  -3.050
  37 O   10.953  -4.909  -3.028
                                385 S  
                                         6.773E+03 1.727E-03 0.000E+00 0.000E+00
                                         1.017E+03 1.325E-02 0.000E+00 0.000E+00
                                         2.313E+02 6.603E-02 0.000E+00 0.000E+00
                                         6.501E+01 2.353E-01 0.000E+00 0.000E+00
                                         2.050E+01 5.498E-01 0.000E+00 0.000E+00
                                386 S  
                                         6.716E+00 1.000E+00 0.000E+00 0.000E+00
                                387 S  
                                         1.147E+00 1.000E+00 0.000E+00 0.000E+00
                                388 S  
                                         3.342E-01 1.000E+00 0.000E+00 0.000E+00
                         389-   391 P  
                                         1.769E+01 0.000E+00 4.359E-02 0.000E+00
                                         3.854E+00 0.000E+00 2.318E-01 0.000E+00
                                         1.047E+00 0.000E+00 5.146E-01 0.000E+00
                         392-   394 P  
                                         2.759E-01 0.000E+00 1.000E+00 0.000E+00
                         395-   399 D  
                                         8.000E-01 0.000E+00 0.000E+00 1.000E+00
  38 O   -9.727   7.029  -2.988
  39 O   -4.058  -7.030   9.045
  40 O    4.058  11.543  -3.028
  41 O    4.059   7.030  -2.988
  42 O    7.966   9.287  -3.049

 *******************************************************************************
 FINISHED BASIS SET HANDLING 
 *******************************************************************************

 INFORMATION **** SET_MPP **** PCRYSTAL CALCULATION
 INFORMATION **** READM2 **** NEW DEFAULT: FOCK/KS MATRIX MIXING SET TO 30 %
 INFORMATION **** READM2 **** NEW DEFAULT: FULL DIRECT SCF MODE
 INFORMATION **** READM2 **** NEW DEFAULT: COULOMB BIPOLAR BUFFER SET TO 32 Mb
 INFORMATION **** READM2 **** NEW DEFAULT: EXCHANGE BIPOLAR BUFFER SET TO 32 Mb

 *******************************************************************************
 NEW DEFAULT: DFT INTEGRATION GRID INCREASED TO XLGRID
 NEW DEFAULT: DIIS ACCELERATOR ACTIVE
 USE KEYWORD NODIIS TO TURN IT OFF
 *******************************************************************************

 WARNING **** RDDFTP **** HSEsol-HJS ACTIVE
 RANGE SEPARATION - OMEGA:   0.110000000000000     
 WARNING **** RDDFTP **** HSEsol-3c has to be combined with sol-def2-mSVP basis set
 *******************************************************************************
 N. OF ATOMS PER CELL        42  COULOMB OVERLAP TOL         (T1) 10**   -6
 NUMBER OF SHELLS           234  COULOMB PENETRATION TOL     (T2) 10**   -6
 NUMBER OF AO               474  EXCHANGE OVERLAP TOL        (T3) 10**   -6
 N. OF ELECTRONS PER CELL   198  EXCHANGE PSEUDO OVP (F(G))  (T4) 10**   -6
 CORE ELECTRONS PER CELL     60  EXCHANGE PSEUDO OVP (P(G))  (T5) 10**  -12
 N. OF SYMMETRY OPERATORS     1  POLE ORDER IN MONO ZONE                  4
 *******************************************************************************
 TYPE OF CALCULATION :  RESTRICTED CLOSED SHELL
 KOHN-SHAM HAMILTONIAN

 (EXCHANGE)[CORRELATION] FUNCTIONAL:(HSEsol GGA)[PBEsol]

 RANGE-SEPARATED HYBRID FUNCTIONAL 
 OMEGA (SHORT-RANGE)[LONG-RANGE]:(    0.1100)[    0.0000]

 HYBRID EXCHANGE - PERCENTAGE OF FOCK EXCHANGE    25.0000

 CAPPA:IS1  2;IS2  2;IS3  8; K PTS MONK NET  20; SYMMOPS:K SPACE   2;G SPACE   1

 *******************************************************************************
 MAX NUMBER OF SCF CYCLES      50  CONVERGENCE ON DELTAP        10**-16
 WEIGHT OF F(I) IN F(I+1)      30% CONVERGENCE ON ENERGY        10**- 6
 SHRINK. FACT.(MONKH.)    2  2  8  NUMBER OF K POINTS IN THE IBZ     20
 SHRINKING FACTOR(GILAT NET)    8  NUMBER OF K POINTS(GILAT NET)   1028
 *******************************************************************************
 *** K POINTS COORDINATES (OBLIQUE COORDINATES IN UNITS OF IS =  2)
   1-R(  0  0  0)   2-R(  1  0  0)   3-R(  0  1  0)   4-R(  1  1  0)
   5-C(  0  0  1)   6-C(  1  0  1)   7-C(  0  1  1)   8-C(  1  1  1)
   9-C(  0  0  2)  10-C(  1  0  2)  11-C(  0  1  2)  12-C(  1  1  2)
  13-C(  0  0  3)  14-C(  1  0  3)  15-C(  0  1  3)  16-C(  1  1  3)
  17-R(  0  0  4)  18-R(  1  0  4)  19-R(  0  1  4)  20-R(  1  1  4)

 DIRECT LATTICE VECTORS COMPON. (A.U.)     RECIP. LATTICE VECTORS COMPON. (A.U.) 
        X            Y            Z              X            Y            Z
   24.5879030  -14.1935232    0.0000000      0.2555397    0.0000000   -0.1197684
    0.0000000   28.3910867    0.0000000      0.1277517    0.2213084   -0.2395607
    2.8342302    4.9098176    6.0471567      0.0000000    0.0000000    1.0390313

 DISK SPACE FOR EIGENVECTORS (FTN 10)     7189632 REALS

 SYMMETRY ADAPTION OF THE BLOCH FUNCTIONS DISABLED
 TTTTTTTTTTTTTTTTTTTTTTTTTTTTTT gordsh1     TELAPSE        0.04 TCPU        0.04

 MATRIX SIZE: P(G)  394526, F(G)   80203, P(G) IRR  198928, F(G) IRR   80899
 MAX G-VECTOR INDEX FOR 1- AND 2-ELECTRON INTEGRALS  61

 TTTTTTTTTTTTTTTTTTTTTTTTTTTTTT INPUT       TELAPSE        0.36 TCPU        0.36

 NEIGHBORS OF THE NON-EQUIVALENT ATOMS

 N = NUMBER OF NEIGHBORS AT DISTANCE R
    ATOM  N     R/ANG      R/AU   NEIGHBORS (ATOM LABELS AND CELL INDICES)
   1 B    1     1.3791     2.6061   37 O   -1 0 0
   1 B    1     1.3793     2.6065   38 O    0 0 0
   1 B    1     1.5503     2.9297   25 C   -1 0-1
   1 B    1     2.3895     4.5155    3 B   -1 0 0
   1 B    1     2.3898     4.5160    2 B    0 0 0
   1 B    1     2.5632     4.8437   26 C    0 0-1

   2 B    1     1.3793     2.6065   39 O    0 1-2
   2 B    1     1.3793     2.6065   38 O    0 0 0
   2 B    1     1.5504     2.9298   19 C    0 0 0
   2 B    1     2.3895     4.5156    3 B   -1 0 0
   2 B    1     2.3898     4.5160    1 B    0 0 0
   2 B    1     2.5634     4.8440   22 C    0 1-2

   3 B    1     1.3791     2.6061   37 O    0 0 0
   3 B    1     1.3793     2.6064   39 O    1 1-2
   3 B    1     1.5502     2.9294   31 C    0 0 0
   3 B    1     2.3895     4.5155    1 B    1 0 0
   3 B    1     2.3895     4.5156    2 B    1 0 0
   3 B    1     2.5629     4.8433   32 C    1 1-2

   4 B    1     1.3795     2.6068   40 O    0 0-1
   4 B    1     1.3795     2.6070   41 O    0 0-1
   4 B    1     1.5513     2.9316   24 C    0 0-1
   4 B    1     2.3905     4.5174    6 B    0 0-1
   4 B    1     2.3905     4.5175    5 B    0 0 0
   4 B    1     2.5648     4.8468   23 C    0 0-1

   5 B    1     1.3795     2.6069   41 O    0 0-1
   5 B    1     1.3797     2.6072   42 O    0 0-1
   5 B    1     1.5516     2.9322   36 C    0 0-1
   5 B    1     2.3905     4.5175    4 B    0 0 0
   5 B    1     2.3911     4.5185    6 B    0 0-1
   5 B    1     2.5651     4.8473   35 C    0 0-1

   6 B    1     1.3795     2.6068   40 O    0 0 0
   6 B    1     1.3796     2.6071   42 O    0 0 0
   6 B    1     1.5516     2.9322   30 C    0 0 1
   6 B    1     2.3905     4.5174    4 B    0 0 1
   6 B    1     2.3911     4.5185    5 B    0 0 1
   6 B    1     2.5651     4.8473   29 C    1 1-1

   7 H    1     1.0913     2.0623   20 C    0 0 0
   7 H    1     2.1472     4.0576   19 C    0 0 0
   7 H    1     2.1680     4.0969   23 C    0 0 0
   7 H    1     2.5202     4.7625   10 H    0 0 0
   7 H    1     2.5676     4.8520   38 O    0 0 0
   7 H    1     2.7321     5.1630    2 B    0 0 0

   8 H    1     1.0914     2.0625   21 C    0-1 1
   8 H    1     2.1493     4.0616   24 C    0-1 1
   8 H    1     2.1666     4.0942   22 C    0 0-1
   8 H    1     2.5198     4.7618    9 H    0 0-1
   8 H    1     2.5720     4.8604   40 O    0-1 1
   8 H    1     2.7362     5.1707    4 B    0-1 2

   9 H    1     1.0914     2.0624   22 C    0 0 0
   9 H    1     2.1471     4.0575   19 C    0-1 2
   9 H    1     2.1680     4.0970   21 C    0-1 2
   9 H    1     2.5198     4.7618    8 H    0 0 1
   9 H    1     2.5665     4.8500   39 O    0 0 0
   9 H    1     2.7315     5.1618    2 B    0-1 2

  10 H    1     1.0915     2.0626   23 C    0 0 0
  10 H    1     2.1490     4.0610   24 C    0 0 0
  10 H    1     2.1669     4.0948   20 C    0 0 0
  10 H    1     2.5202     4.7625    7 H    0 0 0
  10 H    1     2.5712     4.8588   41 O    0 0 0
  10 H    1     2.7351     5.1686    4 B    0 0 1

  11 H    1     1.0913     2.0623   26 C    0 0 0
  11 H    1     2.1469     4.0571   25 C   -1 0 0
  11 H    1     2.1680     4.0968   29 C    0 0 0
  11 H    1     2.5198     4.7617   14 H    0 0 0
  11 H    1     2.5670     4.8510   38 O    0 0 1
  11 H    1     2.7310     5.1609    1 B    0 0 1

  12 H    1     1.0914     2.0625   27 C    0 0 0
  12 H    1     2.1493     4.0617   30 C    0-1 2
  12 H    1     2.1664     4.0939   28 C    0 0 0
  12 H    1     2.5192     4.7606   13 H    0 0 0
  12 H    1     2.5735     4.8632   40 O    0-1 1
  12 H    1     2.7371     5.1723    6 B    0-1 1

  13 H    1     1.0914     2.0624   28 C    0 0 0
  13 H    1     2.1475     4.0581   25 C    0 0 0
  13 H    1     2.1679     4.0967   27 C    0 0 0
  13 H    1     2.5192     4.7606   12 H    0 0 0
  13 H    1     2.5675     4.8519   37 O    0 0 1
  13 H    1     2.7328     5.1643    1 B    1 0 1

  14 H    1     1.0914     2.0625   29 C    0 0 0
  14 H    1     2.1491     4.0612   30 C   -1-1 2
  14 H    1     2.1666     4.0942   26 C    0 0 0
  14 H    1     2.5198     4.7617   11 H    0 0 0
  14 H    1     2.5723     4.8609   42 O   -1-1 1
  14 H    1     2.7355     5.1693    6 B   -1-1 1

  15 H    1     1.0914     2.0624   32 C    0 0 0
  15 H    1     2.1475     4.0582   31 C   -1-1 2
  15 H    1     2.1678     4.0966   35 C   -1-1 2
  15 H    1     2.5200     4.7621   18 H    0 0 1
  15 H    1     2.5667     4.8503   39 O    0 0 0
  15 H    1     2.7315     5.1618    3 B   -1-1 2

  16 H    1     1.0913     2.0623   33 C    0 0 0
  16 H    1     2.1487     4.0605   36 C    0 0 0
  16 H    1     2.1667     4.0945   34 C    0 0 0
  16 H    1     2.5197     4.7616   17 H    0 0 0
  16 H    1     2.5723     4.8610   41 O    0 0 0
  16 H    1     2.7359     5.1701    5 B    0 0 1

  17 H    1     1.0915     2.0626   34 C    0 0 0
  17 H    1     2.1479     4.0589   31 C    0 0 0
  17 H    1     2.1679     4.0968   33 C    0 0 0
  17 H    1     2.5197     4.7616   16 H    0 0 0
  17 H    1     2.5677     4.8522   37 O    0 0 0
  17 H    1     2.7331     5.1648    3 B    0 0 0

  18 H    1     1.0914     2.0624   35 C   -1-1 1
  18 H    1     2.1486     4.0602   36 C   -1-1 1
  18 H    1     2.1668     4.0947   32 C    0 0-1
  18 H    1     2.5200     4.7621   15 H    0 0-1
  18 H    1     2.5717     4.8598   42 O   -1-1 1
  18 H    1     2.7349     5.1682    5 B   -1-1 2

  19 C    1     1.4020     2.6495   22 C    0 1-2
  19 C    1     1.4021     2.6495   20 C    0 0 0
  19 C    1     1.5504     2.9298    2 B    0 0 0
  19 C    1     2.1471     4.0575    9 H    0 1-2
  19 C    1     2.1472     4.0576    7 H    0 0 0
  19 C    1     2.4246     4.5817   21 C    0 0 0

  20 C    1     1.0913     2.0623    7 H    0 0 0
  20 C    1     1.3914     2.6294   23 C    0 0 0
  20 C    1     1.4021     2.6495   19 C    0 0 0
  20 C    1     2.1669     4.0948   10 H    0 0 0
  20 C    1     2.4177     4.5688   22 C    0 1-2
  20 C    1     2.4250     4.5825   24 C    0 0 0

  21 C    1     1.0914     2.0625    8 H    0 1-1
  21 C    1     1.3914     2.6293   22 C    0 1-2
  21 C    1     1.4026     2.6505   24 C    0 0 0
  21 C    1     2.1680     4.0970    9 H    0 1-2
  21 C    1     2.4182     4.5697   23 C    0 0 0
  21 C    1     2.4246     4.5817   19 C    0 0 0

  22 C    1     1.0914     2.0624    9 H    0 0 0
  22 C    1     1.3914     2.6293   21 C    0-1 2
  22 C    1     1.4020     2.6495   19 C    0-1 2
  22 C    1     2.1666     4.0942    8 H    0 0 1
  22 C    1     2.4177     4.5688   20 C    0-1 2
  22 C    1     2.4250     4.5826   24 C    0-1 2

  23 C    1     1.0915     2.0626   10 H    0 0 0
  23 C    1     1.3914     2.6294   20 C    0 0 0
  23 C    1     1.4025     2.6504   24 C    0 0 0
  23 C    1     2.1680     4.0969    7 H    0 0 0
  23 C    1     2.4182     4.5697   21 C    0 0 0
  23 C    1     2.4246     4.5818   19 C    0 0 0

  24 C    1     1.4025     2.6504   23 C    0 0 0
  24 C    1     1.4026     2.6505   21 C    0 0 0
  24 C    1     1.5513     2.9316    4 B    0 0 1
  24 C    1     2.1490     4.0610   10 H    0 0 0
  24 C    1     2.1493     4.0616    8 H    0 1-1
  24 C    1     2.4250     4.5825   20 C    0 0 0

  25 C    1     1.4020     2.6494   26 C    1 0 0
  25 C    1     1.4021     2.6495   28 C    0 0 0
  25 C    1     1.5503     2.9297    1 B    1 0 1
  25 C    1     2.1469     4.0571   11 H    1 0 0
  25 C    1     2.1475     4.0581   13 H    0 0 0
  25 C    1     2.4246     4.5818   27 C    0 0 0

  26 C    1     1.0913     2.0623   11 H    0 0 0
  26 C    1     1.3914     2.6293   29 C    0 0 0
  26 C    1     1.4020     2.6494   25 C   -1 0 0
  26 C    1     2.1666     4.0942   14 H    0 0 0
  26 C    1     2.4175     4.5684   28 C   -1 0 0
  26 C    1     2.4251     4.5828   30 C   -1-1 2

  27 C    1     1.0914     2.0625   12 H    0 0 0
  27 C    1     1.3915     2.6295   28 C    0 0 0
  27 C    1     1.4026     2.6505   30 C    0-1 2
  27 C    1     2.1679     4.0967   13 H    0 0 0
  27 C    1     2.4179     4.5691   29 C    1 0 0
  27 C    1     2.4246     4.5818   25 C    0 0 0

  28 C    1     1.0914     2.0624   13 H    0 0 0
  28 C    1     1.3915     2.6295   27 C    0 0 0
  28 C    1     1.4021     2.6495   25 C    0 0 0
  28 C    1     2.1664     4.0939   12 H    0 0 0
  28 C    1     2.4175     4.5684   26 C    1 0 0
  28 C    1     2.4253     4.5832   30 C    0-1 2

  29 C    1     1.0914     2.0625   14 H    0 0 0
  29 C    1     1.3914     2.6293   26 C    0 0 0
  29 C    1     1.4025     2.6504   30 C   -1-1 2
  29 C    1     2.1680     4.0968   11 H    0 0 0
  29 C    1     2.4179     4.5691   27 C   -1 0 0
  29 C    1     2.4247     4.5819   25 C   -1 0 0

  30 C    1     1.4025     2.6504   29 C    1 1-2
  30 C    1     1.4026     2.6505   27 C    0 1-2
  30 C    1     1.5516     2.9322    6 B    0 0-1
  30 C    1     2.1491     4.0612   14 H    1 1-2
  30 C    1     2.1493     4.0617   12 H    0 1-2
  30 C    1     2.4251     4.5828   26 C    1 1-2

  31 C    1     1.4021     2.6496   32 C    1 1-2
  31 C    1     1.4021     2.6497   34 C    0 0 0
  31 C    1     1.5502     2.9294    3 B    0 0 0
  31 C    1     2.1475     4.0582   15 H    1 1-2
  31 C    1     2.1479     4.0589   17 H    0 0 0
  31 C    1     2.4244     4.5814   33 C    0 0 0

  32 C    1     1.0914     2.0624   15 H    0 0 0
  32 C    1     1.3914     2.6293   35 C   -1-1 2
  32 C    1     1.4021     2.6496   31 C   -1-1 2
  32 C    1     2.1668     4.0947   18 H    0 0 1
  32 C    1     2.4179     4.5692   34 C   -1-1 2
  32 C    1     2.4251     4.5827   36 C   -1-1 2

  33 C    1     1.0913     2.0623   16 H    0 0 0
  33 C    1     1.3914     2.6294   34 C    0 0 0
  33 C    1     1.4025     2.6504   36 C    0 0 0
  33 C    1     2.1679     4.0968   17 H    0 0 0
  33 C    1     2.4178     4.5690   35 C    0 0 0
  33 C    1     2.4244     4.5814   31 C    0 0 0

  34 C    1     1.0915     2.0626   17 H    0 0 0
  34 C    1     1.3914     2.6294   33 C    0 0 0
  34 C    1     1.4021     2.6497   31 C    0 0 0
  34 C    1     2.1667     4.0945   16 H    0 0 0
  34 C    1     2.4179     4.5692   32 C    1 1-2
  34 C    1     2.4253     4.5832   36 C    0 0 0

  35 C    1     1.0914     2.0624   18 H    1 1-1
  35 C    1     1.3914     2.6293   32 C    1 1-2
  35 C    1     1.4025     2.6503   36 C    0 0 0
  35 C    1     2.1678     4.0966   15 H    1 1-2
  35 C    1     2.4178     4.5690   33 C    0 0 0
  35 C    1     2.4245     4.5817   31 C    0 0 0

  36 C    1     1.4025     2.6503   35 C    0 0 0
  36 C    1     1.4025     2.6504   33 C    0 0 0
  36 C    1     1.5516     2.9322    5 B    0 0 1
  36 C    1     2.1486     4.0602   18 H    1 1-1
  36 C    1     2.1487     4.0605   16 H    0 0 0
  36 C    1     2.4251     4.5827   32 C    1 1-2

  37 O    1     1.3791     2.6061    1 B    1 0 0
  37 O    1     1.3791     2.6061    3 B    0 0 0
  37 O    1     2.3880     4.5126   38 O    1 0 0
  37 O    1     2.3882     4.5130   39 O    1 1-2
  37 O    1     2.5383     4.7966   31 C    0 0 0
  37 O    1     2.5384     4.7968   25 C    0 0-1

  38 O    1     1.3793     2.6065    1 B    0 0 0
  38 O    1     1.3793     2.6065    2 B    0 0 0
  38 O    1     2.3880     4.5126   37 O   -1 0 0
  38 O    1     2.3882     4.5131   39 O    0 1-2
  38 O    1     2.5391     4.7981   19 C    0 0 0
  38 O    1     2.5395     4.7990   25 C   -1 0-1

  39 O    1     1.3793     2.6064    3 B   -1-1 2
  39 O    1     1.3793     2.6065    2 B    0-1 2
  39 O    1     2.3882     4.5130   37 O   -1-1 2
  39 O    1     2.3882     4.5131   38 O    0-1 2
  39 O    1     2.5390     4.7980   19 C    0-1 2
  39 O    1     2.5391     4.7982   31 C   -1-1 2

  40 O    1     1.3795     2.6068    6 B    0 0 0
  40 O    1     1.3795     2.6068    4 B    0 0 1
  40 O    1     2.3880     4.5126   42 O    0 0 0
  40 O    1     2.3884     4.5134   41 O    0 0 0
  40 O    1     2.5400     4.7998   24 C    0 0 0
  40 O    1     2.5403     4.8005   30 C    0 0 1

  41 O    1     1.3795     2.6069    5 B    0 0 1
  41 O    1     1.3795     2.6070    4 B    0 0 1
  41 O    1     2.3881     4.5128   42 O    0 0 0
  41 O    1     2.3884     4.5134   40 O    0 0 0
  41 O    1     2.5404     4.8006   24 C    0 0 0
  41 O    1     2.5405     4.8008   36 C    0 0 0

  42 O    1     1.3796     2.6071    6 B    0 0 0
  42 O    1     1.3797     2.6072    5 B    0 0 1
  42 O    1     2.3880     4.5126   40 O    0 0 0
  42 O    1     2.3881     4.5128   41 O    0 0 0
  42 O    1     2.5409     4.8016   36 C    0 0 0
  42 O    1     2.5410     4.8019   30 C    0 0 1


 SYMMETRY ALLOWED INTERNAL DEGREE(S) OF FREEDOM: 123
 TTTTTTTTTTTTTTTTTTTTTTTTTTTTTT SYMM        TELAPSE        0.36 TCPU        0.36
 TTTTTTTTTTTTTTTTTTTTTTTTTTTTTT INT_SCREEN  TELAPSE        0.40 TCPU        0.39

 DFT PARAMETERS

     ATOM       ELECTRONS   NET CHARGE   R(ANGSTROM)
   1   5  B       5.0000      0.0000     0.89000000
   7   1  H       1.0000      0.0000     1.11000000
  19   6  C       6.0000      0.0000     0.77000000
  37   8  O       8.0000      0.0000     0.74000000

 SIZE OF GRID=    1238587
 TTTTTTTTTTTTTTTTTTTTTTTTTTTTTT MAKE_GRID2  TELAPSE       12.25 TCPU       12.23
 BECKE WEIGHT FUNCTION
 RADSAFE =     2.00
 TOLERANCES - DENSITY:10**- 6; POTENTIAL:10**- 9; GRID WGT:10**-14

 RADIAL INTEGRATION  - INTERVALS (POINTS,UPPER LIMIT):            1( 75,  4.0*R)

 ANGULAR INTEGRATION - INTERVALS (ACCURACY LEVEL [N. POINTS] UPPER LIMIT):
  1(  4[  86]   0.2)  2(  8[ 194]   0.5)  3( 12[ 350]   0.9)  4( 16[ 974]   3.5)
  5( 12[ 350]9999.0)
 TTTTTTTTTTTTTTTTTTTTTTTTTTTTTT INT_CALC    TELAPSE       12.35 TCPU       12.34
 EEEEEEEEEE INT_CALC TERMINATION  DATE 19 02 2026 TIME 17:58:50.9

 *******************************************************************************
 cof-1_z32_L030_incl                                                             
 CRYSTAL - SCF - TYPE OF CALCULATION :  RESTRICTED CLOSED SHELL
 *******************************************************************************

 CAPPA:IS1  2;IS2  2;IS3  8; K PTS MONK NET  20; SYMMOPS:K SPACE   2;G SPACE   1

 TTTTTTTTTTTTTTTTTTTTTTTTTTTTTT SDIK        TELAPSE       12.95 TCPU       20.05

 AAAAAAAAAAAAAAAAAAAAAAAAAAAAAAAAAAAAAAAAAAAAAAAAAAAAAAAAAAAAAAAAAAAAAAAAAAAAAAA
         ATOMIC WAVEFUNCTION(S)


 NUCLEAR CHARGE  5.0  SYMMETRY SPECIES            S    P
 N. ELECTRONS    5.0  NUMBER OF PRIMITIVE GTOS    8    4
                      NUMBER OF CONTRACTED GTOS   4    2
                      NUMBER OF CLOSED SHELLS     2    0
                      OPEN SHELL OCCUPATION       0    1

  ZNUC  SCFIT    TOTAL HF ENERGY   KINETIC ENERGY   VIRIAL THEOREM ACCURACY
   5.0    11    -2.451164084E+01  2.462155050E+01 -1.995536038E+00  1.5E-06

 NUCLEAR CHARGE  1.0  SYMMETRY SPECIES            S
 N. ELECTRONS    1.0  NUMBER OF PRIMITIVE GTOS    4
                      NUMBER OF CONTRACTED GTOS   2
                      NUMBER OF CLOSED SHELLS     0
                      OPEN SHELL OCCUPATION       1

  ZNUC  SCFIT    TOTAL HF ENERGY   KINETIC ENERGY   VIRIAL THEOREM ACCURACY
   1.0     1    -4.977266687E-01  5.190767460E-01 -1.958869132E+00  0.0E+00

 NUCLEAR CHARGE  6.0  SYMMETRY SPECIES            S    P
 N. ELECTRONS    6.0  NUMBER OF PRIMITIVE GTOS    8    4
                      NUMBER OF CONTRACTED GTOS   4    2
                      NUMBER OF CLOSED SHELLS     2    0
                      OPEN SHELL OCCUPATION       0    2

  ZNUC  SCFIT    TOTAL HF ENERGY   KINETIC ENERGY   VIRIAL THEOREM ACCURACY
   6.0     9    -3.766704647E+01  3.775180683E+01 -1.997754800E+00  1.1E-06

 NUCLEAR CHARGE  8.0  SYMMETRY SPECIES            S    P
 N. ELECTRONS    8.0  NUMBER OF PRIMITIVE GTOS    8    4
                      NUMBER OF CONTRACTED GTOS   4    2
                      NUMBER OF CLOSED SHELLS     2    0
                      OPEN SHELL OCCUPATION       0    4

  ZNUC  SCFIT    TOTAL HF ENERGY   KINETIC ENERGY   VIRIAL THEOREM ACCURACY
   8.0    12    -7.477373220E+01  7.477365593E+01 -2.000001020E+00  3.8E-06

 AAAAAAAAAAAAAAAAAAAAAAAAAAAAAAAAAAAAAAAAAAAAAAAAAAAAAAAAAAAAAAAAAAAAAAAAAAAAAAA

 CHARGE NORMALIZATION FACTOR   1.00000000
 TOTAL ATOMIC CHARGES:
   5.0000000   5.0000000   5.0000000   5.0000000   5.0000000   5.0000000
   1.0000000   1.0000000   1.0000000   1.0000000   1.0000000   1.0000000
   1.0000000   1.0000000   1.0000000   1.0000000   1.0000000   1.0000000
   6.0000000   6.0000000   6.0000000   6.0000000   6.0000000   6.0000000
   6.0000000   6.0000000   6.0000000   6.0000000   6.0000000   6.0000000
   6.0000000   6.0000000   6.0000000   6.0000000   6.0000000   6.0000000
   8.0000000   8.0000000   8.0000000   8.0000000   8.0000000   8.0000000
 TTTTTTTTTTTTTTTTTTTTTTTTTTTTTT MOQGAD      TELAPSE       13.00 TCPU       21.71
 TTTTTTTTTTTTTTTTTTTTTTTTTTTTTT SHELLXN     TELAPSE       24.88 TCPU      400.72
 TTTTTTTTTTTTTTTTTTTTTTTTTTTTTT MONMO3      TELAPSE       25.06 TCPU      406.44
 NUMERICALLY INTEGRATED DENSITY    198.0000157151
 TTTTTTTTTTTTTTTTTTTTTTTTTTTTTT NUMDFT      TELAPSE       25.75 TCPU      428.63
 CYC   0 ETOT(AU) -1.296011181685E+03 DETOT -1.30E+03 tst  0.00E+00 PX  1.00E+00
 TTTTTTTTTTTTTTTTTTTTTTTTTTTTTT DIIS        TELAPSE       25.79 TCPU      429.84
 TTTTTTTTTTTTTTTTTTTTTTTTTTTTTT FDIK        TELAPSE       26.29 TCPU      445.65
 INSULATING STATE
 TOP OF VALENCE BANDS -    BAND     99; K   17; EIG -3.0022402E-01 AU
 TOP OF VALENCE BANDS -    BAND     99; K    1; EIG -3.0878584E-01 AU
 BOTTOM OF VIRTUAL BANDS - BAND    100; K    1; EIG -1.6868028E-01 AU
 INDIRECT ENERGY BAND GAP:   3.5795 eV
 TTTTTTTTTTTTTTTTTTTTTTTTTTTTTT PDIG        TELAPSE       26.60 TCPU      451.82
 CHARGE NORMALIZATION FACTOR   1.00000000
 TOTAL ATOMIC CHARGES:
   4.1249553   4.1483203   4.1490175   4.1481254   4.1479588   4.1242636
   0.7860827   0.7862163   0.7838255   0.7836889   0.7866846   0.7868997
   0.7867303   0.7868622   0.7837362   0.7837327   0.7860335   0.7862275
   6.0468034   6.2701956   6.2700190   6.2672421   6.2671082   6.0460832
   6.0555527   6.2640010   6.2639432   6.2638982   6.2639062   6.0548949
   6.0472920   6.2668255   6.2674720   6.2697067   6.2703128   6.0456325
   8.7062643   8.7064541   8.7010930   8.7070348   8.7017022   8.7072011
 TTTTTTTTTTTTTTTTTTTTTTTTTTTTTT MOQGAD      TELAPSE       26.65 TCPU      451.87
 TTTTTTTTTTTTTTTTTTTTTTTTTTTTTT SHELLXN     TELAPSE       38.96 TCPU      844.72
 TTTTTTTTTTTTTTTTTTTTTTTTTTTTTT MONMO3      TELAPSE       39.14 TCPU      850.44
 NUMERICALLY INTEGRATED DENSITY    198.0000144662
 TTTTTTTTTTTTTTTTTTTTTTTTTTTTTT NUMDFT      TELAPSE       39.85 TCPU      872.97
 CYC   1 ETOT(AU) -1.288829331293E+03 DETOT  7.18E+00 tst  0.00E+00 PX  1.00E+00
 TTTTTTTTTTTTTTTTTTTTTTTTTTTTTT DIIS        TELAPSE       39.89 TCPU      874.41
 DIIS TEST: 0.10766E+01 AT SCF   CYCLE   1 - MIX   30 %
 TTTTTTTTTTTTTTTTTTTTTTTTTTTTTT FDIK        TELAPSE       40.39 TCPU      890.35
 INSULATING STATE
 TOP OF VALENCE BANDS -    BAND     99; K   17; EIG -2.0794598E-01 AU
 TOP OF VALENCE BANDS -    BAND     99; K    1; EIG -2.2335125E-01 AU
 BOTTOM OF VIRTUAL BANDS - BAND    100; K    1; EIG -9.1777666E-02 AU
 INDIRECT ENERGY BAND GAP:   3.1611 eV
 TTTTTTTTTTTTTTTTTTTTTTTTTTTTTT PDIG        TELAPSE       40.71 TCPU      896.52
 CHARGE NORMALIZATION FACTOR   1.00000000
 TOTAL ATOMIC CHARGES:
   4.6342479   4.6848890   4.6844697   4.6843433   4.6848618   4.6325011
   0.9065994   0.9068508   0.9182478   0.9184779   0.9036244   0.9032869
   0.9034771   0.9033573   0.9182510   0.9184398   0.9064398   0.9065799
   5.8698249   6.1214106   6.1219287   6.1538602   6.1549459   5.8717563
   5.9144314   6.1421454   6.1444293   6.1441289   6.1422365   5.9168186
   5.8691528   6.1532666   6.1557180   6.1218019   6.1220736   5.8722491
   8.3376295   8.3378215   8.3694984   8.3372550   8.3695034   8.3371685
 TTTTTTTTTTTTTTTTTTTTTTTTTTTTTT MOQGAD      TELAPSE       40.76 TCPU      896.57
 TTTTTTTTTTTTTTTTTTTTTTTTTTTTTT SHELLXN     TELAPSE       53.07 TCPU     1289.28
 TTTTTTTTTTTTTTTTTTTTTTTTTTTTTT MONMO3      TELAPSE       53.25 TCPU     1294.99
 NUMERICALLY INTEGRATED DENSITY    198.0000165778
 TTTTTTTTTTTTTTTTTTTTTTTTTTTTTT NUMDFT      TELAPSE       53.95 TCPU     1317.48
 CYC   2 ETOT(AU) -1.289020087623E+03 DETOT -1.91E-01 tst  3.09E-03 PX  1.59E-01
 TTTTTTTTTTTTTTTTTTTTTTTTTTTTTT DIIS        TELAPSE       54.00 TCPU     1319.11
 DIIS TEST: 0.44783E+00 AT SCF   CYCLE   2 - DIIS ACTIVE - HISTORY:     2 CYCLES
 TTTTTTTTTTTTTTTTTTTTTTTTTTTTTT FDIK        TELAPSE       54.50 TCPU     1335.13
 INSULATING STATE
 TOP OF VALENCE BANDS -    BAND     99; K   17; EIG -2.2119681E-01 AU
 TOP OF VALENCE BANDS -    BAND     99; K    1; EIG -2.3311760E-01 AU
 BOTTOM OF VIRTUAL BANDS - BAND    100; K    1; EIG -8.7272660E-02 AU
 INDIRECT ENERGY BAND GAP:   3.6443 eV
 TTTTTTTTTTTTTTTTTTTTTTTTTTTTTT PDIG        TELAPSE       54.82 TCPU     1341.30
 CHARGE NORMALIZATION FACTOR   1.00000000
 TOTAL ATOMIC CHARGES:
   4.4378251   4.4798406   4.4798599   4.4787103   4.4787491   4.4367254
   0.8854556   0.8857733   0.8935431   0.8936198   0.8865036   0.8866678
   0.8866980   0.8864372   0.8934194   0.8937249   0.8853214   0.8856249
   5.8926164   6.1701596   6.1702862   6.1604795   6.1592434   5.8920429
   5.9274235   6.1612810   6.1606187   6.1607920   6.1609844   5.9280790
   5.8932849   6.1605900   6.1591607   6.1698719   6.1706805   5.8915694
   8.5282069   8.5286996   8.5207508   8.5288971   8.5203987   8.5293834
 TTTTTTTTTTTTTTTTTTTTTTTTTTTTTT MOQGAD      TELAPSE       54.87 TCPU     1341.35
 TTTTTTTTTTTTTTTTTTTTTTTTTTTTTT SHELLXN     TELAPSE       67.17 TCPU     1733.97
 TTTTTTTTTTTTTTTTTTTTTTTTTTTTTT MONMO3      TELAPSE       67.35 TCPU     1739.69
 NUMERICALLY INTEGRATED DENSITY    198.0000153207
 TTTTTTTTTTTTTTTTTTTTTTTTTTTTTT NUMDFT      TELAPSE       68.06 TCPU     1762.22
 CYC   3 ETOT(AU) -1.289112689928E+03 DETOT -9.26E-02 tst  7.22E-04 PX  6.77E-02
 TTTTTTTTTTTTTTTTTTTTTTTTTTTTTT DIIS        TELAPSE       68.11 TCPU     1763.99
 DIIS TEST: 0.14988E-01 AT SCF   CYCLE   3 - DIIS ACTIVE - HISTORY:     3 CYCLES
 TTTTTTTTTTTTTTTTTTTTTTTTTTTTTT FDIK        TELAPSE       68.62 TCPU     1780.08
 INSULATING STATE
 TOP OF VALENCE BANDS -    BAND     99; K   17; EIG -2.3072239E-01 AU
 TOP OF VALENCE BANDS -    BAND     99; K    1; EIG -2.4530687E-01 AU
 BOTTOM OF VIRTUAL BANDS - BAND    100; K    1; EIG -9.5672333E-02 AU
 INDIRECT ENERGY BAND GAP:   3.6749 eV
 TTTTTTTTTTTTTTTTTTTTTTTTTTTTTT PDIG        TELAPSE       68.93 TCPU     1786.25
 CHARGE NORMALIZATION FACTOR   1.00000000
 TOTAL ATOMIC CHARGES:
   4.4469535   4.4833069   4.4831613   4.4827727   4.4829966   4.4463127
   0.8699785   0.8703645   0.8761202   0.8761590   0.8668341   0.8666098
   0.8666677   0.8667246   0.8761918   0.8760905   0.8699006   0.8701455
   5.9387894   6.1605430   6.1606735   6.1794517   6.1812665   5.9413054
   5.9800117   6.1695240   6.1720183   6.1716689   6.1696407   5.9818598
   5.9384597   6.1785550   6.1822240   6.1608257   6.1606658   5.9415947
   8.4847624   8.4847194   8.5072939   8.4846213   8.5078464   8.4843884
 TTTTTTTTTTTTTTTTTTTTTTTTTTTTTT MOQGAD      TELAPSE       68.98 TCPU     1786.30
 TTTTTTTTTTTTTTTTTTTTTTTTTTTTTT SHELLXN     TELAPSE       81.29 TCPU     2178.90
 TTTTTTTTTTTTTTTTTTTTTTTTTTTTTT MONMO3      TELAPSE       81.46 TCPU     2184.62
 NUMERICALLY INTEGRATED DENSITY    198.0000160600
 TTTTTTTTTTTTTTTTTTTTTTTTTTTTTT NUMDFT      TELAPSE       82.17 TCPU     2207.17
 CYC   4 ETOT(AU) -1.289115845240E+03 DETOT -3.16E-03 tst  3.65E-05 PX  1.53E-02
 TTTTTTTTTTTTTTTTTTTTTTTTTTTTTT DIIS        TELAPSE       82.23 TCPU     2209.12
 DIIS TEST: 0.44449E-02 AT SCF   CYCLE   4 - DIIS ACTIVE - HISTORY:     4 CYCLES
 TTTTTTTTTTTTTTTTTTTTTTTTTTTTTT FDIK        TELAPSE       82.73 TCPU     2225.18
 INSULATING STATE
 TOP OF VALENCE BANDS -    BAND     99; K   17; EIG -2.2941743E-01 AU
 TOP OF VALENCE BANDS -    BAND     99; K    1; EIG -2.4303905E-01 AU
 BOTTOM OF VIRTUAL BANDS - BAND    100; K    1; EIG -9.5529390E-02 AU
 INDIRECT ENERGY BAND GAP:   3.6433 eV
 TTTTTTTTTTTTTTTTTTTTTTTTTTTTTT PDIG        TELAPSE       83.05 TCPU     2231.35
 CHARGE NORMALIZATION FACTOR   1.00000000
 TOTAL ATOMIC CHARGES:
   4.4449584   4.4879030   4.4877787   4.4869262   4.4871093   4.4436307
   0.8716245   0.8718925   0.8794852   0.8796615   0.8705305   0.8706321
   0.8706412   0.8704615   0.8794023   0.8797444   0.8714864   0.8717201
   5.9240649   6.1672009   6.1672982   6.1756807   6.1742999   5.9226100
   5.9591483   6.1712172   6.1707395   6.1709741   6.1708376   5.9591625
   5.9242082   6.1756420   6.1743662   6.1668880   6.1678523   5.9225208
   8.4993046   8.4998152   8.5056152   8.4996851   8.5051524   8.5001278
 TTTTTTTTTTTTTTTTTTTTTTTTTTTTTT MOQGAD      TELAPSE       83.10 TCPU     2231.40
 TTTTTTTTTTTTTTTTTTTTTTTTTTTTTT SHELLXN     TELAPSE       95.41 TCPU     2624.14
 TTTTTTTTTTTTTTTTTTTTTTTTTTTTTT MONMO3      TELAPSE       95.59 TCPU     2629.85
 NUMERICALLY INTEGRATED DENSITY    198.0000157118
 TTTTTTTTTTTTTTTTTTTTTTTTTTTTTT NUMDFT      TELAPSE       96.29 TCPU     2652.38
 CYC   5 ETOT(AU) -1.289116849347E+03 DETOT -1.00E-03 tst  5.12E-06 PX  7.28E-03
 TTTTTTTTTTTTTTTTTTTTTTTTTTTTTT DIIS        TELAPSE       96.36 TCPU     2654.51
 DIIS TEST: 0.10767E-03 AT SCF   CYCLE   5 - DIIS ACTIVE - HISTORY:     5 CYCLES
 TTTTTTTTTTTTTTTTTTTTTTTTTTTTTT FDIK        TELAPSE       96.86 TCPU     2670.61
 INSULATING STATE
 TOP OF VALENCE BANDS -    BAND     99; K   17; EIG -2.2903129E-01 AU
 TOP OF VALENCE BANDS -    BAND     99; K    1; EIG -2.4268726E-01 AU
 BOTTOM OF VIRTUAL BANDS - BAND    100; K    1; EIG -9.4966164E-02 AU
 INDIRECT ENERGY BAND GAP:   3.6481 eV
 TTTTTTTTTTTTTTTTTTTTTTTTTTTTTT PDIG        TELAPSE       97.18 TCPU     2676.78
 CHARGE NORMALIZATION FACTOR   1.00000000
 TOTAL ATOMIC CHARGES:
   4.4465252   4.4864330   4.4863424   4.4859238   4.4861070   4.4458574
   0.8727727   0.8731643   0.8806172   0.8806002   0.8717954   0.8715497
   0.8716566   0.8716351   0.8806556   0.8805615   0.8726669   0.8729624
   5.9199284   6.1660203   6.1664166   6.1734820   6.1760727   5.9240894
   5.9590564   6.1679779   6.1708338   6.1701430   6.1684786   5.9620423
   5.9201630   6.1727337   6.1768638   6.1664684   6.1661920   5.9239050
   8.4977901   8.4976436   8.5098535   8.4978562   8.5105962   8.4975668
 TTTTTTTTTTTTTTTTTTTTTTTTTTTTTT MOQGAD      TELAPSE       97.23 TCPU     2676.83
 TTTTTTTTTTTTTTTTTTTTTTTTTTTTTT SHELLXN     TELAPSE      109.54 TCPU     3069.54
 TTTTTTTTTTTTTTTTTTTTTTTTTTTTTT MONMO3      TELAPSE      109.71 TCPU     3075.25
 NUMERICALLY INTEGRATED DENSITY    198.0000157341
 TTTTTTTTTTTTTTTTTTTTTTTTTTTTTT NUMDFT      TELAPSE      110.42 TCPU     3097.78
 CYC   6 ETOT(AU) -1.289116861265E+03 DETOT -1.19E-05 tst  4.45E-07 PX  1.78E-03
 TTTTTTTTTTTTTTTTTTTTTTTTTTTTTT DIIS        TELAPSE      110.49 TCPU     3100.07
 DIIS TEST: 0.76298E-04 AT SCF   CYCLE   6 - DIIS ACTIVE - HISTORY:     6 CYCLES
 TTTTTTTTTTTTTTTTTTTTTTTTTTTTTT FDIK        TELAPSE      110.99 TCPU     3116.12
 INSULATING STATE
 TOP OF VALENCE BANDS -    BAND     99; K   17; EIG -2.2909769E-01 AU
 TOP OF VALENCE BANDS -    BAND     99; K    1; EIG -2.4272865E-01 AU
 BOTTOM OF VIRTUAL BANDS - BAND    100; K    1; EIG -9.4998728E-02 AU
 INDIRECT ENERGY BAND GAP:   3.6490 eV
 TTTTTTTTTTTTTTTTTTTTTTTTTTTTTT PDIG        TELAPSE      111.31 TCPU     3122.28
 CHARGE NORMALIZATION FACTOR   1.00000000
 TOTAL ATOMIC CHARGES:
   4.4461748   4.4870270   4.4869172   4.4861095   4.4862906   4.4450495
   0.8727777   0.8731002   0.8804205   0.8805705   0.8715687   0.8715968
   0.8716116   0.8715003   0.8803874   0.8806012   0.8726581   0.8729104
   5.9230798   6.1662340   6.1662529   6.1749625   6.1741256   5.9223101
   5.9600818   6.1696196   6.1697560   6.1699796   6.1692230   5.9603513
   5.9230499   6.1746381   6.1744887   6.1660504   6.1666727   5.9223884
   8.4981166   8.4984992   8.5080077   8.4983811   8.5077936   8.4986657
 TTTTTTTTTTTTTTTTTTTTTTTTTTTTTT MOQGAD      TELAPSE      111.36 TCPU     3122.34
 TTTTTTTTTTTTTTTTTTTTTTTTTTTTTT SHELLXN     TELAPSE      123.66 TCPU     3514.81
 TTTTTTTTTTTTTTTTTTTTTTTTTTTTTT MONMO3      TELAPSE      123.84 TCPU     3520.52
 NUMERICALLY INTEGRATED DENSITY    198.0000157341
 TTTTTTTTTTTTTTTTTTTTTTTTTTTTTT NUMDFT      TELAPSE      124.54 TCPU     3543.04
 CYC   7 ETOT(AU) -1.289116877985E+03 DETOT -1.67E-05 tst  3.14E-07 PX  1.08E-03
 TTTTTTTTTTTTTTTTTTTTTTTTTTTTTT DIIS        TELAPSE      124.62 TCPU     3545.54
 DIIS TEST: 0.52412E-05 AT SCF   CYCLE   7 - DIIS ACTIVE - HISTORY:     7 CYCLES
 TTTTTTTTTTTTTTTTTTTTTTTTTTTTTT FDIK        TELAPSE      125.12 TCPU     3561.62
 INSULATING STATE
 TOP OF VALENCE BANDS -    BAND     99; K   17; EIG -2.2911510E-01 AU
 TOP OF VALENCE BANDS -    BAND     99; K    1; EIG -2.4275240E-01 AU
 BOTTOM OF VIRTUAL BANDS - BAND    100; K    1; EIG -9.5035167E-02 AU
 INDIRECT ENERGY BAND GAP:   3.6485 eV
 TTTTTTTTTTTTTTTTTTTTTTTTTTTTTT PDIG        TELAPSE      125.44 TCPU     3567.79
 CHARGE NORMALIZATION FACTOR   1.00000000
 TOTAL ATOMIC CHARGES:
   4.4459733   4.4871099   4.4870052   4.4863352   4.4865128   4.4449637
   0.8727301   0.8730563   0.8804152   0.8804990   0.8715620   0.8715153
   0.8715707   0.8714520   0.8803807   0.8805320   0.8726090   0.8728684
   5.9223014   6.1661105   6.1663195   6.1743662   6.1747081   5.9232676
   5.9593533   6.1693323   6.1702592   6.1700891   6.1693331   5.9606522
   5.9224728   6.1740409   6.1750699   6.1661041   6.1665612   5.9231463
   8.4983625   8.4986039   8.5075342   8.4985992   8.5075829   8.4987390
 TTTTTTTTTTTTTTTTTTTTTTTTTTTTTT MOQGAD      TELAPSE      125.49 TCPU     3567.85
 TTTTTTTTTTTTTTTTTTTTTTTTTTTTTT SHELLXN     TELAPSE      137.79 TCPU     3960.47
 TTTTTTTTTTTTTTTTTTTTTTTTTTTTTT MONMO3      TELAPSE      137.97 TCPU     3966.18
 NUMERICALLY INTEGRATED DENSITY    198.0000157350
 TTTTTTTTTTTTTTTTTTTTTTTTTTTTTT NUMDFT      TELAPSE      138.68 TCPU     3988.74
 CYC   8 ETOT(AU) -1.289116878843E+03 DETOT -8.58E-07 tst  3.29E-08 PX  2.33E-04
 TTTTTTTTTTTTTTTTTTTTTTTTTTTTTT DIIS        TELAPSE      138.76 TCPU     3991.38
 DIIS TEST: 0.70056E-06 AT SCF   CYCLE   8 - DIIS ACTIVE - HISTORY:     8 CYCLES
 TTTTTTTTTTTTTTTTTTTTTTTTTTTTTT FDIK        TELAPSE      139.27 TCPU     4007.47
 INSULATING STATE
 TOP OF VALENCE BANDS -    BAND     99; K   17; EIG -2.2911460E-01 AU
 TOP OF VALENCE BANDS -    BAND     99; K    1; EIG -2.4275805E-01 AU
 BOTTOM OF VIRTUAL BANDS - BAND    100; K    1; EIG -9.5044682E-02 AU
 INDIRECT ENERGY BAND GAP:   3.6482 eV
 TTTTTTTTTTTTTTTTTTTTTTTTTTTTTT PDIG        TELAPSE      139.58 TCPU     4013.64
 CHARGE NORMALIZATION FACTOR   1.00000000
 TOTAL ATOMIC CHARGES:
   4.4460408   4.4871290   4.4870198   4.4863164   4.4864986   4.4450025
   0.8727087   0.8730382   0.8804051   0.8805106   0.8715505   0.8715137
   0.8715565   0.8714530   0.8803804   0.8805340   0.8725884   0.8728494
   5.9224417   6.1661311   6.1662914   6.1745516   6.1745935   5.9229654
   5.9595263   6.1693702   6.1701759   6.1701239   6.1692515   5.9605321
   5.9225433   6.1741750   6.1750073   6.1661110   6.1665458   5.9229141
   8.4982827   8.4985357   8.5078230   8.4985172   8.5078273   8.4986671
 TTTTTTTTTTTTTTTTTTTTTTTTTTTTTT MOQGAD      TELAPSE      139.63 TCPU     4013.69
 TTTTTTTTTTTTTTTTTTTTTTTTTTTTTT SHELLXN     TELAPSE      151.94 TCPU     4406.58
 +++ ENERGIES IN A.U. +++
 ::: EXT EL-POLE                                  -1.6244805324139E+03
 ::: EXT EL-SPHEROPOLE                             1.7921438668412E+01
 ::: BIELET ZONE E-E                               2.4325246324643E+03
 ::: TOTAL E-E                                     8.2596553871879E+02
 ::: TOTAL E-N + N-E                              -3.4742094380723E+03
 ::: TOTAL N-N                                     2.1288063368654E+02
 ::: KINETIC ENERGY                                1.2799838802735E+03
 ::: PSEUDO TOTAL   ENERGY                        -1.1553793853935E+03
 ::: VIRIAL COEFFICIENT                            1.0511646441566E+00
 TTTTTTTTTTTTTTTTTTTTTTTTTTTTTT MONMO3      TELAPSE      152.12 TCPU     4412.29
 NUMERICALLY INTEGRATED DENSITY    198.0000157351
 EXCHANGE ENERGY: -0.126024058582E+03  CORRELATION ENERGY: -0.771343494719E+01
 TTTTTTTTTTTTTTTTTTTTTTTTTTTTTT NUMDFT      TELAPSE      152.83 TCPU     4434.82
 CYC   9 ETOT(AU) -1.289116878923E+03 DETOT -7.96E-08 tst  1.97E-09 PX  2.33E-04

 == SCF ENDED - CONVERGENCE ON ENERGY      E(AU) -1.2891168789231E+03 CYCLES   9


 ENERGY EXPRESSION=HARTREE+FOCK EXCH*0.00000+(HSESOL     EXCH)*1.00000+PBESOL     CORR


 TOTAL ENERGY(DFT)(AU)(  9) -1.2891168789231E+03 DE-8.0E-08 tester 2.0E-09
 TTTTTTTTTTTTTTTTTTTTTTTTTTTTTT EDFT        TELAPSE      152.83 TCPU     4434.83
 
 INFORMATION **** DFTD3 ENERGY **** CALCULATE DFTD3 ENERGY

           DFT-D V3(BJ)
 DF                                         hsesol3c  
 parameters
 s6       :    1.0000
 s8       :    0.0000
 a1       :    0.5196
 a2       :    4.9385
 k1 k3    :   16.0000   -4.0000
 Cutoff   :   50.2022
 CN-Cutoff:   21.1671
 ABC-Cutoff:   21.1671
 
 Edisp /kcal,au:   -31.7275 -0.05056106

 E6    /kcal :   -33.8852
 E8    /kcal :     0.0000
 E6(ABC) "   :   2.157686
 
 INFORMATION **** DFTD3 ENERGY **** NORMAL TERMINATION OF DFTD3 MODULE

 GCP ENERGY CALCULATION
  level        hsesol3c            basis:hsesol3c
  Nbf            474
  Atoms           42

  Parameters: 
  sigma     1.0000
  eta       1.4281
  alpha     0.2936
  beta      1.9467

  dmp_scal      4.0000
  dmp_exp       6.0000
 cutoffs: 
   distance [bohr] 60.0
   noise    [a.u.] 2.2E-16
 SR-damping   T
 ** gCP correction **
  Egcp:        0.0849772457 / (a.u.) ||      53.3240 / (kcal/mol)
 INFORMATION **** GCP **** NORMAL TERMINATION OF GCP MODULE

 *******************************************************************************

 DFT-D3-GCP DISPERSION AND COUNTERPOISE CORRECTION

 D3 DISPERSION ENERGY (AU)      -5.0561057466186E-02
 GCP ENERGY (AU)                 8.4977245705798E-02
 TOTAL ENERGY + DISP + GCP (AU) -1.2890824627349E+03

 *******************************************************************************

 EIGENVECTORS IN FORTRAN UNIT 10
 TTTTTTTTTTTTTTTTTTTTTTTTTTTTTT END         TELAPSE      154.50 TCPU     4442.47
 EEEEEEEEEE TERMINATION  DATE 19 02 2026 TIME 18:01:13.1
