 Default number of threads is:           32

         
 *******************************************************************************
 *                                                                             *
 *                               CRYSTAL23                                     *
 *                      public : 1.0.1 - October 2022                          *
 *                       HTTP://WWW.CRYSTAL.UNITO.IT                           *
 *                                                                             *
 *                              MAIN AUTHORS                                   *
 *                                                                             *
 *  R. DOVESI(1,11), V.R. SAUNDERS(2), C. ROETTI(1,11), R. ORLANDO(1,11),      *
 *  C.M. ZICOVICH-WILSON(1,3), F. PASCALE(4), B. CIVALLERI(1,11),              *
 *  K. DOLL(5), N.M. HARRISON(6), I.J. BUSH(7), Ph. D'ARCO(8),                 *
 *  M. LLUNELL(9), M. CAUSA'(10), Y. NOEL(8), L. MASCHIO(1,11), A. ERBA(1,11)  *
 *  M. RE'RAT(14), S. CASASSA(1,11), B.G. SEARLE(2), J.K. DESMARAIS(1)         *
 *                                                                             *
 *        CONTRIBUTIONS TO THE CODE HAVE ALSO BEEN GIVEN BY                    *
 *                                                                             *
 *  M. FERRABONE(1,11), M. DE LA PIERRE(1,11), M. FERRERO(1,11),               *
 *  J. BAIMA(1,11), E. ALBANESE(1,11), M.F. PEINTINGER(12), R. BAST(13),       *
 *  B. KIRTMAN(15), V. LACIVITA(1,11), R. DEMICHELIS(1,16)                     *
 *  G. BRANDEBURG(17), S. SALUSTRO(1,11), G. SANSONE(1,11)                     *
 *  M.T. RUGGIERO(18), L.E. DAGA(1), L. DONA'(1), A. COSSARD(1)                *
 *                                                                             *
 * (1) THEORETICAL CHEMISTRY GROUP - UNIVERSITA' DI TORINO - TORINO (ITALY)    *
 * (2) SCIENTIFIC COMPUTING DEPARTMENT - STFC DARESBURY (UK)                   *
 * (3) UNIVERSIDAD AUTONOMA DEL ESTADO DE MORELOS - CUERNAVACA (MEXICO)        *
 * (4) UNIVERSITE' DE LORRAINE - NANCY (FRANCE)                                *
 * (5) UNIVERSITAET STUTTGART- STUTTGART (GERMANY)                             *
 * (6) IMPERIAL COLLEGE - LONDON (UK)                                          *
 * (7) SCIENTIFIC COMPUTING DEPARTMENT - STFC RAL (UK)                         *
 * (8) UPMC - SORBONNE UNIVERSITES - PARIS (FRANCE)                            *
 * (9) UNIVERSIDAD DE BARCELONA - BARCELONA (SPAIN)                            *
 *(10) UNIVERSITA' DI NAPOLI "FEDERICO II" - NAPOLI (ITALY)                    *
 *(11) NIS - NANOSTRUCTURED INTERFACES AND SURFACES - TORINO (ITALY)           *
 *(12) MPI FUER CHEMISCHE ENERGIEKONVERSION - MUELHEIM AN DER RUHR (GERMANY)   *
 *(13) UNIVERSITY OF TROMSO - TROMSO (NORWAY)                                  *
 *(14) UNIVERSITE' DE PAU ET DES PAYS DE L'ADOUR - PAU (FRANCE)                *
 *(15) UNIVERSITY OF CALIFORNIA SANTA BARBARA - SANTA BARBARA (USA)            *
 *(16) CURTIN UNIVERSITY - PERTH (AUSTRALIA)                                   *
 *(17) UNIVERSITY COLLEGE LONDON - LONDON (UK)                                 *
 *(18) UNIVERSITY OF VERMONT - BURLINGTON (USA)                                *
 *                                                                             *
 *******************************************************************************
 EEEEEEEEEE STARTING  DATE 02 12 2025 TIME 08:06:28.9
 COF-5_z45_inc_L020                                                              

 CRYSTAL CALCULATION
 (INPUT ACCORDING TO THE INTERNATIONAL TABLES FOR X-RAY CRYSTALLOGRAPHY)
 CRYSTAL FAMILY                       :  TRICLINIC   
 CRYSTAL CLASS  (GROTH - 1921)        :  TRICLINIC PEDIAL                     

 SPACE GROUP (NONCENTROSYMMETRIC)     :  P 1             

 LATTICE PARAMETERS  (ANGSTROMS AND DEGREES) - CONVENTIONAL CELL
        A           B           C        ALPHA        BETA       GAMMA
    15.02070    15.04439     4.92443    69.42182    89.99935   120.05310


 NUMBER OF IRREDUCIBLE ATOMS IN THE CONVENTIONAL CELL:   42

 INPUT COORDINATES

 ATOM AT. N.              COORDINATES
   1   5     5.770465300000E-01  1.511801400000E-01  5.006569000000E-01
   2   5     7.358251600000E-01  3.102053300000E-01  5.006668800000E-01
   3   5     5.767036200000E-01  3.101123400000E-01  4.992369000000E-01
   4   5     1.898506500000E-01  5.367276100000E-01  5.054519300000E-01
   5   5     3.481137000000E-01  5.356056900000E-01  5.094958500000E-01
   6   5     3.488458400000E-01  6.958604600000E-01  5.035301700000E-01
   7   1     8.655512000000E-01  2.320549200000E-01  5.045553200000E-01
   8   1     6.089203000000E-02  6.157264500000E-01  4.929649100000E-01
   9   1     8.665204100000E-01  5.184482100000E-01  4.928266100000E-01
  10   1     6.002382000000E-02  3.293349400000E-01  5.041238900000E-01
  11   1     5.555538800000E-01  8.257829500000E-01  5.042459600000E-01
  12   1     3.701575600000E-01  2.267178000000E-02  4.945971500000E-01
  13   1     2.717165900000E-01  8.287592200000E-01  4.959040000000E-01
  14   1     6.537988400000E-01  1.975885000000E-02  5.023846200000E-01
  15   1     5.556478300000E-01  6.141086000000E-01  4.978014900000E-01
  16   1     3.676994500000E-01  2.312232400000E-01  5.060846800000E-01
  17   1     2.703635100000E-01  3.272007500000E-01  5.057198000000E-01
  18   1     6.533673300000E-01  5.181059900000E-01  4.987349500000E-01
  19   6     8.551369300000E-01  3.696728100000E-01  5.004168900000E-01
  20   6     9.095250900000E-01  3.162250800000E-01  5.021829900000E-01
  21   6     1.703467000000E-02  5.315432700000E-01  4.957900500000E-01
  22   6     9.100302100000E-01  4.779665700000E-01  4.961272100000E-01
  23   6     1.660532000000E-02  3.698889000000E-01  5.015392800000E-01
  24   6     7.127481000000E-02  4.778963200000E-01  4.993560000000E-01
  25   6     4.079346200000E-01  8.154871600000E-01  5.018983600000E-01
  26   6     5.157778200000E-01  8.699092700000E-01  5.022885400000E-01
  27   6     4.097248300000E-01 -2.173526000000E-02  4.970121400000E-01
  28   6     3.555203400000E-01  8.711377000000E-01  4.981308200000E-01
  29   6     5.699718600000E-01 -2.300343000000E-02  5.008511300000E-01
  30   6     5.174175100000E-01  3.223928000000E-02  4.992268600000E-01
  31   6     4.076816600000E-01  4.767255300000E-01  4.999980800000E-01
  32   6     5.155733300000E-01  5.300652200000E-01  4.994466000000E-01
  33   6     4.083872800000E-01  3.153410100000E-01  5.039701600000E-01
  34   6     3.545326500000E-01  3.684799900000E-01  5.033622100000E-01
  35   6     5.693146800000E-01  4.768565700000E-01  5.003849600000E-01
  36   6     5.164644000000E-01  3.689425200000E-01  5.016268200000E-01
  37   8     5.240091600000E-01  2.041537900000E-01  4.996267700000E-01
  38   8     6.829382600000E-01  2.039917700000E-01  5.026168300000E-01
  39   8     6.828948900000E-01  3.634297300000E-01  4.980970900000E-01
  40   8     2.428963900000E-01  6.430021900000E-01  5.027635100000E-01
  41   8     2.420797600000E-01  4.827905200000E-01  5.102513000000E-01
  42   8     4.015144700000E-01  6.423329100000E-01  5.052352500000E-01

 *******************************************************************************

 << INFORMATION >>: FROM NOW ON, ALL COORDINATES REFER TO THE PRIMITIVE CELL

 *******************************************************************************

 LATTICE PARAMETERS  (ANGSTROMS AND DEGREES) - PRIMITIVE CELL
       A          B          C        ALPHA      BETA     GAMMA        VOLUME
   15.02070   15.04439    4.92443    69.42182  89.99935 120.05310    880.210769

 COORDINATES OF THE EQUIVALENT ATOMS (FRACTIONAL UNITS)

 N. ATOM EQUIV AT. N.          X                  Y                  Z

   1   1   1    5 B    -4.22953470000E-01  1.51180140000E-01 -4.99343100000E-01

   2   2   1    5 B    -2.64174840000E-01  3.10205330000E-01 -4.99333120000E-01

   3   3   1    5 B    -4.23296380000E-01  3.10112340000E-01  4.99236900000E-01

   4   4   1    5 B     1.89850650000E-01 -4.63272390000E-01 -4.94548070000E-01

   5   5   1    5 B     3.48113700000E-01 -4.64394310000E-01 -4.90504150000E-01

   6   6   1    5 B     3.48845840000E-01 -3.04139540000E-01 -4.96469830000E-01

   7   7   1    1 H    -1.34448800000E-01  2.32054920000E-01 -4.95444680000E-01

   8   8   1    1 H     6.08920300000E-02 -3.84273550000E-01  4.92964910000E-01

   9   9   1    1 H    -1.33479590000E-01 -4.81551790000E-01  4.92826610000E-01

  10  10   1    1 H     6.00238200000E-02  3.29334940000E-01 -4.95876110000E-01

  11  11   1    1 H    -4.44446120000E-01 -1.74217050000E-01 -4.95754040000E-01

  12  12   1    1 H     3.70157560000E-01  2.26717800000E-02  4.94597150000E-01

  13  13   1    1 H     2.71716590000E-01 -1.71240780000E-01  4.95904000000E-01

  14  14   1    1 H    -3.46201160000E-01  1.97588500000E-02 -4.97615380000E-01

  15  15   1    1 H    -4.44352170000E-01 -3.85891400000E-01  4.97801490000E-01

  16  16   1    1 H     3.67699450000E-01  2.31223240000E-01 -4.93915320000E-01

  17  17   1    1 H     2.70363510000E-01  3.27200750000E-01 -4.94280200000E-01

  18  18   1    1 H    -3.46632670000E-01 -4.81894010000E-01  4.98734950000E-01

  19  19   1    6 C    -1.44863070000E-01  3.69672810000E-01 -4.99583110000E-01

  20  20   1    6 C    -9.04749100000E-02  3.16225080000E-01 -4.97817010000E-01

  21  21   1    6 C     1.70346700000E-02 -4.68456730000E-01  4.95790050000E-01

  22  22   1    6 C    -8.99697900000E-02  4.77966570000E-01  4.96127210000E-01

  23  23   1    6 C     1.66053200000E-02  3.69888900000E-01 -4.98460720000E-01

  24  24   1    6 C     7.12748100000E-02  4.77896320000E-01  4.99356000000E-01

  25  25   1    6 C     4.07934620000E-01 -1.84512840000E-01 -4.98101640000E-01

  26  26   1    6 C    -4.84222180000E-01 -1.30090730000E-01 -4.97711460000E-01

  27  27   1    6 C     4.09724830000E-01 -2.17352600000E-02  4.97012140000E-01

  28  28   1    6 C     3.55520340000E-01 -1.28862300000E-01  4.98130820000E-01

  29  29   1    6 C    -4.30028140000E-01 -2.30034300000E-02 -4.99148870000E-01

  30  30   1    6 C    -4.82582490000E-01  3.22392800000E-02  4.99226860000E-01

  31  31   1    6 C     4.07681660000E-01  4.76725530000E-01  4.99998080000E-01

  32  32   1    6 C    -4.84426670000E-01 -4.69934780000E-01  4.99446600000E-01

  33  33   1    6 C     4.08387280000E-01  3.15341010000E-01 -4.96029840000E-01

  34  34   1    6 C     3.54532650000E-01  3.68479990000E-01 -4.96637790000E-01

  35  35   1    6 C    -4.30685320000E-01  4.76856570000E-01 -4.99615040000E-01

  36  36   1    6 C    -4.83535600000E-01  3.68942520000E-01 -4.98373180000E-01

  37  37   1    8 O    -4.75990840000E-01  2.04153790000E-01  4.99626770000E-01

  38  38   1    8 O    -3.17061740000E-01  2.03991770000E-01 -4.97383170000E-01

  39  39   1    8 O    -3.17105110000E-01  3.63429730000E-01  4.98097090000E-01

  40  40   1    8 O     2.42896390000E-01 -3.56997810000E-01 -4.97236490000E-01

  41  41   1    8 O     2.42079760000E-01  4.82790520000E-01 -4.89748700000E-01

  42  42   1    8 O     4.01514470000E-01 -3.57667090000E-01 -4.94764750000E-01

 NUMBER OF SYMMETRY OPERATORS         :    1
 *******************************************************************************
 * GEOMETRY EDITING - INPUT COORDINATES ARE GIVEN IN ANGSTROM         
 *******************************************************************************

 GCALCO - MAX INDICES DIRECT LATTICE VECTOR    10    10    29
 NO.OF VECTORS CREATED 6999 STARS 3500 RMAX   215.02901 BOHR

 GEOMETRY FOR WAVE FUNCTION - DIMENSIONALITY OF THE SYSTEM    3
 (NON PERIODIC DIRECTION: LATTICE PARAMETER FORMALLY SET TO 500)
 *******************************************************************************
 LATTICE PARAMETERS (ANGSTROMS AND DEGREES) - BOHR = 0.5291772083 ANGSTROM
 PRIMITIVE CELL - CENTRING CODE 1/0 VOLUME=   880.210769 - DENSITY  0.736 g/cm^3
         A              B              C           ALPHA      BETA       GAMMA 
    15.02070100    15.04438700     4.92442900    69.421819  89.999348 120.053104
 *******************************************************************************
 ATOMS IN THE ASYMMETRIC UNIT   42 - ATOMS IN THE UNIT CELL:   42
     ATOM                 X/A                 Y/B                 Z/C    
 *******************************************************************************
      1 T   5 B    -4.229534700000E-01  1.511801400000E-01 -4.993431000000E-01
      2 T   5 B    -2.641748400000E-01  3.102053300000E-01 -4.993331200000E-01
      3 T   5 B    -4.232963800000E-01  3.101123400000E-01  4.992369000000E-01
      4 T   5 B     1.898506500000E-01 -4.632723900000E-01 -4.945480700000E-01
      5 T   5 B     3.481137000000E-01 -4.643943100000E-01 -4.905041500000E-01
      6 T   5 B     3.488458400000E-01 -3.041395400000E-01 -4.964698300000E-01
      7 T   1 H    -1.344488000000E-01  2.320549200000E-01 -4.954446800000E-01
      8 T   1 H     6.089203000000E-02 -3.842735500000E-01  4.929649100000E-01
      9 T   1 H    -1.334795900000E-01 -4.815517900000E-01  4.928266100000E-01
     10 T   1 H     6.002382000000E-02  3.293349400000E-01 -4.958761100000E-01
     11 T   1 H    -4.444461200000E-01 -1.742170500000E-01 -4.957540400000E-01
     12 T   1 H     3.701575600000E-01  2.267178000000E-02  4.945971500000E-01
     13 T   1 H     2.717165900000E-01 -1.712407800000E-01  4.959040000000E-01
     14 T   1 H    -3.462011600000E-01  1.975885000000E-02 -4.976153800000E-01
     15 T   1 H    -4.443521700000E-01 -3.858914000000E-01  4.978014900000E-01
     16 T   1 H     3.676994500000E-01  2.312232400000E-01 -4.939153200000E-01
     17 T   1 H     2.703635100000E-01  3.272007500000E-01 -4.942802000000E-01
     18 T   1 H    -3.466326700000E-01 -4.818940100000E-01  4.987349500000E-01
     19 T   6 C    -1.448630700000E-01  3.696728100000E-01 -4.995831100000E-01
     20 T   6 C    -9.047491000000E-02  3.162250800000E-01 -4.978170100000E-01
     21 T   6 C     1.703467000000E-02 -4.684567300000E-01  4.957900500000E-01
     22 T   6 C    -8.996979000000E-02  4.779665700000E-01  4.961272100000E-01
     23 T   6 C     1.660532000000E-02  3.698889000000E-01 -4.984607200000E-01
     24 T   6 C     7.127481000000E-02  4.778963200000E-01  4.993560000000E-01
     25 T   6 C     4.079346200000E-01 -1.845128400000E-01 -4.981016400000E-01
     26 T   6 C    -4.842221800000E-01 -1.300907300000E-01 -4.977114600000E-01
     27 T   6 C     4.097248300000E-01 -2.173526000000E-02  4.970121400000E-01
     28 T   6 C     3.555203400000E-01 -1.288623000000E-01  4.981308200000E-01
     29 T   6 C    -4.300281400000E-01 -2.300343000000E-02 -4.991488700000E-01
     30 T   6 C    -4.825824900000E-01  3.223928000000E-02  4.992268600000E-01
     31 T   6 C     4.076816600000E-01  4.767255300000E-01  4.999980800000E-01
     32 T   6 C    -4.844266700000E-01 -4.699347800000E-01  4.994466000000E-01
     33 T   6 C     4.083872800000E-01  3.153410100000E-01 -4.960298400000E-01
     34 T   6 C     3.545326500000E-01  3.684799900000E-01 -4.966377900000E-01
     35 T   6 C    -4.306853200000E-01  4.768565700000E-01 -4.996150400000E-01
     36 T   6 C    -4.835356000000E-01  3.689425200000E-01 -4.983731800000E-01
     37 T   8 O    -4.759908400000E-01  2.041537900000E-01  4.996267700000E-01
     38 T   8 O    -3.170617400000E-01  2.039917700000E-01 -4.973831700000E-01
     39 T   8 O    -3.171051100000E-01  3.634297300000E-01  4.980970900000E-01
     40 T   8 O     2.428963900000E-01 -3.569978100000E-01 -4.972364900000E-01
     41 T   8 O     2.420797600000E-01  4.827905200000E-01 -4.897487000000E-01
     42 T   8 O     4.015144700000E-01 -3.576670900000E-01 -4.947647500000E-01

 T = ATOM BELONGING TO THE ASYMMETRIC UNIT

 ****    1 SYMMOPS - TRANSLATORS IN FRACTIONAL UNITS
 **** MATRICES AND TRANSLATORS IN THE CRYSTALLOGRAPHIC REFERENCE FRAME
   V INV                    ROTATION MATRICES                   TRANSLATORS
   1   1  1.00 -0.00  0.00  0.00  1.00  0.00  0.00  0.00  1.00  0.00  0.00  0.00

 DIRECT LATTICE VECTORS CARTESIAN COMPONENTS (ANGSTROM)
          X                    Y                    Z
   0.130013421718E+02  -0.752240388864E+01   0.000000000000E+00
   0.000000000000E+00   0.150443870000E+02   0.000000000000E+00
   0.100151949344E+01   0.173086370954E+01   0.450011894279E+01


 CARTESIAN COORDINATES - PRIMITIVE CELL
 *******************************************************************************
 *      ATOM          X(ANGSTROM)         Y(ANGSTROM)         Z(ANGSTROM)
 *******************************************************************************
    1     5 B    -5.999064634775E+00  4.591744509917E+00 -2.247103343263E+00
    2     5 B    -3.934719341415E+00  5.789801301300E+00 -2.247058432076E+00
    3     5 B     6.996397089074E+00 -5.395001741139E-01 -2.253493512162E+00
    4     5 B     1.973013729634E+00  5.790609303617E+00 -2.225525137929E+00
    5     5 B     4.034695860543E+00  4.590211596578E+00 -2.207327016934E+00
    6     5 B    -7.961582759942E+00  1.194193741440E+00  2.265945656285E+00
    7     1 H    -2.244212358327E+00  3.644954980980E+00 -2.229559989574E+00
    8     1 H     1.285392084512E+00 -5.385959370527E+00  2.218400729623E+00
    9     1 H    -1.241838365736E+00 -5.387548408087E+00  2.217778363174E+00
   10     1 H     2.837606317794E-01  3.644824909775E+00 -2.231501475890E+00
   11     1 H    -5.273383924607E+00  1.595095532028E+00  2.269166796423E+00
   12     1 H     4.306374288712E+00 -3.318175088219E+00 -2.274372939027E+00
   13     1 H     4.029337883214E+00 -3.761832260710E+00  2.231626984207E+00
   14     1 H    -4.999451244732E+00  2.040220335760E+00 -2.239328397763E+00
   15     1 H    -5.278616710840E+00 -1.601276536441E+00  2.240165914900E+00
   16     1 H     4.285920544733E+00 -1.422719695523E-01 -2.222677687668E+00
   17     1 H     3.020057248749E+00  2.033219530194E+00 -2.224319691068E+00
   18     1 H    -4.007197176099E+00 -3.779046809048E+00  2.244366595928E+00
   19     6 C    -2.383756564383E+00  5.786509063107E+00 -2.248183416811E+00
   20     6 C    -1.674868702553E+00  4.576347900833E+00 -2.240235756746E+00
   21     6 C     7.180169731832E-01 -6.317641001627E+00  2.231114195653E+00
   22     6 C    -6.728469528703E-01 -6.318155266596E+00  2.232631455756E+00
   23     6 C    -2.833266806037E-01  4.577072263984E+00 -2.243132528310E+00
   24     6 C     4.252634677630E-01  5.786952745050E+00 -2.252957547996E+00
   25     6 C    -7.194983602174E+00  2.546590002616E+00  2.258602317193E+00
   26     6 C    -5.792486485199E+00  2.554772528171E+00  2.260358173602E+00
   27     6 C     5.824740057790E+00 -2.548849041123E+00  2.236613746012E+00
   28     6 C     5.121129315880E+00 -3.750825340075E+00  2.241647939071E+00
   29     6 C    -5.089330821624E+00  3.755677894114E+00  2.253889657632E+00
   30     6 C    -6.775754140099E+00  3.248430549549E+00 -2.253538693356E+00
   31     6 C     4.799647089178E+00  3.239862083559E+00 -2.250068111625E+00
   32     6 C    -5.797991387969E+00 -2.561353634116E+00  2.247569105574E+00
   33     6 C     4.812799211791E+00  8.134980793612E-01 -2.232193279175E+00
   34     6 C     4.112007865850E+00  2.017005458808E+00 -2.234929126486E+00
   35     6 C    -5.098341922014E+00 -3.764485123414E+00  2.251791837185E+00
   36     6 C     6.215599929161E+00  8.028441896592E-01 -2.242738587898E+00
   37     8 O     6.311688846462E+00 -1.736517783624E+00 -2.251739050790E+00
   38     8 O    -4.620367111783E+00  4.593095119921E+00 -2.238283425144E+00
   39     8 O    -3.623938094266E+00 -6.329278605093E+00  2.241496150059E+00
   40     8 O     3.661506534535E+00 -6.327762846525E+00  2.262495595096E+00
   41     8 O     2.656868922683E+00  4.594577443201E+00 -2.203927402078E+00
   42     8 O    -7.275112208736E+00 -4.338881949656E-03  2.273618719092E+00

 *******************************************************************************
 STARTING BASIS SET HANDLING 
 *******************************************************************************

 Loading internal basis set: SOLDEF2MSVP         

 Please cite in your publication:
 L. Dona', J. G. Brandenburg and B. Civalleri, J. Chem. Phys., 151, 121101 (2019
 )                                                                              
                                                                                
                    

 *******************************************************************************
 LOCAL ATOMIC FUNCTIONS BASIS SET
 *******************************************************************************
   ATOM   X(AU)   Y(AU)   Z(AU)  N. TYPE  EXPONENT  S COEF   P COEF   D/F/G COEF
 *******************************************************************************
   1 B  -11.337   8.677  -4.246
                                  1 S  
                                         2.410E+03 1.755E-03 0.000E+00 0.000E+00
                                         3.619E+02 1.344E-02 0.000E+00 0.000E+00
                                         8.231E+01 6.637E-02 0.000E+00 0.000E+00
                                         2.311E+01 2.303E-01 0.000E+00 0.000E+00
                                         7.252E+00 5.150E-01 0.000E+00 0.000E+00
                                  2 S  
                                         2.367E+00 1.000E+00 0.000E+00 0.000E+00
                                  3 S  
                                         5.533E-01 1.000E+00 0.000E+00 0.000E+00
                                  4 S  
                                         1.716E-01 1.000E+00 0.000E+00 0.000E+00
                           5-     7 P  
                                         6.002E+00 0.000E+00-3.555E-02 0.000E+00
                                         1.240E+00 0.000E+00-1.983E-01 0.000E+00
                                         3.367E-01 0.000E+00-5.048E-01 0.000E+00
                           8-    10 P  
                                         1.256E-01 0.000E+00 1.000E+00 0.000E+00
                          11-    15 D  
                                         8.880E-01 0.000E+00 0.000E+00 1.000E+00
   2 B   -7.436  10.941  -4.246
   3 B   13.221  -1.020  -4.258
   4 B    3.728  10.943  -4.206
   5 B    7.624   8.674  -4.171
   6 B  -15.045   2.257   4.282
   7 H   -4.241   6.888  -4.213
                                 91 S  
                                         1.874E+01 1.968E-02 0.000E+00 0.000E+00
                                         2.826E+00 1.380E-01 0.000E+00 0.000E+00
                                         6.401E-01 4.783E-01 0.000E+00 0.000E+00
                                 92 S  
                                         1.756E-01 1.000E+00 0.000E+00 0.000E+00
   8 H    2.429 -10.178   4.192
   9 H   -2.347 -10.181   4.191
  10 H    0.536   6.888  -4.217
  11 H   -9.965   3.014   4.288
  12 H    8.138  -6.270  -4.298
  13 H    7.614  -7.109   4.217
  14 H   -9.448   3.855  -4.232
  15 H   -9.975  -3.026   4.233
  16 H    8.099  -0.269  -4.200
  17 H    5.707   3.842  -4.203
  18 H   -7.573  -7.141   4.241
  19 C   -4.505  10.935  -4.248
                                115 S  
                                         3.624E+03 1.634E-03 0.000E+00 0.000E+00
                                         5.440E+02 1.252E-02 0.000E+00 0.000E+00
                                         1.237E+02 6.211E-02 0.000E+00 0.000E+00
                                         3.476E+01 2.182E-01 0.000E+00 0.000E+00
                                         1.093E+01 4.980E-01 0.000E+00 0.000E+00
                                116 S  
                                         3.574E+00 1.000E+00 0.000E+00 0.000E+00
                                117 S  
                                         7.742E-01 1.000E+00 0.000E+00 0.000E+00
                                118 S  
                                         2.330E-01 1.000E+00 0.000E+00 0.000E+00
                         119-   121 P  
                                         9.443E+00 0.000E+00 3.790E-02 0.000E+00
                                         2.002E+00 0.000E+00 2.082E-01 0.000E+00
                                         5.463E-01 0.000E+00 5.047E-01 0.000E+00
                         122-   124 P  
                                         1.820E-01 0.000E+00 1.000E+00 0.000E+00
                         125-   129 D  
                                         8.880E-01 0.000E+00 0.000E+00 1.000E+00
  20 C   -3.165   8.648  -4.233
  21 C    1.357 -11.939   4.216
  22 C   -1.271 -11.940   4.219
  23 C   -0.535   8.649  -4.239
  24 C    0.804  10.936  -4.257
  25 C  -13.597   4.812   4.268
  26 C  -10.946   4.828   4.271
  27 C   11.007  -4.817   4.227
  28 C    9.678  -7.088   4.236
  29 C   -9.617   7.097   4.259
  30 C  -12.804   6.139  -4.259
  31 C    9.070   6.122  -4.252
  32 C  -10.957  -4.840   4.247
  33 C    9.095   1.537  -4.218
  34 C    7.771   3.812  -4.223
  35 C   -9.634  -7.114   4.255
  36 C   11.746   1.517  -4.238
  37 O   11.927  -3.282  -4.255
                                385 S  
                                         6.773E+03 1.727E-03 0.000E+00 0.000E+00
                                         1.017E+03 1.325E-02 0.000E+00 0.000E+00
                                         2.313E+02 6.603E-02 0.000E+00 0.000E+00
                                         6.501E+01 2.353E-01 0.000E+00 0.000E+00
                                         2.050E+01 5.498E-01 0.000E+00 0.000E+00
                                386 S  
                                         6.716E+00 1.000E+00 0.000E+00 0.000E+00
                                387 S  
                                         1.147E+00 1.000E+00 0.000E+00 0.000E+00
                                388 S  
                                         3.342E-01 1.000E+00 0.000E+00 0.000E+00
                         389-   391 P  
                                         1.769E+01 0.000E+00 4.359E-02 0.000E+00
                                         3.854E+00 0.000E+00 2.318E-01 0.000E+00
                                         1.047E+00 0.000E+00 5.146E-01 0.000E+00
                         392-   394 P  
                                         2.759E-01 0.000E+00 1.000E+00 0.000E+00
                         395-   399 D  
                                         8.000E-01 0.000E+00 0.000E+00 1.000E+00
  38 O   -8.731   8.680  -4.230
  39 O   -6.848 -11.961   4.236
  40 O    6.919 -11.958   4.275
  41 O    5.021   8.682  -4.165
  42 O  -13.748  -0.008   4.297

 *******************************************************************************
 FINISHED BASIS SET HANDLING 
 *******************************************************************************

 INFORMATION **** SET_MPP **** PCRYSTAL CALCULATION
 INFORMATION **** READM2 **** NEW DEFAULT: FOCK/KS MATRIX MIXING SET TO 30 %
 INFORMATION **** READM2 **** NEW DEFAULT: FULL DIRECT SCF MODE
 INFORMATION **** READM2 **** NEW DEFAULT: COULOMB BIPOLAR BUFFER SET TO 32 Mb
 INFORMATION **** READM2 **** NEW DEFAULT: EXCHANGE BIPOLAR BUFFER SET TO 32 Mb

 *******************************************************************************
 NEW DEFAULT: DFT INTEGRATION GRID INCREASED TO XLGRID
 NEW DEFAULT: DIIS ACCELERATOR ACTIVE
 USE KEYWORD NODIIS TO TURN IT OFF
 *******************************************************************************

 WARNING **** RDDFTP **** HSEsol-HJS ACTIVE
 RANGE SEPARATION - OMEGA:   0.110000000000000     
 WARNING **** RDDFTP **** HSEsol-3c has to be combined with sol-def2-mSVP basis set
 *******************************************************************************
 N. OF ATOMS PER CELL        42  COULOMB OVERLAP TOL         (T1) 10**   -6
 NUMBER OF SHELLS           234  COULOMB PENETRATION TOL     (T2) 10**   -6
 NUMBER OF AO               474  EXCHANGE OVERLAP TOL        (T3) 10**   -6
 N. OF ELECTRONS PER CELL   198  EXCHANGE PSEUDO OVP (F(G))  (T4) 10**   -6
 CORE ELECTRONS PER CELL     60  EXCHANGE PSEUDO OVP (P(G))  (T5) 10**  -12
 N. OF SYMMETRY OPERATORS     1  POLE ORDER IN MONO ZONE                  4
 *******************************************************************************
 TYPE OF CALCULATION :  RESTRICTED CLOSED SHELL
 KOHN-SHAM HAMILTONIAN

 (EXCHANGE)[CORRELATION] FUNCTIONAL:(HSEsol GGA)[PBEsol]

 RANGE-SEPARATED HYBRID FUNCTIONAL 
 OMEGA (SHORT-RANGE)[LONG-RANGE]:(    0.1100)[    0.0000]

 HYBRID EXCHANGE - PERCENTAGE OF FOCK EXCHANGE    25.0000

 CAPPA:IS1  2;IS2  2;IS3  8; K PTS MONK NET  20; SYMMOPS:K SPACE   2;G SPACE   1

 *******************************************************************************
 MAX NUMBER OF SCF CYCLES      50  CONVERGENCE ON DELTAP        10**-16
 WEIGHT OF F(I) IN F(I+1)      30% CONVERGENCE ON ENERGY        10**- 6
 SHRINK. FACT.(MONKH.)    2  2  8  NUMBER OF K POINTS IN THE IBZ     20
 SHRINKING FACTOR(GILAT NET)    8  NUMBER OF K POINTS(GILAT NET)   1028
 *******************************************************************************
 *** K POINTS COORDINATES (OBLIQUE COORDINATES IN UNITS OF IS =  2)
   1-R(  0  0  0)   2-R(  1  0  0)   3-R(  0  1  0)   4-R(  1  1  0)
   5-C(  0  0  1)   6-C(  1  0  1)   7-C(  0  1  1)   8-C(  1  1  1)
   9-C(  0  0  2)  10-C(  1  0  2)  11-C(  0  1  2)  12-C(  1  1  2)
  13-C(  0  0  3)  14-C(  1  0  3)  15-C(  0  1  3)  16-C(  1  1  3)
  17-R(  0  0  4)  18-R(  1  0  4)  19-R(  0  1  4)  20-R(  1  1  4)

 DIRECT LATTICE VECTORS COMPON. (A.U.)     RECIP. LATTICE VECTORS COMPON. (A.U.) 
        X            Y            Z              X            Y            Z
   24.5689761  -14.2152832    0.0000000      0.2557366    0.0000000   -0.0569152
    0.0000000   28.4297713    0.0000000      0.1278719    0.2210072   -0.1134636
    1.8925976    3.2708584    8.5039924      0.0000000    0.0000000    0.7388512

 DISK SPACE FOR EIGENVECTORS (FTN 10)     7189632 REALS

 SYMMETRY ADAPTION OF THE BLOCH FUNCTIONS DISABLED
 TTTTTTTTTTTTTTTTTTTTTTTTTTTTTT gordsh1     TELAPSE        0.04 TCPU        0.04

 MATRIX SIZE: P(G)  290190, F(G)   60267, P(G) IRR  146400, F(G) IRR   60927
 MAX G-VECTOR INDEX FOR 1- AND 2-ELECTRON INTEGRALS  79

 TTTTTTTTTTTTTTTTTTTTTTTTTTTTTT INPUT       TELAPSE        0.30 TCPU        0.30

 NEIGHBORS OF THE NON-EQUIVALENT ATOMS

 N = NUMBER OF NEIGHBORS AT DISTANCE R
    ATOM  N     R/ANG      R/AU   NEIGHBORS (ATOM LABELS AND CELL INDICES)
   1 B    1     1.3787     2.6054   38 O    0 0 0
   1 B    1     1.3795     2.6068   37 O   -1 0 0
   1 B    1     1.5517     2.9323   30 C    0 0 0
   1 B    1     2.3868     4.5104    2 B    0 0 0
   1 B    1     2.3912     4.5187    3 B   -1 0 0
   1 B    1     2.5629     4.8432   27 C   -1 0-1

   2 B    1     1.3792     2.6064   38 O    0 0 0
   2 B    1     1.3798     2.6075   39 O    0 1-1
   2 B    1     1.5510     2.9309   19 C    0 0 0
   2 B    1     2.3868     4.5104    1 B    0 0 0
   2 B    1     2.3894     4.5154    3 B   -1 0 0
   2 B    1     2.5618     4.8412   22 C    0 1-1

   3 B    1     1.3790     2.6060   37 O    0 0 0
   3 B    1     1.3795     2.6069   39 O    1 1-1
   3 B    1     1.5529     2.9346   36 C    0 0 0
   3 B    1     2.3894     4.5154    2 B    1 0 0
   3 B    1     2.3912     4.5187    1 B    1 0 0
   3 B    1     2.5679     4.8526   35 C    1 1-1

   4 B    1     1.3779     2.6039   41 O    0 0 0
   4 B    1     1.3786     2.6051   40 O    0 1-1
   4 B    1     1.5480     2.9253   24 C    0 0 0
   4 B    1     2.3858     4.5084    5 B    0 0 0
   4 B    1     2.3859     4.5087    6 B    1 1-1
   4 B    1     2.5586     4.8351   21 C    0 1-1

   5 B    1     1.3778     2.6037   41 O    0 0 0
   5 B    1     1.3814     2.6105   42 O    1 1-1
   5 B    1     1.5526     2.9339   31 C    0 0 0
   5 B    1     2.3858     4.5084    4 B    0 0 0
   5 B    1     2.3953     4.5264    6 B    1 1-1
   5 B    1     2.5592     4.8361   32 C    1 1-1

   6 B    1     1.3783     2.6045   40 O   -1 0 0
   6 B    1     1.3812     2.6101   42 O    0 0 0
   6 B    1     1.5546     2.9377   25 C    0 0 0
   6 B    1     2.3859     4.5087    4 B   -1-1 1
   6 B    1     2.3953     4.5264    5 B   -1-1 1
   6 B    1     2.5605     4.8387   26 C    0 0 0

   7 H    1     1.0917     2.0630   20 C    0 0 0
   7 H    1     2.1462     4.0557   19 C    0 0 0
   7 H    1     2.1712     4.1030   23 C    0 0 0
   7 H    1     2.5280     4.7772   10 H    0 0 0
   7 H    1     2.5584     4.8346   38 O    0 0 0
   7 H    1     2.7310     5.1609    2 B    0 0 0

   8 H    1     1.0909     2.0615   21 C    0 0 0
   8 H    1     2.1455     4.0543   24 C    0-1 1
   8 H    1     2.1688     4.0985   22 C    0 0 0
   8 H    1     2.5272     4.7758    9 H    0 0 0
   8 H    1     2.5563     4.8308   40 O    0 0 0
   8 H    1     2.7245     5.1486    4 B    0-1 1

   9 H    1     1.0909     2.0614   22 C    0 0 0
   9 H    1     2.1443     4.0522   19 C    0-1 1
   9 H    1     2.1694     4.0996   21 C    0 0 0
   9 H    1     2.5272     4.7758    8 H    0 0 0
   9 H    1     2.5616     4.8407   39 O    0 0 0
   9 H    1     2.7249     5.1494    2 B    0-1 1

  10 H    1     1.0912     2.0621   23 C    0 0 0
  10 H    1     2.1469     4.0571   24 C    0 0 0
  10 H    1     2.1689     4.0986   20 C    0 0 0
  10 H    1     2.5280     4.7772    7 H    0 0 0
  10 H    1     2.5563     4.8306   41 O    0 0 0
  10 H    1     2.7309     5.1607    4 B    0 0 0

  11 H    1     1.0911     2.0619   26 C    0 0 0
  11 H    1     2.1443     4.0521   25 C    0 0 0
  11 H    1     2.1685     4.0978   29 C    0 0 0
  11 H    1     2.5223     4.7664   14 H    0 0 1
  11 H    1     2.5623     4.8420   42 O    0 0 0
  11 H    1     2.7179     5.1361    6 B    0 0 0

  12 H    1     1.0917     2.0630   27 C    0 0-1
  12 H    1     2.1441     4.0519   30 C    1 0 0
  12 H    1     2.1716     4.1038   28 C    0 0-1
  12 H    1     2.5226     4.7669   13 H    0 0-1
  12 H    1     2.5541     4.8266   37 O    0 0 0
  12 H    1     2.7237     5.1471    1 B    1 0 0

  13 H    1     1.0919     2.0634   28 C    0 0 0
  13 H    1     2.1523     4.0672   25 C    1 0 0
  13 H    1     2.1668     4.0946   27 C    0 0 0
  13 H    1     2.5226     4.7669   12 H    0 0 1
  13 H    1     2.5923     4.8988   40 O    0 0 0
  13 H    1     2.7583     5.2125    6 B    1 0 0

  14 H    1     1.0915     2.0627   29 C    0 0-1
  14 H    1     2.1483     4.0597   30 C    0 0 0
  14 H    1     2.1679     4.0968   26 C    0 0-1
  14 H    1     2.5223     4.7664   11 H    0 0-1
  14 H    1     2.5809     4.8771   38 O    0 0 0
  14 H    1     2.7404     5.1785    1 B    0 0 0

  15 H    1     1.0916     2.0628   32 C    0 0 0
  15 H    1     2.1436     4.0508   31 C   -1-1 1
  15 H    1     2.1707     4.1021   35 C    0 0 0
  15 H    1     2.5217     4.7654   18 H    0 0 0
  15 H    1     2.5568     4.8317   42 O    0 0 0
  15 H    1     2.7167     5.1338    5 B   -1-1 1

  16 H    1     1.0914     2.0625   33 C    0 0 0
  16 H    1     2.1488     4.0606   36 C    0 0 0
  16 H    1     2.1663     4.0937   34 C    0 0 0
  16 H    1     2.5170     4.7564   17 H    0 0 0
  16 H    1     2.5780     4.8718   37 O    0 0 0
  16 H    1     2.7396     5.1771    3 B    0 0 0

  17 H    1     1.0921     2.0638   34 C    0 0 0
  17 H    1     2.1503     4.0634   31 C    0 0 0
  17 H    1     2.1683     4.0976   33 C    0 0 0
  17 H    1     2.5170     4.7564   16 H    0 0 0
  17 H    1     2.5871     4.8888   41 O    0 0 0
  17 H    1     2.7510     5.1986    5 B    0 0 0

  18 H    1     1.0913     2.0622   35 C    0 0 0
  18 H    1     2.1495     4.0619   36 C   -1-1 1
  18 H    1     2.1656     4.0924   32 C    0 0 0
  18 H    1     2.5217     4.7654   15 H    0 0 0
  18 H    1     2.5789     4.8734   39 O    0 0 0
  18 H    1     2.7392     5.1763    3 B   -1-1 1

  19 C    1     1.4018     2.6490   22 C    0 1-1
  19 C    1     1.4025     2.6504   20 C    0 0 0
  19 C    1     1.5510     2.9309    2 B    0 0 0
  19 C    1     2.1443     4.0522    9 H    0 1-1
  19 C    1     2.1462     4.0557    7 H    0 0 0
  19 C    1     2.4237     4.5800   21 C    0 1-1

  20 C    1     1.0917     2.0630    7 H    0 0 0
  20 C    1     1.3915     2.6296   23 C    0 0 0
  20 C    1     1.4025     2.6504   19 C    0 0 0
  20 C    1     2.1689     4.0986   10 H    0 0 0
  20 C    1     2.4192     4.5716   22 C    0 1-1
  20 C    1     2.4241     4.5809   24 C    0 0 0

  21 C    1     1.0909     2.0615    8 H    0 0 0
  21 C    1     1.3909     2.6284   22 C    0 0 0
  21 C    1     1.4015     2.6484   24 C    0-1 1
  21 C    1     2.1694     4.0996    9 H    0 0 0
  21 C    1     2.4189     4.5711   23 C    0-1 1
  21 C    1     2.4237     4.5800   19 C    0-1 1

  22 C    1     1.0909     2.0614    9 H    0 0 0
  22 C    1     1.3909     2.6284   21 C    0 0 0
  22 C    1     1.4018     2.6490   19 C    0-1 1
  22 C    1     2.1688     4.0985    8 H    0 0 0
  22 C    1     2.4192     4.5716   20 C    0-1 1
  22 C    1     2.4226     4.5780   24 C    0-1 1

  23 C    1     1.0912     2.0621   10 H    0 0 0
  23 C    1     1.3915     2.6296   20 C    0 0 0
  23 C    1     1.4021     2.6497   24 C    0 0 0
  23 C    1     2.1712     4.1030    7 H    0 0 0
  23 C    1     2.4189     4.5711   21 C    0 1-1
  23 C    1     2.4238     4.5802   19 C    0 0 0

  24 C    1     1.4015     2.6484   21 C    0 1-1
  24 C    1     1.4021     2.6497   23 C    0 0 0
  24 C    1     1.5480     2.9253    4 B    0 0 0
  24 C    1     2.1455     4.0543    8 H    0 1-1
  24 C    1     2.1469     4.0571   10 H    0 0 0
  24 C    1     2.4226     4.5780   22 C    0 1-1

  25 C    1     1.4025     2.6504   26 C    0 0 0
  25 C    1     1.4037     2.6526   28 C   -1 0 0
  25 C    1     1.5546     2.9377    6 B    0 0 0
  25 C    1     2.1443     4.0521   11 H    0 0 0
  25 C    1     2.1523     4.0672   13 H   -1 0 0
  25 C    1     2.4271     4.5866   27 C   -1 0 0

  26 C    1     1.0911     2.0619   11 H    0 0 0
  26 C    1     1.3916     2.6298   29 C    0 0 0
  26 C    1     1.4025     2.6504   25 C    0 0 0
  26 C    1     2.1679     4.0968   14 H    0 0 1
  26 C    1     2.4165     4.5666   28 C   -1 0 0
  26 C    1     2.4246     4.5819   30 C    0 0 1

  27 C    1     1.0917     2.0630   12 H    0 0 1
  27 C    1     1.3928     2.6320   28 C    0 0 0
  27 C    1     1.4024     2.6502   30 C    1 0 1
  27 C    1     2.1668     4.0946   13 H    0 0 0
  27 C    1     2.4167     4.5668   29 C    1 0 0
  27 C    1     2.4271     4.5866   25 C    1 0 0

  28 C    1     1.0919     2.0634   13 H    0 0 0
  28 C    1     1.3928     2.6320   27 C    0 0 0
  28 C    1     1.4037     2.6526   25 C    1 0 0
  28 C    1     2.1716     4.1038   12 H    0 0 1
  28 C    1     2.4165     4.5666   26 C    1 0 0
  28 C    1     2.4277     4.5877   30 C    1 0 1

  29 C    1     1.0915     2.0627   14 H    0 0 1
  29 C    1     1.3916     2.6298   26 C    0 0 0
  29 C    1     1.4023     2.6499   30 C    0 0 1
  29 C    1     2.1685     4.0978   11 H    0 0 0
  29 C    1     2.4167     4.5668   27 C   -1 0 0
  29 C    1     2.4281     4.5885   25 C    0 0 0

  30 C    1     1.4023     2.6499   29 C    0 0-1
  30 C    1     1.4024     2.6502   27 C   -1 0-1
  30 C    1     1.5517     2.9323    1 B    0 0 0
  30 C    1     2.1441     4.0519   12 H   -1 0 0
  30 C    1     2.1483     4.0597   14 H    0 0 0
  30 C    1     2.4246     4.5819   26 C    0 0-1

  31 C    1     1.4022     2.6498   32 C    1 1-1
  31 C    1     1.4030     2.6513   34 C    0 0 0
  31 C    1     1.5526     2.9339    5 B    0 0 0
  31 C    1     2.1436     4.0508   15 H    1 1-1
  31 C    1     2.1503     4.0634   17 H    0 0 0
  31 C    1     2.4265     4.5854   33 C    0 0 0

  32 C    1     1.0916     2.0628   15 H    0 0 0
  32 C    1     1.3918     2.6301   35 C    0 0 0
  32 C    1     1.4022     2.6498   31 C   -1-1 1
  32 C    1     2.1656     4.0924   18 H    0 0 0
  32 C    1     2.4163     4.5661   34 C   -1-1 1
  32 C    1     2.4270     4.5863   36 C   -1-1 1

  33 C    1     1.0914     2.0625   16 H    0 0 0
  33 C    1     1.3927     2.6318   34 C    0 0 0
  33 C    1     1.4029     2.6511   36 C    0 0 0
  33 C    1     2.1683     4.0976   17 H    0 0 0
  33 C    1     2.4155     4.5646   35 C    1 1-1
  33 C    1     2.4265     4.5854   31 C    0 0 0

  34 C    1     1.0921     2.0638   17 H    0 0 0
  34 C    1     1.3927     2.6318   33 C    0 0 0
  34 C    1     1.4030     2.6513   31 C    0 0 0
  34 C    1     2.1663     4.0937   16 H    0 0 0
  34 C    1     2.4163     4.5661   32 C    1 1-1
  34 C    1     2.4289     4.5899   36 C    0 0 0

  35 C    1     1.0913     2.0622   18 H    0 0 0
  35 C    1     1.3918     2.6301   32 C    0 0 0
  35 C    1     1.4029     2.6511   36 C   -1-1 1
  35 C    1     2.1707     4.1021   15 H    0 0 0
  35 C    1     2.4155     4.5646   33 C   -1-1 1
  35 C    1     2.4269     4.5861   31 C   -1-1 1

  36 C    1     1.4029     2.6511   33 C    0 0 0
  36 C    1     1.4029     2.6511   35 C    1 1-1
  36 C    1     1.5529     2.9346    3 B    0 0 0
  36 C    1     2.1488     4.0606   16 H    0 0 0
  36 C    1     2.1495     4.0619   18 H    1 1-1
  36 C    1     2.4270     4.5863   32 C    1 1-1

  37 O    1     1.3790     2.6060    3 B    0 0 0
  37 O    1     1.3795     2.6068    1 B    1 0 0
  37 O    1     2.3868     4.5105   39 O    1 1-1
  37 O    1     2.3885     4.5136   38 O    1 0 0
  37 O    1     2.5389     4.7979   30 C    1 0 0
  37 O    1     2.5412     4.8022   36 C    0 0 0

  38 O    1     1.3787     2.6054    1 B    0 0 0
  38 O    1     1.3792     2.6064    2 B    0 0 0
  38 O    1     2.3885     4.5136   37 O   -1 0 0
  38 O    1     2.3912     4.5188   39 O    0 1-1
  38 O    1     2.5351     4.7907   19 C    0 0 0
  38 O    1     2.5405     4.8008   30 C    0 0 0

  39 O    1     1.3795     2.6069    3 B   -1-1 1
  39 O    1     1.3798     2.6075    2 B    0-1 1
  39 O    1     2.3868     4.5105   37 O   -1-1 1
  39 O    1     2.3912     4.5188   38 O    0-1 1
  39 O    1     2.5416     4.8030   19 C    0-1 1
  39 O    1     2.5427     4.8050   36 C   -1-1 1

  40 O    1     1.3783     2.6045    6 B    1 0 0
  40 O    1     1.3786     2.6051    4 B    0-1 1
  40 O    1     2.3876     4.5120   42 O    1 0 0
  40 O    1     2.3914     4.5191   41 O    0-1 1
  40 O    1     2.5354     4.7912   25 C    1 0 0
  40 O    1     2.5360     4.7924   24 C    0-1 1

  41 O    1     1.3778     2.6037    5 B    0 0 0
  41 O    1     1.3779     2.6039    4 B    0 0 0
  41 O    1     2.3870     4.5108   42 O    1 1-1
  41 O    1     2.3914     4.5191   40 O    0 1-1
  41 O    1     2.5307     4.7822   24 C    0 0 0
  41 O    1     2.5355     4.7914   31 C    0 0 0

  42 O    1     1.3812     2.6101    6 B    0 0 0
  42 O    1     1.3814     2.6105    5 B   -1-1 1
  42 O    1     2.3870     4.5108   41 O   -1-1 1
  42 O    1     2.3876     4.5120   40 O   -1 0 0
  42 O    1     2.5481     4.8153   31 C   -1-1 1
  42 O    1     2.5522     4.8230   25 C    0 0 0


 SYMMETRY ALLOWED INTERNAL DEGREE(S) OF FREEDOM: 123
 TTTTTTTTTTTTTTTTTTTTTTTTTTTTTT SYMM        TELAPSE        0.30 TCPU        0.30
 TTTTTTTTTTTTTTTTTTTTTTTTTTTTTT INT_SCREEN  TELAPSE        0.33 TCPU        0.33

 DFT PARAMETERS

     ATOM       ELECTRONS   NET CHARGE   R(ANGSTROM)
   1   5  B       5.0000      0.0000     0.89000000
   7   1  H       1.0000      0.0000     1.11000000
  19   6  C       6.0000      0.0000     0.77000000
  37   8  O       8.0000      0.0000     0.74000000

 SIZE OF GRID=    1336596
 TTTTTTTTTTTTTTTTTTTTTTTTTTTTTT MAKE_GRID2  TELAPSE        8.26 TCPU        8.24
 BECKE WEIGHT FUNCTION
 RADSAFE =     2.00
 TOLERANCES - DENSITY:10**- 6; POTENTIAL:10**- 9; GRID WGT:10**-14

 RADIAL INTEGRATION  - INTERVALS (POINTS,UPPER LIMIT):            1( 75,  4.0*R)

 ANGULAR INTEGRATION - INTERVALS (ACCURACY LEVEL [N. POINTS] UPPER LIMIT):
  1(  4[  86]   0.2)  2(  8[ 194]   0.5)  3( 12[ 350]   0.9)  4( 16[ 974]   3.5)
  5( 12[ 350]9999.0)
 TTTTTTTTTTTTTTTTTTTTTTTTTTTTTT INT_CALC    TELAPSE        8.34 TCPU        8.32
 EEEEEEEEEE INT_CALC TERMINATION  DATE 02 12 2025 TIME 08:06:37.3

 *******************************************************************************
 COF-5_z45_inc_L020                                                              
 CRYSTAL - SCF - TYPE OF CALCULATION :  RESTRICTED CLOSED SHELL
 *******************************************************************************

 CAPPA:IS1  2;IS2  2;IS3  8; K PTS MONK NET  20; SYMMOPS:K SPACE   2;G SPACE   1

 TTTTTTTTTTTTTTTTTTTTTTTTTTTTTT SDIK        TELAPSE        9.19 TCPU       15.86

 AAAAAAAAAAAAAAAAAAAAAAAAAAAAAAAAAAAAAAAAAAAAAAAAAAAAAAAAAAAAAAAAAAAAAAAAAAAAAAA
         ATOMIC WAVEFUNCTION(S)


 NUCLEAR CHARGE  5.0  SYMMETRY SPECIES            S    P
 N. ELECTRONS    5.0  NUMBER OF PRIMITIVE GTOS    8    4
                      NUMBER OF CONTRACTED GTOS   4    2
                      NUMBER OF CLOSED SHELLS     2    0
                      OPEN SHELL OCCUPATION       0    1

  ZNUC  SCFIT    TOTAL HF ENERGY   KINETIC ENERGY   VIRIAL THEOREM ACCURACY
   5.0    11    -2.451164084E+01  2.462155050E+01 -1.995536038E+00  1.5E-06

 NUCLEAR CHARGE  1.0  SYMMETRY SPECIES            S
 N. ELECTRONS    1.0  NUMBER OF PRIMITIVE GTOS    4
                      NUMBER OF CONTRACTED GTOS   2
                      NUMBER OF CLOSED SHELLS     0
                      OPEN SHELL OCCUPATION       1

  ZNUC  SCFIT    TOTAL HF ENERGY   KINETIC ENERGY   VIRIAL THEOREM ACCURACY
   1.0     1    -4.977266687E-01  5.190767460E-01 -1.958869132E+00  0.0E+00

 NUCLEAR CHARGE  6.0  SYMMETRY SPECIES            S    P
 N. ELECTRONS    6.0  NUMBER OF PRIMITIVE GTOS    8    4
                      NUMBER OF CONTRACTED GTOS   4    2
                      NUMBER OF CLOSED SHELLS     2    0
                      OPEN SHELL OCCUPATION       0    2

  ZNUC  SCFIT    TOTAL HF ENERGY   KINETIC ENERGY   VIRIAL THEOREM ACCURACY
   6.0     9    -3.766704647E+01  3.775180683E+01 -1.997754800E+00  1.1E-06

 NUCLEAR CHARGE  8.0  SYMMETRY SPECIES            S    P
 N. ELECTRONS    8.0  NUMBER OF PRIMITIVE GTOS    8    4
                      NUMBER OF CONTRACTED GTOS   4    2
                      NUMBER OF CLOSED SHELLS     2    0
                      OPEN SHELL OCCUPATION       0    4

  ZNUC  SCFIT    TOTAL HF ENERGY   KINETIC ENERGY   VIRIAL THEOREM ACCURACY
   8.0    12    -7.477373220E+01  7.477365593E+01 -2.000001020E+00  3.8E-06

 AAAAAAAAAAAAAAAAAAAAAAAAAAAAAAAAAAAAAAAAAAAAAAAAAAAAAAAAAAAAAAAAAAAAAAAAAAAAAAA

 CHARGE NORMALIZATION FACTOR   1.00000000
 TOTAL ATOMIC CHARGES:
   5.0000000   5.0000000   5.0000000   5.0000000   5.0000000   5.0000000
   1.0000000   1.0000000   1.0000000   1.0000000   1.0000000   1.0000000
   1.0000000   1.0000000   1.0000000   1.0000000   1.0000000   1.0000000
   6.0000000   6.0000000   6.0000000   6.0000000   6.0000000   6.0000000
   6.0000000   6.0000000   6.0000000   6.0000000   6.0000000   6.0000000
   6.0000000   6.0000000   6.0000000   6.0000000   6.0000000   6.0000000
   8.0000000   8.0000000   8.0000000   8.0000000   8.0000000   8.0000000
 TTTTTTTTTTTTTTTTTTTTTTTTTTTTTT MOQGAD      TELAPSE        9.27 TCPU       17.21
 TTTTTTTTTTTTTTTTTTTTTTTTTTTTTT SHELLXN     TELAPSE       14.94 TCPU      181.20
 TTTTTTTTTTTTTTTTTTTTTTTTTTTTTT MONMO3      TELAPSE       15.08 TCPU      185.38
 NUMERICALLY INTEGRATED DENSITY    197.9999497885
 TTTTTTTTTTTTTTTTTTTTTTTTTTTTTT NUMDFT      TELAPSE       15.55 TCPU      200.61
 CYC   0 ETOT(AU) -1.295945339279E+03 DETOT -1.30E+03 tst  0.00E+00 PX  1.00E+00
 TTTTTTTTTTTTTTTTTTTTTTTTTTTTTT DIIS        TELAPSE       15.59 TCPU      201.72
 TTTTTTTTTTTTTTTTTTTTTTTTTTTTTT FDIK        TELAPSE       16.07 TCPU      217.25
 INSULATING STATE
 TOP OF VALENCE BANDS -    BAND     99; K    1; EIG -3.1340836E-01 AU
 BOTTOM OF VIRTUAL BANDS - BAND    100; K    1; EIG -1.5614502E-01 AU
 DIRECT ENERGY BAND GAP:   4.2794 eV
 TTTTTTTTTTTTTTTTTTTTTTTTTTTTTT PDIG        TELAPSE       16.35 TCPU      223.39
 CHARGE NORMALIZATION FACTOR   1.00000000
 TOTAL ATOMIC CHARGES:
   4.1638269   4.1637514   4.1648839   4.1666402   4.1637692   4.1628134
   0.7850977   0.7850609   0.7852260   0.7852632   0.7850906   0.7850004
   0.7859575   0.7855320   0.7848069   0.7853959   0.7854271   0.7856724
   6.0433328   6.2649072   6.2649942   6.2657842   6.2645010   6.0455128
   6.0398851   6.2661888   6.2643746   6.2667919   6.2666319   6.0433106
   6.0425177   6.2650170   6.2658816   6.2652770   6.2669051   6.0400496
   8.6919403   8.6911456   8.6914990   8.6907693   8.6902721   8.6932950
 TTTTTTTTTTTTTTTTTTTTTTTTTTTTTT MOQGAD      TELAPSE       16.39 TCPU      223.43
 TTTTTTTTTTTTTTTTTTTTTTTTTTTTTT SHELLXN     TELAPSE       21.74 TCPU      393.77
 TTTTTTTTTTTTTTTTTTTTTTTTTTTTTT MONMO3      TELAPSE       21.87 TCPU      397.93
 NUMERICALLY INTEGRATED DENSITY    197.9999634929
 TTTTTTTTTTTTTTTTTTTTTTTTTTTTTT NUMDFT      TELAPSE       22.36 TCPU      413.44
 CYC   1 ETOT(AU) -1.288809226751E+03 DETOT  7.14E+00 tst  0.00E+00 PX  1.00E+00
 TTTTTTTTTTTTTTTTTTTTTTTTTTTTTT DIIS        TELAPSE       22.40 TCPU      414.80
 DIIS TEST: 0.11118E+01 AT SCF   CYCLE   1 - MIX   30 %
 TTTTTTTTTTTTTTTTTTTTTTTTTTTTTT FDIK        TELAPSE       22.89 TCPU      430.65
 INSULATING STATE
 TOP OF VALENCE BANDS -    BAND     99; K    1; EIG -2.2370798E-01 AU
 BOTTOM OF VIRTUAL BANDS - BAND    100; K    1; EIG -7.7794763E-02 AU
 DIRECT ENERGY BAND GAP:   3.9705 eV
 TTTTTTTTTTTTTTTTTTTTTTTTTTTTTT PDIG        TELAPSE       23.18 TCPU      436.79
 CHARGE NORMALIZATION FACTOR   1.00000000
 TOTAL ATOMIC CHARGES:
   4.7085121   4.7101385   4.7103246   4.7108946   4.7096180   4.7082296
   0.9126192   0.9129679   0.9156626   0.9155842   0.9121386   0.9117159
   0.9126911   0.9129852   0.9121801   0.9126845   0.9153856   0.9155803
   5.8650565   6.1268879   6.1248886   6.1360093   6.1382966   5.8612081
   5.8714486   6.1292598   6.1317315   6.1347662   6.1323835   5.8666643
   5.8671067   6.1215498   6.1246237   6.1383000   6.1355078   5.8675110
   8.3326314   8.3313283   8.3396902   8.3299979   8.3368415   8.3363982
 TTTTTTTTTTTTTTTTTTTTTTTTTTTTTT MOQGAD      TELAPSE       23.22 TCPU      436.83
 TTTTTTTTTTTTTTTTTTTTTTTTTTTTTT SHELLXN     TELAPSE       28.56 TCPU      607.21
 TTTTTTTTTTTTTTTTTTTTTTTTTTTTTT MONMO3      TELAPSE       28.69 TCPU      611.37
 NUMERICALLY INTEGRATED DENSITY    197.9999576108
 TTTTTTTTTTTTTTTTTTTTTTTTTTTTTT NUMDFT      TELAPSE       29.18 TCPU      626.80
 CYC   2 ETOT(AU) -1.289004941599E+03 DETOT -1.96E-01 tst  4.24E-03 PX  1.58E-01
 TTTTTTTTTTTTTTTTTTTTTTTTTTTTTT DIIS        TELAPSE       29.23 TCPU      628.36
 DIIS TEST: 0.46277E+00 AT SCF   CYCLE   2 - DIIS ACTIVE - HISTORY:     2 CYCLES
 TTTTTTTTTTTTTTTTTTTTTTTTTTTTTT FDIK        TELAPSE       29.72 TCPU      644.14
 INSULATING STATE
 TOP OF VALENCE BANDS -    BAND     99; K    1; EIG -2.3707454E-01 AU
 BOTTOM OF VIRTUAL BANDS - BAND    100; K    1; EIG -7.3424497E-02 AU
 DIRECT ENERGY BAND GAP:   4.4531 eV
 TTTTTTTTTTTTTTTTTTTTTTTTTTTTTT PDIG        TELAPSE       30.00 TCPU      650.28
 CHARGE NORMALIZATION FACTOR   1.00000000
 TOTAL ATOMIC CHARGES:
   4.5025518   4.5025598   4.5030034   4.5044216   4.5022488   4.5015796
   0.8893494   0.8891396   0.8913831   0.8915738   0.8887106   0.8885416
   0.8901773   0.8896202   0.8881532   0.8892739   0.8917572   0.8913503
   5.8875302   6.1589545   6.1598826   6.1587592   6.1587078   5.8896120
   5.8911284   6.1575749   6.1578188   6.1602489   6.1603273   5.8925689
   5.8889103   6.1587782   6.1592666   6.1595864   6.1602857   5.8877279
   8.5103082   8.5097263   8.5085916   8.5091930   8.5066237   8.5124934
 TTTTTTTTTTTTTTTTTTTTTTTTTTTTTT MOQGAD      TELAPSE       30.04 TCPU      650.32
 TTTTTTTTTTTTTTTTTTTTTTTTTTTTTT SHELLXN     TELAPSE       35.39 TCPU      820.70
 TTTTTTTTTTTTTTTTTTTTTTTTTTTTTT MONMO3      TELAPSE       35.52 TCPU      824.87
 NUMERICALLY INTEGRATED DENSITY    197.9999580275
 TTTTTTTTTTTTTTTTTTTTTTTTTTTTTT NUMDFT      TELAPSE       36.00 TCPU      840.36
 CYC   3 ETOT(AU) -1.289101095677E+03 DETOT -9.62E-02 tst  6.95E-04 PX  6.32E-02
 TTTTTTTTTTTTTTTTTTTTTTTTTTTTTT DIIS        TELAPSE       36.05 TCPU      841.93
 DIIS TEST: 0.12312E-01 AT SCF   CYCLE   3 - DIIS ACTIVE - HISTORY:     3 CYCLES
 TTTTTTTTTTTTTTTTTTTTTTTTTTTTTT FDIK        TELAPSE       36.55 TCPU      857.85
 INSULATING STATE
 TOP OF VALENCE BANDS -    BAND     99; K    1; EIG -2.4769017E-01 AU
 BOTTOM OF VIRTUAL BANDS - BAND    100; K    1; EIG -8.2346354E-02 AU
 DIRECT ENERGY BAND GAP:   4.4992 eV
 TTTTTTTTTTTTTTTTTTTTTTTTTTTTTT PDIG        TELAPSE       36.83 TCPU      863.99
 CHARGE NORMALIZATION FACTOR   1.00000000
 TOTAL ATOMIC CHARGES:
   4.5090488   4.5080395   4.5083076   4.5096612   4.5074529   4.5083676
   0.8721130   0.8724913   0.8738231   0.8739178   0.8709780   0.8707976
   0.8721409   0.8721160   0.8715943   0.8723095   0.8740357   0.8740888
   5.9392702   6.1619814   6.1597644   6.1685548   6.1690406   5.9366162
   5.9425668   6.1646046   6.1650818   6.1672239   6.1655395   5.9403793
   5.9395625   6.1587022   6.1609442   6.1694863   6.1681838   5.9387829
   8.4758308   8.4745647   8.4810202   8.4735469   8.4788640   8.4786045
 TTTTTTTTTTTTTTTTTTTTTTTTTTTTTT MOQGAD      TELAPSE       36.87 TCPU      864.03
 TTTTTTTTTTTTTTTTTTTTTTTTTTTTTT SHELLXN     TELAPSE       42.22 TCPU     1034.42
 TTTTTTTTTTTTTTTTTTTTTTTTTTTTTT MONMO3      TELAPSE       42.35 TCPU     1038.59
 NUMERICALLY INTEGRATED DENSITY    197.9999586774
 TTTTTTTTTTTTTTTTTTTTTTTTTTTTTT NUMDFT      TELAPSE       42.83 TCPU     1054.03
 CYC   4 ETOT(AU) -1.289103648662E+03 DETOT -2.55E-03 tst  2.67E-05 PX  1.28E-02
 TTTTTTTTTTTTTTTTTTTTTTTTTTTTTT DIIS        TELAPSE       42.89 TCPU     1055.94
 DIIS TEST: 0.40650E-02 AT SCF   CYCLE   4 - DIIS ACTIVE - HISTORY:     4 CYCLES
 TTTTTTTTTTTTTTTTTTTTTTTTTTTTTT FDIK        TELAPSE       43.39 TCPU     1071.94
 INSULATING STATE
 TOP OF VALENCE BANDS -    BAND     99; K    1; EIG -2.4560570E-01 AU
 BOTTOM OF VIRTUAL BANDS - BAND    100; K    1; EIG -8.1706031E-02 AU
 DIRECT ENERGY BAND GAP:   4.4599 eV
 TTTTTTTTTTTTTTTTTTTTTTTTTTTTTT PDIG        TELAPSE       43.68 TCPU     1078.08
 CHARGE NORMALIZATION FACTOR   1.00000000
 TOTAL ATOMIC CHARGES:
   4.5098586   4.5100899   4.5104737   4.5117144   4.5096402   4.5090740
   0.8755293   0.8754396   0.8774893   0.8775713   0.8747225   0.8744728
   0.8759701   0.8755998   0.8746066   0.8755671   0.8777470   0.8775473
   5.9180471   6.1628880   6.1632013   6.1669923   6.1674720   5.9189931
   5.9214989   6.1642012   6.1648727   6.1669811   6.1665468   5.9216606
   5.9197059   6.1616301   6.1626668   6.1678867   6.1677960   5.9187084
   8.4874922   8.4866247   8.4886152   8.4859286   8.4865271   8.4899499
 TTTTTTTTTTTTTTTTTTTTTTTTTTTTTT MOQGAD      TELAPSE       43.72 TCPU     1078.12
 TTTTTTTTTTTTTTTTTTTTTTTTTTTTTT SHELLXN     TELAPSE       49.07 TCPU     1248.47
 TTTTTTTTTTTTTTTTTTTTTTTTTTTTTT MONMO3      TELAPSE       49.20 TCPU     1252.64
 NUMERICALLY INTEGRATED DENSITY    197.9999585885
 TTTTTTTTTTTTTTTTTTTTTTTTTTTTTT NUMDFT      TELAPSE       49.68 TCPU     1268.17
 CYC   5 ETOT(AU) -1.289104576875E+03 DETOT -9.28E-04 tst  6.13E-06 PX  6.60E-03
 TTTTTTTTTTTTTTTTTTTTTTTTTTTTTT DIIS        TELAPSE       49.75 TCPU     1270.12
 DIIS TEST: 0.66085E-04 AT SCF   CYCLE   5 - DIIS ACTIVE - HISTORY:     5 CYCLES
 TTTTTTTTTTTTTTTTTTTTTTTTTTTTTT FDIK        TELAPSE       50.24 TCPU     1286.04
 INSULATING STATE
 TOP OF VALENCE BANDS -    BAND     99; K    1; EIG -2.4536017E-01 AU
 BOTTOM OF VIRTUAL BANDS - BAND    100; K    1; EIG -8.1105553E-02 AU
 DIRECT ENERGY BAND GAP:   4.4696 eV
 TTTTTTTTTTTTTTTTTTTTTTTTTTTTTT PDIG        TELAPSE       50.52 TCPU     1292.18
 CHARGE NORMALIZATION FACTOR   1.00000000
 TOTAL ATOMIC CHARGES:
   4.5100334   4.5096503   4.5099696   4.5112948   4.5091561   4.5092718
   0.8763454   0.8766005   0.8783974   0.8785391   0.8756334   0.8754641
   0.8768371   0.8766876   0.8756759   0.8764827   0.8786352   0.8785753
   5.9193506   6.1631153   6.1614150   6.1668536   6.1669970   5.9175805
   5.9225036   6.1638455   6.1641102   6.1665865   6.1653851   5.9213295
   5.9196053   6.1604989   6.1623289   6.1677666   6.1670233   5.9187598
   8.4863698   8.4853733   8.4893009   8.4844409   8.4872061   8.4890043
 TTTTTTTTTTTTTTTTTTTTTTTTTTTTTT MOQGAD      TELAPSE       50.57 TCPU     1292.22
 TTTTTTTTTTTTTTTTTTTTTTTTTTTTTT SHELLXN     TELAPSE       55.91 TCPU     1462.57
 TTTTTTTTTTTTTTTTTTTTTTTTTTTTTT MONMO3      TELAPSE       56.04 TCPU     1466.74
 NUMERICALLY INTEGRATED DENSITY    197.9999585651
 TTTTTTTTTTTTTTTTTTTTTTTTTTTTTT NUMDFT      TELAPSE       56.53 TCPU     1482.23
 CYC   6 ETOT(AU) -1.289104594457E+03 DETOT -1.76E-05 tst  1.73E-07 PX  9.43E-04
 TTTTTTTTTTTTTTTTTTTTTTTTTTTTTT DIIS        TELAPSE       56.60 TCPU     1484.48
 DIIS TEST: 0.74935E-05 AT SCF   CYCLE   6 - DIIS ACTIVE - HISTORY:     6 CYCLES
 TTTTTTTTTTTTTTTTTTTTTTTTTTTTTT FDIK        TELAPSE       57.09 TCPU     1500.29
 INSULATING STATE
 TOP OF VALENCE BANDS -    BAND     99; K    1; EIG -2.4538160E-01 AU
 BOTTOM OF VIRTUAL BANDS - BAND    100; K    1; EIG -8.1186127E-02 AU
 DIRECT ENERGY BAND GAP:   4.4680 eV
 TTTTTTTTTTTTTTTTTTTTTTTTTTTTTT PDIG        TELAPSE       57.40 TCPU     1506.44
 CHARGE NORMALIZATION FACTOR   1.00000000
 TOTAL ATOMIC CHARGES:
   4.5099442   4.5099200   4.5103024   4.5115862   4.5094815   4.5091542
   0.8764598   0.8764072   0.8783781   0.8784591   0.8756132   0.8753700
   0.8768645   0.8765318   0.8755637   0.8765082   0.8786412   0.8784534
   5.9183506   6.1621097   6.1622976   6.1663046   6.1668586   5.9191766
   5.9220490   6.1634557   6.1641444   6.1662737   6.1656008   5.9219001
   5.9199897   6.1607343   6.1618959   6.1672497   6.1670160   5.9189633
   8.4868459   8.4858892   8.4884227   8.4851985   8.4863362   8.4892985
 TTTTTTTTTTTTTTTTTTTTTTTTTTTTTT MOQGAD      TELAPSE       57.44 TCPU     1506.49
 TTTTTTTTTTTTTTTTTTTTTTTTTTTTTT SHELLXN     TELAPSE       62.79 TCPU     1676.79
 TTTTTTTTTTTTTTTTTTTTTTTTTTTTTT MONMO3      TELAPSE       62.92 TCPU     1680.97
 NUMERICALLY INTEGRATED DENSITY    197.9999585628
 TTTTTTTTTTTTTTTTTTTTTTTTTTTTTT NUMDFT      TELAPSE       63.40 TCPU     1696.49
 CYC   7 ETOT(AU) -1.289104595216E+03 DETOT -7.59E-07 tst  5.00E-08 PX  3.49E-04
 TTTTTTTTTTTTTTTTTTTTTTTTTTTTTT DIIS        TELAPSE       63.48 TCPU     1698.84
 DIIS TEST: 0.16592E-05 AT SCF   CYCLE   7 - DIIS ACTIVE - HISTORY:     7 CYCLES
 TTTTTTTTTTTTTTTTTTTTTTTTTTTTTT FDIK        TELAPSE       63.97 TCPU     1714.69
 INSULATING STATE
 TOP OF VALENCE BANDS -    BAND     99; K    1; EIG -2.4538475E-01 AU
 BOTTOM OF VIRTUAL BANDS - BAND    100; K    1; EIG -8.1199668E-02 AU
 DIRECT ENERGY BAND GAP:   4.4677 eV
 TTTTTTTTTTTTTTTTTTTTTTTTTTTTTT PDIG        TELAPSE       64.25 TCPU     1720.82
 CHARGE NORMALIZATION FACTOR   1.00000000
 TOTAL ATOMIC CHARGES:
   4.5100450   4.5099521   4.5103067   4.5115914   4.5094783   4.5092664
   0.8763586   0.8764394   0.8783319   0.8784461   0.8755639   0.8753556
   0.8768033   0.8765307   0.8755568   0.8764462   0.8785873   0.8784493
   5.9188840   6.1625448   6.1618551   6.1665451   6.1668348   5.9184217
   5.9221138   6.1636329   6.1640981   6.1663386   6.1656015   5.9216873
   5.9198079   6.1606206   6.1620247   6.1674072   6.1670372   5.9189263
   8.4867133   8.4858012   8.4887227   8.4849752   8.4866206   8.4892766
 TTTTTTTTTTTTTTTTTTTTTTTTTTTTTT MOQGAD      TELAPSE       64.29 TCPU     1720.87
 TTTTTTTTTTTTTTTTTTTTTTTTTTTTTT SHELLXN     TELAPSE       69.64 TCPU     1891.21
 +++ ENERGIES IN A.U. +++
 ::: EXT EL-POLE                                  -1.1168020524396E+03
 ::: EXT EL-SPHEROPOLE                             1.2691997682916E+01
 ::: BIELET ZONE E-E                               1.9892778630792E+03
 ::: TOTAL E-E                                     8.8516780832243E+02
 ::: TOTAL E-N + N-E                              -3.6029106022248E+03
 ::: TOTAL N-N                                     2.8242682723637E+02
 ::: KINETIC ENERGY                                1.2799268617225E+03
 ::: PSEUDO TOTAL   ENERGY                        -1.1553891049435E+03
 ::: VIRIAL COEFFICIENT                            1.0511382335942E+00
 TTTTTTTTTTTTTTTTTTTTTTTTTTTTTT MONMO3      TELAPSE       69.77 TCPU     1895.38
 NUMERICALLY INTEGRATED DENSITY    197.9999585622
 EXCHANGE ENERGY: -0.126026579662E+03  CORRELATION ENERGY: -0.768891095640E+01
 TTTTTTTTTTTTTTTTTTTTTTTTTTTTTT NUMDFT      TELAPSE       70.25 TCPU     1910.81
 CYC   8 ETOT(AU) -1.289104595561E+03 DETOT -3.46E-07 tst  1.28E-08 PX  3.49E-04

 == SCF ENDED - CONVERGENCE ON ENERGY      E(AU) -1.2891045955615E+03 CYCLES   8


 ENERGY EXPRESSION=HARTREE+FOCK EXCH*0.00000+(HSESOL     EXCH)*1.00000+PBESOL     CORR


 TOTAL ENERGY(DFT)(AU)(  8) -1.2891045955615E+03 DE-3.5E-07 tester 1.3E-08
 TTTTTTTTTTTTTTTTTTTTTTTTTTTTTT EDFT        TELAPSE       70.25 TCPU     1910.81
 
 INFORMATION **** DFTD3 ENERGY **** CALCULATE DFTD3 ENERGY

           DFT-D V3(BJ)
 DF                                         hsesol3c  
 parameters
 s6       :    1.0000
 s8       :    0.0000
 a1       :    0.5196
 a2       :    4.9385
 k1 k3    :   16.0000   -4.0000
 Cutoff   :   50.2022
 CN-Cutoff:   21.1671
 ABC-Cutoff:   21.1671
 
 Edisp /kcal,au:   -22.4739 -0.03581440

 E6    /kcal :   -23.7791
 E8    /kcal :     0.0000
 E6(ABC) "   :   1.305267
 
 INFORMATION **** DFTD3 ENERGY **** NORMAL TERMINATION OF DFTD3 MODULE

 GCP ENERGY CALCULATION
  level        hsesol3c            basis:hsesol3c
  Nbf            474
  Atoms           42

  Parameters: 
  sigma     1.0000
  eta       1.4281
  alpha     0.2936
  beta      1.9467

  dmp_scal      4.0000
  dmp_exp       6.0000
 cutoffs: 
   distance [bohr] 60.0
   noise    [a.u.] 2.2E-16
 SR-damping   T
 ** gCP correction **
  Egcp:        0.0829411316 / (a.u.) ||      52.0464 / (kcal/mol)
 INFORMATION **** GCP **** NORMAL TERMINATION OF GCP MODULE

 *******************************************************************************

 DFT-D3-GCP DISPERSION AND COUNTERPOISE CORRECTION

 D3 DISPERSION ENERGY (AU)      -3.5814403165753E-02
 GCP ENERGY (AU)                 8.2941131636612E-02
 TOTAL ENERGY + DISP + GCP (AU) -1.2890574688330E+03

 *******************************************************************************

 EIGENVECTORS IN FORTRAN UNIT  8
 TTTTTTTTTTTTTTTTTTTTTTTTTTTTTT END         TELAPSE       71.24 TCPU     1917.78
 EEEEEEEEEE TERMINATION  DATE 02 12 2025 TIME 08:07:40.2
