 Default number of threads is:           32

         
 *******************************************************************************
 *                                                                             *
 *                               CRYSTAL23                                     *
 *                      public : 1.0.1 - October 2022                          *
 *                       HTTP://WWW.CRYSTAL.UNITO.IT                           *
 *                                                                             *
 *                              MAIN AUTHORS                                   *
 *                                                                             *
 *  R. DOVESI(1,11), V.R. SAUNDERS(2), C. ROETTI(1,11), R. ORLANDO(1,11),      *
 *  C.M. ZICOVICH-WILSON(1,3), F. PASCALE(4), B. CIVALLERI(1,11),              *
 *  K. DOLL(5), N.M. HARRISON(6), I.J. BUSH(7), Ph. D'ARCO(8),                 *
 *  M. LLUNELL(9), M. CAUSA'(10), Y. NOEL(8), L. MASCHIO(1,11), A. ERBA(1,11)  *
 *  M. RE'RAT(14), S. CASASSA(1,11), B.G. SEARLE(2), J.K. DESMARAIS(1)         *
 *                                                                             *
 *        CONTRIBUTIONS TO THE CODE HAVE ALSO BEEN GIVEN BY                    *
 *                                                                             *
 *  M. FERRABONE(1,11), M. DE LA PIERRE(1,11), M. FERRERO(1,11),               *
 *  J. BAIMA(1,11), E. ALBANESE(1,11), M.F. PEINTINGER(12), R. BAST(13),       *
 *  B. KIRTMAN(15), V. LACIVITA(1,11), R. DEMICHELIS(1,16)                     *
 *  G. BRANDEBURG(17), S. SALUSTRO(1,11), G. SANSONE(1,11)                     *
 *  M.T. RUGGIERO(18), L.E. DAGA(1), L. DONA'(1), A. COSSARD(1)                *
 *                                                                             *
 * (1) THEORETICAL CHEMISTRY GROUP - UNIVERSITA' DI TORINO - TORINO (ITALY)    *
 * (2) SCIENTIFIC COMPUTING DEPARTMENT - STFC DARESBURY (UK)                   *
 * (3) UNIVERSIDAD AUTONOMA DEL ESTADO DE MORELOS - CUERNAVACA (MEXICO)        *
 * (4) UNIVERSITE' DE LORRAINE - NANCY (FRANCE)                                *
 * (5) UNIVERSITAET STUTTGART- STUTTGART (GERMANY)                             *
 * (6) IMPERIAL COLLEGE - LONDON (UK)                                          *
 * (7) SCIENTIFIC COMPUTING DEPARTMENT - STFC RAL (UK)                         *
 * (8) UPMC - SORBONNE UNIVERSITES - PARIS (FRANCE)                            *
 * (9) UNIVERSIDAD DE BARCELONA - BARCELONA (SPAIN)                            *
 *(10) UNIVERSITA' DI NAPOLI "FEDERICO II" - NAPOLI (ITALY)                    *
 *(11) NIS - NANOSTRUCTURED INTERFACES AND SURFACES - TORINO (ITALY)           *
 *(12) MPI FUER CHEMISCHE ENERGIEKONVERSION - MUELHEIM AN DER RUHR (GERMANY)   *
 *(13) UNIVERSITY OF TROMSO - TROMSO (NORWAY)                                  *
 *(14) UNIVERSITE' DE PAU ET DES PAYS DE L'ADOUR - PAU (FRANCE)                *
 *(15) UNIVERSITY OF CALIFORNIA SANTA BARBARA - SANTA BARBARA (USA)            *
 *(16) CURTIN UNIVERSITY - PERTH (AUSTRALIA)                                   *
 *(17) UNIVERSITY COLLEGE LONDON - LONDON (UK)                                 *
 *(18) UNIVERSITY OF VERMONT - BURLINGTON (USA)                                *
 *                                                                             *
 *******************************************************************************
 EEEEEEEEEE STARTING  DATE 19 02 2026 TIME 20:17:35.9
 cof-1_z38_L010_serr                                                             

 CRYSTAL CALCULATION
 (INPUT ACCORDING TO THE INTERNATIONAL TABLES FOR X-RAY CRYSTALLOGRAPHY)
 CRYSTAL FAMILY                       :  TRICLINIC   
 CRYSTAL CLASS  (GROTH - 1921)        :  TRICLINIC PEDIAL                     

 SPACE GROUP (NONCENTROSYMMETRIC)     :  P 1             

 LATTICE PARAMETERS  (ANGSTROMS AND DEGREES) - CONVENTIONAL CELL
        A           B           C        ALPHA        BETA       GAMMA
    15.02361    15.02392     7.60000    90.00032    89.99994   119.99596


 NUMBER OF IRREDUCIBLE ATOMS IN THE CONVENTIONAL CELL:   84

 INPUT COORDINATES

 ATOM AT. N.              COORDINATES
   1   5     6.136805400000E-01  2.273182200000E-01  2.506285100000E-01
   2   5     6.521038200000E-01  3.041725900000E-01  7.506285100000E-01
   3   5     7.727362000000E-01  3.863778800000E-01  2.506285200000E-01
   4   5     8.111594800000E-01  4.632322500000E-01  7.506285200000E-01
   5   5     6.136762700000E-01  3.863606700000E-01  2.493070500000E-01
   6   5     6.520995500000E-01  4.632150400000E-01  7.493070500000E-01
   7   5     2.272552500000E-01  6.136332200000E-01  2.506285200000E-01
   8   5     2.656785300000E-01  6.904875900000E-01  7.506285200000E-01
   9   5     3.863632200000E-01  6.136124500000E-01  2.506285200000E-01
  10   5     4.247865000000E-01  6.904668200000E-01  7.506285200000E-01
  11   5     3.863435000000E-01  7.727516500000E-01  2.493070500000E-01
  12   5     4.247667800000E-01  8.496060200000E-01  7.493070500000E-01
  13   1     9.030436200000E-01  3.089300500000E-01  2.478888400000E-01
  14   1     9.414669000000E-01  3.857844200000E-01  7.478888400000E-01
  15   1     9.663453000000E-02  6.910534400000E-01  2.474699000000E-01
  16   1     1.350578100000E-01  7.679078100000E-01  7.474699000000E-01
  17   1     9.029714200000E-01  5.940724300000E-01  2.474054200000E-01
  18   1     9.413947000000E-01  6.709268000000E-01  7.474054200000E-01
  19   1     9.673618000000E-02  4.056849400000E-01  2.474215000000E-01
  20   1     1.351594600000E-01  4.825393100000E-01  7.474215000000E-01
  21   1     6.910324000000E-01  9.700412000000E-02  2.521111700000E-01
  22   1     7.294556800000E-01  1.738584900000E-01  7.521111800000E-01
  23   1     3.089297200000E-01  9.034373100000E-01  2.525301400000E-01
  24   1     3.473530000000E-01  9.802916800000E-01  7.525301400000E-01
  25   1     4.058699900000E-01  9.704998000000E-02  2.525946600000E-01
  26   1     4.442932700000E-01  1.739043500000E-01  7.525946600000E-01
  27   1     5.943122100000E-01  9.033473200000E-01  2.525784700000E-01
  28   1     6.327354900000E-01  9.802016900000E-01  7.525784700000E-01
  29   1     6.910727400000E-01  5.940542100000E-01  2.478888700000E-01
  30   1     7.294960200000E-01  6.709085800000E-01  7.478888700000E-01
  31   1     3.089618300000E-01  4.056093300000E-01  2.474698700000E-01
  32   1     3.473851100000E-01  4.824637000000E-01  7.474698700000E-01
  33   1     4.058405700000E-01  3.088232500000E-01  2.474053700000E-01
  34   1     4.442638500000E-01  3.856776200000E-01  7.474053700000E-01
  35   1     5.942908800000E-01  6.909579300000E-01  2.474215500000E-01
  36   1     6.327141600000E-01  7.678123000000E-01  7.474215500000E-01
  37   6     8.918903100000E-01  4.459436900000E-01  2.492587000000E-01
  38   6     9.303135900000E-01  5.227980600000E-01  7.492587000000E-01
  39   6     9.464891100000E-01  3.927856300000E-01  2.479533100000E-01
  40   6     9.849123900000E-01  4.696400000000E-01  7.479533100000E-01
  41   6     5.338812000000E-02  6.071853000000E-01  2.478405500000E-01
  42   6     9.181140000000E-02  6.840396700000E-01  7.478405500000E-01
  43   6     9.464521100000E-01  5.536921900000E-01  2.481789700000E-01
  44   6     9.848753900000E-01  6.305465600000E-01  7.481789700000E-01
  45   6     5.342634000000E-02  4.462499700000E-01  2.473086900000E-01
  46   6     9.184962000000E-02  5.231043400000E-01  7.473086900000E-01
  47   6     1.080358900000E-01  5.540356300000E-01  2.481950700000E-01
  48   6     1.464591700000E-01  6.308900000000E-01  7.481950700000E-01
  49   6     5.540394200000E-01  1.081684600000E-01  2.507413400000E-01
  50   6     5.924627000000E-01  1.850228300000E-01  7.507413300000E-01
  51   6     6.071778500000E-01  5.355594000000E-02  2.520466900000E-01
  52   6     6.456011300000E-01  1.304103100000E-01  7.520466900000E-01
  53   6     3.927986700000E-01  9.466631600000E-01  2.521595100000E-01
  54   6     4.312219500000E-01  2.351753000000E-02  7.521595000000E-01
  55   6     4.462875800000E-01  5.360286000000E-02  2.518210900000E-01
  56   6     4.847108600000E-01  1.304572300000E-01  7.518210900000E-01
  57   6     5.537168500000E-01  9.466235600000E-01  2.526913000000E-01
  58   6     5.921401300000E-01  2.347793000000E-02  7.526913000000E-01
  59   6     4.459279100000E-01  8.919920600000E-01  2.518049500000E-01
  60   6     4.843511900000E-01  9.688464300000E-01  7.518049500000E-01
  61   6     5.540448700000E-01  4.458745500000E-01  2.492586900000E-01
  62   6     5.924681500000E-01  5.227289200000E-01  7.492586900000E-01
  63   6     6.072102200000E-01  5.536257800000E-01  2.479533400000E-01
  64   6     6.456335000000E-01  6.304801500000E-01  7.479533400000E-01
  65   6     3.928233700000E-01  4.461720300000E-01  2.478405200000E-01
  66   6     4.312466500000E-01  5.230264000000E-01  7.478405200000E-01
  67   6     4.462872600000E-01  3.926899900000E-01  2.481789300000E-01
  68   6     4.847105400000E-01  4.695443600000E-01  7.481789300000E-01
  69   6     5.537429600000E-01  6.070980000000E-01  2.473087300000E-01
  70   6     5.921662400000E-01  6.839523700000E-01  7.473087300000E-01
  71   6     4.459599800000E-01  5.539582300000E-01  2.481950700000E-01
  72   6     4.843832600000E-01  6.308126000000E-01  7.481950700000E-01
  73   8     5.607366800000E-01  2.803706300000E-01  2.496615800000E-01
  74   8     5.991599600000E-01  3.572250000000E-01  7.496615800000E-01
  75   8     7.196817000000E-01  2.803783300000E-01  2.524495700000E-01
  76   8     7.581049800000E-01  3.572327000000E-01  7.524495700000E-01
  77   8     7.196794200000E-01  4.393234600000E-01  2.482434300000E-01
  78   8     7.581027000000E-01  5.161778300000E-01  7.482434300000E-01
  79   8     2.803245100000E-01  7.196511100000E-01  2.496616000000E-01
  80   8     3.187477900000E-01  7.965054800000E-01  7.496616000000E-01
  81   8     2.803439700000E-01  5.606956100000E-01  2.524495700000E-01
  82   8     3.187672500000E-01  6.375499800000E-01  7.524495700000E-01
  83   8     4.392638400000E-01  7.196354200000E-01  2.482434200000E-01
  84   8     4.776871200000E-01  7.964897900000E-01  7.482434200000E-01

 *******************************************************************************

 << INFORMATION >>: FROM NOW ON, ALL COORDINATES REFER TO THE PRIMITIVE CELL

 *******************************************************************************

 LATTICE PARAMETERS  (ANGSTROMS AND DEGREES) - PRIMITIVE CELL
       A          B          C        ALPHA      BETA     GAMMA        VOLUME
   15.02361   15.02392    7.60000    90.00032  89.99994 119.99596   1485.659765

 COORDINATES OF THE EQUIVALENT ATOMS (FRACTIONAL UNITS)

 N. ATOM EQUIV AT. N.          X                  Y                  Z

   1   1   1    5 B    -3.86319460000E-01  2.27318220000E-01  2.50628510000E-01

   2   2   1    5 B    -3.47896180000E-01  3.04172590000E-01 -2.49371490000E-01

   3   3   1    5 B    -2.27263800000E-01  3.86377880000E-01  2.50628520000E-01

   4   4   1    5 B    -1.88840520000E-01  4.63232250000E-01 -2.49371480000E-01

   5   5   1    5 B    -3.86323730000E-01  3.86360670000E-01  2.49307050000E-01

   6   6   1    5 B    -3.47900450000E-01  4.63215040000E-01 -2.50692950000E-01

   7   7   1    5 B     2.27255250000E-01 -3.86366780000E-01  2.50628520000E-01

   8   8   1    5 B     2.65678530000E-01 -3.09512410000E-01 -2.49371480000E-01

   9   9   1    5 B     3.86363220000E-01 -3.86387550000E-01  2.50628520000E-01

  10  10   1    5 B     4.24786500000E-01 -3.09533180000E-01 -2.49371480000E-01

  11  11   1    5 B     3.86343500000E-01 -2.27248350000E-01  2.49307050000E-01

  12  12   1    5 B     4.24766780000E-01 -1.50393980000E-01 -2.50692950000E-01

  13  13   1    1 H    -9.69563800000E-02  3.08930050000E-01  2.47888840000E-01

  14  14   1    1 H    -5.85331000000E-02  3.85784420000E-01 -2.52111160000E-01

  15  15   1    1 H     9.66345300000E-02 -3.08946560000E-01  2.47469900000E-01

  16  16   1    1 H     1.35057810000E-01 -2.32092190000E-01 -2.52530100000E-01

  17  17   1    1 H    -9.70285800000E-02 -4.05927570000E-01  2.47405420000E-01

  18  18   1    1 H    -5.86053000000E-02 -3.29073200000E-01 -2.52594580000E-01

  19  19   1    1 H     9.67361800000E-02  4.05684940000E-01  2.47421500000E-01

  20  20   1    1 H     1.35159460000E-01  4.82539310000E-01 -2.52578500000E-01

  21  21   1    1 H    -3.08967600000E-01  9.70041200000E-02  2.52111170000E-01

  22  22   1    1 H    -2.70544320000E-01  1.73858490000E-01 -2.47888820000E-01

  23  23   1    1 H     3.08929720000E-01 -9.65626900000E-02  2.52530140000E-01

  24  24   1    1 H     3.47353000000E-01 -1.97083200000E-02 -2.47469860000E-01

  25  25   1    1 H     4.05869990000E-01  9.70499800000E-02  2.52594660000E-01

  26  26   1    1 H     4.44293270000E-01  1.73904350000E-01 -2.47405340000E-01

  27  27   1    1 H    -4.05687790000E-01 -9.66526800000E-02  2.52578470000E-01

  28  28   1    1 H    -3.67264510000E-01 -1.97983100000E-02 -2.47421530000E-01

  29  29   1    1 H    -3.08927260000E-01 -4.05945790000E-01  2.47888870000E-01

  30  30   1    1 H    -2.70503980000E-01 -3.29091420000E-01 -2.52111130000E-01

  31  31   1    1 H     3.08961830000E-01  4.05609330000E-01  2.47469870000E-01

  32  32   1    1 H     3.47385110000E-01  4.82463700000E-01 -2.52530130000E-01

  33  33   1    1 H     4.05840570000E-01  3.08823250000E-01  2.47405370000E-01

  34  34   1    1 H     4.44263850000E-01  3.85677620000E-01 -2.52594630000E-01

  35  35   1    1 H    -4.05709120000E-01 -3.09042070000E-01  2.47421550000E-01

  36  36   1    1 H    -3.67285840000E-01 -2.32187700000E-01 -2.52578450000E-01

  37  37   1    6 C    -1.08109690000E-01  4.45943690000E-01  2.49258700000E-01

  38  38   1    6 C    -6.96864100000E-02 -4.77201940000E-01 -2.50741300000E-01

  39  39   1    6 C    -5.35108900000E-02  3.92785630000E-01  2.47953310000E-01

  40  40   1    6 C    -1.50876100000E-02  4.69640000000E-01 -2.52046690000E-01

  41  41   1    6 C     5.33881200000E-02 -3.92814700000E-01  2.47840550000E-01

  42  42   1    6 C     9.18114000000E-02 -3.15960330000E-01 -2.52159450000E-01

  43  43   1    6 C    -5.35478900000E-02 -4.46307810000E-01  2.48178970000E-01

  44  44   1    6 C    -1.51246100000E-02 -3.69453440000E-01 -2.51821030000E-01

  45  45   1    6 C     5.34263400000E-02  4.46249970000E-01  2.47308690000E-01

  46  46   1    6 C     9.18496200000E-02 -4.76895660000E-01 -2.52691310000E-01

  47  47   1    6 C     1.08035890000E-01 -4.45964370000E-01  2.48195070000E-01

  48  48   1    6 C     1.46459170000E-01 -3.69110000000E-01 -2.51804930000E-01

  49  49   1    6 C    -4.45960580000E-01  1.08168460000E-01  2.50741340000E-01

  50  50   1    6 C    -4.07537300000E-01  1.85022830000E-01 -2.49258670000E-01

  51  51   1    6 C    -3.92822150000E-01  5.35559400000E-02  2.52046690000E-01

  52  52   1    6 C    -3.54398870000E-01  1.30410310000E-01 -2.47953310000E-01

  53  53   1    6 C     3.92798670000E-01 -5.33368400000E-02  2.52159510000E-01

  54  54   1    6 C     4.31221950000E-01  2.35175300000E-02 -2.47840500000E-01

  55  55   1    6 C     4.46287580000E-01  5.36028600000E-02  2.51821090000E-01

  56  56   1    6 C     4.84710860000E-01  1.30457230000E-01 -2.48178910000E-01

  57  57   1    6 C    -4.46283150000E-01 -5.33764400000E-02  2.52691300000E-01

  58  58   1    6 C    -4.07859870000E-01  2.34779300000E-02 -2.47308700000E-01

  59  59   1    6 C     4.45927910000E-01 -1.08007940000E-01  2.51804950000E-01

  60  60   1    6 C     4.84351190000E-01 -3.11535700000E-02 -2.48195050000E-01

  61  61   1    6 C    -4.45955130000E-01  4.45874550000E-01  2.49258690000E-01

  62  62   1    6 C    -4.07531850000E-01 -4.77271080000E-01 -2.50741310000E-01

  63  63   1    6 C    -3.92789780000E-01 -4.46374220000E-01  2.47953340000E-01

  64  64   1    6 C    -3.54366500000E-01 -3.69519850000E-01 -2.52046660000E-01

  65  65   1    6 C     3.92823370000E-01  4.46172030000E-01  2.47840520000E-01

  66  66   1    6 C     4.31246650000E-01 -4.76973600000E-01 -2.52159480000E-01

  67  67   1    6 C     4.46287260000E-01  3.92689990000E-01  2.48178930000E-01

  68  68   1    6 C     4.84710540000E-01  4.69544360000E-01 -2.51821070000E-01

  69  69   1    6 C    -4.46257040000E-01 -3.92902000000E-01  2.47308730000E-01

  70  70   1    6 C    -4.07833760000E-01 -3.16047630000E-01 -2.52691270000E-01

  71  71   1    6 C     4.45959980000E-01 -4.46041770000E-01  2.48195070000E-01

  72  72   1    6 C     4.84383260000E-01 -3.69187400000E-01 -2.51804930000E-01

  73  73   1    8 O    -4.39263320000E-01  2.80370630000E-01  2.49661580000E-01

  74  74   1    8 O    -4.00840040000E-01  3.57225000000E-01 -2.50338420000E-01

  75  75   1    8 O    -2.80318300000E-01  2.80378330000E-01  2.52449570000E-01

  76  76   1    8 O    -2.41895020000E-01  3.57232700000E-01 -2.47550430000E-01

  77  77   1    8 O    -2.80320580000E-01  4.39323460000E-01  2.48243430000E-01

  78  78   1    8 O    -2.41897300000E-01 -4.83822170000E-01 -2.51756570000E-01

  79  79   1    8 O     2.80324510000E-01 -2.80348890000E-01  2.49661600000E-01

  80  80   1    8 O     3.18747790000E-01 -2.03494520000E-01 -2.50338400000E-01

  81  81   1    8 O     2.80343970000E-01 -4.39304390000E-01  2.52449570000E-01

  82  82   1    8 O     3.18767250000E-01 -3.62450020000E-01 -2.47550430000E-01

  83  83   1    8 O     4.39263840000E-01 -2.80364580000E-01  2.48243420000E-01

  84  84   1    8 O     4.77687120000E-01 -2.03510210000E-01 -2.51756580000E-01

 NUMBER OF SYMMETRY OPERATORS         :    1
 *******************************************************************************
 * GEOMETRY EDITING - INPUT COORDINATES ARE GIVEN IN ANGSTROM         
 *******************************************************************************

 GCALCO - MAX INDICES DIRECT LATTICE VECTOR    12    12    21
 NO.OF VECTORS CREATED 6999 STARS 3500 RMAX   255.76215 BOHR

 GEOMETRY FOR WAVE FUNCTION - DIMENSIONALITY OF THE SYSTEM    3
 (NON PERIODIC DIRECTION: LATTICE PARAMETER FORMALLY SET TO 500)
 *******************************************************************************
 LATTICE PARAMETERS (ANGSTROMS AND DEGREES) - BOHR = 0.5291772083 ANGSTROM
 PRIMITIVE CELL - CENTRING CODE 1/0 VOLUME=  1485.659765 - DENSITY  0.872 g/cm^3
         A              B              C           ALPHA      BETA       GAMMA 
    15.02361100    15.02391600     7.60000000    90.000323  89.999944 119.995964
 *******************************************************************************
 ATOMS IN THE ASYMMETRIC UNIT   84 - ATOMS IN THE UNIT CELL:   84
     ATOM                 X/A                 Y/B                 Z/C    
 *******************************************************************************
      1 T   5 B    -3.863194600000E-01  2.273182200000E-01  2.506285100000E-01
      2 T   5 B    -3.478961800000E-01  3.041725900000E-01 -2.493714900000E-01
      3 T   5 B    -2.272638000000E-01  3.863778800000E-01  2.506285200000E-01
      4 T   5 B    -1.888405200000E-01  4.632322500000E-01 -2.493714800000E-01
      5 T   5 B    -3.863237300000E-01  3.863606700000E-01  2.493070500000E-01
      6 T   5 B    -3.479004500000E-01  4.632150400000E-01 -2.506929500000E-01
      7 T   5 B     2.272552500000E-01 -3.863667800000E-01  2.506285200000E-01
      8 T   5 B     2.656785300000E-01 -3.095124100000E-01 -2.493714800000E-01
      9 T   5 B     3.863632200000E-01 -3.863875500000E-01  2.506285200000E-01
     10 T   5 B     4.247865000000E-01 -3.095331800000E-01 -2.493714800000E-01
     11 T   5 B     3.863435000000E-01 -2.272483500000E-01  2.493070500000E-01
     12 T   5 B     4.247667800000E-01 -1.503939800000E-01 -2.506929500000E-01
     13 T   1 H    -9.695638000000E-02  3.089300500000E-01  2.478888400000E-01
     14 T   1 H    -5.853310000000E-02  3.857844200000E-01 -2.521111600000E-01
     15 T   1 H     9.663453000000E-02 -3.089465600000E-01  2.474699000000E-01
     16 T   1 H     1.350578100000E-01 -2.320921900000E-01 -2.525301000000E-01
     17 T   1 H    -9.702858000000E-02 -4.059275700000E-01  2.474054200000E-01
     18 T   1 H    -5.860530000000E-02 -3.290732000000E-01 -2.525945800000E-01
     19 T   1 H     9.673618000000E-02  4.056849400000E-01  2.474215000000E-01
     20 T   1 H     1.351594600000E-01  4.825393100000E-01 -2.525785000000E-01
     21 T   1 H    -3.089676000000E-01  9.700412000000E-02  2.521111700000E-01
     22 T   1 H    -2.705443200000E-01  1.738584900000E-01 -2.478888200000E-01
     23 T   1 H     3.089297200000E-01 -9.656269000000E-02  2.525301400000E-01
     24 T   1 H     3.473530000000E-01 -1.970832000000E-02 -2.474698600000E-01
     25 T   1 H     4.058699900000E-01  9.704998000000E-02  2.525946600000E-01
     26 T   1 H     4.442932700000E-01  1.739043500000E-01 -2.474053400000E-01
     27 T   1 H    -4.056877900000E-01 -9.665268000000E-02  2.525784700000E-01
     28 T   1 H    -3.672645100000E-01 -1.979831000000E-02 -2.474215300000E-01
     29 T   1 H    -3.089272600000E-01 -4.059457900000E-01  2.478888700000E-01
     30 T   1 H    -2.705039800000E-01 -3.290914200000E-01 -2.521111300000E-01
     31 T   1 H     3.089618300000E-01  4.056093300000E-01  2.474698700000E-01
     32 T   1 H     3.473851100000E-01  4.824637000000E-01 -2.525301300000E-01
     33 T   1 H     4.058405700000E-01  3.088232500000E-01  2.474053700000E-01
     34 T   1 H     4.442638500000E-01  3.856776200000E-01 -2.525946300000E-01
     35 T   1 H    -4.057091200000E-01 -3.090420700000E-01  2.474215500000E-01
     36 T   1 H    -3.672858400000E-01 -2.321877000000E-01 -2.525784500000E-01
     37 T   6 C    -1.081096900000E-01  4.459436900000E-01  2.492587000000E-01
     38 T   6 C    -6.968641000000E-02 -4.772019400000E-01 -2.507413000000E-01
     39 T   6 C    -5.351089000000E-02  3.927856300000E-01  2.479533100000E-01
     40 T   6 C    -1.508761000000E-02  4.696400000000E-01 -2.520466900000E-01
     41 T   6 C     5.338812000000E-02 -3.928147000000E-01  2.478405500000E-01
     42 T   6 C     9.181140000000E-02 -3.159603300000E-01 -2.521594500000E-01
     43 T   6 C    -5.354789000000E-02 -4.463078100000E-01  2.481789700000E-01
     44 T   6 C    -1.512461000000E-02 -3.694534400000E-01 -2.518210300000E-01
     45 T   6 C     5.342634000000E-02  4.462499700000E-01  2.473086900000E-01
     46 T   6 C     9.184962000000E-02 -4.768956600000E-01 -2.526913100000E-01
     47 T   6 C     1.080358900000E-01 -4.459643700000E-01  2.481950700000E-01
     48 T   6 C     1.464591700000E-01 -3.691100000000E-01 -2.518049300000E-01
     49 T   6 C    -4.459605800000E-01  1.081684600000E-01  2.507413400000E-01
     50 T   6 C    -4.075373000000E-01  1.850228300000E-01 -2.492586700000E-01
     51 T   6 C    -3.928221500000E-01  5.355594000000E-02  2.520466900000E-01
     52 T   6 C    -3.543988700000E-01  1.304103100000E-01 -2.479533100000E-01
     53 T   6 C     3.927986700000E-01 -5.333684000000E-02  2.521595100000E-01
     54 T   6 C     4.312219500000E-01  2.351753000000E-02 -2.478405000000E-01
     55 T   6 C     4.462875800000E-01  5.360286000000E-02  2.518210900000E-01
     56 T   6 C     4.847108600000E-01  1.304572300000E-01 -2.481789100000E-01
     57 T   6 C    -4.462831500000E-01 -5.337644000000E-02  2.526913000000E-01
     58 T   6 C    -4.078598700000E-01  2.347793000000E-02 -2.473087000000E-01
     59 T   6 C     4.459279100000E-01 -1.080079400000E-01  2.518049500000E-01
     60 T   6 C     4.843511900000E-01 -3.115357000000E-02 -2.481950500000E-01
     61 T   6 C    -4.459551300000E-01  4.458745500000E-01  2.492586900000E-01
     62 T   6 C    -4.075318500000E-01 -4.772710800000E-01 -2.507413100000E-01
     63 T   6 C    -3.927897800000E-01 -4.463742200000E-01  2.479533400000E-01
     64 T   6 C    -3.543665000000E-01 -3.695198500000E-01 -2.520466600000E-01
     65 T   6 C     3.928233700000E-01  4.461720300000E-01  2.478405200000E-01
     66 T   6 C     4.312466500000E-01 -4.769736000000E-01 -2.521594800000E-01
     67 T   6 C     4.462872600000E-01  3.926899900000E-01  2.481789300000E-01
     68 T   6 C     4.847105400000E-01  4.695443600000E-01 -2.518210700000E-01
     69 T   6 C    -4.462570400000E-01 -3.929020000000E-01  2.473087300000E-01
     70 T   6 C    -4.078337600000E-01 -3.160476300000E-01 -2.526912700000E-01
     71 T   6 C     4.459599800000E-01 -4.460417700000E-01  2.481950700000E-01
     72 T   6 C     4.843832600000E-01 -3.691874000000E-01 -2.518049300000E-01
     73 T   8 O    -4.392633200000E-01  2.803706300000E-01  2.496615800000E-01
     74 T   8 O    -4.008400400000E-01  3.572250000000E-01 -2.503384200000E-01
     75 T   8 O    -2.803183000000E-01  2.803783300000E-01  2.524495700000E-01
     76 T   8 O    -2.418950200000E-01  3.572327000000E-01 -2.475504300000E-01
     77 T   8 O    -2.803205800000E-01  4.393234600000E-01  2.482434300000E-01
     78 T   8 O    -2.418973000000E-01 -4.838221700000E-01 -2.517565700000E-01
     79 T   8 O     2.803245100000E-01 -2.803488900000E-01  2.496616000000E-01
     80 T   8 O     3.187477900000E-01 -2.034945200000E-01 -2.503384000000E-01
     81 T   8 O     2.803439700000E-01 -4.393043900000E-01  2.524495700000E-01
     82 T   8 O     3.187672500000E-01 -3.624500200000E-01 -2.475504300000E-01
     83 T   8 O     4.392638400000E-01 -2.803645800000E-01  2.482434200000E-01
     84 T   8 O     4.776871200000E-01 -2.035102100000E-01 -2.517565800000E-01

 T = ATOM BELONGING TO THE ASYMMETRIC UNIT

 ****    1 SYMMOPS - TRANSLATORS IN FRACTIONAL UNITS
 **** MATRICES AND TRANSLATORS IN THE CRYSTALLOGRAPHIC REFERENCE FRAME
   V INV                    ROTATION MATRICES                   TRANSLATORS
   1   1  1.00  0.00  0.00  0.00  1.00  0.00  0.00  0.00  1.00  0.00  0.00  0.00

 DIRECT LATTICE VECTORS CARTESIAN COMPONENTS (ANGSTROM)
          X                    Y                    Z
   0.130113578931E+02  -0.751088897922E+01   0.000000000000E+00
   0.000000000000E+00   0.150239160000E+02   0.000000000000E+00
  -0.161552619368E-04  -0.428443424762E-04   0.759999999986E+01


 CARTESIAN COORDINATES - PRIMITIVE CELL
 *******************************************************************************
 *      ATOM          X(ANGSTROM)         Y(ANGSTROM)         Z(ANGSTROM)
 *******************************************************************************
    1     5 B    -5.026544804082E+00  6.316801679107E+00  1.904776675965E+00
    2     5 B    -4.526597678945E+00  7.182883710093E+00 -1.895223323966E+00
    3     5 B    -2.957014686905E+00  7.511851246159E+00  1.904776751965E+00
    4     5 B    -2.457067561769E+00 -6.645982722854E+00 -1.895223247966E+00
    5     5 B    -5.026600341231E+00 -6.317641783546E+00  1.894733579966E+00
    6     5 B    -4.526653216095E+00 -5.451559752559E+00 -1.905266419965E+00
    7     5 B     2.956895341857E+00 -7.511641738619E+00  1.904776751965E+00
    8     5 B     3.456842466993E+00 -6.645559707632E+00 -1.895223247966E+00
    9     5 B     5.027106083164E+00  6.316919916267E+00  1.904776751965E+00
   10     5 B    -7.484304684756E+00 -3.300250735293E-01 -1.895223247966E+00
   11     5 B     5.026849520535E+00 -6.315953939277E+00  1.894733579966E+00
   12     5 B     5.526796645672E+00 -5.449871908290E+00 -1.905266419965E+00
   13     1 H    -1.261538164904E+00  5.369557106448E+00  1.883955183966E+00
   14     1 H    -7.615910397682E-01  6.235639137435E+00 -1.916044815965E+00
   15     1 H     1.257342456716E+00 -5.367408995003E+00  1.880771239966E+00
   16     1 H     1.757289581852E+00 -4.501326964016E+00 -1.919228759965E+00
   17     1 H    -1.262477577134E+00 -5.369861421496E+00  1.880281191966E+00
   18     1 H    -7.625304519983E-01 -4.503779390509E+00 -1.919718807965E+00
   19     1 H     1.258665062028E+00  5.368391152160E+00  1.880403399966E+00
   20     1 H     1.758612187164E+00  6.234473183147E+00 -1.919596599965E+00
   21     1 H    -4.020092093881E+00  3.777992290772E+00  1.916044891965E+00
   22     1 H    -3.520144968745E+00  4.644074321758E+00 -1.883955031966E+00
   23     1 H     4.019591071031E+00 -3.771097392082E+00  1.919229063965E+00
   24     1 H     4.519538196167E+00 -2.905015361095E+00 -1.880770935966E+00
   25     1 H     5.280915617208E+00 -1.590384509816E+00  1.919719415965E+00
   26     1 H     5.780862742344E+00 -7.243024788293E-01 -1.880280583966E+00
   27     1 H    -5.278553109005E+00  1.594963383860E+00  1.919596371965E+00
   28     1 H    -4.778605983868E+00  2.461045414847E+00 -1.880403627966E+00
   29     1 H    -4.019567147491E+00 -3.778587717636E+00  1.883955411966E+00
   30     1 H    -3.519620022355E+00 -2.912505686649E+00 -1.916044587965E+00
   31     1 H     4.020008947483E+00  3.773251896107E+00  1.880771011966E+00
   32     1 H     4.519956072619E+00  4.639333927094E+00 -1.919228987965E+00
   33     1 H     5.280532906894E+00  1.591500502395E+00  1.880280811966E+00
   34     1 H     5.780480032030E+00  2.457582533381E+00 -1.919719187965E+00
   35     1 H    -5.278830557957E+00 -1.595796542584E+00  1.880403779966E+00
   36     1 H    -4.778883432821E+00 -7.297145115973E-01 -1.919596219965E+00
   37     6 C    -1.406657895137E+00  7.511809739132E+00  1.894366119966E+00
   38     6 C    -9.067107700009E-01 -6.646024229881E+00 -1.905633879965E+00
   39     6 C    -6.962533467167E-01  6.303082041700E+00  1.884445155966E+00
   40     6 C    -1.963062215806E-01  7.169164072686E+00 -1.915554843965E+00
   41     6 C     6.946479326284E-01 -6.302617917060E+00  1.883588179966E+00
   42     6 C     1.194595057765E+00 -5.436535886073E+00 -1.916411819965E+00
   43     6 C    -6.967347706043E-01 -6.303109423787E+00  1.886160171966E+00
   44     6 C    -1.967876454682E-01 -5.437027392801E+00 -1.913839827965E+00
   45     6 C     6.951452353195E-01  6.303132160198E+00  1.879546043966E+00
   46     6 C     1.195092360456E+00  7.169214191185E+00 -1.920453955965E+00
   47     6 C     1.405689620429E+00 -7.511587443188E+00  1.886282531966E+00
   48     6 C     1.905636745565E+00 -6.645505412202E+00 -1.913717467965E+00
   49     6 C     7.208801129689E+00 -2.536225459688E+00  1.905634183965E+00
   50     6 C     7.708748254826E+00 -1.670143428701E+00 -1.894365891966E+00
   51     6 C    -5.111153653850E+00  3.755052702313E+00  1.915554843965E+00
   52     6 C    -4.611206528714E+00  4.621134733300E+00 -1.884445155966E+00
   53     6 C     5.110840001584E+00 -3.751606209028E+00  1.916412275965E+00
   54     6 C     5.610787126720E+00 -2.885524178040E+00 -1.883587799966E+00
   55     6 C     5.806803358370E+00 -2.546702389292E+00  1.913840283965E+00
   56     6 C     6.306750483507E+00 -1.680620358306E+00 -1.886159715966E+00
   57     6 C    -5.806753868585E+00  2.550049215613E+00  1.920453879965E+00
   58     6 C    -5.306806743449E+00  3.416131246600E+00 -1.879546119966E+00
   59     6 C     5.802123563538E+00 -4.972028031055E+00  1.913717619965E+00
   60     6 C     6.302070688674E+00 -4.105946000068E+00 -1.886282379966E+00
   61     6 C     7.208872065543E+00  2.537401598339E+00  1.894366043966E+00
   62     6 C    -5.302538702378E+00 -4.109543391458E+00 -1.905633955965E+00
   63     6 C    -5.110732410066E+00 -3.756098979492E+00  1.884445383966E+00
   64     6 C    -4.610785284930E+00 -2.890016948506E+00 -1.915554615965E+00
   65     6 C     5.111161451898E+00  3.752787761194E+00  1.883587951966E+00
   66     6 C     5.611108577034E+00  4.618869792181E+00 -1.916412047965E+00
   67     6 C     5.806799253576E+00  2.547716728039E+00  1.886159867966E+00
   68     6 C     6.306746378712E+00  3.413798759026E+00 -1.913840131965E+00
   69     6 C    -5.806414055073E+00 -2.551150156378E+00  1.879546347966E+00
   70     6 C    -5.306466929937E+00 -1.685068125391E+00 -1.920453651965E+00
   71     6 C     5.802540896104E+00  4.973055382321E+00  1.886282531966E+00
   72     6 C    -6.708869871817E+00 -1.673889607476E+00 -1.913717467965E+00
   73     8 O     7.295941593896E+00  6.231473464191E-04  1.897428007966E+00
   74     8 O     7.795888719032E+00  8.667051783332E-01 -1.902571991965E+00
   75     8 O    -3.647325803662E+00  6.317809292247E+00  1.918616731965E+00
   76     8 O    -3.147378678526E+00  7.183891323234E+00 -1.881383267966E+00
   77     8 O    -3.647355401607E+00 -6.318111120988E+00  1.886650067966E+00
   78     8 O    -3.147408276471E+00 -5.452029090001E+00 -1.913349931965E+00
   79     8 O     3.647398492457E+00 -6.317435143404E+00  1.897428159966E+00
   80     8 O     4.147345617593E+00 -5.451353112417E+00 -1.902571839965E+00
   81     8 O     3.647651648441E+00  6.318200495510E+00  1.918616731965E+00
   82     8 O     4.147598773577E+00  7.184282526497E+00 -1.881383267966E+00
   83     8 O    -7.295942871776E+00 -5.574907292270E-04  1.886649991966E+00
   84     8 O    -6.795995746640E+00  8.655245402576E-01 -1.913350007965E+00

 *******************************************************************************
 STARTING BASIS SET HANDLING 
 *******************************************************************************

 Loading internal basis set: SOLDEF2MSVP         

 Please cite in your publication:
 L. Dona', J. G. Brandenburg and B. Civalleri, J. Chem. Phys., 151, 121101 (2019
 )                                                                              
                                                                                
                    

 *******************************************************************************
 LOCAL ATOMIC FUNCTIONS BASIS SET
 *******************************************************************************
   ATOM   X(AU)   Y(AU)   Z(AU)  N. TYPE  EXPONENT  S COEF   P COEF   D/F/G COEF
 *******************************************************************************
   1 B   -9.499  11.937   3.600
                                  1 S  
                                         2.410E+03 1.755E-03 0.000E+00 0.000E+00
                                         3.619E+02 1.344E-02 0.000E+00 0.000E+00
                                         8.231E+01 6.637E-02 0.000E+00 0.000E+00
                                         2.311E+01 2.303E-01 0.000E+00 0.000E+00
                                         7.252E+00 5.150E-01 0.000E+00 0.000E+00
                                  2 S  
                                         2.367E+00 1.000E+00 0.000E+00 0.000E+00
                                  3 S  
                                         5.533E-01 1.000E+00 0.000E+00 0.000E+00
                                  4 S  
                                         1.716E-01 1.000E+00 0.000E+00 0.000E+00
                           5-     7 P  
                                         6.002E+00 0.000E+00-3.555E-02 0.000E+00
                                         1.240E+00 0.000E+00-1.983E-01 0.000E+00
                                         3.367E-01 0.000E+00-5.048E-01 0.000E+00
                           8-    10 P  
                                         1.256E-01 0.000E+00 1.000E+00 0.000E+00
                          11-    15 D  
                                         8.880E-01 0.000E+00 0.000E+00 1.000E+00
   2 B   -8.554  13.574  -3.581
   3 B   -5.588  14.195   3.600
   4 B   -4.643 -12.559  -3.581
   5 B   -9.499 -11.939   3.581
   6 B   -8.554 -10.302  -3.600
   7 B    5.588 -14.195   3.600
   8 B    6.532 -12.558  -3.581
   9 B    9.500  11.937   3.600
  10 B  -14.143  -0.624  -3.581
  11 B    9.499 -11.935   3.581
  12 B   10.444 -10.299  -3.600
  13 H   -2.384  10.147   3.560
                                181 S  
                                         1.874E+01 1.968E-02 0.000E+00 0.000E+00
                                         2.826E+00 1.380E-01 0.000E+00 0.000E+00
                                         6.401E-01 4.783E-01 0.000E+00 0.000E+00
                                182 S  
                                         1.756E-01 1.000E+00 0.000E+00 0.000E+00
  14 H   -1.439  11.784  -3.621
  15 H    2.376 -10.143   3.554
  16 H    3.321  -8.506  -3.627
  17 H   -2.386 -10.148   3.553
  18 H   -1.441  -8.511  -3.628
  19 H    2.379  10.145   3.553
  20 H    3.323  11.781  -3.628
  21 H   -7.597   7.139   3.621
  22 H   -6.652   8.776  -3.560
  23 H    7.596  -7.126   3.627
  24 H    8.541  -5.490  -3.554
  25 H    9.979  -3.005   3.628
  26 H   10.924  -1.369  -3.553
  27 H   -9.975   3.014   3.628
  28 H   -9.030   4.651  -3.553
  29 H   -7.596  -7.140   3.560
  30 H   -6.651  -5.504  -3.621
  31 H    7.597   7.130   3.554
  32 H    8.541   8.767  -3.627
  33 H    9.979   3.008   3.553
  34 H   10.924   4.644  -3.628
  35 H   -9.976  -3.016   3.553
  36 H   -9.031  -1.379  -3.628
  37 C   -2.658  14.195   3.580
                                229 S  
                                         3.624E+03 1.634E-03 0.000E+00 0.000E+00
                                         5.440E+02 1.252E-02 0.000E+00 0.000E+00
                                         1.237E+02 6.211E-02 0.000E+00 0.000E+00
                                         3.476E+01 2.182E-01 0.000E+00 0.000E+00
                                         1.093E+01 4.980E-01 0.000E+00 0.000E+00
                                230 S  
                                         3.574E+00 1.000E+00 0.000E+00 0.000E+00
                                231 S  
                                         7.742E-01 1.000E+00 0.000E+00 0.000E+00
                                232 S  
                                         2.330E-01 1.000E+00 0.000E+00 0.000E+00
                         233-   235 P  
                                         9.443E+00 0.000E+00 3.790E-02 0.000E+00
                                         2.002E+00 0.000E+00 2.082E-01 0.000E+00
                                         5.463E-01 0.000E+00 5.047E-01 0.000E+00
                         236-   238 P  
                                         1.820E-01 0.000E+00 1.000E+00 0.000E+00
                         239-   243 D  
                                         8.880E-01 0.000E+00 0.000E+00 1.000E+00
  38 C   -1.713 -12.559  -3.601
  39 C   -1.316  11.911   3.561
  40 C   -0.371  13.548  -3.620
  41 C    1.313 -11.910   3.559
  42 C    2.257 -10.274  -3.621
  43 C   -1.317 -11.911   3.564
  44 C   -0.372 -10.274  -3.617
  45 C    1.314  11.911   3.552
  46 C    2.258  13.548  -3.629
  47 C    2.656 -14.195   3.565
  48 C    3.601 -12.558  -3.616
  49 C   13.623  -4.793   3.601
  50 C   14.567  -3.156  -3.580
  51 C   -9.659   7.096   3.620
  52 C   -8.714   8.733  -3.561
  53 C    9.658  -7.090   3.621
  54 C   10.603  -5.453  -3.559
  55 C   10.973  -4.813   3.617
  56 C   11.918  -3.176  -3.564
  57 C  -10.973   4.819   3.629
  58 C  -10.028   6.456  -3.552
  59 C   10.964  -9.396   3.616
  60 C   11.909  -7.759  -3.565
  61 C   13.623   4.795   3.580
  62 C  -10.020  -7.766  -3.601
  63 C   -9.658  -7.098   3.561
  64 C   -8.713  -5.461  -3.620
  65 C    9.659   7.092   3.559
  66 C   10.603   8.728  -3.621
  67 C   10.973   4.814   3.564
  68 C   11.918   6.451  -3.617
  69 C  -10.973  -4.821   3.552
  70 C  -10.028  -3.184  -3.629
  71 C   10.965   9.398   3.565
  72 C  -12.678  -3.163  -3.616
  73 O   13.787   0.001   3.586
                                769 S  
                                         6.773E+03 1.727E-03 0.000E+00 0.000E+00
                                         1.017E+03 1.325E-02 0.000E+00 0.000E+00
                                         2.313E+02 6.603E-02 0.000E+00 0.000E+00
                                         6.501E+01 2.353E-01 0.000E+00 0.000E+00
                                         2.050E+01 5.498E-01 0.000E+00 0.000E+00
                                770 S  
                                         6.716E+00 1.000E+00 0.000E+00 0.000E+00
                                771 S  
                                         1.147E+00 1.000E+00 0.000E+00 0.000E+00
                                772 S  
                                         3.342E-01 1.000E+00 0.000E+00 0.000E+00
                         773-   775 P  
                                         1.769E+01 0.000E+00 4.359E-02 0.000E+00
                                         3.854E+00 0.000E+00 2.318E-01 0.000E+00
                                         1.047E+00 0.000E+00 5.146E-01 0.000E+00
                         776-   778 P  
                                         2.759E-01 0.000E+00 1.000E+00 0.000E+00
                         779-   783 D  
                                         8.000E-01 0.000E+00 0.000E+00 1.000E+00
  74 O   14.732   1.638  -3.595
  75 O   -6.892  11.939   3.626
  76 O   -5.948  13.576  -3.555
  77 O   -6.893 -11.939   3.565
  78 O   -5.948 -10.303  -3.616
  79 O    6.893 -11.938   3.586
  80 O    7.837 -10.302  -3.595
  81 O    6.893  11.940   3.626
  82 O    7.838  13.576  -3.555
  83 O  -13.787  -0.001   3.565
  84 O  -12.843   1.636  -3.616

 *******************************************************************************
 FINISHED BASIS SET HANDLING 
 *******************************************************************************

 INFORMATION **** SET_MPP **** PCRYSTAL CALCULATION
 INFORMATION **** READM2 **** NEW DEFAULT: FOCK/KS MATRIX MIXING SET TO 30 %
 INFORMATION **** READM2 **** NEW DEFAULT: FULL DIRECT SCF MODE
 INFORMATION **** READM2 **** NEW DEFAULT: COULOMB BIPOLAR BUFFER SET TO 32 Mb
 INFORMATION **** READM2 **** NEW DEFAULT: EXCHANGE BIPOLAR BUFFER SET TO 32 Mb

 *******************************************************************************
 NEW DEFAULT: DFT INTEGRATION GRID INCREASED TO XLGRID
 NEW DEFAULT: DIIS ACCELERATOR ACTIVE
 USE KEYWORD NODIIS TO TURN IT OFF
 *******************************************************************************

 WARNING **** RDDFTP **** HSEsol-HJS ACTIVE
 RANGE SEPARATION - OMEGA:   0.110000000000000     
 WARNING **** RDDFTP **** HSEsol-3c has to be combined with sol-def2-mSVP basis set
 *******************************************************************************
 N. OF ATOMS PER CELL        84  COULOMB OVERLAP TOL         (T1) 10**   -6
 NUMBER OF SHELLS           468  COULOMB PENETRATION TOL     (T2) 10**   -6
 NUMBER OF AO               948  EXCHANGE OVERLAP TOL        (T3) 10**   -6
 N. OF ELECTRONS PER CELL   396  EXCHANGE PSEUDO OVP (F(G))  (T4) 10**   -6
 CORE ELECTRONS PER CELL    120  EXCHANGE PSEUDO OVP (P(G))  (T5) 10**  -12
 N. OF SYMMETRY OPERATORS     1  POLE ORDER IN MONO ZONE                  4
 *******************************************************************************
 TYPE OF CALCULATION :  RESTRICTED CLOSED SHELL
 KOHN-SHAM HAMILTONIAN

 (EXCHANGE)[CORRELATION] FUNCTIONAL:(HSEsol GGA)[PBEsol]

 RANGE-SEPARATED HYBRID FUNCTIONAL 
 OMEGA (SHORT-RANGE)[LONG-RANGE]:(    0.1100)[    0.0000]

 HYBRID EXCHANGE - PERCENTAGE OF FOCK EXCHANGE    25.0000

 CAPPA:IS1  2;IS2  2;IS3  8; K PTS MONK NET  20; SYMMOPS:K SPACE   2;G SPACE   1

 *******************************************************************************
 MAX NUMBER OF SCF CYCLES      50  CONVERGENCE ON DELTAP        10**-16
 WEIGHT OF F(I) IN F(I+1)      30% CONVERGENCE ON ENERGY        10**- 6
 SHRINK. FACT.(MONKH.)    2  2  8  NUMBER OF K POINTS IN THE IBZ     20
 SHRINKING FACTOR(GILAT NET)    8  NUMBER OF K POINTS(GILAT NET)   1028
 *******************************************************************************
 *** K POINTS COORDINATES (OBLIQUE COORDINATES IN UNITS OF IS =  2)
   1-R(  0  0  0)   2-R(  1  0  0)   3-R(  0  1  0)   4-R(  1  1  0)
   5-C(  0  0  1)   6-C(  1  0  1)   7-C(  0  1  1)   8-C(  1  1  1)
   9-C(  0  0  2)  10-C(  1  0  2)  11-C(  0  1  2)  12-C(  1  1  2)
  13-C(  0  0  3)  14-C(  1  0  3)  15-C(  0  1  3)  16-C(  1  1  3)
  17-R(  0  0  4)  18-R(  1  0  4)  19-R(  0  1  4)  20-R(  1  1  4)

 DIRECT LATTICE VECTORS COMPON. (A.U.)     RECIP. LATTICE VECTORS COMPON. (A.U.) 
        X            Y            Z              X            Y            Z
   24.5879030  -14.1935232    0.0000000      0.2555397    0.0000000    0.0000005
    0.0000000   28.3910867    0.0000000      0.1277517    0.2213084    0.0000015
   -0.0000305   -0.0000810   14.3619186      0.0000000    0.0000000    0.4374893

 DISK SPACE FOR EIGENVECTORS (FTN 10)    28758528 REALS

 SYMMETRY ADAPTION OF THE BLOCH FUNCTIONS DISABLED
 TTTTTTTTTTTTTTTTTTTTTTTTTTTTTT gordsh1     TELAPSE        0.06 TCPU        0.05

 MATRIX SIZE: P(G)  702256, F(G)  146875, P(G) IRR  353066, F(G) IRR  147907
 MAX G-VECTOR INDEX FOR 1- AND 2-ELECTRON INTEGRALS  47

 TTTTTTTTTTTTTTTTTTTTTTTTTTTTTT INPUT       TELAPSE        2.82 TCPU        2.81

 NEIGHBORS OF THE NON-EQUIVALENT ATOMS

 N = NUMBER OF NEIGHBORS AT DISTANCE R
    ATOM  N     R/ANG      R/AU   NEIGHBORS (ATOM LABELS AND CELL INDICES)
   1 B    1     1.3791     2.6061   73 O   -1 0 0
   1 B    1     1.3793     2.6065   75 O    0 0 0
   1 B    1     1.5503     2.9297   49 C   -1 0 0
   1 B    1     2.3895     4.5155    5 B    0 1 0
   1 B    1     2.3898     4.5160    3 B    0 0 0
   1 B    1     2.5632     4.8437   51 C    0 0 0

   2 B    1     1.3791     2.6061   74 O   -1 0 0
   2 B    1     1.3793     2.6065   76 O    0 0 0
   2 B    1     1.5503     2.9297   50 C   -1 0 0
   2 B    1     2.3895     4.5155    6 B    0 1 0
   2 B    1     2.3898     4.5160    4 B    0 1 0
   2 B    1     2.5632     4.8437   52 C    0 0 0

   3 B    1     1.3793     2.6065   77 O    0 1 0
   3 B    1     1.3793     2.6065   75 O    0 0 0
   3 B    1     1.5504     2.9298   37 C    0 0 0
   3 B    1     2.3895     4.5156    5 B    0 1 0
   3 B    1     2.3898     4.5160    1 B    0 0 0
   3 B    1     2.5634     4.8440   43 C    0 1 0

   4 B    1     1.3793     2.6065   78 O    0 0 0
   4 B    1     1.3793     2.6065   76 O    0-1 0
   4 B    1     1.5504     2.9298   38 C    0 0 0
   4 B    1     2.3895     4.5156    6 B    0 0 0
   4 B    1     2.3898     4.5160    2 B    0-1 0
   4 B    1     2.5634     4.8440   44 C    0 0 0

   5 B    1     1.3791     2.6061   73 O   -1-1 0
   5 B    1     1.3793     2.6064   77 O    0 0 0
   5 B    1     1.5502     2.9294   61 C   -1-1 0
   5 B    1     2.3895     4.5155    1 B    0-1 0
   5 B    1     2.3895     4.5156    3 B    0-1 0
   5 B    1     2.5629     4.8433   63 C    0 0 0

   6 B    1     1.3791     2.6061   74 O   -1-1 0
   6 B    1     1.3793     2.6064   78 O    0 0 0
   6 B    1     1.5502     2.9294   62 C    0 0 0
   6 B    1     2.3895     4.5155    2 B    0-1 0
   6 B    1     2.3895     4.5156    4 B    0 0 0
   6 B    1     2.5629     4.8433   64 C    0 0 0

   7 B    1     1.3795     2.6068   79 O    0 0 0
   7 B    1     1.3795     2.6070   81 O    0-1 0
   7 B    1     1.5513     2.9316   47 C    0 0 0
   7 B    1     2.3905     4.5174   11 B    0 0 0
   7 B    1     2.3905     4.5175    9 B    0-1 0
   7 B    1     2.5648     4.8468   45 C    0-1 0

   8 B    1     1.3795     2.6068   80 O    0 0 0
   8 B    1     1.3795     2.6070   82 O    0-1 0
   8 B    1     1.5513     2.9316   48 C    0 0 0
   8 B    1     2.3905     4.5174   12 B    0 0 0
   8 B    1     2.3905     4.5175   10 B    1 0 0
   8 B    1     2.5648     4.8468   46 C    0-1 0

   9 B    1     1.3795     2.6069   81 O    0 0 0
   9 B    1     1.3797     2.6072   83 O    1 1 0
   9 B    1     1.5516     2.9322   71 C    0 0 0
   9 B    1     2.3905     4.5175    7 B    0 1 0
   9 B    1     2.3911     4.5185   11 B    0 1 0
   9 B    1     2.5651     4.8473   69 C    1 1 0

  10 B    1     1.3795     2.6069   82 O   -1-1 0
  10 B    1     1.3797     2.6072   84 O    0 0 0
  10 B    1     1.5516     2.9322   72 C    0 0 0
  10 B    1     2.3905     4.5175    8 B   -1 0 0
  10 B    1     2.3911     4.5185   12 B   -1 0 0
  10 B    1     2.5651     4.8473   70 C    0 0 0

  11 B    1     1.3795     2.6068   79 O    0 0 0
  11 B    1     1.3796     2.6071   83 O    1 0 0
  11 B    1     1.5516     2.9322   59 C    0 0 0
  11 B    1     2.3905     4.5174    7 B    0 0 0
  11 B    1     2.3911     4.5185    9 B    0-1 0
  11 B    1     2.5651     4.8473   57 C    1 0 0

  12 B    1     1.3795     2.6068   80 O    0 0 0
  12 B    1     1.3796     2.6071   84 O    1 0 0
  12 B    1     1.5516     2.9322   60 C    0 0 0
  12 B    1     2.3905     4.5174    8 B    0 0 0
  12 B    1     2.3911     4.5185   10 B    1 0 0
  12 B    1     2.5651     4.8473   58 C    1 0 0

  13 H    1     1.0913     2.0623   39 C    0 0 0
  13 H    1     2.1472     4.0576   37 C    0 0 0
  13 H    1     2.1680     4.0969   45 C    0 0 0
  13 H    1     2.5202     4.7625   19 H    0 0 0
  13 H    1     2.5676     4.8520   75 O    0 0 0
  13 H    1     2.7321     5.1630    3 B    0 0 0

  14 H    1     1.0913     2.0623   40 C    0 0 0
  14 H    1     2.1472     4.0576   38 C    0 1 0
  14 H    1     2.1680     4.0969   46 C    0 0 0
  14 H    1     2.5202     4.7625   20 H    0 0 0
  14 H    1     2.5676     4.8520   76 O    0 0 0
  14 H    1     2.7321     5.1630    4 B    0 1 0

  15 H    1     1.0914     2.0625   41 C    0 0 0
  15 H    1     2.1493     4.0616   47 C    0 0 0
  15 H    1     2.1666     4.0942   43 C    0 0 0
  15 H    1     2.5198     4.7618   17 H    0 0 0
  15 H    1     2.5720     4.8604   79 O    0 0 0
  15 H    1     2.7362     5.1707    7 B    0 0 0

  16 H    1     1.0914     2.0625   42 C    0 0 0
  16 H    1     2.1493     4.0616   48 C    0 0 0
  16 H    1     2.1666     4.0942   44 C    0 0 0
  16 H    1     2.5198     4.7618   18 H    0 0 0
  16 H    1     2.5720     4.8604   80 O    0 0 0
  16 H    1     2.7362     5.1707    8 B    0 0 0

  17 H    1     1.0914     2.0624   43 C    0 0 0
  17 H    1     2.1471     4.0575   37 C    0-1 0
  17 H    1     2.1680     4.0970   41 C    0 0 0
  17 H    1     2.5198     4.7618   15 H    0 0 0
  17 H    1     2.5665     4.8500   77 O    0 0 0
  17 H    1     2.7315     5.1618    3 B    0-1 0

  18 H    1     1.0914     2.0624   44 C    0 0 0
  18 H    1     2.1471     4.0575   38 C    0 0 0
  18 H    1     2.1680     4.0970   42 C    0 0 0
  18 H    1     2.5198     4.7618   16 H    0 0 0
  18 H    1     2.5665     4.8500   78 O    0 0 0
  18 H    1     2.7315     5.1618    4 B    0 0 0

  19 H    1     1.0915     2.0626   45 C    0 0 0
  19 H    1     2.1490     4.0610   47 C    0 1 0
  19 H    1     2.1669     4.0948   39 C    0 0 0
  19 H    1     2.5202     4.7625   13 H    0 0 0
  19 H    1     2.5712     4.8588   81 O    0 0 0
  19 H    1     2.7351     5.1686    7 B    0 1 0

  20 H    1     1.0915     2.0626   46 C    0 0 0
  20 H    1     2.1490     4.0610   48 C    0 1 0
  20 H    1     2.1669     4.0948   40 C    0 0 0
  20 H    1     2.5202     4.7625   14 H    0 0 0
  20 H    1     2.5712     4.8588   82 O    0 0 0
  20 H    1     2.7351     5.1686    8 B    0 1 0

  21 H    1     1.0913     2.0623   51 C    0 0 0
  21 H    1     2.1469     4.0571   49 C   -1 0 0
  21 H    1     2.1680     4.0968   57 C    0 0 0
  21 H    1     2.5198     4.7617   27 H    0 0 0
  21 H    1     2.5670     4.8510   75 O    0 0 0
  21 H    1     2.7310     5.1609    1 B    0 0 0

  22 H    1     1.0913     2.0623   52 C    0 0 0
  22 H    1     2.1469     4.0571   50 C   -1 0 0
  22 H    1     2.1680     4.0968   58 C    0 0 0
  22 H    1     2.5198     4.7617   28 H    0 0 0
  22 H    1     2.5670     4.8510   76 O    0 0 0
  22 H    1     2.7310     5.1609    2 B    0 0 0

  23 H    1     1.0914     2.0625   53 C    0 0 0
  23 H    1     2.1493     4.0617   59 C    0 0 0
  23 H    1     2.1664     4.0939   55 C    0 0 0
  23 H    1     2.5192     4.7606   25 H    0 0 0
  23 H    1     2.5735     4.8632   79 O    0 0 0
  23 H    1     2.7371     5.1723   11 B    0 0 0

  24 H    1     1.0914     2.0625   54 C    0 0 0
  24 H    1     2.1493     4.0617   60 C    0 0 0
  24 H    1     2.1664     4.0939   56 C    0 0 0
  24 H    1     2.5192     4.7606   26 H    0 0 0
  24 H    1     2.5735     4.8632   80 O    0 0 0
  24 H    1     2.7371     5.1723   12 B    0 0 0

  25 H    1     1.0914     2.0624   55 C    0 0 0
  25 H    1     2.1475     4.0581   49 C    0 0 0
  25 H    1     2.1679     4.0967   53 C    0 0 0
  25 H    1     2.5192     4.7606   23 H    0 0 0
  25 H    1     2.5675     4.8519   73 O    0 0 0
  25 H    1     2.7328     5.1643    1 B    1 0 0

  26 H    1     1.0914     2.0624   56 C    0 0 0
  26 H    1     2.1475     4.0581   50 C    0 0 0
  26 H    1     2.1679     4.0967   54 C    0 0 0
  26 H    1     2.5192     4.7606   24 H    0 0 0
  26 H    1     2.5675     4.8519   74 O    0 0 0
  26 H    1     2.7328     5.1643    2 B    1 0 0

  27 H    1     1.0914     2.0625   57 C    0 0 0
  27 H    1     2.1491     4.0612   59 C   -1 0 0
  27 H    1     2.1666     4.0942   51 C    0 0 0
  27 H    1     2.5198     4.7617   21 H    0 0 0
  27 H    1     2.5723     4.8609   83 O    0 0 0
  27 H    1     2.7355     5.1693   11 B   -1 0 0

  28 H    1     1.0914     2.0625   58 C    0 0 0
  28 H    1     2.1491     4.0612   60 C   -1 0 0
  28 H    1     2.1666     4.0942   52 C    0 0 0
  28 H    1     2.5198     4.7617   22 H    0 0 0
  28 H    1     2.5723     4.8609   84 O    0 0 0
  28 H    1     2.7355     5.1693   12 B   -1 0 0

  29 H    1     1.0914     2.0624   63 C    0 0 0
  29 H    1     2.1475     4.0582   61 C   -1-1 0
  29 H    1     2.1678     4.0966   69 C    0 0 0
  29 H    1     2.5200     4.7621   35 H    0 0 0
  29 H    1     2.5667     4.8503   77 O    0 0 0
  29 H    1     2.7315     5.1618    5 B    0 0 0

  30 H    1     1.0914     2.0624   64 C    0 0 0
  30 H    1     2.1475     4.0582   62 C    0 0 0
  30 H    1     2.1678     4.0966   70 C    0 0 0
  30 H    1     2.5200     4.7621   36 H    0 0 0
  30 H    1     2.5667     4.8503   78 O    0 0 0
  30 H    1     2.7315     5.1618    6 B    0 0 0

  31 H    1     1.0913     2.0623   65 C    0 0 0
  31 H    1     2.1487     4.0605   71 C    0 0 0
  31 H    1     2.1667     4.0945   67 C    0 0 0
  31 H    1     2.5197     4.7616   33 H    0 0 0
  31 H    1     2.5723     4.8610   81 O    0 0 0
  31 H    1     2.7359     5.1701    9 B    0 0 0

  32 H    1     1.0913     2.0623   66 C    0 0 0
  32 H    1     2.1487     4.0605   72 C    1 1 0
  32 H    1     2.1667     4.0945   68 C    0 0 0
  32 H    1     2.5197     4.7616   34 H    0 0 0
  32 H    1     2.5723     4.8610   82 O    0 0 0
  32 H    1     2.7359     5.1701   10 B    1 1 0

  33 H    1     1.0915     2.0626   67 C    0 0 0
  33 H    1     2.1479     4.0589   61 C    0 0 0
  33 H    1     2.1679     4.0968   65 C    0 0 0
  33 H    1     2.5197     4.7616   31 H    0 0 0
  33 H    1     2.5677     4.8522   73 O    0 0 0
  33 H    1     2.7331     5.1648    5 B    1 1 0

  34 H    1     1.0915     2.0626   68 C    0 0 0
  34 H    1     2.1479     4.0589   62 C    1 1 0
  34 H    1     2.1679     4.0968   66 C    0 0 0
  34 H    1     2.5197     4.7616   32 H    0 0 0
  34 H    1     2.5677     4.8522   74 O    0 0 0
  34 H    1     2.7331     5.1648    6 B    1 1 0

  35 H    1     1.0914     2.0624   69 C    0 0 0
  35 H    1     2.1486     4.0602   71 C   -1-1 0
  35 H    1     2.1668     4.0947   63 C    0 0 0
  35 H    1     2.5200     4.7621   29 H    0 0 0
  35 H    1     2.5717     4.8598   83 O    0 0 0
  35 H    1     2.7349     5.1682    9 B   -1-1 0

  36 H    1     1.0914     2.0624   70 C    0 0 0
  36 H    1     2.1486     4.0602   72 C    0 0 0
  36 H    1     2.1668     4.0947   64 C    0 0 0
  36 H    1     2.5200     4.7621   30 H    0 0 0
  36 H    1     2.5717     4.8598   84 O    0 0 0
  36 H    1     2.7349     5.1682   10 B    0 0 0

  37 C    1     1.4020     2.6495   43 C    0 1 0
  37 C    1     1.4021     2.6495   39 C    0 0 0
  37 C    1     1.5504     2.9298    3 B    0 0 0
  37 C    1     2.1471     4.0575   17 H    0 1 0
  37 C    1     2.1472     4.0576   13 H    0 0 0
  37 C    1     2.4246     4.5817   41 C    0 1 0

  38 C    1     1.4020     2.6495   44 C    0 0 0
  38 C    1     1.4021     2.6495   40 C    0-1 0
  38 C    1     1.5504     2.9298    4 B    0 0 0
  38 C    1     2.1471     4.0575   18 H    0 0 0
  38 C    1     2.1472     4.0576   14 H    0-1 0
  38 C    1     2.4246     4.5817   42 C    0 0 0

  39 C    1     1.0913     2.0623   13 H    0 0 0
  39 C    1     1.3914     2.6294   45 C    0 0 0
  39 C    1     1.4021     2.6495   37 C    0 0 0
  39 C    1     2.1669     4.0948   19 H    0 0 0
  39 C    1     2.4177     4.5688   43 C    0 1 0
  39 C    1     2.4250     4.5825   47 C    0 1 0

  40 C    1     1.0913     2.0623   14 H    0 0 0
  40 C    1     1.3914     2.6294   46 C    0 0 0
  40 C    1     1.4021     2.6495   38 C    0 1 0
  40 C    1     2.1669     4.0948   20 H    0 0 0
  40 C    1     2.4177     4.5688   44 C    0 1 0
  40 C    1     2.4250     4.5825   48 C    0 1 0

  41 C    1     1.0914     2.0625   15 H    0 0 0
  41 C    1     1.3914     2.6293   43 C    0 0 0
  41 C    1     1.4026     2.6505   47 C    0 0 0
  41 C    1     2.1680     4.0970   17 H    0 0 0
  41 C    1     2.4182     4.5697   45 C    0-1 0
  41 C    1     2.4246     4.5817   37 C    0-1 0

  42 C    1     1.0914     2.0625   16 H    0 0 0
  42 C    1     1.3914     2.6293   44 C    0 0 0
  42 C    1     1.4026     2.6505   48 C    0 0 0
  42 C    1     2.1680     4.0970   18 H    0 0 0
  42 C    1     2.4182     4.5697   46 C    0-1 0
  42 C    1     2.4246     4.5817   38 C    0 0 0

  43 C    1     1.0914     2.0624   17 H    0 0 0
  43 C    1     1.3914     2.6293   41 C    0 0 0
  43 C    1     1.4020     2.6495   37 C    0-1 0
  43 C    1     2.1666     4.0942   15 H    0 0 0
  43 C    1     2.4177     4.5688   39 C    0-1 0
  43 C    1     2.4250     4.5826   47 C    0 0 0

  44 C    1     1.0914     2.0624   18 H    0 0 0
  44 C    1     1.3914     2.6293   42 C    0 0 0
  44 C    1     1.4020     2.6495   38 C    0 0 0
  44 C    1     2.1666     4.0942   16 H    0 0 0
  44 C    1     2.4177     4.5688   40 C    0-1 0
  44 C    1     2.4250     4.5826   48 C    0 0 0

  45 C    1     1.0915     2.0626   19 H    0 0 0
  45 C    1     1.3914     2.6294   39 C    0 0 0
  45 C    1     1.4025     2.6504   47 C    0 1 0
  45 C    1     2.1680     4.0969   13 H    0 0 0
  45 C    1     2.4182     4.5697   41 C    0 1 0
  45 C    1     2.4246     4.5818   37 C    0 0 0

  46 C    1     1.0915     2.0626   20 H    0 0 0
  46 C    1     1.3914     2.6294   40 C    0 0 0
  46 C    1     1.4025     2.6504   48 C    0 1 0
  46 C    1     2.1680     4.0969   14 H    0 0 0
  46 C    1     2.4182     4.5697   42 C    0 1 0
  46 C    1     2.4246     4.5818   38 C    0 1 0

  47 C    1     1.4025     2.6504   45 C    0-1 0
  47 C    1     1.4026     2.6505   41 C    0 0 0
  47 C    1     1.5513     2.9316    7 B    0 0 0
  47 C    1     2.1490     4.0610   19 H    0-1 0
  47 C    1     2.1493     4.0616   15 H    0 0 0
  47 C    1     2.4250     4.5825   39 C    0-1 0

  48 C    1     1.4025     2.6504   46 C    0-1 0
  48 C    1     1.4026     2.6505   42 C    0 0 0
  48 C    1     1.5513     2.9316    8 B    0 0 0
  48 C    1     2.1490     4.0610   20 H    0-1 0
  48 C    1     2.1493     4.0616   16 H    0 0 0
  48 C    1     2.4250     4.5825   40 C    0-1 0

  49 C    1     1.4020     2.6494   51 C    1 0 0
  49 C    1     1.4021     2.6495   55 C    0 0 0
  49 C    1     1.5503     2.9297    1 B    1 0 0
  49 C    1     2.1469     4.0571   21 H    1 0 0
  49 C    1     2.1475     4.0581   25 H    0 0 0
  49 C    1     2.4246     4.5818   53 C    0 0 0

  50 C    1     1.4020     2.6494   52 C    1 0 0
  50 C    1     1.4021     2.6495   56 C    0 0 0
  50 C    1     1.5503     2.9297    2 B    1 0 0
  50 C    1     2.1469     4.0571   22 H    1 0 0
  50 C    1     2.1475     4.0581   26 H    0 0 0
  50 C    1     2.4246     4.5818   54 C    0 0 0

  51 C    1     1.0913     2.0623   21 H    0 0 0
  51 C    1     1.3914     2.6293   57 C    0 0 0
  51 C    1     1.4020     2.6494   49 C   -1 0 0
  51 C    1     2.1666     4.0942   27 H    0 0 0
  51 C    1     2.4175     4.5684   55 C   -1 0 0
  51 C    1     2.4251     4.5828   59 C   -1 0 0

  52 C    1     1.0913     2.0623   22 H    0 0 0
  52 C    1     1.3914     2.6293   58 C    0 0 0
  52 C    1     1.4020     2.6494   50 C   -1 0 0
  52 C    1     2.1666     4.0942   28 H    0 0 0
  52 C    1     2.4175     4.5684   56 C   -1 0 0
  52 C    1     2.4251     4.5828   60 C   -1 0 0

  53 C    1     1.0914     2.0625   23 H    0 0 0
  53 C    1     1.3915     2.6295   55 C    0 0 0
  53 C    1     1.4026     2.6505   59 C    0 0 0
  53 C    1     2.1679     4.0967   25 H    0 0 0
  53 C    1     2.4179     4.5691   57 C    1 0 0
  53 C    1     2.4246     4.5818   49 C    0 0 0

  54 C    1     1.0914     2.0625   24 H    0 0 0
  54 C    1     1.3915     2.6295   56 C    0 0 0
  54 C    1     1.4026     2.6505   60 C    0 0 0
  54 C    1     2.1679     4.0967   26 H    0 0 0
  54 C    1     2.4179     4.5691   58 C    1 0 0
  54 C    1     2.4246     4.5818   50 C    0 0 0

  55 C    1     1.0914     2.0624   25 H    0 0 0
  55 C    1     1.3915     2.6295   53 C    0 0 0
  55 C    1     1.4021     2.6495   49 C    0 0 0
  55 C    1     2.1664     4.0939   23 H    0 0 0
  55 C    1     2.4175     4.5684   51 C    1 0 0
  55 C    1     2.4253     4.5832   59 C    0 0 0

  56 C    1     1.0914     2.0624   26 H    0 0 0
  56 C    1     1.3915     2.6295   54 C    0 0 0
  56 C    1     1.4021     2.6495   50 C    0 0 0
  56 C    1     2.1664     4.0939   24 H    0 0 0
  56 C    1     2.4175     4.5684   52 C    1 0 0
  56 C    1     2.4253     4.5832   60 C    0 0 0

  57 C    1     1.0914     2.0625   27 H    0 0 0
  57 C    1     1.3914     2.6293   51 C    0 0 0
  57 C    1     1.4025     2.6504   59 C   -1 0 0
  57 C    1     2.1680     4.0968   21 H    0 0 0
  57 C    1     2.4179     4.5691   53 C   -1 0 0
  57 C    1     2.4247     4.5819   49 C   -1 0 0

  58 C    1     1.0914     2.0625   28 H    0 0 0
  58 C    1     1.3914     2.6293   52 C    0 0 0
  58 C    1     1.4025     2.6504   60 C   -1 0 0
  58 C    1     2.1680     4.0968   22 H    0 0 0
  58 C    1     2.4179     4.5691   54 C   -1 0 0
  58 C    1     2.4247     4.5819   50 C   -1 0 0

  59 C    1     1.4025     2.6504   57 C    1 0 0
  59 C    1     1.4026     2.6505   53 C    0 0 0
  59 C    1     1.5516     2.9322   11 B    0 0 0
  59 C    1     2.1491     4.0612   27 H    1 0 0
  59 C    1     2.1493     4.0617   23 H    0 0 0
  59 C    1     2.4251     4.5828   51 C    1 0 0

  60 C    1     1.4025     2.6504   58 C    1 0 0
  60 C    1     1.4026     2.6505   54 C    0 0 0
  60 C    1     1.5516     2.9322   12 B    0 0 0
  60 C    1     2.1491     4.0612   28 H    1 0 0
  60 C    1     2.1493     4.0617   24 H    0 0 0
  60 C    1     2.4251     4.5828   52 C    1 0 0

  61 C    1     1.4021     2.6496   63 C    1 1 0
  61 C    1     1.4021     2.6497   67 C    0 0 0
  61 C    1     1.5502     2.9294    5 B    1 1 0
  61 C    1     2.1475     4.0582   29 H    1 1 0
  61 C    1     2.1479     4.0589   33 H    0 0 0
  61 C    1     2.4244     4.5814   65 C    0 0 0

  62 C    1     1.4021     2.6496   64 C    0 0 0
  62 C    1     1.4021     2.6497   68 C   -1-1 0
  62 C    1     1.5502     2.9294    6 B    0 0 0
  62 C    1     2.1475     4.0582   30 H    0 0 0
  62 C    1     2.1479     4.0589   34 H   -1-1 0
  62 C    1     2.4244     4.5814   66 C   -1-1 0

  63 C    1     1.0914     2.0624   29 H    0 0 0
  63 C    1     1.3914     2.6293   69 C    0 0 0
  63 C    1     1.4021     2.6496   61 C   -1-1 0
  63 C    1     2.1668     4.0947   35 H    0 0 0
  63 C    1     2.4179     4.5692   67 C   -1-1 0
  63 C    1     2.4251     4.5827   71 C   -1-1 0

  64 C    1     1.0914     2.0624   30 H    0 0 0
  64 C    1     1.3914     2.6293   70 C    0 0 0
  64 C    1     1.4021     2.6496   62 C    0 0 0
  64 C    1     2.1668     4.0947   36 H    0 0 0
  64 C    1     2.4179     4.5692   68 C   -1-1 0
  64 C    1     2.4251     4.5827   72 C    0 0 0

  65 C    1     1.0913     2.0623   31 H    0 0 0
  65 C    1     1.3914     2.6294   67 C    0 0 0
  65 C    1     1.4025     2.6504   71 C    0 0 0
  65 C    1     2.1679     4.0968   33 H    0 0 0
  65 C    1     2.4178     4.5690   69 C    1 1 0
  65 C    1     2.4244     4.5814   61 C    0 0 0

  66 C    1     1.0913     2.0623   32 H    0 0 0
  66 C    1     1.3914     2.6294   68 C    0 0 0
  66 C    1     1.4025     2.6504   72 C    1 1 0
  66 C    1     2.1679     4.0968   34 H    0 0 0
  66 C    1     2.4178     4.5690   70 C    1 1 0
  66 C    1     2.4244     4.5814   62 C    1 1 0

  67 C    1     1.0915     2.0626   33 H    0 0 0
  67 C    1     1.3914     2.6294   65 C    0 0 0
  67 C    1     1.4021     2.6497   61 C    0 0 0
  67 C    1     2.1667     4.0945   31 H    0 0 0
  67 C    1     2.4179     4.5692   63 C    1 1 0
  67 C    1     2.4253     4.5832   71 C    0 0 0

  68 C    1     1.0915     2.0626   34 H    0 0 0
  68 C    1     1.3914     2.6294   66 C    0 0 0
  68 C    1     1.4021     2.6497   62 C    1 1 0
  68 C    1     2.1667     4.0945   32 H    0 0 0
  68 C    1     2.4179     4.5692   64 C    1 1 0
  68 C    1     2.4253     4.5832   72 C    1 1 0

  69 C    1     1.0914     2.0624   35 H    0 0 0
  69 C    1     1.3914     2.6293   63 C    0 0 0
  69 C    1     1.4025     2.6503   71 C   -1-1 0
  69 C    1     2.1678     4.0966   29 H    0 0 0
  69 C    1     2.4178     4.5690   65 C   -1-1 0
  69 C    1     2.4245     4.5817   61 C   -1-1 0

  70 C    1     1.0914     2.0624   36 H    0 0 0
  70 C    1     1.3914     2.6293   64 C    0 0 0
  70 C    1     1.4025     2.6503   72 C    0 0 0
  70 C    1     2.1678     4.0966   30 H    0 0 0
  70 C    1     2.4178     4.5690   66 C   -1-1 0
  70 C    1     2.4245     4.5817   62 C    0 0 0

  71 C    1     1.4025     2.6503   69 C    1 1 0
  71 C    1     1.4025     2.6504   65 C    0 0 0
  71 C    1     1.5516     2.9322    9 B    0 0 0
  71 C    1     2.1486     4.0602   35 H    1 1 0
  71 C    1     2.1487     4.0605   31 H    0 0 0
  71 C    1     2.4251     4.5827   63 C    1 1 0

  72 C    1     1.4025     2.6503   70 C    0 0 0
  72 C    1     1.4025     2.6504   66 C   -1-1 0
  72 C    1     1.5516     2.9322   10 B    0 0 0
  72 C    1     2.1486     4.0602   36 H    0 0 0
  72 C    1     2.1487     4.0605   32 H   -1-1 0
  72 C    1     2.4251     4.5827   64 C    0 0 0

  73 O    1     1.3791     2.6061    1 B    1 0 0
  73 O    1     1.3791     2.6061    5 B    1 1 0
  73 O    1     2.3880     4.5126   75 O    1 0 0
  73 O    1     2.3882     4.5130   77 O    1 1 0
  73 O    1     2.5383     4.7966   61 C    0 0 0
  73 O    1     2.5384     4.7968   49 C    0 0 0

  74 O    1     1.3791     2.6061    2 B    1 0 0
  74 O    1     1.3791     2.6061    6 B    1 1 0
  74 O    1     2.3880     4.5126   76 O    1 0 0
  74 O    1     2.3882     4.5130   78 O    1 1 0
  74 O    1     2.5383     4.7966   62 C    1 1 0
  74 O    1     2.5384     4.7968   50 C    0 0 0

  75 O    1     1.3793     2.6065    1 B    0 0 0
  75 O    1     1.3793     2.6065    3 B    0 0 0
  75 O    1     2.3880     4.5126   73 O   -1 0 0
  75 O    1     2.3882     4.5131   77 O    0 1 0
  75 O    1     2.5391     4.7981   37 C    0 0 0
  75 O    1     2.5395     4.7990   49 C   -1 0 0

  76 O    1     1.3793     2.6065    2 B    0 0 0
  76 O    1     1.3793     2.6065    4 B    0 1 0
  76 O    1     2.3880     4.5126   74 O   -1 0 0
  76 O    1     2.3882     4.5131   78 O    0 1 0
  76 O    1     2.5391     4.7981   38 C    0 1 0
  76 O    1     2.5395     4.7990   50 C   -1 0 0

  77 O    1     1.3793     2.6064    5 B    0 0 0
  77 O    1     1.3793     2.6065    3 B    0-1 0
  77 O    1     2.3882     4.5130   73 O   -1-1 0
  77 O    1     2.3882     4.5131   75 O    0-1 0
  77 O    1     2.5390     4.7980   37 C    0-1 0
  77 O    1     2.5391     4.7982   61 C   -1-1 0

  78 O    1     1.3793     2.6064    6 B    0 0 0
  78 O    1     1.3793     2.6065    4 B    0 0 0
  78 O    1     2.3882     4.5130   74 O   -1-1 0
  78 O    1     2.3882     4.5131   76 O    0-1 0
  78 O    1     2.5390     4.7980   38 C    0 0 0
  78 O    1     2.5391     4.7982   62 C    0 0 0

  79 O    1     1.3795     2.6068   11 B    0 0 0
  79 O    1     1.3795     2.6068    7 B    0 0 0
  79 O    1     2.3880     4.5126   83 O    1 0 0
  79 O    1     2.3884     4.5134   81 O    0-1 0
  79 O    1     2.5400     4.7998   47 C    0 0 0
  79 O    1     2.5403     4.8005   59 C    0 0 0

  80 O    1     1.3795     2.6068   12 B    0 0 0
  80 O    1     1.3795     2.6068    8 B    0 0 0
  80 O    1     2.3880     4.5126   84 O    1 0 0
  80 O    1     2.3884     4.5134   82 O    0-1 0
  80 O    1     2.5400     4.7998   48 C    0 0 0
  80 O    1     2.5403     4.8005   60 C    0 0 0

  81 O    1     1.3795     2.6069    9 B    0 0 0
  81 O    1     1.3795     2.6070    7 B    0 1 0
  81 O    1     2.3881     4.5128   83 O    1 1 0
  81 O    1     2.3884     4.5134   79 O    0 1 0
  81 O    1     2.5404     4.8006   47 C    0 1 0
  81 O    1     2.5405     4.8008   71 C    0 0 0

  82 O    1     1.3795     2.6069   10 B    1 1 0
  82 O    1     1.3795     2.6070    8 B    0 1 0
  82 O    1     2.3881     4.5128   84 O    1 1 0
  82 O    1     2.3884     4.5134   80 O    0 1 0
  82 O    1     2.5404     4.8006   48 C    0 1 0
  82 O    1     2.5405     4.8008   72 C    1 1 0

  83 O    1     1.3796     2.6071   11 B   -1 0 0
  83 O    1     1.3797     2.6072    9 B   -1-1 0
  83 O    1     2.3880     4.5126   79 O   -1 0 0
  83 O    1     2.3881     4.5128   81 O   -1-1 0
  83 O    1     2.5409     4.8016   71 C   -1-1 0
  83 O    1     2.5410     4.8019   59 C   -1 0 0

  84 O    1     1.3796     2.6071   12 B   -1 0 0
  84 O    1     1.3797     2.6072   10 B    0 0 0
  84 O    1     2.3880     4.5126   80 O   -1 0 0
  84 O    1     2.3881     4.5128   82 O   -1-1 0
  84 O    1     2.5409     4.8016   72 C    0 0 0
  84 O    1     2.5410     4.8019   60 C   -1 0 0


 SYMMETRY ALLOWED INTERNAL DEGREE(S) OF FREEDOM: 249
 TTTTTTTTTTTTTTTTTTTTTTTTTTTTTT SYMM        TELAPSE        2.82 TCPU        2.82
 TTTTTTTTTTTTTTTTTTTTTTTTTTTTTT INT_SCREEN  TELAPSE        3.03 TCPU        3.02

 DFT PARAMETERS

     ATOM       ELECTRONS   NET CHARGE   R(ANGSTROM)
   1   5  B       5.0000      0.0000     0.89000000
  13   1  H       1.0000      0.0000     1.11000000
  37   6  C       6.0000      0.0000     0.77000000
  73   8  O       8.0000      0.0000     0.74000000

 SIZE OF GRID=    2578796
 TTTTTTTTTTTTTTTTTTTTTTTTTTTTTT MAKE_GRID2  TELAPSE       24.77 TCPU       24.74
 BECKE WEIGHT FUNCTION
 RADSAFE =     2.00
 TOLERANCES - DENSITY:10**- 6; POTENTIAL:10**- 9; GRID WGT:10**-14

 RADIAL INTEGRATION  - INTERVALS (POINTS,UPPER LIMIT):            1( 75,  4.0*R)

 ANGULAR INTEGRATION - INTERVALS (ACCURACY LEVEL [N. POINTS] UPPER LIMIT):
  1(  4[  86]   0.2)  2(  8[ 194]   0.5)  3( 12[ 350]   0.9)  4( 16[ 974]   3.5)
  5( 12[ 350]9999.0)
 TTTTTTTTTTTTTTTTTTTTTTTTTTTTTT INT_CALC    TELAPSE       25.05 TCPU       25.02
 EEEEEEEEEE INT_CALC TERMINATION  DATE 19 02 2026 TIME 20:18:01.0

 *******************************************************************************
 cof-1_z38_L010_serr                                                             
 CRYSTAL - SCF - TYPE OF CALCULATION :  RESTRICTED CLOSED SHELL
 *******************************************************************************

 CAPPA:IS1  2;IS2  2;IS3  8; K PTS MONK NET  20; SYMMOPS:K SPACE   2;G SPACE   1

 TTTTTTTTTTTTTTTTTTTTTTTTTTTTTT SDIK        TELAPSE       27.01 TCPU       53.75

 AAAAAAAAAAAAAAAAAAAAAAAAAAAAAAAAAAAAAAAAAAAAAAAAAAAAAAAAAAAAAAAAAAAAAAAAAAAAAAA
         ATOMIC WAVEFUNCTION(S)


 NUCLEAR CHARGE  5.0  SYMMETRY SPECIES            S    P
 N. ELECTRONS    5.0  NUMBER OF PRIMITIVE GTOS    8    4
                      NUMBER OF CONTRACTED GTOS   4    2
                      NUMBER OF CLOSED SHELLS     2    0
                      OPEN SHELL OCCUPATION       0    1

  ZNUC  SCFIT    TOTAL HF ENERGY   KINETIC ENERGY   VIRIAL THEOREM ACCURACY
   5.0    11    -2.451164084E+01  2.462155050E+01 -1.995536038E+00  1.5E-06

 NUCLEAR CHARGE  1.0  SYMMETRY SPECIES            S
 N. ELECTRONS    1.0  NUMBER OF PRIMITIVE GTOS    4
                      NUMBER OF CONTRACTED GTOS   2
                      NUMBER OF CLOSED SHELLS     0
                      OPEN SHELL OCCUPATION       1

  ZNUC  SCFIT    TOTAL HF ENERGY   KINETIC ENERGY   VIRIAL THEOREM ACCURACY
   1.0     1    -4.977266687E-01  5.190767460E-01 -1.958869132E+00  0.0E+00

 NUCLEAR CHARGE  6.0  SYMMETRY SPECIES            S    P
 N. ELECTRONS    6.0  NUMBER OF PRIMITIVE GTOS    8    4
                      NUMBER OF CONTRACTED GTOS   4    2
                      NUMBER OF CLOSED SHELLS     2    0
                      OPEN SHELL OCCUPATION       0    2

  ZNUC  SCFIT    TOTAL HF ENERGY   KINETIC ENERGY   VIRIAL THEOREM ACCURACY
   6.0     9    -3.766704647E+01  3.775180683E+01 -1.997754800E+00  1.1E-06

 NUCLEAR CHARGE  8.0  SYMMETRY SPECIES            S    P
 N. ELECTRONS    8.0  NUMBER OF PRIMITIVE GTOS    8    4
                      NUMBER OF CONTRACTED GTOS   4    2
                      NUMBER OF CLOSED SHELLS     2    0
                      OPEN SHELL OCCUPATION       0    4

  ZNUC  SCFIT    TOTAL HF ENERGY   KINETIC ENERGY   VIRIAL THEOREM ACCURACY
   8.0    12    -7.477373220E+01  7.477365593E+01 -2.000001020E+00  3.8E-06

 AAAAAAAAAAAAAAAAAAAAAAAAAAAAAAAAAAAAAAAAAAAAAAAAAAAAAAAAAAAAAAAAAAAAAAAAAAAAAAA

 CHARGE NORMALIZATION FACTOR   1.00000000
 TOTAL ATOMIC CHARGES:
   5.0000000   5.0000000   5.0000000   5.0000000   5.0000000   5.0000000
   5.0000000   5.0000000   5.0000000   5.0000000   5.0000000   5.0000000
   1.0000000   1.0000000   1.0000000   1.0000000   1.0000000   1.0000000
   1.0000000   1.0000000   1.0000000   1.0000000   1.0000000   1.0000000
   1.0000000   1.0000000   1.0000000   1.0000000   1.0000000   1.0000000
   1.0000000   1.0000000   1.0000000   1.0000000   1.0000000   1.0000000
   6.0000000   6.0000000   6.0000000   6.0000000   6.0000000   6.0000000
   6.0000000   6.0000000   6.0000000   6.0000000   6.0000000   6.0000000
   6.0000000   6.0000000   6.0000000   6.0000000   6.0000000   6.0000000
   6.0000000   6.0000000   6.0000000   6.0000000   6.0000000   6.0000000
   6.0000000   6.0000000   6.0000000   6.0000000   6.0000000   6.0000000
   6.0000000   6.0000000   6.0000000   6.0000000   6.0000000   6.0000000
   8.0000000   8.0000000   8.0000000   8.0000000   8.0000000   8.0000000
   8.0000000   8.0000000   8.0000000   8.0000000   8.0000000   8.0000000
 TTTTTTTTTTTTTTTTTTTTTTTTTTTTTT MOQGAD      TELAPSE       27.11 TCPU       56.98
 TTTTTTTTTTTTTTTTTTTTTTTTTTTTTT SHELLXN     TELAPSE       46.99 TCPU      692.23
 TTTTTTTTTTTTTTTTTTTTTTTTTTTTTT MONMO3      TELAPSE       47.61 TCPU      712.06
 NUMERICALLY INTEGRATED DENSITY    395.9999810605
 TTTTTTTTTTTTTTTTTTTTTTTTTTTTTT NUMDFT      TELAPSE       49.10 TCPU      759.69
 CYC   0 ETOT(AU) -2.591925914167E+03 DETOT -2.59E+03 tst  0.00E+00 PX  1.00E+00
 TTTTTTTTTTTTTTTTTTTTTTTTTTTTTT DIIS        TELAPSE       49.21 TCPU      763.27
 TTTTTTTTTTTTTTTTTTTTTTTTTTTTTT FDIK        TELAPSE       51.04 TCPU      821.70
 INSULATING STATE
 TOP OF VALENCE BANDS -    BAND    198; K    1; EIG -3.0432965E-01 AU
 BOTTOM OF VIRTUAL BANDS - BAND    199; K    1; EIG -1.6531570E-01 AU
 DIRECT ENERGY BAND GAP:   3.7828 eV
 TTTTTTTTTTTTTTTTTTTTTTTTTTTTTT PDIG        TELAPSE       52.62 TCPU      828.53
 CHARGE NORMALIZATION FACTOR   1.00000000
 TOTAL ATOMIC CHARGES:
   4.1517262   4.1353332   4.1394015   4.1463658   4.1396332   4.1465996
   4.1462719   4.1393382   4.1460623   4.1391485   4.1350715   4.1514037
   0.7856815   0.7860789   0.7861915   0.7857969   0.7860100   0.7855531
   0.7856699   0.7861269   0.7856175   0.7858699   0.7860323   0.7857836
   0.7856067   0.7858600   0.7859961   0.7857452   0.7860124   0.7855550
   0.7857358   0.7861929   0.7856338   0.7860290   0.7861852   0.7857908
   6.0520083   6.0486120   6.2699700   6.2669696   6.2669303   6.2699325
   6.2668724   6.2694013   6.2693411   6.2667978   6.0478602   6.0512141
   6.0461799   6.0527902   6.2672565   6.2686811   6.2687512   6.2673378
   6.2671601   6.2685943   6.2687547   6.2673481   6.0515123   6.0449363
   6.0523514   6.0489776   6.2666328   6.2691726   6.2697271   6.2671855
   6.2695930   6.2666000   6.2672185   6.2702088   6.0473668   6.0507317
   8.6986396   8.7004592   8.6987404   8.7005754   8.7009193   8.6953504
   8.7008759   8.6990527   8.6957454   8.7013116   8.7010319   8.6992097
 TTTTTTTTTTTTTTTTTTTTTTTTTTTTTT MOQGAD      TELAPSE       52.72 TCPU      828.63
 TTTTTTTTTTTTTTTTTTTTTTTTTTTTTT SHELLXN     TELAPSE       73.41 TCPU     1488.53
 TTTTTTTTTTTTTTTTTTTTTTTTTTTTTT MONMO3      TELAPSE       74.03 TCPU     1508.34
 NUMERICALLY INTEGRATED DENSITY    396.0000167086
 TTTTTTTTTTTTTTTTTTTTTTTTTTTTTT NUMDFT      TELAPSE       75.54 TCPU     1556.67
 CYC   1 ETOT(AU) -2.577624326835E+03 DETOT  1.43E+01 tst  0.00E+00 PX  1.00E+00
 TTTTTTTTTTTTTTTTTTTTTTTTTTTTTT DIIS        TELAPSE       75.68 TCPU     1561.25
 DIIS TEST: 0.22852E+01 AT SCF   CYCLE   1 - MIX   30 %
 TTTTTTTTTTTTTTTTTTTTTTTTTTTTTT FDIK        TELAPSE       77.57 TCPU     1621.39
 INSULATING STATE
 TOP OF VALENCE BANDS -    BAND    198; K    1; EIG -2.0791407E-01 AU
 BOTTOM OF VIRTUAL BANDS - BAND    199; K    1; EIG -8.7210283E-02 AU
 DIRECT ENERGY BAND GAP:   3.2845 eV
 TTTTTTTTTTTTTTTTTTTTTTTTTTTTTT PDIG        TELAPSE       79.15 TCPU     1628.22
 CHARGE NORMALIZATION FACTOR   1.00000000
 TOTAL ATOMIC CHARGES:
   4.6907425   4.7147151   4.7062155   4.6946869   4.7062222   4.6947045
   4.6951112   4.7066785   4.6951039   4.7066761   4.7151351   4.6912105
   0.9183917   0.9207188   0.9208069   0.9184479   0.9194687   0.9207028
   0.9207466   0.9194887   0.9209686   0.9164980   0.9165350   0.9210844
   0.9209491   0.9164800   0.9165168   0.9210560   0.9194605   0.9206929
   0.9208211   0.9195688   0.9183267   0.9206691   0.9208325   0.9184502
   5.8777764   5.8516727   6.1401636   6.1000984   6.1006470   6.1406966
   6.1209191   6.1354012   6.1360617   6.1216564   5.8545419   5.8806282
   5.8342632   5.8957244   6.1140716   6.1351199   6.1359782   6.1148394
   6.1142998   6.1353624   6.1358413   6.1147034   5.8992254   5.8376956
   5.8777258   5.8516145   6.1209798   6.1354890   6.1358957   6.1215510
   6.1403818   6.1002505   6.1003627   6.1404525   5.8547425   5.8808319
   8.3389547   8.3467779   8.3393416   8.3471560   8.3553227   8.3366647
   8.3466655   8.3388097   8.3363583   8.3550996   8.3470912   8.3392086
 TTTTTTTTTTTTTTTTTTTTTTTTTTTTTT MOQGAD      TELAPSE       79.25 TCPU     1628.32
 TTTTTTTTTTTTTTTTTTTTTTTTTTTTTT SHELLXN     TELAPSE       99.94 TCPU     2288.26
 TTTTTTTTTTTTTTTTTTTTTTTTTTTTTT MONMO3      TELAPSE      100.56 TCPU     2308.06
 NUMERICALLY INTEGRATED DENSITY    396.0000226663
 TTTTTTTTTTTTTTTTTTTTTTTTTTTTTT NUMDFT      TELAPSE      102.08 TCPU     2356.52
 CYC   2 ETOT(AU) -2.578010841162E+03 DETOT -3.87E-01 tst  4.64E-03 PX  1.58E-01
 TTTTTTTTTTTTTTTTTTTTTTTTTTTTTT DIIS        TELAPSE      102.25 TCPU     2361.97
 DIIS TEST: 0.98633E+00 AT SCF   CYCLE   2 - DIIS ACTIVE - HISTORY:     2 CYCLES
 TTTTTTTTTTTTTTTTTTTTTTTTTTTTTT FDIK        TELAPSE      104.13 TCPU     2422.09
 INSULATING STATE
 TOP OF VALENCE BANDS -    BAND    198; K    1; EIG -2.2460001E-01 AU
 BOTTOM OF VIRTUAL BANDS - BAND    199; K    1; EIG -8.3123088E-02 AU
 DIRECT ENERGY BAND GAP:   3.8498 eV
 TTTTTTTTTTTTTTTTTTTTTTTTTTTTTT PDIG        TELAPSE      105.71 TCPU     2428.92
 CHARGE NORMALIZATION FACTOR   1.00000000
 TOTAL ATOMIC CHARGES:
   4.4853923   4.4880079   4.4857211   4.4845302   4.4858579   4.4846737
   4.4839352   4.4852099   4.4837756   4.4850281   4.4872345   4.4845494
   0.8946253   0.8880541   0.8881059   0.8948167   0.8898067   0.8942629
   0.8943703   0.8899104   0.8902416   0.8914144   0.8917137   0.8903838
   0.8902742   0.8914633   0.8916367   0.8902965   0.8898082   0.8942693
   0.8944255   0.8899843   0.8946169   0.8880719   0.8880815   0.8947798
   5.8886720   5.8996149   6.1577769   6.1674671   6.1666649   6.1570139
   6.1646931   6.1614903   6.1607233   6.1636408   5.8979802   5.8869648
   5.9062392   5.8865912   6.1667125   6.1577638   6.1568064   6.1659924
   6.1667403   6.1578046   6.1567142   6.1659695   5.8844198   5.9041382
   5.8890282   5.8999285   6.1646369   6.1614346   6.1608605   6.1638377
   6.1576623   6.1673053   6.1666236   6.1570469   5.8976593   5.8865823
   8.5131725   8.5142172   8.5133358   8.5143737   8.5143459   8.5099436
   8.5143030   8.5133382   8.5101117   8.5143267   8.5144689   8.5135329
 TTTTTTTTTTTTTTTTTTTTTTTTTTTTTT MOQGAD      TELAPSE      105.81 TCPU     2429.03
 TTTTTTTTTTTTTTTTTTTTTTTTTTTTTT SHELLXN     TELAPSE      126.51 TCPU     3089.26
 TTTTTTTTTTTTTTTTTTTTTTTTTTTTTT MONMO3      TELAPSE      127.13 TCPU     3109.04
 NUMERICALLY INTEGRATED DENSITY    396.0000230664
 TTTTTTTTTTTTTTTTTTTTTTTTTTTTTT NUMDFT      TELAPSE      128.64 TCPU     3157.37
 CYC   3 ETOT(AU) -2.578214223566E+03 DETOT -2.03E-01 tst  7.21E-04 PX  6.12E-02
 TTTTTTTTTTTTTTTTTTTTTTTTTTTTTT DIIS        TELAPSE      128.82 TCPU     3163.23
 DIIS TEST: 0.24759E-01 AT SCF   CYCLE   3 - DIIS ACTIVE - HISTORY:     3 CYCLES
 TTTTTTTTTTTTTTTTTTTTTTTTTTTTTT FDIK        TELAPSE      130.69 TCPU     3222.95
 INSULATING STATE
 TOP OF VALENCE BANDS -    BAND    198; K    1; EIG -2.3325220E-01 AU
 BOTTOM OF VIRTUAL BANDS - BAND    199; K    1; EIG -9.2447722E-02 AU
 DIRECT ENERGY BAND GAP:   3.8315 eV
 TTTTTTTTTTTTTTTTTTTTTTTTTTTTTT PDIG        TELAPSE      132.28 TCPU     3229.78
 CHARGE NORMALIZATION FACTOR   1.00000000
 TOTAL ATOMIC CHARGES:
   4.4928770   4.4978679   4.4933703   4.4906471   4.4934821   4.4907604
   4.4912546   4.4939818   4.4911229   4.4938277   4.4982594   4.4934300
   0.8746502   0.8778107   0.8779349   0.8746357   0.8758215   0.8767918
   0.8768288   0.8758104   0.8779832   0.8732144   0.8731628   0.8781571
   0.8779925   0.8732281   0.8731098   0.8780961   0.8758391   0.8768025
   0.8768874   0.8758739   0.8746257   0.8778094   0.8779274   0.8746071
   5.9564831   5.9288778   6.1741725   6.1421645   6.1435556   6.1754713
   6.1587027   6.1659725   6.1674622   6.1605619   5.9336487   5.9612342
   5.9124811   5.9744234   6.1483920   6.1708735   6.1727451   6.1498950
   6.1483867   6.1709175   6.1727279   6.1499091   5.9796583   5.9176298
   5.9564908   5.9288432   6.1585872   6.1659074   6.1675194   6.1607300
   6.1740408   6.1419504   6.1435951   6.1755652   5.9337135   5.9612767
   8.4828393   8.4904697   8.4831463   8.4907668   8.4972390   8.4795626
   8.4906973   8.4829234   8.4794880   8.4974685   8.4910690   8.4832822
 TTTTTTTTTTTTTTTTTTTTTTTTTTTTTT MOQGAD      TELAPSE      132.38 TCPU     3229.89
 TTTTTTTTTTTTTTTTTTTTTTTTTTTTTT SHELLXN     TELAPSE      153.07 TCPU     3889.71
 TTTTTTTTTTTTTTTTTTTTTTTTTTTTTT MONMO3      TELAPSE      153.68 TCPU     3909.51
 NUMERICALLY INTEGRATED DENSITY    396.0000220454
 TTTTTTTTTTTTTTTTTTTTTTTTTTTTTT NUMDFT      TELAPSE      155.20 TCPU     3957.91
 CYC   4 ETOT(AU) -2.578218784150E+03 DETOT -4.56E-03 tst  4.06E-05 PX  2.15E-02
 TTTTTTTTTTTTTTTTTTTTTTTTTTTTTT DIIS        TELAPSE      155.41 TCPU     3964.62
 DIIS TEST: 0.94477E-02 AT SCF   CYCLE   4 - DIIS ACTIVE - HISTORY:     4 CYCLES
 TTTTTTTTTTTTTTTTTTTTTTTTTTTTTT FDIK        TELAPSE      157.29 TCPU     4024.47
 INSULATING STATE
 TOP OF VALENCE BANDS -    BAND    198; K    1; EIG -2.3233826E-01 AU
 BOTTOM OF VIRTUAL BANDS - BAND    199; K    1; EIG -9.1663628E-02 AU
 DIRECT ENERGY BAND GAP:   3.8280 eV
 TTTTTTTTTTTTTTTTTTTTTTTTTTTTTT PDIG        TELAPSE      158.88 TCPU     4031.31
 CHARGE NORMALIZATION FACTOR   1.00000000
 TOTAL ATOMIC CHARGES:
   4.4915958   4.5012479   4.4966152   4.4921546   4.4967351   4.4922871
   4.4916155   4.4962012   4.4914746   4.4960426   4.5006331   4.4908522
   0.8795885   0.8773863   0.8774717   0.8798431   0.8777831   0.8799248
   0.8800903   0.8779583   0.8780251   0.8773204   0.8776739   0.8781814
   0.8780344   0.8773432   0.8776174   0.8781148   0.8777828   0.8799285
   0.8801520   0.8780378   0.8795528   0.8773788   0.8774690   0.8798280
   5.9264750   5.9237841   6.1683421   6.1590060   6.1576899   6.1671160
   6.1652972   6.1701505   6.1688491   6.1635322   5.9207238   5.9233784
   5.9213111   5.9311512   6.1653281   6.1661381   6.1646702   6.1642156
   6.1654346   6.1662504   6.1645380   6.1641291   5.9278530   5.9180176
   5.9267690   5.9240358   6.1652513   6.1701118   6.1689183   6.1636667
   6.1683310   6.1589369   6.1575776   6.1670716   5.9204935   5.9230959
   8.4926752   8.4957550   8.4928762   8.4959458   8.4989147   8.4901772
   8.4956534   8.4927180   8.4902164   8.4986556   8.4958749   8.4929554
 TTTTTTTTTTTTTTTTTTTTTTTTTTTTTT MOQGAD      TELAPSE      158.98 TCPU     4031.41
 TTTTTTTTTTTTTTTTTTTTTTTTTTTTTT SHELLXN     TELAPSE      179.67 TCPU     4691.16
 TTTTTTTTTTTTTTTTTTTTTTTTTTTTTT MONMO3      TELAPSE      180.29 TCPU     4710.98
 NUMERICALLY INTEGRATED DENSITY    396.0000223209
 TTTTTTTTTTTTTTTTTTTTTTTTTTTTTT NUMDFT      TELAPSE      181.81 TCPU     4759.48
 CYC   5 ETOT(AU) -2.578220964239E+03 DETOT -2.18E-03 tst  1.74E-05 PX  1.17E-02
 TTTTTTTTTTTTTTTTTTTTTTTTTTTTTT DIIS        TELAPSE      182.05 TCPU     4766.30
 DIIS TEST: 0.46728E-03 AT SCF   CYCLE   5 - DIIS ACTIVE - HISTORY:     5 CYCLES
 TTTTTTTTTTTTTTTTTTTTTTTTTTTTTT FDIK        TELAPSE      183.93 TCPU     4826.03
 INSULATING STATE
 TOP OF VALENCE BANDS -    BAND    198; K    1; EIG -2.3162404E-01 AU
 BOTTOM OF VIRTUAL BANDS - BAND    199; K    1; EIG -9.1046022E-02 AU
 DIRECT ENERGY BAND GAP:   3.8253 eV
 TTTTTTTTTTTTTTTTTTTTTTTTTTTTTT PDIG        TELAPSE      185.51 TCPU     4832.87
 CHARGE NORMALIZATION FACTOR   1.00000000
 TOTAL ATOMIC CHARGES:
   4.4925480   4.4991559   4.4950103   4.4918115   4.4951242   4.4919298
   4.4925119   4.4956705   4.4923810   4.4955154   4.4995649   4.4931686
   0.8804855   0.8793522   0.8794605   0.8804090   0.8790489   0.8816500
   0.8816426   0.8789849   0.8806025   0.8782938   0.8782028   0.8807813
   0.8806225   0.8783215   0.8781393   0.8807085   0.8790623   0.8816577
   0.8817015   0.8790511   0.8804687   0.8793577   0.8794486   0.8803765
   5.9249021   5.9132795   6.1694875   6.1541516   6.1560877   6.1712883
   6.1623965   6.1658050   6.1678936   6.1650474   5.9195800   5.9311487
   5.9063466   5.9344124   6.1574870   6.1672630   6.1696373   6.1593888
   6.1574355   6.1672530   6.1696434   6.1594424   5.9407745   5.9126654
   5.9249931   5.9133303   6.1623016   6.1657481   6.1679803   6.1652331
   6.1693129   6.1539060   6.1561411   6.1714062   5.9195441   5.9310782
   8.4927711   8.4973161   8.4930448   8.4975822   8.5009959   8.4894546
   8.4976940   8.4929347   8.4894864   8.5014494   8.4980065   8.4932506
 TTTTTTTTTTTTTTTTTTTTTTTTTTTTTT MOQGAD      TELAPSE      185.62 TCPU     4832.97
 TTTTTTTTTTTTTTTTTTTTTTTTTTTTTT SHELLXN     TELAPSE      206.31 TCPU     5492.71
 TTTTTTTTTTTTTTTTTTTTTTTTTTTTTT MONMO3      TELAPSE      206.93 TCPU     5512.53
 NUMERICALLY INTEGRATED DENSITY    396.0000223565
 TTTTTTTTTTTTTTTTTTTTTTTTTTTTTT NUMDFT      TELAPSE      208.44 TCPU     5560.99
 CYC   6 ETOT(AU) -2.578220994790E+03 DETOT -3.06E-05 tst  5.05E-06 PX  3.69E-03
 TTTTTTTTTTTTTTTTTTTTTTTTTTTTTT DIIS        TELAPSE      208.70 TCPU     5567.84
 DIIS TEST: 0.36056E-03 AT SCF   CYCLE   6 - DIIS ACTIVE - HISTORY:     6 CYCLES
 TTTTTTTTTTTTTTTTTTTTTTTTTTTTTT FDIK        TELAPSE      210.59 TCPU     5627.75
 INSULATING STATE
 TOP OF VALENCE BANDS -    BAND    198; K    1; EIG -2.3177560E-01 AU
 BOTTOM OF VIRTUAL BANDS - BAND    199; K    1; EIG -9.1045316E-02 AU
 DIRECT ENERGY BAND GAP:   3.8295 eV
 TTTTTTTTTTTTTTTTTTTTTTTTTTTTTT PDIG        TELAPSE      212.17 TCPU     5634.59
 CHARGE NORMALIZATION FACTOR   1.00000000
 TOTAL ATOMIC CHARGES:
   4.4927750   4.4998832   4.4956346   4.4922733   4.4957531   4.4923996
   4.4919636   4.4954196   4.4918259   4.4952609   4.4994558   4.4923046
   0.8804544   0.8791732   0.8792643   0.8806424   0.8789680   0.8813997
   0.8815317   0.8790962   0.8801687   0.8782156   0.8784642   0.8803223
   0.8801811   0.8782381   0.8784068   0.8802553   0.8789750   0.8814072
   0.8815903   0.8791685   0.8804271   0.8791726   0.8792565   0.8806195
   5.9286049   5.9195170   6.1694643   6.1555997   6.1549359   6.1688463
   6.1637877   6.1677133   6.1670590   6.1628548   5.9183240   5.9273912
   5.9138552   5.9367115   6.1601366   6.1673091   6.1666705   6.1596752
   6.1602006   6.1673978   6.1665746   6.1596241   5.9355512   5.9126647
   5.9288142   5.9196819   6.1637093   6.1676568   6.1671428   6.1630206
   6.1693956   6.1554648   6.1548857   6.1688609   5.9181772   5.9271998
   8.4922334   8.4964995   8.4924614   8.4967184   8.5003183   8.4892960
   8.4965003   8.4923105   8.4893123   8.5001802   8.4967625   8.4925806
 TTTTTTTTTTTTTTTTTTTTTTTTTTTTTT MOQGAD      TELAPSE      212.28 TCPU     5634.69
 TTTTTTTTTTTTTTTTTTTTTTTTTTTTTT SHELLXN     TELAPSE      232.97 TCPU     6294.72
 TTTTTTTTTTTTTTTTTTTTTTTTTTTTTT MONMO3      TELAPSE      233.59 TCPU     6314.51
 NUMERICALLY INTEGRATED DENSITY    396.0000223625
 TTTTTTTTTTTTTTTTTTTTTTTTTTTTTT NUMDFT      TELAPSE      235.11 TCPU     6362.81
 CYC   7 ETOT(AU) -2.578221080923E+03 DETOT -8.61E-05 tst  1.52E-06 PX  1.77E-03
 TTTTTTTTTTTTTTTTTTTTTTTTTTTTTT DIIS        TELAPSE      235.39 TCPU     6369.67
 DIIS TEST: 0.29283E-04 AT SCF   CYCLE   7 - DIIS ACTIVE - HISTORY:     7 CYCLES
 TTTTTTTTTTTTTTTTTTTTTTTTTTTTTT FDIK        TELAPSE      237.27 TCPU     6429.45
 INSULATING STATE
 TOP OF VALENCE BANDS -    BAND    198; K    1; EIG -2.3183172E-01 AU
 BOTTOM OF VIRTUAL BANDS - BAND    199; K    1; EIG -9.1089592E-02 AU
 DIRECT ENERGY BAND GAP:   3.8298 eV
 TTTTTTTTTTTTTTTTTTTTTTTTTTTTTT PDIG        TELAPSE      238.86 TCPU     6436.29
 CHARGE NORMALIZATION FACTOR   1.00000000
 TOTAL ATOMIC CHARGES:
   4.4924617   4.5000194   4.4957024   4.4921374   4.4958202   4.4922634
   4.4921302   4.4957482   4.4919930   4.4955900   4.4998409   4.4923052
   0.8804840   0.8790265   0.8791212   0.8805942   0.8789397   0.8813117
   0.8814002   0.8790087   0.8799547   0.8782487   0.8784049   0.8801181
   0.8799688   0.8782736   0.8783455   0.8800491   0.8789461   0.8813179
   0.8814601   0.8790818   0.8804575   0.8790259   0.8791136   0.8805708
   5.9271859   5.9190374   6.1687141   6.1555018   6.1555921   6.1687980
   6.1632502   6.1674769   6.1676525   6.1634023   5.9200590   5.9281686
   5.9138534   5.9348171   6.1603945   6.1664734   6.1666815   6.1606008
   6.1604363   6.1665383   6.1666060   6.1605711   5.9357605   5.9147674
   5.9273873   5.9191967   6.1631792   6.1674277   6.1677298   6.1635610
   6.1686332   6.1553557   6.1555523   6.1688236   5.9199188   5.9279847
   8.4921959   8.4962397   8.4924305   8.4964650   8.4999125   8.4893175
   8.4963423   8.4922880   8.4893516   8.4999617   8.4966080   8.4925629
 TTTTTTTTTTTTTTTTTTTTTTTTTTTTTT MOQGAD      TELAPSE      238.96 TCPU     6436.39
 TTTTTTTTTTTTTTTTTTTTTTTTTTTTTT SHELLXN     TELAPSE      259.65 TCPU     7096.22
 TTTTTTTTTTTTTTTTTTTTTTTTTTTTTT MONMO3      TELAPSE      260.27 TCPU     7116.04
 NUMERICALLY INTEGRATED DENSITY    396.0000223614
 TTTTTTTTTTTTTTTTTTTTTTTTTTTTTT NUMDFT      TELAPSE      261.79 TCPU     7164.55
 CYC   8 ETOT(AU) -2.578221088503E+03 DETOT -7.58E-06 tst  1.18E-07 PX  5.08E-04
 TTTTTTTTTTTTTTTTTTTTTTTTTTTTTT DIIS        TELAPSE      262.09 TCPU     7171.36
 DIIS TEST: 0.16733E-05 AT SCF   CYCLE   8 - DIIS ACTIVE - HISTORY:     8 CYCLES
 TTTTTTTTTTTTTTTTTTTTTTTTTTTTTT FDIK        TELAPSE      263.98 TCPU     7231.27
 INSULATING STATE
 TOP OF VALENCE BANDS -    BAND    198; K    1; EIG -2.3182717E-01 AU
 BOTTOM OF VIRTUAL BANDS - BAND    199; K    1; EIG -9.1114078E-02 AU
 DIRECT ENERGY BAND GAP:   3.8290 eV
 TTTTTTTTTTTTTTTTTTTTTTTTTTTTTT PDIG        TELAPSE      265.56 TCPU     7238.10
 CHARGE NORMALIZATION FACTOR   1.00000000
 TOTAL ATOMIC CHARGES:
   4.4925083   4.5001314   4.4958026   4.4921997   4.4959196   4.4923247
   4.4921483   4.4958123   4.4920120   4.4956549   4.4999200   4.4923109
   0.8804310   0.8790147   0.8791095   0.8805526   0.8789062   0.8812851
   0.8813825   0.8789862   0.8799642   0.8782033   0.8783719   0.8801266
   0.8799784   0.8782279   0.8783124   0.8800577   0.8789134   0.8812917
   0.8814421   0.8790585   0.8804051   0.8790145   0.8791015   0.8805284
   5.9273464   5.9189650   6.1688870   6.1555568   6.1555406   6.1688713
   6.1633964   6.1674937   6.1675257   6.1633643   5.9196338   5.9279821
   5.9136099   5.9350853   6.1603013   6.1666900   6.1667797   6.1604106
   6.1603376   6.1667509   6.1667097   6.1603861   5.9357402   5.9142370
   5.9275373   5.9191138   6.1633220   6.1674426   6.1676048   6.1635265
   6.1687990   6.1554032   6.1555084   6.1689045   5.9195036   5.9278090
   8.4922625   8.4963473   8.4924997   8.4965756   8.5000005   8.4893266
   8.4964394   8.4923574   8.4893491   8.5000120   8.4967088   8.4926353
 TTTTTTTTTTTTTTTTTTTTTTTTTTTTTT MOQGAD      TELAPSE      265.67 TCPU     7238.20
 TTTTTTTTTTTTTTTTTTTTTTTTTTTTTT SHELLXN     TELAPSE      286.35 TCPU     7897.87
 TTTTTTTTTTTTTTTTTTTTTTTTTTTTTT MONMO3      TELAPSE      286.97 TCPU     7917.67
 NUMERICALLY INTEGRATED DENSITY    396.0000223590
 TTTTTTTTTTTTTTTTTTTTTTTTTTTTTT NUMDFT      TELAPSE      288.49 TCPU     7966.02
 CYC   9 ETOT(AU) -2.578221088572E+03 DETOT -6.90E-08 tst  3.38E-09 PX  1.32E-04
 TTTTTTTTTTTTTTTTTTTTTTTTTTTTTT DIIS        TELAPSE      288.81 TCPU     7972.91
 DIIS TEST: 0.39578E-07 AT SCF   CYCLE   9 - DIIS ACTIVE - HISTORY:     9 CYCLES
 TTTTTTTTTTTTTTTTTTTTTTTTTTTTTT FDIK        TELAPSE      290.81 TCPU     8036.33
 INSULATING STATE
 TOP OF VALENCE BANDS -    BAND    198; K    1; EIG -2.3182947E-01 AU
 BOTTOM OF VIRTUAL BANDS - BAND    199; K    1; EIG -9.1107429E-02 AU
 DIRECT ENERGY BAND GAP:   3.8292 eV
 TTTTTTTTTTTTTTTTTTTTTTTTTTTTTT PDIG        TELAPSE      292.40 TCPU     8043.17
 CHARGE NORMALIZATION FACTOR   1.00000000
 TOTAL ATOMIC CHARGES:
   4.4925232   4.5000813   4.4957562   4.4921874   4.4958740   4.4923134
   4.4921392   4.4957665   4.4920019   4.4956084   4.4998696   4.4923239
   0.8804275   0.8790189   0.8791138   0.8805493   0.8789112   0.8812845
   0.8813790   0.8789885   0.8799623   0.8782016   0.8783705   0.8801241
   0.8799758   0.8782256   0.8783119   0.8800559   0.8789178   0.8812912
   0.8814385   0.8790614   0.8804006   0.8790183   0.8791063   0.8805262
   5.9273351   5.9189577   6.1689167   6.1555360   6.1555171   6.1688996
   6.1633680   6.1675075   6.1675727   6.1633738   5.9196696   5.9280096
   5.9136698   5.9350899   6.1603077   6.1666931   6.1667851   6.1604232
   6.1603564   6.1667656   6.1667030   6.1603866   5.9357324   5.9142826
   5.9275393   5.9191189   6.1632947   6.1674561   6.1676522   6.1635349
   6.1688396   6.1553934   6.1554738   6.1689217   5.9195270   5.9278231
   8.4922454   8.4963377   8.4924778   8.4965609   8.5000253   8.4893377
   8.4964242   8.4923340   8.4893719   8.5000506   8.4966885   8.4926072
 TTTTTTTTTTTTTTTTTTTTTTTTTTTTTT MOQGAD      TELAPSE      292.50 TCPU     8043.27
 TTTTTTTTTTTTTTTTTTTTTTTTTTTTTT SHELLXN     TELAPSE      313.19 TCPU     8703.28
 +++ ENERGIES IN A.U. +++
 ::: EXT EL-POLE                                  -2.6209168666843E+03
 ::: EXT EL-SPHEROPOLE                             3.0132795134114E+01
 ::: BIELET ZONE E-E                               4.4787039974709E+03
 ::: TOTAL E-E                                     1.8879199259208E+03
 ::: TOTAL E-N + N-E                              -7.4313072558700E+03
 ::: TOTAL N-N                                     6.7274919310386E+02
 ::: KINETIC ENERGY                                2.5598404867975E+03
 ::: PSEUDO TOTAL   ENERGY                        -2.3107976500478E+03
 ::: VIRIAL COEFFICIENT                            1.0511314595239E+00
 TTTTTTTTTTTTTTTTTTTTTTTTTTTTTT MONMO3      TELAPSE      313.81 TCPU     8723.07
 NUMERICALLY INTEGRATED DENSITY    396.0000223595
 EXCHANGE ENERGY: -0.252036613843E+03  CORRELATION ENERGY: -0.153868247472E+02
 TTTTTTTTTTTTTTTTTTTTTTTTTTTTTT NUMDFT      TELAPSE      315.33 TCPU     8771.38
 CYC  10 ETOT(AU) -2.578221088638E+03 DETOT -6.63E-08 tst  6.69E-11 PX  1.32E-04

 == SCF ENDED - CONVERGENCE ON ENERGY      E(AU) -2.5782210886384E+03 CYCLES  10


 ENERGY EXPRESSION=HARTREE+FOCK EXCH*0.00000+(HSESOL     EXCH)*1.00000+PBESOL     CORR


 TOTAL ENERGY(DFT)(AU)( 10) -2.5782210886384E+03 DE-6.6E-08 tester 6.7E-11
 TTTTTTTTTTTTTTTTTTTTTTTTTTTTTT EDFT        TELAPSE      315.33 TCPU     8771.39
 
 INFORMATION **** DFTD3 ENERGY **** CALCULATE DFTD3 ENERGY

           DFT-D V3(BJ)
 DF                                         hsesol3c  
 parameters
 s6       :    1.0000
 s8       :    0.0000
 a1       :    0.5196
 a2       :    4.9385
 k1 k3    :   16.0000   -4.0000
 Cutoff   :   50.2022
 CN-Cutoff:   21.1671
 ABC-Cutoff:   21.1671
 
 Edisp /kcal,au:   -55.3557 -0.08821486

 E6    /kcal :   -59.1892
 E8    /kcal :     0.0000
 E6(ABC) "   :   3.833517
 
 INFORMATION **** DFTD3 ENERGY **** NORMAL TERMINATION OF DFTD3 MODULE

 GCP ENERGY CALCULATION
  level        hsesol3c            basis:hsesol3c
  Nbf            948
  Atoms           84

  Parameters: 
  sigma     1.0000
  eta       1.4281
  alpha     0.2936
  beta      1.9467

  dmp_scal      4.0000
  dmp_exp       6.0000
 cutoffs: 
   distance [bohr] 60.0
   noise    [a.u.] 2.2E-16
 SR-damping   T
 ** gCP correction **
  Egcp:        0.1661781120 / (a.u.) ||     104.2784 / (kcal/mol)
 INFORMATION **** GCP **** NORMAL TERMINATION OF GCP MODULE

 *******************************************************************************

 DFT-D3-GCP DISPERSION AND COUNTERPOISE CORRECTION

 D3 DISPERSION ENERGY (AU)      -8.8214861376569E-02
 GCP ENERGY (AU)                 1.6617811202693E-01
 TOTAL ENERGY + DISP + GCP (AU) -2.5781431253878E+03

 *******************************************************************************

 EIGENVECTORS IN FORTRAN UNIT  8
 TTTTTTTTTTTTTTTTTTTTTTTTTTTTTT END         TELAPSE      318.34 TCPU     8780.18
 EEEEEEEEEE TERMINATION  DATE 19 02 2026 TIME 20:22:54.3
