 Default number of threads is:           32

         
 *******************************************************************************
 *                                                                             *
 *                               CRYSTAL23                                     *
 *                      public : 1.0.1 - October 2022                          *
 *                       HTTP://WWW.CRYSTAL.UNITO.IT                           *
 *                                                                             *
 *                              MAIN AUTHORS                                   *
 *                                                                             *
 *  R. DOVESI(1,11), V.R. SAUNDERS(2), C. ROETTI(1,11), R. ORLANDO(1,11),      *
 *  C.M. ZICOVICH-WILSON(1,3), F. PASCALE(4), B. CIVALLERI(1,11),              *
 *  K. DOLL(5), N.M. HARRISON(6), I.J. BUSH(7), Ph. D'ARCO(8),                 *
 *  M. LLUNELL(9), M. CAUSA'(10), Y. NOEL(8), L. MASCHIO(1,11), A. ERBA(1,11)  *
 *  M. RE'RAT(14), S. CASASSA(1,11), B.G. SEARLE(2), J.K. DESMARAIS(1)         *
 *                                                                             *
 *        CONTRIBUTIONS TO THE CODE HAVE ALSO BEEN GIVEN BY                    *
 *                                                                             *
 *  M. FERRABONE(1,11), M. DE LA PIERRE(1,11), M. FERRERO(1,11),               *
 *  J. BAIMA(1,11), E. ALBANESE(1,11), M.F. PEINTINGER(12), R. BAST(13),       *
 *  B. KIRTMAN(15), V. LACIVITA(1,11), R. DEMICHELIS(1,16)                     *
 *  G. BRANDEBURG(17), S. SALUSTRO(1,11), G. SANSONE(1,11)                     *
 *  M.T. RUGGIERO(18), L.E. DAGA(1), L. DONA'(1), A. COSSARD(1)                *
 *                                                                             *
 * (1) THEORETICAL CHEMISTRY GROUP - UNIVERSITA' DI TORINO - TORINO (ITALY)    *
 * (2) SCIENTIFIC COMPUTING DEPARTMENT - STFC DARESBURY (UK)                   *
 * (3) UNIVERSIDAD AUTONOMA DEL ESTADO DE MORELOS - CUERNAVACA (MEXICO)        *
 * (4) UNIVERSITE' DE LORRAINE - NANCY (FRANCE)                                *
 * (5) UNIVERSITAET STUTTGART- STUTTGART (GERMANY)                             *
 * (6) IMPERIAL COLLEGE - LONDON (UK)                                          *
 * (7) SCIENTIFIC COMPUTING DEPARTMENT - STFC RAL (UK)                         *
 * (8) UPMC - SORBONNE UNIVERSITES - PARIS (FRANCE)                            *
 * (9) UNIVERSIDAD DE BARCELONA - BARCELONA (SPAIN)                            *
 *(10) UNIVERSITA' DI NAPOLI "FEDERICO II" - NAPOLI (ITALY)                    *
 *(11) NIS - NANOSTRUCTURED INTERFACES AND SURFACES - TORINO (ITALY)           *
 *(12) MPI FUER CHEMISCHE ENERGIEKONVERSION - MUELHEIM AN DER RUHR (GERMANY)   *
 *(13) UNIVERSITY OF TROMSO - TROMSO (NORWAY)                                  *
 *(14) UNIVERSITE' DE PAU ET DES PAYS DE L'ADOUR - PAU (FRANCE)                *
 *(15) UNIVERSITY OF CALIFORNIA SANTA BARBARA - SANTA BARBARA (USA)            *
 *(16) CURTIN UNIVERSITY - PERTH (AUSTRALIA)                                   *
 *(17) UNIVERSITY COLLEGE LONDON - LONDON (UK)                                 *
 *(18) UNIVERSITY OF VERMONT - BURLINGTON (USA)                                *
 *                                                                             *
 *******************************************************************************
 EEEEEEEEEE STARTING  DATE 19 02 2026 TIME 19:18:49.2
 cof-1_z44_L010_incl                                                             

 CRYSTAL CALCULATION
 (INPUT ACCORDING TO THE INTERNATIONAL TABLES FOR X-RAY CRYSTALLOGRAPHY)
 CRYSTAL FAMILY                       :  TRICLINIC   
 CRYSTAL CLASS  (GROTH - 1921)        :  TRICLINIC PEDIAL                     

 SPACE GROUP (NONCENTROSYMMETRIC)     :  P 1             

 LATTICE PARAMETERS  (ANGSTROMS AND DEGREES) - CONVENTIONAL CELL
        A           B           C        ALPHA        BETA       GAMMA
    15.02361    15.02392     4.51221    78.93445    89.99994   119.99596


 NUMBER OF IRREDUCIBLE ATOMS IN THE CONVENTIONAL CELL:   42

 INPUT COORDINATES

 ATOM AT. N.              COORDINATES
   1   5     5.944272100000E-01  1.888076500000E-01  5.010849400000E-01
   2   5     7.534828700000E-01  3.478673100000E-01  5.010849500000E-01
   3   5     5.945106500000E-01  3.480255300000E-01  4.988024200000E-01
   4   5     2.080019200000E-01  5.751226500000E-01  5.010849500000E-01
   5   5     3.671098900000E-01  5.751018800000E-01  5.010849400000E-01
   6   5     3.671778800000E-01  7.344165100000E-01  4.988024200000E-01
   7   1     8.839721200000E-01  2.707831700000E-01  4.963527900000E-01
   8   1     7.759083000000E-02  6.529621700000E-01  4.956291600000E-01
   9   1     8.839320000000E-01  5.559897200000E-01  4.955177900000E-01
  10   1     7.769569000000E-02  3.676001000000E-01  4.955455700000E-01
  11   1     6.716806700000E-01  5.829673000000E-02  5.036458900000E-01
  12   1     2.895501900000E-01  8.646743100000E-01  5.043695700000E-01
  13   1     3.864861800000E-01  5.827841000000E-02  5.044810100000E-01
  14   1     5.749294700000E-01  8.645779000000E-01  5.044530400000E-01
  15   1     6.720012400000E-01  5.559073300000E-01  4.963528300000E-01
  16   1     2.899181400000E-01  3.675180700000E-01  4.956291100000E-01
  17   1     3.868011600000E-01  2.707405500000E-01  4.955177000000E-01
  18   1     5.752503900000E-01  6.528730800000E-01  4.955456600000E-01
  19   6     8.727279000000E-01  4.076149600000E-01  4.987189000000E-01
  20   6     9.274133300000E-01  3.546301900000E-01  4.964641500000E-01
  21   6     3.431982000000E-02  5.690448300000E-01  4.962693700000E-01
  22   6     9.273613500000E-01  5.155068000000E-01  4.968539200000E-01
  23   6     3.439334000000E-02  4.081801000000E-01  4.953507200000E-01
  24   6     8.894407000000E-02  5.158481000000E-01  4.968817300000E-01
  25   6     5.347786100000E-01  6.964292000000E-02  5.012798100000E-01
  26   6     5.878304000000E-01  1.485711000000E-02  5.035345200000E-01
  27   6     3.734437400000E-01  9.079493600000E-01  5.037293700000E-01
  28   6     4.269551100000E-01  1.493398000000E-02  5.031448400000E-01
  29   6     5.343266200000E-01  9.078391600000E-01  5.046479300000E-01
  30   6     4.265965100000E-01  8.533253200000E-01  5.031169700000E-01
  31   6     5.348824600000E-01  4.075458200000E-01  4.987189000000E-01
  32   6     5.881344400000E-01  5.154703400000E-01  4.964642000000E-01
  33   6     3.737550800000E-01  4.080315700000E-01  4.962693200000E-01
  34   6     4.271965100000E-01  3.545046000000E-01  4.968538600000E-01
  35   6     5.347099600000E-01  5.690281300000E-01  4.953507800000E-01
  36   6     4.268681600000E-01  5.157707000000E-01  4.968817300000E-01
  37   8     5.415475300000E-01  2.419884200000E-01  4.994148000000E-01
  38   8     7.003075200000E-01  2.416260200000E-01  5.042304000000E-01
  39   8     7.005843900000E-01  4.011295100000E-01  4.969652600000E-01
  40   8     2.611353600000E-01  6.812689000000E-01  4.994148200000E-01
  41   8     2.609697900000E-01  5.219433000000E-01  5.042303900000E-01
  42   8     4.201688100000E-01  6.814414700000E-01  4.969652400000E-01

 *******************************************************************************

 << INFORMATION >>: FROM NOW ON, ALL COORDINATES REFER TO THE PRIMITIVE CELL

 *******************************************************************************

 LATTICE PARAMETERS  (ANGSTROMS AND DEGREES) - PRIMITIVE CELL
       A          B          C        ALPHA      BETA     GAMMA        VOLUME
   15.02361   15.02392    4.51221    78.93445  89.99994 119.99596    860.120032

 COORDINATES OF THE EQUIVALENT ATOMS (FRACTIONAL UNITS)

 N. ATOM EQUIV AT. N.          X                  Y                  Z

   1   1   1    5 B    -4.05572790000E-01  1.88807650000E-01 -4.98915060000E-01

   2   2   1    5 B    -2.46517130000E-01  3.47867310000E-01 -4.98915050000E-01

   3   3   1    5 B    -4.05489350000E-01  3.48025530000E-01  4.98802420000E-01

   4   4   1    5 B     2.08001920000E-01 -4.24877350000E-01 -4.98915050000E-01

   5   5   1    5 B     3.67109890000E-01 -4.24898120000E-01 -4.98915060000E-01

   6   6   1    5 B     3.67177880000E-01 -2.65583490000E-01  4.98802420000E-01

   7   7   1    1 H    -1.16027880000E-01  2.70783170000E-01  4.96352790000E-01

   8   8   1    1 H     7.75908300000E-02 -3.47037830000E-01  4.95629160000E-01

   9   9   1    1 H    -1.16068000000E-01 -4.44010280000E-01  4.95517790000E-01

  10  10   1    1 H     7.76956900000E-02  3.67600100000E-01  4.95545570000E-01

  11  11   1    1 H    -3.28319330000E-01  5.82967300000E-02 -4.96354110000E-01

  12  12   1    1 H     2.89550190000E-01 -1.35325690000E-01 -4.95630430000E-01

  13  13   1    1 H     3.86486180000E-01  5.82784100000E-02 -4.95518990000E-01

  14  14   1    1 H    -4.25070530000E-01 -1.35422100000E-01 -4.95546960000E-01

  15  15   1    1 H    -3.27998760000E-01 -4.44092670000E-01  4.96352830000E-01

  16  16   1    1 H     2.89918140000E-01  3.67518070000E-01  4.95629110000E-01

  17  17   1    1 H     3.86801160000E-01  2.70740550000E-01  4.95517700000E-01

  18  18   1    1 H    -4.24749610000E-01 -3.47126920000E-01  4.95545660000E-01

  19  19   1    6 C    -1.27272100000E-01  4.07614960000E-01  4.98718900000E-01

  20  20   1    6 C    -7.25866700000E-02  3.54630190000E-01  4.96464150000E-01

  21  21   1    6 C     3.43198200000E-02 -4.30955170000E-01  4.96269370000E-01

  22  22   1    6 C    -7.26386500000E-02 -4.84493200000E-01  4.96853920000E-01

  23  23   1    6 C     3.43933400000E-02  4.08180100000E-01  4.95350720000E-01

  24  24   1    6 C     8.89440700000E-02 -4.84151900000E-01  4.96881730000E-01

  25  25   1    6 C    -4.65221390000E-01  6.96429200000E-02 -4.98720190000E-01

  26  26   1    6 C    -4.12169600000E-01  1.48571100000E-02 -4.96465480000E-01

  27  27   1    6 C     3.73443740000E-01 -9.20506400000E-02 -4.96270630000E-01

  28  28   1    6 C     4.26955110000E-01  1.49339800000E-02 -4.96855160000E-01

  29  29   1    6 C    -4.65673380000E-01 -9.21608400000E-02 -4.95352070000E-01

  30  30   1    6 C     4.26596510000E-01 -1.46674680000E-01 -4.96883030000E-01

  31  31   1    6 C    -4.65117540000E-01  4.07545820000E-01  4.98718900000E-01

  32  32   1    6 C    -4.11865560000E-01 -4.84529660000E-01  4.96464200000E-01

  33  33   1    6 C     3.73755080000E-01  4.08031570000E-01  4.96269320000E-01

  34  34   1    6 C     4.27196510000E-01  3.54504600000E-01  4.96853860000E-01

  35  35   1    6 C    -4.65290040000E-01 -4.30971870000E-01  4.95350780000E-01

  36  36   1    6 C     4.26868160000E-01 -4.84229300000E-01  4.96881730000E-01

  37  37   1    8 O    -4.58452470000E-01  2.41988420000E-01  4.99414800000E-01

  38  38   1    8 O    -2.99692480000E-01  2.41626020000E-01 -4.95769600000E-01

  39  39   1    8 O    -2.99415610000E-01  4.01129510000E-01  4.96965260000E-01

  40  40   1    8 O     2.61135360000E-01 -3.18731100000E-01  4.99414820000E-01

  41  41   1    8 O     2.60969790000E-01 -4.78056700000E-01 -4.95769610000E-01

  42  42   1    8 O     4.20168810000E-01 -3.18558530000E-01  4.96965240000E-01

 NUMBER OF SYMMETRY OPERATORS         :    1
 *******************************************************************************
 * GEOMETRY EDITING - INPUT COORDINATES ARE GIVEN IN ANGSTROM         
 *******************************************************************************

 GCALCO - MAX INDICES DIRECT LATTICE VECTOR    10    10    31
 NO.OF VECTORS CREATED 6999 STARS 3500 RMAX   213.10062 BOHR

 GEOMETRY FOR WAVE FUNCTION - DIMENSIONALITY OF THE SYSTEM    3
 (NON PERIODIC DIRECTION: LATTICE PARAMETER FORMALLY SET TO 500)
 *******************************************************************************
 LATTICE PARAMETERS (ANGSTROMS AND DEGREES) - BOHR = 0.5291772083 ANGSTROM
 PRIMITIVE CELL - CENTRING CODE 1/0 VOLUME=   860.120032 - DENSITY  0.753 g/cm^3
         A              B              C           ALPHA      BETA       GAMMA 
    15.02361100    15.02391600     4.51220600    78.934455  89.999945 119.995964
 *******************************************************************************
 ATOMS IN THE ASYMMETRIC UNIT   42 - ATOMS IN THE UNIT CELL:   42
     ATOM                 X/A                 Y/B                 Z/C    
 *******************************************************************************
      1 T   5 B    -4.055727900000E-01  1.888076500000E-01 -4.989150600000E-01
      2 T   5 B    -2.465171300000E-01  3.478673100000E-01 -4.989150500000E-01
      3 T   5 B    -4.054893500000E-01  3.480255300000E-01  4.988024200000E-01
      4 T   5 B     2.080019200000E-01 -4.248773500000E-01 -4.989150500000E-01
      5 T   5 B     3.671098900000E-01 -4.248981200000E-01 -4.989150600000E-01
      6 T   5 B     3.671778800000E-01 -2.655834900000E-01  4.988024200000E-01
      7 T   1 H    -1.160278800000E-01  2.707831700000E-01  4.963527900000E-01
      8 T   1 H     7.759083000000E-02 -3.470378300000E-01  4.956291600000E-01
      9 T   1 H    -1.160680000000E-01 -4.440102800000E-01  4.955177900000E-01
     10 T   1 H     7.769569000000E-02  3.676001000000E-01  4.955455700000E-01
     11 T   1 H    -3.283193300000E-01  5.829673000000E-02 -4.963541100000E-01
     12 T   1 H     2.895501900000E-01 -1.353256900000E-01 -4.956304300000E-01
     13 T   1 H     3.864861800000E-01  5.827841000000E-02 -4.955189900000E-01
     14 T   1 H    -4.250705300000E-01 -1.354221000000E-01 -4.955469600000E-01
     15 T   1 H    -3.279987600000E-01 -4.440926700000E-01  4.963528300000E-01
     16 T   1 H     2.899181400000E-01  3.675180700000E-01  4.956291100000E-01
     17 T   1 H     3.868011600000E-01  2.707405500000E-01  4.955177000000E-01
     18 T   1 H    -4.247496100000E-01 -3.471269200000E-01  4.955456600000E-01
     19 T   6 C    -1.272721000000E-01  4.076149600000E-01  4.987189000000E-01
     20 T   6 C    -7.258667000000E-02  3.546301900000E-01  4.964641500000E-01
     21 T   6 C     3.431982000000E-02 -4.309551700000E-01  4.962693700000E-01
     22 T   6 C    -7.263865000000E-02 -4.844932000000E-01  4.968539200000E-01
     23 T   6 C     3.439334000000E-02  4.081801000000E-01  4.953507200000E-01
     24 T   6 C     8.894407000000E-02 -4.841519000000E-01  4.968817300000E-01
     25 T   6 C    -4.652213900000E-01  6.964292000000E-02 -4.987201900000E-01
     26 T   6 C    -4.121696000000E-01  1.485711000000E-02 -4.964654800000E-01
     27 T   6 C     3.734437400000E-01 -9.205064000000E-02 -4.962706300000E-01
     28 T   6 C     4.269551100000E-01  1.493398000000E-02 -4.968551600000E-01
     29 T   6 C    -4.656733800000E-01 -9.216084000000E-02 -4.953520700000E-01
     30 T   6 C     4.265965100000E-01 -1.466746800000E-01 -4.968830300000E-01
     31 T   6 C    -4.651175400000E-01  4.075458200000E-01  4.987189000000E-01
     32 T   6 C    -4.118655600000E-01 -4.845296600000E-01  4.964642000000E-01
     33 T   6 C     3.737550800000E-01  4.080315700000E-01  4.962693200000E-01
     34 T   6 C     4.271965100000E-01  3.545046000000E-01  4.968538600000E-01
     35 T   6 C    -4.652900400000E-01 -4.309718700000E-01  4.953507800000E-01
     36 T   6 C     4.268681600000E-01 -4.842293000000E-01  4.968817300000E-01
     37 T   8 O    -4.584524700000E-01  2.419884200000E-01  4.994148000000E-01
     38 T   8 O    -2.996924800000E-01  2.416260200000E-01 -4.957696000000E-01
     39 T   8 O    -2.994156100000E-01  4.011295100000E-01  4.969652600000E-01
     40 T   8 O     2.611353600000E-01 -3.187311000000E-01  4.994148200000E-01
     41 T   8 O     2.609697900000E-01 -4.780567000000E-01 -4.957696100000E-01
     42 T   8 O     4.201688100000E-01 -3.185585300000E-01  4.969652400000E-01

 T = ATOM BELONGING TO THE ASYMMETRIC UNIT

 ****    1 SYMMOPS - TRANSLATORS IN FRACTIONAL UNITS
 **** MATRICES AND TRANSLATORS IN THE CRYSTALLOGRAPHIC REFERENCE FRAME
   V INV                    ROTATION MATRICES                   TRANSLATORS
   1   1  1.00  0.00  0.00  0.00  1.00  0.00  0.00 -0.00  1.00  0.00  0.00  0.00

 DIRECT LATTICE VECTORS CARTESIAN COMPONENTS (ANGSTROM)
          X                    Y                    Z
   0.130113578931E+02  -0.751088897922E+01   0.000000000000E+00
   0.000000000000E+00   0.150239160000E+02   0.000000000000E+00
   0.499929751969E+00   0.866035947127E+00   0.440000624634E+01


 CARTESIAN COORDINATES - PRIMITIVE CELL
 *******************************************************************************
 *      ATOM          X(ANGSTROM)         Y(ANGSTROM)         Z(ANGSTROM)
 *******************************************************************************
    1     5 B    -5.526475204575E+00  5.450764095916E+00 -2.195229380392E+00
    2     5 B    -3.456945082399E+00  6.645813671629E+00 -2.195229336392E+00
    3     5 B     7.484827256527E+00  3.293477185707E-01 -2.205272482650E+00
    4     5 B     2.456964946363E+00  6.646236686851E+00 -2.195229336392E+00
    5     5 B     4.527175682671E+00  5.450882333077E+00 -2.195229380392E+00
    6     5 B     5.026848977206E+00 -6.315955510817E+00  2.194733763689E+00
    7     1 H    -1.761468497028E+00  4.503519536937E+00 -2.216050869951E+00
    8     1 H     1.257341821377E+00 -5.367410647673E+00  2.180771399867E+00
    9     1 H    -1.262478202081E+00 -5.369863069236E+00  2.180281371172E+00
   10     1 H     7.587346512686E-01  4.502353652171E+00 -2.219602642993E+00
   11     1 H    -4.520022492939E+00  2.911954710191E+00 -2.183961184396E+00
   12     1 H     4.019590504123E+00 -3.771098951946E+00  2.219229258463E+00
   13     1 H     4.780985322934E+00 -2.456422111352E+00 -2.180286651179E+00
   14     1 H    -5.278553712454E+00  1.594961770500E+00  2.219596526984E+00
   15     1 H    -4.019567707648E+00 -3.778589305377E+00  2.183955552388E+00
   16     1 H     3.520078665291E+00  2.907214328137E+00 -2.219235066471E+00
   17     1 H     4.780602615098E+00  7.254629047125E-01 -2.219725271167E+00
   18     1 H    -5.278831171753E+00 -1.595798167741E+00  2.180403999346E+00
   19     6 C    -1.906588178890E+00  6.645772080420E+00 -2.205639971171E+00
   20     6 C    -1.196183694233E+00  5.437044458598E+00 -2.215560885255E+00
   21     6 C     6.946472838990E-01 -6.302619517774E+00  2.183588327866E+00
   22     6 C    -6.967354150282E-01 -6.303110948430E+00  2.186160351518E+00
   23     6 C     1.952148664960E-01  5.437094559736E+00 -2.220459984210E+00
   24     6 C     9.057593353031E-01  6.646290980554E+00 -2.213723530647E+00
   25     6 C     6.708870827373E+00 -3.402263000193E+00 -2.194371951175E+00
   26     6 C    -5.611084042515E+00  2.889015126663E+00 -2.184451213091E+00
   27     6 C     5.110839453065E+00 -3.751607812186E+00  2.216412374464E+00
   28     6 C     5.306873063576E+00 -3.412739998329E+00 -2.186165807525E+00
   29     6 C    -5.806754493973E+00  2.550047587130E+00  2.220454044202E+00
   30     6 C     5.802123009562E+00 -4.972029715549E+00  2.213717810639E+00
   31     6 C     6.708941781789E+00  1.671363939626E+00 -2.205639971171E+00
   32     6 C    -5.110732980617E+00 -3.756100572164E+00  2.184445581083E+00
   33     6 C     4.611231156317E+00  2.886750245179E+00 -2.216418138472E+00
   34     6 C     5.306868957301E+00  1.681679129197E+00 -2.213846158821E+00
   35     6 C    -5.806414641932E+00 -2.551151757750E+00  2.179546526129E+00
   36     6 C     5.302610610979E+00  4.107017806063E+00 -2.213723530647E+00
   37     8 O     6.796011294056E+00 -8.654144575458E-01 -2.202578006825E+00
   38     8 O    -4.147256088299E+00  5.451771677988E+00 -2.181389336745E+00
   39     8 O    -3.647355941309E+00 -6.318112751651E+00  2.186650248213E+00
   40     8 O     3.647397954584E+00 -6.317436783848E+00  2.197428327514E+00
   41     8 O     3.147721358805E+00  5.452162872590E+00 -2.181389380745E+00
   42     8 O    -7.295943421477E+00 -5.591387140613E-04  2.186650160213E+00

 *******************************************************************************
 STARTING BASIS SET HANDLING 
 *******************************************************************************

 Loading internal basis set: SOLDEF2MSVP         

 Please cite in your publication:
 L. Dona', J. G. Brandenburg and B. Civalleri, J. Chem. Phys., 151, 121101 (2019
 )                                                                              
                                                                                
                    

 *******************************************************************************
 LOCAL ATOMIC FUNCTIONS BASIS SET
 *******************************************************************************
   ATOM   X(AU)   Y(AU)   Z(AU)  N. TYPE  EXPONENT  S COEF   P COEF   D/F/G COEF
 *******************************************************************************
   1 B  -10.444  10.300  -4.148
                                  1 S  
                                         2.410E+03 1.755E-03 0.000E+00 0.000E+00
                                         3.619E+02 1.344E-02 0.000E+00 0.000E+00
                                         8.231E+01 6.637E-02 0.000E+00 0.000E+00
                                         2.311E+01 2.303E-01 0.000E+00 0.000E+00
                                         7.252E+00 5.150E-01 0.000E+00 0.000E+00
                                  2 S  
                                         2.367E+00 1.000E+00 0.000E+00 0.000E+00
                                  3 S  
                                         5.533E-01 1.000E+00 0.000E+00 0.000E+00
                                  4 S  
                                         1.716E-01 1.000E+00 0.000E+00 0.000E+00
                           5-     7 P  
                                         6.002E+00 0.000E+00-3.555E-02 0.000E+00
                                         1.240E+00 0.000E+00-1.983E-01 0.000E+00
                                         3.367E-01 0.000E+00-5.048E-01 0.000E+00
                           8-    10 P  
                                         1.256E-01 0.000E+00 1.000E+00 0.000E+00
                          11-    15 D  
                                         8.880E-01 0.000E+00 0.000E+00 1.000E+00
   2 B   -6.533  12.559  -4.148
   3 B   14.144   0.622  -4.167
   4 B    4.643  12.560  -4.148
   5 B    8.555  10.301  -4.148
   6 B    9.499 -11.935   4.147
   7 H   -3.329   8.510  -4.188
                                 91 S  
                                         1.874E+01 1.968E-02 0.000E+00 0.000E+00
                                         2.826E+00 1.380E-01 0.000E+00 0.000E+00
                                         6.401E-01 4.783E-01 0.000E+00 0.000E+00
                                 92 S  
                                         1.756E-01 1.000E+00 0.000E+00 0.000E+00
   8 H    2.376 -10.143   4.121
   9 H   -2.386 -10.148   4.120
  10 H    1.434   8.508  -4.194
  11 H   -8.542   5.503  -4.127
  12 H    7.596  -7.126   4.194
  13 H    9.035  -4.642  -4.120
  14 H   -9.975   3.014   4.194
  15 H   -7.596  -7.140   4.127
  16 H    6.652   5.494  -4.194
  17 H    9.034   1.371  -4.195
  18 H   -9.976  -3.016   4.120
  19 C   -3.603  12.559  -4.168
                                115 S  
                                         3.624E+03 1.634E-03 0.000E+00 0.000E+00
                                         5.440E+02 1.252E-02 0.000E+00 0.000E+00
                                         1.237E+02 6.211E-02 0.000E+00 0.000E+00
                                         3.476E+01 2.182E-01 0.000E+00 0.000E+00
                                         1.093E+01 4.980E-01 0.000E+00 0.000E+00
                                116 S  
                                         3.574E+00 1.000E+00 0.000E+00 0.000E+00
                                117 S  
                                         7.742E-01 1.000E+00 0.000E+00 0.000E+00
                                118 S  
                                         2.330E-01 1.000E+00 0.000E+00 0.000E+00
                         119-   121 P  
                                         9.443E+00 0.000E+00 3.790E-02 0.000E+00
                                         2.002E+00 0.000E+00 2.082E-01 0.000E+00
                                         5.463E-01 0.000E+00 5.047E-01 0.000E+00
                         122-   124 P  
                                         1.820E-01 0.000E+00 1.000E+00 0.000E+00
                         125-   129 D  
                                         8.880E-01 0.000E+00 0.000E+00 1.000E+00
  20 C   -2.260  10.275  -4.187
  21 C    1.313 -11.910   4.126
  22 C   -1.317 -11.911   4.131
  23 C    0.369  10.275  -4.196
  24 C    1.712  12.560  -4.183
  25 C   12.678  -6.429  -4.147
  26 C  -10.603   5.459  -4.128
  27 C    9.658  -7.090   4.188
  28 C   10.029  -6.449  -4.131
  29 C  -10.973   4.819   4.196
  30 C   10.964  -9.396   4.183
  31 C   12.678   3.158  -4.168
  32 C   -9.658  -7.098   4.128
  33 C    8.714   5.455  -4.188
  34 C   10.029   3.178  -4.184
  35 C  -10.973  -4.821   4.119
  36 C   10.020   7.761  -4.183
  37 O   12.843  -1.635  -4.162
                                385 S  
                                         6.773E+03 1.727E-03 0.000E+00 0.000E+00
                                         1.017E+03 1.325E-02 0.000E+00 0.000E+00
                                         2.313E+02 6.603E-02 0.000E+00 0.000E+00
                                         6.501E+01 2.353E-01 0.000E+00 0.000E+00
                                         2.050E+01 5.498E-01 0.000E+00 0.000E+00
                                386 S  
                                         6.716E+00 1.000E+00 0.000E+00 0.000E+00
                                387 S  
                                         1.147E+00 1.000E+00 0.000E+00 0.000E+00
                                388 S  
                                         3.342E-01 1.000E+00 0.000E+00 0.000E+00
                         389-   391 P  
                                         1.769E+01 0.000E+00 4.359E-02 0.000E+00
                                         3.854E+00 0.000E+00 2.318E-01 0.000E+00
                                         1.047E+00 0.000E+00 5.146E-01 0.000E+00
                         392-   394 P  
                                         2.759E-01 0.000E+00 1.000E+00 0.000E+00
                         395-   399 D  
                                         8.000E-01 0.000E+00 0.000E+00 1.000E+00
  38 O   -7.837  10.302  -4.122
  39 O   -6.893 -11.940   4.132
  40 O    6.893 -11.938   4.153
  41 O    5.948  10.303  -4.122
  42 O  -13.787  -0.001   4.132

 *******************************************************************************
 FINISHED BASIS SET HANDLING 
 *******************************************************************************

 INFORMATION **** SET_MPP **** PCRYSTAL CALCULATION
 INFORMATION **** READM2 **** NEW DEFAULT: FOCK/KS MATRIX MIXING SET TO 30 %
 INFORMATION **** READM2 **** NEW DEFAULT: FULL DIRECT SCF MODE
 INFORMATION **** READM2 **** NEW DEFAULT: COULOMB BIPOLAR BUFFER SET TO 32 Mb
 INFORMATION **** READM2 **** NEW DEFAULT: EXCHANGE BIPOLAR BUFFER SET TO 32 Mb

 *******************************************************************************
 NEW DEFAULT: DFT INTEGRATION GRID INCREASED TO XLGRID
 NEW DEFAULT: DIIS ACCELERATOR ACTIVE
 USE KEYWORD NODIIS TO TURN IT OFF
 *******************************************************************************

 WARNING **** RDDFTP **** HSEsol-HJS ACTIVE
 RANGE SEPARATION - OMEGA:   0.110000000000000     
 WARNING **** RDDFTP **** HSEsol-3c has to be combined with sol-def2-mSVP basis set
 *******************************************************************************
 N. OF ATOMS PER CELL        42  COULOMB OVERLAP TOL         (T1) 10**   -6
 NUMBER OF SHELLS           234  COULOMB PENETRATION TOL     (T2) 10**   -6
 NUMBER OF AO               474  EXCHANGE OVERLAP TOL        (T3) 10**   -6
 N. OF ELECTRONS PER CELL   198  EXCHANGE PSEUDO OVP (F(G))  (T4) 10**   -6
 CORE ELECTRONS PER CELL     60  EXCHANGE PSEUDO OVP (P(G))  (T5) 10**  -12
 N. OF SYMMETRY OPERATORS     1  POLE ORDER IN MONO ZONE                  4
 *******************************************************************************
 TYPE OF CALCULATION :  RESTRICTED CLOSED SHELL
 KOHN-SHAM HAMILTONIAN

 (EXCHANGE)[CORRELATION] FUNCTIONAL:(HSEsol GGA)[PBEsol]

 RANGE-SEPARATED HYBRID FUNCTIONAL 
 OMEGA (SHORT-RANGE)[LONG-RANGE]:(    0.1100)[    0.0000]

 HYBRID EXCHANGE - PERCENTAGE OF FOCK EXCHANGE    25.0000

 CAPPA:IS1  2;IS2  2;IS3  8; K PTS MONK NET  20; SYMMOPS:K SPACE   2;G SPACE   1

 *******************************************************************************
 MAX NUMBER OF SCF CYCLES      50  CONVERGENCE ON DELTAP        10**-16
 WEIGHT OF F(I) IN F(I+1)      30% CONVERGENCE ON ENERGY        10**- 6
 SHRINK. FACT.(MONKH.)    2  2  8  NUMBER OF K POINTS IN THE IBZ     20
 SHRINKING FACTOR(GILAT NET)    8  NUMBER OF K POINTS(GILAT NET)   1028
 *******************************************************************************
 *** K POINTS COORDINATES (OBLIQUE COORDINATES IN UNITS OF IS =  2)
   1-R(  0  0  0)   2-R(  1  0  0)   3-R(  0  1  0)   4-R(  1  1  0)
   5-C(  0  0  1)   6-C(  1  0  1)   7-C(  0  1  1)   8-C(  1  1  1)
   9-C(  0  0  2)  10-C(  1  0  2)  11-C(  0  1  2)  12-C(  1  1  2)
  13-C(  0  0  3)  14-C(  1  0  3)  15-C(  0  1  3)  16-C(  1  1  3)
  17-R(  0  0  4)  18-R(  1  0  4)  19-R(  0  1  4)  20-R(  1  1  4)

 DIRECT LATTICE VECTORS COMPON. (A.U.)     RECIP. LATTICE VECTORS COMPON. (A.U.) 
        X            Y            Z              X            Y            Z
   24.5879030  -14.1935232    0.0000000      0.2555397    0.0000000   -0.0290345
    0.0000000   28.3910867    0.0000000      0.1277517    0.2213084   -0.0580744
    0.9447303    1.6365708    8.3148068      0.0000000    0.0000000    0.7556622

 DISK SPACE FOR EIGENVECTORS (FTN 10)     7189632 REALS

 SYMMETRY ADAPTION OF THE BLOCH FUNCTIONS DISABLED
 TTTTTTTTTTTTTTTTTTTTTTTTTTTTTT gordsh1     TELAPSE        0.04 TCPU        0.04

 MATRIX SIZE: P(G)  302098, F(G)   63238, P(G) IRR  152546, F(G) IRR   63934
 MAX G-VECTOR INDEX FOR 1- AND 2-ELECTRON INTEGRALS  87

 TTTTTTTTTTTTTTTTTTTTTTTTTTTTTT INPUT       TELAPSE        0.30 TCPU        0.29

 NEIGHBORS OF THE NON-EQUIVALENT ATOMS

 N = NUMBER OF NEIGHBORS AT DISTANCE R
    ATOM  N     R/ANG      R/AU   NEIGHBORS (ATOM LABELS AND CELL INDICES)
   1 B    1     1.3791     2.6061   37 O   -1 0 0
   1 B    1     1.3793     2.6065   38 O    0 0 0
   1 B    1     1.5503     2.9297   25 C   -1 0 0
   1 B    1     2.3895     4.5155    3 B   -1 0 0
   1 B    1     2.3898     4.5160    2 B    0 0 0
   1 B    1     2.5632     4.8437   26 C    0 0 0

   2 B    1     1.3793     2.6065   39 O    0 1-1
   2 B    1     1.3793     2.6065   38 O    0 0 0
   2 B    1     1.5504     2.9298   19 C    0 0 0
   2 B    1     2.3895     4.5156    3 B   -1 0 0
   2 B    1     2.3898     4.5160    1 B    0 0 0
   2 B    1     2.5634     4.8440   22 C    0 1-1

   3 B    1     1.3791     2.6061   37 O    0 0 0
   3 B    1     1.3793     2.6064   39 O    1 1-1
   3 B    1     1.5502     2.9294   31 C    0 0 0
   3 B    1     2.3895     4.5155    1 B    1 0 0
   3 B    1     2.3895     4.5156    2 B    1 0 0
   3 B    1     2.5629     4.8433   32 C    1 1-1

   4 B    1     1.3795     2.6068   40 O    0 1-1
   4 B    1     1.3795     2.6070   41 O    0 0 0
   4 B    1     1.5513     2.9316   24 C    0 0 0
   4 B    1     2.3905     4.5174    6 B    0 1-1
   4 B    1     2.3905     4.5175    5 B    0 0 0
   4 B    1     2.5648     4.8468   23 C    0 0 0

   5 B    1     1.3795     2.6069   41 O    0 0 0
   5 B    1     1.3797     2.6072   42 O    1 1-1
   5 B    1     1.5516     2.9322   36 C    0 0 0
   5 B    1     2.3905     4.5175    4 B    0 0 0
   5 B    1     2.3911     4.5185    6 B    0 1-1
   5 B    1     2.5651     4.8473   35 C    1 1-1

   6 B    1     1.3795     2.6068   40 O    0 0 0
   6 B    1     1.3796     2.6071   42 O    1 0 0
   6 B    1     1.5516     2.9322   30 C    0 0 0
   6 B    1     2.3905     4.5174    4 B    0-1 1
   6 B    1     2.3911     4.5185    5 B    0-1 1
   6 B    1     2.5651     4.8473   29 C    1 0 0

   7 H    1     1.0913     2.0623   20 C    0 0 0
   7 H    1     2.1472     4.0576   19 C    0 0 0
   7 H    1     2.1680     4.0969   23 C    0 0 0
   7 H    1     2.5202     4.7625   10 H    0 0 0
   7 H    1     2.5676     4.8520   38 O    0 0 0
   7 H    1     2.7321     5.1630    2 B    0 0 0

   8 H    1     1.0914     2.0625   21 C    0 0 0
   8 H    1     2.1493     4.0616   24 C    0-1 1
   8 H    1     2.1666     4.0942   22 C    0 0 0
   8 H    1     2.5198     4.7618    9 H    0 0 0
   8 H    1     2.5720     4.8604   40 O    0 0 0
   8 H    1     2.7362     5.1707    4 B    0-1 1

   9 H    1     1.0914     2.0624   22 C    0 0 0
   9 H    1     2.1471     4.0575   19 C    0-1 1
   9 H    1     2.1680     4.0970   21 C    0 0 0
   9 H    1     2.5198     4.7618    8 H    0 0 0
   9 H    1     2.5665     4.8500   39 O    0 0 0
   9 H    1     2.7315     5.1618    2 B    0-1 1

  10 H    1     1.0915     2.0626   23 C    0 0 0
  10 H    1     2.1490     4.0610   24 C    0 0 0
  10 H    1     2.1669     4.0948   20 C    0 0 0
  10 H    1     2.5202     4.7625    7 H    0 0 0
  10 H    1     2.5712     4.8588   41 O    0 0 0
  10 H    1     2.7351     5.1686    4 B    0 0 0

  11 H    1     1.0913     2.0623   26 C    0 0 0
  11 H    1     2.1469     4.0571   25 C   -1 0 0
  11 H    1     2.1680     4.0968   29 C    0 0-1
  11 H    1     2.5198     4.7617   14 H    0 0-1
  11 H    1     2.5670     4.8510   38 O    0 0 0
  11 H    1     2.7310     5.1609    1 B    0 0 0

  12 H    1     1.0914     2.0625   27 C    0 0 0
  12 H    1     2.1493     4.0617   30 C    0 0 0
  12 H    1     2.1664     4.0939   28 C    0 0 1
  12 H    1     2.5192     4.7606   13 H    0 0 1
  12 H    1     2.5735     4.8632   40 O    0 0 0
  12 H    1     2.7371     5.1723    6 B    0 0 0

  13 H    1     1.0914     2.0624   28 C    0 0 0
  13 H    1     2.1475     4.0581   25 C    0 0 0
  13 H    1     2.1679     4.0967   27 C    0 0-1
  13 H    1     2.5192     4.7606   12 H    0 0-1
  13 H    1     2.5675     4.8519   37 O    0 0 0
  13 H    1     2.7328     5.1643    1 B    1 0 0

  14 H    1     1.0914     2.0625   29 C    0 0 0
  14 H    1     2.1491     4.0612   30 C   -1 0 0
  14 H    1     2.1666     4.0942   26 C    0 0 1
  14 H    1     2.5198     4.7617   11 H    0 0 1
  14 H    1     2.5723     4.8609   42 O    0 0 0
  14 H    1     2.7355     5.1693    6 B   -1 0 0

  15 H    1     1.0914     2.0624   32 C    0 0 0
  15 H    1     2.1475     4.0582   31 C   -1-1 1
  15 H    1     2.1678     4.0966   35 C    0 0 0
  15 H    1     2.5200     4.7621   18 H    0 0 0
  15 H    1     2.5667     4.8503   39 O    0 0 0
  15 H    1     2.7315     5.1618    3 B   -1-1 1

  16 H    1     1.0913     2.0623   33 C    0 0 0
  16 H    1     2.1487     4.0605   36 C    0 0 0
  16 H    1     2.1667     4.0945   34 C    0 0 0
  16 H    1     2.5197     4.7616   17 H    0 0 0
  16 H    1     2.5723     4.8610   41 O    0 0 0
  16 H    1     2.7359     5.1701    5 B    0 0 0

  17 H    1     1.0915     2.0626   34 C    0 0 0
  17 H    1     2.1479     4.0589   31 C    0 0 0
  17 H    1     2.1679     4.0968   33 C    0 0 0
  17 H    1     2.5197     4.7616   16 H    0 0 0
  17 H    1     2.5677     4.8522   37 O    0 0 0
  17 H    1     2.7331     5.1648    3 B    0 0 0

  18 H    1     1.0914     2.0624   35 C    0 0 0
  18 H    1     2.1486     4.0602   36 C   -1-1 1
  18 H    1     2.1668     4.0947   32 C    0 0 0
  18 H    1     2.5200     4.7621   15 H    0 0 0
  18 H    1     2.5717     4.8598   42 O    0 0 0
  18 H    1     2.7349     5.1682    5 B   -1-1 1

  19 C    1     1.4020     2.6495   22 C    0 1-1
  19 C    1     1.4021     2.6495   20 C    0 0 0
  19 C    1     1.5504     2.9298    2 B    0 0 0
  19 C    1     2.1471     4.0575    9 H    0 1-1
  19 C    1     2.1472     4.0576    7 H    0 0 0
  19 C    1     2.4246     4.5817   21 C    0 1-1

  20 C    1     1.0913     2.0623    7 H    0 0 0
  20 C    1     1.3914     2.6294   23 C    0 0 0
  20 C    1     1.4021     2.6495   19 C    0 0 0
  20 C    1     2.1669     4.0948   10 H    0 0 0
  20 C    1     2.4177     4.5688   22 C    0 1-1
  20 C    1     2.4250     4.5825   24 C    0 0 0

  21 C    1     1.0914     2.0625    8 H    0 0 0
  21 C    1     1.3914     2.6293   22 C    0 0 0
  21 C    1     1.4026     2.6505   24 C    0-1 1
  21 C    1     2.1680     4.0970    9 H    0 0 0
  21 C    1     2.4182     4.5697   23 C    0-1 1
  21 C    1     2.4246     4.5817   19 C    0-1 1

  22 C    1     1.0914     2.0624    9 H    0 0 0
  22 C    1     1.3914     2.6293   21 C    0 0 0
  22 C    1     1.4020     2.6495   19 C    0-1 1
  22 C    1     2.1666     4.0942    8 H    0 0 0
  22 C    1     2.4177     4.5688   20 C    0-1 1
  22 C    1     2.4250     4.5826   24 C    0-1 1

  23 C    1     1.0915     2.0626   10 H    0 0 0
  23 C    1     1.3914     2.6294   20 C    0 0 0
  23 C    1     1.4025     2.6504   24 C    0 0 0
  23 C    1     2.1680     4.0969    7 H    0 0 0
  23 C    1     2.4182     4.5697   21 C    0 1-1
  23 C    1     2.4246     4.5818   19 C    0 0 0

  24 C    1     1.4025     2.6504   23 C    0 0 0
  24 C    1     1.4026     2.6505   21 C    0 1-1
  24 C    1     1.5513     2.9316    4 B    0 0 0
  24 C    1     2.1490     4.0610   10 H    0 0 0
  24 C    1     2.1493     4.0616    8 H    0 1-1
  24 C    1     2.4250     4.5825   20 C    0 0 0

  25 C    1     1.4020     2.6494   26 C    1 0 0
  25 C    1     1.4021     2.6495   28 C    0 0 0
  25 C    1     1.5503     2.9297    1 B    1 0 0
  25 C    1     2.1469     4.0571   11 H    1 0 0
  25 C    1     2.1475     4.0581   13 H    0 0 0
  25 C    1     2.4246     4.5818   27 C    0 0-1

  26 C    1     1.0913     2.0623   11 H    0 0 0
  26 C    1     1.3914     2.6293   29 C    0 0-1
  26 C    1     1.4020     2.6494   25 C   -1 0 0
  26 C    1     2.1666     4.0942   14 H    0 0-1
  26 C    1     2.4175     4.5684   28 C   -1 0 0
  26 C    1     2.4251     4.5828   30 C   -1 0-1

  27 C    1     1.0914     2.0625   12 H    0 0 0
  27 C    1     1.3915     2.6295   28 C    0 0 1
  27 C    1     1.4026     2.6505   30 C    0 0 0
  27 C    1     2.1679     4.0967   13 H    0 0 1
  27 C    1     2.4179     4.5691   29 C    1 0 0
  27 C    1     2.4246     4.5818   25 C    0 0 1

  28 C    1     1.0914     2.0624   13 H    0 0 0
  28 C    1     1.3915     2.6295   27 C    0 0-1
  28 C    1     1.4021     2.6495   25 C    0 0 0
  28 C    1     2.1664     4.0939   12 H    0 0-1
  28 C    1     2.4175     4.5684   26 C    1 0 0
  28 C    1     2.4253     4.5832   30 C    0 0-1

  29 C    1     1.0914     2.0625   14 H    0 0 0
  29 C    1     1.3914     2.6293   26 C    0 0 1
  29 C    1     1.4025     2.6504   30 C   -1 0 0
  29 C    1     2.1680     4.0968   11 H    0 0 1
  29 C    1     2.4179     4.5691   27 C   -1 0 0
  29 C    1     2.4247     4.5819   25 C   -1 0 1

  30 C    1     1.4025     2.6504   29 C    1 0 0
  30 C    1     1.4026     2.6505   27 C    0 0 0
  30 C    1     1.5516     2.9322    6 B    0 0 0
  30 C    1     2.1491     4.0612   14 H    1 0 0
  30 C    1     2.1493     4.0617   12 H    0 0 0
  30 C    1     2.4251     4.5828   26 C    1 0 1

  31 C    1     1.4021     2.6496   32 C    1 1-1
  31 C    1     1.4021     2.6497   34 C    0 0 0
  31 C    1     1.5502     2.9294    3 B    0 0 0
  31 C    1     2.1475     4.0582   15 H    1 1-1
  31 C    1     2.1479     4.0589   17 H    0 0 0
  31 C    1     2.4244     4.5814   33 C    0 0 0

  32 C    1     1.0914     2.0624   15 H    0 0 0
  32 C    1     1.3914     2.6293   35 C    0 0 0
  32 C    1     1.4021     2.6496   31 C   -1-1 1
  32 C    1     2.1668     4.0947   18 H    0 0 0
  32 C    1     2.4179     4.5692   34 C   -1-1 1
  32 C    1     2.4251     4.5827   36 C   -1-1 1

  33 C    1     1.0913     2.0623   16 H    0 0 0
  33 C    1     1.3914     2.6294   34 C    0 0 0
  33 C    1     1.4025     2.6504   36 C    0 0 0
  33 C    1     2.1679     4.0968   17 H    0 0 0
  33 C    1     2.4178     4.5690   35 C    1 1-1
  33 C    1     2.4244     4.5814   31 C    0 0 0

  34 C    1     1.0915     2.0626   17 H    0 0 0
  34 C    1     1.3914     2.6294   33 C    0 0 0
  34 C    1     1.4021     2.6497   31 C    0 0 0
  34 C    1     2.1667     4.0945   16 H    0 0 0
  34 C    1     2.4179     4.5692   32 C    1 1-1
  34 C    1     2.4253     4.5832   36 C    0 0 0

  35 C    1     1.0914     2.0624   18 H    0 0 0
  35 C    1     1.3914     2.6293   32 C    0 0 0
  35 C    1     1.4025     2.6503   36 C   -1-1 1
  35 C    1     2.1678     4.0966   15 H    0 0 0
  35 C    1     2.4178     4.5690   33 C   -1-1 1
  35 C    1     2.4245     4.5817   31 C   -1-1 1

  36 C    1     1.4025     2.6503   35 C    1 1-1
  36 C    1     1.4025     2.6504   33 C    0 0 0
  36 C    1     1.5516     2.9322    5 B    0 0 0
  36 C    1     2.1486     4.0602   18 H    1 1-1
  36 C    1     2.1487     4.0605   16 H    0 0 0
  36 C    1     2.4251     4.5827   32 C    1 1-1

  37 O    1     1.3791     2.6061    1 B    1 0 0
  37 O    1     1.3791     2.6061    3 B    0 0 0
  37 O    1     2.3880     4.5126   38 O    1 0 0
  37 O    1     2.3882     4.5130   39 O    1 1-1
  37 O    1     2.5383     4.7966   31 C    0 0 0
  37 O    1     2.5384     4.7968   25 C    0 0 0

  38 O    1     1.3793     2.6065    1 B    0 0 0
  38 O    1     1.3793     2.6065    2 B    0 0 0
  38 O    1     2.3880     4.5126   37 O   -1 0 0
  38 O    1     2.3882     4.5131   39 O    0 1-1
  38 O    1     2.5391     4.7981   19 C    0 0 0
  38 O    1     2.5395     4.7990   25 C   -1 0 0

  39 O    1     1.3793     2.6064    3 B   -1-1 1
  39 O    1     1.3793     2.6065    2 B    0-1 1
  39 O    1     2.3882     4.5130   37 O   -1-1 1
  39 O    1     2.3882     4.5131   38 O    0-1 1
  39 O    1     2.5390     4.7980   19 C    0-1 1
  39 O    1     2.5391     4.7982   31 C   -1-1 1

  40 O    1     1.3795     2.6068    6 B    0 0 0
  40 O    1     1.3795     2.6068    4 B    0-1 1
  40 O    1     2.3880     4.5126   42 O    1 0 0
  40 O    1     2.3884     4.5134   41 O    0-1 1
  40 O    1     2.5400     4.7998   24 C    0-1 1
  40 O    1     2.5403     4.8005   30 C    0 0 0

  41 O    1     1.3795     2.6069    5 B    0 0 0
  41 O    1     1.3795     2.6070    4 B    0 0 0
  41 O    1     2.3881     4.5128   42 O    1 1-1
  41 O    1     2.3884     4.5134   40 O    0 1-1
  41 O    1     2.5404     4.8006   24 C    0 0 0
  41 O    1     2.5405     4.8008   36 C    0 0 0

  42 O    1     1.3796     2.6071    6 B   -1 0 0
  42 O    1     1.3797     2.6072    5 B   -1-1 1
  42 O    1     2.3880     4.5126   40 O   -1 0 0
  42 O    1     2.3881     4.5128   41 O   -1-1 1
  42 O    1     2.5409     4.8016   36 C   -1-1 1
  42 O    1     2.5410     4.8019   30 C   -1 0 0


 SYMMETRY ALLOWED INTERNAL DEGREE(S) OF FREEDOM: 123
 TTTTTTTTTTTTTTTTTTTTTTTTTTTTTT SYMM        TELAPSE        0.30 TCPU        0.30
 TTTTTTTTTTTTTTTTTTTTTTTTTTTTTT INT_SCREEN  TELAPSE        0.32 TCPU        0.32

 DFT PARAMETERS

     ATOM       ELECTRONS   NET CHARGE   R(ANGSTROM)
   1   5  B       5.0000      0.0000     0.89000000
   7   1  H       1.0000      0.0000     1.11000000
  19   6  C       6.0000      0.0000     0.77000000
  37   8  O       8.0000      0.0000     0.74000000

 SIZE OF GRID=    1331828
 TTTTTTTTTTTTTTTTTTTTTTTTTTTTTT MAKE_GRID2  TELAPSE        8.83 TCPU        8.81
 BECKE WEIGHT FUNCTION
 RADSAFE =     2.00
 TOLERANCES - DENSITY:10**- 6; POTENTIAL:10**- 9; GRID WGT:10**-14

 RADIAL INTEGRATION  - INTERVALS (POINTS,UPPER LIMIT):            1( 75,  4.0*R)

 ANGULAR INTEGRATION - INTERVALS (ACCURACY LEVEL [N. POINTS] UPPER LIMIT):
  1(  4[  86]   0.2)  2(  8[ 194]   0.5)  3( 12[ 350]   0.9)  4( 16[ 974]   3.5)
  5( 12[ 350]9999.0)
 TTTTTTTTTTTTTTTTTTTTTTTTTTTTTT INT_CALC    TELAPSE        8.91 TCPU        8.90
 EEEEEEEEEE INT_CALC TERMINATION  DATE 19 02 2026 TIME 19:18:58.1

 *******************************************************************************
 cof-1_z44_L010_incl                                                             
 CRYSTAL - SCF - TYPE OF CALCULATION :  RESTRICTED CLOSED SHELL
 *******************************************************************************

 CAPPA:IS1  2;IS2  2;IS3  8; K PTS MONK NET  20; SYMMOPS:K SPACE   2;G SPACE   1

 TTTTTTTTTTTTTTTTTTTTTTTTTTTTTT SDIK        TELAPSE        9.54 TCPU       15.82

 AAAAAAAAAAAAAAAAAAAAAAAAAAAAAAAAAAAAAAAAAAAAAAAAAAAAAAAAAAAAAAAAAAAAAAAAAAAAAAA
         ATOMIC WAVEFUNCTION(S)


 NUCLEAR CHARGE  5.0  SYMMETRY SPECIES            S    P
 N. ELECTRONS    5.0  NUMBER OF PRIMITIVE GTOS    8    4
                      NUMBER OF CONTRACTED GTOS   4    2
                      NUMBER OF CLOSED SHELLS     2    0
                      OPEN SHELL OCCUPATION       0    1

  ZNUC  SCFIT    TOTAL HF ENERGY   KINETIC ENERGY   VIRIAL THEOREM ACCURACY
   5.0    11    -2.451164084E+01  2.462155050E+01 -1.995536038E+00  1.5E-06

 NUCLEAR CHARGE  1.0  SYMMETRY SPECIES            S
 N. ELECTRONS    1.0  NUMBER OF PRIMITIVE GTOS    4
                      NUMBER OF CONTRACTED GTOS   2
                      NUMBER OF CLOSED SHELLS     0
                      OPEN SHELL OCCUPATION       1

  ZNUC  SCFIT    TOTAL HF ENERGY   KINETIC ENERGY   VIRIAL THEOREM ACCURACY
   1.0     1    -4.977266687E-01  5.190767460E-01 -1.958869132E+00  0.0E+00

 NUCLEAR CHARGE  6.0  SYMMETRY SPECIES            S    P
 N. ELECTRONS    6.0  NUMBER OF PRIMITIVE GTOS    8    4
                      NUMBER OF CONTRACTED GTOS   4    2
                      NUMBER OF CLOSED SHELLS     2    0
                      OPEN SHELL OCCUPATION       0    2

  ZNUC  SCFIT    TOTAL HF ENERGY   KINETIC ENERGY   VIRIAL THEOREM ACCURACY
   6.0     9    -3.766704647E+01  3.775180683E+01 -1.997754800E+00  1.1E-06

 NUCLEAR CHARGE  8.0  SYMMETRY SPECIES            S    P
 N. ELECTRONS    8.0  NUMBER OF PRIMITIVE GTOS    8    4
                      NUMBER OF CONTRACTED GTOS   4    2
                      NUMBER OF CLOSED SHELLS     2    0
                      OPEN SHELL OCCUPATION       0    4

  ZNUC  SCFIT    TOTAL HF ENERGY   KINETIC ENERGY   VIRIAL THEOREM ACCURACY
   8.0    12    -7.477373220E+01  7.477365593E+01 -2.000001020E+00  3.8E-06

 AAAAAAAAAAAAAAAAAAAAAAAAAAAAAAAAAAAAAAAAAAAAAAAAAAAAAAAAAAAAAAAAAAAAAAAAAAAAAAA

 CHARGE NORMALIZATION FACTOR   1.00000000
 TOTAL ATOMIC CHARGES:
   5.0000000   5.0000000   5.0000000   5.0000000   5.0000000   5.0000000
   1.0000000   1.0000000   1.0000000   1.0000000   1.0000000   1.0000000
   1.0000000   1.0000000   1.0000000   1.0000000   1.0000000   1.0000000
   6.0000000   6.0000000   6.0000000   6.0000000   6.0000000   6.0000000
   6.0000000   6.0000000   6.0000000   6.0000000   6.0000000   6.0000000
   6.0000000   6.0000000   6.0000000   6.0000000   6.0000000   6.0000000
   8.0000000   8.0000000   8.0000000   8.0000000   8.0000000   8.0000000
 TTTTTTTTTTTTTTTTTTTTTTTTTTTTTT MOQGAD      TELAPSE        9.59 TCPU       16.91
 TTTTTTTTTTTTTTTTTTTTTTTTTTTTTT SHELLXN     TELAPSE       15.46 TCPU      200.41
 TTTTTTTTTTTTTTTTTTTTTTTTTTTTTT MONMO3      TELAPSE       15.60 TCPU      204.85
 NUMERICALLY INTEGRATED DENSITY    197.9999590504
 TTTTTTTTTTTTTTTTTTTTTTTTTTTTTT NUMDFT      TELAPSE       16.10 TCPU      220.74
 CYC   0 ETOT(AU) -1.295954649372E+03 DETOT -1.30E+03 tst  0.00E+00 PX  1.00E+00
 TTTTTTTTTTTTTTTTTTTTTTTTTTTTTT DIIS        TELAPSE       16.13 TCPU      221.81
 TTTTTTTTTTTTTTTTTTTTTTTTTTTTTT FDIK        TELAPSE       16.62 TCPU      237.36
 INSULATING STATE
 TOP OF VALENCE BANDS -    BAND     99; K    1; EIG -3.1184102E-01 AU
 BOTTOM OF VIRTUAL BANDS - BAND    100; K   17; EIG -1.5958430E-01 AU
 INDIRECT ENERGY BAND GAP:   4.1431 eV
 BOTTOM OF VIRTUAL BANDS - BAND    100; K    1; EIG -1.5190759E-01 AU
 TTTTTTTTTTTTTTTTTTTTTTTTTTTTTT PDIG        TELAPSE       16.90 TCPU      243.49
 CHARGE NORMALIZATION FACTOR   1.00000000
 TOTAL ATOMIC CHARGES:
   4.1615990   4.1614545   4.1617018   4.1613172   4.1611028   4.1612731
   0.7852338   0.7853480   0.7852079   0.7853344   0.7852069   0.7853796
   0.7851957   0.7853440   0.7852112   0.7853980   0.7851851   0.7853413
   6.0445265   6.2656740   6.2656653   6.2656296   6.2655844   6.0437861
   6.0444191   6.2656295   6.2657249   6.2655293   6.2657384   6.0431780
   6.0448853   6.2654104   6.2659605   6.2653089   6.2659405   6.0433143
   8.6925408   8.6926570   8.6922852   8.6929636   8.6926849   8.6931297
 TTTTTTTTTTTTTTTTTTTTTTTTTTTTTT MOQGAD      TELAPSE       16.94 TCPU      243.54
 TTTTTTTTTTTTTTTTTTTTTTTTTTTTTT SHELLXN     TELAPSE       22.92 TCPU      433.95
 TTTTTTTTTTTTTTTTTTTTTTTTTTTTTT MONMO3      TELAPSE       23.06 TCPU      438.37
 NUMERICALLY INTEGRATED DENSITY    197.9999737041
 TTTTTTTTTTTTTTTTTTTTTTTTTTTTTT NUMDFT      TELAPSE       23.56 TCPU      454.41
 CYC   1 ETOT(AU) -1.288806866751E+03 DETOT  7.15E+00 tst  0.00E+00 PX  1.00E+00
 TTTTTTTTTTTTTTTTTTTTTTTTTTTTTT DIIS        TELAPSE       23.60 TCPU      455.81
 DIIS TEST: 0.11183E+01 AT SCF   CYCLE   1 - MIX   30 %
 TTTTTTTTTTTTTTTTTTTTTTTTTTTTTT FDIK        TELAPSE       24.09 TCPU      471.48
 INSULATING STATE
 TOP OF VALENCE BANDS -    BAND     99; K    1; EIG -2.1902241E-01 AU
 BOTTOM OF VIRTUAL BANDS - BAND    100; K   17; EIG -8.1630595E-02 AU
 INDIRECT ENERGY BAND GAP:   3.7386 eV
 BOTTOM OF VIRTUAL BANDS - BAND    100; K    1; EIG -7.1593497E-02 AU
 TTTTTTTTTTTTTTTTTTTTTTTTTTTTTT PDIG        TELAPSE       24.37 TCPU      477.62
 CHARGE NORMALIZATION FACTOR   1.00000000
 TOTAL ATOMIC CHARGES:
   4.7147638   4.7145599   4.7140979   4.7143162   4.7144893   4.7143075
   0.9158229   0.9159110   0.9164575   0.9165059   0.9156716   0.9156619
   0.9156328   0.9156148   0.9164274   0.9165493   0.9157476   0.9158253
   5.8625623   6.1244300   6.1247381   6.1285673   6.1297687   5.8654286
   5.8627944   6.1266524   6.1280385   6.1271931   6.1277756   5.8660527
   5.8625052   6.1287157   6.1297068   6.1246158   6.1246267   5.8657046
   8.3344905   8.3347985   8.3367978   8.3342729   8.3368609   8.3345402
 TTTTTTTTTTTTTTTTTTTTTTTTTTTTTT MOQGAD      TELAPSE       24.42 TCPU      477.66
 TTTTTTTTTTTTTTTTTTTTTTTTTTTTTT SHELLXN     TELAPSE       30.39 TCPU      668.09
 TTTTTTTTTTTTTTTTTTTTTTTTTTTTTT MONMO3      TELAPSE       30.53 TCPU      672.52
 NUMERICALLY INTEGRATED DENSITY    197.9999668524
 TTTTTTTTTTTTTTTTTTTTTTTTTTTTTT NUMDFT      TELAPSE       31.03 TCPU      688.54
 CYC   2 ETOT(AU) -1.289002594074E+03 DETOT -1.96E-01 tst  4.48E-03 PX  1.58E-01
 TTTTTTTTTTTTTTTTTTTTTTTTTTTTTT DIIS        TELAPSE       31.08 TCPU      690.06
 DIIS TEST: 0.47217E+00 AT SCF   CYCLE   2 - DIIS ACTIVE - HISTORY:     2 CYCLES
 TTTTTTTTTTTTTTTTTTTTTTTTTTTTTT FDIK        TELAPSE       31.57 TCPU      705.60
 INSULATING STATE
 TOP OF VALENCE BANDS -    BAND     99; K    1; EIG -2.3366219E-01 AU
 BOTTOM OF VIRTUAL BANDS - BAND    100; K   17; EIG -7.7294882E-02 AU
 INDIRECT ENERGY BAND GAP:   4.2550 eV
 BOTTOM OF VIRTUAL BANDS - BAND    100; K    1; EIG -6.6535417E-02 AU
 TTTTTTTTTTTTTTTTTTTTTTTTTTTTTT PDIG        TELAPSE       31.85 TCPU      711.74
 CHARGE NORMALIZATION FACTOR   1.00000000
 TOTAL ATOMIC CHARGES:
   4.5050630   4.5042421   4.5040999   4.5035938   4.5035550   4.5040556
   0.8905135   0.8906629   0.8909855   0.8911224   0.8904285   0.8906782
   0.8905050   0.8905574   0.8909726   0.8911675   0.8904867   0.8905812
   5.8887805   6.1593099   6.1588709   6.1592001   6.1582124   5.8878005
   5.8897485   6.1588379   6.1583067   6.1588055   6.1583932   5.8886051
   5.8892637   6.1591985   6.1583490   6.1592411   6.1588962   5.8874096
   8.5083363   8.5084906   8.5076602   8.5086202   8.5076110   8.5087817
 TTTTTTTTTTTTTTTTTTTTTTTTTTTTTT MOQGAD      TELAPSE       31.89 TCPU      711.78
 TTTTTTTTTTTTTTTTTTTTTTTTTTTTTT SHELLXN     TELAPSE       37.86 TCPU      902.10
 TTTTTTTTTTTTTTTTTTTTTTTTTTTTTT MONMO3      TELAPSE       38.00 TCPU      906.53
 NUMERICALLY INTEGRATED DENSITY    197.9999674157
 TTTTTTTTTTTTTTTTTTTTTTTTTTTTTT NUMDFT      TELAPSE       38.50 TCPU      922.55
 CYC   3 ETOT(AU) -1.289101085881E+03 DETOT -9.85E-02 tst  7.39E-04 PX  6.13E-02
 TTTTTTTTTTTTTTTTTTTTTTTTTTTTTT DIIS        TELAPSE       38.56 TCPU      924.27
 DIIS TEST: 0.11325E-01 AT SCF   CYCLE   3 - DIIS ACTIVE - HISTORY:     3 CYCLES
 TTTTTTTTTTTTTTTTTTTTTTTTTTTTTT FDIK        TELAPSE       39.04 TCPU      939.77
 INSULATING STATE
 TOP OF VALENCE BANDS -    BAND     99; K    1; EIG -2.4381201E-01 AU
 BOTTOM OF VIRTUAL BANDS - BAND    100; K   17; EIG -8.6403821E-02 AU
 INDIRECT ENERGY BAND GAP:   4.2833 eV
 BOTTOM OF VIRTUAL BANDS - BAND    100; K    1; EIG -7.6176179E-02 AU
 TTTTTTTTTTTTTTTTTTTTTTTTTTTTTT PDIG        TELAPSE       39.32 TCPU      945.90
 CHARGE NORMALIZATION FACTOR   1.00000000
 TOTAL ATOMIC CHARGES:
   4.5113994   4.5101759   4.5099233   4.5100636   4.5100903   4.5110156
   0.8737058   0.8738362   0.8739915   0.8739525   0.8733944   0.8733911
   0.8733842   0.8733405   0.8739959   0.8739816   0.8736867   0.8737337
   5.9381536   6.1602001   6.1606573   6.1627596   6.1647144   5.9419273
   5.9385157   6.1615571   6.1632696   6.1619001   6.1630742   5.9421734
   5.9381236   6.1627085   6.1648725   6.1600531   6.1608074   5.9420733
   8.4768527   8.4770836   8.4786059   8.4768179   8.4790040   8.4770329
 TTTTTTTTTTTTTTTTTTTTTTTTTTTTTT MOQGAD      TELAPSE       39.37 TCPU      945.95
 TTTTTTTTTTTTTTTTTTTTTTTTTTTTTT SHELLXN     TELAPSE       45.34 TCPU     1136.10
 TTTTTTTTTTTTTTTTTTTTTTTTTTTTTT MONMO3      TELAPSE       45.47 TCPU     1140.53
 NUMERICALLY INTEGRATED DENSITY    197.9999680645
 TTTTTTTTTTTTTTTTTTTTTTTTTTTTTT NUMDFT      TELAPSE       45.97 TCPU     1156.54
 CYC   4 ETOT(AU) -1.289103403344E+03 DETOT -2.32E-03 tst  2.66E-05 PX  1.20E-02
 TTTTTTTTTTTTTTTTTTTTTTTTTTTTTT DIIS        TELAPSE       46.03 TCPU     1158.36
 DIIS TEST: 0.39688E-02 AT SCF   CYCLE   4 - DIIS ACTIVE - HISTORY:     4 CYCLES
 TTTTTTTTTTTTTTTTTTTTTTTTTTTTTT FDIK        TELAPSE       46.52 TCPU     1173.84
 INSULATING STATE
 TOP OF VALENCE BANDS -    BAND     99; K    1; EIG -2.4187301E-01 AU
 BOTTOM OF VIRTUAL BANDS - BAND    100; K   17; EIG -8.5646898E-02 AU
 INDIRECT ENERGY BAND GAP:   4.2511 eV
 BOTTOM OF VIRTUAL BANDS - BAND    100; K    1; EIG -7.5259075E-02 AU
 TTTTTTTTTTTTTTTTTTTTTTTTTTTTTT PDIG        TELAPSE       46.80 TCPU     1179.97
 CHARGE NORMALIZATION FACTOR   1.00000000
 TOTAL ATOMIC CHARGES:
   4.5128612   4.5120893   4.5118618   4.5115183   4.5115239   4.5119411
   0.8770739   0.8772381   0.8774385   0.8776289   0.8768690   0.8771007
   0.8769083   0.8770037   0.8774211   0.8776765   0.8770249   0.8771642
   5.9191427   6.1630610   6.1624494   6.1649749   6.1637901   5.9174886
   5.9195095   6.1639022   6.1634012   6.1640042   6.1634200   5.9179165
   5.9195223   6.1650067   6.1638783   6.1630567   6.1624493   5.9172236
   8.4877146   8.4878926   8.4880612   8.4878457   8.4879243   8.4880213
 TTTTTTTTTTTTTTTTTTTTTTTTTTTTTT MOQGAD      TELAPSE       46.84 TCPU     1180.02
 TTTTTTTTTTTTTTTTTTTTTTTTTTTTTT SHELLXN     TELAPSE       52.81 TCPU     1370.19
 TTTTTTTTTTTTTTTTTTTTTTTTTTTTTT MONMO3      TELAPSE       52.95 TCPU     1374.61
 NUMERICALLY INTEGRATED DENSITY    197.9999680489
 TTTTTTTTTTTTTTTTTTTTTTTTTTTTTT NUMDFT      TELAPSE       53.45 TCPU     1390.62
 CYC   5 ETOT(AU) -1.289104302510E+03 DETOT -8.99E-04 tst  5.45E-06 PX  6.88E-03
 TTTTTTTTTTTTTTTTTTTTTTTTTTTTTT DIIS        TELAPSE       53.51 TCPU     1392.70
 DIIS TEST: 0.89830E-04 AT SCF   CYCLE   5 - DIIS ACTIVE - HISTORY:     5 CYCLES
 TTTTTTTTTTTTTTTTTTTTTTTTTTTTTT FDIK        TELAPSE       54.00 TCPU     1408.23
 INSULATING STATE
 TOP OF VALENCE BANDS -    BAND     99; K    1; EIG -2.4165524E-01 AU
 BOTTOM OF VIRTUAL BANDS - BAND    100; K   17; EIG -8.5032973E-02 AU
 INDIRECT ENERGY BAND GAP:   4.2619 eV
 BOTTOM OF VIRTUAL BANDS - BAND    100; K    1; EIG -7.4646874E-02 AU
 TTTTTTTTTTTTTTTTTTTTTTTTTTTTTT PDIG        TELAPSE       54.28 TCPU     1414.37
 CHARGE NORMALIZATION FACTOR   1.00000000
 TOTAL ATOMIC CHARGES:
   4.5124250   4.5114377   4.5112130   4.5113430   4.5113585   4.5120348
   0.8780807   0.8781766   0.8785331   0.8784394   0.8779427   0.8779332
   0.8779542   0.8778662   0.8785354   0.8784681   0.8780622   0.8780757
   5.9161042   6.1615126   6.1624176   6.1625687   6.1651213   5.9213732
   5.9168191   6.1619837   6.1639794   6.1622143   6.1638600   5.9216669
   5.9161926   6.1625073   6.1653051   6.1613457   6.1625705   5.9213955
   8.4867449   8.4869604   8.4875328   8.4868427   8.4880546   8.4870471
 TTTTTTTTTTTTTTTTTTTTTTTTTTTTTT MOQGAD      TELAPSE       54.32 TCPU     1414.41
 TTTTTTTTTTTTTTTTTTTTTTTTTTTTTT SHELLXN     TELAPSE       60.29 TCPU     1604.53
 TTTTTTTTTTTTTTTTTTTTTTTTTTTTTT MONMO3      TELAPSE       60.43 TCPU     1608.97
 NUMERICALLY INTEGRATED DENSITY    197.9999680086
 TTTTTTTTTTTTTTTTTTTTTTTTTTTTTT NUMDFT      TELAPSE       60.93 TCPU     1625.00
 CYC   6 ETOT(AU) -1.289104310488E+03 DETOT -7.98E-06 tst  7.12E-07 PX  9.45E-04
 TTTTTTTTTTTTTTTTTTTTTTTTTTTTTT DIIS        TELAPSE       61.00 TCPU     1627.22
 DIIS TEST: 0.58026E-04 AT SCF   CYCLE   6 - DIIS ACTIVE - HISTORY:     6 CYCLES
 TTTTTTTTTTTTTTTTTTTTTTTTTTTTTT FDIK        TELAPSE       61.48 TCPU     1642.66
 INSULATING STATE
 TOP OF VALENCE BANDS -    BAND     99; K    1; EIG -2.4165363E-01 AU
 BOTTOM OF VIRTUAL BANDS - BAND    100; K   17; EIG -8.5075284E-02 AU
 INDIRECT ENERGY BAND GAP:   4.2607 eV
 BOTTOM OF VIRTUAL BANDS - BAND    100; K    1; EIG -7.4689722E-02 AU
 TTTTTTTTTTTTTTTTTTTTTTTTTTTTTT PDIG        TELAPSE       61.76 TCPU     1648.80
 CHARGE NORMALIZATION FACTOR   1.00000000
 TOTAL ATOMIC CHARGES:
   4.5126853   4.5117718   4.5115488   4.5113078   4.5113166   4.5118974
   0.8780336   0.8781968   0.8784111   0.8785283   0.8778402   0.8780031
   0.8778667   0.8779205   0.8784024   0.8785674   0.8779990   0.8781104
   5.9189999   6.1620339   6.1616794   6.1637963   6.1635223   5.9189143
   5.9194557   6.1627808   6.1629020   6.1629533   6.1628461   5.9193861
   5.9192518   6.1637872   6.1636522   6.1619641   6.1617404   5.9187737
   8.4868595   8.4870518   8.4875494   8.4869577   8.4875907   8.4871442
 TTTTTTTTTTTTTTTTTTTTTTTTTTTTTT MOQGAD      TELAPSE       61.81 TCPU     1648.85
 TTTTTTTTTTTTTTTTTTTTTTTTTTTTTT SHELLXN     TELAPSE       67.77 TCPU     1838.92
 TTTTTTTTTTTTTTTTTTTTTTTTTTTTTT MONMO3      TELAPSE       67.91 TCPU     1843.34
 NUMERICALLY INTEGRATED DENSITY    197.9999680066
 TTTTTTTTTTTTTTTTTTTTTTTTTTTTTT NUMDFT      TELAPSE       68.41 TCPU     1859.36
 CYC   7 ETOT(AU) -1.289104325140E+03 DETOT -1.47E-05 tst  4.10E-07 PX  7.41E-04
 TTTTTTTTTTTTTTTTTTTTTTTTTTTTTT DIIS        TELAPSE       68.49 TCPU     1861.81
 DIIS TEST: 0.30190E-05 AT SCF   CYCLE   7 - DIIS ACTIVE - HISTORY:     7 CYCLES
 TTTTTTTTTTTTTTTTTTTTTTTTTTTTTT FDIK        TELAPSE       68.98 TCPU     1877.40
 INSULATING STATE
 TOP OF VALENCE BANDS -    BAND     99; K    1; EIG -2.4165946E-01 AU
 BOTTOM OF VIRTUAL BANDS - BAND    100; K   17; EIG -8.5131398E-02 AU
 INDIRECT ENERGY BAND GAP:   4.2593 eV
 BOTTOM OF VIRTUAL BANDS - BAND    100; K    1; EIG -7.4744328E-02 AU
 TTTTTTTTTTTTTTTTTTTTTTTTTTTTTT PDIG        TELAPSE       69.26 TCPU     1883.54
 CHARGE NORMALIZATION FACTOR   1.00000000
 TOTAL ATOMIC CHARGES:
   4.5127544   4.5118797   4.5116550   4.5114863   4.5114947   4.5120319
   0.8779935   0.8781297   0.8783754   0.8784579   0.8777974   0.8779388
   0.8778281   0.8778518   0.8783643   0.8784991   0.8779561   0.8780457
   5.9184672   6.1618554   6.1618265   6.1635192   6.1637120   5.9193963
   5.9189620   6.1626042   6.1630335   6.1627512   6.1630046   5.9197783
   5.9187429   6.1635215   6.1638301   6.1617959   6.1618786   5.9192329
   8.4869584   8.4871510   8.4875006   8.4870759   8.4875995   8.4872624
 TTTTTTTTTTTTTTTTTTTTTTTTTTTTTT MOQGAD      TELAPSE       69.31 TCPU     1883.58
 TTTTTTTTTTTTTTTTTTTTTTTTTTTTTT SHELLXN     TELAPSE       75.27 TCPU     2073.76
 TTTTTTTTTTTTTTTTTTTTTTTTTTTTTT MONMO3      TELAPSE       75.41 TCPU     2078.19
 NUMERICALLY INTEGRATED DENSITY    197.9999680060
 TTTTTTTTTTTTTTTTTTTTTTTTTTTTTT NUMDFT      TELAPSE       75.91 TCPU     2094.23
 CYC   8 ETOT(AU) -1.289104325683E+03 DETOT -5.43E-07 tst  1.32E-08 PX  1.44E-04
 TTTTTTTTTTTTTTTTTTTTTTTTTTTTTT DIIS        TELAPSE       75.99 TCPU     2096.81
 DIIS TEST: 0.73761E-07 AT SCF   CYCLE   8 - DIIS ACTIVE - HISTORY:     8 CYCLES
 TTTTTTTTTTTTTTTTTTTTTTTTTTTTTT FDIK        TELAPSE       76.48 TCPU     2112.30
 INSULATING STATE
 TOP OF VALENCE BANDS -    BAND     99; K    1; EIG -2.4166746E-01 AU
 BOTTOM OF VIRTUAL BANDS - BAND    100; K   17; EIG -8.5122917E-02 AU
 INDIRECT ENERGY BAND GAP:   4.2598 eV
 BOTTOM OF VIRTUAL BANDS - BAND    100; K    1; EIG -7.4734999E-02 AU
 TTTTTTTTTTTTTTTTTTTTTTTTTTTTTT PDIG        TELAPSE       76.76 TCPU     2118.44
 CHARGE NORMALIZATION FACTOR   1.00000000
 TOTAL ATOMIC CHARGES:
   4.5127601   4.5118520   4.5116259   4.5114512   4.5114622   4.5120397
   0.8779695   0.8781220   0.8783616   0.8784427   0.8777868   0.8779209
   0.8778106   0.8778409   0.8783549   0.8784799   0.8779372   0.8780332
   5.9184445   6.1619666   6.1618175   6.1635905   6.1638120   5.9192706
   5.9189391   6.1626647   6.1631005   6.1628457   6.1630359   5.9196931
   5.9186687   6.1635717   6.1639515   6.1618799   6.1618953   5.9191587
   8.4869006   8.4870968   8.4875656   8.4869979   8.4876936   8.4871877
 TTTTTTTTTTTTTTTTTTTTTTTTTTTTTT MOQGAD      TELAPSE       76.80 TCPU     2118.48
 TTTTTTTTTTTTTTTTTTTTTTTTTTTTTT SHELLXN     TELAPSE       82.77 TCPU     2308.64
 +++ ENERGIES IN A.U. +++
 ::: EXT EL-POLE                                  -1.1297452959948E+03
 ::: EXT EL-SPHEROPOLE                             1.2987716004084E+01
 ::: BIELET ZONE E-E                               2.0320843823371E+03
 ::: TOTAL E-E                                     9.1532680234636E+02
 ::: TOTAL E-N + N-E                              -3.6625713057697E+03
 ::: TOTAL N-N                                     3.1191660349775E+02
 ::: KINETIC ENERGY                                1.2799403038574E+03
 ::: PSEUDO TOTAL   ENERGY                        -1.1553875960682E+03
 ::: VIRIAL COEFFICIENT                            1.0511441222321E+00
 TTTTTTTTTTTTTTTTTTTTTTTTTTTTTT MONMO3      TELAPSE       82.91 TCPU     2313.07
 NUMERICALLY INTEGRATED DENSITY    197.9999680056
 EXCHANGE ENERGY: -0.126027645714E+03  CORRELATION ENERGY: -0.768908399125E+01
 TTTTTTTTTTTTTTTTTTTTTTTTTTTTTT NUMDFT      TELAPSE       83.41 TCPU     2329.07
 CYC   9 ETOT(AU) -1.289104325773E+03 DETOT -9.00E-08 tst  3.80E-10 PX  1.44E-04

 == SCF ENDED - CONVERGENCE ON ENERGY      E(AU) -1.2891043257734E+03 CYCLES   9


 ENERGY EXPRESSION=HARTREE+FOCK EXCH*0.00000+(HSESOL     EXCH)*1.00000+PBESOL     CORR


 TOTAL ENERGY(DFT)(AU)(  9) -1.2891043257734E+03 DE-9.0E-08 tester 3.8E-10
 TTTTTTTTTTTTTTTTTTTTTTTTTTTTTT EDFT        TELAPSE       83.41 TCPU     2329.08
 
 INFORMATION **** DFTD3 ENERGY **** CALCULATE DFTD3 ENERGY

           DFT-D V3(BJ)
 DF                                         hsesol3c  
 parameters
 s6       :    1.0000
 s8       :    0.0000
 a1       :    0.5196
 a2       :    4.9385
 k1 k3    :   16.0000   -4.0000
 Cutoff   :   50.2022
 CN-Cutoff:   21.1671
 ABC-Cutoff:   21.1671
 
 Edisp /kcal,au:   -23.3397 -0.03719413

 E6    /kcal :   -24.7805
 E8    /kcal :     0.0000
 E6(ABC) "   :   1.440783
 
 INFORMATION **** DFTD3 ENERGY **** NORMAL TERMINATION OF DFTD3 MODULE

 GCP ENERGY CALCULATION
  level        hsesol3c            basis:hsesol3c
  Nbf            474
  Atoms           42

  Parameters: 
  sigma     1.0000
  eta       1.4281
  alpha     0.2936
  beta      1.9467

  dmp_scal      4.0000
  dmp_exp       6.0000
 cutoffs: 
   distance [bohr] 60.0
   noise    [a.u.] 2.2E-16
 SR-damping   T
 ** gCP correction **
  Egcp:        0.0829235630 / (a.u.) ||      52.0353 / (kcal/mol)
 INFORMATION **** GCP **** NORMAL TERMINATION OF GCP MODULE

 *******************************************************************************

 DFT-D3-GCP DISPERSION AND COUNTERPOISE CORRECTION

 D3 DISPERSION ENERGY (AU)      -3.7194133141378E-02
 GCP ENERGY (AU)                 8.2923562951607E-02
 TOTAL ENERGY + DISP + GCP (AU) -1.2890585963436E+03

 *******************************************************************************

 EIGENVECTORS IN FORTRAN UNIT 10
 TTTTTTTTTTTTTTTTTTTTTTTTTTTTTT END         TELAPSE       84.42 TCPU     2336.07
 EEEEEEEEEE TERMINATION  DATE 19 02 2026 TIME 19:20:13.6
