 Default number of threads is:           32

         
 *******************************************************************************
 *                                                                             *
 *                               CRYSTAL23                                     *
 *                      public : 1.0.1 - October 2022                          *
 *                       HTTP://WWW.CRYSTAL.UNITO.IT                           *
 *                                                                             *
 *                              MAIN AUTHORS                                   *
 *                                                                             *
 *  R. DOVESI(1,11), V.R. SAUNDERS(2), C. ROETTI(1,11), R. ORLANDO(1,11),      *
 *  C.M. ZICOVICH-WILSON(1,3), F. PASCALE(4), B. CIVALLERI(1,11),              *
 *  K. DOLL(5), N.M. HARRISON(6), I.J. BUSH(7), Ph. D'ARCO(8),                 *
 *  M. LLUNELL(9), M. CAUSA'(10), Y. NOEL(8), L. MASCHIO(1,11), A. ERBA(1,11)  *
 *  M. RE'RAT(14), S. CASASSA(1,11), B.G. SEARLE(2), J.K. DESMARAIS(1)         *
 *                                                                             *
 *        CONTRIBUTIONS TO THE CODE HAVE ALSO BEEN GIVEN BY                    *
 *                                                                             *
 *  M. FERRABONE(1,11), M. DE LA PIERRE(1,11), M. FERRERO(1,11),               *
 *  J. BAIMA(1,11), E. ALBANESE(1,11), M.F. PEINTINGER(12), R. BAST(13),       *
 *  B. KIRTMAN(15), V. LACIVITA(1,11), R. DEMICHELIS(1,16)                     *
 *  G. BRANDEBURG(17), S. SALUSTRO(1,11), G. SANSONE(1,11)                     *
 *  M.T. RUGGIERO(18), L.E. DAGA(1), L. DONA'(1), A. COSSARD(1)                *
 *                                                                             *
 * (1) THEORETICAL CHEMISTRY GROUP - UNIVERSITA' DI TORINO - TORINO (ITALY)    *
 * (2) SCIENTIFIC COMPUTING DEPARTMENT - STFC DARESBURY (UK)                   *
 * (3) UNIVERSIDAD AUTONOMA DEL ESTADO DE MORELOS - CUERNAVACA (MEXICO)        *
 * (4) UNIVERSITE' DE LORRAINE - NANCY (FRANCE)                                *
 * (5) UNIVERSITAET STUTTGART- STUTTGART (GERMANY)                             *
 * (6) IMPERIAL COLLEGE - LONDON (UK)                                          *
 * (7) SCIENTIFIC COMPUTING DEPARTMENT - STFC RAL (UK)                         *
 * (8) UPMC - SORBONNE UNIVERSITES - PARIS (FRANCE)                            *
 * (9) UNIVERSIDAD DE BARCELONA - BARCELONA (SPAIN)                            *
 *(10) UNIVERSITA' DI NAPOLI "FEDERICO II" - NAPOLI (ITALY)                    *
 *(11) NIS - NANOSTRUCTURED INTERFACES AND SURFACES - TORINO (ITALY)           *
 *(12) MPI FUER CHEMISCHE ENERGIEKONVERSION - MUELHEIM AN DER RUHR (GERMANY)   *
 *(13) UNIVERSITY OF TROMSO - TROMSO (NORWAY)                                  *
 *(14) UNIVERSITE' DE PAU ET DES PAYS DE L'ADOUR - PAU (FRANCE)                *
 *(15) UNIVERSITY OF CALIFORNIA SANTA BARBARA - SANTA BARBARA (USA)            *
 *(16) CURTIN UNIVERSITY - PERTH (AUSTRALIA)                                   *
 *(17) UNIVERSITY COLLEGE LONDON - LONDON (UK)                                 *
 *(18) UNIVERSITY OF VERMONT - BURLINGTON (USA)                                *
 *                                                                             *
 *******************************************************************************
 EEEEEEEEEE STARTING  DATE 19 02 2026 TIME 19:22:38.6
 cof-1_z45_L040_incl                                                             

 CRYSTAL CALCULATION
 (INPUT ACCORDING TO THE INTERNATIONAL TABLES FOR X-RAY CRYSTALLOGRAPHY)
 CRYSTAL FAMILY                       :  TRICLINIC   
 CRYSTAL CLASS  (GROTH - 1921)        :  TRICLINIC PEDIAL                     

 SPACE GROUP (NONCENTROSYMMETRIC)     :  P 1             

 LATTICE PARAMETERS  (ANGSTROMS AND DEGREES) - CONVENTIONAL CELL
        A           B           C        ALPHA        BETA       GAMMA
    15.02361    15.02392     6.02080    54.87409    89.99996   119.99596


 NUMBER OF IRREDUCIBLE ATOMS IN THE CONVENTIONAL CELL:   42

 INPUT COORDINATES

 ATOM AT. N.              COORDINATES
   1   5     5.366712500000E-01  7.328397000000E-02  5.010588600000E-01
   2   5     6.957269000000E-01  2.323436300000E-01  5.010588700000E-01
   3   5     5.370099900000E-01  2.330125200000E-01  4.988270600000E-01
   4   5     1.502459500000E-01  4.595989700000E-01  5.010588700000E-01
   5   5     3.093539300000E-01  4.595782000000E-01  5.010588600000E-01
   6   5     3.096772200000E-01  6.194035000000E-01  4.988270600000E-01
   7   1     8.267454600000E-01  1.563182200000E-01  4.964318700000E-01
   8   1     2.044512000000E-02  5.386591200000E-01  4.957243300000E-01
   9   1     8.267987400000E-01  4.417115900000E-01  4.956154400000E-01
  10   1     2.055933000000E-02  2.533157500000E-01  4.956426000000E-01
  11   1     6.136382500000E-01 -5.779991000000E-02  5.035628900000E-01
  12   1     2.314268200000E-01  7.484157600000E-01  5.042704700000E-01
  13   1     3.283503500000E-01 -5.800507000000E-02  5.043794400000E-01
  14   1     5.167967700000E-01  7.483006800000E-01  5.043520900000E-01
  15   1     6.147745800000E-01  4.414423700000E-01  4.964319100000E-01
  16   1     2.327724200000E-01  2.532150300000E-01  4.957242900000E-01
  17   1     3.296679100000E-01  1.564624400000E-01  4.956153500000E-01
  18   1     5.181140100000E-01  5.385887100000E-01  4.956426900000E-01
  19   6     8.152365800000E-01  2.926206500000E-01  4.987453900000E-01
  20   6     8.701742200000E-01  2.401403300000E-01  4.965407600000E-01
  21   6    -2.289750000000E-02  4.545985400000E-01  4.963503100000E-01
  22   6     8.700786400000E-01  4.009297300000E-01  4.969218700000E-01
  23   6    -2.272123000000E-02  2.939393500000E-01  4.954520800000E-01
  24   6     3.165824000000E-02  4.012648100000E-01  4.969490600000E-01
  25   6     4.770008400000E-01 -4.592436000000E-02  5.012494000000E-01
  26   6     5.298004400000E-01 -1.012146100000E-01  5.034539900000E-01
  27   6     3.153919800000E-01  7.918340400000E-01  5.036445000000E-01
  28   6     3.689687300000E-01 -1.010505600000E-01  5.030729700000E-01
  29   6     4.761721200000E-01  7.915183400000E-01  5.045426500000E-01
  30   6     3.686132500000E-01  7.373470200000E-01  5.030457200000E-01
  31   6     4.773911400000E-01  2.925515100000E-01  4.987453900000E-01
  32   6     5.308953200000E-01  4.009804600000E-01  4.965408000000E-01
  33   6     3.165377500000E-01  2.935852900000E-01  4.963502600000E-01
  34   6     3.699138000000E-01  2.399275500000E-01  4.969218100000E-01
  35   6     4.775953800000E-01  4.547873600000E-01  4.954521400000E-01
  36   6     3.695823300000E-01  4.011874100000E-01  4.969490600000E-01
  37   8     4.839783700000E-01  1.268384100000E-01  4.994258300000E-01
  38   8     6.421997200000E-01  1.253986100000E-01  5.041344000000E-01
  39   8     6.432892200000E-01  2.865275300000E-01  4.970307300000E-01
  40   8     2.035662000000E-01  5.661188800000E-01  4.994258500000E-01
  41   8     2.028619900000E-01  4.057158900000E-01  5.041343900000E-01
  42   8     3.628736400000E-01  5.668395000000E-01  4.970307100000E-01

 *******************************************************************************

 << INFORMATION >>: FROM NOW ON, ALL COORDINATES REFER TO THE PRIMITIVE CELL

 *******************************************************************************

 LATTICE PARAMETERS  (ANGSTROMS AND DEGREES) - PRIMITIVE CELL
       A          B          C        ALPHA      BETA     GAMMA        VOLUME
   15.02361   15.02392    6.02080    54.87409  89.99996 119.99596    879.671574

 COORDINATES OF THE EQUIVALENT ATOMS (FRACTIONAL UNITS)

 N. ATOM EQUIV AT. N.          X                  Y                  Z

   1   1   1    5 B    -4.63328750000E-01  7.32839700000E-02 -4.98941140000E-01

   2   2   1    5 B    -3.04273100000E-01  2.32343630000E-01 -4.98941130000E-01

   3   3   1    5 B    -4.62990010000E-01  2.33012520000E-01  4.98827060000E-01

   4   4   1    5 B     1.50245950000E-01  4.59598970000E-01 -4.98941130000E-01

   5   5   1    5 B     3.09353930000E-01  4.59578200000E-01 -4.98941140000E-01

   6   6   1    5 B     3.09677220000E-01 -3.80596500000E-01  4.98827060000E-01

   7   7   1    1 H    -1.73254540000E-01  1.56318220000E-01  4.96431870000E-01

   8   8   1    1 H     2.04451200000E-02 -4.61340880000E-01  4.95724330000E-01

   9   9   1    1 H    -1.73201260000E-01  4.41711590000E-01  4.95615440000E-01

  10  10   1    1 H     2.05593300000E-02  2.53315750000E-01  4.95642600000E-01

  11  11   1    1 H    -3.86361750000E-01 -5.77999100000E-02 -4.96437110000E-01

  12  12   1    1 H     2.31426820000E-01 -2.51584240000E-01 -4.95729530000E-01

  13  13   1    1 H     3.28350350000E-01 -5.80050700000E-02 -4.95620560000E-01

  14  14   1    1 H    -4.83203230000E-01 -2.51699320000E-01 -4.95647910000E-01

  15  15   1    1 H    -3.85225420000E-01  4.41442370000E-01  4.96431910000E-01

  16  16   1    1 H     2.32772420000E-01  2.53215030000E-01  4.95724290000E-01

  17  17   1    1 H     3.29667910000E-01  1.56462440000E-01  4.95615350000E-01

  18  18   1    1 H    -4.81885990000E-01 -4.61411290000E-01  4.95642690000E-01

  19  19   1    6 C    -1.84763420000E-01  2.92620650000E-01  4.98745390000E-01

  20  20   1    6 C    -1.29825780000E-01  2.40140330000E-01  4.96540760000E-01

  21  21   1    6 C    -2.28975000000E-02  4.54598540000E-01  4.96350310000E-01

  22  22   1    6 C    -1.29921360000E-01  4.00929730000E-01  4.96921870000E-01

  23  23   1    6 C    -2.27212300000E-02  2.93939350000E-01  4.95452080000E-01

  24  24   1    6 C     3.16582400000E-02  4.01264810000E-01  4.96949060000E-01

  25  25   1    6 C     4.77000840000E-01 -4.59243600000E-02 -4.98750600000E-01

  26  26   1    6 C    -4.70199560000E-01 -1.01214610000E-01 -4.96546010000E-01

  27  27   1    6 C     3.15391980000E-01 -2.08165960000E-01 -4.96355500000E-01

  28  28   1    6 C     3.68968730000E-01 -1.01050560000E-01 -4.96927030000E-01

  29  29   1    6 C     4.76172120000E-01 -2.08481660000E-01 -4.95457350000E-01

  30  30   1    6 C     3.68613250000E-01 -2.62652980000E-01 -4.96954280000E-01

  31  31   1    6 C     4.77391140000E-01  2.92551510000E-01  4.98745390000E-01

  32  32   1    6 C    -4.69104680000E-01  4.00980460000E-01  4.96540800000E-01

  33  33   1    6 C     3.16537750000E-01  2.93585290000E-01  4.96350260000E-01

  34  34   1    6 C     3.69913800000E-01  2.39927550000E-01  4.96921810000E-01

  35  35   1    6 C     4.77595380000E-01  4.54787360000E-01  4.95452140000E-01

  36  36   1    6 C     3.69582330000E-01  4.01187410000E-01  4.96949060000E-01

  37  37   1    8 O     4.83978370000E-01  1.26838410000E-01  4.99425830000E-01

  38  38   1    8 O    -3.57800280000E-01  1.25398610000E-01 -4.95865600000E-01

  39  39   1    8 O    -3.56710780000E-01  2.86527530000E-01  4.97030730000E-01

  40  40   1    8 O     2.03566200000E-01 -4.33881120000E-01  4.99425850000E-01

  41  41   1    8 O     2.02861990000E-01  4.05715890000E-01 -4.95865610000E-01

  42  42   1    8 O     3.62873640000E-01 -4.33160500000E-01  4.97030710000E-01

 NUMBER OF SYMMETRY OPERATORS         :    1
 *******************************************************************************
 * GEOMETRY EDITING - INPUT COORDINATES ARE GIVEN IN ANGSTROM         
 *******************************************************************************

 GCALCO - MAX INDICES DIRECT LATTICE VECTOR    10    12    26
 NO.OF VECTORS CREATED 6999 STARS 3500 RMAX   214.55291 BOHR

 GEOMETRY FOR WAVE FUNCTION - DIMENSIONALITY OF THE SYSTEM    3
 (NON PERIODIC DIRECTION: LATTICE PARAMETER FORMALLY SET TO 500)
 *******************************************************************************
 LATTICE PARAMETERS (ANGSTROMS AND DEGREES) - BOHR = 0.5291772083 ANGSTROM
 PRIMITIVE CELL - CENTRING CODE 1/0 VOLUME=   879.671574 - DENSITY  0.736 g/cm^3
         A              B              C           ALPHA      BETA       GAMMA 
    15.02361100    15.02391600     6.02079700    54.874092  89.999958 119.995964
 *******************************************************************************
 ATOMS IN THE ASYMMETRIC UNIT   42 - ATOMS IN THE UNIT CELL:   42
     ATOM                 X/A                 Y/B                 Z/C    
 *******************************************************************************
      1 T   5 B    -4.633287500000E-01  7.328397000000E-02 -4.989411400000E-01
      2 T   5 B    -3.042731000000E-01  2.323436300000E-01 -4.989411300000E-01
      3 T   5 B    -4.629900100000E-01  2.330125200000E-01  4.988270600000E-01
      4 T   5 B     1.502459500000E-01  4.595989700000E-01 -4.989411300000E-01
      5 T   5 B     3.093539300000E-01  4.595782000000E-01 -4.989411400000E-01
      6 T   5 B     3.096772200000E-01 -3.805965000000E-01  4.988270600000E-01
      7 T   1 H    -1.732545400000E-01  1.563182200000E-01  4.964318700000E-01
      8 T   1 H     2.044512000000E-02 -4.613408800000E-01  4.957243300000E-01
      9 T   1 H    -1.732012600000E-01  4.417115900000E-01  4.956154400000E-01
     10 T   1 H     2.055933000000E-02  2.533157500000E-01  4.956426000000E-01
     11 T   1 H    -3.863617500000E-01 -5.779991000000E-02 -4.964371100000E-01
     12 T   1 H     2.314268200000E-01 -2.515842400000E-01 -4.957295300000E-01
     13 T   1 H     3.283503500000E-01 -5.800507000000E-02 -4.956205600000E-01
     14 T   1 H    -4.832032300000E-01 -2.516993200000E-01 -4.956479100000E-01
     15 T   1 H    -3.852254200000E-01  4.414423700000E-01  4.964319100000E-01
     16 T   1 H     2.327724200000E-01  2.532150300000E-01  4.957242900000E-01
     17 T   1 H     3.296679100000E-01  1.564624400000E-01  4.956153500000E-01
     18 T   1 H    -4.818859900000E-01 -4.614112900000E-01  4.956426900000E-01
     19 T   6 C    -1.847634200000E-01  2.926206500000E-01  4.987453900000E-01
     20 T   6 C    -1.298257800000E-01  2.401403300000E-01  4.965407600000E-01
     21 T   6 C    -2.289750000000E-02  4.545985400000E-01  4.963503100000E-01
     22 T   6 C    -1.299213600000E-01  4.009297300000E-01  4.969218700000E-01
     23 T   6 C    -2.272123000000E-02  2.939393500000E-01  4.954520800000E-01
     24 T   6 C     3.165824000000E-02  4.012648100000E-01  4.969490600000E-01
     25 T   6 C     4.770008400000E-01 -4.592436000000E-02 -4.987506000000E-01
     26 T   6 C    -4.701995600000E-01 -1.012146100000E-01 -4.965460100000E-01
     27 T   6 C     3.153919800000E-01 -2.081659600000E-01 -4.963555000000E-01
     28 T   6 C     3.689687300000E-01 -1.010505600000E-01 -4.969270300000E-01
     29 T   6 C     4.761721200000E-01 -2.084816600000E-01 -4.954573500000E-01
     30 T   6 C     3.686132500000E-01 -2.626529800000E-01 -4.969542800000E-01
     31 T   6 C     4.773911400000E-01  2.925515100000E-01  4.987453900000E-01
     32 T   6 C    -4.691046800000E-01  4.009804600000E-01  4.965408000000E-01
     33 T   6 C     3.165377500000E-01  2.935852900000E-01  4.963502600000E-01
     34 T   6 C     3.699138000000E-01  2.399275500000E-01  4.969218100000E-01
     35 T   6 C     4.775953800000E-01  4.547873600000E-01  4.954521400000E-01
     36 T   6 C     3.695823300000E-01  4.011874100000E-01  4.969490600000E-01
     37 T   8 O     4.839783700000E-01  1.268384100000E-01  4.994258300000E-01
     38 T   8 O    -3.578002800000E-01  1.253986100000E-01 -4.958656000000E-01
     39 T   8 O    -3.567107800000E-01  2.865275300000E-01  4.970307300000E-01
     40 T   8 O     2.035662000000E-01 -4.338811200000E-01  4.994258500000E-01
     41 T   8 O     2.028619900000E-01  4.057158900000E-01 -4.958656100000E-01
     42 T   8 O     3.628736400000E-01 -4.331605000000E-01  4.970307100000E-01

 T = ATOM BELONGING TO THE ASYMMETRIC UNIT

 ****    1 SYMMOPS - TRANSLATORS IN FRACTIONAL UNITS
 **** MATRICES AND TRANSLATORS IN THE CRYSTALLOGRAPHIC REFERENCE FRAME
   V INV                    ROTATION MATRICES                   TRANSLATORS
   1   1  1.00 -0.00  0.00  0.00  1.00  0.00 -0.00  0.00  1.00  0.00  0.00  0.00

 DIRECT LATTICE VECTORS CARTESIAN COMPONENTS (ANGSTROM)
          X                    Y                    Z
   0.130113578931E+02  -0.751088897922E+01   0.000000000000E+00
   0.000000000000E+00   0.150239160000E+02   0.000000000000E+00
   0.199974632684E+01   0.346421694151E+01   0.450002356946E+01


 CARTESIAN COORDINATES - PRIMITIVE CELL
 *******************************************************************************
 *      ATOM          X(ANGSTROM)         Y(ANGSTROM)         Z(ANGSTROM)
 *******************************************************************************
    1     5 B    -7.026291900419E+00  2.852582661554E+00 -2.245246889772E+00
    2     5 B    -4.956761893359E+00  4.047632338357E+00 -2.245246844772E+00
    3     5 B     5.985010426158E+00 -2.268833677564E+00 -2.255290042374E+00
    4     5 B     9.571481354034E-01  4.048055353580E+00 -2.245246844772E+00
    5     5 B     3.027358986827E+00  2.852700898715E+00 -2.245246889772E+00
    6     5 B     3.027102394868E+00  5.243743145922E+00 -2.255290042374E+00
    7     1 H    -3.261285344820E+00  1.905338174487E+00 -2.266068453828E+00
    8     1 H     1.257341681531E+00 -5.367411032671E+00  2.230771168953E+00
    9     1 H    -1.262478425721E+00 -5.369863336974E+00  2.230281161387E+00
   10     1 H    -7.410820573951E-01  1.904172254706E+00 -2.269620187430E+00
   11     1 H    -4.020092965825E+00  3.777990312069E+00  2.266044873704E+00
   12     1 H     4.019590201190E+00 -3.771099335242E+00  2.269229000381E+00
   13     1 H     5.280914850636E+00 -1.590386523396E+00  2.269719367950E+00
   14     1 H    -5.278553921197E+00  1.594961428653E+00  2.269596292305E+00
   15     1 H    -4.019567920572E+00 -3.778589719761E+00  2.233955295631E+00
   16     1 H     2.020261765464E+00  3.090330788425E-01 -2.269252580505E+00
   17     1 H     3.280785811712E+00 -1.872718365870E+00 -2.269742813073E+00
   18     1 H    -5.278831430785E+00 -1.595798487251E+00  2.230403787029E+00
   19     6 C    -3.406405048326E+00  4.047590888536E+00 -2.255657559299E+00
   20     6 C    -2.696000453231E+00  2.838863137787E+00 -2.265578446261E+00
   21     6 C    -1.305099184950E+00  5.257079070402E+00 -2.266435475750E+00
   22     6 C    -2.696481955496E+00  5.256587715565E+00 -2.263863442279E+00
   23     6 C    -1.304601905037E+00  2.838913287231E+00 -2.270477531921E+00
   24     6 C    -5.940575785761E-01  4.048109684491E+00 -2.263741086638E+00
   25     6 C     7.208800291011E+00 -2.536227415828E+00  2.255634114176E+00
   26     6 C    -5.111154489080E+00  3.755050736050E+00  2.265554821137E+00
   27     6 C     5.110839167290E+00 -3.751608234419E+00  2.266412120628E+00
   28     6 C     5.806802521269E+00 -2.546704387538E+00  2.263840222157E+00
   29     6 C    -5.806754709967E+00  2.550047299360E+00  2.270453816797E+00
   30     6 C     1.802630096989E+00  3.123452116878E+00 -6.736329542400E+00
   31     6 C     5.209124912353E+00 -9.268172522579E-01 -2.255657559299E+00
   32     6 C     5.900878326353E+00  2.927090505792E-01 -2.265578266260E+00
   33     6 C     3.111414234332E+00  2.885688759221E-01 -2.266435700751E+00
   34     6 C     3.807052078813E+00 -9.165021150940E-01 -2.263863712280E+00
   35     6 C     5.205196687498E+00  1.497657973923E+00 -2.270477261919E+00
   36     6 C     3.802793697099E+00  1.508836509999E+00 -2.263741086638E+00
   37     8 O     5.296194426798E+00 -3.463595708192E+00 -2.252595563262E+00
   38     8 O    -5.647072909524E+00  2.853590350740E+00 -2.231406887283E+00
   39     8 O    -1.647609919401E+00 -2.853896174503E+00  6.736673569202E+00
   40     8 O     1.647651365354E+00  5.242261920104E+00 -2.252595473261E+00
   41     8 O     1.647904522582E+00  2.853981519361E+00 -2.231406932283E+00
   42     8 O     3.715667809803E+00  4.048250674483E+00 -2.263373659713E+00

 *******************************************************************************
 STARTING BASIS SET HANDLING 
 *******************************************************************************

 Loading internal basis set: SOLDEF2MSVP         

 Please cite in your publication:
 L. Dona', J. G. Brandenburg and B. Civalleri, J. Chem. Phys., 151, 121101 (2019
 )                                                                              
                                                                                
                    

 *******************************************************************************
 LOCAL ATOMIC FUNCTIONS BASIS SET
 *******************************************************************************
   ATOM   X(AU)   Y(AU)   Z(AU)  N. TYPE  EXPONENT  S COEF   P COEF   D/F/G COEF
 *******************************************************************************
   1 B  -13.278   5.391  -4.243
                                  1 S  
                                         2.410E+03 1.755E-03 0.000E+00 0.000E+00
                                         3.619E+02 1.344E-02 0.000E+00 0.000E+00
                                         8.231E+01 6.637E-02 0.000E+00 0.000E+00
                                         2.311E+01 2.303E-01 0.000E+00 0.000E+00
                                         7.252E+00 5.150E-01 0.000E+00 0.000E+00
                                  2 S  
                                         2.367E+00 1.000E+00 0.000E+00 0.000E+00
                                  3 S  
                                         5.533E-01 1.000E+00 0.000E+00 0.000E+00
                                  4 S  
                                         1.716E-01 1.000E+00 0.000E+00 0.000E+00
                           5-     7 P  
                                         6.002E+00 0.000E+00-3.555E-02 0.000E+00
                                         1.240E+00 0.000E+00-1.983E-01 0.000E+00
                                         3.367E-01 0.000E+00-5.048E-01 0.000E+00
                           8-    10 P  
                                         1.256E-01 0.000E+00 1.000E+00 0.000E+00
                          11-    15 D  
                                         8.880E-01 0.000E+00 0.000E+00 1.000E+00
   2 B   -9.367   7.649  -4.243
   3 B   11.310  -4.287  -4.262
   4 B    1.809   7.650  -4.243
   5 B    5.721   5.391  -4.243
   6 B    5.720   9.909  -4.262
   7 H   -6.163   3.601  -4.282
                                 91 S  
                                         1.874E+01 1.968E-02 0.000E+00 0.000E+00
                                         2.826E+00 1.380E-01 0.000E+00 0.000E+00
                                         6.401E-01 4.783E-01 0.000E+00 0.000E+00
                                 92 S  
                                         1.756E-01 1.000E+00 0.000E+00 0.000E+00
   8 H    2.376 -10.143   4.216
   9 H   -2.386 -10.148   4.215
  10 H   -1.400   3.598  -4.289
  11 H   -7.597   7.139   4.282
  12 H    7.596  -7.126   4.288
  13 H    9.979  -3.005   4.289
  14 H   -9.975   3.014   4.289
  15 H   -7.596  -7.140   4.222
  16 H    3.818   0.584  -4.288
  17 H    6.200  -3.539  -4.289
  18 H   -9.976  -3.016   4.215
  19 C   -6.437   7.649  -4.263
                                115 S  
                                         3.624E+03 1.634E-03 0.000E+00 0.000E+00
                                         5.440E+02 1.252E-02 0.000E+00 0.000E+00
                                         1.237E+02 6.211E-02 0.000E+00 0.000E+00
                                         3.476E+01 2.182E-01 0.000E+00 0.000E+00
                                         1.093E+01 4.980E-01 0.000E+00 0.000E+00
                                116 S  
                                         3.574E+00 1.000E+00 0.000E+00 0.000E+00
                                117 S  
                                         7.742E-01 1.000E+00 0.000E+00 0.000E+00
                                118 S  
                                         2.330E-01 1.000E+00 0.000E+00 0.000E+00
                         119-   121 P  
                                         9.443E+00 0.000E+00 3.790E-02 0.000E+00
                                         2.002E+00 0.000E+00 2.082E-01 0.000E+00
                                         5.463E-01 0.000E+00 5.047E-01 0.000E+00
                         122-   124 P  
                                         1.820E-01 0.000E+00 1.000E+00 0.000E+00
                         125-   129 D  
                                         8.880E-01 0.000E+00 0.000E+00 1.000E+00
  20 C   -5.095   5.365  -4.281
  21 C   -2.466   9.934  -4.283
  22 C   -5.096   9.934  -4.278
  23 C   -2.465   5.365  -4.291
  24 C   -1.123   7.650  -4.278
  25 C   13.623  -4.793   4.263
  26 C   -9.659   7.096   4.281
  27 C    9.658  -7.090   4.283
  28 C   10.973  -4.813   4.278
  29 C  -10.973   4.819   4.291
  30 C    3.406   5.902 -12.730
  31 C    9.844  -1.751  -4.263
  32 C   11.151   0.553  -4.281
  33 C    5.880   0.545  -4.283
  34 C    7.194  -1.732  -4.278
  35 C    9.836   2.830  -4.291
  36 C    7.186   2.851  -4.278
  37 O   10.008  -6.545  -4.257
                                385 S  
                                         6.773E+03 1.727E-03 0.000E+00 0.000E+00
                                         1.017E+03 1.325E-02 0.000E+00 0.000E+00
                                         2.313E+02 6.603E-02 0.000E+00 0.000E+00
                                         6.501E+01 2.353E-01 0.000E+00 0.000E+00
                                         2.050E+01 5.498E-01 0.000E+00 0.000E+00
                                386 S  
                                         6.716E+00 1.000E+00 0.000E+00 0.000E+00
                                387 S  
                                         1.147E+00 1.000E+00 0.000E+00 0.000E+00
                                388 S  
                                         3.342E-01 1.000E+00 0.000E+00 0.000E+00
                         389-   391 P  
                                         1.769E+01 0.000E+00 4.359E-02 0.000E+00
                                         3.854E+00 0.000E+00 2.318E-01 0.000E+00
                                         1.047E+00 0.000E+00 5.146E-01 0.000E+00
                         392-   394 P  
                                         2.759E-01 0.000E+00 1.000E+00 0.000E+00
                         395-   399 D  
                                         8.000E-01 0.000E+00 0.000E+00 1.000E+00
  38 O  -10.671   5.393  -4.217
  39 O   -3.114  -5.393  12.730
  40 O    3.114   9.906  -4.257
  41 O    3.114   5.393  -4.217
  42 O    7.022   7.650  -4.277

 *******************************************************************************
 FINISHED BASIS SET HANDLING 
 *******************************************************************************

 INFORMATION **** SET_MPP **** PCRYSTAL CALCULATION
 INFORMATION **** READM2 **** NEW DEFAULT: FOCK/KS MATRIX MIXING SET TO 30 %
 INFORMATION **** READM2 **** NEW DEFAULT: FULL DIRECT SCF MODE
 INFORMATION **** READM2 **** NEW DEFAULT: COULOMB BIPOLAR BUFFER SET TO 32 Mb
 INFORMATION **** READM2 **** NEW DEFAULT: EXCHANGE BIPOLAR BUFFER SET TO 32 Mb

 *******************************************************************************
 NEW DEFAULT: DFT INTEGRATION GRID INCREASED TO XLGRID
 NEW DEFAULT: DIIS ACCELERATOR ACTIVE
 USE KEYWORD NODIIS TO TURN IT OFF
 *******************************************************************************

 WARNING **** RDDFTP **** HSEsol-HJS ACTIVE
 RANGE SEPARATION - OMEGA:   0.110000000000000     
 WARNING **** RDDFTP **** HSEsol-3c has to be combined with sol-def2-mSVP basis set
 *******************************************************************************
 N. OF ATOMS PER CELL        42  COULOMB OVERLAP TOL         (T1) 10**   -6
 NUMBER OF SHELLS           234  COULOMB PENETRATION TOL     (T2) 10**   -6
 NUMBER OF AO               474  EXCHANGE OVERLAP TOL        (T3) 10**   -6
 N. OF ELECTRONS PER CELL   198  EXCHANGE PSEUDO OVP (F(G))  (T4) 10**   -6
 CORE ELECTRONS PER CELL     60  EXCHANGE PSEUDO OVP (P(G))  (T5) 10**  -12
 N. OF SYMMETRY OPERATORS     1  POLE ORDER IN MONO ZONE                  4
 *******************************************************************************
 TYPE OF CALCULATION :  RESTRICTED CLOSED SHELL
 KOHN-SHAM HAMILTONIAN

 (EXCHANGE)[CORRELATION] FUNCTIONAL:(HSEsol GGA)[PBEsol]

 RANGE-SEPARATED HYBRID FUNCTIONAL 
 OMEGA (SHORT-RANGE)[LONG-RANGE]:(    0.1100)[    0.0000]

 HYBRID EXCHANGE - PERCENTAGE OF FOCK EXCHANGE    25.0000

 CAPPA:IS1  2;IS2  2;IS3  8; K PTS MONK NET  20; SYMMOPS:K SPACE   2;G SPACE   1

 *******************************************************************************
 MAX NUMBER OF SCF CYCLES      50  CONVERGENCE ON DELTAP        10**-16
 WEIGHT OF F(I) IN F(I+1)      30% CONVERGENCE ON ENERGY        10**- 6
 SHRINK. FACT.(MONKH.)    2  2  8  NUMBER OF K POINTS IN THE IBZ     20
 SHRINKING FACTOR(GILAT NET)    8  NUMBER OF K POINTS(GILAT NET)   1028
 *******************************************************************************
 *** K POINTS COORDINATES (OBLIQUE COORDINATES IN UNITS OF IS =  2)
   1-R(  0  0  0)   2-R(  1  0  0)   3-R(  0  1  0)   4-R(  1  1  0)
   5-C(  0  0  1)   6-C(  1  0  1)   7-C(  0  1  1)   8-C(  1  1  1)
   9-C(  0  0  2)  10-C(  1  0  2)  11-C(  0  1  2)  12-C(  1  1  2)
  13-C(  0  0  3)  14-C(  1  0  3)  15-C(  0  1  3)  16-C(  1  1  3)
  17-R(  0  0  4)  18-R(  1  0  4)  19-R(  0  1  4)  20-R(  1  1  4)

 DIRECT LATTICE VECTORS COMPON. (A.U.)     RECIP. LATTICE VECTORS COMPON. (A.U.) 
        X            Y            Z              X            Y            Z
   24.5879030  -14.1935232    0.0000000      0.2555397    0.0000000   -0.1135582
    0.0000000   28.3910867    0.0000000      0.1277517    0.2213084   -0.2271391
    3.7789729    6.5464213    8.5038121      0.0000000    0.0000000    0.7388669

 DISK SPACE FOR EIGENVECTORS (FTN 10)     7189632 REALS

 SYMMETRY ADAPTION OF THE BLOCH FUNCTIONS DISABLED
 TTTTTTTTTTTTTTTTTTTTTTTTTTTTTT gordsh1     TELAPSE        0.04 TCPU        0.04

 MATRIX SIZE: P(G)  280578, F(G)   56567, P(G) IRR  141372, F(G) IRR   57191
 MAX G-VECTOR INDEX FOR 1- AND 2-ELECTRON INTEGRALS  47

 TTTTTTTTTTTTTTTTTTTTTTTTTTTTTT INPUT       TELAPSE        0.33 TCPU        0.33

 NEIGHBORS OF THE NON-EQUIVALENT ATOMS

 N = NUMBER OF NEIGHBORS AT DISTANCE R
    ATOM  N     R/ANG      R/AU   NEIGHBORS (ATOM LABELS AND CELL INDICES)
   1 B    1     1.3791     2.6061   37 O   -1 0 0
   1 B    1     1.3793     2.6065   38 O    0 0 0
   1 B    1     1.5503     2.9297   25 C   -1 0-1
   1 B    1     2.3895     4.5155    3 B   -1 0 0
   1 B    1     2.3898     4.5160    2 B    0 0 0
   1 B    1     2.5632     4.8437   26 C    0 0-1

   2 B    1     1.3793     2.6065   39 O    0 1-2
   2 B    1     1.3793     2.6065   38 O    0 0 0
   2 B    1     1.5504     2.9298   19 C    0 0 0
   2 B    1     2.3895     4.5156    3 B   -1 0 0
   2 B    1     2.3898     4.5160    1 B    0 0 0
   2 B    1     2.5634     4.8440   22 C    0 0 0

   3 B    1     1.3791     2.6061   37 O    0 0 0
   3 B    1     1.3793     2.6064   39 O    1 1-2
   3 B    1     1.5502     2.9294   31 C    0 0 0
   3 B    1     2.3895     4.5155    1 B    1 0 0
   3 B    1     2.3895     4.5156    2 B    1 0 0
   3 B    1     2.5629     4.8433   32 C    0 0 0

   4 B    1     1.3795     2.6068   40 O    0 0 0
   4 B    1     1.3795     2.6070   41 O    0 0 0
   4 B    1     1.5513     2.9316   24 C    0 0 0
   4 B    1     2.3905     4.5174    6 B    0 0 0
   4 B    1     2.3905     4.5175    5 B    0 0 0
   4 B    1     2.5648     4.8468   23 C    0 0 0

   5 B    1     1.3795     2.6069   41 O    0 0 0
   5 B    1     1.3797     2.6072   42 O    0 0 0
   5 B    1     1.5516     2.9322   36 C    0 0 0
   5 B    1     2.3905     4.5175    4 B    0 0 0
   5 B    1     2.3911     4.5185    6 B    0 0 0
   5 B    1     2.5651     4.8473   35 C    0 0 0

   6 B    1     1.3795     2.6068   40 O    0 0 0
   6 B    1     1.3796     2.6071   42 O    0 0 0
   6 B    1     1.5516     2.9322   30 C    0 0 1
   6 B    1     2.3905     4.5174    4 B    0 0 0
   6 B    1     2.3911     4.5185    5 B    0 0 0
   6 B    1     2.5651     4.8473   29 C    1 1-1

   7 H    1     1.0913     2.0623   20 C    0 0 0
   7 H    1     2.1472     4.0576   19 C    0 0 0
   7 H    1     2.1680     4.0969   23 C    0 0 0
   7 H    1     2.5202     4.7625   10 H    0 0 0
   7 H    1     2.5676     4.8520   38 O    0 0 0
   7 H    1     2.7321     5.1630    2 B    0 0 0

   8 H    1     1.0914     2.0625   21 C    0-1 1
   8 H    1     2.1493     4.0616   24 C    0-1 1
   8 H    1     2.1666     4.0942   22 C    0-1 1
   8 H    1     2.5198     4.7618    9 H    0 0 0
   8 H    1     2.5720     4.8604   40 O    0-1 1
   8 H    1     2.7362     5.1707    4 B    0-1 1

   9 H    1     1.0914     2.0624   22 C    0-1 1
   9 H    1     2.1471     4.0575   19 C    0-1 1
   9 H    1     2.1680     4.0970   21 C    0-1 1
   9 H    1     2.5198     4.7618    8 H    0 0 0
   9 H    1     2.5665     4.8500   39 O    0 0-1
   9 H    1     2.7315     5.1618    2 B    0-1 1

  10 H    1     1.0915     2.0626   23 C    0 0 0
  10 H    1     2.1490     4.0610   24 C    0 0 0
  10 H    1     2.1669     4.0948   20 C    0 0 0
  10 H    1     2.5202     4.7625    7 H    0 0 0
  10 H    1     2.5712     4.8588   41 O    0 0 0
  10 H    1     2.7351     5.1686    4 B    0 0 0

  11 H    1     1.0913     2.0623   26 C    0 0 0
  11 H    1     2.1469     4.0571   25 C   -1 0 0
  11 H    1     2.1680     4.0968   29 C    0 0 0
  11 H    1     2.5198     4.7617   14 H    0 0 0
  11 H    1     2.5670     4.8510   38 O    0 0 1
  11 H    1     2.7310     5.1609    1 B    0 0 1

  12 H    1     1.0914     2.0625   27 C    0 0 0
  12 H    1     2.1493     4.0617   30 C    0-1 2
  12 H    1     2.1664     4.0939   28 C    0 0 0
  12 H    1     2.5192     4.7606   13 H    0 0 0
  12 H    1     2.5735     4.8632   40 O    0-1 1
  12 H    1     2.7371     5.1723    6 B    0-1 1

  13 H    1     1.0914     2.0624   28 C    0 0 0
  13 H    1     2.1475     4.0581   25 C    0 0 0
  13 H    1     2.1679     4.0967   27 C    0 0 0
  13 H    1     2.5192     4.7606   12 H    0 0 0
  13 H    1     2.5675     4.8519   37 O    0 0 1
  13 H    1     2.7328     5.1643    1 B    1 0 1

  14 H    1     1.0914     2.0625   29 C    0 0 0
  14 H    1     2.1491     4.0612   30 C   -1-1 2
  14 H    1     2.1666     4.0942   26 C    0 0 0
  14 H    1     2.5198     4.7617   11 H    0 0 0
  14 H    1     2.5723     4.8609   42 O   -1-1 1
  14 H    1     2.7355     5.1693    6 B   -1-1 1

  15 H    1     1.0914     2.0624   32 C   -1-1 1
  15 H    1     2.1475     4.0582   31 C   -1-1 1
  15 H    1     2.1678     4.0966   35 C   -1-1 1
  15 H    1     2.5200     4.7621   18 H    0 0 0
  15 H    1     2.5667     4.8503   39 O    0 0-1
  15 H    1     2.7315     5.1618    3 B   -1-1 1

  16 H    1     1.0913     2.0623   33 C    0 0 0
  16 H    1     2.1487     4.0605   36 C    0 0 0
  16 H    1     2.1667     4.0945   34 C    0 0 0
  16 H    1     2.5197     4.7616   17 H    0 0 0
  16 H    1     2.5723     4.8610   41 O    0 0 0
  16 H    1     2.7359     5.1701    5 B    0 0 0

  17 H    1     1.0915     2.0626   34 C    0 0 0
  17 H    1     2.1479     4.0589   31 C    0 0 0
  17 H    1     2.1679     4.0968   33 C    0 0 0
  17 H    1     2.5197     4.7616   16 H    0 0 0
  17 H    1     2.5677     4.8522   37 O    0 0 0
  17 H    1     2.7331     5.1648    3 B    0 0 0

  18 H    1     1.0914     2.0624   35 C   -1-1 1
  18 H    1     2.1486     4.0602   36 C   -1-1 1
  18 H    1     2.1668     4.0947   32 C   -1-1 1
  18 H    1     2.5200     4.7621   15 H    0 0 0
  18 H    1     2.5717     4.8598   42 O   -1-1 1
  18 H    1     2.7349     5.1682    5 B   -1-1 1

  19 C    1     1.4020     2.6495   22 C    0 0 0
  19 C    1     1.4021     2.6495   20 C    0 0 0
  19 C    1     1.5504     2.9298    2 B    0 0 0
  19 C    1     2.1471     4.0575    9 H    0 1-1
  19 C    1     2.1472     4.0576    7 H    0 0 0
  19 C    1     2.4246     4.5817   21 C    0 0 0

  20 C    1     1.0913     2.0623    7 H    0 0 0
  20 C    1     1.3914     2.6294   23 C    0 0 0
  20 C    1     1.4021     2.6495   19 C    0 0 0
  20 C    1     2.1669     4.0948   10 H    0 0 0
  20 C    1     2.4177     4.5688   22 C    0 0 0
  20 C    1     2.4250     4.5825   24 C    0 0 0

  21 C    1     1.0914     2.0625    8 H    0 1-1
  21 C    1     1.3914     2.6293   22 C    0 0 0
  21 C    1     1.4026     2.6505   24 C    0 0 0
  21 C    1     2.1680     4.0970    9 H    0 1-1
  21 C    1     2.4182     4.5697   23 C    0 0 0
  21 C    1     2.4246     4.5817   19 C    0 0 0

  22 C    1     1.0914     2.0624    9 H    0 1-1
  22 C    1     1.3914     2.6293   21 C    0 0 0
  22 C    1     1.4020     2.6495   19 C    0 0 0
  22 C    1     2.1666     4.0942    8 H    0 1-1
  22 C    1     2.4177     4.5688   20 C    0 0 0
  22 C    1     2.4250     4.5826   24 C    0 0 0

  23 C    1     1.0915     2.0626   10 H    0 0 0
  23 C    1     1.3914     2.6294   20 C    0 0 0
  23 C    1     1.4025     2.6504   24 C    0 0 0
  23 C    1     2.1680     4.0969    7 H    0 0 0
  23 C    1     2.4182     4.5697   21 C    0 0 0
  23 C    1     2.4246     4.5818   19 C    0 0 0

  24 C    1     1.4025     2.6504   23 C    0 0 0
  24 C    1     1.4026     2.6505   21 C    0 0 0
  24 C    1     1.5513     2.9316    4 B    0 0 0
  24 C    1     2.1490     4.0610   10 H    0 0 0
  24 C    1     2.1493     4.0616    8 H    0 1-1
  24 C    1     2.4250     4.5825   20 C    0 0 0

  25 C    1     1.4020     2.6494   26 C    1 0 0
  25 C    1     1.4021     2.6495   28 C    0 0 0
  25 C    1     1.5503     2.9297    1 B    1 0 1
  25 C    1     2.1469     4.0571   11 H    1 0 0
  25 C    1     2.1475     4.0581   13 H    0 0 0
  25 C    1     2.4246     4.5818   27 C    0 0 0

  26 C    1     1.0913     2.0623   11 H    0 0 0
  26 C    1     1.3914     2.6293   29 C    0 0 0
  26 C    1     1.4020     2.6494   25 C   -1 0 0
  26 C    1     2.1666     4.0942   14 H    0 0 0
  26 C    1     2.4175     4.5684   28 C   -1 0 0
  26 C    1     2.4251     4.5828   30 C   -1-1 2

  27 C    1     1.0914     2.0625   12 H    0 0 0
  27 C    1     1.3915     2.6295   28 C    0 0 0
  27 C    1     1.4026     2.6505   30 C    0-1 2
  27 C    1     2.1679     4.0967   13 H    0 0 0
  27 C    1     2.4179     4.5691   29 C    1 0 0
  27 C    1     2.4246     4.5818   25 C    0 0 0

  28 C    1     1.0914     2.0624   13 H    0 0 0
  28 C    1     1.3915     2.6295   27 C    0 0 0
  28 C    1     1.4021     2.6495   25 C    0 0 0
  28 C    1     2.1664     4.0939   12 H    0 0 0
  28 C    1     2.4175     4.5684   26 C    1 0 0
  28 C    1     2.4253     4.5832   30 C    0-1 2

  29 C    1     1.0914     2.0625   14 H    0 0 0
  29 C    1     1.3914     2.6293   26 C    0 0 0
  29 C    1     1.4025     2.6504   30 C   -1-1 2
  29 C    1     2.1680     4.0968   11 H    0 0 0
  29 C    1     2.4179     4.5691   27 C   -1 0 0
  29 C    1     2.4247     4.5819   25 C   -1 0 0

  30 C    1     1.4025     2.6504   29 C    1 1-2
  30 C    1     1.4026     2.6505   27 C    0 1-2
  30 C    1     1.5516     2.9322    6 B    0 0-1
  30 C    1     2.1491     4.0612   14 H    1 1-2
  30 C    1     2.1493     4.0617   12 H    0 1-2
  30 C    1     2.4251     4.5828   26 C    1 1-2

  31 C    1     1.4021     2.6496   32 C    0 0 0
  31 C    1     1.4021     2.6497   34 C    0 0 0
  31 C    1     1.5502     2.9294    3 B    0 0 0
  31 C    1     2.1475     4.0582   15 H    1 1-1
  31 C    1     2.1479     4.0589   17 H    0 0 0
  31 C    1     2.4244     4.5814   33 C    0 0 0

  32 C    1     1.0914     2.0624   15 H    1 1-1
  32 C    1     1.3914     2.6293   35 C    0 0 0
  32 C    1     1.4021     2.6496   31 C    0 0 0
  32 C    1     2.1668     4.0947   18 H    1 1-1
  32 C    1     2.4179     4.5692   34 C    0 0 0
  32 C    1     2.4251     4.5827   36 C    0 0 0

  33 C    1     1.0913     2.0623   16 H    0 0 0
  33 C    1     1.3914     2.6294   34 C    0 0 0
  33 C    1     1.4025     2.6504   36 C    0 0 0
  33 C    1     2.1679     4.0968   17 H    0 0 0
  33 C    1     2.4178     4.5690   35 C    0 0 0
  33 C    1     2.4244     4.5814   31 C    0 0 0

  34 C    1     1.0915     2.0626   17 H    0 0 0
  34 C    1     1.3914     2.6294   33 C    0 0 0
  34 C    1     1.4021     2.6497   31 C    0 0 0
  34 C    1     2.1667     4.0945   16 H    0 0 0
  34 C    1     2.4179     4.5692   32 C    0 0 0
  34 C    1     2.4253     4.5832   36 C    0 0 0

  35 C    1     1.0914     2.0624   18 H    1 1-1
  35 C    1     1.3914     2.6293   32 C    0 0 0
  35 C    1     1.4025     2.6503   36 C    0 0 0
  35 C    1     2.1678     4.0966   15 H    1 1-1
  35 C    1     2.4178     4.5690   33 C    0 0 0
  35 C    1     2.4245     4.5817   31 C    0 0 0

  36 C    1     1.4025     2.6503   35 C    0 0 0
  36 C    1     1.4025     2.6504   33 C    0 0 0
  36 C    1     1.5516     2.9322    5 B    0 0 0
  36 C    1     2.1486     4.0602   18 H    1 1-1
  36 C    1     2.1487     4.0605   16 H    0 0 0
  36 C    1     2.4251     4.5827   32 C    0 0 0

  37 O    1     1.3791     2.6061    3 B    0 0 0
  37 O    1     1.3791     2.6061    1 B    1 0 0
  37 O    1     2.3880     4.5126   38 O    1 0 0
  37 O    1     2.3882     4.5130   39 O    1 1-2
  37 O    1     2.5383     4.7966   31 C    0 0 0
  37 O    1     2.5384     4.7968   25 C    0 0-1

  38 O    1     1.3793     2.6065    1 B    0 0 0
  38 O    1     1.3793     2.6065    2 B    0 0 0
  38 O    1     2.3880     4.5126   37 O   -1 0 0
  38 O    1     2.3882     4.5131   39 O    0 1-2
  38 O    1     2.5391     4.7981   19 C    0 0 0
  38 O    1     2.5395     4.7990   25 C   -1 0-1

  39 O    1     1.3793     2.6064    3 B   -1-1 2
  39 O    1     1.3793     2.6065    2 B    0-1 2
  39 O    1     2.3882     4.5130   37 O   -1-1 2
  39 O    1     2.3882     4.5131   38 O    0-1 2
  39 O    1     2.5390     4.7980   19 C    0-1 2
  39 O    1     2.5391     4.7982   31 C   -1-1 2

  40 O    1     1.3795     2.6068    6 B    0 0 0
  40 O    1     1.3795     2.6068    4 B    0 0 0
  40 O    1     2.3880     4.5126   42 O    0 0 0
  40 O    1     2.3884     4.5134   41 O    0 0 0
  40 O    1     2.5400     4.7998   24 C    0 0 0
  40 O    1     2.5403     4.8005   30 C    0 0 1

  41 O    1     1.3795     2.6069    5 B    0 0 0
  41 O    1     1.3795     2.6070    4 B    0 0 0
  41 O    1     2.3881     4.5128   42 O    0 0 0
  41 O    1     2.3884     4.5134   40 O    0 0 0
  41 O    1     2.5404     4.8006   24 C    0 0 0
  41 O    1     2.5405     4.8008   36 C    0 0 0

  42 O    1     1.3796     2.6071    6 B    0 0 0
  42 O    1     1.3797     2.6072    5 B    0 0 0
  42 O    1     2.3880     4.5126   40 O    0 0 0
  42 O    1     2.3881     4.5128   41 O    0 0 0
  42 O    1     2.5409     4.8016   36 C    0 0 0
  42 O    1     2.5410     4.8019   30 C    0 0 1


 SYMMETRY ALLOWED INTERNAL DEGREE(S) OF FREEDOM: 123
 TTTTTTTTTTTTTTTTTTTTTTTTTTTTTT SYMM        TELAPSE        0.33 TCPU        0.33
 TTTTTTTTTTTTTTTTTTTTTTTTTTTTTT INT_SCREEN  TELAPSE        0.37 TCPU        0.36

 DFT PARAMETERS

     ATOM       ELECTRONS   NET CHARGE   R(ANGSTROM)
   1   5  B       5.0000      0.0000     0.89000000
   7   1  H       1.0000      0.0000     1.11000000
  19   6  C       6.0000      0.0000     0.77000000
  37   8  O       8.0000      0.0000     0.74000000

 SIZE OF GRID=    1339668
 TTTTTTTTTTTTTTTTTTTTTTTTTTTTTT MAKE_GRID2  TELAPSE        7.58 TCPU        7.57
 BECKE WEIGHT FUNCTION
 RADSAFE =     2.00
 TOLERANCES - DENSITY:10**- 6; POTENTIAL:10**- 9; GRID WGT:10**-14

 RADIAL INTEGRATION  - INTERVALS (POINTS,UPPER LIMIT):            1( 75,  4.0*R)

 ANGULAR INTEGRATION - INTERVALS (ACCURACY LEVEL [N. POINTS] UPPER LIMIT):
  1(  4[  86]   0.2)  2(  8[ 194]   0.5)  3( 12[ 350]   0.9)  4( 16[ 974]   3.5)
  5( 12[ 350]9999.0)
 TTTTTTTTTTTTTTTTTTTTTTTTTTTTTT INT_CALC    TELAPSE        7.65 TCPU        7.64
 EEEEEEEEEE INT_CALC TERMINATION  DATE 19 02 2026 TIME 19:22:46.2

 *******************************************************************************
 cof-1_z45_L040_incl                                                             
 CRYSTAL - SCF - TYPE OF CALCULATION :  RESTRICTED CLOSED SHELL
 *******************************************************************************

 CAPPA:IS1  2;IS2  2;IS3  8; K PTS MONK NET  20; SYMMOPS:K SPACE   2;G SPACE   1

 TTTTTTTTTTTTTTTTTTTTTTTTTTTTTT SDIK        TELAPSE        8.30 TCPU       15.90

 AAAAAAAAAAAAAAAAAAAAAAAAAAAAAAAAAAAAAAAAAAAAAAAAAAAAAAAAAAAAAAAAAAAAAAAAAAAAAAA
         ATOMIC WAVEFUNCTION(S)


 NUCLEAR CHARGE  5.0  SYMMETRY SPECIES            S    P
 N. ELECTRONS    5.0  NUMBER OF PRIMITIVE GTOS    8    4
                      NUMBER OF CONTRACTED GTOS   4    2
                      NUMBER OF CLOSED SHELLS     2    0
                      OPEN SHELL OCCUPATION       0    1

  ZNUC  SCFIT    TOTAL HF ENERGY   KINETIC ENERGY   VIRIAL THEOREM ACCURACY
   5.0    11    -2.451164084E+01  2.462155050E+01 -1.995536038E+00  1.5E-06

 NUCLEAR CHARGE  1.0  SYMMETRY SPECIES            S
 N. ELECTRONS    1.0  NUMBER OF PRIMITIVE GTOS    4
                      NUMBER OF CONTRACTED GTOS   2
                      NUMBER OF CLOSED SHELLS     0
                      OPEN SHELL OCCUPATION       1

  ZNUC  SCFIT    TOTAL HF ENERGY   KINETIC ENERGY   VIRIAL THEOREM ACCURACY
   1.0     1    -4.977266687E-01  5.190767460E-01 -1.958869132E+00  0.0E+00

 NUCLEAR CHARGE  6.0  SYMMETRY SPECIES            S    P
 N. ELECTRONS    6.0  NUMBER OF PRIMITIVE GTOS    8    4
                      NUMBER OF CONTRACTED GTOS   4    2
                      NUMBER OF CLOSED SHELLS     2    0
                      OPEN SHELL OCCUPATION       0    2

  ZNUC  SCFIT    TOTAL HF ENERGY   KINETIC ENERGY   VIRIAL THEOREM ACCURACY
   6.0     9    -3.766704647E+01  3.775180683E+01 -1.997754800E+00  1.1E-06

 NUCLEAR CHARGE  8.0  SYMMETRY SPECIES            S    P
 N. ELECTRONS    8.0  NUMBER OF PRIMITIVE GTOS    8    4
                      NUMBER OF CONTRACTED GTOS   4    2
                      NUMBER OF CLOSED SHELLS     2    0
                      OPEN SHELL OCCUPATION       0    4

  ZNUC  SCFIT    TOTAL HF ENERGY   KINETIC ENERGY   VIRIAL THEOREM ACCURACY
   8.0    12    -7.477373220E+01  7.477365593E+01 -2.000001020E+00  3.8E-06

 AAAAAAAAAAAAAAAAAAAAAAAAAAAAAAAAAAAAAAAAAAAAAAAAAAAAAAAAAAAAAAAAAAAAAAAAAAAAAAA

 CHARGE NORMALIZATION FACTOR   1.00000000
 TOTAL ATOMIC CHARGES:
   5.0000000   5.0000000   5.0000000   5.0000000   5.0000000   5.0000000
   1.0000000   1.0000000   1.0000000   1.0000000   1.0000000   1.0000000
   1.0000000   1.0000000   1.0000000   1.0000000   1.0000000   1.0000000
   6.0000000   6.0000000   6.0000000   6.0000000   6.0000000   6.0000000
   6.0000000   6.0000000   6.0000000   6.0000000   6.0000000   6.0000000
   6.0000000   6.0000000   6.0000000   6.0000000   6.0000000   6.0000000
   8.0000000   8.0000000   8.0000000   8.0000000   8.0000000   8.0000000
 TTTTTTTTTTTTTTTTTTTTTTTTTTTTTT MOQGAD      TELAPSE        8.34 TCPU       17.19
 TTTTTTTTTTTTTTTTTTTTTTTTTTTTTT SHELLXN     TELAPSE       13.05 TCPU      167.83
 TTTTTTTTTTTTTTTTTTTTTTTTTTTTTT MONMO3      TELAPSE       13.18 TCPU      171.89
 NUMERICALLY INTEGRATED DENSITY    197.9999846445
 TTTTTTTTTTTTTTTTTTTTTTTTTTTTTT NUMDFT      TELAPSE       13.67 TCPU      187.61
 CYC   0 ETOT(AU) -1.295954001077E+03 DETOT -1.30E+03 tst  0.00E+00 PX  1.00E+00
 TTTTTTTTTTTTTTTTTTTTTTTTTTTTTT DIIS        TELAPSE       13.71 TCPU      188.67
 TTTTTTTTTTTTTTTTTTTTTTTTTTTTTT FDIK        TELAPSE       14.20 TCPU      204.45
 INSULATING STATE
 TOP OF VALENCE BANDS -    BAND     99; K   17; EIG -3.1476713E-01 AU
 TOP OF VALENCE BANDS -    BAND     99; K    1; EIG -3.1538743E-01 AU
 BOTTOM OF VIRTUAL BANDS - BAND    100; K   17; EIG -1.5667033E-01 AU
 DIRECT ENERGY BAND GAP:   4.3020 eV
 BOTTOM OF VIRTUAL BANDS - BAND    100; K    1; EIG -1.5636096E-01 AU
 TTTTTTTTTTTTTTTTTTTTTTTTTTTTTT PDIG        TELAPSE       14.53 TCPU      210.25
 CHARGE NORMALIZATION FACTOR   1.00000000
 TOTAL ATOMIC CHARGES:
   4.1636900   4.1666431   4.1668809   4.1665037   4.1662850   4.1634528
   0.7850666   0.7851846   0.7850133   0.7851273   0.7851966   0.7853667
   0.7851866   0.7853305   0.7850142   0.7851926   0.7850195   0.7851779
   6.0429498   6.2652297   6.2651914   6.2649901   6.2649509   6.0422428
   6.0435204   6.2649522   6.2650314   6.2648626   6.2650522   6.0422892
   6.0433130   6.2647567   6.2653149   6.2648600   6.2654693   6.0417836
   8.6909775   8.6910959   8.6911964   8.6914234   8.6916117   8.6916030
 TTTTTTTTTTTTTTTTTTTTTTTTTTTTTT MOQGAD      TELAPSE       14.57 TCPU      210.29
 TTTTTTTTTTTTTTTTTTTTTTTTTTTTTT SHELLXN     TELAPSE       19.49 TCPU      366.86
 TTTTTTTTTTTTTTTTTTTTTTTTTTTTTT MONMO3      TELAPSE       19.62 TCPU      370.91
 NUMERICALLY INTEGRATED DENSITY    197.9999939359
 TTTTTTTTTTTTTTTTTTTTTTTTTTTTTT NUMDFT      TELAPSE       20.11 TCPU      386.78
 CYC   1 ETOT(AU) -1.288812858064E+03 DETOT  7.14E+00 tst  0.00E+00 PX  1.00E+00
 TTTTTTTTTTTTTTTTTTTTTTTTTTTTTT DIIS        TELAPSE       20.16 TCPU      388.23
 DIIS TEST: 0.11046E+01 AT SCF   CYCLE   1 - MIX   30 %
 TTTTTTTTTTTTTTTTTTTTTTTTTTTTTT FDIK        TELAPSE       20.66 TCPU      404.35
 INSULATING STATE
 TOP OF VALENCE BANDS -    BAND     99; K   17; EIG -2.2723014E-01 AU
 TOP OF VALENCE BANDS -    BAND     99; K    1; EIG -2.2883488E-01 AU
 BOTTOM OF VIRTUAL BANDS - BAND    100; K   17; EIG -7.8688179E-02 AU
 DIRECT ENERGY BAND GAP:   4.0420 eV
 BOTTOM OF VIRTUAL BANDS - BAND    100; K    1; EIG -7.8006423E-02 AU
 TTTTTTTTTTTTTTTTTTTTTTTTTTTTTT PDIG        TELAPSE       20.96 TCPU      410.16
 CHARGE NORMALIZATION FACTOR   1.00000000
 TOTAL ATOMIC CHARGES:
   4.6979019   4.7047759   4.7047708   4.7049281   4.7050225   4.6975631
   0.9086522   0.9086993   0.9142647   0.9144876   0.9063039   0.9061806
   0.9063042   0.9061396   0.9142809   0.9145520   0.9086016   0.9086272
   5.8671294   6.1313783   6.1317613   6.1392210   6.1396660   5.8696047
   5.8762225   6.1383585   6.1392755   6.1389096   6.1385876   5.8789579
   5.8669143   6.1390434   6.1398423   6.1317491   6.1314550   5.8697692
   8.3306325   8.3308803   8.3388828   8.3303838   8.3387499   8.3305692
 TTTTTTTTTTTTTTTTTTTTTTTTTTTTTT MOQGAD      TELAPSE       21.00 TCPU      410.20
 TTTTTTTTTTTTTTTTTTTTTTTTTTTTTT SHELLXN     TELAPSE       25.92 TCPU      566.72
 TTTTTTTTTTTTTTTTTTTTTTTTTTTTTT MONMO3      TELAPSE       26.05 TCPU      570.77
 NUMERICALLY INTEGRATED DENSITY    197.9999922938
 TTTTTTTTTTTTTTTTTTTTTTTTTTTTTT NUMDFT      TELAPSE       26.55 TCPU      586.72
 CYC   2 ETOT(AU) -1.289008549826E+03 DETOT -1.96E-01 tst  4.07E-03 PX  1.59E-01
 TTTTTTTTTTTTTTTTTTTTTTTTTTTTTT DIIS        TELAPSE       26.59 TCPU      588.13
 DIIS TEST: 0.45297E+00 AT SCF   CYCLE   2 - DIIS ACTIVE - HISTORY:     2 CYCLES
 TTTTTTTTTTTTTTTTTTTTTTTTTTTTTT FDIK        TELAPSE       27.09 TCPU      604.12
 INSULATING STATE
 TOP OF VALENCE BANDS -    BAND     99; K   17; EIG -2.3959411E-01 AU
 TOP OF VALENCE BANDS -    BAND     99; K    1; EIG -2.3999182E-01 AU
 BOTTOM OF VIRTUAL BANDS - BAND    100; K   17; EIG -7.4478485E-02 AU
 DIRECT ENERGY BAND GAP:   4.4930 eV
 BOTTOM OF VIRTUAL BANDS - BAND    100; K    1; EIG -7.3817424E-02 AU
 TTTTTTTTTTTTTTTTTTTTTTTTTTTTTT PDIG        TELAPSE       27.39 TCPU      609.93
 CHARGE NORMALIZATION FACTOR   1.00000000
 TOTAL ATOMIC CHARGES:
   4.4952765   4.5014474   4.5015354   4.5012363   4.5011058   4.4947614
   0.8873887   0.8875678   0.8918224   0.8920529   0.8860981   0.8862645
   0.8862019   0.8861174   0.8917945   0.8921503   0.8873936   0.8874619
   5.8911400   6.1606893   6.1604462   6.1580295   6.1571292   5.8907491
   5.8969499   6.1609718   6.1604963   6.1608047   6.1605654   5.8967375
   5.8914091   6.1580080   6.1572387   6.1605013   6.1606268   5.8904305
   8.5119030   8.5121781   8.5102934   8.5122422   8.5102560   8.5125274
 TTTTTTTTTTTTTTTTTTTTTTTTTTTTTT MOQGAD      TELAPSE       27.43 TCPU      609.97
 TTTTTTTTTTTTTTTTTTTTTTTTTTTTTT SHELLXN     TELAPSE       32.35 TCPU      766.58
 TTTTTTTTTTTTTTTTTTTTTTTTTTTTTT MONMO3      TELAPSE       32.47 TCPU      770.62
 NUMERICALLY INTEGRATED DENSITY    197.9999922135
 TTTTTTTTTTTTTTTTTTTTTTTTTTTTTT NUMDFT      TELAPSE       32.97 TCPU      786.48
 CYC   3 ETOT(AU) -1.289102207868E+03 DETOT -9.37E-02 tst  7.10E-04 PX  6.45E-02
 TTTTTTTTTTTTTTTTTTTTTTTTTTTTTT DIIS        TELAPSE       33.03 TCPU      788.26
 DIIS TEST: 0.13859E-01 AT SCF   CYCLE   3 - DIIS ACTIVE - HISTORY:     3 CYCLES
 TTTTTTTTTTTTTTTTTTTTTTTTTTTTTT FDIK        TELAPSE       33.53 TCPU      804.23
 INSULATING STATE
 TOP OF VALENCE BANDS -    BAND     99; K   17; EIG -2.4964331E-01 AU
 TOP OF VALENCE BANDS -    BAND     99; K    1; EIG -2.5138942E-01 AU
 BOTTOM OF VIRTUAL BANDS - BAND    100; K   17; EIG -8.3162416E-02 AU
 DIRECT ENERGY BAND GAP:   4.5302 eV
 BOTTOM OF VIRTUAL BANDS - BAND    100; K    1; EIG -8.2010790E-02 AU
 TTTTTTTTTTTTTTTTTTTTTTTTTTTTTT PDIG        TELAPSE       33.83 TCPU      810.04
 CHARGE NORMALIZATION FACTOR   1.00000000
 TOTAL ATOMIC CHARGES:
   4.5012912   4.5062163   4.5062663   4.5061416   4.5060623   4.5009323
   0.8704063   0.8705167   0.8740708   0.8742109   0.8677135   0.8676711
   0.8677118   0.8676261   0.8741151   0.8742570   0.8703853   0.8704440
   5.9371442   6.1646366   6.1648219   6.1688999   6.1696450   5.9393874
   5.9450084   6.1696727   6.1706406   6.1701348   6.1700282   5.9469651
   5.9371396   6.1685579   6.1700243   6.1647553   6.1647164   5.9393346
   8.4751461   8.4753033   8.4807577   8.4750585   8.4809863   8.4751965
 TTTTTTTTTTTTTTTTTTTTTTTTTTTTTT MOQGAD      TELAPSE       33.87 TCPU      810.08
 TTTTTTTTTTTTTTTTTTTTTTTTTTTTTT SHELLXN     TELAPSE       38.79 TCPU      966.66
 TTTTTTTTTTTTTTTTTTTTTTTTTTTTTT MONMO3      TELAPSE       38.92 TCPU      970.71
 NUMERICALLY INTEGRATED DENSITY    197.9999925541
 TTTTTTTTTTTTTTTTTTTTTTTTTTTTTT NUMDFT      TELAPSE       39.42 TCPU      986.67
 CYC   4 ETOT(AU) -1.289105147126E+03 DETOT -2.94E-03 tst  2.61E-05 PX  1.38E-02
 TTTTTTTTTTTTTTTTTTTTTTTTTTTTTT DIIS        TELAPSE       39.47 TCPU      988.42
 DIIS TEST: 0.41266E-02 AT SCF   CYCLE   4 - DIIS ACTIVE - HISTORY:     4 CYCLES
 TTTTTTTTTTTTTTTTTTTTTTTTTTTTTT FDIK        TELAPSE       39.97 TCPU     1004.34
 INSULATING STATE
 TOP OF VALENCE BANDS -    BAND     99; K   17; EIG -2.4783052E-01 AU
 TOP OF VALENCE BANDS -    BAND     99; K    1; EIG -2.4927533E-01 AU
 BOTTOM OF VIRTUAL BANDS - BAND    100; K   17; EIG -8.2666412E-02 AU
 DIRECT ENERGY BAND GAP:   4.4943 eV
 BOTTOM OF VIRTUAL BANDS - BAND    100; K    1; EIG -8.1809417E-02 AU
 TTTTTTTTTTTTTTTTTTTTTTTTTTTTTT PDIG        TELAPSE       40.27 TCPU     1010.15
 CHARGE NORMALIZATION FACTOR   1.00000000
 TOTAL ATOMIC CHARGES:
   4.5022380   4.5083965   4.5084723   4.5083188   4.5082273   4.5017747
   0.8732918   0.8734360   0.8775595   0.8778380   0.8712558   0.8713823
   0.8713267   0.8712650   0.8775491   0.8779315   0.8732792   0.8733487
   5.9210182   6.1658738   6.1657287   6.1677250   6.1668717   5.9207789
   5.9278853   6.1692566   6.1689670   6.1692029   6.1688954   5.9279545
   5.9211410   6.1676518   6.1669997   6.1657786   6.1658371   5.9205935
   8.4867944   8.4870639   8.4885007   8.4869756   8.4883714   8.4872432
 TTTTTTTTTTTTTTTTTTTTTTTTTTTTTT MOQGAD      TELAPSE       40.31 TCPU     1010.19
 TTTTTTTTTTTTTTTTTTTTTTTTTTTTTT SHELLXN     TELAPSE       45.23 TCPU     1166.73
 TTTTTTTTTTTTTTTTTTTTTTTTTTTTTT MONMO3      TELAPSE       45.36 TCPU     1170.77
 NUMERICALLY INTEGRATED DENSITY    197.9999924935
 TTTTTTTTTTTTTTTTTTTTTTTTTTTTTT NUMDFT      TELAPSE       45.85 TCPU     1186.64
 CYC   5 ETOT(AU) -1.289106090169E+03 DETOT -9.43E-04 tst  7.02E-06 PX  6.33E-03
 TTTTTTTTTTTTTTTTTTTTTTTTTTTTTT DIIS        TELAPSE       45.92 TCPU     1188.79
 DIIS TEST: 0.57462E-04 AT SCF   CYCLE   5 - DIIS ACTIVE - HISTORY:     5 CYCLES
 TTTTTTTTTTTTTTTTTTTTTTTTTTTTTT FDIK        TELAPSE       46.42 TCPU     1204.81
 INSULATING STATE
 TOP OF VALENCE BANDS -    BAND     99; K   17; EIG -2.4762179E-01 AU
 TOP OF VALENCE BANDS -    BAND     99; K    1; EIG -2.4904852E-01 AU
 BOTTOM OF VIRTUAL BANDS - BAND    100; K   17; EIG -8.2113280E-02 AU
 DIRECT ENERGY BAND GAP:   4.5037 eV
 BOTTOM OF VIRTUAL BANDS - BAND    100; K    1; EIG -8.1281762E-02 AU
 TTTTTTTTTTTTTTTTTTTTTTTTTTTTTT PDIG        TELAPSE       46.72 TCPU     1210.62
 CHARGE NORMALIZATION FACTOR   1.00000000
 TOTAL ATOMIC CHARGES:
   4.5025808   4.5080805   4.5081454   4.5079312   4.5078495   4.5021427
   0.8742590   0.8743766   0.8785332   0.8786416   0.8723320   0.8722814
   0.8723415   0.8722277   0.8785636   0.8786925   0.8742346   0.8743012
   5.9194756   6.1649960   6.1651754   6.1663309   6.1672801   5.9219731
   5.9267118   6.1679701   6.1689276   6.1683861   6.1683779   5.9287513
   5.9195873   6.1660357   6.1676340   6.1650921   6.1650876   5.9218046
   8.4859717   8.4861239   8.4891863   8.4859735   8.4895220   8.4861107
 TTTTTTTTTTTTTTTTTTTTTTTTTTTTTT MOQGAD      TELAPSE       46.76 TCPU     1210.66
 TTTTTTTTTTTTTTTTTTTTTTTTTTTTTT SHELLXN     TELAPSE       51.69 TCPU     1367.18
 TTTTTTTTTTTTTTTTTTTTTTTTTTTTTT MONMO3      TELAPSE       51.81 TCPU     1371.22
 NUMERICALLY INTEGRATED DENSITY    197.9999924907
 TTTTTTTTTTTTTTTTTTTTTTTTTTTTTT NUMDFT      TELAPSE       52.31 TCPU     1387.07
 CYC   6 ETOT(AU) -1.289106106291E+03 DETOT -1.61E-05 tst  1.20E-07 PX  7.62E-04
 TTTTTTTTTTTTTTTTTTTTTTTTTTTTTT DIIS        TELAPSE       52.38 TCPU     1389.38
 DIIS TEST: 0.10692E-04 AT SCF   CYCLE   6 - DIIS ACTIVE - HISTORY:     6 CYCLES
 TTTTTTTTTTTTTTTTTTTTTTTTTTTTTT FDIK        TELAPSE       52.88 TCPU     1405.45
 INSULATING STATE
 TOP OF VALENCE BANDS -    BAND     99; K   17; EIG -2.4761641E-01 AU
 TOP OF VALENCE BANDS -    BAND     99; K    1; EIG -2.4904587E-01 AU
 BOTTOM OF VIRTUAL BANDS - BAND    100; K   17; EIG -8.2171843E-02 AU
 DIRECT ENERGY BAND GAP:   4.5020 eV
 BOTTOM OF VIRTUAL BANDS - BAND    100; K    1; EIG -8.1319428E-02 AU
 TTTTTTTTTTTTTTTTTTTTTTTTTTTTTT PDIG        TELAPSE       53.18 TCPU     1411.26
 CHARGE NORMALIZATION FACTOR   1.00000000
 TOTAL ATOMIC CHARGES:
   4.5024195   4.5082902   4.5083645   4.5082096   4.5081152   4.5019756
   0.8742157   0.8743628   0.8784136   0.8786861   0.8721750   0.8722875
   0.8722402   0.8721777   0.8784112   0.8787703   0.8742051   0.8742730
   5.9209043   6.1651370   6.1650142   6.1670783   6.1662545   5.9207629
   5.9277615   6.1685023   6.1683115   6.1685032   6.1681804   5.9279341
   5.9209943   6.1669599   6.1664292   6.1650527   6.1651111   5.9206133
   8.4862486   8.4865102   8.4885879   8.4864131   8.4884719   8.4866706
 TTTTTTTTTTTTTTTTTTTTTTTTTTTTTT MOQGAD      TELAPSE       53.23 TCPU     1411.30
 TTTTTTTTTTTTTTTTTTTTTTTTTTTTTT SHELLXN     TELAPSE       58.15 TCPU     1567.79
 TTTTTTTTTTTTTTTTTTTTTTTTTTTTTT MONMO3      TELAPSE       58.27 TCPU     1571.84
 NUMERICALLY INTEGRATED DENSITY    197.9999924874
 TTTTTTTTTTTTTTTTTTTTTTTTTTTTTT NUMDFT      TELAPSE       58.77 TCPU     1587.72
 CYC   7 ETOT(AU) -1.289106107906E+03 DETOT -1.62E-06 tst  7.74E-08 PX  3.86E-04
 TTTTTTTTTTTTTTTTTTTTTTTTTTTTTT DIIS        TELAPSE       58.85 TCPU     1590.23
 DIIS TEST: 0.21863E-05 AT SCF   CYCLE   7 - DIIS ACTIVE - HISTORY:     7 CYCLES
 TTTTTTTTTTTTTTTTTTTTTTTTTTTTTT FDIK        TELAPSE       59.35 TCPU     1606.17
 INSULATING STATE
 TOP OF VALENCE BANDS -    BAND     99; K   17; EIG -2.4761676E-01 AU
 TOP OF VALENCE BANDS -    BAND     99; K    1; EIG -2.4905218E-01 AU
 BOTTOM OF VIRTUAL BANDS - BAND    100; K   17; EIG -8.2194172E-02 AU
 DIRECT ENERGY BAND GAP:   4.5014 eV
 BOTTOM OF VIRTUAL BANDS - BAND    100; K    1; EIG -8.1338202E-02 AU
 TTTTTTTTTTTTTTTTTTTTTTTTTTTTTT PDIG        TELAPSE       59.65 TCPU     1611.98
 CHARGE NORMALIZATION FACTOR   1.00000000
 TOTAL ATOMIC CHARGES:
   4.5024753   4.5083458   4.5084165   4.5082367   4.5081480   4.5020276
   0.8741926   0.8743281   0.8784251   0.8786243   0.8721651   0.8722166
   0.8722121   0.8721247   0.8784305   0.8787009   0.8741759   0.8742448
   5.9203196   6.1650614   6.1650491   6.1667221   6.1666659   5.9212771
   5.9273676   6.1683120   6.1685531   6.1684518   6.1682838   5.9282871
   5.9204432   6.1665616   6.1668828   6.1650468   6.1650754   5.9210941
   8.4862845   8.4865055   8.4886042   8.4863853   8.4886763   8.4865989
 TTTTTTTTTTTTTTTTTTTTTTTTTTTTTT MOQGAD      TELAPSE       59.69 TCPU     1612.02
 TTTTTTTTTTTTTTTTTTTTTTTTTTTTTT SHELLXN     TELAPSE       64.62 TCPU     1768.57
 TTTTTTTTTTTTTTTTTTTTTTTTTTTTTT MONMO3      TELAPSE       64.74 TCPU     1772.61
 NUMERICALLY INTEGRATED DENSITY    197.9999924864
 TTTTTTTTTTTTTTTTTTTTTTTTTTTTTT NUMDFT      TELAPSE       65.24 TCPU     1788.45
 CYC   8 ETOT(AU) -1.289106108264E+03 DETOT -3.59E-07 tst  1.30E-08 PX  1.49E-04
 TTTTTTTTTTTTTTTTTTTTTTTTTTTTTT DIIS        TELAPSE       65.32 TCPU     1791.16
 DIIS TEST: 0.10907E-06 AT SCF   CYCLE   8 - DIIS ACTIVE - HISTORY:     8 CYCLES
 TTTTTTTTTTTTTTTTTTTTTTTTTTTTTT FDIK        TELAPSE       65.83 TCPU     1807.18
 INSULATING STATE
 TOP OF VALENCE BANDS -    BAND     99; K   17; EIG -2.4762033E-01 AU
 TOP OF VALENCE BANDS -    BAND     99; K    1; EIG -2.4905486E-01 AU
 BOTTOM OF VIRTUAL BANDS - BAND    100; K   17; EIG -8.2187121E-02 AU
 DIRECT ENERGY BAND GAP:   4.5017 eV
 BOTTOM OF VIRTUAL BANDS - BAND    100; K    1; EIG -8.1334888E-02 AU
 TTTTTTTTTTTTTTTTTTTTTTTTTTTTTT PDIG        TELAPSE       66.12 TCPU     1812.98
 CHARGE NORMALIZATION FACTOR   1.00000000
 TOTAL ATOMIC CHARGES:
   4.5025069   4.5083077   4.5083786   4.5082038   4.5081148   4.5020605
   0.8741842   0.8743204   0.8784116   0.8786296   0.8721661   0.8722241
   0.8722126   0.8721328   0.8784198   0.8787033   0.8741685   0.8742361
   5.9204079   6.1650842   6.1650642   6.1668315   6.1666059   5.9211519
   5.9274104   6.1683467   6.1685387   6.1684852   6.1682697   5.9282072
   5.9205088   6.1666567   6.1668374   6.1650619   6.1650979   5.9209919
   8.4862134   8.4864379   8.4887530   8.4863252   8.4887887   8.4865421
 TTTTTTTTTTTTTTTTTTTTTTTTTTTTTT MOQGAD      TELAPSE       66.16 TCPU     1813.02
 TTTTTTTTTTTTTTTTTTTTTTTTTTTTTT SHELLXN     TELAPSE       71.09 TCPU     1969.56
 +++ ENERGIES IN A.U. +++
 ::: EXT EL-POLE                                  -1.1547903098872E+03
 ::: EXT EL-SPHEROPOLE                             1.2700387813879E+01
 ::: BIELET ZONE E-E                               1.9570090348241E+03
 ::: TOTAL E-E                                     8.1491911275075E+02
 ::: TOTAL E-N + N-E                              -3.4625347284651E+03
 ::: TOTAL N-N                                     2.1228531034118E+02
 ::: KINETIC ENERGY                                1.2799445030158E+03
 ::: PSEUDO TOTAL   ENERGY                        -1.1553858023574E+03
 ::: VIRIAL COEFFICIENT                            1.0511465325191E+00
 TTTTTTTTTTTTTTTTTTTTTTTTTTTTTT MONMO3      TELAPSE       71.22 TCPU     1973.61
 NUMERICALLY INTEGRATED DENSITY    197.9999924871
 EXCHANGE ENERGY: -0.126030893138E+03  CORRELATION ENERGY: -0.768941284911E+01
 TTTTTTTTTTTTTTTTTTTTTTTTTTTTTT NUMDFT      TELAPSE       71.71 TCPU     1989.49
 CYC   9 ETOT(AU) -1.289106108344E+03 DETOT -7.95E-08 tst  4.44E-10 PX  1.49E-04

 == SCF ENDED - CONVERGENCE ON ENERGY      E(AU) -1.2891061083440E+03 CYCLES   9


 ENERGY EXPRESSION=HARTREE+FOCK EXCH*0.00000+(HSESOL     EXCH)*1.00000+PBESOL     CORR


 TOTAL ENERGY(DFT)(AU)(  9) -1.2891061083440E+03 DE-8.0E-08 tester 4.4E-10
 TTTTTTTTTTTTTTTTTTTTTTTTTTTTTT EDFT        TELAPSE       71.71 TCPU     1989.50
 
 INFORMATION **** DFTD3 ENERGY **** CALCULATE DFTD3 ENERGY

           DFT-D V3(BJ)
 DF                                         hsesol3c  
 parameters
 s6       :    1.0000
 s8       :    0.0000
 a1       :    0.5196
 a2       :    4.9385
 k1 k3    :   16.0000   -4.0000
 Cutoff   :   50.2022
 CN-Cutoff:   21.1671
 ABC-Cutoff:   21.1671
 
 Edisp /kcal,au:   -21.7711 -0.03469446

 E6    /kcal :   -22.8815
 E8    /kcal :     0.0000
 E6(ABC) "   :   1.110358
 
 INFORMATION **** DFTD3 ENERGY **** NORMAL TERMINATION OF DFTD3 MODULE

 GCP ENERGY CALCULATION
  level        hsesol3c            basis:hsesol3c
  Nbf            474
  Atoms           42

  Parameters: 
  sigma     1.0000
  eta       1.4281
  alpha     0.2936
  beta      1.9467

  dmp_scal      4.0000
  dmp_exp       6.0000
 cutoffs: 
   distance [bohr] 60.0
   noise    [a.u.] 2.2E-16
 SR-damping   T
 ** gCP correction **
  Egcp:        0.0829189819 / (a.u.) ||      52.0325 / (kcal/mol)
 INFORMATION **** GCP **** NORMAL TERMINATION OF GCP MODULE

 *******************************************************************************

 DFT-D3-GCP DISPERSION AND COUNTERPOISE CORRECTION

 D3 DISPERSION ENERGY (AU)      -3.4694458393462E-02
 GCP ENERGY (AU)                 8.2918981878173E-02
 TOTAL ENERGY + DISP + GCP (AU) -1.2890578838205E+03

 *******************************************************************************

 EIGENVECTORS IN FORTRAN UNIT 10
 TTTTTTTTTTTTTTTTTTTTTTTTTTTTTT END         TELAPSE       72.71 TCPU     1996.13
 EEEEEEEEEE TERMINATION  DATE 19 02 2026 TIME 19:23:51.3
