 Default number of threads is:           32

         
 *******************************************************************************
 *                                                                             *
 *                               CRYSTAL23                                     *
 *                      public : 1.0.1 - October 2022                          *
 *                       HTTP://WWW.CRYSTAL.UNITO.IT                           *
 *                                                                             *
 *                              MAIN AUTHORS                                   *
 *                                                                             *
 *  R. DOVESI(1,11), V.R. SAUNDERS(2), C. ROETTI(1,11), R. ORLANDO(1,11),      *
 *  C.M. ZICOVICH-WILSON(1,3), F. PASCALE(4), B. CIVALLERI(1,11),              *
 *  K. DOLL(5), N.M. HARRISON(6), I.J. BUSH(7), Ph. D'ARCO(8),                 *
 *  M. LLUNELL(9), M. CAUSA'(10), Y. NOEL(8), L. MASCHIO(1,11), A. ERBA(1,11)  *
 *  M. RE'RAT(14), S. CASASSA(1,11), B.G. SEARLE(2), J.K. DESMARAIS(1)         *
 *                                                                             *
 *        CONTRIBUTIONS TO THE CODE HAVE ALSO BEEN GIVEN BY                    *
 *                                                                             *
 *  M. FERRABONE(1,11), M. DE LA PIERRE(1,11), M. FERRERO(1,11),               *
 *  J. BAIMA(1,11), E. ALBANESE(1,11), M.F. PEINTINGER(12), R. BAST(13),       *
 *  B. KIRTMAN(15), V. LACIVITA(1,11), R. DEMICHELIS(1,16)                     *
 *  G. BRANDEBURG(17), S. SALUSTRO(1,11), G. SANSONE(1,11)                     *
 *  M.T. RUGGIERO(18), L.E. DAGA(1), L. DONA'(1), A. COSSARD(1)                *
 *                                                                             *
 * (1) THEORETICAL CHEMISTRY GROUP - UNIVERSITA' DI TORINO - TORINO (ITALY)    *
 * (2) SCIENTIFIC COMPUTING DEPARTMENT - STFC DARESBURY (UK)                   *
 * (3) UNIVERSIDAD AUTONOMA DEL ESTADO DE MORELOS - CUERNAVACA (MEXICO)        *
 * (4) UNIVERSITE' DE LORRAINE - NANCY (FRANCE)                                *
 * (5) UNIVERSITAET STUTTGART- STUTTGART (GERMANY)                             *
 * (6) IMPERIAL COLLEGE - LONDON (UK)                                          *
 * (7) SCIENTIFIC COMPUTING DEPARTMENT - STFC RAL (UK)                         *
 * (8) UPMC - SORBONNE UNIVERSITES - PARIS (FRANCE)                            *
 * (9) UNIVERSIDAD DE BARCELONA - BARCELONA (SPAIN)                            *
 *(10) UNIVERSITA' DI NAPOLI "FEDERICO II" - NAPOLI (ITALY)                    *
 *(11) NIS - NANOSTRUCTURED INTERFACES AND SURFACES - TORINO (ITALY)           *
 *(12) MPI FUER CHEMISCHE ENERGIEKONVERSION - MUELHEIM AN DER RUHR (GERMANY)   *
 *(13) UNIVERSITY OF TROMSO - TROMSO (NORWAY)                                  *
 *(14) UNIVERSITE' DE PAU ET DES PAYS DE L'ADOUR - PAU (FRANCE)                *
 *(15) UNIVERSITY OF CALIFORNIA SANTA BARBARA - SANTA BARBARA (USA)            *
 *(16) CURTIN UNIVERSITY - PERTH (AUSTRALIA)                                   *
 *(17) UNIVERSITY COLLEGE LONDON - LONDON (UK)                                 *
 *(18) UNIVERSITY OF VERMONT - BURLINGTON (USA)                                *
 *                                                                             *
 *******************************************************************************
 EEEEEEEEEE STARTING  DATE 19 02 2026 TIME 19:28:34.1
 cof-1_z30_L070_serr                                                             

 CRYSTAL CALCULATION
 (INPUT ACCORDING TO THE INTERNATIONAL TABLES FOR X-RAY CRYSTALLOGRAPHY)
 CRYSTAL FAMILY                       :  TRICLINIC   
 CRYSTAL CLASS  (GROTH - 1921)        :  TRICLINIC PEDIAL                     

 SPACE GROUP (NONCENTROSYMMETRIC)     :  P 1             

 LATTICE PARAMETERS  (ANGSTROMS AND DEGREES) - CONVENTIONAL CELL
        A           B           C        ALPHA        BETA       GAMMA
    15.02361    15.02392     6.00000    90.00032    89.99994   119.99596


 NUMBER OF IRREDUCIBLE ATOMS IN THE CONVENTIONAL CELL:   84

 INPUT COORDINATES

 ATOM AT. N.              COORDINATES
   1   5     6.136805400000E-01  2.273182200000E-01  2.507961200000E-01
   2   5     8.826434800000E-01  7.652987900000E-01  7.507961200000E-01
   3   5     7.727362000000E-01  3.863778800000E-01  2.507961300000E-01
   4   5     4.169914000000E-02  9.243584500000E-01  7.507961300000E-01
   5   5     6.136762700000E-01  3.863606700000E-01  2.491222600000E-01
   6   5     8.826392100000E-01  9.243412400000E-01  7.491222600000E-01
   7   5     2.272552500000E-01  6.136332200000E-01  2.507961300000E-01
   8   5     4.962181900000E-01  1.516137900000E-01  7.507961300000E-01
   9   5     3.863632200000E-01  6.136124500000E-01  2.507961200000E-01
  10   5     6.553261600000E-01  1.515930200000E-01  7.507961200000E-01
  11   5     3.863435000000E-01  7.727516500000E-01  2.491222700000E-01
  12   5     6.553064400000E-01  3.107322200000E-01  7.491222600000E-01
  13   1     9.030436200000E-01  3.089300500000E-01  2.473258700000E-01
  14   1     1.720065600000E-01  8.469106200000E-01  7.473258700000E-01
  15   1     9.663453000000E-02  6.910534400000E-01  2.467952100000E-01
  16   1     3.655974700000E-01  2.290340100000E-01  7.467952100000E-01
  17   1     9.029714200000E-01  5.940724300000E-01  2.467135400000E-01
  18   1     1.719343600000E-01  1.320530000000E-01  7.467135400000E-01
  19   1     9.673618000000E-02  4.056849400000E-01  2.467339100000E-01
  20   1     3.656991200000E-01  9.436655100000E-01  7.467339100000E-01
  21   1     6.910324000000E-01  9.700412000000E-02  2.526741600000E-01
  22   1     9.599953400000E-01  6.349846900000E-01  7.526741500000E-01
  23   1     3.089297200000E-01  9.034373100000E-01  2.532048500000E-01
  24   1     5.778926600000E-01  4.414178800000E-01  7.532048500000E-01
  25   1     4.058699900000E-01  9.704998000000E-02  2.532865700000E-01
  26   1     6.748329300000E-01  6.350305500000E-01  7.532865700000E-01
  27   1     5.943122100000E-01  9.033473200000E-01  2.532660600000E-01
  28   1     8.632751500000E-01  4.413278900000E-01  7.532660700000E-01
  29   1     6.910727400000E-01  5.940542100000E-01  2.473259000000E-01
  30   1     9.600356800000E-01  1.320347800000E-01  7.473259000000E-01
  31   1     3.089618300000E-01  4.056093300000E-01  2.467951800000E-01
  32   1     5.779247700000E-01  9.435899000000E-01  7.467951700000E-01
  33   1     4.058405700000E-01  3.088232500000E-01  2.467134700000E-01
  34   1     6.748035100000E-01  8.468038200000E-01  7.467134700000E-01
  35   1     5.942908800000E-01  6.909579300000E-01  2.467339700000E-01
  36   1     8.632538200000E-01  2.289385000000E-01  7.467339700000E-01
  37   6     8.918903100000E-01  4.459436900000E-01  2.490610100000E-01
  38   6     1.608532500000E-01  9.839242600000E-01  7.490610100000E-01
  39   6     9.464891100000E-01  3.927856300000E-01  2.474075400000E-01
  40   6     2.154520500000E-01  9.307662000000E-01  7.474075300000E-01
  41   6     5.338812000000E-02  6.071853000000E-01  2.472647000000E-01
  42   6     3.223510600000E-01  1.451658700000E-01  7.472647000000E-01
  43   6     9.464521100000E-01  5.536921900000E-01  2.476933600000E-01
  44   6     2.154150500000E-01  9.167276000000E-02  7.476933600000E-01
  45   6     5.342634000000E-02  4.462499700000E-01  2.465910100000E-01
  46   6     3.223892800000E-01  9.842305400000E-01  7.465910200000E-01
  47   6     1.080358900000E-01  5.540356300000E-01  2.477137600000E-01
  48   6     3.769988300000E-01  9.201620000000E-02  7.477137600000E-01
  49   6     5.540394200000E-01  1.081684600000E-01  2.509390200000E-01
  50   6     8.230023600000E-01  6.461490300000E-01  7.509390200000E-01
  51   6     6.071778500000E-01  5.355594000000E-02  2.525924800000E-01
  52   6     8.761407900000E-01  5.915365100000E-01  7.525924800000E-01
  53   6     3.927986700000E-01  9.466631600000E-01  2.527353700000E-01
  54   6     6.617616100000E-01  4.846437300000E-01  7.527353700000E-01
  55   6     4.462875800000E-01  5.360286000000E-02  2.523067200000E-01
  56   6     7.152505200000E-01  5.915834300000E-01  7.523067200000E-01
  57   6     5.537168500000E-01  9.466235600000E-01  2.534089800000E-01
  58   6     8.226797900000E-01  4.846041300000E-01  7.534089800000E-01
  59   6     4.459279100000E-01  8.919920600000E-01  2.522862800000E-01
  60   6     7.148908500000E-01  4.299726300000E-01  7.522862800000E-01
  61   6     5.540448700000E-01  4.458745500000E-01  2.490610100000E-01
  62   6     8.230078100000E-01  9.838551200000E-01  7.490610100000E-01
  63   6     6.072102200000E-01  5.536257800000E-01  2.474075700000E-01
  64   6     8.761731600000E-01  9.160635000000E-02  7.474075700000E-01
  65   6     3.928233700000E-01  4.461720300000E-01  2.472646600000E-01
  66   6     6.617863100000E-01  9.841526000000E-01  7.472646600000E-01
  67   6     4.462872600000E-01  3.926899900000E-01  2.476933200000E-01
  68   6     7.152502000000E-01  9.306705600000E-01  7.476933200000E-01
  69   6     5.537429600000E-01  6.070980000000E-01  2.465910600000E-01
  70   6     8.227059000000E-01  1.450785700000E-01  7.465910600000E-01
  71   6     4.459599800000E-01  5.539582300000E-01  2.477137600000E-01
  72   6     7.149229200000E-01  9.193880000000E-02  7.477137600000E-01
  73   8     5.607366800000E-01  2.803706300000E-01  2.495713400000E-01
  74   8     8.296996200000E-01  8.183512000000E-01  7.495713400000E-01
  75   8     7.196817000000E-01  2.803783300000E-01  2.531027900000E-01
  76   8     9.886446400000E-01  8.183589000000E-01  7.531027900000E-01
  77   8     7.196794200000E-01  4.393234600000E-01  2.477750100000E-01
  78   8     9.886423600000E-01  9.773040300000E-01  7.477750100000E-01
  79   8     2.803245100000E-01  7.196511100000E-01  2.495713600000E-01
  80   8     5.492874500000E-01  2.576316800000E-01  7.495713600000E-01
  81   8     2.803439700000E-01  5.606956100000E-01  2.531027900000E-01
  82   8     5.493069100000E-01  9.867618000000E-02  7.531027900000E-01
  83   8     4.392638400000E-01  7.196354200000E-01  2.477750000000E-01
  84   8     7.082267800000E-01  2.576159900000E-01  7.477750000000E-01

 *******************************************************************************

 << INFORMATION >>: FROM NOW ON, ALL COORDINATES REFER TO THE PRIMITIVE CELL

 *******************************************************************************

 LATTICE PARAMETERS  (ANGSTROMS AND DEGREES) - PRIMITIVE CELL
       A          B          C        ALPHA      BETA     GAMMA        VOLUME
   15.02361   15.02392    6.00000    90.00032  89.99994 119.99596   1172.889288

 COORDINATES OF THE EQUIVALENT ATOMS (FRACTIONAL UNITS)

 N. ATOM EQUIV AT. N.          X                  Y                  Z

   1   1   1    5 B    -3.86319460000E-01  2.27318220000E-01  2.50796120000E-01

   2   2   1    5 B    -1.17356520000E-01 -2.34701210000E-01 -2.49203880000E-01

   3   3   1    5 B    -2.27263800000E-01  3.86377880000E-01  2.50796130000E-01

   4   4   1    5 B     4.16991400000E-02 -7.56415500000E-02 -2.49203870000E-01

   5   5   1    5 B    -3.86323730000E-01  3.86360670000E-01  2.49122260000E-01

   6   6   1    5 B    -1.17360790000E-01 -7.56587600000E-02 -2.50877740000E-01

   7   7   1    5 B     2.27255250000E-01 -3.86366780000E-01  2.50796130000E-01

   8   8   1    5 B     4.96218190000E-01  1.51613790000E-01 -2.49203870000E-01

   9   9   1    5 B     3.86363220000E-01 -3.86387550000E-01  2.50796120000E-01

  10  10   1    5 B    -3.44673840000E-01  1.51593020000E-01 -2.49203880000E-01

  11  11   1    5 B     3.86343500000E-01 -2.27248350000E-01  2.49122270000E-01

  12  12   1    5 B    -3.44693560000E-01  3.10732220000E-01 -2.50877740000E-01

  13  13   1    1 H    -9.69563800000E-02  3.08930050000E-01  2.47325870000E-01

  14  14   1    1 H     1.72006560000E-01 -1.53089380000E-01 -2.52674130000E-01

  15  15   1    1 H     9.66345300000E-02 -3.08946560000E-01  2.46795210000E-01

  16  16   1    1 H     3.65597470000E-01  2.29034010000E-01 -2.53204790000E-01

  17  17   1    1 H    -9.70285800000E-02 -4.05927570000E-01  2.46713540000E-01

  18  18   1    1 H     1.71934360000E-01  1.32053000000E-01 -2.53286460000E-01

  19  19   1    1 H     9.67361800000E-02  4.05684940000E-01  2.46733910000E-01

  20  20   1    1 H     3.65699120000E-01 -5.63344900000E-02 -2.53266090000E-01

  21  21   1    1 H    -3.08967600000E-01  9.70041200000E-02  2.52674160000E-01

  22  22   1    1 H    -4.00046600000E-02 -3.65015310000E-01 -2.47325850000E-01

  23  23   1    1 H     3.08929720000E-01 -9.65626900000E-02  2.53204850000E-01

  24  24   1    1 H    -4.22107340000E-01  4.41417880000E-01 -2.46795150000E-01

  25  25   1    1 H     4.05869990000E-01  9.70499800000E-02  2.53286570000E-01

  26  26   1    1 H    -3.25167070000E-01 -3.64969450000E-01 -2.46713430000E-01

  27  27   1    1 H    -4.05687790000E-01 -9.66526800000E-02  2.53266060000E-01

  28  28   1    1 H    -1.36724850000E-01  4.41327890000E-01 -2.46733930000E-01

  29  29   1    1 H    -3.08927260000E-01 -4.05945790000E-01  2.47325900000E-01

  30  30   1    1 H    -3.99643200000E-02  1.32034780000E-01 -2.52674100000E-01

  31  31   1    1 H     3.08961830000E-01  4.05609330000E-01  2.46795180000E-01

  32  32   1    1 H    -4.22075230000E-01 -5.64101000000E-02 -2.53204830000E-01

  33  33   1    1 H     4.05840570000E-01  3.08823250000E-01  2.46713470000E-01

  34  34   1    1 H    -3.25196490000E-01 -1.53196180000E-01 -2.53286530000E-01

  35  35   1    1 H    -4.05709120000E-01 -3.09042070000E-01  2.46733970000E-01

  36  36   1    1 H    -1.36746180000E-01  2.28938500000E-01 -2.53266030000E-01

  37  37   1    6 C    -1.08109690000E-01  4.45943690000E-01  2.49061010000E-01

  38  38   1    6 C     1.60853250000E-01 -1.60757400000E-02 -2.50938990000E-01

  39  39   1    6 C    -5.35108900000E-02  3.92785630000E-01  2.47407540000E-01

  40  40   1    6 C     2.15452050000E-01 -6.92338000000E-02 -2.52592470000E-01

  41  41   1    6 C     5.33881200000E-02 -3.92814700000E-01  2.47264700000E-01

  42  42   1    6 C     3.22351060000E-01  1.45165870000E-01 -2.52735300000E-01

  43  43   1    6 C    -5.35478900000E-02 -4.46307810000E-01  2.47693360000E-01

  44  44   1    6 C     2.15415050000E-01  9.16727600000E-02 -2.52306640000E-01

  45  45   1    6 C     5.34263400000E-02  4.46249970000E-01  2.46591010000E-01

  46  46   1    6 C     3.22389280000E-01 -1.57694600000E-02 -2.53408980000E-01

  47  47   1    6 C     1.08035890000E-01 -4.45964370000E-01  2.47713760000E-01

  48  48   1    6 C     3.76998830000E-01  9.20162000000E-02 -2.52286240000E-01

  49  49   1    6 C    -4.45960580000E-01  1.08168460000E-01  2.50939020000E-01

  50  50   1    6 C    -1.76997640000E-01 -3.53850970000E-01 -2.49060980000E-01

  51  51   1    6 C    -3.92822150000E-01  5.35559400000E-02  2.52592480000E-01

  52  52   1    6 C    -1.23859210000E-01 -4.08463490000E-01 -2.47407520000E-01

  53  53   1    6 C     3.92798670000E-01 -5.33368400000E-02  2.52735370000E-01

  54  54   1    6 C    -3.38238390000E-01  4.84643730000E-01 -2.47264630000E-01

  55  55   1    6 C     4.46287580000E-01  5.36028600000E-02  2.52306720000E-01

  56  56   1    6 C    -2.84749480000E-01 -4.08416570000E-01 -2.47693280000E-01

  57  57   1    6 C    -4.46283150000E-01 -5.33764400000E-02  2.53408980000E-01

  58  58   1    6 C    -1.77320210000E-01  4.84604130000E-01 -2.46591020000E-01

  59  59   1    6 C     4.45927910000E-01 -1.08007940000E-01  2.52286280000E-01

  60  60   1    6 C    -2.85109150000E-01  4.29972630000E-01 -2.47713720000E-01

  61  61   1    6 C    -4.45955130000E-01  4.45874550000E-01  2.49061010000E-01

  62  62   1    6 C    -1.76992190000E-01 -1.61448800000E-02 -2.50938990000E-01

  63  63   1    6 C    -3.92789780000E-01 -4.46374220000E-01  2.47407570000E-01

  64  64   1    6 C    -1.23826840000E-01  9.16063500000E-02 -2.52592430000E-01

  65  65   1    6 C     3.92823370000E-01  4.46172030000E-01  2.47264660000E-01

  66  66   1    6 C    -3.38213690000E-01 -1.58474000000E-02 -2.52735340000E-01

  67  67   1    6 C     4.46287260000E-01  3.92689990000E-01  2.47693320000E-01

  68  68   1    6 C    -2.84749800000E-01 -6.93294400000E-02 -2.52306680000E-01

  69  69   1    6 C    -4.46257040000E-01 -3.92902000000E-01  2.46591060000E-01

  70  70   1    6 C    -1.77294100000E-01  1.45078570000E-01 -2.53408940000E-01

  71  71   1    6 C     4.45959980000E-01 -4.46041770000E-01  2.47713760000E-01

  72  72   1    6 C    -2.85077080000E-01  9.19388000000E-02 -2.52286240000E-01

  73  73   1    8 O    -4.39263320000E-01  2.80370630000E-01  2.49571340000E-01

  74  74   1    8 O    -1.70300380000E-01 -1.81648800000E-01 -2.50428660000E-01

  75  75   1    8 O    -2.80318300000E-01  2.80378330000E-01  2.53102790000E-01

  76  76   1    8 O    -1.13553600000E-02 -1.81641100000E-01 -2.46897210000E-01

  77  77   1    8 O    -2.80320580000E-01  4.39323460000E-01  2.47775010000E-01

  78  78   1    8 O    -1.13576400000E-02 -2.26959700000E-02 -2.52224990000E-01

  79  79   1    8 O     2.80324510000E-01 -2.80348890000E-01  2.49571360000E-01

  80  80   1    8 O    -4.50712550000E-01  2.57631680000E-01 -2.50428640000E-01

  81  81   1    8 O     2.80343970000E-01 -4.39304390000E-01  2.53102790000E-01

  82  82   1    8 O    -4.50693090000E-01  9.86761800000E-02 -2.46897210000E-01

  83  83   1    8 O     4.39263840000E-01 -2.80364580000E-01  2.47775000000E-01

  84  84   1    8 O    -2.91773220000E-01  2.57615990000E-01 -2.52225000000E-01

 NUMBER OF SYMMETRY OPERATORS         :    1
 *******************************************************************************
 * GEOMETRY EDITING - INPUT COORDINATES ARE GIVEN IN ANGSTROM         
 *******************************************************************************

 GCALCO - MAX INDICES DIRECT LATTICE VECTOR    11    11    25
 NO.OF VECTORS CREATED 6999 STARS 3500 RMAX   235.54317 BOHR

 GEOMETRY FOR WAVE FUNCTION - DIMENSIONALITY OF THE SYSTEM    3
 (NON PERIODIC DIRECTION: LATTICE PARAMETER FORMALLY SET TO 500)
 *******************************************************************************
 LATTICE PARAMETERS (ANGSTROMS AND DEGREES) - BOHR = 0.5291772083 ANGSTROM
 PRIMITIVE CELL - CENTRING CODE 1/0 VOLUME=  1172.889288 - DENSITY  1.105 g/cm^3
         A              B              C           ALPHA      BETA       GAMMA 
    15.02361100    15.02391600     6.00000000    90.000323  89.999944 119.995964
 *******************************************************************************
 ATOMS IN THE ASYMMETRIC UNIT   84 - ATOMS IN THE UNIT CELL:   84
     ATOM                 X/A                 Y/B                 Z/C    
 *******************************************************************************
      1 T   5 B    -3.863194600000E-01  2.273182200000E-01  2.507961200000E-01
      2 T   5 B    -1.173565200000E-01 -2.347012100000E-01 -2.492038800000E-01
      3 T   5 B    -2.272638000000E-01  3.863778800000E-01  2.507961300000E-01
      4 T   5 B     4.169914000000E-02 -7.564155000000E-02 -2.492038700000E-01
      5 T   5 B    -3.863237300000E-01  3.863606700000E-01  2.491222600000E-01
      6 T   5 B    -1.173607900000E-01 -7.565876000000E-02 -2.508777400000E-01
      7 T   5 B     2.272552500000E-01 -3.863667800000E-01  2.507961300000E-01
      8 T   5 B     4.962181900000E-01  1.516137900000E-01 -2.492038700000E-01
      9 T   5 B     3.863632200000E-01 -3.863875500000E-01  2.507961200000E-01
     10 T   5 B    -3.446738400000E-01  1.515930200000E-01 -2.492038800000E-01
     11 T   5 B     3.863435000000E-01 -2.272483500000E-01  2.491222700000E-01
     12 T   5 B    -3.446935600000E-01  3.107322200000E-01 -2.508777400000E-01
     13 T   1 H    -9.695638000000E-02  3.089300500000E-01  2.473258700000E-01
     14 T   1 H     1.720065600000E-01 -1.530893800000E-01 -2.526741300000E-01
     15 T   1 H     9.663453000000E-02 -3.089465600000E-01  2.467952100000E-01
     16 T   1 H     3.655974700000E-01  2.290340100000E-01 -2.532047900000E-01
     17 T   1 H    -9.702858000000E-02 -4.059275700000E-01  2.467135400000E-01
     18 T   1 H     1.719343600000E-01  1.320530000000E-01 -2.532864600000E-01
     19 T   1 H     9.673618000000E-02  4.056849400000E-01  2.467339100000E-01
     20 T   1 H     3.656991200000E-01 -5.633449000000E-02 -2.532660900000E-01
     21 T   1 H    -3.089676000000E-01  9.700412000000E-02  2.526741600000E-01
     22 T   1 H    -4.000466000000E-02 -3.650153100000E-01 -2.473258500000E-01
     23 T   1 H     3.089297200000E-01 -9.656269000000E-02  2.532048500000E-01
     24 T   1 H    -4.221073400000E-01  4.414178800000E-01 -2.467951500000E-01
     25 T   1 H     4.058699900000E-01  9.704998000000E-02  2.532865700000E-01
     26 T   1 H    -3.251670700000E-01 -3.649694500000E-01 -2.467134300000E-01
     27 T   1 H    -4.056877900000E-01 -9.665268000000E-02  2.532660600000E-01
     28 T   1 H    -1.367248500000E-01  4.413278900000E-01 -2.467339300000E-01
     29 T   1 H    -3.089272600000E-01 -4.059457900000E-01  2.473259000000E-01
     30 T   1 H    -3.996432000000E-02  1.320347800000E-01 -2.526741000000E-01
     31 T   1 H     3.089618300000E-01  4.056093300000E-01  2.467951800000E-01
     32 T   1 H    -4.220752300000E-01 -5.641010000000E-02 -2.532048300000E-01
     33 T   1 H     4.058405700000E-01  3.088232500000E-01  2.467134700000E-01
     34 T   1 H    -3.251964900000E-01 -1.531961800000E-01 -2.532865300000E-01
     35 T   1 H    -4.057091200000E-01 -3.090420700000E-01  2.467339700000E-01
     36 T   1 H    -1.367461800000E-01  2.289385000000E-01 -2.532660300000E-01
     37 T   6 C    -1.081096900000E-01  4.459436900000E-01  2.490610100000E-01
     38 T   6 C     1.608532500000E-01 -1.607574000000E-02 -2.509389900000E-01
     39 T   6 C    -5.351089000000E-02  3.927856300000E-01  2.474075400000E-01
     40 T   6 C     2.154520500000E-01 -6.923380000000E-02 -2.525924700000E-01
     41 T   6 C     5.338812000000E-02 -3.928147000000E-01  2.472647000000E-01
     42 T   6 C     3.223510600000E-01  1.451658700000E-01 -2.527353000000E-01
     43 T   6 C    -5.354789000000E-02 -4.463078100000E-01  2.476933600000E-01
     44 T   6 C     2.154150500000E-01  9.167276000000E-02 -2.523066400000E-01
     45 T   6 C     5.342634000000E-02  4.462499700000E-01  2.465910100000E-01
     46 T   6 C     3.223892800000E-01 -1.576946000000E-02 -2.534089800000E-01
     47 T   6 C     1.080358900000E-01 -4.459643700000E-01  2.477137600000E-01
     48 T   6 C     3.769988300000E-01  9.201620000000E-02 -2.522862400000E-01
     49 T   6 C    -4.459605800000E-01  1.081684600000E-01  2.509390200000E-01
     50 T   6 C    -1.769976400000E-01 -3.538509700000E-01 -2.490609800000E-01
     51 T   6 C    -3.928221500000E-01  5.355594000000E-02  2.525924800000E-01
     52 T   6 C    -1.238592100000E-01 -4.084634900000E-01 -2.474075200000E-01
     53 T   6 C     3.927986700000E-01 -5.333684000000E-02  2.527353700000E-01
     54 T   6 C    -3.382383900000E-01  4.846437300000E-01 -2.472646300000E-01
     55 T   6 C     4.462875800000E-01  5.360286000000E-02  2.523067200000E-01
     56 T   6 C    -2.847494800000E-01 -4.084165700000E-01 -2.476932800000E-01
     57 T   6 C    -4.462831500000E-01 -5.337644000000E-02  2.534089800000E-01
     58 T   6 C    -1.773202100000E-01  4.846041300000E-01 -2.465910200000E-01
     59 T   6 C     4.459279100000E-01 -1.080079400000E-01  2.522862800000E-01
     60 T   6 C    -2.851091500000E-01  4.299726300000E-01 -2.477137200000E-01
     61 T   6 C    -4.459551300000E-01  4.458745500000E-01  2.490610100000E-01
     62 T   6 C    -1.769921900000E-01 -1.614488000000E-02 -2.509389900000E-01
     63 T   6 C    -3.927897800000E-01 -4.463742200000E-01  2.474075700000E-01
     64 T   6 C    -1.238268400000E-01  9.160635000000E-02 -2.525924300000E-01
     65 T   6 C     3.928233700000E-01  4.461720300000E-01  2.472646600000E-01
     66 T   6 C    -3.382136900000E-01 -1.584740000000E-02 -2.527353400000E-01
     67 T   6 C     4.462872600000E-01  3.926899900000E-01  2.476933200000E-01
     68 T   6 C    -2.847498000000E-01 -6.932944000000E-02 -2.523066800000E-01
     69 T   6 C    -4.462570400000E-01 -3.929020000000E-01  2.465910600000E-01
     70 T   6 C    -1.772941000000E-01  1.450785700000E-01 -2.534089400000E-01
     71 T   6 C     4.459599800000E-01 -4.460417700000E-01  2.477137600000E-01
     72 T   6 C    -2.850770800000E-01  9.193880000000E-02 -2.522862400000E-01
     73 T   8 O    -4.392633200000E-01  2.803706300000E-01  2.495713400000E-01
     74 T   8 O    -1.703003800000E-01 -1.816488000000E-01 -2.504286600000E-01
     75 T   8 O    -2.803183000000E-01  2.803783300000E-01  2.531027900000E-01
     76 T   8 O    -1.135536000000E-02 -1.816411000000E-01 -2.468972100000E-01
     77 T   8 O    -2.803205800000E-01  4.393234600000E-01  2.477750100000E-01
     78 T   8 O    -1.135764000000E-02 -2.269597000000E-02 -2.522249900000E-01
     79 T   8 O     2.803245100000E-01 -2.803488900000E-01  2.495713600000E-01
     80 T   8 O    -4.507125500000E-01  2.576316800000E-01 -2.504286400000E-01
     81 T   8 O     2.803439700000E-01 -4.393043900000E-01  2.531027900000E-01
     82 T   8 O    -4.506930900000E-01  9.867618000000E-02 -2.468972100000E-01
     83 T   8 O     4.392638400000E-01 -2.803645800000E-01  2.477750000000E-01
     84 T   8 O    -2.917732200000E-01  2.576159900000E-01 -2.522250000000E-01

 T = ATOM BELONGING TO THE ASYMMETRIC UNIT

 ****    1 SYMMOPS - TRANSLATORS IN FRACTIONAL UNITS
 **** MATRICES AND TRANSLATORS IN THE CRYSTALLOGRAPHIC REFERENCE FRAME
   V INV                    ROTATION MATRICES                   TRANSLATORS
   1   1  1.00 -0.00  0.00  0.00  1.00  0.00  0.00  0.00  1.00  0.00  0.00  0.00

 DIRECT LATTICE VECTORS CARTESIAN COMPONENTS (ANGSTROM)
          X                    Y                    Z
   0.130113578931E+02  -0.751088897922E+01   0.000000000000E+00
   0.000000000000E+00   0.150239160000E+02   0.000000000000E+00
  -0.127541541606E-04  -0.338244809023E-04   0.599999999989E+01


 CARTESIAN COORDINATES - PRIMITIVE CELL
 *******************************************************************************
 *      ATOM          X(ANGSTROM)         Y(ANGSTROM)         Z(ANGSTROM)
 *******************************************************************************
    1     5 B    -5.026543953805E+00  6.316803934072E+00  1.504776719973E+00
    2     5 B    -1.526964504419E+00 -2.644671042239E+00 -1.495223279973E+00
    3     5 B    -2.957013836629E+00  7.511853501124E+00  1.504776779973E+00
    4     5 B     5.425656127572E-01 -1.449621475187E+00 -1.495223219973E+00
    5     5 B    -5.026599490954E+00 -6.317639528581E+00  1.494733559973E+00
    6     5 B    -1.527020041568E+00 -2.551985048917E-01 -1.505266439973E+00
    7     5 B     2.956896192134E+00 -7.511639483653E+00  1.504776779973E+00
    8     5 B     6.456475641519E+00 -1.449198459965E+00 -1.495223219973E+00
    9     5 B     5.027106933441E+00  6.316922171233E+00  1.504776719973E+00
   10     5 B    -4.484671510229E+00  4.866336174138E+00 -1.495223279973E+00
   11     5 B     5.026850370812E+00 -6.315951684312E+00  1.494733619973E+00
   12     5 B     8.526429820198E+00 -2.535106606227E-01 -1.505266439973E+00
   13     1 H    -1.261537314627E+00  5.369559361413E+00  1.483955219973E+00
   14     1 H     2.238042134758E+00 -3.591915614898E+00 -1.516044779972E+00
   15     1 H     1.257343306993E+00 -5.367406740038E+00  1.480771259973E+00
   16     1 H     4.756922756379E+00  6.950342836513E-01 -1.519228739972E+00
   17     1 H    -1.262476726858E+00 -5.369859166531E+00  1.480281239973E+00
   18     1 H     2.237102722528E+00  6.925818571584E-01 -1.519718759972E+00
   19     1 H     1.258665912305E+00  5.368393407125E+00  1.480403459973E+00
   20     1 H     4.758245361691E+00 -3.593081569186E+00 -1.519596539972E+00
   21     1 H    -4.020091243604E+00  3.777994545737E+00  1.516044959972E+00
   22     1 H    -5.205117942180E-01 -5.183480430574E+00 -1.483955099973E+00
   23     1 H     4.019591921308E+00 -3.771095137117E+00  1.519229099972E+00
   24     1 H    -5.492186522363E+00 -5.221681134212E+00 -1.480770899973E+00
   25     1 H     5.280916467485E+00 -1.590382254851E+00  1.519719419972E+00
   26     1 H    -4.230861976185E+00 -3.040968251945E+00 -1.480280579973E+00
   27     1 H    -5.278552258728E+00  1.594965638826E+00  1.519596359972E+00
   28     1 H    -1.778972809342E+00 -7.366509337486E+00 -1.480403579973E+00
   29     1 H    -4.019566297214E+00 -3.778585462670E+00  1.483955399973E+00
   30     1 H    -5.199868478282E-01  2.283855561019E+00 -1.516044599972E+00
   31     1 H     4.020009797760E+00  3.773254151072E+00  1.480771079973E+00
   32     1 H    -5.491768645911E+00  2.322668153978E+00 -1.519228979972E+00
   33     1 H     5.280533757170E+00  1.591502757360E+00  1.480280819973E+00
   34     1 H    -4.231244686500E+00  1.409167602654E-01 -1.519719179972E+00
   35     1 H    -5.278829707680E+00 -1.595794287619E+00  1.480403819973E+00
   36     1 H    -1.779250258294E+00  4.466646736070E+00 -1.519596179972E+00
   37     6 C    -1.406657044860E+00  7.511811994098E+00  1.494366059973E+00
   38     6 C     2.092922404526E+00 -1.449662982213E+00 -1.505633939973E+00
   39     6 C    -6.962524964399E-01  6.303084296665E+00  1.484445239973E+00
   40     6 C     2.803326952946E+00 -2.658390679646E+00 -1.515554819972E+00
   41     6 C     6.946487829053E-01 -6.302615662094E+00  1.483588199973E+00
   42     6 C     4.194228232291E+00 -2.401746384055E-01 -1.516411799972E+00
   43     6 C    -6.967339203273E-01 -6.303107168822E+00  1.486160159973E+00
   44     6 C     2.802845529058E+00 -2.406661451331E-01 -1.513839839973E+00
   45     6 C     6.951460855964E-01  6.303134415164E+00  1.479546059973E+00
   46     6 C     4.194725534982E+00 -2.658340561148E+00 -1.520453879972E+00
   47     6 C     1.405690470705E+00 -7.511585188223E+00  1.486282559973E+00
   48     6 C     4.905269920091E+00 -1.449144164534E+00 -1.513717439973E+00
   49     6 C     7.208801979967E+00 -2.536223204722E+00  1.505634119973E+00
   50     6 C    -2.302976463704E+00 -3.986809201817E+00 -1.494365879973E+00
   51     6 C    -5.111152803573E+00  3.755054957279E+00  1.515554879972E+00
   52     6 C    -1.611573354188E+00 -5.206420019032E+00 -1.484445119973E+00
   53     6 C     5.110840851861E+00 -3.751603954062E+00  1.516412219972E+00
   54     6 C    -4.400937591810E+00 -5.202189951157E+00 -1.483587779973E+00
   55     6 C     5.806804208647E+00 -2.546700134327E+00  1.513840319973E+00
   56     6 C    -3.704974235023E+00 -3.997286131422E+00 -1.486159679973E+00
   57     6 C    -5.806753018308E+00  2.550051470579E+00  1.520453879972E+00
   58     6 C    -2.307173568922E+00 -6.411423505732E+00 -1.479546119973E+00
   59     6 C     5.802124413815E+00 -4.972025776090E+00  1.513717679973E+00
   60     6 C    -3.709654029856E+00 -6.422611773184E+00 -1.486282319973E+00
   61     6 C     7.208872915819E+00  2.537403853304E+00  1.494366059973E+00
   62     6 C    -2.302905527851E+00  1.086817856209E+00 -1.505633939973E+00
   63     6 C    -5.110731559789E+00 -3.756096724527E+00  1.484445419973E+00
   64     6 C    -1.611152110403E+00  2.306344299162E+00 -1.515554579972E+00
   65     6 C     5.111162302175E+00  3.752790016159E+00  1.483587959973E+00
   66     6 C    -4.400616141496E+00  2.302204019064E+00 -1.516412039972E+00
   67     6 C     5.806800103853E+00  2.547718983004E+00  1.486159919973E+00
   68     6 C    -3.704978339818E+00  1.097132985910E+00 -1.513840079973E+00
   69     6 C    -5.806413204796E+00 -2.551147901413E+00  1.479546359973E+00
   70     6 C    -2.306833755411E+00  3.511293122276E+00 -1.520453639972E+00
   71     6 C     5.802541746381E+00  4.973057637286E+00  1.486282559973E+00
   72     6 C    -3.709236697290E+00  3.522471640191E+00 -1.513717439973E+00
   73     8 O     7.295942444173E+00  6.254023116313E-04  1.497428039973E+00
   74     8 O    -2.215835999498E+00 -1.449960594783E+00 -1.502571959973E+00
   75     8 O    -3.647324953385E+00  6.317811547212E+00  1.518616739972E+00
   76     8 O    -1.477455039994E-01 -2.643663429099E+00 -1.481383259973E+00
   77     8 O    -3.647354551330E+00 -6.318108866022E+00  1.486650059973E+00
   78     8 O    -1.477751019441E-01 -2.556678423333E-01 -1.513349939973E+00
   79     8 O     3.647399342734E+00 -6.317432888438E+00  1.497428159973E+00
   80     8 O     7.146978792120E+00 -2.549918647493E-01 -1.502571839973E+00
   81     8 O     3.647652498718E+00  6.318202750475E+00  1.518616739972E+00
   82     8 O     7.147231948104E+00 -2.643272225836E+00 -1.481383259973E+00
   83     8 O    -7.295942021499E+00 -5.552357638786E-04  1.486649999973E+00
   84     8 O    -3.796362572113E+00  6.061885787925E+00 -1.513349999973E+00

 *******************************************************************************
 STARTING BASIS SET HANDLING 
 *******************************************************************************

 Loading internal basis set: SOLDEF2MSVP         

 Please cite in your publication:
 L. Dona', J. G. Brandenburg and B. Civalleri, J. Chem. Phys., 151, 121101 (2019
 )                                                                              
                                                                                
                    

 *******************************************************************************
 LOCAL ATOMIC FUNCTIONS BASIS SET
 *******************************************************************************
   ATOM   X(AU)   Y(AU)   Z(AU)  N. TYPE  EXPONENT  S COEF   P COEF   D/F/G COEF
 *******************************************************************************
   1 B   -9.499  11.937   2.844
                                  1 S  
                                         2.410E+03 1.755E-03 0.000E+00 0.000E+00
                                         3.619E+02 1.344E-02 0.000E+00 0.000E+00
                                         8.231E+01 6.637E-02 0.000E+00 0.000E+00
                                         2.311E+01 2.303E-01 0.000E+00 0.000E+00
                                         7.252E+00 5.150E-01 0.000E+00 0.000E+00
                                  2 S  
                                         2.367E+00 1.000E+00 0.000E+00 0.000E+00
                                  3 S  
                                         5.533E-01 1.000E+00 0.000E+00 0.000E+00
                                  4 S  
                                         1.716E-01 1.000E+00 0.000E+00 0.000E+00
                           5-     7 P  
                                         6.002E+00 0.000E+00-3.555E-02 0.000E+00
                                         1.240E+00 0.000E+00-1.983E-01 0.000E+00
                                         3.367E-01 0.000E+00-5.048E-01 0.000E+00
                           8-    10 P  
                                         1.256E-01 0.000E+00 1.000E+00 0.000E+00
                          11-    15 D  
                                         8.880E-01 0.000E+00 0.000E+00 1.000E+00
   2 B   -2.886  -4.998  -2.826
   3 B   -5.588  14.195   2.844
   4 B    1.025  -2.739  -2.826
   5 B   -9.499 -11.939   2.825
   6 B   -2.886  -0.482  -2.845
   7 B    5.588 -14.195   2.844
   8 B   12.201  -2.739  -2.826
   9 B    9.500  11.937   2.844
  10 B   -8.475   9.196  -2.826
  11 B    9.499 -11.935   2.825
  12 B   16.113  -0.479  -2.845
  13 H   -2.384  10.147   2.804
                                181 S  
                                         1.874E+01 1.968E-02 0.000E+00 0.000E+00
                                         2.826E+00 1.380E-01 0.000E+00 0.000E+00
                                         6.401E-01 4.783E-01 0.000E+00 0.000E+00
                                182 S  
                                         1.756E-01 1.000E+00 0.000E+00 0.000E+00
  14 H    4.229  -6.788  -2.865
  15 H    2.376 -10.143   2.798
  16 H    8.989   1.313  -2.871
  17 H   -2.386 -10.148   2.797
  18 H    4.228   1.309  -2.872
  19 H    2.379  10.145   2.798
  20 H    8.992  -6.790  -2.872
  21 H   -7.597   7.139   2.865
  22 H   -0.984  -9.795  -2.804
  23 H    7.596  -7.126   2.871
  24 H  -10.379  -9.868  -2.798
  25 H    9.979  -3.005   2.872
  26 H   -7.995  -5.747  -2.797
  27 H   -9.975   3.014   2.872
  28 H   -3.362 -13.921  -2.798
  29 H   -7.596  -7.140   2.804
  30 H   -0.983   4.316  -2.865
  31 H    7.597   7.130   2.798
  32 H  -10.378   4.389  -2.871
  33 H    9.979   3.008   2.797
  34 H   -7.996   0.266  -2.872
  35 H   -9.976  -3.016   2.798
  36 H   -3.362   8.441  -2.872
  37 C   -2.658  14.195   2.824
                                229 S  
                                         3.624E+03 1.634E-03 0.000E+00 0.000E+00
                                         5.440E+02 1.252E-02 0.000E+00 0.000E+00
                                         1.237E+02 6.211E-02 0.000E+00 0.000E+00
                                         3.476E+01 2.182E-01 0.000E+00 0.000E+00
                                         1.093E+01 4.980E-01 0.000E+00 0.000E+00
                                230 S  
                                         3.574E+00 1.000E+00 0.000E+00 0.000E+00
                                231 S  
                                         7.742E-01 1.000E+00 0.000E+00 0.000E+00
                                232 S  
                                         2.330E-01 1.000E+00 0.000E+00 0.000E+00
                         233-   235 P  
                                         9.443E+00 0.000E+00 3.790E-02 0.000E+00
                                         2.002E+00 0.000E+00 2.082E-01 0.000E+00
                                         5.463E-01 0.000E+00 5.047E-01 0.000E+00
                         236-   238 P  
                                         1.820E-01 0.000E+00 1.000E+00 0.000E+00
                         239-   243 D  
                                         8.880E-01 0.000E+00 0.000E+00 1.000E+00
  38 C    3.955  -2.739  -2.845
  39 C   -1.316  11.911   2.805
  40 C    5.298  -5.024  -2.864
  41 C    1.313 -11.910   2.804
  42 C    7.926  -0.454  -2.866
  43 C   -1.317 -11.911   2.808
  44 C    5.297  -0.455  -2.861
  45 C    1.314  11.911   2.796
  46 C    7.927  -5.024  -2.873
  47 C    2.656 -14.195   2.809
  48 C    9.270  -2.738  -2.861
  49 C   13.623  -4.793   2.845
  50 C   -4.352  -7.534  -2.824
  51 C   -9.659   7.096   2.864
  52 C   -3.045  -9.839  -2.805
  53 C    9.658  -7.090   2.866
  54 C   -8.317  -9.831  -2.804
  55 C   10.973  -4.813   2.861
  56 C   -7.001  -7.554  -2.808
  57 C  -10.973   4.819   2.873
  58 C   -4.360 -12.116  -2.796
  59 C   10.964  -9.396   2.861
  60 C   -7.010 -12.137  -2.809
  61 C   13.623   4.795   2.824
  62 C   -4.352   2.054  -2.845
  63 C   -9.658  -7.098   2.805
  64 C   -3.045   4.358  -2.864
  65 C    9.659   7.092   2.804
  66 C   -8.316   4.351  -2.866
  67 C   10.973   4.814   2.808
  68 C   -7.001   2.073  -2.861
  69 C  -10.973  -4.821   2.796
  70 C   -4.359   6.635  -2.873
  71 C   10.965   9.398   2.809
  72 C   -7.009   6.657  -2.861
  73 O   13.787   0.001   2.830
                                769 S  
                                         6.773E+03 1.727E-03 0.000E+00 0.000E+00
                                         1.017E+03 1.325E-02 0.000E+00 0.000E+00
                                         2.313E+02 6.603E-02 0.000E+00 0.000E+00
                                         6.501E+01 2.353E-01 0.000E+00 0.000E+00
                                         2.050E+01 5.498E-01 0.000E+00 0.000E+00
                                770 S  
                                         6.716E+00 1.000E+00 0.000E+00 0.000E+00
                                771 S  
                                         1.147E+00 1.000E+00 0.000E+00 0.000E+00
                                772 S  
                                         3.342E-01 1.000E+00 0.000E+00 0.000E+00
                         773-   775 P  
                                         1.769E+01 0.000E+00 4.359E-02 0.000E+00
                                         3.854E+00 0.000E+00 2.318E-01 0.000E+00
                                         1.047E+00 0.000E+00 5.146E-01 0.000E+00
                         776-   778 P  
                                         2.759E-01 0.000E+00 1.000E+00 0.000E+00
                         779-   783 D  
                                         8.000E-01 0.000E+00 0.000E+00 1.000E+00
  74 O   -4.187  -2.740  -2.839
  75 O   -6.892  11.939   2.870
  76 O   -0.279  -4.996  -2.799
  77 O   -6.893 -11.939   2.809
  78 O   -0.279  -0.483  -2.860
  79 O    6.893 -11.938   2.830
  80 O   13.506  -0.482  -2.839
  81 O    6.893  11.940   2.870
  82 O   13.506  -4.995  -2.799
  83 O  -13.787  -0.001   2.809
  84 O   -7.174  11.455  -2.860

 *******************************************************************************
 FINISHED BASIS SET HANDLING 
 *******************************************************************************

 INFORMATION **** SET_MPP **** PCRYSTAL CALCULATION
 INFORMATION **** READM2 **** NEW DEFAULT: FOCK/KS MATRIX MIXING SET TO 30 %
 INFORMATION **** READM2 **** NEW DEFAULT: FULL DIRECT SCF MODE
 INFORMATION **** READM2 **** NEW DEFAULT: COULOMB BIPOLAR BUFFER SET TO 32 Mb
 INFORMATION **** READM2 **** NEW DEFAULT: EXCHANGE BIPOLAR BUFFER SET TO 32 Mb

 *******************************************************************************
 NEW DEFAULT: DFT INTEGRATION GRID INCREASED TO XLGRID
 NEW DEFAULT: DIIS ACCELERATOR ACTIVE
 USE KEYWORD NODIIS TO TURN IT OFF
 *******************************************************************************

 WARNING **** RDDFTP **** HSEsol-HJS ACTIVE
 RANGE SEPARATION - OMEGA:   0.110000000000000     
 WARNING **** RDDFTP **** HSEsol-3c has to be combined with sol-def2-mSVP basis set
 *******************************************************************************
 N. OF ATOMS PER CELL        84  COULOMB OVERLAP TOL         (T1) 10**   -6
 NUMBER OF SHELLS           468  COULOMB PENETRATION TOL     (T2) 10**   -6
 NUMBER OF AO               948  EXCHANGE OVERLAP TOL        (T3) 10**   -6
 N. OF ELECTRONS PER CELL   396  EXCHANGE PSEUDO OVP (F(G))  (T4) 10**   -6
 CORE ELECTRONS PER CELL    120  EXCHANGE PSEUDO OVP (P(G))  (T5) 10**  -12
 N. OF SYMMETRY OPERATORS     1  POLE ORDER IN MONO ZONE                  4
 *******************************************************************************
 TYPE OF CALCULATION :  RESTRICTED CLOSED SHELL
 KOHN-SHAM HAMILTONIAN

 (EXCHANGE)[CORRELATION] FUNCTIONAL:(HSEsol GGA)[PBEsol]

 RANGE-SEPARATED HYBRID FUNCTIONAL 
 OMEGA (SHORT-RANGE)[LONG-RANGE]:(    0.1100)[    0.0000]

 HYBRID EXCHANGE - PERCENTAGE OF FOCK EXCHANGE    25.0000

 CAPPA:IS1  2;IS2  2;IS3  8; K PTS MONK NET  20; SYMMOPS:K SPACE   2;G SPACE   1

 *******************************************************************************
 MAX NUMBER OF SCF CYCLES      50  CONVERGENCE ON DELTAP        10**-16
 WEIGHT OF F(I) IN F(I+1)      30% CONVERGENCE ON ENERGY        10**- 6
 SHRINK. FACT.(MONKH.)    2  2  8  NUMBER OF K POINTS IN THE IBZ     20
 SHRINKING FACTOR(GILAT NET)    8  NUMBER OF K POINTS(GILAT NET)   1028
 *******************************************************************************
 *** K POINTS COORDINATES (OBLIQUE COORDINATES IN UNITS OF IS =  2)
   1-R(  0  0  0)   2-R(  1  0  0)   3-R(  0  1  0)   4-R(  1  1  0)
   5-C(  0  0  1)   6-C(  1  0  1)   7-C(  0  1  1)   8-C(  1  1  1)
   9-C(  0  0  2)  10-C(  1  0  2)  11-C(  0  1  2)  12-C(  1  1  2)
  13-C(  0  0  3)  14-C(  1  0  3)  15-C(  0  1  3)  16-C(  1  1  3)
  17-R(  0  0  4)  18-R(  1  0  4)  19-R(  0  1  4)  20-R(  1  1  4)

 DIRECT LATTICE VECTORS COMPON. (A.U.)     RECIP. LATTICE VECTORS COMPON. (A.U.) 
        X            Y            Z              X            Y            Z
   24.5879030  -14.1935232    0.0000000      0.2555397    0.0000000    0.0000005
    0.0000000   28.3910867    0.0000000      0.1277517    0.2213084    0.0000015
   -0.0000241   -0.0000639   11.3383568      0.0000000    0.0000000    0.5541531

 DISK SPACE FOR EIGENVECTORS (FTN 10)    28758528 REALS

 SYMMETRY ADAPTION OF THE BLOCH FUNCTIONS DISABLED
 TTTTTTTTTTTTTTTTTTTTTTTTTTTTTT gordsh1     TELAPSE        0.06 TCPU        0.06

 MATRIX SIZE: P(G)  821262, F(G)  151328, P(G) IRR  412797, F(G) IRR  152576
 MAX G-VECTOR INDEX FOR 1- AND 2-ELECTRON INTEGRALS  57

 TTTTTTTTTTTTTTTTTTTTTTTTTTTTTT INPUT       TELAPSE        2.99 TCPU        2.98

 NEIGHBORS OF THE NON-EQUIVALENT ATOMS

 N = NUMBER OF NEIGHBORS AT DISTANCE R
    ATOM  N     R/ANG      R/AU   NEIGHBORS (ATOM LABELS AND CELL INDICES)
   1 B    1     1.3791     2.6061   73 O   -1 0 0
   1 B    1     1.3793     2.6065   75 O    0 0 0
   1 B    1     1.5503     2.9297   49 C   -1 0 0
   1 B    1     2.3895     4.5155    5 B    0 1 0
   1 B    1     2.3898     4.5160    3 B    0 0 0
   1 B    1     2.5632     4.8437   51 C    0 0 0

   2 B    1     1.3791     2.6061   74 O    0 0 0
   2 B    1     1.3793     2.6065   76 O    0 0 0
   2 B    1     1.5503     2.9297   50 C    0 0 0
   2 B    1     2.3895     4.5155    6 B    0 0 0
   2 B    1     2.3898     4.5160    4 B    0 0 0
   2 B    1     2.5632     4.8437   52 C    0 0 0

   3 B    1     1.3793     2.6065   77 O    0 1 0
   3 B    1     1.3793     2.6065   75 O    0 0 0
   3 B    1     1.5504     2.9298   37 C    0 0 0
   3 B    1     2.3895     4.5156    5 B    0 1 0
   3 B    1     2.3898     4.5160    1 B    0 0 0
   3 B    1     2.5634     4.8440   43 C    0 1 0

   4 B    1     1.3793     2.6065   78 O    0 0 0
   4 B    1     1.3793     2.6065   76 O    0 0 0
   4 B    1     1.5504     2.9298   38 C    0 0 0
   4 B    1     2.3895     4.5156    6 B    0 0 0
   4 B    1     2.3898     4.5160    2 B    0 0 0
   4 B    1     2.5634     4.8440   44 C    0 0 0

   5 B    1     1.3791     2.6061   73 O   -1-1 0
   5 B    1     1.3793     2.6064   77 O    0 0 0
   5 B    1     1.5502     2.9294   61 C   -1-1 0
   5 B    1     2.3895     4.5155    1 B    0-1 0
   5 B    1     2.3895     4.5156    3 B    0-1 0
   5 B    1     2.5629     4.8433   63 C    0 0 0

   6 B    1     1.3791     2.6061   74 O    0 0 0
   6 B    1     1.3793     2.6064   78 O    0 0 0
   6 B    1     1.5502     2.9294   62 C    0 0 0
   6 B    1     2.3895     4.5155    2 B    0 0 0
   6 B    1     2.3895     4.5156    4 B    0 0 0
   6 B    1     2.5629     4.8433   64 C    0 0 0

   7 B    1     1.3795     2.6068   79 O    0 0 0
   7 B    1     1.3795     2.6070   81 O    0-1 0
   7 B    1     1.5513     2.9316   47 C    0 0 0
   7 B    1     2.3905     4.5174   11 B    0 0 0
   7 B    1     2.3905     4.5175    9 B    0-1 0
   7 B    1     2.5648     4.8468   45 C    0-1 0

   8 B    1     1.3795     2.6068   80 O    0 0 0
   8 B    1     1.3795     2.6070   82 O    0 0 0
   8 B    1     1.5513     2.9316   48 C    0 0 0
   8 B    1     2.3905     4.5174   12 B    0 0 0
   8 B    1     2.3905     4.5175   10 B    1 0 0
   8 B    1     2.5648     4.8468   46 C    0 0 0

   9 B    1     1.3795     2.6069   81 O    0 0 0
   9 B    1     1.3797     2.6072   83 O    1 1 0
   9 B    1     1.5516     2.9322   71 C    0 0 0
   9 B    1     2.3905     4.5175    7 B    0 1 0
   9 B    1     2.3911     4.5185   11 B    0 1 0
   9 B    1     2.5651     4.8473   69 C    1 1 0

  10 B    1     1.3795     2.6069   82 O   -1 0 0
  10 B    1     1.3797     2.6072   84 O    0 0 0
  10 B    1     1.5516     2.9322   72 C    0 0 0
  10 B    1     2.3905     4.5175    8 B   -1 0 0
  10 B    1     2.3911     4.5185   12 B   -1 0 0
  10 B    1     2.5651     4.8473   70 C    0 0 0

  11 B    1     1.3795     2.6068   79 O    0 0 0
  11 B    1     1.3796     2.6071   83 O    1 0 0
  11 B    1     1.5516     2.9322   59 C    0 0 0
  11 B    1     2.3905     4.5174    7 B    0 0 0
  11 B    1     2.3911     4.5185    9 B    0-1 0
  11 B    1     2.5651     4.8473   57 C    1 0 0

  12 B    1     1.3795     2.6068   80 O    0 0 0
  12 B    1     1.3796     2.6071   84 O    1 0 0
  12 B    1     1.5516     2.9322   60 C    1 1 0
  12 B    1     2.3905     4.5174    8 B    0 0 0
  12 B    1     2.3911     4.5185   10 B    1 0 0
  12 B    1     2.5651     4.8473   58 C    1 1 0

  13 H    1     1.0913     2.0623   39 C    0 0 0
  13 H    1     2.1472     4.0576   37 C    0 0 0
  13 H    1     2.1680     4.0969   45 C    0 0 0
  13 H    1     2.5202     4.7625   19 H    0 0 0
  13 H    1     2.5676     4.8520   75 O    0 0 0
  13 H    1     2.7321     5.1630    3 B    0 0 0

  14 H    1     1.0913     2.0623   40 C    0 0 0
  14 H    1     2.1472     4.0576   38 C    0 0 0
  14 H    1     2.1680     4.0969   46 C    0 0 0
  14 H    1     2.5202     4.7625   20 H    0 0 0
  14 H    1     2.5676     4.8520   76 O    0 0 0
  14 H    1     2.7321     5.1630    4 B    0 0 0

  15 H    1     1.0914     2.0625   41 C    0 0 0
  15 H    1     2.1493     4.0616   47 C    0 0 0
  15 H    1     2.1666     4.0942   43 C    0 0 0
  15 H    1     2.5198     4.7618   17 H    0 0 0
  15 H    1     2.5720     4.8604   79 O    0 0 0
  15 H    1     2.7362     5.1707    7 B    0 0 0

  16 H    1     1.0914     2.0625   42 C    0 0 0
  16 H    1     2.1493     4.0616   48 C    0 0 0
  16 H    1     2.1666     4.0942   44 C    0 0 0
  16 H    1     2.5198     4.7618   18 H    0 0 0
  16 H    1     2.5720     4.8604   80 O    0 0 0
  16 H    1     2.7362     5.1707    8 B    0 0 0

  17 H    1     1.0914     2.0624   43 C    0 0 0
  17 H    1     2.1471     4.0575   37 C    0-1 0
  17 H    1     2.1680     4.0970   41 C    0 0 0
  17 H    1     2.5198     4.7618   15 H    0 0 0
  17 H    1     2.5665     4.8500   77 O    0 0 0
  17 H    1     2.7315     5.1618    3 B    0-1 0

  18 H    1     1.0914     2.0624   44 C    0 0 0
  18 H    1     2.1471     4.0575   38 C    0 0 0
  18 H    1     2.1680     4.0970   42 C    0 0 0
  18 H    1     2.5198     4.7618   16 H    0 0 0
  18 H    1     2.5665     4.8500   78 O    0 0 0
  18 H    1     2.7315     5.1618    4 B    0 0 0

  19 H    1     1.0915     2.0626   45 C    0 0 0
  19 H    1     2.1490     4.0610   47 C    0 1 0
  19 H    1     2.1669     4.0948   39 C    0 0 0
  19 H    1     2.5202     4.7625   13 H    0 0 0
  19 H    1     2.5712     4.8588   81 O    0 0 0
  19 H    1     2.7351     5.1686    7 B    0 1 0

  20 H    1     1.0915     2.0626   46 C    0 0 0
  20 H    1     2.1490     4.0610   48 C    0 0 0
  20 H    1     2.1669     4.0948   40 C    0 0 0
  20 H    1     2.5202     4.7625   14 H    0 0 0
  20 H    1     2.5712     4.8588   82 O    0 0 0
  20 H    1     2.7351     5.1686    8 B    0 0 0

  21 H    1     1.0913     2.0623   51 C    0 0 0
  21 H    1     2.1469     4.0571   49 C   -1 0 0
  21 H    1     2.1680     4.0968   57 C    0 0 0
  21 H    1     2.5198     4.7617   27 H    0 0 0
  21 H    1     2.5670     4.8510   75 O    0 0 0
  21 H    1     2.7310     5.1609    1 B    0 0 0

  22 H    1     1.0913     2.0623   52 C    0 0 0
  22 H    1     2.1469     4.0571   50 C    0 0 0
  22 H    1     2.1680     4.0968   58 C    0 0 0
  22 H    1     2.5198     4.7617   28 H    0 0 0
  22 H    1     2.5670     4.8510   76 O    0 0 0
  22 H    1     2.7310     5.1609    2 B    0 0 0

  23 H    1     1.0914     2.0625   53 C    0 0 0
  23 H    1     2.1493     4.0617   59 C    0 0 0
  23 H    1     2.1664     4.0939   55 C    0 0 0
  23 H    1     2.5192     4.7606   25 H    0 0 0
  23 H    1     2.5735     4.8632   79 O    0 0 0
  23 H    1     2.7371     5.1723   11 B    0 0 0

  24 H    1     1.0914     2.0625   54 C    0 0 0
  24 H    1     2.1493     4.0617   60 C    0 0 0
  24 H    1     2.1664     4.0939   56 C    0 0 0
  24 H    1     2.5192     4.7606   26 H    0 0 0
  24 H    1     2.5735     4.8632   80 O   -1-1 0
  24 H    1     2.7371     5.1723   12 B   -1-1 0

  25 H    1     1.0914     2.0624   55 C    0 0 0
  25 H    1     2.1475     4.0581   49 C    0 0 0
  25 H    1     2.1679     4.0967   53 C    0 0 0
  25 H    1     2.5192     4.7606   23 H    0 0 0
  25 H    1     2.5675     4.8519   73 O    0 0 0
  25 H    1     2.7328     5.1643    1 B    1 0 0

  26 H    1     1.0914     2.0624   56 C    0 0 0
  26 H    1     2.1475     4.0581   50 C    0 0 0
  26 H    1     2.1679     4.0967   54 C    0 0 0
  26 H    1     2.5192     4.7606   24 H    0 0 0
  26 H    1     2.5675     4.8519   74 O    0 0 0
  26 H    1     2.7328     5.1643    2 B    0 0 0

  27 H    1     1.0914     2.0625   57 C    0 0 0
  27 H    1     2.1491     4.0612   59 C   -1 0 0
  27 H    1     2.1666     4.0942   51 C    0 0 0
  27 H    1     2.5198     4.7617   21 H    0 0 0
  27 H    1     2.5723     4.8609   83 O    0 0 0
  27 H    1     2.7355     5.1693   11 B   -1 0 0

  28 H    1     1.0914     2.0625   58 C    0 0 0
  28 H    1     2.1491     4.0612   60 C    0 0 0
  28 H    1     2.1666     4.0942   52 C    0 0 0
  28 H    1     2.5198     4.7617   22 H    0 0 0
  28 H    1     2.5723     4.8609   84 O    0-1 0
  28 H    1     2.7355     5.1693   12 B   -1-1 0

  29 H    1     1.0914     2.0624   63 C    0 0 0
  29 H    1     2.1475     4.0582   61 C   -1-1 0
  29 H    1     2.1678     4.0966   69 C    0 0 0
  29 H    1     2.5200     4.7621   35 H    0 0 0
  29 H    1     2.5667     4.8503   77 O    0 0 0
  29 H    1     2.7315     5.1618    5 B    0 0 0

  30 H    1     1.0914     2.0624   64 C    0 0 0
  30 H    1     2.1475     4.0582   62 C    0 0 0
  30 H    1     2.1678     4.0966   70 C    0 0 0
  30 H    1     2.5200     4.7621   36 H    0 0 0
  30 H    1     2.5667     4.8503   78 O    0 0 0
  30 H    1     2.7315     5.1618    6 B    0 0 0

  31 H    1     1.0913     2.0623   65 C    0 0 0
  31 H    1     2.1487     4.0605   71 C    0 0 0
  31 H    1     2.1667     4.0945   67 C    0 0 0
  31 H    1     2.5197     4.7616   33 H    0 0 0
  31 H    1     2.5723     4.8610   81 O    0 0 0
  31 H    1     2.7359     5.1701    9 B    0 0 0

  32 H    1     1.0913     2.0623   66 C    0 0 0
  32 H    1     2.1487     4.0605   72 C    0 0 0
  32 H    1     2.1667     4.0945   68 C    0 0 0
  32 H    1     2.5197     4.7616   34 H    0 0 0
  32 H    1     2.5723     4.8610   82 O   -1 0 0
  32 H    1     2.7359     5.1701   10 B    0 0 0

  33 H    1     1.0915     2.0626   67 C    0 0 0
  33 H    1     2.1479     4.0589   61 C    0 0 0
  33 H    1     2.1679     4.0968   65 C    0 0 0
  33 H    1     2.5197     4.7616   31 H    0 0 0
  33 H    1     2.5677     4.8522   73 O    0 0 0
  33 H    1     2.7331     5.1648    5 B    1 1 0

  34 H    1     1.0915     2.0626   68 C    0 0 0
  34 H    1     2.1479     4.0589   62 C    0 0 0
  34 H    1     2.1679     4.0968   66 C    0 0 0
  34 H    1     2.5197     4.7616   32 H    0 0 0
  34 H    1     2.5677     4.8522   74 O    0 0 0
  34 H    1     2.7331     5.1648    6 B    0 0 0

  35 H    1     1.0914     2.0624   69 C    0 0 0
  35 H    1     2.1486     4.0602   71 C   -1-1 0
  35 H    1     2.1668     4.0947   63 C    0 0 0
  35 H    1     2.5200     4.7621   29 H    0 0 0
  35 H    1     2.5717     4.8598   83 O    0 0 0
  35 H    1     2.7349     5.1682    9 B   -1-1 0

  36 H    1     1.0914     2.0624   70 C    0 0 0
  36 H    1     2.1486     4.0602   72 C    0 0 0
  36 H    1     2.1668     4.0947   64 C    0 0 0
  36 H    1     2.5200     4.7621   30 H    0 0 0
  36 H    1     2.5717     4.8598   84 O    0 0 0
  36 H    1     2.7349     5.1682   10 B    0 0 0

  37 C    1     1.4020     2.6495   43 C    0 1 0
  37 C    1     1.4021     2.6495   39 C    0 0 0
  37 C    1     1.5504     2.9298    3 B    0 0 0
  37 C    1     2.1471     4.0575   17 H    0 1 0
  37 C    1     2.1472     4.0576   13 H    0 0 0
  37 C    1     2.4246     4.5817   41 C    0 1 0

  38 C    1     1.4020     2.6495   44 C    0 0 0
  38 C    1     1.4021     2.6495   40 C    0 0 0
  38 C    1     1.5504     2.9298    4 B    0 0 0
  38 C    1     2.1471     4.0575   18 H    0 0 0
  38 C    1     2.1472     4.0576   14 H    0 0 0
  38 C    1     2.4246     4.5817   42 C    0 0 0

  39 C    1     1.0913     2.0623   13 H    0 0 0
  39 C    1     1.3914     2.6294   45 C    0 0 0
  39 C    1     1.4021     2.6495   37 C    0 0 0
  39 C    1     2.1669     4.0948   19 H    0 0 0
  39 C    1     2.4177     4.5688   43 C    0 1 0
  39 C    1     2.4250     4.5825   47 C    0 1 0

  40 C    1     1.0913     2.0623   14 H    0 0 0
  40 C    1     1.3914     2.6294   46 C    0 0 0
  40 C    1     1.4021     2.6495   38 C    0 0 0
  40 C    1     2.1669     4.0948   20 H    0 0 0
  40 C    1     2.4177     4.5688   44 C    0 0 0
  40 C    1     2.4250     4.5825   48 C    0 0 0

  41 C    1     1.0914     2.0625   15 H    0 0 0
  41 C    1     1.3914     2.6293   43 C    0 0 0
  41 C    1     1.4026     2.6505   47 C    0 0 0
  41 C    1     2.1680     4.0970   17 H    0 0 0
  41 C    1     2.4182     4.5697   45 C    0-1 0
  41 C    1     2.4246     4.5817   37 C    0-1 0

  42 C    1     1.0914     2.0625   16 H    0 0 0
  42 C    1     1.3914     2.6293   44 C    0 0 0
  42 C    1     1.4026     2.6505   48 C    0 0 0
  42 C    1     2.1680     4.0970   18 H    0 0 0
  42 C    1     2.4182     4.5697   46 C    0 0 0
  42 C    1     2.4246     4.5817   38 C    0 0 0

  43 C    1     1.0914     2.0624   17 H    0 0 0
  43 C    1     1.3914     2.6293   41 C    0 0 0
  43 C    1     1.4020     2.6495   37 C    0-1 0
  43 C    1     2.1666     4.0942   15 H    0 0 0
  43 C    1     2.4177     4.5688   39 C    0-1 0
  43 C    1     2.4250     4.5826   47 C    0 0 0

  44 C    1     1.0914     2.0624   18 H    0 0 0
  44 C    1     1.3914     2.6293   42 C    0 0 0
  44 C    1     1.4020     2.6495   38 C    0 0 0
  44 C    1     2.1666     4.0942   16 H    0 0 0
  44 C    1     2.4177     4.5688   40 C    0 0 0
  44 C    1     2.4250     4.5826   48 C    0 0 0

  45 C    1     1.0915     2.0626   19 H    0 0 0
  45 C    1     1.3914     2.6294   39 C    0 0 0
  45 C    1     1.4025     2.6504   47 C    0 1 0
  45 C    1     2.1680     4.0969   13 H    0 0 0
  45 C    1     2.4182     4.5697   41 C    0 1 0
  45 C    1     2.4246     4.5818   37 C    0 0 0

  46 C    1     1.0915     2.0626   20 H    0 0 0
  46 C    1     1.3914     2.6294   40 C    0 0 0
  46 C    1     1.4025     2.6504   48 C    0 0 0
  46 C    1     2.1680     4.0969   14 H    0 0 0
  46 C    1     2.4182     4.5697   42 C    0 0 0
  46 C    1     2.4246     4.5818   38 C    0 0 0

  47 C    1     1.4025     2.6504   45 C    0-1 0
  47 C    1     1.4026     2.6505   41 C    0 0 0
  47 C    1     1.5513     2.9316    7 B    0 0 0
  47 C    1     2.1490     4.0610   19 H    0-1 0
  47 C    1     2.1493     4.0616   15 H    0 0 0
  47 C    1     2.4250     4.5825   39 C    0-1 0

  48 C    1     1.4025     2.6504   46 C    0 0 0
  48 C    1     1.4026     2.6505   42 C    0 0 0
  48 C    1     1.5513     2.9316    8 B    0 0 0
  48 C    1     2.1490     4.0610   20 H    0 0 0
  48 C    1     2.1493     4.0616   16 H    0 0 0
  48 C    1     2.4250     4.5825   40 C    0 0 0

  49 C    1     1.4020     2.6494   51 C    1 0 0
  49 C    1     1.4021     2.6495   55 C    0 0 0
  49 C    1     1.5503     2.9297    1 B    1 0 0
  49 C    1     2.1469     4.0571   21 H    1 0 0
  49 C    1     2.1475     4.0581   25 H    0 0 0
  49 C    1     2.4246     4.5818   53 C    0 0 0

  50 C    1     1.4020     2.6494   52 C    0 0 0
  50 C    1     1.4021     2.6495   56 C    0 0 0
  50 C    1     1.5503     2.9297    2 B    0 0 0
  50 C    1     2.1469     4.0571   22 H    0 0 0
  50 C    1     2.1475     4.0581   26 H    0 0 0
  50 C    1     2.4246     4.5818   54 C    0 0 0

  51 C    1     1.0913     2.0623   21 H    0 0 0
  51 C    1     1.3914     2.6293   57 C    0 0 0
  51 C    1     1.4020     2.6494   49 C   -1 0 0
  51 C    1     2.1666     4.0942   27 H    0 0 0
  51 C    1     2.4175     4.5684   55 C   -1 0 0
  51 C    1     2.4251     4.5828   59 C   -1 0 0

  52 C    1     1.0913     2.0623   22 H    0 0 0
  52 C    1     1.3914     2.6293   58 C    0 0 0
  52 C    1     1.4020     2.6494   50 C    0 0 0
  52 C    1     2.1666     4.0942   28 H    0 0 0
  52 C    1     2.4175     4.5684   56 C    0 0 0
  52 C    1     2.4251     4.5828   60 C    0 0 0

  53 C    1     1.0914     2.0625   23 H    0 0 0
  53 C    1     1.3915     2.6295   55 C    0 0 0
  53 C    1     1.4026     2.6505   59 C    0 0 0
  53 C    1     2.1679     4.0967   25 H    0 0 0
  53 C    1     2.4179     4.5691   57 C    1 0 0
  53 C    1     2.4246     4.5818   49 C    0 0 0

  54 C    1     1.0914     2.0625   24 H    0 0 0
  54 C    1     1.3915     2.6295   56 C    0 0 0
  54 C    1     1.4026     2.6505   60 C    0 0 0
  54 C    1     2.1679     4.0967   26 H    0 0 0
  54 C    1     2.4179     4.5691   58 C    0 0 0
  54 C    1     2.4246     4.5818   50 C    0 0 0

  55 C    1     1.0914     2.0624   25 H    0 0 0
  55 C    1     1.3915     2.6295   53 C    0 0 0
  55 C    1     1.4021     2.6495   49 C    0 0 0
  55 C    1     2.1664     4.0939   23 H    0 0 0
  55 C    1     2.4175     4.5684   51 C    1 0 0
  55 C    1     2.4253     4.5832   59 C    0 0 0

  56 C    1     1.0914     2.0624   26 H    0 0 0
  56 C    1     1.3915     2.6295   54 C    0 0 0
  56 C    1     1.4021     2.6495   50 C    0 0 0
  56 C    1     2.1664     4.0939   24 H    0 0 0
  56 C    1     2.4175     4.5684   52 C    0 0 0
  56 C    1     2.4253     4.5832   60 C    0 0 0

  57 C    1     1.0914     2.0625   27 H    0 0 0
  57 C    1     1.3914     2.6293   51 C    0 0 0
  57 C    1     1.4025     2.6504   59 C   -1 0 0
  57 C    1     2.1680     4.0968   21 H    0 0 0
  57 C    1     2.4179     4.5691   53 C   -1 0 0
  57 C    1     2.4247     4.5819   49 C   -1 0 0

  58 C    1     1.0914     2.0625   28 H    0 0 0
  58 C    1     1.3914     2.6293   52 C    0 0 0
  58 C    1     1.4025     2.6504   60 C    0 0 0
  58 C    1     2.1680     4.0968   22 H    0 0 0
  58 C    1     2.4179     4.5691   54 C    0 0 0
  58 C    1     2.4247     4.5819   50 C    0 0 0

  59 C    1     1.4025     2.6504   57 C    1 0 0
  59 C    1     1.4026     2.6505   53 C    0 0 0
  59 C    1     1.5516     2.9322   11 B    0 0 0
  59 C    1     2.1491     4.0612   27 H    1 0 0
  59 C    1     2.1493     4.0617   23 H    0 0 0
  59 C    1     2.4251     4.5828   51 C    1 0 0

  60 C    1     1.4025     2.6504   58 C    0 0 0
  60 C    1     1.4026     2.6505   54 C    0 0 0
  60 C    1     1.5516     2.9322   12 B   -1-1 0
  60 C    1     2.1491     4.0612   28 H    0 0 0
  60 C    1     2.1493     4.0617   24 H    0 0 0
  60 C    1     2.4251     4.5828   52 C    0 0 0

  61 C    1     1.4021     2.6496   63 C    1 1 0
  61 C    1     1.4021     2.6497   67 C    0 0 0
  61 C    1     1.5502     2.9294    5 B    1 1 0
  61 C    1     2.1475     4.0582   29 H    1 1 0
  61 C    1     2.1479     4.0589   33 H    0 0 0
  61 C    1     2.4244     4.5814   65 C    0 0 0

  62 C    1     1.4021     2.6496   64 C    0 0 0
  62 C    1     1.4021     2.6497   68 C    0 0 0
  62 C    1     1.5502     2.9294    6 B    0 0 0
  62 C    1     2.1475     4.0582   30 H    0 0 0
  62 C    1     2.1479     4.0589   34 H    0 0 0
  62 C    1     2.4244     4.5814   66 C    0 0 0

  63 C    1     1.0914     2.0624   29 H    0 0 0
  63 C    1     1.3914     2.6293   69 C    0 0 0
  63 C    1     1.4021     2.6496   61 C   -1-1 0
  63 C    1     2.1668     4.0947   35 H    0 0 0
  63 C    1     2.4179     4.5692   67 C   -1-1 0
  63 C    1     2.4251     4.5827   71 C   -1-1 0

  64 C    1     1.0914     2.0624   30 H    0 0 0
  64 C    1     1.3914     2.6293   70 C    0 0 0
  64 C    1     1.4021     2.6496   62 C    0 0 0
  64 C    1     2.1668     4.0947   36 H    0 0 0
  64 C    1     2.4179     4.5692   68 C    0 0 0
  64 C    1     2.4251     4.5827   72 C    0 0 0

  65 C    1     1.0913     2.0623   31 H    0 0 0
  65 C    1     1.3914     2.6294   67 C    0 0 0
  65 C    1     1.4025     2.6504   71 C    0 0 0
  65 C    1     2.1679     4.0968   33 H    0 0 0
  65 C    1     2.4178     4.5690   69 C    1 1 0
  65 C    1     2.4244     4.5814   61 C    0 0 0

  66 C    1     1.0913     2.0623   32 H    0 0 0
  66 C    1     1.3914     2.6294   68 C    0 0 0
  66 C    1     1.4025     2.6504   72 C    0 0 0
  66 C    1     2.1679     4.0968   34 H    0 0 0
  66 C    1     2.4178     4.5690   70 C    0 0 0
  66 C    1     2.4244     4.5814   62 C    0 0 0

  67 C    1     1.0915     2.0626   33 H    0 0 0
  67 C    1     1.3914     2.6294   65 C    0 0 0
  67 C    1     1.4021     2.6497   61 C    0 0 0
  67 C    1     2.1667     4.0945   31 H    0 0 0
  67 C    1     2.4179     4.5692   63 C    1 1 0
  67 C    1     2.4253     4.5832   71 C    0 0 0

  68 C    1     1.0915     2.0626   34 H    0 0 0
  68 C    1     1.3914     2.6294   66 C    0 0 0
  68 C    1     1.4021     2.6497   62 C    0 0 0
  68 C    1     2.1667     4.0945   32 H    0 0 0
  68 C    1     2.4179     4.5692   64 C    0 0 0
  68 C    1     2.4253     4.5832   72 C    0 0 0

  69 C    1     1.0914     2.0624   35 H    0 0 0
  69 C    1     1.3914     2.6293   63 C    0 0 0
  69 C    1     1.4025     2.6503   71 C   -1-1 0
  69 C    1     2.1678     4.0966   29 H    0 0 0
  69 C    1     2.4178     4.5690   65 C   -1-1 0
  69 C    1     2.4245     4.5817   61 C   -1-1 0

  70 C    1     1.0914     2.0624   36 H    0 0 0
  70 C    1     1.3914     2.6293   64 C    0 0 0
  70 C    1     1.4025     2.6503   72 C    0 0 0
  70 C    1     2.1678     4.0966   30 H    0 0 0
  70 C    1     2.4178     4.5690   66 C    0 0 0
  70 C    1     2.4245     4.5817   62 C    0 0 0

  71 C    1     1.4025     2.6503   69 C    1 1 0
  71 C    1     1.4025     2.6504   65 C    0 0 0
  71 C    1     1.5516     2.9322    9 B    0 0 0
  71 C    1     2.1486     4.0602   35 H    1 1 0
  71 C    1     2.1487     4.0605   31 H    0 0 0
  71 C    1     2.4251     4.5827   63 C    1 1 0

  72 C    1     1.4025     2.6503   70 C    0 0 0
  72 C    1     1.4025     2.6504   66 C    0 0 0
  72 C    1     1.5516     2.9322   10 B    0 0 0
  72 C    1     2.1486     4.0602   36 H    0 0 0
  72 C    1     2.1487     4.0605   32 H    0 0 0
  72 C    1     2.4251     4.5827   64 C    0 0 0

  73 O    1     1.3791     2.6061    1 B    1 0 0
  73 O    1     1.3791     2.6061    5 B    1 1 0
  73 O    1     2.3880     4.5126   75 O    1 0 0
  73 O    1     2.3882     4.5130   77 O    1 1 0
  73 O    1     2.5383     4.7966   61 C    0 0 0
  73 O    1     2.5384     4.7968   49 C    0 0 0

  74 O    1     1.3791     2.6061    2 B    0 0 0
  74 O    1     1.3791     2.6061    6 B    0 0 0
  74 O    1     2.3880     4.5126   76 O    0 0 0
  74 O    1     2.3882     4.5130   78 O    0 0 0
  74 O    1     2.5383     4.7966   62 C    0 0 0
  74 O    1     2.5384     4.7968   50 C    0 0 0

  75 O    1     1.3793     2.6065    1 B    0 0 0
  75 O    1     1.3793     2.6065    3 B    0 0 0
  75 O    1     2.3880     4.5126   73 O   -1 0 0
  75 O    1     2.3882     4.5131   77 O    0 1 0
  75 O    1     2.5391     4.7981   37 C    0 0 0
  75 O    1     2.5395     4.7990   49 C   -1 0 0

  76 O    1     1.3793     2.6065    2 B    0 0 0
  76 O    1     1.3793     2.6065    4 B    0 0 0
  76 O    1     2.3880     4.5126   74 O    0 0 0
  76 O    1     2.3882     4.5131   78 O    0 0 0
  76 O    1     2.5391     4.7981   38 C    0 0 0
  76 O    1     2.5395     4.7990   50 C    0 0 0

  77 O    1     1.3793     2.6064    5 B    0 0 0
  77 O    1     1.3793     2.6065    3 B    0-1 0
  77 O    1     2.3882     4.5130   73 O   -1-1 0
  77 O    1     2.3882     4.5131   75 O    0-1 0
  77 O    1     2.5390     4.7980   37 C    0-1 0
  77 O    1     2.5391     4.7982   61 C   -1-1 0

  78 O    1     1.3793     2.6064    6 B    0 0 0
  78 O    1     1.3793     2.6065    4 B    0 0 0
  78 O    1     2.3882     4.5130   74 O    0 0 0
  78 O    1     2.3882     4.5131   76 O    0 0 0
  78 O    1     2.5390     4.7980   38 C    0 0 0
  78 O    1     2.5391     4.7982   62 C    0 0 0

  79 O    1     1.3795     2.6068   11 B    0 0 0
  79 O    1     1.3795     2.6068    7 B    0 0 0
  79 O    1     2.3880     4.5126   83 O    1 0 0
  79 O    1     2.3884     4.5134   81 O    0-1 0
  79 O    1     2.5400     4.7998   47 C    0 0 0
  79 O    1     2.5403     4.8005   59 C    0 0 0

  80 O    1     1.3795     2.6068   12 B    0 0 0
  80 O    1     1.3795     2.6068    8 B    0 0 0
  80 O    1     2.3880     4.5126   84 O    1 0 0
  80 O    1     2.3884     4.5134   82 O    0 0 0
  80 O    1     2.5400     4.7998   48 C    0 0 0
  80 O    1     2.5403     4.8005   60 C    1 1 0

  81 O    1     1.3795     2.6069    9 B    0 0 0
  81 O    1     1.3795     2.6070    7 B    0 1 0
  81 O    1     2.3881     4.5128   83 O    1 1 0
  81 O    1     2.3884     4.5134   79 O    0 1 0
  81 O    1     2.5404     4.8006   47 C    0 1 0
  81 O    1     2.5405     4.8008   71 C    0 0 0

  82 O    1     1.3795     2.6069   10 B    1 0 0
  82 O    1     1.3795     2.6070    8 B    0 0 0
  82 O    1     2.3881     4.5128   84 O    1 0 0
  82 O    1     2.3884     4.5134   80 O    0 0 0
  82 O    1     2.5404     4.8006   48 C    0 0 0
  82 O    1     2.5405     4.8008   72 C    1 0 0

  83 O    1     1.3796     2.6071   11 B   -1 0 0
  83 O    1     1.3797     2.6072    9 B   -1-1 0
  83 O    1     2.3880     4.5126   79 O   -1 0 0
  83 O    1     2.3881     4.5128   81 O   -1-1 0
  83 O    1     2.5409     4.8016   71 C   -1-1 0
  83 O    1     2.5410     4.8019   59 C   -1 0 0

  84 O    1     1.3796     2.6071   12 B   -1 0 0
  84 O    1     1.3797     2.6072   10 B    0 0 0
  84 O    1     2.3880     4.5126   80 O   -1 0 0
  84 O    1     2.3881     4.5128   82 O   -1 0 0
  84 O    1     2.5409     4.8016   72 C    0 0 0
  84 O    1     2.5410     4.8019   60 C    0 1 0


 SYMMETRY ALLOWED INTERNAL DEGREE(S) OF FREEDOM: 249
 TTTTTTTTTTTTTTTTTTTTTTTTTTTTTT SYMM        TELAPSE        2.99 TCPU        2.99
 TTTTTTTTTTTTTTTTTTTTTTTTTTTTTT INT_SCREEN  TELAPSE        3.21 TCPU        3.21

 DFT PARAMETERS

     ATOM       ELECTRONS   NET CHARGE   R(ANGSTROM)
   1   5  B       5.0000      0.0000     0.89000000
  13   1  H       1.0000      0.0000     1.11000000
  37   6  C       6.0000      0.0000     0.77000000
  73   8  O       8.0000      0.0000     0.74000000

 SIZE OF GRID=    2485698
 TTTTTTTTTTTTTTTTTTTTTTTTTTTTTT MAKE_GRID2  TELAPSE       27.95 TCPU       27.92
 BECKE WEIGHT FUNCTION
 RADSAFE =     2.00
 TOLERANCES - DENSITY:10**- 6; POTENTIAL:10**- 9; GRID WGT:10**-14

 RADIAL INTEGRATION  - INTERVALS (POINTS,UPPER LIMIT):            1( 75,  4.0*R)

 ANGULAR INTEGRATION - INTERVALS (ACCURACY LEVEL [N. POINTS] UPPER LIMIT):
  1(  4[  86]   0.2)  2(  8[ 194]   0.5)  3( 12[ 350]   0.9)  4( 16[ 974]   3.5)
  5( 12[ 350]9999.0)
 TTTTTTTTTTTTTTTTTTTTTTTTTTTTTT INT_CALC    TELAPSE       28.25 TCPU       28.21
 EEEEEEEEEE INT_CALC TERMINATION  DATE 19 02 2026 TIME 19:29:02.3

 *******************************************************************************
 cof-1_z30_L070_serr                                                             
 CRYSTAL - SCF - TYPE OF CALCULATION :  RESTRICTED CLOSED SHELL
 *******************************************************************************

 CAPPA:IS1  2;IS2  2;IS3  8; K PTS MONK NET  20; SYMMOPS:K SPACE   2;G SPACE   1

 TTTTTTTTTTTTTTTTTTTTTTTTTTTTTT SDIK        TELAPSE       30.25 TCPU       55.83

 AAAAAAAAAAAAAAAAAAAAAAAAAAAAAAAAAAAAAAAAAAAAAAAAAAAAAAAAAAAAAAAAAAAAAAAAAAAAAAA
         ATOMIC WAVEFUNCTION(S)


 NUCLEAR CHARGE  5.0  SYMMETRY SPECIES            S    P
 N. ELECTRONS    5.0  NUMBER OF PRIMITIVE GTOS    8    4
                      NUMBER OF CONTRACTED GTOS   4    2
                      NUMBER OF CLOSED SHELLS     2    0
                      OPEN SHELL OCCUPATION       0    1

  ZNUC  SCFIT    TOTAL HF ENERGY   KINETIC ENERGY   VIRIAL THEOREM ACCURACY
   5.0    11    -2.451164084E+01  2.462155050E+01 -1.995536038E+00  1.5E-06

 NUCLEAR CHARGE  1.0  SYMMETRY SPECIES            S
 N. ELECTRONS    1.0  NUMBER OF PRIMITIVE GTOS    4
                      NUMBER OF CONTRACTED GTOS   2
                      NUMBER OF CLOSED SHELLS     0
                      OPEN SHELL OCCUPATION       1

  ZNUC  SCFIT    TOTAL HF ENERGY   KINETIC ENERGY   VIRIAL THEOREM ACCURACY
   1.0     1    -4.977266687E-01  5.190767460E-01 -1.958869132E+00  0.0E+00

 NUCLEAR CHARGE  6.0  SYMMETRY SPECIES            S    P
 N. ELECTRONS    6.0  NUMBER OF PRIMITIVE GTOS    8    4
                      NUMBER OF CONTRACTED GTOS   4    2
                      NUMBER OF CLOSED SHELLS     2    0
                      OPEN SHELL OCCUPATION       0    2

  ZNUC  SCFIT    TOTAL HF ENERGY   KINETIC ENERGY   VIRIAL THEOREM ACCURACY
   6.0     9    -3.766704647E+01  3.775180683E+01 -1.997754800E+00  1.1E-06

 NUCLEAR CHARGE  8.0  SYMMETRY SPECIES            S    P
 N. ELECTRONS    8.0  NUMBER OF PRIMITIVE GTOS    8    4
                      NUMBER OF CONTRACTED GTOS   4    2
                      NUMBER OF CLOSED SHELLS     2    0
                      OPEN SHELL OCCUPATION       0    4

  ZNUC  SCFIT    TOTAL HF ENERGY   KINETIC ENERGY   VIRIAL THEOREM ACCURACY
   8.0    12    -7.477373220E+01  7.477365593E+01 -2.000001020E+00  3.8E-06

 AAAAAAAAAAAAAAAAAAAAAAAAAAAAAAAAAAAAAAAAAAAAAAAAAAAAAAAAAAAAAAAAAAAAAAAAAAAAAAA

 CHARGE NORMALIZATION FACTOR   1.00000000
 TOTAL ATOMIC CHARGES:
   5.0000000   5.0000000   5.0000000   5.0000000   5.0000000   5.0000000
   5.0000000   5.0000000   5.0000000   5.0000000   5.0000000   5.0000000
   1.0000000   1.0000000   1.0000000   1.0000000   1.0000000   1.0000000
   1.0000000   1.0000000   1.0000000   1.0000000   1.0000000   1.0000000
   1.0000000   1.0000000   1.0000000   1.0000000   1.0000000   1.0000000
   1.0000000   1.0000000   1.0000000   1.0000000   1.0000000   1.0000000
   6.0000000   6.0000000   6.0000000   6.0000000   6.0000000   6.0000000
   6.0000000   6.0000000   6.0000000   6.0000000   6.0000000   6.0000000
   6.0000000   6.0000000   6.0000000   6.0000000   6.0000000   6.0000000
   6.0000000   6.0000000   6.0000000   6.0000000   6.0000000   6.0000000
   6.0000000   6.0000000   6.0000000   6.0000000   6.0000000   6.0000000
   6.0000000   6.0000000   6.0000000   6.0000000   6.0000000   6.0000000
   8.0000000   8.0000000   8.0000000   8.0000000   8.0000000   8.0000000
   8.0000000   8.0000000   8.0000000   8.0000000   8.0000000   8.0000000
 TTTTTTTTTTTTTTTTTTTTTTTTTTTTTT MOQGAD      TELAPSE       30.36 TCPU       59.15
 TTTTTTTTTTTTTTTTTTTTTTTTTTTTTT SHELLXN     TELAPSE       54.78 TCPU      839.35
 TTTTTTTTTTTTTTTTTTTTTTTTTTTTTT MONMO3      TELAPSE       55.40 TCPU      859.13
 NUMERICALLY INTEGRATED DENSITY    396.0003040027
 TTTTTTTTTTTTTTTTTTTTTTTTTTTTTT NUMDFT      TELAPSE       57.02 TCPU      910.69
 CYC   0 ETOT(AU) -2.592046391168E+03 DETOT -2.59E+03 tst  0.00E+00 PX  1.00E+00
 TTTTTTTTTTTTTTTTTTTTTTTTTTTTTT DIIS        TELAPSE       57.13 TCPU      914.23
 TTTTTTTTTTTTTTTTTTTTTTTTTTTTTT FDIK        TELAPSE       58.95 TCPU      972.31
 INSULATING STATE
 TOP OF VALENCE BANDS -    BAND    198; K    2; EIG -2.9514681E-01 AU
 TOP OF VALENCE BANDS -    BAND    198; K    1; EIG -2.9577481E-01 AU
 BOTTOM OF VIRTUAL BANDS - BAND    199; K    1; EIG -1.6724231E-01 AU
 INDIRECT ENERGY BAND GAP:   3.4805 eV
 TTTTTTTTTTTTTTTTTTTTTTTTTTTTTT PDIG        TELAPSE       60.51 TCPU      978.91
 CHARGE NORMALIZATION FACTOR   1.00000000
 TOTAL ATOMIC CHARGES:
   4.0715208   4.1614873   4.1351500   4.1660561   4.1353926   4.1663040
   4.1658866   4.1349877   4.1656600   4.1347634   4.1610901   4.0711918
   0.7867471   0.7851051   0.7852240   0.7868685   0.7848151   0.7850801
   0.7851970   0.7849344   0.7854969   0.7858728   0.7860419   0.7856803
   0.7854923   0.7858545   0.7860038   0.7856240   0.7848186   0.7850822
   0.7852629   0.7850075   0.7867017   0.7850595   0.7852170   0.7868556
   6.0489542   6.0418809   6.2753321   6.2691427   6.2691116   6.2753479
   6.2700123   6.2645427   6.2645070   6.2700059   6.0411433   6.0481502
   6.0647928   6.0411236   6.2678008   6.2649424   6.2649000   6.2677756
   6.2677260   6.2648334   6.2649008   6.2677764   6.0399627   6.0635711
   6.0492853   6.0422506   6.2697767   6.2643044   6.2648856   6.2704160
   6.2749552   6.2687551   6.2694081   6.2756529   6.0406752   6.0475913
   8.7172910   8.6907964   8.7174413   8.6909039   8.7215204   8.6908867
   8.6912258   8.7176827   8.6912883   8.7219582   8.6914014   8.7178777
 TTTTTTTTTTTTTTTTTTTTTTTTTTTTTT MOQGAD      TELAPSE       60.62 TCPU      979.01
 TTTTTTTTTTTTTTTTTTTTTTTTTTTTTT SHELLXN     TELAPSE       85.54 TCPU     1774.43
 TTTTTTTTTTTTTTTTTTTTTTTTTTTTTT MONMO3      TELAPSE       86.16 TCPU     1794.08
 NUMERICALLY INTEGRATED DENSITY    396.0002108878
 TTTTTTTTTTTTTTTTTTTTTTTTTTTTTT NUMDFT      TELAPSE       87.81 TCPU     1846.68
 CYC   1 ETOT(AU) -2.577631555387E+03 DETOT  1.44E+01 tst  0.00E+00 PX  1.00E+00
 TTTTTTTTTTTTTTTTTTTTTTTTTTTTTT DIIS        TELAPSE       87.95 TCPU     1851.23
 DIIS TEST: 0.22313E+01 AT SCF   CYCLE   1 - MIX   30 %
 TTTTTTTTTTTTTTTTTTTTTTTTTTTTTT FDIK        TELAPSE       89.83 TCPU     1911.26
 INSULATING STATE
 TOP OF VALENCE BANDS -    BAND    198; K    4; EIG -2.0175613E-01 AU
 TOP OF VALENCE BANDS -    BAND    198; K    1; EIG -2.0282123E-01 AU
 BOTTOM OF VIRTUAL BANDS - BAND    199; K    1; EIG -9.1146472E-02 AU
 INDIRECT ENERGY BAND GAP:   3.0098 eV
 TTTTTTTTTTTTTTTTTTTTTTTTTTTTTT PDIG        TELAPSE       91.40 TCPU     1917.85
 CHARGE NORMALIZATION FACTOR   1.00000000
 TOTAL ATOMIC CHARGES:
   4.6698419   4.7169653   4.6547748   4.7199337   4.6546724   4.7199267
   4.7200843   4.6545668   4.7200949   4.6546378   4.7170124   4.6699271
   0.9036357   0.9096124   0.9095962   0.9036433   0.9008322   0.9136501
   0.9136293   0.9010825   0.8946321   0.9061220   0.9059382   0.8946596
   0.8945985   0.9061195   0.9059207   0.8946629   0.9008476   0.9136497
   0.9137025   0.9011791   0.9035589   0.9095756   0.9096210   0.9036775
   5.8561144   5.8830428   6.1630867   6.1581031   6.1584661   6.1635954
   6.1068613   6.1488197   6.1494829   6.1076851   5.8856795   5.8585044
   5.9379730   5.8903977   6.1223557   6.1206361   6.1212653   6.1227399
   6.1225498   6.1208801   6.1212144   6.1227024   5.8935188   5.9407785
   5.8559514   5.8829555   6.1068672   6.1488718   6.1493694   6.1075811
   6.1632836   6.1583081   6.1583134   6.1632855   5.8858776   5.8586042
   8.3630904   8.3325585   8.3634094   8.3329094   8.3212529   8.3361744
   8.3323663   8.3628606   8.3358905   8.3211112   8.3327636   8.3633055
 TTTTTTTTTTTTTTTTTTTTTTTTTTTTTT MOQGAD      TELAPSE       91.51 TCPU     1917.95
 TTTTTTTTTTTTTTTTTTTTTTTTTTTTTT SHELLXN     TELAPSE      116.94 TCPU     2729.36
 TTTTTTTTTTTTTTTTTTTTTTTTTTTTTT MONMO3      TELAPSE      117.57 TCPU     2749.65
 NUMERICALLY INTEGRATED DENSITY    396.0002365749
 TTTTTTTTTTTTTTTTTTTTTTTTTTTTTT NUMDFT      TELAPSE      119.29 TCPU     2804.28
 CYC   2 ETOT(AU) -2.578007153332E+03 DETOT -3.76E-01 tst  2.69E-03 PX  1.65E-01
 TTTTTTTTTTTTTTTTTTTTTTTTTTTTTT DIIS        TELAPSE      119.47 TCPU     2810.22
 DIIS TEST: 0.96599E+00 AT SCF   CYCLE   2 - DIIS ACTIVE - HISTORY:     2 CYCLES
 TTTTTTTTTTTTTTTTTTTTTTTTTTTTTT FDIK        TELAPSE      121.49 TCPU     2874.74
 INSULATING STATE
 TOP OF VALENCE BANDS -    BAND    198; K    4; EIG -2.1865753E-01 AU
 TOP OF VALENCE BANDS -    BAND    198; K    1; EIG -2.1976218E-01 AU
 BOTTOM OF VIRTUAL BANDS - BAND    199; K    1; EIG -8.7834105E-02 AU
 INDIRECT ENERGY BAND GAP:   3.5599 eV
 TTTTTTTTTTTTTTTTTTTTTTTTTTTTTT PDIG        TELAPSE      123.06 TCPU     2881.34
 CHARGE NORMALIZATION FACTOR   1.00000000
 TOTAL ATOMIC CHARGES:
   4.4202991   4.5118336   4.4531475   4.5136024   4.4532361   4.5136880
   4.5133781   4.4531891   4.5132561   4.4530393   4.5114330   4.4200444
   0.8834375   0.8883266   0.8884983   0.8835848   0.8796943   0.8921995
   0.8923782   0.8797080   0.8708154   0.8781337   0.8784687   0.8708246
   0.8708286   0.8781511   0.8784277   0.8707850   0.8796949   0.8922153
   0.8924250   0.8797966   0.8834174   0.8883449   0.8884776   0.8835659
   5.9296120   5.8675493   6.1710896   6.1670259   6.1668510   6.1710341
   6.1872082   6.1431013   6.1425930   6.1863525   5.8669788   5.9292579
   5.9116879   5.8910793   6.1792171   6.1740605   6.1737401   6.1793703
   6.1794262   6.1741349   6.1736482   6.1791829   5.8904192   5.9112693
   5.9298439   5.8678433   6.1871368   6.1430484   6.1427363   6.1864502
   6.1710708   6.1669023   6.1669299   6.1710255   5.8665978   5.9288868
   8.5248885   8.5066247   8.5249991   8.5067982   8.5477632   8.5000065
   8.5069014   8.5251497   8.5001220   8.5476608   8.5070986   8.5252796
 TTTTTTTTTTTTTTTTTTTTTTTTTTTTTT MOQGAD      TELAPSE      123.16 TCPU     2881.45
 TTTTTTTTTTTTTTTTTTTTTTTTTTTTTT SHELLXN     TELAPSE      148.63 TCPU     3693.96
 TTTTTTTTTTTTTTTTTTTTTTTTTTTTTT MONMO3      TELAPSE      149.26 TCPU     3714.04
 NUMERICALLY INTEGRATED DENSITY    396.0002387215
 TTTTTTTTTTTTTTTTTTTTTTTTTTTTTT NUMDFT      TELAPSE      150.91 TCPU     3766.66
 CYC   3 ETOT(AU) -2.578201670328E+03 DETOT -1.95E-01 tst  5.53E-04 PX  7.76E-02
 TTTTTTTTTTTTTTTTTTTTTTTTTTTTTT DIIS        TELAPSE      151.09 TCPU     3772.57
 DIIS TEST: 0.40371E-01 AT SCF   CYCLE   3 - DIIS ACTIVE - HISTORY:     3 CYCLES
 TTTTTTTTTTTTTTTTTTTTTTTTTTTTTT FDIK        TELAPSE      152.98 TCPU     3832.85
 INSULATING STATE
 TOP OF VALENCE BANDS -    BAND    198; K    4; EIG -2.2318944E-01 AU
 TOP OF VALENCE BANDS -    BAND    198; K    1; EIG -2.2402647E-01 AU
 BOTTOM OF VIRTUAL BANDS - BAND    199; K    1; EIG -9.3805513E-02 AU
 INDIRECT ENERGY BAND GAP:   3.5207 eV
 TTTTTTTTTTTTTTTTTTTTTTTTTTTTTT PDIG        TELAPSE      154.55 TCPU     3839.44
 CHARGE NORMALIZATION FACTOR   1.00000000
 TOTAL ATOMIC CHARGES:
   4.4370268   4.5093254   4.4609369   4.5108567   4.4609653   4.5109382
   4.5108141   4.4607919   4.5106940   4.4607033   4.5090358   4.4369496
   0.8673094   0.8705163   0.8706053   0.8673732   0.8694815   0.8723787
   0.8723604   0.8696099   0.8626923   0.8703233   0.8702211   0.8628968
   0.8627002   0.8703568   0.8701597   0.8628533   0.8695206   0.8723911
   0.8724220   0.8696670   0.8672887   0.8705081   0.8705985   0.8673614
   5.9192177   5.9575308   6.1924573   6.1795484   6.1796126   6.1926089
   6.1356864   6.1915121   6.1922747   6.1369096   5.9595297   5.9206876
   5.9913647   5.9391793   6.1664826   6.1533990   6.1538896   6.1665328
   6.1664226   6.1534213   6.1539631   6.1666583   5.9410651   5.9928347
   5.9191004   5.9575330   6.1355410   6.1913897   6.1923942   6.1370435
   6.1923264   6.1794714   6.1797689   6.1926385   5.9595273   5.9206296
   8.5135328   8.4789952   8.5138064   8.4792333   8.4807760   8.4881521
   8.4789751   8.5134349   8.4881581   8.4810456   8.4792967   8.5138075
 TTTTTTTTTTTTTTTTTTTTTTTTTTTTTT MOQGAD      TELAPSE      154.65 TCPU     3839.55
 TTTTTTTTTTTTTTTTTTTTTTTTTTTTTT SHELLXN     TELAPSE      180.62 TCPU     4668.20
 TTTTTTTTTTTTTTTTTTTTTTTTTTTTTT MONMO3      TELAPSE      181.23 TCPU     4687.84
 NUMERICALLY INTEGRATED DENSITY    396.0002350838
 TTTTTTTTTTTTTTTTTTTTTTTTTTTTTT NUMDFT      TELAPSE      182.88 TCPU     4740.40
 CYC   4 ETOT(AU) -2.578207989424E+03 DETOT -6.32E-03 tst  1.13E-04 PX  2.32E-02
 TTTTTTTTTTTTTTTTTTTTTTTTTTTTTT DIIS        TELAPSE      183.09 TCPU     4746.88
 DIIS TEST: 0.18368E-01 AT SCF   CYCLE   4 - DIIS ACTIVE - HISTORY:     4 CYCLES
 TTTTTTTTTTTTTTTTTTTTTTTTTTTTTT FDIK        TELAPSE      185.00 TCPU     4807.63
 INSULATING STATE
 TOP OF VALENCE BANDS -    BAND    198; K    4; EIG -2.2570202E-01 AU
 TOP OF VALENCE BANDS -    BAND    198; K    1; EIG -2.2669461E-01 AU
 BOTTOM OF VIRTUAL BANDS - BAND    199; K    1; EIG -9.5125232E-02 AU
 INDIRECT ENERGY BAND GAP:   3.5532 eV
 TTTTTTTTTTTTTTTTTTTTTTTTTTTTTT PDIG        TELAPSE      186.57 TCPU     4814.23
 CHARGE NORMALIZATION FACTOR   1.00000000
 TOTAL ATOMIC CHARGES:
   4.4428195   4.5144500   4.4609271   4.5176467   4.4609815   4.5177281
   4.5175838   4.4608986   4.5174755   4.4607867   4.5142097   4.4426941
   0.8685718   0.8722301   0.8723380   0.8686515   0.8666188   0.8761235
   0.8762658   0.8667522   0.8583286   0.8661540   0.8663117   0.8583715
   0.8583220   0.8661608   0.8662773   0.8583446   0.8666294   0.8761364
   0.8763229   0.8668411   0.8685340   0.8722275   0.8723329   0.8686531
   5.9423502   5.9180797   6.1825812   6.1827336   6.1827589   6.1827853
   6.1740555   6.1588291   6.1586081   6.1737465   5.9184004   5.9426255
   5.9682963   5.9352420   6.1733477   6.1676793   6.1676904   6.1735605
   6.1735412   6.1678035   6.1676003   6.1734406   5.9357454   5.9687824
   5.9424655   5.9182675   6.1739785   6.1587829   6.1586969   6.1737967
   6.1825932   6.1826929   6.1828021   6.1827287   5.9181705   5.9423614
   8.5067671   8.4845717   8.5069216   8.4847847   8.5028120   8.4792967
   8.4846930   8.5068653   8.4792698   8.5026603   8.4849490   8.5070878
 TTTTTTTTTTTTTTTTTTTTTTTTTTTTTT MOQGAD      TELAPSE      186.68 TCPU     4814.33
 TTTTTTTTTTTTTTTTTTTTTTTTTTTTTT SHELLXN     TELAPSE      211.91 TCPU     5619.32
 TTTTTTTTTTTTTTTTTTTTTTTTTTTTTT MONMO3      TELAPSE      212.53 TCPU     5639.23
 NUMERICALLY INTEGRATED DENSITY    396.0002348482
 TTTTTTTTTTTTTTTTTTTTTTTTTTTTTT NUMDFT      TELAPSE      214.18 TCPU     5691.73
 CYC   5 ETOT(AU) -2.578212021831E+03 DETOT -4.03E-03 tst  4.94E-05 PX  9.57E-03
 TTTTTTTTTTTTTTTTTTTTTTTTTTTTTT DIIS        TELAPSE      214.41 TCPU     5698.26
 DIIS TEST: 0.22093E-02 AT SCF   CYCLE   5 - DIIS ACTIVE - HISTORY:     5 CYCLES
 TTTTTTTTTTTTTTTTTTTTTTTTTTTTTT FDIK        TELAPSE      216.29 TCPU     5758.17
 INSULATING STATE
 TOP OF VALENCE BANDS -    BAND    198; K    4; EIG -2.2413058E-01 AU
 TOP OF VALENCE BANDS -    BAND    198; K    1; EIG -2.2507294E-01 AU
 BOTTOM OF VIRTUAL BANDS - BAND    199; K    1; EIG -9.4372845E-02 AU
 INDIRECT ENERGY BAND GAP:   3.5309 eV
 TTTTTTTTTTTTTTTTTTTTTTTTTTTTTT PDIG        TELAPSE      217.87 TCPU     5764.78
 CHARGE NORMALIZATION FACTOR   1.00000000
 TOTAL ATOMIC CHARGES:
   4.4403076   4.5160986   4.4606848   4.5180005   4.4607260   4.5180795
   4.5179099   4.4606210   4.5178015   4.4605236   4.5158103   4.4401707
   0.8696534   0.8742731   0.8743932   0.8697478   0.8688441   0.8770128
   0.8770907   0.8689561   0.8611018   0.8687885   0.8688825   0.8612099
   0.8611056   0.8688110   0.8688336   0.8611759   0.8688644   0.8770247
   0.8771488   0.8690304   0.8696237   0.8742712   0.8743856   0.8697414
   5.9284504   5.9198492   6.1870715   6.1772122   6.1771719   6.1871454
   6.1626498   6.1717319   6.1718937   6.1628524   5.9206283   5.9290802
   5.9576479   5.9256033   6.1736464   6.1664476   6.1665323   6.1737124
   6.1737167   6.1665031   6.1665315   6.1736933   5.9262809   5.9582179
   5.9284913   5.9199783   6.1625431   6.1716516   6.1720081   6.1629586
   6.1870131   6.1771311   6.1772765   6.1871371   5.9204620   5.9288827
   8.5117660   8.4855056   8.5119722   8.4857211   8.5040857   8.4874182
   8.4856079   8.5118248   8.4874618   8.5041641   8.4858765   8.5120881
 TTTTTTTTTTTTTTTTTTTTTTTTTTTTTT MOQGAD      TELAPSE      217.97 TCPU     5764.88
 TTTTTTTTTTTTTTTTTTTTTTTTTTTTTT SHELLXN     TELAPSE      243.23 TCPU     6570.66
 TTTTTTTTTTTTTTTTTTTTTTTTTTTTTT MONMO3      TELAPSE      243.85 TCPU     6590.57
 NUMERICALLY INTEGRATED DENSITY    396.0002350463
 TTTTTTTTTTTTTTTTTTTTTTTTTTTTTT NUMDFT      TELAPSE      245.49 TCPU     6643.05
 CYC   6 ETOT(AU) -2.578212550987E+03 DETOT -5.29E-04 tst  6.27E-06 PX  3.32E-03
 TTTTTTTTTTTTTTTTTTTTTTTTTTTTTT DIIS        TELAPSE      245.74 TCPU     6649.59
 DIIS TEST: 0.25547E-03 AT SCF   CYCLE   6 - DIIS ACTIVE - HISTORY:     6 CYCLES
 TTTTTTTTTTTTTTTTTTTTTTTTTTTTTT FDIK        TELAPSE      247.63 TCPU     6709.69
 INSULATING STATE
 TOP OF VALENCE BANDS -    BAND    198; K    4; EIG -2.2434829E-01 AU
 TOP OF VALENCE BANDS -    BAND    198; K    1; EIG -2.2530332E-01 AU
 BOTTOM OF VIRTUAL BANDS - BAND    199; K    1; EIG -9.4378610E-02 AU
 INDIRECT ENERGY BAND GAP:   3.5367 eV
 TTTTTTTTTTTTTTTTTTTTTTTTTTTTTT PDIG        TELAPSE      249.20 TCPU     6716.28
 CHARGE NORMALIZATION FACTOR   1.00000000
 TOTAL ATOMIC CHARGES:
   4.4399472   4.5153618   4.4615782   4.5175571   4.4616265   4.5176380
   4.5174686   4.4615115   4.5173585   4.4614047   4.5150753   4.4398112
   0.8702170   0.8741213   0.8742323   0.8703014   0.8687819   0.8774411
   0.8775331   0.8688984   0.8609546   0.8690703   0.8691618   0.8610377
   0.8609551   0.8690874   0.8691194   0.8610057   0.8687985   0.8774545
   0.8775894   0.8689781   0.8701865   0.8741207   0.8742243   0.8702966
   5.9313284   5.9201069   6.1845297   6.1793818   6.1793869   6.1846794
   6.1643996   6.1677441   6.1678193   6.1645274   5.9208681   5.9319194
   5.9630553   5.9253756   6.1736377   6.1649351   6.1650773   6.1738121
   6.1737601   6.1650193   6.1650353   6.1737525   5.9261785   5.9637635
   5.9313954   5.9202570   6.1643016   6.1676718   6.1679298   6.1646136
   6.1844900   6.1793144   6.1794724   6.1846575   5.9206821   5.9316955
   8.5113277   8.4855949   8.5115131   8.4858093   8.5022986   8.4849775
   8.4857015   8.5113944   8.4849883   8.5022988   8.4859679   8.5116481
 TTTTTTTTTTTTTTTTTTTTTTTTTTTTTT MOQGAD      TELAPSE      249.30 TCPU     6716.38
 TTTTTTTTTTTTTTTTTTTTTTTTTTTTTT SHELLXN     TELAPSE      274.55 TCPU     7521.86
 TTTTTTTTTTTTTTTTTTTTTTTTTTTTTT MONMO3      TELAPSE      275.18 TCPU     7541.75
 NUMERICALLY INTEGRATED DENSITY    396.0002351923
 TTTTTTTTTTTTTTTTTTTTTTTTTTTTTT NUMDFT      TELAPSE      276.82 TCPU     7594.20
 CYC   7 ETOT(AU) -2.578212605685E+03 DETOT -5.47E-05 tst  5.09E-07 PX  1.17E-03
 TTTTTTTTTTTTTTTTTTTTTTTTTTTTTT DIIS        TELAPSE      277.09 TCPU     7600.75
 DIIS TEST: 0.19197E-04 AT SCF   CYCLE   7 - DIIS ACTIVE - HISTORY:     7 CYCLES
 TTTTTTTTTTTTTTTTTTTTTTTTTTTTTT FDIK        TELAPSE      278.98 TCPU     7660.68
 INSULATING STATE
 TOP OF VALENCE BANDS -    BAND    198; K    4; EIG -2.2436834E-01 AU
 TOP OF VALENCE BANDS -    BAND    198; K    1; EIG -2.2532121E-01 AU
 BOTTOM OF VIRTUAL BANDS - BAND    199; K    1; EIG -9.4353305E-02 AU
 INDIRECT ENERGY BAND GAP:   3.5379 eV
 TTTTTTTTTTTTTTTTTTTTTTTTTTTTTT PDIG        TELAPSE      280.56 TCPU     7667.29
 CHARGE NORMALIZATION FACTOR   1.00000000
 TOTAL ATOMIC CHARGES:
   4.4402537   4.5155389   4.4612221   4.5176301   4.4612678   4.5177101
   4.5175432   4.4611656   4.5174339   4.4610629   4.5152557   4.4401204
   0.8700313   0.8742085   0.8743228   0.8701191   0.8688784   0.8773451
   0.8774374   0.8689932   0.8610155   0.8688699   0.8689733   0.8611062
   0.8610177   0.8688890   0.8689280   0.8610732   0.8688966   0.8773577
   0.8774947   0.8690706   0.8700010   0.8742071   0.8743154   0.8701136
   5.9311352   5.9201565   6.1851181   6.1787590   6.1787461   6.1852404
   6.1644737   6.1682086   6.1682796   6.1645721   5.9208666   5.9317001
   5.9614570   5.9274154   6.1730022   6.1657574   6.1658431   6.1731165
   6.1731012   6.1658309   6.1658185   6.1730744   5.9281166   5.9620631
   5.9311911   5.9202980   6.1643734   6.1681344   6.1683894   6.1646643
   6.1850740   6.1786879   6.1788369   6.1852221   5.9206880   5.9314890
   8.5108337   8.4853322   8.5110277   8.4855479   8.5028924   8.4852372
   8.4854366   8.5108978   8.4852577   8.5029067   8.4857042   8.5111551
 TTTTTTTTTTTTTTTTTTTTTTTTTTTTTT MOQGAD      TELAPSE      280.66 TCPU     7667.39
 TTTTTTTTTTTTTTTTTTTTTTTTTTTTTT SHELLXN     TELAPSE      305.91 TCPU     8472.95
 TTTTTTTTTTTTTTTTTTTTTTTTTTTTTT MONMO3      TELAPSE      306.53 TCPU     8492.85
 NUMERICALLY INTEGRATED DENSITY    396.0002351813
 TTTTTTTTTTTTTTTTTTTTTTTTTTTTTT NUMDFT      TELAPSE      308.18 TCPU     8545.36
 CYC   8 ETOT(AU) -2.578212611075E+03 DETOT -5.39E-06 tst  9.23E-08 PX  4.78E-04
 TTTTTTTTTTTTTTTTTTTTTTTTTTTTTT DIIS        TELAPSE      308.47 TCPU     8551.96
 DIIS TEST: 0.22686E-05 AT SCF   CYCLE   8 - DIIS ACTIVE - HISTORY:     8 CYCLES
 TTTTTTTTTTTTTTTTTTTTTTTTTTTTTT FDIK        TELAPSE      310.36 TCPU     8611.88
 INSULATING STATE
 TOP OF VALENCE BANDS -    BAND    198; K    4; EIG -2.2437428E-01 AU
 TOP OF VALENCE BANDS -    BAND    198; K    1; EIG -2.2532650E-01 AU
 BOTTOM OF VIRTUAL BANDS - BAND    199; K    1; EIG -9.4379838E-02 AU
 INDIRECT ENERGY BAND GAP:   3.5373 eV
 TTTTTTTTTTTTTTTTTTTTTTTTTTTTTT PDIG        TELAPSE      311.93 TCPU     8618.47
 CHARGE NORMALIZATION FACTOR   1.00000000
 TOTAL ATOMIC CHARGES:
   4.4404779   4.5155351   4.4612791   4.5176608   4.4613252   4.5177410
   4.5175741   4.4612196   4.5174648   4.4611162   4.5152523   4.4403446
   0.8700119   0.8741867   0.8743016   0.8700997   0.8688402   0.8773227
   0.8774141   0.8689546   0.8609797   0.8688504   0.8689502   0.8610696
   0.8609812   0.8688688   0.8689058   0.8610370   0.8688578   0.8773355
   0.8774712   0.8690328   0.8699813   0.8741855   0.8742940   0.8700947
   5.9313383   5.9199331   6.1852891   6.1785733   6.1785608   6.1854128
   6.1643673   6.1682511   6.1683313   6.1644806   5.9206562   5.9319133
   5.9618234   5.9268263   6.1732527   6.1655212   6.1656227   6.1733819
   6.1733601   6.1655978   6.1655931   6.1733339   5.9275444   5.9624472
   5.9313989   5.9200780   6.1642680   6.1681785   6.1684403   6.1645707
   6.1852477   6.1785036   6.1786495   6.1853927   5.9204743   5.9316971
   8.5109076   8.4853252   8.5110988   8.4855404   8.5028968   8.4853213
   8.4854304   8.5109723   8.4853413   8.5029130   8.4856969   8.5112271
 TTTTTTTTTTTTTTTTTTTTTTTTTTTTTT MOQGAD      TELAPSE      312.03 TCPU     8618.57
 TTTTTTTTTTTTTTTTTTTTTTTTTTTTTT SHELLXN     TELAPSE      337.22 TCPU     9422.09
 TTTTTTTTTTTTTTTTTTTTTTTTTTTTTT MONMO3      TELAPSE      337.84 TCPU     9441.89
 NUMERICALLY INTEGRATED DENSITY    396.0002351827
 TTTTTTTTTTTTTTTTTTTTTTTTTTTTTT NUMDFT      TELAPSE      339.48 TCPU     9494.36
 CYC   9 ETOT(AU) -2.578212610754E+03 DETOT  3.22E-07 tst  1.21E-08 PX  1.47E-04
 TTTTTTTTTTTTTTTTTTTTTTTTTTTTTT DIIS        TELAPSE      339.80 TCPU     9500.93
 DIIS TEST: 0.64355E-06 AT SCF   CYCLE   9 - DIIS ACTIVE - HISTORY:     9 CYCLES
 TTTTTTTTTTTTTTTTTTTTTTTTTTTTTT FDIK        TELAPSE      341.68 TCPU     9560.62
 INSULATING STATE
 TOP OF VALENCE BANDS -    BAND    198; K    4; EIG -2.2437049E-01 AU
 TOP OF VALENCE BANDS -    BAND    198; K    1; EIG -2.2532353E-01 AU
 BOTTOM OF VIRTUAL BANDS - BAND    199; K    1; EIG -9.4374038E-02 AU
 INDIRECT ENERGY BAND GAP:   3.5374 eV
 TTTTTTTTTTTTTTTTTTTTTTTTTTTTTT PDIG        TELAPSE      343.25 TCPU     9567.22
 CHARGE NORMALIZATION FACTOR   1.00000000
 TOTAL ATOMIC CHARGES:
   4.4404149   4.5155420   4.4612656   4.5176802   4.4613116   4.5177603
   4.5175934   4.4612053   4.5174841   4.4611020   4.5152591   4.4402811
   0.8700255   0.8741706   0.8742848   0.8701130   0.8688381   0.8773261
   0.8774177   0.8689533   0.8609701   0.8688672   0.8689668   0.8610595
   0.8609716   0.8688856   0.8689223   0.8610269   0.8688559   0.8773389
   0.8774748   0.8690314   0.8699950   0.8741694   0.8742772   0.8701079
   5.9311849   5.9200620   6.1851089   6.1787822   6.1787716   6.1852352
   6.1644197   6.1681892   6.1682668   6.1645313   5.9207861   5.9317586
   5.9617050   5.9268571   6.1732234   6.1655709   6.1656737   6.1733544
   6.1733298   6.1656473   6.1656444   6.1733070   5.9275813   5.9623346
   5.9312446   5.9202063   6.1643201   6.1681161   6.1683763   6.1646217
   6.1850666   6.1787123   6.1788608   6.1852156   5.9206049   5.9315432
   8.5109345   8.4853797   8.5111260   8.4855949   8.5028737   8.4852648
   8.4854849   8.5109996   8.4852837   8.5028879   8.4857518   8.5112552
 TTTTTTTTTTTTTTTTTTTTTTTTTTTTTT MOQGAD      TELAPSE      343.35 TCPU     9567.33
 TTTTTTTTTTTTTTTTTTTTTTTTTTTTTT SHELLXN     TELAPSE      368.62 TCPU    10373.45
 +++ ENERGIES IN A.U. +++
 ::: EXT EL-POLE                                  -3.2899019497821E+03
 ::: EXT EL-SPHEROPOLE                             3.8142845319461E+01
 ::: BIELET ZONE E-E                               4.6197676105101E+03
 ::: TOTAL E-E                                     1.3680085060474E+03
 ::: TOTAL E-N + N-E                              -6.3766428848597E+03
 ::: TOTAL N-N                                     1.3783678033908E+02
 ::: KINETIC ENERGY                                2.5600812850481E+03
 ::: PSEUDO TOTAL   ENERGY                        -2.3107163134251E+03
 ::: VIRIAL COEFFICIENT                            1.0511959215265E+00
 TTTTTTTTTTTTTTTTTTTTTTTTTTTTTT MONMO3      TELAPSE      369.24 TCPU    10393.39
 NUMERICALLY INTEGRATED DENSITY    396.0002351830
 EXCHANGE ENERGY: -0.252069428392E+03  CORRELATION ENERGY: -0.154268692263E+02
 TTTTTTTTTTTTTTTTTTTTTTTTTTTTTT NUMDFT      TELAPSE      370.89 TCPU    10445.91
 CYC  10 ETOT(AU) -2.578212611044E+03 DETOT -2.90E-07 tst  1.51E-09 PX  1.47E-04

 == SCF ENDED - CONVERGENCE ON ENERGY      E(AU) -2.5782126110438E+03 CYCLES  10


 ENERGY EXPRESSION=HARTREE+FOCK EXCH*0.00000+(HSESOL     EXCH)*1.00000+PBESOL     CORR


 TOTAL ENERGY(DFT)(AU)( 10) -2.5782126110438E+03 DE-2.9E-07 tester 1.5E-09
 TTTTTTTTTTTTTTTTTTTTTTTTTTTTTT EDFT        TELAPSE      370.89 TCPU    10445.92
 
 INFORMATION **** DFTD3 ENERGY **** CALCULATE DFTD3 ENERGY

           DFT-D V3(BJ)
 DF                                         hsesol3c  
 parameters
 s6       :    1.0000
 s8       :    0.0000
 a1       :    0.5196
 a2       :    4.9385
 k1 k3    :   16.0000   -4.0000
 Cutoff   :   50.2022
 CN-Cutoff:   21.1671
 ABC-Cutoff:   21.1671
 
 Edisp /kcal,au:   -60.4378 -0.09631379

 E6    /kcal :   -65.1654
 E8    /kcal :     0.0000
 E6(ABC) "   :   4.727581
 
 INFORMATION **** DFTD3 ENERGY **** NORMAL TERMINATION OF DFTD3 MODULE

 GCP ENERGY CALCULATION
  level        hsesol3c            basis:hsesol3c
  Nbf            948
  Atoms           84

  Parameters: 
  sigma     1.0000
  eta       1.4281
  alpha     0.2936
  beta      1.9467

  dmp_scal      4.0000
  dmp_exp       6.0000
 cutoffs: 
   distance [bohr] 60.0
   noise    [a.u.] 2.2E-16
 SR-damping   T
 ** gCP correction **
  Egcp:        0.1718781929 / (a.u.) ||     107.8552 / (kcal/mol)
 INFORMATION **** GCP **** NORMAL TERMINATION OF GCP MODULE

 *******************************************************************************

 DFT-D3-GCP DISPERSION AND COUNTERPOISE CORRECTION

 D3 DISPERSION ENERGY (AU)      -9.6313785558903E-02
 GCP ENERGY (AU)                 1.7187819285047E-01
 TOTAL ENERGY + DISP + GCP (AU) -2.5781370466365E+03

 *******************************************************************************

 EIGENVECTORS IN FORTRAN UNIT  8
 TTTTTTTTTTTTTTTTTTTTTTTTTTTTTT END         TELAPSE      375.27 TCPU    10455.84
 EEEEEEEEEE TERMINATION  DATE 19 02 2026 TIME 19:34:49.3
