 Default number of threads is:           32

         
 *******************************************************************************
 *                                                                             *
 *                               CRYSTAL23                                     *
 *                      public : 1.0.1 - October 2022                          *
 *                       HTTP://WWW.CRYSTAL.UNITO.IT                           *
 *                                                                             *
 *                              MAIN AUTHORS                                   *
 *                                                                             *
 *  R. DOVESI(1,11), V.R. SAUNDERS(2), C. ROETTI(1,11), R. ORLANDO(1,11),      *
 *  C.M. ZICOVICH-WILSON(1,3), F. PASCALE(4), B. CIVALLERI(1,11),              *
 *  K. DOLL(5), N.M. HARRISON(6), I.J. BUSH(7), Ph. D'ARCO(8),                 *
 *  M. LLUNELL(9), M. CAUSA'(10), Y. NOEL(8), L. MASCHIO(1,11), A. ERBA(1,11)  *
 *  M. RE'RAT(14), S. CASASSA(1,11), B.G. SEARLE(2), J.K. DESMARAIS(1)         *
 *                                                                             *
 *        CONTRIBUTIONS TO THE CODE HAVE ALSO BEEN GIVEN BY                    *
 *                                                                             *
 *  M. FERRABONE(1,11), M. DE LA PIERRE(1,11), M. FERRERO(1,11),               *
 *  J. BAIMA(1,11), E. ALBANESE(1,11), M.F. PEINTINGER(12), R. BAST(13),       *
 *  B. KIRTMAN(15), V. LACIVITA(1,11), R. DEMICHELIS(1,16)                     *
 *  G. BRANDEBURG(17), S. SALUSTRO(1,11), G. SANSONE(1,11)                     *
 *  M.T. RUGGIERO(18), L.E. DAGA(1), L. DONA'(1), A. COSSARD(1)                *
 *                                                                             *
 * (1) THEORETICAL CHEMISTRY GROUP - UNIVERSITA' DI TORINO - TORINO (ITALY)    *
 * (2) SCIENTIFIC COMPUTING DEPARTMENT - STFC DARESBURY (UK)                   *
 * (3) UNIVERSIDAD AUTONOMA DEL ESTADO DE MORELOS - CUERNAVACA (MEXICO)        *
 * (4) UNIVERSITE' DE LORRAINE - NANCY (FRANCE)                                *
 * (5) UNIVERSITAET STUTTGART- STUTTGART (GERMANY)                             *
 * (6) IMPERIAL COLLEGE - LONDON (UK)                                          *
 * (7) SCIENTIFIC COMPUTING DEPARTMENT - STFC RAL (UK)                         *
 * (8) UPMC - SORBONNE UNIVERSITES - PARIS (FRANCE)                            *
 * (9) UNIVERSIDAD DE BARCELONA - BARCELONA (SPAIN)                            *
 *(10) UNIVERSITA' DI NAPOLI "FEDERICO II" - NAPOLI (ITALY)                    *
 *(11) NIS - NANOSTRUCTURED INTERFACES AND SURFACES - TORINO (ITALY)           *
 *(12) MPI FUER CHEMISCHE ENERGIEKONVERSION - MUELHEIM AN DER RUHR (GERMANY)   *
 *(13) UNIVERSITY OF TROMSO - TROMSO (NORWAY)                                  *
 *(14) UNIVERSITE' DE PAU ET DES PAYS DE L'ADOUR - PAU (FRANCE)                *
 *(15) UNIVERSITY OF CALIFORNIA SANTA BARBARA - SANTA BARBARA (USA)            *
 *(16) CURTIN UNIVERSITY - PERTH (AUSTRALIA)                                   *
 *(17) UNIVERSITY COLLEGE LONDON - LONDON (UK)                                 *
 *(18) UNIVERSITY OF VERMONT - BURLINGTON (USA)                                *
 *                                                                             *
 *******************************************************************************
 EEEEEEEEEE STARTING  DATE 19 02 2026 TIME 19:21:26.0
 cof-1_z45_L010_incl                                                             

 CRYSTAL CALCULATION
 (INPUT ACCORDING TO THE INTERNATIONAL TABLES FOR X-RAY CRYSTALLOGRAPHY)
 CRYSTAL FAMILY                       :  TRICLINIC   
 CRYSTAL CLASS  (GROTH - 1921)        :  TRICLINIC PEDIAL                     

 SPACE GROUP (NONCENTROSYMMETRIC)     :  P 1             

 LATTICE PARAMETERS  (ANGSTROMS AND DEGREES) - CONVENTIONAL CELL
        A           B           C        ALPHA        BETA       GAMMA
    15.02361    15.02392     4.60977    79.17153    89.99994   119.99596


 NUMBER OF IRREDUCIBLE ATOMS IN THE CONVENTIONAL CELL:   42

 INPUT COORDINATES

 ATOM AT. N.              COORDINATES
   1   5     5.944281400000E-01  1.888095100000E-01  5.010608400000E-01
   2   5     7.534838000000E-01  3.478691700000E-01  5.010608500000E-01
   3   5     5.945096200000E-01  3.480234800000E-01  4.988290300000E-01
   4   5     2.080028500000E-01  5.751245100000E-01  5.010608500000E-01
   5   5     3.671108200000E-01  5.751037400000E-01  5.010608400000E-01
   6   5     3.671768500000E-01  7.344144600000E-01  4.988290300000E-01
   7   1     8.839690000000E-01  2.707769400000E-01  4.964338400000E-01
   8   1     7.758710000000E-02  6.529547100000E-01  4.957262900000E-01
   9   1     8.839281800000E-01  5.559820700000E-01  4.956174000000E-01
  10   1     7.769189000000E-02  3.675924900000E-01  4.956445600000E-01
  11   1     6.716837900000E-01  5.830296000000E-02  5.035648800000E-01
  12   1     2.895539200000E-01  8.646817700000E-01  5.042724700000E-01
  13   1     3.864900000000E-01  5.828606000000E-02  5.043814400000E-01
  14   1     5.749332700000E-01  8.645855100000E-01  5.043540900000E-01
  15   1     6.719981200000E-01  5.559011000000E-01  4.964338800000E-01
  16   1     2.899144000000E-01  3.675106000000E-01  4.957262500000E-01
  17   1     3.867973300000E-01  2.707329000000E-01  4.956173100000E-01
  18   1     5.752465900000E-01  6.528654700000E-01  4.956446500000E-01
  19   6     8.727268000000E-01  4.076127800000E-01  4.987473600000E-01
  20   6     9.274103100000E-01  3.546241500000E-01  4.965427300000E-01
  21   6     3.431664000000E-02  5.690384600000E-01  4.963522800000E-01
  22   6     9.273586700000E-01  5.155014200000E-01  4.969238400000E-01
  23   6     3.438937000000E-02  4.081721600000E-01  4.954540400000E-01
  24   6     8.894140000000E-02  5.158427700000E-01  4.969510200000E-01
  25   6     5.347797000000E-01  6.964510000000E-02  5.012513800000E-01
  26   6     5.878334200000E-01  1.486315000000E-02  5.034559800000E-01
  27   6     3.734469200000E-01  9.079557300000E-01  5.036465000000E-01
  28   6     4.269577900000E-01  1.493935000000E-02  5.030749600000E-01
  29   6     5.343305900000E-01  9.078471000000E-01  5.045446400000E-01
  30   6     4.265991700000E-01  8.533306500000E-01  5.030477100000E-01
  31   6     5.348813600000E-01  4.075436400000E-01  4.987473600000E-01
  32   6     5.881314200000E-01  5.154643000000E-01  4.965427700000E-01
  33   6     3.737518900000E-01  4.080251900000E-01  4.963522300000E-01
  34   6     4.271938200000E-01  3.544992300000E-01  4.969237800000E-01
  35   6     5.347059900000E-01  5.690201900000E-01  4.954541000000E-01
  36   6     4.268654900000E-01  5.157653700000E-01  4.969510200000E-01
  37   8     5.415470300000E-01  2.419874200000E-01  4.994278000000E-01
  38   8     7.003111300000E-01  2.416332500000E-01  5.041364000000E-01
  39   8     7.005817900000E-01  4.011243300000E-01  4.970326900000E-01
  40   8     2.611348600000E-01  6.812679000000E-01  4.994278200000E-01
  41   8     2.609734000000E-01  5.219505300000E-01  5.041363900000E-01
  42   8     4.201662200000E-01  6.814362900000E-01  4.970326700000E-01

 *******************************************************************************

 << INFORMATION >>: FROM NOW ON, ALL COORDINATES REFER TO THE PRIMITIVE CELL

 *******************************************************************************

 LATTICE PARAMETERS  (ANGSTROMS AND DEGREES) - PRIMITIVE CELL
       A          B          C        ALPHA      BETA     GAMMA        VOLUME
   15.02361   15.02392    4.60977    79.17153  89.99994 119.99596    879.668081

 COORDINATES OF THE EQUIVALENT ATOMS (FRACTIONAL UNITS)

 N. ATOM EQUIV AT. N.          X                  Y                  Z

   1   1   1    5 B    -4.05571860000E-01  1.88809510000E-01 -4.98939160000E-01

   2   2   1    5 B    -2.46516200000E-01  3.47869170000E-01 -4.98939150000E-01

   3   3   1    5 B    -4.05490380000E-01  3.48023480000E-01  4.98829030000E-01

   4   4   1    5 B     2.08002850000E-01 -4.24875490000E-01 -4.98939150000E-01

   5   5   1    5 B     3.67110820000E-01 -4.24896260000E-01 -4.98939160000E-01

   6   6   1    5 B     3.67176850000E-01 -2.65585540000E-01  4.98829030000E-01

   7   7   1    1 H    -1.16031000000E-01  2.70776940000E-01  4.96433840000E-01

   8   8   1    1 H     7.75871000000E-02 -3.47045290000E-01  4.95726290000E-01

   9   9   1    1 H    -1.16071820000E-01 -4.44017930000E-01  4.95617400000E-01

  10  10   1    1 H     7.76918900000E-02  3.67592490000E-01  4.95644560000E-01

  11  11   1    1 H    -3.28316210000E-01  5.83029600000E-02 -4.96435120000E-01

  12  12   1    1 H     2.89553920000E-01 -1.35318230000E-01 -4.95727530000E-01

  13  13   1    1 H     3.86490000000E-01  5.82860600000E-02 -4.95618560000E-01

  14  14   1    1 H    -4.25066730000E-01 -1.35414490000E-01 -4.95645910000E-01

  15  15   1    1 H    -3.28001880000E-01 -4.44098900000E-01  4.96433880000E-01

  16  16   1    1 H     2.89914400000E-01  3.67510600000E-01  4.95726250000E-01

  17  17   1    1 H     3.86797330000E-01  2.70732900000E-01  4.95617310000E-01

  18  18   1    1 H    -4.24753410000E-01 -3.47134530000E-01  4.95644650000E-01

  19  19   1    6 C    -1.27273200000E-01  4.07612780000E-01  4.98747360000E-01

  20  20   1    6 C    -7.25896900000E-02  3.54624150000E-01  4.96542730000E-01

  21  21   1    6 C     3.43166400000E-02 -4.30961540000E-01  4.96352280000E-01

  22  22   1    6 C    -7.26413300000E-02 -4.84498580000E-01  4.96923840000E-01

  23  23   1    6 C     3.43893700000E-02  4.08172160000E-01  4.95454040000E-01

  24  24   1    6 C     8.89414000000E-02 -4.84157230000E-01  4.96951020000E-01

  25  25   1    6 C    -4.65220300000E-01  6.96451000000E-02 -4.98748620000E-01

  26  26   1    6 C    -4.12166580000E-01  1.48631500000E-02 -4.96544020000E-01

  27  27   1    6 C     3.73446920000E-01 -9.20442700000E-02 -4.96353500000E-01

  28  28   1    6 C     4.26957790000E-01  1.49393500000E-02 -4.96925040000E-01

  29  29   1    6 C    -4.65669410000E-01 -9.21529000000E-02 -4.95455360000E-01

  30  30   1    6 C     4.26599170000E-01 -1.46669350000E-01 -4.96952290000E-01

  31  31   1    6 C    -4.65118640000E-01  4.07543640000E-01  4.98747360000E-01

  32  32   1    6 C    -4.11868580000E-01 -4.84535700000E-01  4.96542770000E-01

  33  33   1    6 C     3.73751890000E-01  4.08025190000E-01  4.96352230000E-01

  34  34   1    6 C     4.27193820000E-01  3.54499230000E-01  4.96923780000E-01

  35  35   1    6 C    -4.65294010000E-01 -4.30979810000E-01  4.95454100000E-01

  36  36   1    6 C     4.26865490000E-01 -4.84234630000E-01  4.96951020000E-01

  37  37   1    8 O    -4.58452970000E-01  2.41987420000E-01  4.99427800000E-01

  38  38   1    8 O    -2.99688870000E-01  2.41633250000E-01 -4.95863600000E-01

  39  39   1    8 O    -2.99418210000E-01  4.01124330000E-01  4.97032690000E-01

  40  40   1    8 O     2.61134860000E-01 -3.18732100000E-01  4.99427820000E-01

  41  41   1    8 O     2.60973400000E-01 -4.78049470000E-01 -4.95863610000E-01

  42  42   1    8 O     4.20166220000E-01 -3.18563710000E-01  4.97032670000E-01

 NUMBER OF SYMMETRY OPERATORS         :    1
 *******************************************************************************
 * GEOMETRY EDITING - INPUT COORDINATES ARE GIVEN IN ANGSTROM         
 *******************************************************************************

 GCALCO - MAX INDICES DIRECT LATTICE VECTOR    10    10    31
 NO.OF VECTORS CREATED 6999 STARS 3500 RMAX   215.03443 BOHR

 GEOMETRY FOR WAVE FUNCTION - DIMENSIONALITY OF THE SYSTEM    3
 (NON PERIODIC DIRECTION: LATTICE PARAMETER FORMALLY SET TO 500)
 *******************************************************************************
 LATTICE PARAMETERS (ANGSTROMS AND DEGREES) - BOHR = 0.5291772083 ANGSTROM
 PRIMITIVE CELL - CENTRING CODE 1/0 VOLUME=   879.668081 - DENSITY  0.736 g/cm^3
         A              B              C           ALPHA      BETA       GAMMA 
    15.02361100    15.02391600     4.60977200    79.171527  89.999945 119.995964
 *******************************************************************************
 ATOMS IN THE ASYMMETRIC UNIT   42 - ATOMS IN THE UNIT CELL:   42
     ATOM                 X/A                 Y/B                 Z/C    
 *******************************************************************************
      1 T   5 B    -4.055718600000E-01  1.888095100000E-01 -4.989391600000E-01
      2 T   5 B    -2.465162000000E-01  3.478691700000E-01 -4.989391500000E-01
      3 T   5 B    -4.054903800000E-01  3.480234800000E-01  4.988290300000E-01
      4 T   5 B     2.080028500000E-01 -4.248754900000E-01 -4.989391500000E-01
      5 T   5 B     3.671108200000E-01 -4.248962600000E-01 -4.989391600000E-01
      6 T   5 B     3.671768500000E-01 -2.655855400000E-01  4.988290300000E-01
      7 T   1 H    -1.160310000000E-01  2.707769400000E-01  4.964338400000E-01
      8 T   1 H     7.758710000000E-02 -3.470452900000E-01  4.957262900000E-01
      9 T   1 H    -1.160718200000E-01 -4.440179300000E-01  4.956174000000E-01
     10 T   1 H     7.769189000000E-02  3.675924900000E-01  4.956445600000E-01
     11 T   1 H    -3.283162100000E-01  5.830296000000E-02 -4.964351200000E-01
     12 T   1 H     2.895539200000E-01 -1.353182300000E-01 -4.957275300000E-01
     13 T   1 H     3.864900000000E-01  5.828606000000E-02 -4.956185600000E-01
     14 T   1 H    -4.250667300000E-01 -1.354144900000E-01 -4.956459100000E-01
     15 T   1 H    -3.280018800000E-01 -4.440989000000E-01  4.964338800000E-01
     16 T   1 H     2.899144000000E-01  3.675106000000E-01  4.957262500000E-01
     17 T   1 H     3.867973300000E-01  2.707329000000E-01  4.956173100000E-01
     18 T   1 H    -4.247534100000E-01 -3.471345300000E-01  4.956446500000E-01
     19 T   6 C    -1.272732000000E-01  4.076127800000E-01  4.987473600000E-01
     20 T   6 C    -7.258969000000E-02  3.546241500000E-01  4.965427300000E-01
     21 T   6 C     3.431664000000E-02 -4.309615400000E-01  4.963522800000E-01
     22 T   6 C    -7.264133000000E-02 -4.844985800000E-01  4.969238400000E-01
     23 T   6 C     3.438937000000E-02  4.081721600000E-01  4.954540400000E-01
     24 T   6 C     8.894140000000E-02 -4.841572300000E-01  4.969510200000E-01
     25 T   6 C    -4.652203000000E-01  6.964510000000E-02 -4.987486200000E-01
     26 T   6 C    -4.121665800000E-01  1.486315000000E-02 -4.965440200000E-01
     27 T   6 C     3.734469200000E-01 -9.204427000000E-02 -4.963535000000E-01
     28 T   6 C     4.269577900000E-01  1.493935000000E-02 -4.969250400000E-01
     29 T   6 C    -4.656694100000E-01 -9.215290000000E-02 -4.954553600000E-01
     30 T   6 C     4.265991700000E-01 -1.466693500000E-01 -4.969522900000E-01
     31 T   6 C    -4.651186400000E-01  4.075436400000E-01  4.987473600000E-01
     32 T   6 C    -4.118685800000E-01 -4.845357000000E-01  4.965427700000E-01
     33 T   6 C     3.737518900000E-01  4.080251900000E-01  4.963522300000E-01
     34 T   6 C     4.271938200000E-01  3.544992300000E-01  4.969237800000E-01
     35 T   6 C    -4.652940100000E-01 -4.309798100000E-01  4.954541000000E-01
     36 T   6 C     4.268654900000E-01 -4.842346300000E-01  4.969510200000E-01
     37 T   8 O    -4.584529700000E-01  2.419874200000E-01  4.994278000000E-01
     38 T   8 O    -2.996888700000E-01  2.416332500000E-01 -4.958636000000E-01
     39 T   8 O    -2.994182100000E-01  4.011243300000E-01  4.970326900000E-01
     40 T   8 O     2.611348600000E-01 -3.187321000000E-01  4.994278200000E-01
     41 T   8 O     2.609734000000E-01 -4.780494700000E-01 -4.958636100000E-01
     42 T   8 O     4.201662200000E-01 -3.185637100000E-01  4.970326700000E-01

 T = ATOM BELONGING TO THE ASYMMETRIC UNIT

 ****    1 SYMMOPS - TRANSLATORS IN FRACTIONAL UNITS
 **** MATRICES AND TRANSLATORS IN THE CRYSTALLOGRAPHIC REFERENCE FRAME
   V INV                    ROTATION MATRICES                   TRANSLATORS
   1   1  1.00  0.00  0.00  0.00  1.00  0.00  0.00  0.00  1.00  0.00  0.00  0.00

 DIRECT LATTICE VECTORS CARTESIAN COMPONENTS (ANGSTROM)
          X                    Y                    Z
   0.130113578931E+02  -0.751088897922E+01   0.000000000000E+00
   0.000000000000E+00   0.150239160000E+02   0.000000000000E+00
   0.499929468678E+00   0.866035269037E+00   0.450000570345E+01


 CARTESIAN COORDINATES - PRIMITIVE CELL
 *******************************************************************************
 *      ATOM          X(ANGSTROM)         Y(ANGSTROM)         Z(ANGSTROM)
 *******************************************************************************
    1     5 B    -5.526475010974E+00  5.450764522132E+00 -2.245229065676E+00
    2     5 B    -3.456944888799E+00  6.645814097844E+00 -2.245229020676E+00
    3     5 B     7.484827299936E+00  3.293480408138E-01 -2.255272223405E+00
    4     5 B     2.456965139963E+00  6.646237113067E+00 -2.245229020676E+00
    5     5 B     4.527175876272E+00  5.450882759293E+00 -2.245229065676E+00
    6     5 B     5.026848737324E+00 -6.315955866663E+00  2.244733480048E+00
    7     1 H    -1.761468430502E+00  4.503519905591E+00 -2.266050592066E+00
    8     1 H     1.257341706754E+00 -5.367410928546E+00  2.230771132352E+00
    9     1 H    -1.262478247869E+00 -5.369863380830E+00  2.230281126731E+00
   10     1 H     7.587348390338E-01  4.502353932444E+00 -2.269602356568E+00
   11     1 H    -4.520022256177E+00  2.911955054270E+00 -2.233960871395E+00
   12     1 H     4.019590350454E+00 -3.771099323181E+00  2.269228991095E+00
   13     1 H     4.780985388720E+00 -2.456421765116E+00 -2.230286346737E+00
   14     1 H    -5.278553880222E+00  1.594961524869E+00  2.269596281560E+00
   15     1 H    -4.019567924413E+00 -3.778589614813E+00  2.233955291388E+00
   16     1 H     3.520078708845E+00  2.907214658884E+00 -2.269234751102E+00
   17     1 H     4.780602722487E+00  7.254633463171E-01 -2.269724981723E+00
   18     1 H    -5.278831267278E+00 -1.595798565556E+00  2.230403751886E+00
   19     6 C    -1.906588121383E+00  6.645772577538E+00 -2.255639738871E+00
   20     6 C    -1.196183561429E+00  5.437044791524E+00 -2.265560586445E+00
   21     6 C     6.946472163448E-01 -6.302619869023E+00  2.233588090922E+00
   22     6 C    -6.967354711529E-01 -6.303111431641E+00  2.236160114182E+00
   23     6 C     1.952150070802E-01  5.437094909033E+00 -2.270459697654E+00
   24     6 C     9.057593776190E-01  6.646291305898E+00 -2.263723279116E+00
   25     6 C     6.708870938041E+00 -3.402262718131E+00 -2.244371634590E+00
   26     6 C    -5.611083872031E+00  2.889015506469E+00 -2.234450922016E+00
   27     6 C     5.110839257326E+00 -3.751608104384E+00  2.266412122524E+00
   28     6 C     5.306873139698E+00 -3.412739630715E+00 -2.236165514189E+00
   29     6 C    -5.806754619559E+00  2.550047263815E+00  2.270453757647E+00
   30     6 C     5.802122852131E+00 -4.972029939802E+00  2.263717564109E+00
   31     6 C     6.708941839296E+00  1.671364436744E+00 -2.255639738871E+00
   32     6 C    -5.110733136103E+00 -3.756100925988E+00  2.234445297009E+00
   33     6 C     4.611231241939E+00  2.886750496890E+00 -2.266417837532E+00
   34     6 C     5.306869054353E+00  1.681679549423E+00 -2.263845859272E+00
   35     6 C    -5.806414784638E+00 -2.551152086542E+00  2.229546275799E+00
   36     6 C     5.302610653294E+00  4.107018131407E+00 -2.263723279116E+00
   37     8 O     6.796011429271E+00 -8.654141281174E-01 -2.252577754990E+00
   38     8 O    -4.147255970221E+00  5.451772115452E+00 -2.231389028135E+00
   39     8 O    -3.647356201381E+00 -6.318112987453E+00  2.236649939803E+00
   40     8 O     3.647397806509E+00 -6.317437132508E+00  2.247428038463E+00
   41     8 O     3.147721476884E+00  5.452163310055E+00 -2.231389073135E+00
   42     8 O    -7.295943551435E+00 -5.594496250809E-04  2.236649849803E+00

 *******************************************************************************
 STARTING BASIS SET HANDLING 
 *******************************************************************************

 Loading internal basis set: SOLDEF2MSVP         

 Please cite in your publication:
 L. Dona', J. G. Brandenburg and B. Civalleri, J. Chem. Phys., 151, 121101 (2019
 )                                                                              
                                                                                
                    

 *******************************************************************************
 LOCAL ATOMIC FUNCTIONS BASIS SET
 *******************************************************************************
   ATOM   X(AU)   Y(AU)   Z(AU)  N. TYPE  EXPONENT  S COEF   P COEF   D/F/G COEF
 *******************************************************************************
   1 B  -10.444  10.300  -4.243
                                  1 S  
                                         2.410E+03 1.755E-03 0.000E+00 0.000E+00
                                         3.619E+02 1.344E-02 0.000E+00 0.000E+00
                                         8.231E+01 6.637E-02 0.000E+00 0.000E+00
                                         2.311E+01 2.303E-01 0.000E+00 0.000E+00
                                         7.252E+00 5.150E-01 0.000E+00 0.000E+00
                                  2 S  
                                         2.367E+00 1.000E+00 0.000E+00 0.000E+00
                                  3 S  
                                         5.533E-01 1.000E+00 0.000E+00 0.000E+00
                                  4 S  
                                         1.716E-01 1.000E+00 0.000E+00 0.000E+00
                           5-     7 P  
                                         6.002E+00 0.000E+00-3.555E-02 0.000E+00
                                         1.240E+00 0.000E+00-1.983E-01 0.000E+00
                                         3.367E-01 0.000E+00-5.048E-01 0.000E+00
                           8-    10 P  
                                         1.256E-01 0.000E+00 1.000E+00 0.000E+00
                          11-    15 D  
                                         8.880E-01 0.000E+00 0.000E+00 1.000E+00
   2 B   -6.533  12.559  -4.243
   3 B   14.144   0.622  -4.262
   4 B    4.643  12.560  -4.243
   5 B    8.555  10.301  -4.243
   6 B    9.499 -11.935   4.242
   7 H   -3.329   8.510  -4.282
                                 91 S  
                                         1.874E+01 1.968E-02 0.000E+00 0.000E+00
                                         2.826E+00 1.380E-01 0.000E+00 0.000E+00
                                         6.401E-01 4.783E-01 0.000E+00 0.000E+00
                                 92 S  
                                         1.756E-01 1.000E+00 0.000E+00 0.000E+00
   8 H    2.376 -10.143   4.216
   9 H   -2.386 -10.148   4.215
  10 H    1.434   8.508  -4.289
  11 H   -8.542   5.503  -4.222
  12 H    7.596  -7.126   4.288
  13 H    9.035  -4.642  -4.215
  14 H   -9.975   3.014   4.289
  15 H   -7.596  -7.140   4.222
  16 H    6.652   5.494  -4.288
  17 H    9.034   1.371  -4.289
  18 H   -9.976  -3.016   4.215
  19 C   -3.603  12.559  -4.263
                                115 S  
                                         3.624E+03 1.634E-03 0.000E+00 0.000E+00
                                         5.440E+02 1.252E-02 0.000E+00 0.000E+00
                                         1.237E+02 6.211E-02 0.000E+00 0.000E+00
                                         3.476E+01 2.182E-01 0.000E+00 0.000E+00
                                         1.093E+01 4.980E-01 0.000E+00 0.000E+00
                                116 S  
                                         3.574E+00 1.000E+00 0.000E+00 0.000E+00
                                117 S  
                                         7.742E-01 1.000E+00 0.000E+00 0.000E+00
                                118 S  
                                         2.330E-01 1.000E+00 0.000E+00 0.000E+00
                         119-   121 P  
                                         9.443E+00 0.000E+00 3.790E-02 0.000E+00
                                         2.002E+00 0.000E+00 2.082E-01 0.000E+00
                                         5.463E-01 0.000E+00 5.047E-01 0.000E+00
                         122-   124 P  
                                         1.820E-01 0.000E+00 1.000E+00 0.000E+00
                         125-   129 D  
                                         8.880E-01 0.000E+00 0.000E+00 1.000E+00
  20 C   -2.260  10.275  -4.281
  21 C    1.313 -11.910   4.221
  22 C   -1.317 -11.911   4.226
  23 C    0.369  10.275  -4.291
  24 C    1.712  12.560  -4.278
  25 C   12.678  -6.429  -4.241
  26 C  -10.603   5.459  -4.223
  27 C    9.658  -7.090   4.283
  28 C   10.029  -6.449  -4.226
  29 C  -10.973   4.819   4.291
  30 C   10.964  -9.396   4.278
  31 C   12.678   3.158  -4.263
  32 C   -9.658  -7.098   4.222
  33 C    8.714   5.455  -4.283
  34 C   10.029   3.178  -4.278
  35 C  -10.973  -4.821   4.213
  36 C   10.020   7.761  -4.278
  37 O   12.843  -1.635  -4.257
                                385 S  
                                         6.773E+03 1.727E-03 0.000E+00 0.000E+00
                                         1.017E+03 1.325E-02 0.000E+00 0.000E+00
                                         2.313E+02 6.603E-02 0.000E+00 0.000E+00
                                         6.501E+01 2.353E-01 0.000E+00 0.000E+00
                                         2.050E+01 5.498E-01 0.000E+00 0.000E+00
                                386 S  
                                         6.716E+00 1.000E+00 0.000E+00 0.000E+00
                                387 S  
                                         1.147E+00 1.000E+00 0.000E+00 0.000E+00
                                388 S  
                                         3.342E-01 1.000E+00 0.000E+00 0.000E+00
                         389-   391 P  
                                         1.769E+01 0.000E+00 4.359E-02 0.000E+00
                                         3.854E+00 0.000E+00 2.318E-01 0.000E+00
                                         1.047E+00 0.000E+00 5.146E-01 0.000E+00
                         392-   394 P  
                                         2.759E-01 0.000E+00 1.000E+00 0.000E+00
                         395-   399 D  
                                         8.000E-01 0.000E+00 0.000E+00 1.000E+00
  38 O   -7.837  10.302  -4.217
  39 O   -6.893 -11.940   4.227
  40 O    6.893 -11.938   4.247
  41 O    5.948  10.303  -4.217
  42 O  -13.787  -0.001   4.227

 *******************************************************************************
 FINISHED BASIS SET HANDLING 
 *******************************************************************************

 INFORMATION **** SET_MPP **** PCRYSTAL CALCULATION
 INFORMATION **** READM2 **** NEW DEFAULT: FOCK/KS MATRIX MIXING SET TO 30 %
 INFORMATION **** READM2 **** NEW DEFAULT: FULL DIRECT SCF MODE
 INFORMATION **** READM2 **** NEW DEFAULT: COULOMB BIPOLAR BUFFER SET TO 32 Mb
 INFORMATION **** READM2 **** NEW DEFAULT: EXCHANGE BIPOLAR BUFFER SET TO 32 Mb

 *******************************************************************************
 NEW DEFAULT: DFT INTEGRATION GRID INCREASED TO XLGRID
 NEW DEFAULT: DIIS ACCELERATOR ACTIVE
 USE KEYWORD NODIIS TO TURN IT OFF
 *******************************************************************************

 WARNING **** RDDFTP **** HSEsol-HJS ACTIVE
 RANGE SEPARATION - OMEGA:   0.110000000000000     
 WARNING **** RDDFTP **** HSEsol-3c has to be combined with sol-def2-mSVP basis set
 *******************************************************************************
 N. OF ATOMS PER CELL        42  COULOMB OVERLAP TOL         (T1) 10**   -6
 NUMBER OF SHELLS           234  COULOMB PENETRATION TOL     (T2) 10**   -6
 NUMBER OF AO               474  EXCHANGE OVERLAP TOL        (T3) 10**   -6
 N. OF ELECTRONS PER CELL   198  EXCHANGE PSEUDO OVP (F(G))  (T4) 10**   -6
 CORE ELECTRONS PER CELL     60  EXCHANGE PSEUDO OVP (P(G))  (T5) 10**  -12
 N. OF SYMMETRY OPERATORS     1  POLE ORDER IN MONO ZONE                  4
 *******************************************************************************
 TYPE OF CALCULATION :  RESTRICTED CLOSED SHELL
 KOHN-SHAM HAMILTONIAN

 (EXCHANGE)[CORRELATION] FUNCTIONAL:(HSEsol GGA)[PBEsol]

 RANGE-SEPARATED HYBRID FUNCTIONAL 
 OMEGA (SHORT-RANGE)[LONG-RANGE]:(    0.1100)[    0.0000]

 HYBRID EXCHANGE - PERCENTAGE OF FOCK EXCHANGE    25.0000

 CAPPA:IS1  2;IS2  2;IS3  8; K PTS MONK NET  20; SYMMOPS:K SPACE   2;G SPACE   1

 *******************************************************************************
 MAX NUMBER OF SCF CYCLES      50  CONVERGENCE ON DELTAP        10**-16
 WEIGHT OF F(I) IN F(I+1)      30% CONVERGENCE ON ENERGY        10**- 6
 SHRINK. FACT.(MONKH.)    2  2  8  NUMBER OF K POINTS IN THE IBZ     20
 SHRINKING FACTOR(GILAT NET)    8  NUMBER OF K POINTS(GILAT NET)   1028
 *******************************************************************************
 *** K POINTS COORDINATES (OBLIQUE COORDINATES IN UNITS OF IS =  2)
   1-R(  0  0  0)   2-R(  1  0  0)   3-R(  0  1  0)   4-R(  1  1  0)
   5-C(  0  0  1)   6-C(  1  0  1)   7-C(  0  1  1)   8-C(  1  1  1)
   9-C(  0  0  2)  10-C(  1  0  2)  11-C(  0  1  2)  12-C(  1  1  2)
  13-C(  0  0  3)  14-C(  1  0  3)  15-C(  0  1  3)  16-C(  1  1  3)
  17-R(  0  0  4)  18-R(  1  0  4)  19-R(  0  1  4)  20-R(  1  1  4)

 DIRECT LATTICE VECTORS COMPON. (A.U.)     RECIP. LATTICE VECTORS COMPON. (A.U.) 
        X            Y            Z              X            Y            Z
   24.5879030  -14.1935232    0.0000000      0.2555397    0.0000000   -0.0283893
    0.0000000   28.3910867    0.0000000      0.1277517    0.2213084   -0.0567839
    0.9447298    1.6365695    8.5037784      0.0000000    0.0000000    0.7388698

 DISK SPACE FOR EIGENVECTORS (FTN 10)     7189632 REALS

 SYMMETRY ADAPTION OF THE BLOCH FUNCTIONS DISABLED
 TTTTTTTTTTTTTTTTTTTTTTTTTTTTTT gordsh1     TELAPSE        0.04 TCPU        0.04

 MATRIX SIZE: P(G)  295488, F(G)   61758, P(G) IRR  149241, F(G) IRR   62454
 MAX G-VECTOR INDEX FOR 1- AND 2-ELECTRON INTEGRALS  85

 TTTTTTTTTTTTTTTTTTTTTTTTTTTTTT INPUT       TELAPSE        0.29 TCPU        0.29

 NEIGHBORS OF THE NON-EQUIVALENT ATOMS

 N = NUMBER OF NEIGHBORS AT DISTANCE R
    ATOM  N     R/ANG      R/AU   NEIGHBORS (ATOM LABELS AND CELL INDICES)
   1 B    1     1.3791     2.6061   37 O   -1 0 0
   1 B    1     1.3793     2.6065   38 O    0 0 0
   1 B    1     1.5503     2.9297   25 C   -1 0 0
   1 B    1     2.3895     4.5155    3 B   -1 0 0
   1 B    1     2.3898     4.5160    2 B    0 0 0
   1 B    1     2.5632     4.8437   26 C    0 0 0

   2 B    1     1.3793     2.6065   39 O    0 1-1
   2 B    1     1.3793     2.6065   38 O    0 0 0
   2 B    1     1.5504     2.9298   19 C    0 0 0
   2 B    1     2.3895     4.5156    3 B   -1 0 0
   2 B    1     2.3898     4.5160    1 B    0 0 0
   2 B    1     2.5634     4.8440   22 C    0 1-1

   3 B    1     1.3791     2.6061   37 O    0 0 0
   3 B    1     1.3793     2.6064   39 O    1 1-1
   3 B    1     1.5502     2.9294   31 C    0 0 0
   3 B    1     2.3895     4.5155    1 B    1 0 0
   3 B    1     2.3895     4.5156    2 B    1 0 0
   3 B    1     2.5629     4.8433   32 C    1 1-1

   4 B    1     1.3795     2.6068   40 O    0 1-1
   4 B    1     1.3795     2.6070   41 O    0 0 0
   4 B    1     1.5513     2.9316   24 C    0 0 0
   4 B    1     2.3905     4.5174    6 B    0 1-1
   4 B    1     2.3905     4.5175    5 B    0 0 0
   4 B    1     2.5648     4.8468   23 C    0 0 0

   5 B    1     1.3795     2.6069   41 O    0 0 0
   5 B    1     1.3797     2.6072   42 O    1 1-1
   5 B    1     1.5516     2.9322   36 C    0 0 0
   5 B    1     2.3905     4.5175    4 B    0 0 0
   5 B    1     2.3911     4.5185    6 B    0 1-1
   5 B    1     2.5651     4.8473   35 C    1 1-1

   6 B    1     1.3795     2.6068   40 O    0 0 0
   6 B    1     1.3796     2.6071   42 O    1 0 0
   6 B    1     1.5516     2.9322   30 C    0 0 0
   6 B    1     2.3905     4.5174    4 B    0-1 1
   6 B    1     2.3911     4.5185    5 B    0-1 1
   6 B    1     2.5651     4.8473   29 C    1 0 0

   7 H    1     1.0913     2.0623   20 C    0 0 0
   7 H    1     2.1472     4.0576   19 C    0 0 0
   7 H    1     2.1680     4.0969   23 C    0 0 0
   7 H    1     2.5202     4.7625   10 H    0 0 0
   7 H    1     2.5676     4.8520   38 O    0 0 0
   7 H    1     2.7321     5.1630    2 B    0 0 0

   8 H    1     1.0914     2.0625   21 C    0 0 0
   8 H    1     2.1493     4.0616   24 C    0-1 1
   8 H    1     2.1666     4.0942   22 C    0 0 0
   8 H    1     2.5198     4.7618    9 H    0 0 0
   8 H    1     2.5720     4.8604   40 O    0 0 0
   8 H    1     2.7362     5.1707    4 B    0-1 1

   9 H    1     1.0914     2.0624   22 C    0 0 0
   9 H    1     2.1471     4.0575   19 C    0-1 1
   9 H    1     2.1680     4.0970   21 C    0 0 0
   9 H    1     2.5198     4.7618    8 H    0 0 0
   9 H    1     2.5665     4.8500   39 O    0 0 0
   9 H    1     2.7315     5.1618    2 B    0-1 1

  10 H    1     1.0915     2.0626   23 C    0 0 0
  10 H    1     2.1490     4.0610   24 C    0 0 0
  10 H    1     2.1669     4.0948   20 C    0 0 0
  10 H    1     2.5202     4.7625    7 H    0 0 0
  10 H    1     2.5712     4.8588   41 O    0 0 0
  10 H    1     2.7351     5.1686    4 B    0 0 0

  11 H    1     1.0913     2.0623   26 C    0 0 0
  11 H    1     2.1469     4.0571   25 C   -1 0 0
  11 H    1     2.1680     4.0968   29 C    0 0-1
  11 H    1     2.5198     4.7617   14 H    0 0-1
  11 H    1     2.5670     4.8510   38 O    0 0 0
  11 H    1     2.7310     5.1609    1 B    0 0 0

  12 H    1     1.0914     2.0625   27 C    0 0 0
  12 H    1     2.1493     4.0617   30 C    0 0 0
  12 H    1     2.1664     4.0939   28 C    0 0 1
  12 H    1     2.5192     4.7606   13 H    0 0 1
  12 H    1     2.5735     4.8632   40 O    0 0 0
  12 H    1     2.7371     5.1723    6 B    0 0 0

  13 H    1     1.0914     2.0624   28 C    0 0 0
  13 H    1     2.1475     4.0581   25 C    0 0 0
  13 H    1     2.1679     4.0967   27 C    0 0-1
  13 H    1     2.5192     4.7606   12 H    0 0-1
  13 H    1     2.5675     4.8519   37 O    0 0 0
  13 H    1     2.7328     5.1643    1 B    1 0 0

  14 H    1     1.0914     2.0625   29 C    0 0 0
  14 H    1     2.1491     4.0612   30 C   -1 0 0
  14 H    1     2.1666     4.0942   26 C    0 0 1
  14 H    1     2.5198     4.7617   11 H    0 0 1
  14 H    1     2.5723     4.8609   42 O    0 0 0
  14 H    1     2.7355     5.1693    6 B   -1 0 0

  15 H    1     1.0914     2.0624   32 C    0 0 0
  15 H    1     2.1475     4.0582   31 C   -1-1 1
  15 H    1     2.1678     4.0966   35 C    0 0 0
  15 H    1     2.5200     4.7621   18 H    0 0 0
  15 H    1     2.5667     4.8503   39 O    0 0 0
  15 H    1     2.7315     5.1618    3 B   -1-1 1

  16 H    1     1.0913     2.0623   33 C    0 0 0
  16 H    1     2.1487     4.0605   36 C    0 0 0
  16 H    1     2.1667     4.0945   34 C    0 0 0
  16 H    1     2.5197     4.7616   17 H    0 0 0
  16 H    1     2.5723     4.8610   41 O    0 0 0
  16 H    1     2.7359     5.1701    5 B    0 0 0

  17 H    1     1.0915     2.0626   34 C    0 0 0
  17 H    1     2.1479     4.0589   31 C    0 0 0
  17 H    1     2.1679     4.0968   33 C    0 0 0
  17 H    1     2.5197     4.7616   16 H    0 0 0
  17 H    1     2.5677     4.8522   37 O    0 0 0
  17 H    1     2.7331     5.1648    3 B    0 0 0

  18 H    1     1.0914     2.0624   35 C    0 0 0
  18 H    1     2.1486     4.0602   36 C   -1-1 1
  18 H    1     2.1668     4.0947   32 C    0 0 0
  18 H    1     2.5200     4.7621   15 H    0 0 0
  18 H    1     2.5717     4.8598   42 O    0 0 0
  18 H    1     2.7349     5.1682    5 B   -1-1 1

  19 C    1     1.4020     2.6495   22 C    0 1-1
  19 C    1     1.4021     2.6495   20 C    0 0 0
  19 C    1     1.5504     2.9298    2 B    0 0 0
  19 C    1     2.1471     4.0575    9 H    0 1-1
  19 C    1     2.1472     4.0576    7 H    0 0 0
  19 C    1     2.4246     4.5817   21 C    0 1-1

  20 C    1     1.0913     2.0623    7 H    0 0 0
  20 C    1     1.3914     2.6294   23 C    0 0 0
  20 C    1     1.4021     2.6495   19 C    0 0 0
  20 C    1     2.1669     4.0948   10 H    0 0 0
  20 C    1     2.4177     4.5688   22 C    0 1-1
  20 C    1     2.4250     4.5825   24 C    0 0 0

  21 C    1     1.0914     2.0625    8 H    0 0 0
  21 C    1     1.3914     2.6293   22 C    0 0 0
  21 C    1     1.4026     2.6505   24 C    0-1 1
  21 C    1     2.1680     4.0970    9 H    0 0 0
  21 C    1     2.4182     4.5697   23 C    0-1 1
  21 C    1     2.4246     4.5817   19 C    0-1 1

  22 C    1     1.0914     2.0624    9 H    0 0 0
  22 C    1     1.3914     2.6293   21 C    0 0 0
  22 C    1     1.4020     2.6495   19 C    0-1 1
  22 C    1     2.1666     4.0942    8 H    0 0 0
  22 C    1     2.4177     4.5688   20 C    0-1 1
  22 C    1     2.4250     4.5826   24 C    0-1 1

  23 C    1     1.0915     2.0626   10 H    0 0 0
  23 C    1     1.3914     2.6294   20 C    0 0 0
  23 C    1     1.4025     2.6504   24 C    0 0 0
  23 C    1     2.1680     4.0969    7 H    0 0 0
  23 C    1     2.4182     4.5697   21 C    0 1-1
  23 C    1     2.4246     4.5818   19 C    0 0 0

  24 C    1     1.4025     2.6504   23 C    0 0 0
  24 C    1     1.4026     2.6505   21 C    0 1-1
  24 C    1     1.5513     2.9316    4 B    0 0 0
  24 C    1     2.1490     4.0610   10 H    0 0 0
  24 C    1     2.1493     4.0616    8 H    0 1-1
  24 C    1     2.4250     4.5825   20 C    0 0 0

  25 C    1     1.4020     2.6494   26 C    1 0 0
  25 C    1     1.4021     2.6495   28 C    0 0 0
  25 C    1     1.5503     2.9297    1 B    1 0 0
  25 C    1     2.1469     4.0571   11 H    1 0 0
  25 C    1     2.1475     4.0581   13 H    0 0 0
  25 C    1     2.4246     4.5818   27 C    0 0-1

  26 C    1     1.0913     2.0623   11 H    0 0 0
  26 C    1     1.3914     2.6293   29 C    0 0-1
  26 C    1     1.4020     2.6494   25 C   -1 0 0
  26 C    1     2.1666     4.0942   14 H    0 0-1
  26 C    1     2.4175     4.5684   28 C   -1 0 0
  26 C    1     2.4251     4.5828   30 C   -1 0-1

  27 C    1     1.0914     2.0625   12 H    0 0 0
  27 C    1     1.3915     2.6295   28 C    0 0 1
  27 C    1     1.4026     2.6505   30 C    0 0 0
  27 C    1     2.1679     4.0967   13 H    0 0 1
  27 C    1     2.4179     4.5691   29 C    1 0 0
  27 C    1     2.4246     4.5818   25 C    0 0 1

  28 C    1     1.0914     2.0624   13 H    0 0 0
  28 C    1     1.3915     2.6295   27 C    0 0-1
  28 C    1     1.4021     2.6495   25 C    0 0 0
  28 C    1     2.1664     4.0939   12 H    0 0-1
  28 C    1     2.4175     4.5684   26 C    1 0 0
  28 C    1     2.4253     4.5832   30 C    0 0-1

  29 C    1     1.0914     2.0625   14 H    0 0 0
  29 C    1     1.3914     2.6293   26 C    0 0 1
  29 C    1     1.4025     2.6504   30 C   -1 0 0
  29 C    1     2.1680     4.0968   11 H    0 0 1
  29 C    1     2.4179     4.5691   27 C   -1 0 0
  29 C    1     2.4247     4.5819   25 C   -1 0 1

  30 C    1     1.4025     2.6504   29 C    1 0 0
  30 C    1     1.4026     2.6505   27 C    0 0 0
  30 C    1     1.5516     2.9322    6 B    0 0 0
  30 C    1     2.1491     4.0612   14 H    1 0 0
  30 C    1     2.1493     4.0617   12 H    0 0 0
  30 C    1     2.4251     4.5828   26 C    1 0 1

  31 C    1     1.4021     2.6496   32 C    1 1-1
  31 C    1     1.4021     2.6497   34 C    0 0 0
  31 C    1     1.5502     2.9294    3 B    0 0 0
  31 C    1     2.1475     4.0582   15 H    1 1-1
  31 C    1     2.1479     4.0589   17 H    0 0 0
  31 C    1     2.4244     4.5814   33 C    0 0 0

  32 C    1     1.0914     2.0624   15 H    0 0 0
  32 C    1     1.3914     2.6293   35 C    0 0 0
  32 C    1     1.4021     2.6496   31 C   -1-1 1
  32 C    1     2.1668     4.0947   18 H    0 0 0
  32 C    1     2.4179     4.5692   34 C   -1-1 1
  32 C    1     2.4251     4.5827   36 C   -1-1 1

  33 C    1     1.0913     2.0623   16 H    0 0 0
  33 C    1     1.3914     2.6294   34 C    0 0 0
  33 C    1     1.4025     2.6504   36 C    0 0 0
  33 C    1     2.1679     4.0968   17 H    0 0 0
  33 C    1     2.4178     4.5690   35 C    1 1-1
  33 C    1     2.4244     4.5814   31 C    0 0 0

  34 C    1     1.0915     2.0626   17 H    0 0 0
  34 C    1     1.3914     2.6294   33 C    0 0 0
  34 C    1     1.4021     2.6497   31 C    0 0 0
  34 C    1     2.1667     4.0945   16 H    0 0 0
  34 C    1     2.4179     4.5692   32 C    1 1-1
  34 C    1     2.4253     4.5832   36 C    0 0 0

  35 C    1     1.0914     2.0624   18 H    0 0 0
  35 C    1     1.3914     2.6293   32 C    0 0 0
  35 C    1     1.4025     2.6503   36 C   -1-1 1
  35 C    1     2.1678     4.0966   15 H    0 0 0
  35 C    1     2.4178     4.5690   33 C   -1-1 1
  35 C    1     2.4245     4.5817   31 C   -1-1 1

  36 C    1     1.4025     2.6503   35 C    1 1-1
  36 C    1     1.4025     2.6504   33 C    0 0 0
  36 C    1     1.5516     2.9322    5 B    0 0 0
  36 C    1     2.1486     4.0602   18 H    1 1-1
  36 C    1     2.1487     4.0605   16 H    0 0 0
  36 C    1     2.4251     4.5827   32 C    1 1-1

  37 O    1     1.3791     2.6061    1 B    1 0 0
  37 O    1     1.3791     2.6061    3 B    0 0 0
  37 O    1     2.3880     4.5126   38 O    1 0 0
  37 O    1     2.3882     4.5130   39 O    1 1-1
  37 O    1     2.5383     4.7966   31 C    0 0 0
  37 O    1     2.5384     4.7968   25 C    0 0 0

  38 O    1     1.3793     2.6065    1 B    0 0 0
  38 O    1     1.3793     2.6065    2 B    0 0 0
  38 O    1     2.3880     4.5126   37 O   -1 0 0
  38 O    1     2.3882     4.5131   39 O    0 1-1
  38 O    1     2.5391     4.7981   19 C    0 0 0
  38 O    1     2.5395     4.7990   25 C   -1 0 0

  39 O    1     1.3793     2.6064    3 B   -1-1 1
  39 O    1     1.3793     2.6065    2 B    0-1 1
  39 O    1     2.3882     4.5130   37 O   -1-1 1
  39 O    1     2.3882     4.5131   38 O    0-1 1
  39 O    1     2.5390     4.7980   19 C    0-1 1
  39 O    1     2.5391     4.7982   31 C   -1-1 1

  40 O    1     1.3795     2.6068    6 B    0 0 0
  40 O    1     1.3795     2.6068    4 B    0-1 1
  40 O    1     2.3880     4.5126   42 O    1 0 0
  40 O    1     2.3884     4.5134   41 O    0-1 1
  40 O    1     2.5400     4.7998   24 C    0-1 1
  40 O    1     2.5403     4.8005   30 C    0 0 0

  41 O    1     1.3795     2.6069    5 B    0 0 0
  41 O    1     1.3795     2.6070    4 B    0 0 0
  41 O    1     2.3881     4.5128   42 O    1 1-1
  41 O    1     2.3884     4.5134   40 O    0 1-1
  41 O    1     2.5404     4.8006   24 C    0 0 0
  41 O    1     2.5405     4.8008   36 C    0 0 0

  42 O    1     1.3796     2.6071    6 B   -1 0 0
  42 O    1     1.3797     2.6072    5 B   -1-1 1
  42 O    1     2.3880     4.5126   40 O   -1 0 0
  42 O    1     2.3881     4.5128   41 O   -1-1 1
  42 O    1     2.5409     4.8016   36 C   -1-1 1
  42 O    1     2.5410     4.8019   30 C   -1 0 0


 SYMMETRY ALLOWED INTERNAL DEGREE(S) OF FREEDOM: 123
 TTTTTTTTTTTTTTTTTTTTTTTTTTTTTT SYMM        TELAPSE        0.29 TCPU        0.29
 TTTTTTTTTTTTTTTTTTTTTTTTTTTTTT INT_SCREEN  TELAPSE        0.32 TCPU        0.32

 DFT PARAMETERS

     ATOM       ELECTRONS   NET CHARGE   R(ANGSTROM)
   1   5  B       5.0000      0.0000     0.89000000
   7   1  H       1.0000      0.0000     1.11000000
  19   6  C       6.0000      0.0000     0.77000000
  37   8  O       8.0000      0.0000     0.74000000

 SIZE OF GRID=    1335760
 TTTTTTTTTTTTTTTTTTTTTTTTTTTTTT MAKE_GRID2  TELAPSE        8.50 TCPU        8.49
 BECKE WEIGHT FUNCTION
 RADSAFE =     2.00
 TOLERANCES - DENSITY:10**- 6; POTENTIAL:10**- 9; GRID WGT:10**-14

 RADIAL INTEGRATION  - INTERVALS (POINTS,UPPER LIMIT):            1( 75,  4.0*R)

 ANGULAR INTEGRATION - INTERVALS (ACCURACY LEVEL [N. POINTS] UPPER LIMIT):
  1(  4[  86]   0.2)  2(  8[ 194]   0.5)  3( 12[ 350]   0.9)  4( 16[ 974]   3.5)
  5( 12[ 350]9999.0)
 TTTTTTTTTTTTTTTTTTTTTTTTTTTTTT INT_CALC    TELAPSE        8.58 TCPU        8.57
 EEEEEEEEEE INT_CALC TERMINATION  DATE 19 02 2026 TIME 19:21:34.6

 *******************************************************************************
 cof-1_z45_L010_incl                                                             
 CRYSTAL - SCF - TYPE OF CALCULATION :  RESTRICTED CLOSED SHELL
 *******************************************************************************

 CAPPA:IS1  2;IS2  2;IS3  8; K PTS MONK NET  20; SYMMOPS:K SPACE   2;G SPACE   1

 TTTTTTTTTTTTTTTTTTTTTTTTTTTTTT SDIK        TELAPSE        9.17 TCPU       16.11

 AAAAAAAAAAAAAAAAAAAAAAAAAAAAAAAAAAAAAAAAAAAAAAAAAAAAAAAAAAAAAAAAAAAAAAAAAAAAAAA
         ATOMIC WAVEFUNCTION(S)


 NUCLEAR CHARGE  5.0  SYMMETRY SPECIES            S    P
 N. ELECTRONS    5.0  NUMBER OF PRIMITIVE GTOS    8    4
                      NUMBER OF CONTRACTED GTOS   4    2
                      NUMBER OF CLOSED SHELLS     2    0
                      OPEN SHELL OCCUPATION       0    1

  ZNUC  SCFIT    TOTAL HF ENERGY   KINETIC ENERGY   VIRIAL THEOREM ACCURACY
   5.0    11    -2.451164084E+01  2.462155050E+01 -1.995536038E+00  1.5E-06

 NUCLEAR CHARGE  1.0  SYMMETRY SPECIES            S
 N. ELECTRONS    1.0  NUMBER OF PRIMITIVE GTOS    4
                      NUMBER OF CONTRACTED GTOS   2
                      NUMBER OF CLOSED SHELLS     0
                      OPEN SHELL OCCUPATION       1

  ZNUC  SCFIT    TOTAL HF ENERGY   KINETIC ENERGY   VIRIAL THEOREM ACCURACY
   1.0     1    -4.977266687E-01  5.190767460E-01 -1.958869132E+00  0.0E+00

 NUCLEAR CHARGE  6.0  SYMMETRY SPECIES            S    P
 N. ELECTRONS    6.0  NUMBER OF PRIMITIVE GTOS    8    4
                      NUMBER OF CONTRACTED GTOS   4    2
                      NUMBER OF CLOSED SHELLS     2    0
                      OPEN SHELL OCCUPATION       0    2

  ZNUC  SCFIT    TOTAL HF ENERGY   KINETIC ENERGY   VIRIAL THEOREM ACCURACY
   6.0     9    -3.766704647E+01  3.775180683E+01 -1.997754800E+00  1.1E-06

 NUCLEAR CHARGE  8.0  SYMMETRY SPECIES            S    P
 N. ELECTRONS    8.0  NUMBER OF PRIMITIVE GTOS    8    4
                      NUMBER OF CONTRACTED GTOS   4    2
                      NUMBER OF CLOSED SHELLS     2    0
                      OPEN SHELL OCCUPATION       0    4

  ZNUC  SCFIT    TOTAL HF ENERGY   KINETIC ENERGY   VIRIAL THEOREM ACCURACY
   8.0    12    -7.477373220E+01  7.477365593E+01 -2.000001020E+00  3.8E-06

 AAAAAAAAAAAAAAAAAAAAAAAAAAAAAAAAAAAAAAAAAAAAAAAAAAAAAAAAAAAAAAAAAAAAAAAAAAAAAAA

 CHARGE NORMALIZATION FACTOR   1.00000000
 TOTAL ATOMIC CHARGES:
   5.0000000   5.0000000   5.0000000   5.0000000   5.0000000   5.0000000
   1.0000000   1.0000000   1.0000000   1.0000000   1.0000000   1.0000000
   1.0000000   1.0000000   1.0000000   1.0000000   1.0000000   1.0000000
   6.0000000   6.0000000   6.0000000   6.0000000   6.0000000   6.0000000
   6.0000000   6.0000000   6.0000000   6.0000000   6.0000000   6.0000000
   6.0000000   6.0000000   6.0000000   6.0000000   6.0000000   6.0000000
   8.0000000   8.0000000   8.0000000   8.0000000   8.0000000   8.0000000
 TTTTTTTTTTTTTTTTTTTTTTTTTTTTTT MOQGAD      TELAPSE        9.21 TCPU       17.35
 TTTTTTTTTTTTTTTTTTTTTTTTTTTTTT SHELLXN     TELAPSE       14.58 TCPU      188.93
 TTTTTTTTTTTTTTTTTTTTTTTTTTTTTT MONMO3      TELAPSE       14.72 TCPU      193.27
 NUMERICALLY INTEGRATED DENSITY    197.9999452668
 TTTTTTTTTTTTTTTTTTTTTTTTTTTTTT NUMDFT      TELAPSE       15.21 TCPU      208.80
 CYC   0 ETOT(AU) -1.295954326508E+03 DETOT -1.30E+03 tst  0.00E+00 PX  1.00E+00
 TTTTTTTTTTTTTTTTTTTTTTTTTTTTTT DIIS        TELAPSE       15.24 TCPU      209.84
 TTTTTTTTTTTTTTTTTTTTTTTTTTTTTT FDIK        TELAPSE       15.74 TCPU      225.68
 INSULATING STATE
 TOP OF VALENCE BANDS -    BAND     99; K    1; EIG -3.1250167E-01 AU
 BOTTOM OF VIRTUAL BANDS - BAND    100; K   17; EIG -1.5898941E-01 AU
 INDIRECT ENERGY BAND GAP:   4.1773 eV
 BOTTOM OF VIRTUAL BANDS - BAND    100; K    1; EIG -1.5246260E-01 AU
 TTTTTTTTTTTTTTTTTTTTTTTTTTTTTT PDIG        TELAPSE       16.02 TCPU      231.82
 CHARGE NORMALIZATION FACTOR   1.00000000
 TOTAL ATOMIC CHARGES:
   4.1630129   4.1628628   4.1631140   4.1627276   4.1625126   4.1626781
   0.7851801   0.7852951   0.7851530   0.7852791   0.7851594   0.7853304
   0.7851475   0.7852936   0.7851571   0.7853437   0.7851317   0.7852889
   6.0440568   6.2655030   6.2654866   6.2654538   6.2654076   6.0433088
   6.0439779   6.2654639   6.2655559   6.2653751   6.2655735   6.0427435
   6.0444201   6.2652203   6.2657732   6.2651333   6.2657582   6.0428459
   8.6920141   8.6921278   8.6918451   8.6924368   8.6922456   8.6926056
 TTTTTTTTTTTTTTTTTTTTTTTTTTTTTT MOQGAD      TELAPSE       16.06 TCPU      231.86
 TTTTTTTTTTTTTTTTTTTTTTTTTTTTTT SHELLXN     TELAPSE       21.65 TCPU      409.85
 TTTTTTTTTTTTTTTTTTTTTTTTTTTTTT MONMO3      TELAPSE       21.78 TCPU      414.18
 NUMERICALLY INTEGRATED DENSITY    197.9999647152
 TTTTTTTTTTTTTTTTTTTTTTTTTTTTTT NUMDFT      TELAPSE       22.27 TCPU      429.87
 CYC   1 ETOT(AU) -1.288806274753E+03 DETOT  7.15E+00 tst  0.00E+00 PX  1.00E+00
 TTTTTTTTTTTTTTTTTTTTTTTTTTTTTT DIIS        TELAPSE       22.32 TCPU      431.29
 DIIS TEST: 0.11190E+01 AT SCF   CYCLE   1 - MIX   30 %
 TTTTTTTTTTTTTTTTTTTTTTTTTTTTTT FDIK        TELAPSE       22.82 TCPU      447.35
 INSULATING STATE
 TOP OF VALENCE BANDS -    BAND     99; K    1; EIG -2.2011981E-01 AU
 BOTTOM OF VIRTUAL BANDS - BAND    100; K   17; EIG -8.0934310E-02 AU
 INDIRECT ENERGY BAND GAP:   3.7874 eV
 BOTTOM OF VIRTUAL BANDS - BAND    100; K    1; EIG -7.2247154E-02 AU
 TTTTTTTTTTTTTTTTTTTTTTTTTTTTTT PDIG        TELAPSE       23.10 TCPU      453.48
 CHARGE NORMALIZATION FACTOR   1.00000000
 TOTAL ATOMIC CHARGES:
   4.7152151   4.7151319   4.7147165   4.7149004   4.7150458   4.7148534
   0.9154559   0.9155396   0.9160582   0.9161090   0.9153178   0.9153290
   0.9152819   0.9152857   0.9160342   0.9161583   0.9153909   0.9154623
   5.8624218   6.1251333   6.1255246   6.1288159   6.1300072   5.8652210
   5.8627088   6.1271395   6.1284126   6.1276547   6.1281343   5.8659550
   5.8623524   6.1289286   6.1299135   6.1253312   6.1254265   5.8654844
   8.3339168   8.3342327   8.3361162   8.3337129   8.3361655   8.3340045
 TTTTTTTTTTTTTTTTTTTTTTTTTTTTTT MOQGAD      TELAPSE       23.14 TCPU      453.53
 TTTTTTTTTTTTTTTTTTTTTTTTTTTTTT SHELLXN     TELAPSE       28.73 TCPU      631.67
 TTTTTTTTTTTTTTTTTTTTTTTTTTTTTT MONMO3      TELAPSE       28.87 TCPU      636.00
 NUMERICALLY INTEGRATED DENSITY    197.9999566455
 TTTTTTTTTTTTTTTTTTTTTTTTTTTTTT NUMDFT      TELAPSE       29.36 TCPU      651.81
 CYC   2 ETOT(AU) -1.289002129657E+03 DETOT -1.96E-01 tst  4.47E-03 PX  1.58E-01
 TTTTTTTTTTTTTTTTTTTTTTTTTTTTTT DIIS        TELAPSE       29.41 TCPU      653.20
 DIIS TEST: 0.47108E+00 AT SCF   CYCLE   2 - DIIS ACTIVE - HISTORY:     2 CYCLES
 TTTTTTTTTTTTTTTTTTTTTTTTTTTTTT FDIK        TELAPSE       29.91 TCPU      669.26
 INSULATING STATE
 TOP OF VALENCE BANDS -    BAND     99; K    1; EIG -2.3452976E-01 AU
 BOTTOM OF VIRTUAL BANDS - BAND    100; K   17; EIG -7.6601268E-02 AU
 INDIRECT ENERGY BAND GAP:   4.2975 eV
 BOTTOM OF VIRTUAL BANDS - BAND    100; K    1; EIG -6.7278167E-02 AU
 TTTTTTTTTTTTTTTTTTTTTTTTTTTTTT PDIG        TELAPSE       30.19 TCPU      675.40
 CHARGE NORMALIZATION FACTOR   1.00000000
 TOTAL ATOMIC CHARGES:
   4.5059610   4.5053194   4.5052001   4.5046640   4.5046020   4.5050830
   0.8904023   0.8905499   0.8908528   0.8909946   0.8903027   0.8905737
   0.8903763   0.8904604   0.8908465   0.8910437   0.8903898   0.8904709
   5.8884246   6.1591743   6.1588456   6.1590376   6.1581697   5.8873770
   5.8894497   6.1587708   6.1581885   6.1587398   6.1582224   5.8883026
   5.8888588   6.1589994   6.1582730   6.1591228   6.1589078   5.8869999
   8.5080289   8.5081973   8.5075031   8.5083214   8.5074857   8.5085061
 TTTTTTTTTTTTTTTTTTTTTTTTTTTTTT MOQGAD      TELAPSE       30.23 TCPU      675.44
 TTTTTTTTTTTTTTTTTTTTTTTTTTTTTT SHELLXN     TELAPSE       35.82 TCPU      853.65
 TTTTTTTTTTTTTTTTTTTTTTTTTTTTTT MONMO3      TELAPSE       35.96 TCPU      857.97
 NUMERICALLY INTEGRATED DENSITY    197.9999575513
 TTTTTTTTTTTTTTTTTTTTTTTTTTTTTT NUMDFT      TELAPSE       36.45 TCPU      873.65
 CYC   3 ETOT(AU) -1.289100290749E+03 DETOT -9.82E-02 tst  7.38E-04 PX  6.14E-02
 TTTTTTTTTTTTTTTTTTTTTTTTTTTTTT DIIS        TELAPSE       36.50 TCPU      875.42
 DIIS TEST: 0.11476E-01 AT SCF   CYCLE   3 - DIIS ACTIVE - HISTORY:     3 CYCLES
 TTTTTTTTTTTTTTTTTTTTTTTTTTTTTT FDIK        TELAPSE       37.01 TCPU      891.49
 INSULATING STATE
 TOP OF VALENCE BANDS -    BAND     99; K    1; EIG -2.4477127E-01 AU
 BOTTOM OF VIRTUAL BANDS - BAND    100; K   17; EIG -8.5665254E-02 AU
 INDIRECT ENERGY BAND GAP:   4.3295 eV
 BOTTOM OF VIRTUAL BANDS - BAND    100; K    1; EIG -7.6831293E-02 AU
 TTTTTTTTTTTTTTTTTTTTTTTTTTTTTT PDIG        TELAPSE       37.29 TCPU      897.62
 CHARGE NORMALIZATION FACTOR   1.00000000
 TOTAL ATOMIC CHARGES:
   4.5122456   4.5112475   4.5110297   4.5110915   4.5110858   4.5119531
   0.8735204   0.8736395   0.8738018   0.8737704   0.8732175   0.8732438
   0.8732103   0.8731954   0.8738122   0.8738059   0.8735139   0.8735430
   5.9375837   6.1606587   6.1612468   6.1628705   6.1647906   5.9411551
   5.9380637   6.1618614   6.1634369   6.1621742   6.1632131   5.9416213
   5.9375357   6.1627866   6.1649058   6.1605415   6.1614196   5.9412852
   8.4762888   8.4765319   8.4779617   8.4762776   8.4783399   8.4765223
 TTTTTTTTTTTTTTTTTTTTTTTTTTTTTT MOQGAD      TELAPSE       37.33 TCPU      897.66
 TTTTTTTTTTTTTTTTTTTTTTTTTTTTTT SHELLXN     TELAPSE       42.92 TCPU     1075.86
 TTTTTTTTTTTTTTTTTTTTTTTTTTTTTT MONMO3      TELAPSE       43.05 TCPU     1080.19
 NUMERICALLY INTEGRATED DENSITY    197.9999581684
 TTTTTTTTTTTTTTTTTTTTTTTTTTTTTT NUMDFT      TELAPSE       43.55 TCPU     1095.86
 CYC   4 ETOT(AU) -1.289102641024E+03 DETOT -2.35E-03 tst  2.63E-05 PX  1.21E-02
 TTTTTTTTTTTTTTTTTTTTTTTTTTTTTT DIIS        TELAPSE       43.60 TCPU     1097.70
 DIIS TEST: 0.39876E-02 AT SCF   CYCLE   4 - DIIS ACTIVE - HISTORY:     4 CYCLES
 TTTTTTTTTTTTTTTTTTTTTTTTTTTTTT FDIK        TELAPSE       44.10 TCPU     1113.70
 INSULATING STATE
 TOP OF VALENCE BANDS -    BAND     99; K    1; EIG -2.4282030E-01 AU
 BOTTOM OF VIRTUAL BANDS - BAND    100; K   17; EIG -8.4942358E-02 AU
 INDIRECT ENERGY BAND GAP:   4.2961 eV
 BOTTOM OF VIRTUAL BANDS - BAND    100; K    1; EIG -7.5961007E-02 AU
 TTTTTTTTTTTTTTTTTTTTTTTTTTTTTT PDIG        TELAPSE       44.38 TCPU     1119.83
 CHARGE NORMALIZATION FACTOR   1.00000000
 TOTAL ATOMIC CHARGES:
   4.5137423   4.5131553   4.5129584   4.5125921   4.5125696   4.5129701
   0.8768999   0.8770607   0.8772515   0.8774432   0.8766918   0.8769451
   0.8767297   0.8768545   0.8772419   0.8774955   0.8768658   0.8769901
   5.9187580   6.1632194   6.1627398   6.1648852   6.1638633   5.9171427
   5.9192612   6.1639810   6.1634419   6.1640757   6.1634110   5.9177578
   5.9190892   6.1648774   6.1639172   6.1632333   6.1627751   5.9168902
   8.4871372   8.4873300   8.4875478   8.4872800   8.4874451   8.4874828
 TTTTTTTTTTTTTTTTTTTTTTTTTTTTTT MOQGAD      TELAPSE       44.43 TCPU     1119.88
 TTTTTTTTTTTTTTTTTTTTTTTTTTTTTT SHELLXN     TELAPSE       50.01 TCPU     1297.94
 TTTTTTTTTTTTTTTTTTTTTTTTTTTTTT MONMO3      TELAPSE       50.15 TCPU     1302.27
 NUMERICALLY INTEGRATED DENSITY    197.9999581524
 TTTTTTTTTTTTTTTTTTTTTTTTTTTTTT NUMDFT      TELAPSE       50.64 TCPU     1317.93
 CYC   5 ETOT(AU) -1.289103545092E+03 DETOT -9.04E-04 tst  5.60E-06 PX  6.83E-03
 TTTTTTTTTTTTTTTTTTTTTTTTTTTTTT DIIS        TELAPSE       50.71 TCPU     1320.05
 DIIS TEST: 0.86086E-04 AT SCF   CYCLE   5 - DIIS ACTIVE - HISTORY:     5 CYCLES
 TTTTTTTTTTTTTTTTTTTTTTTTTTTTTT FDIK        TELAPSE       51.21 TCPU     1336.14
 INSULATING STATE
 TOP OF VALENCE BANDS -    BAND     99; K    1; EIG -2.4260283E-01 AU
 BOTTOM OF VIRTUAL BANDS - BAND    100; K   17; EIG -8.4328047E-02 AU
 INDIRECT ENERGY BAND GAP:   4.3069 eV
 BOTTOM OF VIRTUAL BANDS - BAND    100; K    1; EIG -7.5347903E-02 AU
 TTTTTTTTTTTTTTTTTTTTTTTTTTTTTT PDIG        TELAPSE       51.49 TCPU     1342.27
 CHARGE NORMALIZATION FACTOR   1.00000000
 TOTAL ATOMIC CHARGES:
   4.5133460   4.5125634   4.5123703   4.5124055   4.5123903   4.5130302
   0.8779069   0.8779922   0.8783399   0.8782581   0.8777622   0.8777819
   0.8777753   0.8777182   0.8783486   0.8782931   0.8779012   0.8778965
   5.9158493   6.1617308   6.1627323   6.1626156   6.1650663   5.9207613
   5.9166496   6.1621447   6.1639798   6.1623538   6.1638257   5.9212691
   5.9159117   6.1625219   6.1652080   6.1615933   6.1629101   5.9207743
   8.4862036   8.4864315   8.4870100   8.4863208   8.4875035   8.4865528
 TTTTTTTTTTTTTTTTTTTTTTTTTTTTTT MOQGAD      TELAPSE       51.53 TCPU     1342.32
 TTTTTTTTTTTTTTTTTTTTTTTTTTTTTT SHELLXN     TELAPSE       57.11 TCPU     1520.27
 TTTTTTTTTTTTTTTTTTTTTTTTTTTTTT MONMO3      TELAPSE       57.25 TCPU     1524.61
 NUMERICALLY INTEGRATED DENSITY    197.9999581243
 TTTTTTTTTTTTTTTTTTTTTTTTTTTTTT NUMDFT      TELAPSE       57.74 TCPU     1540.26
 CYC   6 ETOT(AU) -1.289103554242E+03 DETOT -9.15E-06 tst  6.18E-07 PX  8.96E-04
 TTTTTTTTTTTTTTTTTTTTTTTTTTTTTT DIIS        TELAPSE       57.81 TCPU     1542.51
 DIIS TEST: 0.50788E-04 AT SCF   CYCLE   6 - DIIS ACTIVE - HISTORY:     6 CYCLES
 TTTTTTTTTTTTTTTTTTTTTTTTTTTTTT FDIK        TELAPSE       58.31 TCPU     1558.56
 INSULATING STATE
 TOP OF VALENCE BANDS -    BAND     99; K    1; EIG -2.4260023E-01 AU
 BOTTOM OF VIRTUAL BANDS - BAND    100; K   17; EIG -8.4371804E-02 AU
 INDIRECT ENERGY BAND GAP:   4.3056 eV
 BOTTOM OF VIRTUAL BANDS - BAND    100; K    1; EIG -7.5392214E-02 AU
 TTTTTTTTTTTTTTTTTTTTTTTTTTTTTT PDIG        TELAPSE       58.59 TCPU     1564.70
 CHARGE NORMALIZATION FACTOR   1.00000000
 TOTAL ATOMIC CHARGES:
   4.5135844   4.5128707   4.5126787   4.5123938   4.5123732   4.5129212
   0.8778562   0.8780137   0.8782193   0.8783437   0.8776595   0.8778493
   0.8776863   0.8777713   0.8782176   0.8783885   0.8778352   0.8779317
   5.9186194   6.1622376   6.1620005   6.1637682   6.1635510   5.9184139
   5.9191920   6.1629099   6.1629353   6.1630663   6.1628391   5.9190745
   5.9188367   6.1637237   6.1636421   6.1621929   6.1620906   5.9182726
   8.4863196   8.4865252   8.4870314   8.4864337   8.4870820   8.4866475
 TTTTTTTTTTTTTTTTTTTTTTTTTTTTTT MOQGAD      TELAPSE       58.63 TCPU     1564.74
 TTTTTTTTTTTTTTTTTTTTTTTTTTTTTT SHELLXN     TELAPSE       64.22 TCPU     1742.76
 TTTTTTTTTTTTTTTTTTTTTTTTTTTTTT MONMO3      TELAPSE       64.36 TCPU     1747.09
 NUMERICALLY INTEGRATED DENSITY    197.9999581172
 TTTTTTTTTTTTTTTTTTTTTTTTTTTTTT NUMDFT      TELAPSE       64.85 TCPU     1762.76
 CYC   7 ETOT(AU) -1.289103566952E+03 DETOT -1.27E-05 tst  3.67E-07 PX  7.08E-04
 TTTTTTTTTTTTTTTTTTTTTTTTTTTTTT DIIS        TELAPSE       64.92 TCPU     1765.24
 DIIS TEST: 0.30420E-05 AT SCF   CYCLE   7 - DIIS ACTIVE - HISTORY:     7 CYCLES
 TTTTTTTTTTTTTTTTTTTTTTTTTTTTTT FDIK        TELAPSE       65.43 TCPU     1781.35
 INSULATING STATE
 TOP OF VALENCE BANDS -    BAND     99; K    1; EIG -2.4260561E-01 AU
 BOTTOM OF VIRTUAL BANDS - BAND    100; K   17; EIG -8.4425365E-02 AU
 INDIRECT ENERGY BAND GAP:   4.3043 eV
 BOTTOM OF VIRTUAL BANDS - BAND    100; K    1; EIG -7.5444460E-02 AU
 TTTTTTTTTTTTTTTTTTTTTTTTTTTTTT PDIG        TELAPSE       65.71 TCPU     1787.49
 CHARGE NORMALIZATION FACTOR   1.00000000
 TOTAL ATOMIC CHARGES:
   4.5136526   4.5129729   4.5127790   4.5125612   4.5125405   4.5130509
   0.8778183   0.8779485   0.8781866   0.8782740   0.8776197   0.8777853
   0.8776499   0.8777035   0.8781830   0.8783205   0.8777950   0.8778684
   5.9180809   6.1620558   6.1621448   6.1634882   6.1637518   5.9189090
   5.9186936   6.1627265   6.1630741   6.1628613   6.1630008   5.9194863
   5.9183157   6.1634531   6.1638332   6.1620182   6.1622289   5.9187509
   8.4864089   8.4866154   8.4869928   8.4865407   8.4871045   8.4867548
 TTTTTTTTTTTTTTTTTTTTTTTTTTTTTT MOQGAD      TELAPSE       65.75 TCPU     1787.53
 TTTTTTTTTTTTTTTTTTTTTTTTTTTTTT SHELLXN     TELAPSE       71.34 TCPU     1965.55
 TTTTTTTTTTTTTTTTTTTTTTTTTTTTTT MONMO3      TELAPSE       71.48 TCPU     1969.89
 NUMERICALLY INTEGRATED DENSITY    197.9999581159
 TTTTTTTTTTTTTTTTTTTTTTTTTTTTTT NUMDFT      TELAPSE       71.97 TCPU     1985.56
 CYC   8 ETOT(AU) -1.289103567486E+03 DETOT -5.34E-07 tst  1.36E-08 PX  1.46E-04
 TTTTTTTTTTTTTTTTTTTTTTTTTTTTTT DIIS        TELAPSE       72.05 TCPU     1988.14
 DIIS TEST: 0.67242E-07 AT SCF   CYCLE   8 - DIIS ACTIVE - HISTORY:     8 CYCLES
 TTTTTTTTTTTTTTTTTTTTTTTTTTTTTT FDIK        TELAPSE       72.55 TCPU     2004.22
 INSULATING STATE
 TOP OF VALENCE BANDS -    BAND     99; K    1; EIG -2.4261369E-01 AU
 BOTTOM OF VIRTUAL BANDS - BAND    100; K   17; EIG -8.4416640E-02 AU
 INDIRECT ENERGY BAND GAP:   4.3048 eV
 BOTTOM OF VIRTUAL BANDS - BAND    100; K    1; EIG -7.5434977E-02 AU
 TTTTTTTTTTTTTTTTTTTTTTTTTTTTTT PDIG        TELAPSE       72.83 TCPU     2010.35
 CHARGE NORMALIZATION FACTOR   1.00000000
 TOTAL ATOMIC CHARGES:
   4.5136560   4.5129456   4.5127507   4.5125275   4.5125088   4.5130563
   0.8777952   0.8779403   0.8781727   0.8782593   0.8776090   0.8777681
   0.8776330   0.8776927   0.8781730   0.8783020   0.8777766   0.8778559
   5.9180560   6.1621641   6.1621447   6.1635616   6.1638449   5.9187846
   5.9186656   6.1627876   6.1631409   6.1629530   6.1630355   5.9194019
   5.9182442   6.1635072   6.1639459   6.1621017   6.1622521   5.9186732
   8.4863551   8.4865649   8.4870505   8.4864691   8.4871864   8.4866864
 TTTTTTTTTTTTTTTTTTTTTTTTTTTTTT MOQGAD      TELAPSE       72.87 TCPU     2010.39
 TTTTTTTTTTTTTTTTTTTTTTTTTTTTTT SHELLXN     TELAPSE       78.46 TCPU     2188.47
 +++ ENERGIES IN A.U. +++
 ::: EXT EL-POLE                                  -1.1088898439975E+03
 ::: EXT EL-SPHEROPOLE                             1.2696294039871E+01
 ::: BIELET ZONE E-E                               2.0098269156543E+03
 ::: TOTAL E-E                                     9.1363336569660E+02
 ::: TOTAL E-N + N-E                              -3.6597716920519E+03
 ::: TOTAL N-N                                     3.1080853321868E+02
 ::: KINETIC ENERGY                                1.2799439914330E+03
 ::: PSEUDO TOTAL   ENERGY                        -1.1553858017036E+03
 ::: VIRIAL COEFFICIENT                            1.0511463334783E+00
 TTTTTTTTTTTTTTTTTTTTTTTTTTTTTT MONMO3      TELAPSE       78.59 TCPU     2192.81
 NUMERICALLY INTEGRATED DENSITY    197.9999581155
 EXCHANGE ENERGY: -0.126028681065E+03  CORRELATION ENERGY: -0.768908481279E+01
 TTTTTTTTTTTTTTTTTTTTTTTTTTTTTT NUMDFT      TELAPSE       79.08 TCPU     2208.51
 CYC   9 ETOT(AU) -1.289103567581E+03 DETOT -9.51E-08 tst  3.65E-10 PX  1.46E-04

 == SCF ENDED - CONVERGENCE ON ENERGY      E(AU) -1.2891035675810E+03 CYCLES   9


 ENERGY EXPRESSION=HARTREE+FOCK EXCH*0.00000+(HSESOL     EXCH)*1.00000+PBESOL     CORR


 TOTAL ENERGY(DFT)(AU)(  9) -1.2891035675810E+03 DE-9.5E-08 tester 3.6E-10
 TTTTTTTTTTTTTTTTTTTTTTTTTTTTTT EDFT        TELAPSE       79.08 TCPU     2208.51
 
 INFORMATION **** DFTD3 ENERGY **** CALCULATE DFTD3 ENERGY

           DFT-D V3(BJ)
 DF                                         hsesol3c  
 parameters
 s6       :    1.0000
 s8       :    0.0000
 a1       :    0.5196
 a2       :    4.9385
 k1 k3    :   16.0000   -4.0000
 Cutoff   :   50.2022
 CN-Cutoff:   21.1671
 ABC-Cutoff:   21.1671
 
 Edisp /kcal,au:   -22.7713 -0.03628844

 E6    /kcal :   -24.1453
 E8    /kcal :     0.0000
 E6(ABC) "   :   1.373958
 
 INFORMATION **** DFTD3 ENERGY **** NORMAL TERMINATION OF DFTD3 MODULE

 GCP ENERGY CALCULATION
  level        hsesol3c            basis:hsesol3c
  Nbf            474
  Atoms           42

  Parameters: 
  sigma     1.0000
  eta       1.4281
  alpha     0.2936
  beta      1.9467

  dmp_scal      4.0000
  dmp_exp       6.0000
 cutoffs: 
   distance [bohr] 60.0
   noise    [a.u.] 2.2E-16
 SR-damping   T
 ** gCP correction **
  Egcp:        0.0829206487 / (a.u.) ||      52.0335 / (kcal/mol)
 INFORMATION **** GCP **** NORMAL TERMINATION OF GCP MODULE

 *******************************************************************************

 DFT-D3-GCP DISPERSION AND COUNTERPOISE CORRECTION

 D3 DISPERSION ENERGY (AU)      -3.6288438213950E-02
 GCP ENERGY (AU)                 8.2920648682322E-02
 TOTAL ENERGY + DISP + GCP (AU) -1.2890569353705E+03

 *******************************************************************************

 EIGENVECTORS IN FORTRAN UNIT 10
 TTTTTTTTTTTTTTTTTTTTTTTTTTTTTT END         TELAPSE       80.06 TCPU     2215.47
 EEEEEEEEEE TERMINATION  DATE 19 02 2026 TIME 19:22:46.1
