 Default number of threads is:           32

         
 *******************************************************************************
 *                                                                             *
 *                               CRYSTAL23                                     *
 *                      public : 1.0.1 - October 2022                          *
 *                       HTTP://WWW.CRYSTAL.UNITO.IT                           *
 *                                                                             *
 *                              MAIN AUTHORS                                   *
 *                                                                             *
 *  R. DOVESI(1,11), V.R. SAUNDERS(2), C. ROETTI(1,11), R. ORLANDO(1,11),      *
 *  C.M. ZICOVICH-WILSON(1,3), F. PASCALE(4), B. CIVALLERI(1,11),              *
 *  K. DOLL(5), N.M. HARRISON(6), I.J. BUSH(7), Ph. D'ARCO(8),                 *
 *  M. LLUNELL(9), M. CAUSA'(10), Y. NOEL(8), L. MASCHIO(1,11), A. ERBA(1,11)  *
 *  M. RE'RAT(14), S. CASASSA(1,11), B.G. SEARLE(2), J.K. DESMARAIS(1)         *
 *                                                                             *
 *        CONTRIBUTIONS TO THE CODE HAVE ALSO BEEN GIVEN BY                    *
 *                                                                             *
 *  M. FERRABONE(1,11), M. DE LA PIERRE(1,11), M. FERRERO(1,11),               *
 *  J. BAIMA(1,11), E. ALBANESE(1,11), M.F. PEINTINGER(12), R. BAST(13),       *
 *  B. KIRTMAN(15), V. LACIVITA(1,11), R. DEMICHELIS(1,16)                     *
 *  G. BRANDEBURG(17), S. SALUSTRO(1,11), G. SANSONE(1,11)                     *
 *  M.T. RUGGIERO(18), L.E. DAGA(1), L. DONA'(1), A. COSSARD(1)                *
 *                                                                             *
 * (1) THEORETICAL CHEMISTRY GROUP - UNIVERSITA' DI TORINO - TORINO (ITALY)    *
 * (2) SCIENTIFIC COMPUTING DEPARTMENT - STFC DARESBURY (UK)                   *
 * (3) UNIVERSIDAD AUTONOMA DEL ESTADO DE MORELOS - CUERNAVACA (MEXICO)        *
 * (4) UNIVERSITE' DE LORRAINE - NANCY (FRANCE)                                *
 * (5) UNIVERSITAET STUTTGART- STUTTGART (GERMANY)                             *
 * (6) IMPERIAL COLLEGE - LONDON (UK)                                          *
 * (7) SCIENTIFIC COMPUTING DEPARTMENT - STFC RAL (UK)                         *
 * (8) UPMC - SORBONNE UNIVERSITES - PARIS (FRANCE)                            *
 * (9) UNIVERSIDAD DE BARCELONA - BARCELONA (SPAIN)                            *
 *(10) UNIVERSITA' DI NAPOLI "FEDERICO II" - NAPOLI (ITALY)                    *
 *(11) NIS - NANOSTRUCTURED INTERFACES AND SURFACES - TORINO (ITALY)           *
 *(12) MPI FUER CHEMISCHE ENERGIEKONVERSION - MUELHEIM AN DER RUHR (GERMANY)   *
 *(13) UNIVERSITY OF TROMSO - TROMSO (NORWAY)                                  *
 *(14) UNIVERSITE' DE PAU ET DES PAYS DE L'ADOUR - PAU (FRANCE)                *
 *(15) UNIVERSITY OF CALIFORNIA SANTA BARBARA - SANTA BARBARA (USA)            *
 *(16) CURTIN UNIVERSITY - PERTH (AUSTRALIA)                                   *
 *(17) UNIVERSITY COLLEGE LONDON - LONDON (UK)                                 *
 *(18) UNIVERSITY OF VERMONT - BURLINGTON (USA)                                *
 *                                                                             *
 *******************************************************************************
 EEEEEEEEEE STARTING  DATE 19 02 2026 TIME 17:48:53.0
 cof-1_z30_L087_incl                                                             

 CRYSTAL CALCULATION
 (INPUT ACCORDING TO THE INTERNATIONAL TABLES FOR X-RAY CRYSTALLOGRAPHY)
 CRYSTAL FAMILY                       :  TRICLINIC   
 CRYSTAL CLASS  (GROTH - 1921)        :  TRICLINIC PEDIAL                     

 SPACE GROUP (NONCENTROSYMMETRIC)     :  P 1             

 LATTICE PARAMETERS  (ANGSTROMS AND DEGREES) - CONVENTIONAL CELL
        A           B           C        ALPHA        BETA       GAMMA
    15.02361    15.02392     9.17862    35.06583    89.99998   119.99596


 NUMBER OF IRREDUCIBLE ATOMS IN THE CONVENTIONAL CELL:   42

 INPUT COORDINATES

 ATOM AT. N.              COORDINATES
   1   5     4.465012900000E-01 -1.070742700000E-01  5.015836400000E-01
   2   5     6.055569400000E-01  5.198538000000E-02  5.015836600000E-01
   3   5     4.476128000000E-01  5.419997000000E-02  4.982359800000E-01
   4   5     6.007599000000E-02  2.792407200000E-01  5.015836600000E-01
   5   5     2.191839700000E-01  2.792199600000E-01  5.015836500000E-01
   6   5     2.202800300000E-01  4.405909500000E-01  4.982359800000E-01
   7   1     7.381776200000E-01 -2.083547000000E-02  4.946432600000E-01
   8   1    -6.787774000000E-02  3.619954600000E-01  4.935819500000E-01
   9   1     7.385135900000E-01  2.651233400000E-01  4.934186200000E-01
  10   1    -6.773522000000E-02  7.670869000000E-02  4.934593600000E-01
  11   1     5.226012600000E-01 -2.398924000000E-01  5.053396400000E-01
  12   1     1.401448300000E-01  5.658332000000E-01  5.064010100000E-01
  13   1     2.370306200000E-01 -2.406630800000E-01  5.065644500000E-01
  14   1     4.254865100000E-01  5.656616000000E-01  5.065234400000E-01
  15   1     5.262067200000E-01  2.642886500000E-01  4.946433200000E-01
  16   1     1.444495900000E-01  7.655140000000E-02  4.935818800000E-01
  17   1     2.413827900000E-01 -2.012574000000E-02  4.934184800000E-01
  18   1     4.298194400000E-01  3.619816000000E-01  4.934594800000E-01
  19   6     7.258676700000E-01  1.138646600000E-01  4.981134900000E-01
  20   6     7.815686700000E-01  6.291122000000E-02  4.948065800000E-01
  21   6    -1.114371000000E-01  2.775013500000E-01  4.945209100000E-01
  22   6     7.813411400000E-01  2.234366800000E-01  4.953782300000E-01
  23   6    -1.109498100000E-01  1.174642500000E-01  4.931735700000E-01
  24   6    -5.708868000000E-02  2.237529300000E-01  4.954190200000E-01
  25   6     3.867649100000E-01 -2.264145700000E-01  5.018694400000E-01
  26   6     4.388011600000E-01 -2.832316800000E-01  5.051763000000E-01
  27   6     2.243267300000E-01  6.096850200000E-01  5.054620700000E-01
  28   6     2.781013800000E-01 -2.828037400000E-01  5.046047800000E-01
  29   6     3.847958800000E-01  6.087472800000E-01  5.068092800000E-01
  30   6     2.777553300000E-01  5.556127100000E-01  5.045639000000E-01
  31   6     3.880222300000E-01  1.137955200000E-01  4.981134900000E-01
  32   6     4.422897600000E-01  2.237513300000E-01  4.948066500000E-01
  33   6     2.279981700000E-01  1.164881200000E-01  4.945208400000E-01
  34   6     2.811763200000E-01  6.243454000000E-02  4.953781400000E-01
  35   6     3.893667800000E-01  2.783122200000E-01  4.931736600000E-01
  36   6     2.808354100000E-01  2.236755300000E-01  4.954190200000E-01
  37   8     3.943738600000E-01 -5.238883000000E-02  4.991341200000E-01
  38   8     5.509648400000E-01 -5.708970000000E-02  5.061969000000E-01
  39   8     5.545140200000E-01  1.089590800000E-01  4.955415300000E-01
  40   8     1.139616800000E-01  3.868916200000E-01  4.991341600000E-01
  41   8     1.116271100000E-01  2.232275800000E-01  5.061969000000E-01
  42   8     2.740984500000E-01  3.892710600000E-01  4.955415000000E-01

 *******************************************************************************

 << INFORMATION >>: FROM NOW ON, ALL COORDINATES REFER TO THE PRIMITIVE CELL

 *******************************************************************************

 LATTICE PARAMETERS  (ANGSTROMS AND DEGREES) - PRIMITIVE CELL
       A          B          C        ALPHA      BETA     GAMMA        VOLUME
   15.02361   15.02392    9.17862    35.06583  89.99998 119.99596    586.454750

 COORDINATES OF THE EQUIVALENT ATOMS (FRACTIONAL UNITS)

 N. ATOM EQUIV AT. N.          X                  Y                  Z

   1   1   1    5 B     4.46501290000E-01 -1.07074270000E-01 -4.98416360000E-01

   2   2   1    5 B    -3.94443060000E-01  5.19853800000E-02 -4.98416340000E-01

   3   3   1    5 B     4.47612800000E-01  5.41999700000E-02  4.98235980000E-01

   4   4   1    5 B     6.00759900000E-02  2.79240720000E-01 -4.98416340000E-01

   5   5   1    5 B     2.19183970000E-01  2.79219960000E-01 -4.98416350000E-01

   6   6   1    5 B     2.20280030000E-01  4.40590950000E-01  4.98235980000E-01

   7   7   1    1 H    -2.61822380000E-01 -2.08354700000E-02  4.94643260000E-01

   8   8   1    1 H    -6.78777400000E-02  3.61995460000E-01  4.93581950000E-01

   9   9   1    1 H    -2.61486410000E-01  2.65123340000E-01  4.93418620000E-01

  10  10   1    1 H    -6.77352200000E-02  7.67086900000E-02  4.93459360000E-01

  11  11   1    1 H    -4.77398740000E-01 -2.39892400000E-01 -4.94660360000E-01

  12  12   1    1 H     1.40144830000E-01 -4.34166800000E-01 -4.93598990000E-01

  13  13   1    1 H     2.37030620000E-01 -2.40663080000E-01 -4.93435550000E-01

  14  14   1    1 H     4.25486510000E-01 -4.34338400000E-01 -4.93476560000E-01

  15  15   1    1 H    -4.73793280000E-01  2.64288650000E-01  4.94643320000E-01

  16  16   1    1 H     1.44449590000E-01  7.65514000000E-02  4.93581880000E-01

  17  17   1    1 H     2.41382790000E-01 -2.01257400000E-02  4.93418480000E-01

  18  18   1    1 H     4.29819440000E-01  3.61981600000E-01  4.93459480000E-01

  19  19   1    6 C    -2.74132330000E-01  1.13864660000E-01  4.98113490000E-01

  20  20   1    6 C    -2.18431330000E-01  6.29112200000E-02  4.94806580000E-01

  21  21   1    6 C    -1.11437100000E-01  2.77501350000E-01  4.94520910000E-01

  22  22   1    6 C    -2.18658860000E-01  2.23436680000E-01  4.95378230000E-01

  23  23   1    6 C    -1.10949810000E-01  1.17464250000E-01  4.93173570000E-01

  24  24   1    6 C    -5.70886800000E-02  2.23752930000E-01  4.95419020000E-01

  25  25   1    6 C     3.86764910000E-01 -2.26414570000E-01 -4.98130560000E-01

  26  26   1    6 C     4.38801160000E-01 -2.83231680000E-01 -4.94823700000E-01

  27  27   1    6 C     2.24326730000E-01 -3.90314980000E-01 -4.94537930000E-01

  28  28   1    6 C     2.78101380000E-01 -2.82803740000E-01 -4.95395220000E-01

  29  29   1    6 C     3.84795880000E-01 -3.91252720000E-01 -4.93190720000E-01

  30  30   1    6 C     2.77755330000E-01 -4.44387290000E-01 -4.95436100000E-01

  31  31   1    6 C     3.88022230000E-01  1.13795520000E-01  4.98113490000E-01

  32  32   1    6 C     4.42289760000E-01  2.23751330000E-01  4.94806650000E-01

  33  33   1    6 C     2.27998170000E-01  1.16488120000E-01  4.94520840000E-01

  34  34   1    6 C     2.81176320000E-01  6.24345400000E-02  4.95378140000E-01

  35  35   1    6 C     3.89366780000E-01  2.78312220000E-01  4.93173660000E-01

  36  36   1    6 C     2.80835410000E-01  2.23675530000E-01  4.95419020000E-01

  37  37   1    8 O     3.94373860000E-01 -5.23888300000E-02  4.99134120000E-01

  38  38   1    8 O    -4.49035160000E-01 -5.70897000000E-02 -4.93803100000E-01

  39  39   1    8 O    -4.45485980000E-01  1.08959080000E-01  4.95541530000E-01

  40  40   1    8 O     1.13961680000E-01  3.86891620000E-01  4.99134160000E-01

  41  41   1    8 O     1.11627110000E-01  2.23227580000E-01 -4.93803100000E-01

  42  42   1    8 O     2.74098450000E-01  3.89271060000E-01  4.95541500000E-01

 NUMBER OF SYMMETRY OPERATORS         :    1
 *******************************************************************************
 * GEOMETRY EDITING - INPUT COORDINATES ARE GIVEN IN ANGSTROM         
 *******************************************************************************

 GCALCO - MAX INDICES DIRECT LATTICE VECTOR     9    15    22
 NO.OF VECTORS CREATED 6999 STARS 3499 RMAX   214.96796 BOHR

 GEOMETRY FOR WAVE FUNCTION - DIMENSIONALITY OF THE SYSTEM    3
 (NON PERIODIC DIRECTION: LATTICE PARAMETER FORMALLY SET TO 500)
 *******************************************************************************
 LATTICE PARAMETERS (ANGSTROMS AND DEGREES) - BOHR = 0.5291772083 ANGSTROM
 PRIMITIVE CELL - CENTRING CODE 1/0 VOLUME=   586.454750 - DENSITY  1.105 g/cm^3
         A              B              C           ALPHA      BETA       GAMMA 
    15.02361100    15.02391600     9.17861700    35.065832  89.999982 119.995964
 *******************************************************************************
 ATOMS IN THE ASYMMETRIC UNIT   42 - ATOMS IN THE UNIT CELL:   42
     ATOM                 X/A                 Y/B                 Z/C    
 *******************************************************************************
      1 T   5 B     4.465012900000E-01 -1.070742700000E-01 -4.984163600000E-01
      2 T   5 B    -3.944430600000E-01  5.198538000000E-02 -4.984163400000E-01
      3 T   5 B     4.476128000000E-01  5.419997000000E-02  4.982359800000E-01
      4 T   5 B     6.007599000000E-02  2.792407200000E-01 -4.984163400000E-01
      5 T   5 B     2.191839700000E-01  2.792199600000E-01 -4.984163500000E-01
      6 T   5 B     2.202800300000E-01  4.405909500000E-01  4.982359800000E-01
      7 T   1 H    -2.618223800000E-01 -2.083547000000E-02  4.946432600000E-01
      8 T   1 H    -6.787774000000E-02  3.619954600000E-01  4.935819500000E-01
      9 T   1 H    -2.614864100000E-01  2.651233400000E-01  4.934186200000E-01
     10 T   1 H    -6.773522000000E-02  7.670869000000E-02  4.934593600000E-01
     11 T   1 H    -4.773987400000E-01 -2.398924000000E-01 -4.946603600000E-01
     12 T   1 H     1.401448300000E-01 -4.341668000000E-01 -4.935989900000E-01
     13 T   1 H     2.370306200000E-01 -2.406630800000E-01 -4.934355500000E-01
     14 T   1 H     4.254865100000E-01 -4.343384000000E-01 -4.934765600000E-01
     15 T   1 H    -4.737932800000E-01  2.642886500000E-01  4.946433200000E-01
     16 T   1 H     1.444495900000E-01  7.655140000000E-02  4.935818800000E-01
     17 T   1 H     2.413827900000E-01 -2.012574000000E-02  4.934184800000E-01
     18 T   1 H     4.298194400000E-01  3.619816000000E-01  4.934594800000E-01
     19 T   6 C    -2.741323300000E-01  1.138646600000E-01  4.981134900000E-01
     20 T   6 C    -2.184313300000E-01  6.291122000000E-02  4.948065800000E-01
     21 T   6 C    -1.114371000000E-01  2.775013500000E-01  4.945209100000E-01
     22 T   6 C    -2.186588600000E-01  2.234366800000E-01  4.953782300000E-01
     23 T   6 C    -1.109498100000E-01  1.174642500000E-01  4.931735700000E-01
     24 T   6 C    -5.708868000000E-02  2.237529300000E-01  4.954190200000E-01
     25 T   6 C     3.867649100000E-01 -2.264145700000E-01 -4.981305600000E-01
     26 T   6 C     4.388011600000E-01 -2.832316800000E-01 -4.948237000000E-01
     27 T   6 C     2.243267300000E-01 -3.903149800000E-01 -4.945379300000E-01
     28 T   6 C     2.781013800000E-01 -2.828037400000E-01 -4.953952200000E-01
     29 T   6 C     3.847958800000E-01 -3.912527200000E-01 -4.931907200000E-01
     30 T   6 C     2.777553300000E-01 -4.443872900000E-01 -4.954361000000E-01
     31 T   6 C     3.880222300000E-01  1.137955200000E-01  4.981134900000E-01
     32 T   6 C     4.422897600000E-01  2.237513300000E-01  4.948066500000E-01
     33 T   6 C     2.279981700000E-01  1.164881200000E-01  4.945208400000E-01
     34 T   6 C     2.811763200000E-01  6.243454000000E-02  4.953781400000E-01
     35 T   6 C     3.893667800000E-01  2.783122200000E-01  4.931736600000E-01
     36 T   6 C     2.808354100000E-01  2.236755300000E-01  4.954190200000E-01
     37 T   8 O     3.943738600000E-01 -5.238883000000E-02  4.991341200000E-01
     38 T   8 O    -4.490351600000E-01 -5.708970000000E-02 -4.938031000000E-01
     39 T   8 O    -4.454859800000E-01  1.089590800000E-01  4.955415300000E-01
     40 T   8 O     1.139616800000E-01  3.868916200000E-01  4.991341600000E-01
     41 T   8 O     1.116271100000E-01  2.232275800000E-01 -4.938031000000E-01
     42 T   8 O     2.740984500000E-01  3.892710600000E-01  4.955415000000E-01

 T = ATOM BELONGING TO THE ASYMMETRIC UNIT

 ****    1 SYMMOPS - TRANSLATORS IN FRACTIONAL UNITS
 **** MATRICES AND TRANSLATORS IN THE CRYSTALLOGRAPHIC REFERENCE FRAME
   V INV                    ROTATION MATRICES                   TRANSLATORS
   1   1  1.00 -0.00  0.00  0.00  1.00  0.00 -0.00  0.00  1.00  0.00  0.00  0.00

 DIRECT LATTICE VECTORS CARTESIAN COMPONENTS (ANGSTROM)
          X                    Y                    Z
   0.130113578931E+02  -0.751088897922E+01   0.000000000000E+00
   0.000000000000E+00   0.150239160000E+02   0.000000000000E+00
   0.433671609008E+01   0.751262892628E+01   0.300005170002E+01


 CARTESIAN COORDINATES - PRIMITIVE CELL
 *******************************************************************************
 *      ATOM          X(ANGSTROM)         Y(ANGSTROM)         Z(ANGSTROM)
 *******************************************************************************
    1     5 B    -6.886182541502E-01 -1.195426546251E+00 -4.495326548157E+00
    2     5 B     1.380911819647E+00 -3.769040757867E-04 -4.495326488156E+00
    3     5 B    -6.898834735401E-01  1.194989690959E+00  4.494785398831E+00
    4     5 B    -1.379819954567E+00 -3.519833600143E-04 -1.495274788135E+00
    5     5 B     6.903908734869E-01 -1.195706328470E+00 -1.495274818136E+00
    6     5 B     6.901342080658E-01  1.195335682675E+00 -1.505318001210E+00
    7     1 H    -1.261537306100E+00  5.369559740618E+00  1.483955353067E+00
    8     1 H    -3.079372873854E+00  2.143880661503E+00 -1.519280331824E+00
    9     1 H    -1.262476796181E+00 -5.369858817741E+00  1.480281369753E+00
   10     1 H    -3.078050133153E+00 -2.144235231966E+00 -1.519648108162E+00
   11     1 H    -4.020091316091E+00  3.777994865378E+00  1.516045046070E+00
   12     1 H    -3.171241419888E-01  3.740192157415E+00 -1.480822489078E+00
   13     1 H     5.280916429411E+00 -1.590381829623E+00  1.519719539392E+00
   14     1 H     3.396089522448E+00  1.595364144966E+00 -1.480455192748E+00
   15     1 H    -4.019566288710E+00 -3.778585083446E+00  1.483955533070E+00
   16     1 H    -3.167062963169E-01 -3.739374447404E+00 -1.519280541827E+00
   17     1 H     5.280533731274E+00  1.591503181226E+00  1.480280949746E+00
   18     1 H     3.395812139871E+00 -1.595395905887E+00 -1.519647748155E+00
   19     6 C     2.930059021162E+00  5.253232719908E-04  4.494417922498E+00
   20     6 C    -5.032968642803E+00 -1.209544346507E+00 -1.515606378510E+00
   21     6 C    -3.642067293467E+00  1.208671825390E+00 -1.516463403279E+00
   22     6 C    -5.033450033312E+00  1.208180227290E+00 -1.513891398956E+00
   23     6 C    -3.641570019936E+00 -1.209494168441E+00 -1.520505492937E+00
   24     6 C    -2.931025701837E+00 -2.977034732047E-04 -1.513769026847E+00
   25     6 C    -1.464630240107E+00 -2.537564761318E+00 -4.494469133381E+00
   26     6 C     3.563489035105E+00  3.755453392402E+00 -1.484496682395E+00
   27     6 C     7.741247708230E-01  3.759683404779E+00 -1.483639357621E+00
   28     6 C     1.470088164210E+00  4.964587315896E+00 -1.486211271943E+00
   29     6 C     2.867888779551E+00  2.550449996365E+00 -1.479597657970E+00
   30     6 C     1.465408298857E+00  2.539261660575E+00 -1.486333914057E+00
   31     6 C    -1.465768911215E+00  2.537006161694E+00  4.494417922498E+00
   32     6 C     3.563910230248E+00 -3.755698271769E+00 -1.515606168507E+00
   33     6 C     7.744461824597E-01 -3.759838571503E+00 -1.516463613283E+00
   34     6 C     1.470083990904E+00 -4.964909620914E+00 -1.513891668961E+00
   35     6 C     2.868228582692E+00 -2.550749464204E+00 -1.520505222932E+00
   36     6 C     1.465825573839E+00 -2.539570877964E+00 -1.513769026847E+00
   37     8 O    -1.378699397538E+00  2.276734736510E-04  4.497479865265E+00
   38     8 O     6.906007805488E-01 -1.194418981179E+00 -4.481486529651E+00
   39     8 O     6.893614944153E-01  1.194520361661E+00  4.486701909528E+00
   40     8 O    -6.893167427256E-01  1.193854475851E+00 -1.502623414774E+00
   41     8 O    -6.890635703240E-01 -1.194425872423E+00 -1.481434829630E+00
   42     8 O     1.378699737154E+00 -1.568398605619E-04 -1.513401580515E+00

 *******************************************************************************
 STARTING BASIS SET HANDLING 
 *******************************************************************************

 Loading internal basis set: SOLDEF2MSVP         

 Please cite in your publication:
 L. Dona', J. G. Brandenburg and B. Civalleri, J. Chem. Phys., 151, 121101 (2019
 )                                                                              
                                                                                
                    

 *******************************************************************************
 LOCAL ATOMIC FUNCTIONS BASIS SET
 *******************************************************************************
   ATOM   X(AU)   Y(AU)   Z(AU)  N. TYPE  EXPONENT  S COEF   P COEF   D/F/G COEF
 *******************************************************************************
   1 B   -1.301  -2.259  -8.495
                                  1 S  
                                         2.410E+03 1.755E-03 0.000E+00 0.000E+00
                                         3.619E+02 1.344E-02 0.000E+00 0.000E+00
                                         8.231E+01 6.637E-02 0.000E+00 0.000E+00
                                         2.311E+01 2.303E-01 0.000E+00 0.000E+00
                                         7.252E+00 5.150E-01 0.000E+00 0.000E+00
                                  2 S  
                                         2.367E+00 1.000E+00 0.000E+00 0.000E+00
                                  3 S  
                                         5.533E-01 1.000E+00 0.000E+00 0.000E+00
                                  4 S  
                                         1.716E-01 1.000E+00 0.000E+00 0.000E+00
                           5-     7 P  
                                         6.002E+00 0.000E+00-3.555E-02 0.000E+00
                                         1.240E+00 0.000E+00-1.983E-01 0.000E+00
                                         3.367E-01 0.000E+00-5.048E-01 0.000E+00
                           8-    10 P  
                                         1.256E-01 0.000E+00 1.000E+00 0.000E+00
                          11-    15 D  
                                         8.880E-01 0.000E+00 0.000E+00 1.000E+00
   2 B    2.610  -0.001  -8.495
   3 B   -1.304   2.258   8.494
   4 B   -2.607  -0.001  -2.826
   5 B    1.305  -2.260  -2.826
   6 B    1.304   2.259  -2.845
   7 H   -2.384  10.147   2.804
                                 91 S  
                                         1.874E+01 1.968E-02 0.000E+00 0.000E+00
                                         2.826E+00 1.380E-01 0.000E+00 0.000E+00
                                         6.401E-01 4.783E-01 0.000E+00 0.000E+00
                                 92 S  
                                         1.756E-01 1.000E+00 0.000E+00 0.000E+00
   8 H   -5.819   4.051  -2.871
   9 H   -2.386 -10.148   2.797
  10 H   -5.817  -4.052  -2.872
  11 H   -7.597   7.139   2.865
  12 H   -0.599   7.068  -2.798
  13 H    9.979  -3.005   2.872
  14 H    6.418   3.015  -2.798
  15 H   -7.596  -7.140   2.804
  16 H   -0.598  -7.066  -2.871
  17 H    9.979   3.008   2.797
  18 H    6.417  -3.015  -2.872
  19 C    5.537   0.001   8.493
                                115 S  
                                         3.624E+03 1.634E-03 0.000E+00 0.000E+00
                                         5.440E+02 1.252E-02 0.000E+00 0.000E+00
                                         1.237E+02 6.211E-02 0.000E+00 0.000E+00
                                         3.476E+01 2.182E-01 0.000E+00 0.000E+00
                                         1.093E+01 4.980E-01 0.000E+00 0.000E+00
                                116 S  
                                         3.574E+00 1.000E+00 0.000E+00 0.000E+00
                                117 S  
                                         7.742E-01 1.000E+00 0.000E+00 0.000E+00
                                118 S  
                                         2.330E-01 1.000E+00 0.000E+00 0.000E+00
                         119-   121 P  
                                         9.443E+00 0.000E+00 3.790E-02 0.000E+00
                                         2.002E+00 0.000E+00 2.082E-01 0.000E+00
                                         5.463E-01 0.000E+00 5.047E-01 0.000E+00
                         122-   124 P  
                                         1.820E-01 0.000E+00 1.000E+00 0.000E+00
                         125-   129 D  
                                         8.880E-01 0.000E+00 0.000E+00 1.000E+00
  20 C   -9.511  -2.286  -2.864
  21 C   -6.883   2.284  -2.866
  22 C   -9.512   2.283  -2.861
  23 C   -6.882  -2.286  -2.873
  24 C   -5.539  -0.001  -2.861
  25 C   -2.768  -4.795  -8.493
  26 C    6.734   7.097  -2.805
  27 C    1.463   7.105  -2.804
  28 C    2.778   9.382  -2.809
  29 C    5.420   4.820  -2.796
  30 C    2.769   4.799  -2.809
  31 C   -2.770   4.794   8.493
  32 C    6.735  -7.097  -2.864
  33 C    1.463  -7.105  -2.866
  34 C    2.778  -9.382  -2.861
  35 C    5.420  -4.820  -2.873
  36 C    2.770  -4.799  -2.861
  37 O   -2.605   0.000   8.499
                                385 S  
                                         6.773E+03 1.727E-03 0.000E+00 0.000E+00
                                         1.017E+03 1.325E-02 0.000E+00 0.000E+00
                                         2.313E+02 6.603E-02 0.000E+00 0.000E+00
                                         6.501E+01 2.353E-01 0.000E+00 0.000E+00
                                         2.050E+01 5.498E-01 0.000E+00 0.000E+00
                                386 S  
                                         6.716E+00 1.000E+00 0.000E+00 0.000E+00
                                387 S  
                                         1.147E+00 1.000E+00 0.000E+00 0.000E+00
                                388 S  
                                         3.342E-01 1.000E+00 0.000E+00 0.000E+00
                         389-   391 P  
                                         1.769E+01 0.000E+00 4.359E-02 0.000E+00
                                         3.854E+00 0.000E+00 2.318E-01 0.000E+00
                                         1.047E+00 0.000E+00 5.146E-01 0.000E+00
                         392-   394 P  
                                         2.759E-01 0.000E+00 1.000E+00 0.000E+00
                         395-   399 D  
                                         8.000E-01 0.000E+00 0.000E+00 1.000E+00
  38 O    1.305  -2.257  -8.469
  39 O    1.303   2.257   8.479
  40 O   -1.303   2.256  -2.840
  41 O   -1.302  -2.257  -2.800
  42 O    2.605  -0.000  -2.860

 *******************************************************************************
 FINISHED BASIS SET HANDLING 
 *******************************************************************************

 INFORMATION **** SET_MPP **** PCRYSTAL CALCULATION
 INFORMATION **** READM2 **** NEW DEFAULT: FOCK/KS MATRIX MIXING SET TO 30 %
 INFORMATION **** READM2 **** NEW DEFAULT: FULL DIRECT SCF MODE
 INFORMATION **** READM2 **** NEW DEFAULT: COULOMB BIPOLAR BUFFER SET TO 32 Mb
 INFORMATION **** READM2 **** NEW DEFAULT: EXCHANGE BIPOLAR BUFFER SET TO 32 Mb

 *******************************************************************************
 NEW DEFAULT: DFT INTEGRATION GRID INCREASED TO XLGRID
 NEW DEFAULT: DIIS ACCELERATOR ACTIVE
 USE KEYWORD NODIIS TO TURN IT OFF
 *******************************************************************************

 WARNING **** RDDFTP **** HSEsol-HJS ACTIVE
 RANGE SEPARATION - OMEGA:   0.110000000000000     
 WARNING **** RDDFTP **** HSEsol-3c has to be combined with sol-def2-mSVP basis set
 *******************************************************************************
 N. OF ATOMS PER CELL        42  COULOMB OVERLAP TOL         (T1) 10**   -6
 NUMBER OF SHELLS           234  COULOMB PENETRATION TOL     (T2) 10**   -6
 NUMBER OF AO               474  EXCHANGE OVERLAP TOL        (T3) 10**   -6
 N. OF ELECTRONS PER CELL   198  EXCHANGE PSEUDO OVP (F(G))  (T4) 10**   -6
 CORE ELECTRONS PER CELL     60  EXCHANGE PSEUDO OVP (P(G))  (T5) 10**  -12
 N. OF SYMMETRY OPERATORS     1  POLE ORDER IN MONO ZONE                  4
 *******************************************************************************
 TYPE OF CALCULATION :  RESTRICTED CLOSED SHELL
 KOHN-SHAM HAMILTONIAN

 (EXCHANGE)[CORRELATION] FUNCTIONAL:(HSEsol GGA)[PBEsol]

 RANGE-SEPARATED HYBRID FUNCTIONAL 
 OMEGA (SHORT-RANGE)[LONG-RANGE]:(    0.1100)[    0.0000]

 HYBRID EXCHANGE - PERCENTAGE OF FOCK EXCHANGE    25.0000

 CAPPA:IS1  2;IS2  2;IS3  8; K PTS MONK NET  20; SYMMOPS:K SPACE   2;G SPACE   1

 *******************************************************************************
 MAX NUMBER OF SCF CYCLES      50  CONVERGENCE ON DELTAP        10**-16
 WEIGHT OF F(I) IN F(I+1)      30% CONVERGENCE ON ENERGY        10**- 6
 SHRINK. FACT.(MONKH.)    2  2  8  NUMBER OF K POINTS IN THE IBZ     20
 SHRINKING FACTOR(GILAT NET)    8  NUMBER OF K POINTS(GILAT NET)   1028
 *******************************************************************************
 *** K POINTS COORDINATES (OBLIQUE COORDINATES IN UNITS OF IS =  2)
   1-R(  0  0  0)   2-R(  1  0  0)   3-R(  0  1  0)   4-R(  1  1  0)
   5-C(  0  0  1)   6-C(  1  0  1)   7-C(  0  1  1)   8-C(  1  1  1)
   9-C(  0  0  2)  10-C(  1  0  2)  11-C(  0  1  2)  12-C(  1  1  2)
  13-C(  0  0  3)  14-C(  1  0  3)  15-C(  0  1  3)  16-C(  1  1  3)
  17-R(  0  0  4)  18-R(  1  0  4)  19-R(  0  1  4)  20-R(  1  1  4)

 DIRECT LATTICE VECTORS COMPON. (A.U.)     RECIP. LATTICE VECTORS COMPON. (A.U.) 
        X            Y            Z              X            Y            Z
   24.5879030  -14.1935232    0.0000000      0.2555397    0.0000000   -0.3693947
    0.0000000   28.3910867    0.0000000      0.1277517    0.2213084   -0.7388641
    8.1952057   14.1968112    5.6692761      0.0000000    0.0000000    1.1082871

 DISK SPACE FOR EIGENVECTORS (FTN 10)     7189632 REALS

 SYMMETRY ADAPTION OF THE BLOCH FUNCTIONS DISABLED
 TTTTTTTTTTTTTTTTTTTTTTTTTTTTTT gordsh1     TELAPSE        0.05 TCPU        0.05

 MATRIX SIZE: P(G)  386712, F(G)   72309, P(G) IRR  195171, F(G) IRR   72789
 MAX G-VECTOR INDEX FOR 1- AND 2-ELECTRON INTEGRALS  53

 TTTTTTTTTTTTTTTTTTTTTTTTTTTTTT INPUT       TELAPSE        0.47 TCPU        0.47

 NEIGHBORS OF THE NON-EQUIVALENT ATOMS

 N = NUMBER OF NEIGHBORS AT DISTANCE R
    ATOM  N     R/ANG      R/AU   NEIGHBORS (ATOM LABELS AND CELL INDICES)
   1 B    1     1.3791     2.6061   37 O    1 2-3
   1 B    1     1.3793     2.6065   38 O    0 0 0
   1 B    1     1.5503     2.9297   25 C    0 0 0
   1 B    1     2.3895     4.5155    3 B    1 2-3
   1 B    1     2.3898     4.5160    2 B    0 0 0
   1 B    1     2.5632     4.8437   26 C    0 0-1

   2 B    1     1.3793     2.6065   39 O    1 2-3
   2 B    1     1.3793     2.6065   38 O    0 0 0
   2 B    1     1.5504     2.9298   19 C    1 2-3
   2 B    1     2.3895     4.5156    3 B    1 2-3
   2 B    1     2.3898     4.5160    1 B    0 0 0
   2 B    1     2.5634     4.8440   22 C    1 1-1

   3 B    1     1.3791     2.6061   37 O    0 0 0
   3 B    1     1.3793     2.6064   39 O    0 0 0
   3 B    1     1.5502     2.9294   31 C    0 0 0
   3 B    1     2.3895     4.5155    1 B   -1-2 3
   3 B    1     2.3895     4.5156    2 B   -1-2 3
   3 B    1     2.5629     4.8433   32 C   -1-1 2

   4 B    1     1.3795     2.6068   40 O    0 0 0
   4 B    1     1.3795     2.6070   41 O    0 0 0
   4 B    1     1.5513     2.9316   24 C    0 0 0
   4 B    1     2.3905     4.5174    6 B    0 0 0
   4 B    1     2.3905     4.5175    5 B    0 0 0
   4 B    1     2.5648     4.8468   23 C    0 0 0

   5 B    1     1.3795     2.6069   41 O    0 0 0
   5 B    1     1.3797     2.6072   42 O    0 0 0
   5 B    1     1.5516     2.9322   36 C    0 0 0
   5 B    1     2.3905     4.5175    4 B    0 0 0
   5 B    1     2.3911     4.5185    6 B    0 0 0
   5 B    1     2.5651     4.8473   35 C    0 0 0

   6 B    1     1.3795     2.6068   40 O    0 0 0
   6 B    1     1.3796     2.6071   42 O    0 0 0
   6 B    1     1.5516     2.9322   30 C    0 0 0
   6 B    1     2.3905     4.5174    4 B    0 0 0
   6 B    1     2.3911     4.5185    5 B    0 0 0
   6 B    1     2.5651     4.8473   29 C    0 0 0

   7 H    1     1.0913     2.0623   20 C    0 0 1
   7 H    1     2.1472     4.0576   19 C    0 1-1
   7 H    1     2.1680     4.0969   23 C    0 0 1
   7 H    1     2.5202     4.7625   10 H    0 0 1
   7 H    1     2.5676     4.8520   38 O   -1-1 2
   7 H    1     2.7321     5.1630    2 B   -1-1 2

   8 H    1     1.0914     2.0625   21 C    0 0 0
   8 H    1     2.1493     4.0616   24 C    0 0 0
   8 H    1     2.1666     4.0942   22 C    0 0 0
   8 H    1     2.5198     4.7618    9 H    0 1-1
   8 H    1     2.5720     4.8604   40 O    0 0 0
   8 H    1     2.7362     5.1707    4 B    0 0 0

   9 H    1     1.0914     2.0624   22 C    0-1 1
   9 H    1     2.1471     4.0575   19 C    0 0-1
   9 H    1     2.1680     4.0970   21 C    0-1 1
   9 H    1     2.5198     4.7618    8 H    0-1 1
   9 H    1     2.5665     4.8500   39 O    0 0-1
   9 H    1     2.7315     5.1618    2 B   -1-2 2

  10 H    1     1.0915     2.0626   23 C    0 0 0
  10 H    1     2.1490     4.0610   24 C    0 0 0
  10 H    1     2.1669     4.0948   20 C    0 0 0
  10 H    1     2.5202     4.7625    7 H    0 0-1
  10 H    1     2.5712     4.8588   41 O    0 0 0
  10 H    1     2.7351     5.1686    4 B    0 0 0

  11 H    1     1.0913     2.0623   26 C   -1-1 1
  11 H    1     2.1469     4.0571   25 C   -1-1 2
  11 H    1     2.1680     4.0968   29 C   -1-1 1
  11 H    1     2.5198     4.7617   14 H   -1-1 1
  11 H    1     2.5670     4.8510   38 O   -1-1 2
  11 H    1     2.7310     5.1609    1 B   -1-1 2

  12 H    1     1.0914     2.0625   27 C    0 0 0
  12 H    1     2.1493     4.0617   30 C    0 0 0
  12 H    1     2.1664     4.0939   28 C    0 0 0
  12 H    1     2.5192     4.7606   13 H    0 1-1
  12 H    1     2.5735     4.8632   40 O    0 0 0
  12 H    1     2.7371     5.1723    6 B    0 0 0

  13 H    1     1.0914     2.0624   28 C    0-1 1
  13 H    1     2.1475     4.0581   25 C    0-1 2
  13 H    1     2.1679     4.0967   27 C    0-1 1
  13 H    1     2.5192     4.7606   12 H    0-1 1
  13 H    1     2.5675     4.8519   37 O    1 1-1
  13 H    1     2.7328     5.1643    1 B    0-1 2

  14 H    1     1.0914     2.0625   29 C    0 0 0
  14 H    1     2.1491     4.0612   30 C    0 0 0
  14 H    1     2.1666     4.0942   26 C    0 0 0
  14 H    1     2.5198     4.7617   11 H    1 1-1
  14 H    1     2.5723     4.8609   42 O    0 0 0
  14 H    1     2.7355     5.1693    6 B    0 0 0

  15 H    1     1.0914     2.0624   32 C   -1-1 1
  15 H    1     2.1475     4.0582   31 C    0 0-1
  15 H    1     2.1678     4.0966   35 C   -1-1 1
  15 H    1     2.5200     4.7621   18 H   -1-1 1
  15 H    1     2.5667     4.8503   39 O    0 0-1
  15 H    1     2.7315     5.1618    3 B    0 0-1

  16 H    1     1.0913     2.0623   33 C    0 0 0
  16 H    1     2.1487     4.0605   36 C    0 0 0
  16 H    1     2.1667     4.0945   34 C    0 0 0
  16 H    1     2.5197     4.7616   17 H    0 0-1
  16 H    1     2.5723     4.8610   41 O    0 0 0
  16 H    1     2.7359     5.1701    5 B    0 0 0

  17 H    1     1.0915     2.0626   34 C    0 0 1
  17 H    1     2.1479     4.0589   31 C    1 1-1
  17 H    1     2.1679     4.0968   33 C    0 0 1
  17 H    1     2.5197     4.7616   16 H    0 0 1
  17 H    1     2.5677     4.8522   37 O    1 1-1
  17 H    1     2.7331     5.1648    3 B    1 1-1

  18 H    1     1.0914     2.0624   35 C    0 0 0
  18 H    1     2.1486     4.0602   36 C    0 0 0
  18 H    1     2.1668     4.0947   32 C    0 0 0
  18 H    1     2.5200     4.7621   15 H    1 1-1
  18 H    1     2.5717     4.8598   42 O    0 0 0
  18 H    1     2.7349     5.1682    5 B    0 0 0

  19 C    1     1.4020     2.6495   22 C    0-1 2
  19 C    1     1.4021     2.6495   20 C    0-1 2
  19 C    1     1.5504     2.9298    2 B   -1-2 3
  19 C    1     2.1471     4.0575    9 H    0 0 1
  19 C    1     2.1472     4.0576    7 H    0-1 1
  19 C    1     2.4246     4.5817   21 C    0-1 2

  20 C    1     1.0913     2.0623    7 H    0 0-1
  20 C    1     1.3914     2.6294   23 C    0 0 0
  20 C    1     1.4021     2.6495   19 C    0 1-2
  20 C    1     2.1669     4.0948   10 H    0 0 0
  20 C    1     2.4177     4.5688   22 C    0 0 0
  20 C    1     2.4250     4.5825   24 C    0 0 0

  21 C    1     1.0914     2.0625    8 H    0 0 0
  21 C    1     1.3914     2.6293   22 C    0 0 0
  21 C    1     1.4026     2.6505   24 C    0 0 0
  21 C    1     2.1680     4.0970    9 H    0 1-1
  21 C    1     2.4182     4.5697   23 C    0 0 0
  21 C    1     2.4246     4.5817   19 C    0 1-2

  22 C    1     1.0914     2.0624    9 H    0 1-1
  22 C    1     1.3914     2.6293   21 C    0 0 0
  22 C    1     1.4020     2.6495   19 C    0 1-2
  22 C    1     2.1666     4.0942    8 H    0 0 0
  22 C    1     2.4177     4.5688   20 C    0 0 0
  22 C    1     2.4250     4.5826   24 C    0 0 0

  23 C    1     1.0915     2.0626   10 H    0 0 0
  23 C    1     1.3914     2.6294   20 C    0 0 0
  23 C    1     1.4025     2.6504   24 C    0 0 0
  23 C    1     2.1680     4.0969    7 H    0 0-1
  23 C    1     2.4182     4.5697   21 C    0 0 0
  23 C    1     2.4246     4.5818   19 C    0 1-2

  24 C    1     1.4025     2.6504   23 C    0 0 0
  24 C    1     1.4026     2.6505   21 C    0 0 0
  24 C    1     1.5513     2.9316    4 B    0 0 0
  24 C    1     2.1490     4.0610   10 H    0 0 0
  24 C    1     2.1493     4.0616    8 H    0 0 0
  24 C    1     2.4250     4.5825   20 C    0 0 0

  25 C    1     1.4020     2.6494   26 C    0 0-1
  25 C    1     1.4021     2.6495   28 C    0 0-1
  25 C    1     1.5503     2.9297    1 B    0 0 0
  25 C    1     2.1469     4.0571   11 H    1 1-2
  25 C    1     2.1475     4.0581   13 H    0 1-2
  25 C    1     2.4246     4.5818   27 C    0 0-1

  26 C    1     1.0913     2.0623   11 H    1 1-1
  26 C    1     1.3914     2.6293   29 C    0 0 0
  26 C    1     1.4020     2.6494   25 C    0 0 1
  26 C    1     2.1666     4.0942   14 H    0 0 0
  26 C    1     2.4175     4.5684   28 C    0 0 0
  26 C    1     2.4251     4.5828   30 C    0 0 0

  27 C    1     1.0914     2.0625   12 H    0 0 0
  27 C    1     1.3915     2.6295   28 C    0 0 0
  27 C    1     1.4026     2.6505   30 C    0 0 0
  27 C    1     2.1679     4.0967   13 H    0 1-1
  27 C    1     2.4179     4.5691   29 C    0 0 0
  27 C    1     2.4246     4.5818   25 C    0 0 1

  28 C    1     1.0914     2.0624   13 H    0 1-1
  28 C    1     1.3915     2.6295   27 C    0 0 0
  28 C    1     1.4021     2.6495   25 C    0 0 1
  28 C    1     2.1664     4.0939   12 H    0 0 0
  28 C    1     2.4175     4.5684   26 C    0 0 0
  28 C    1     2.4253     4.5832   30 C    0 0 0

  29 C    1     1.0914     2.0625   14 H    0 0 0
  29 C    1     1.3914     2.6293   26 C    0 0 0
  29 C    1     1.4025     2.6504   30 C    0 0 0
  29 C    1     2.1680     4.0968   11 H    1 1-1
  29 C    1     2.4179     4.5691   27 C    0 0 0
  29 C    1     2.4247     4.5819   25 C    0 0 1

  30 C    1     1.4025     2.6504   29 C    0 0 0
  30 C    1     1.4026     2.6505   27 C    0 0 0
  30 C    1     1.5516     2.9322    6 B    0 0 0
  30 C    1     2.1491     4.0612   14 H    0 0 0
  30 C    1     2.1493     4.0617   12 H    0 0 0
  30 C    1     2.4251     4.5828   26 C    0 0 0

  31 C    1     1.4021     2.6496   32 C   -1-1 2
  31 C    1     1.4021     2.6497   34 C   -1-1 2
  31 C    1     1.5502     2.9294    3 B    0 0 0
  31 C    1     2.1475     4.0582   15 H    0 0 1
  31 C    1     2.1479     4.0589   17 H   -1-1 1
  31 C    1     2.4244     4.5814   33 C   -1-1 2

  32 C    1     1.0914     2.0624   15 H    1 1-1
  32 C    1     1.3914     2.6293   35 C    0 0 0
  32 C    1     1.4021     2.6496   31 C    1 1-2
  32 C    1     2.1668     4.0947   18 H    0 0 0
  32 C    1     2.4179     4.5692   34 C    0 0 0
  32 C    1     2.4251     4.5827   36 C    0 0 0

  33 C    1     1.0913     2.0623   16 H    0 0 0
  33 C    1     1.3914     2.6294   34 C    0 0 0
  33 C    1     1.4025     2.6504   36 C    0 0 0
  33 C    1     2.1679     4.0968   17 H    0 0-1
  33 C    1     2.4178     4.5690   35 C    0 0 0
  33 C    1     2.4244     4.5814   31 C    1 1-2

  34 C    1     1.0915     2.0626   17 H    0 0-1
  34 C    1     1.3914     2.6294   33 C    0 0 0
  34 C    1     1.4021     2.6497   31 C    1 1-2
  34 C    1     2.1667     4.0945   16 H    0 0 0
  34 C    1     2.4179     4.5692   32 C    0 0 0
  34 C    1     2.4253     4.5832   36 C    0 0 0

  35 C    1     1.0914     2.0624   18 H    0 0 0
  35 C    1     1.3914     2.6293   32 C    0 0 0
  35 C    1     1.4025     2.6503   36 C    0 0 0
  35 C    1     2.1678     4.0966   15 H    1 1-1
  35 C    1     2.4178     4.5690   33 C    0 0 0
  35 C    1     2.4245     4.5817   31 C    1 1-2

  36 C    1     1.4025     2.6503   35 C    0 0 0
  36 C    1     1.4025     2.6504   33 C    0 0 0
  36 C    1     1.5516     2.9322    5 B    0 0 0
  36 C    1     2.1486     4.0602   18 H    0 0 0
  36 C    1     2.1487     4.0605   16 H    0 0 0
  36 C    1     2.4251     4.5827   32 C    0 0 0

  37 O    1     1.3791     2.6061    3 B    0 0 0
  37 O    1     1.3791     2.6061    1 B   -1-2 3
  37 O    1     2.3880     4.5126   38 O   -1-2 3
  37 O    1     2.3882     4.5130   39 O    0 0 0
  37 O    1     2.5383     4.7966   31 C    0 0 0
  37 O    1     2.5384     4.7968   25 C   -1-2 3

  38 O    1     1.3793     2.6065    1 B    0 0 0
  38 O    1     1.3793     2.6065    2 B    0 0 0
  38 O    1     2.3880     4.5126   37 O    1 2-3
  38 O    1     2.3882     4.5131   39 O    1 2-3
  38 O    1     2.5391     4.7981   19 C    1 2-3
  38 O    1     2.5395     4.7990   25 C    0 0 0

  39 O    1     1.3793     2.6064    3 B    0 0 0
  39 O    1     1.3793     2.6065    2 B   -1-2 3
  39 O    1     2.3882     4.5130   37 O    0 0 0
  39 O    1     2.3882     4.5131   38 O   -1-2 3
  39 O    1     2.5390     4.7980   19 C    0 0 0
  39 O    1     2.5391     4.7982   31 C    0 0 0

  40 O    1     1.3795     2.6068    6 B    0 0 0
  40 O    1     1.3795     2.6068    4 B    0 0 0
  40 O    1     2.3880     4.5126   42 O    0 0 0
  40 O    1     2.3884     4.5134   41 O    0 0 0
  40 O    1     2.5400     4.7998   24 C    0 0 0
  40 O    1     2.5403     4.8005   30 C    0 0 0

  41 O    1     1.3795     2.6069    5 B    0 0 0
  41 O    1     1.3795     2.6070    4 B    0 0 0
  41 O    1     2.3881     4.5128   42 O    0 0 0
  41 O    1     2.3884     4.5134   40 O    0 0 0
  41 O    1     2.5404     4.8006   24 C    0 0 0
  41 O    1     2.5405     4.8008   36 C    0 0 0

  42 O    1     1.3796     2.6071    6 B    0 0 0
  42 O    1     1.3797     2.6072    5 B    0 0 0
  42 O    1     2.3880     4.5126   40 O    0 0 0
  42 O    1     2.3881     4.5128   41 O    0 0 0
  42 O    1     2.5409     4.8016   36 C    0 0 0
  42 O    1     2.5410     4.8019   30 C    0 0 0


 SYMMETRY ALLOWED INTERNAL DEGREE(S) OF FREEDOM: 123
 TTTTTTTTTTTTTTTTTTTTTTTTTTTTTT SYMM        TELAPSE        0.47 TCPU        0.47
 TTTTTTTTTTTTTTTTTTTTTTTTTTTTTT INT_SCREEN  TELAPSE        0.51 TCPU        0.51

 DFT PARAMETERS

     ATOM       ELECTRONS   NET CHARGE   R(ANGSTROM)
   1   5  B       5.0000      0.0000     0.89000000
   7   1  H       1.0000      0.0000     1.11000000
  19   6  C       6.0000      0.0000     0.77000000
  37   8  O       8.0000      0.0000     0.74000000

 SIZE OF GRID=    1249075
 TTTTTTTTTTTTTTTTTTTTTTTTTTTTTT MAKE_GRID2  TELAPSE       11.29 TCPU       11.27
 BECKE WEIGHT FUNCTION
 RADSAFE =     2.00
 TOLERANCES - DENSITY:10**- 6; POTENTIAL:10**- 9; GRID WGT:10**-14

 RADIAL INTEGRATION  - INTERVALS (POINTS,UPPER LIMIT):            1( 75,  4.0*R)

 ANGULAR INTEGRATION - INTERVALS (ACCURACY LEVEL [N. POINTS] UPPER LIMIT):
  1(  4[  86]   0.2)  2(  8[ 194]   0.5)  3( 12[ 350]   0.9)  4( 16[ 974]   3.5)
  5( 12[ 350]9999.0)
 TTTTTTTTTTTTTTTTTTTTTTTTTTTTTT INT_CALC    TELAPSE       11.38 TCPU       11.36
 EEEEEEEEEE INT_CALC TERMINATION  DATE 19 02 2026 TIME 17:49:04.4

 *******************************************************************************
 cof-1_z30_L087_incl                                                             
 CRYSTAL - SCF - TYPE OF CALCULATION :  RESTRICTED CLOSED SHELL
 *******************************************************************************

 CAPPA:IS1  2;IS2  2;IS3  8; K PTS MONK NET  20; SYMMOPS:K SPACE   2;G SPACE   1

 TTTTTTTTTTTTTTTTTTTTTTTTTTTTTT SDIK        TELAPSE       11.95 TCPU       19.65

 AAAAAAAAAAAAAAAAAAAAAAAAAAAAAAAAAAAAAAAAAAAAAAAAAAAAAAAAAAAAAAAAAAAAAAAAAAAAAAA
         ATOMIC WAVEFUNCTION(S)


 NUCLEAR CHARGE  5.0  SYMMETRY SPECIES            S    P
 N. ELECTRONS    5.0  NUMBER OF PRIMITIVE GTOS    8    4
                      NUMBER OF CONTRACTED GTOS   4    2
                      NUMBER OF CLOSED SHELLS     2    0
                      OPEN SHELL OCCUPATION       0    1

  ZNUC  SCFIT    TOTAL HF ENERGY   KINETIC ENERGY   VIRIAL THEOREM ACCURACY
   5.0    11    -2.451164084E+01  2.462155050E+01 -1.995536038E+00  1.5E-06

 NUCLEAR CHARGE  1.0  SYMMETRY SPECIES            S
 N. ELECTRONS    1.0  NUMBER OF PRIMITIVE GTOS    4
                      NUMBER OF CONTRACTED GTOS   2
                      NUMBER OF CLOSED SHELLS     0
                      OPEN SHELL OCCUPATION       1

  ZNUC  SCFIT    TOTAL HF ENERGY   KINETIC ENERGY   VIRIAL THEOREM ACCURACY
   1.0     1    -4.977266687E-01  5.190767460E-01 -1.958869132E+00  0.0E+00

 NUCLEAR CHARGE  6.0  SYMMETRY SPECIES            S    P
 N. ELECTRONS    6.0  NUMBER OF PRIMITIVE GTOS    8    4
                      NUMBER OF CONTRACTED GTOS   4    2
                      NUMBER OF CLOSED SHELLS     2    0
                      OPEN SHELL OCCUPATION       0    2

  ZNUC  SCFIT    TOTAL HF ENERGY   KINETIC ENERGY   VIRIAL THEOREM ACCURACY
   6.0     9    -3.766704647E+01  3.775180683E+01 -1.997754800E+00  1.1E-06

 NUCLEAR CHARGE  8.0  SYMMETRY SPECIES            S    P
 N. ELECTRONS    8.0  NUMBER OF PRIMITIVE GTOS    8    4
                      NUMBER OF CONTRACTED GTOS   4    2
                      NUMBER OF CLOSED SHELLS     2    0
                      OPEN SHELL OCCUPATION       0    4

  ZNUC  SCFIT    TOTAL HF ENERGY   KINETIC ENERGY   VIRIAL THEOREM ACCURACY
   8.0    12    -7.477373220E+01  7.477365593E+01 -2.000001020E+00  3.8E-06

 AAAAAAAAAAAAAAAAAAAAAAAAAAAAAAAAAAAAAAAAAAAAAAAAAAAAAAAAAAAAAAAAAAAAAAAAAAAAAAA

 CHARGE NORMALIZATION FACTOR   1.00000000
 TOTAL ATOMIC CHARGES:
   5.0000000   5.0000000   5.0000000   5.0000000   5.0000000   5.0000000
   1.0000000   1.0000000   1.0000000   1.0000000   1.0000000   1.0000000
   1.0000000   1.0000000   1.0000000   1.0000000   1.0000000   1.0000000
   6.0000000   6.0000000   6.0000000   6.0000000   6.0000000   6.0000000
   6.0000000   6.0000000   6.0000000   6.0000000   6.0000000   6.0000000
   6.0000000   6.0000000   6.0000000   6.0000000   6.0000000   6.0000000
   8.0000000   8.0000000   8.0000000   8.0000000   8.0000000   8.0000000
 TTTTTTTTTTTTTTTTTTTTTTTTTTTTTT MOQGAD      TELAPSE       12.00 TCPU       21.26
 TTTTTTTTTTTTTTTTTTTTTTTTTTTTTT SHELLXN     TELAPSE       21.94 TCPU      338.91
 TTTTTTTTTTTTTTTTTTTTTTTTTTTTTT MONMO3      TELAPSE       22.11 TCPU      344.13
 NUMERICALLY INTEGRATED DENSITY    198.0000225185
 TTTTTTTTTTTTTTTTTTTTTTTTTTTTTT NUMDFT      TELAPSE       22.88 TCPU      368.89
 CYC   0 ETOT(AU) -1.296015909173E+03 DETOT -1.30E+03 tst  0.00E+00 PX  1.00E+00
 TTTTTTTTTTTTTTTTTTTTTTTTTTTTTT DIIS        TELAPSE       22.92 TCPU      370.17
 TTTTTTTTTTTTTTTTTTTTTTTTTTTTTT FDIK        TELAPSE       23.41 TCPU      385.74
 INSULATING STATE
 TOP OF VALENCE BANDS -    BAND     99; K    1; EIG -3.0082176E-01 AU
 BOTTOM OF VIRTUAL BANDS - BAND    100; K    1; EIG -1.5645977E-01 AU
 DIRECT ENERGY BAND GAP:   3.9283 eV
 TTTTTTTTTTTTTTTTTTTTTTTTTTTTTT PDIG        TELAPSE       23.77 TCPU      391.95
 CHARGE NORMALIZATION FACTOR   1.00000000
 TOTAL ATOMIC CHARGES:
   4.1498697   4.1487583   4.1494303   4.1490672   4.1485248   4.1481610
   0.7858270   0.7859376   0.7858498   0.7858012   0.7857003   0.7860483
   0.7857034   0.7860257   0.7858542   0.7859044   0.7857761   0.7859038
   6.0424419   6.2695204   6.2692397   6.2695412   6.2693614   6.0423797
   6.0426021   6.2693550   6.2698185   6.2692833   6.2697642   6.0408916
   6.0431658   6.2690430   6.2697774   6.2690049   6.2696304   6.0420031
   8.6978683   8.6980905   8.6981234   8.6983501   8.6981505   8.6984506
 TTTTTTTTTTTTTTTTTTTTTTTTTTTTTT MOQGAD      TELAPSE       23.82 TCPU      392.00
 TTTTTTTTTTTTTTTTTTTTTTTTTTTTTT SHELLXN     TELAPSE       34.18 TCPU      722.49
 TTTTTTTTTTTTTTTTTTTTTTTTTTTTTT MONMO3      TELAPSE       34.34 TCPU      727.71
 NUMERICALLY INTEGRATED DENSITY    198.0000199266
 TTTTTTTTTTTTTTTTTTTTTTTTTTTTTT NUMDFT      TELAPSE       35.13 TCPU      752.80
 CYC   1 ETOT(AU) -1.288829480499E+03 DETOT  7.19E+00 tst  0.00E+00 PX  1.00E+00
 TTTTTTTTTTTTTTTTTTTTTTTTTTTTTT DIIS        TELAPSE       35.18 TCPU      754.41
 DIIS TEST: 0.10977E+01 AT SCF   CYCLE   1 - MIX   30 %
 TTTTTTTTTTTTTTTTTTTTTTTTTTTTTT FDIK        TELAPSE       35.67 TCPU      770.15
 INSULATING STATE
 TOP OF VALENCE BANDS -    BAND     99; K    1; EIG -2.1168756E-01 AU
 BOTTOM OF VIRTUAL BANDS - BAND    100; K   17; EIG -8.7999565E-02 AU
 INDIRECT ENERGY BAND GAP:   3.3657 eV
 BOTTOM OF VIRTUAL BANDS - BAND    100; K    1; EIG -7.9302740E-02 AU
 TTTTTTTTTTTTTTTTTTTTTTTTTTTTTT PDIG        TELAPSE       36.03 TCPU      776.36
 CHARGE NORMALIZATION FACTOR   1.00000000
 TOTAL ATOMIC CHARGES:
   4.6969650   4.6943360   4.6957504   4.6960740   4.6943306   4.6958173
   0.9005750   0.9006362   0.9010324   0.9001554   0.9000413   0.9009066
   0.8999919   0.9007722   0.9008771   0.9002828   0.9006670   0.9006979
   5.8733894   6.1406279   6.1398890   6.1400188   6.1404684   5.8771737
   5.8745015   6.1388953   6.1408018   6.1394124   6.1408921   5.8770448
   5.8741400   6.1401323   6.1404112   6.1405741   6.1396291   5.8765803
   8.3469458   8.3479244   8.3480030   8.3473983   8.3465404   8.3486971
 TTTTTTTTTTTTTTTTTTTTTTTTTTTTTT MOQGAD      TELAPSE       36.08 TCPU      776.41
 TTTTTTTTTTTTTTTTTTTTTTTTTTTTTT SHELLXN     TELAPSE       46.42 TCPU     1106.21
 TTTTTTTTTTTTTTTTTTTTTTTTTTTTTT MONMO3      TELAPSE       46.58 TCPU     1111.35
 NUMERICALLY INTEGRATED DENSITY    198.0000225416
 TTTTTTTTTTTTTTTTTTTTTTTTTTTTTT NUMDFT      TELAPSE       47.37 TCPU     1136.55
 CYC   2 ETOT(AU) -1.289020401586E+03 DETOT -1.91E-01 tst  3.25E-03 PX  1.54E-01
 TTTTTTTTTTTTTTTTTTTTTTTTTTTTTT DIIS        TELAPSE       47.42 TCPU     1138.26
 DIIS TEST: 0.44984E+00 AT SCF   CYCLE   2 - DIIS ACTIVE - HISTORY:     2 CYCLES
 TTTTTTTTTTTTTTTTTTTTTTTTTTTTTT FDIK        TELAPSE       47.91 TCPU     1154.02
 INSULATING STATE
 TOP OF VALENCE BANDS -    BAND     99; K    1; EIG -2.2481654E-01 AU
 BOTTOM OF VIRTUAL BANDS - BAND    100; K   17; EIG -7.7691743E-02 AU
 INDIRECT ENERGY BAND GAP:   4.0035 eV
 BOTTOM OF VIRTUAL BANDS - BAND    100; K    1; EIG -7.3483693E-02 AU
 TTTTTTTTTTTTTTTTTTTTTTTTTTTTTT PDIG        TELAPSE       48.27 TCPU     1160.23
 CHARGE NORMALIZATION FACTOR   1.00000000
 TOTAL ATOMIC CHARGES:
   4.4852744   4.4832001   4.4841382   4.4842943   4.4831313   4.4839668
   0.8814938   0.8815707   0.8816616   0.8812965   0.8809773   0.8818900
   0.8809582   0.8817389   0.8815866   0.8813191   0.8815819   0.8815289
   5.8882893   6.1728821   6.1717772   6.1722289   6.1720501   5.8886375
   5.8891439   6.1721840   6.1723268   6.1721199   6.1724516   5.8870389
   5.8883678   6.1719074   6.1725658   6.1723128   6.1721048   5.8887927
   8.5197987   8.5203717   8.5201735   8.5200753   8.5202305   8.5205603
 TTTTTTTTTTTTTTTTTTTTTTTTTTTTTT MOQGAD      TELAPSE       48.32 TCPU     1160.28
 TTTTTTTTTTTTTTTTTTTTTTTTTTTTTT SHELLXN     TELAPSE       58.69 TCPU     1491.07
 TTTTTTTTTTTTTTTTTTTTTTTTTTTTTT MONMO3      TELAPSE       58.85 TCPU     1496.31
 NUMERICALLY INTEGRATED DENSITY    198.0000228698
 TTTTTTTTTTTTTTTTTTTTTTTTTTTTTT NUMDFT      TELAPSE       59.64 TCPU     1521.41
 CYC   3 ETOT(AU) -1.289112027693E+03 DETOT -9.16E-02 tst  7.36E-04 PX  5.97E-02
 TTTTTTTTTTTTTTTTTTTTTTTTTTTTTT DIIS        TELAPSE       59.70 TCPU     1523.37
 DIIS TEST: 0.12776E-01 AT SCF   CYCLE   3 - DIIS ACTIVE - HISTORY:     3 CYCLES
 TTTTTTTTTTTTTTTTTTTTTTTTTTTTTT FDIK        TELAPSE       60.18 TCPU     1538.94
 INSULATING STATE
 TOP OF VALENCE BANDS -    BAND     99; K    1; EIG -2.3276885E-01 AU
 BOTTOM OF VIRTUAL BANDS - BAND    100; K   17; EIG -8.6492869E-02 AU
 INDIRECT ENERGY BAND GAP:   3.9804 eV
 BOTTOM OF VIRTUAL BANDS - BAND    100; K    1; EIG -8.2033096E-02 AU
 TTTTTTTTTTTTTTTTTTTTTTTTTTTTTT PDIG        TELAPSE       60.54 TCPU     1545.15
 CHARGE NORMALIZATION FACTOR   1.00000000
 TOTAL ATOMIC CHARGES:
   4.4924856   4.4902194   4.4914078   4.4914430   4.4898541   4.4910156
   0.8659920   0.8659791   0.8661509   0.8656725   0.8655997   0.8661833
   0.8655445   0.8660642   0.8660312   0.8657973   0.8660155   0.8660258
   5.9421607   6.1719271   6.1717127   6.1718141   6.1718526   5.9447205
   5.9426581   6.1706325   6.1724809   6.1709932   6.1724579   5.9443031
   5.9432368   6.1717824   6.1718939   6.1718462   6.1716467   5.9438474
   8.4895460   8.4903337   8.4903487   8.4900542   8.4892208   8.4910485
 TTTTTTTTTTTTTTTTTTTTTTTTTTTTTT MOQGAD      TELAPSE       60.59 TCPU     1545.20
 TTTTTTTTTTTTTTTTTTTTTTTTTTTTTT SHELLXN     TELAPSE       70.96 TCPU     1875.87
 TTTTTTTTTTTTTTTTTTTTTTTTTTTTTT MONMO3      TELAPSE       71.12 TCPU     1881.07
 NUMERICALLY INTEGRATED DENSITY    198.0000225531
 TTTTTTTTTTTTTTTTTTTTTTTTTTTTTT NUMDFT      TELAPSE       71.91 TCPU     1906.19
 CYC   4 ETOT(AU) -1.289114672247E+03 DETOT -2.64E-03 tst  2.80E-05 PX  1.26E-02
 TTTTTTTTTTTTTTTTTTTTTTTTTTTTTT DIIS        TELAPSE       71.97 TCPU     1908.24
 DIIS TEST: 0.34019E-02 AT SCF   CYCLE   4 - DIIS ACTIVE - HISTORY:     4 CYCLES
 TTTTTTTTTTTTTTTTTTTTTTTTTTTTTT FDIK        TELAPSE       72.47 TCPU     1924.01
 INSULATING STATE
 TOP OF VALENCE BANDS -    BAND     99; K    1; EIG -2.3176749E-01 AU
 BOTTOM OF VIRTUAL BANDS - BAND    100; K   17; EIG -8.6267784E-02 AU
 INDIRECT ENERGY BAND GAP:   3.9593 eV
 BOTTOM OF VIRTUAL BANDS - BAND    100; K    1; EIG -8.1750288E-02 AU
 TTTTTTTTTTTTTTTTTTTTTTTTTTTTTT PDIG        TELAPSE       72.82 TCPU     1930.22
 CHARGE NORMALIZATION FACTOR   1.00000000
 TOTAL ATOMIC CHARGES:
   4.4958020   4.4935349   4.4946203   4.4947757   4.4933812   4.4944690
   0.8678543   0.8679684   0.8680804   0.8676358   0.8673793   0.8682383
   0.8673559   0.8680875   0.8680069   0.8676837   0.8679412   0.8679483
   5.9196318   6.1762263   6.1751029   6.1755644   6.1756140   5.9207369
   5.9206847   6.1752998   6.1757064   6.1753374   6.1758814   5.9194097
   5.9198174   6.1752490   6.1760443   6.1757012   6.1754047   5.9207760
   8.4980310   8.4987710   8.4985336   8.4983260   8.4982970   8.4990899
 TTTTTTTTTTTTTTTTTTTTTTTTTTTTTT MOQGAD      TELAPSE       72.87 TCPU     1930.27
 TTTTTTTTTTTTTTTTTTTTTTTTTTTTTT SHELLXN     TELAPSE       83.21 TCPU     2260.03
 TTTTTTTTTTTTTTTTTTTTTTTTTTTTTT MONMO3      TELAPSE       83.38 TCPU     2265.23
 NUMERICALLY INTEGRATED DENSITY    198.0000224879
 TTTTTTTTTTTTTTTTTTTTTTTTTTTTTT NUMDFT      TELAPSE       84.16 TCPU     2290.42
 CYC   5 ETOT(AU) -1.289115453486E+03 DETOT -7.81E-04 tst  4.93E-06 PX  6.79E-03
 TTTTTTTTTTTTTTTTTTTTTTTTTTTTTT DIIS        TELAPSE       84.23 TCPU     2292.65
 DIIS TEST: 0.87835E-04 AT SCF   CYCLE   5 - DIIS ACTIVE - HISTORY:     5 CYCLES
 TTTTTTTTTTTTTTTTTTTTTTTTTTTTTT FDIK        TELAPSE       84.73 TCPU     2308.39
 INSULATING STATE
 TOP OF VALENCE BANDS -    BAND     99; K    1; EIG -2.3160654E-01 AU
 BOTTOM OF VIRTUAL BANDS - BAND    100; K   17; EIG -8.5762559E-02 AU
 INDIRECT ENERGY BAND GAP:   3.9686 eV
 BOTTOM OF VIRTUAL BANDS - BAND    100; K    1; EIG -8.1270873E-02 AU
 TTTTTTTTTTTTTTTTTTTTTTTTTTTTTT PDIG        TELAPSE       85.08 TCPU     2314.60
 CHARGE NORMALIZATION FACTOR   1.00000000
 TOTAL ATOMIC CHARGES:
   4.4949861   4.4927625   4.4938893   4.4939604   4.4925063   4.4935712
   0.8689412   0.8689169   0.8690941   0.8686447   0.8685097   0.8691656
   0.8684508   0.8690488   0.8689676   0.8687501   0.8689689   0.8689580
   5.9212340   6.1745265   6.1742431   6.1743686   6.1742345   5.9231301
   5.9215408   6.1733501   6.1750025   6.1736665   6.1749340   5.9225937
   5.9221874   6.1743395   6.1743447   6.1744083   6.1741722   5.9223815
   8.4973722   8.4980195   8.4981260   8.4978814   8.4972053   8.4986452
 TTTTTTTTTTTTTTTTTTTTTTTTTTTTTT MOQGAD      TELAPSE       85.13 TCPU     2314.65
 TTTTTTTTTTTTTTTTTTTTTTTTTTTTTT SHELLXN     TELAPSE       95.48 TCPU     2644.65
 TTTTTTTTTTTTTTTTTTTTTTTTTTTTTT MONMO3      TELAPSE       95.65 TCPU     2649.89
 NUMERICALLY INTEGRATED DENSITY    198.0000225411
 TTTTTTTTTTTTTTTTTTTTTTTTTTTTTT NUMDFT      TELAPSE       96.44 TCPU     2675.07
 CYC   6 ETOT(AU) -1.289115476838E+03 DETOT -2.34E-05 tst  1.89E-07 PX  7.77E-04
 TTTTTTTTTTTTTTTTTTTTTTTTTTTTTT DIIS        TELAPSE       96.51 TCPU     2677.46
 DIIS TEST: 0.64594E-05 AT SCF   CYCLE   6 - DIIS ACTIVE - HISTORY:     6 CYCLES
 TTTTTTTTTTTTTTTTTTTTTTTTTTTTTT FDIK        TELAPSE       97.00 TCPU     2693.23
 INSULATING STATE
 TOP OF VALENCE BANDS -    BAND     99; K    1; EIG -2.3162813E-01 AU
 BOTTOM OF VIRTUAL BANDS - BAND    100; K   17; EIG -8.5843091E-02 AU
 INDIRECT ENERGY BAND GAP:   3.9670 eV
 BOTTOM OF VIRTUAL BANDS - BAND    100; K    1; EIG -8.1347951E-02 AU
 TTTTTTTTTTTTTTTTTTTTTTTTTTTTTT PDIG        TELAPSE       97.36 TCPU     2699.43
 CHARGE NORMALIZATION FACTOR   1.00000000
 TOTAL ATOMIC CHARGES:
   4.4952962   4.4930268   4.4941152   4.4942668   4.4928619   4.4939258
   0.8687841   0.8688883   0.8690115   0.8685461   0.8683034   0.8691682
   0.8682839   0.8690119   0.8689401   0.8685931   0.8688754   0.8688639
   5.9211777   6.1750156   6.1738993   6.1743156   6.1744839   5.9224712
   5.9223498   6.1741149   6.1744590   6.1741275   6.1746719   5.9210631
   5.9213333   6.1739823   6.1749193   6.1744667   6.1742384   5.9225379
   8.4974517   8.4982463   8.4979343   8.4977201   8.4976971   8.4985605
 TTTTTTTTTTTTTTTTTTTTTTTTTTTTTT MOQGAD      TELAPSE       97.41 TCPU     2699.48
 TTTTTTTTTTTTTTTTTTTTTTTTTTTTTT SHELLXN     TELAPSE      107.69 TCPU     3027.35
 TTTTTTTTTTTTTTTTTTTTTTTTTTTTTT MONMO3      TELAPSE      107.86 TCPU     3032.49
 NUMERICALLY INTEGRATED DENSITY    198.0000225367
 TTTTTTTTTTTTTTTTTTTTTTTTTTTTTT NUMDFT      TELAPSE      108.64 TCPU     3057.62
 CYC   7 ETOT(AU) -1.289115477393E+03 DETOT -5.55E-07 tst  3.72E-08 PX  3.50E-04
 TTTTTTTTTTTTTTTTTTTTTTTTTTTTTT DIIS        TELAPSE      108.72 TCPU     3060.21
 DIIS TEST: 0.14786E-05 AT SCF   CYCLE   7 - DIIS ACTIVE - HISTORY:     7 CYCLES
 TTTTTTTTTTTTTTTTTTTTTTTTTTTTTT FDIK        TELAPSE      109.22 TCPU     3076.03
 INSULATING STATE
 TOP OF VALENCE BANDS -    BAND     99; K    1; EIG -2.3163077E-01 AU
 BOTTOM OF VIRTUAL BANDS - BAND    100; K   17; EIG -8.5847315E-02 AU
 INDIRECT ENERGY BAND GAP:   3.9670 eV
 BOTTOM OF VIRTUAL BANDS - BAND    100; K    1; EIG -8.1350793E-02 AU
 TTTTTTTTTTTTTTTTTTTTTTTTTTTTTT PDIG        TELAPSE      109.57 TCPU     3082.24
 CHARGE NORMALIZATION FACTOR   1.00000000
 TOTAL ATOMIC CHARGES:
   4.4953030   4.4930574   4.4941647   4.4942753   4.4928451   4.4939275
   0.8688006   0.8688414   0.8689855   0.8685413   0.8683491   0.8690984
   0.8683062   0.8689659   0.8688840   0.8686199   0.8688561   0.8688539
   5.9210288   6.1748305   6.1741491   6.1744501   6.1743838   5.9225447
   5.9216796   6.1737648   6.1748426   6.1739577   6.1748840   5.9216528
   5.9216331   6.1742857   6.1746432   6.1745257   6.1742495   5.9221573
   8.4974508   8.4981393   8.4980935   8.4978648   8.4974865   8.4986269
 TTTTTTTTTTTTTTTTTTTTTTTTTTTTTT MOQGAD      TELAPSE      109.62 TCPU     3082.29
 TTTTTTTTTTTTTTTTTTTTTTTTTTTTTT SHELLXN     TELAPSE      120.00 TCPU     3413.06
 +++ ENERGIES IN A.U. +++
 ::: EXT EL-POLE                                  -1.7038446719076E+03
 ::: EXT EL-SPHEROPOLE                             1.9077094330723E+01
 ::: BIELET ZONE E-E                               2.2783061672155E+03
 ::: TOTAL E-E                                     5.9353858963860E+02
 ::: TOTAL E-N + N-E                              -3.0076382667207E+03
 ::: TOTAL N-N                                    -2.1289785980108E+01
 ::: KINETIC ENERGY                                1.2800144353173E+03
 ::: PSEUDO TOTAL   ENERGY                        -1.1553750277449E+03
 ::: VIRIAL COEFFICIENT                            1.0511784293489E+00
 TTTTTTTTTTTTTTTTTTTTTTTTTTTTTT MONMO3      TELAPSE      120.16 TCPU     3418.23
 NUMERICALLY INTEGRATED DENSITY    198.0000225352
 EXCHANGE ENERGY: -0.126031191438E+03  CORRELATION ENERGY: -0.770925855426E+01
 TTTTTTTTTTTTTTTTTTTTTTTTTTTTTT NUMDFT      TELAPSE      120.95 TCPU     3443.37
 CYC   8 ETOT(AU) -1.289115477737E+03 DETOT -3.44E-07 tst  1.12E-08 PX  3.50E-04

 == SCF ENDED - CONVERGENCE ON ENERGY      E(AU) -1.2891154777372E+03 CYCLES   8


 ENERGY EXPRESSION=HARTREE+FOCK EXCH*0.00000+(HSESOL     EXCH)*1.00000+PBESOL     CORR


 TOTAL ENERGY(DFT)(AU)(  8) -1.2891154777372E+03 DE-3.4E-07 tester 1.1E-08
 TTTTTTTTTTTTTTTTTTTTTTTTTTTTTT EDFT        TELAPSE      120.95 TCPU     3443.38
 
 INFORMATION **** DFTD3 ENERGY **** CALCULATE DFTD3 ENERGY

           DFT-D V3(BJ)
 DF                                         hsesol3c  
 parameters
 s6       :    1.0000
 s8       :    0.0000
 a1       :    0.5196
 a2       :    4.9385
 k1 k3    :   16.0000   -4.0000
 Cutoff   :   50.2022
 CN-Cutoff:   21.1671
 ABC-Cutoff:   21.1671
 
 Edisp /kcal,au:   -29.5321 -0.04706237

 E6    /kcal :   -31.5835
 E8    /kcal :     0.0000
 E6(ABC) "   :   2.051398
 
 INFORMATION **** DFTD3 ENERGY **** NORMAL TERMINATION OF DFTD3 MODULE

 GCP ENERGY CALCULATION
  level        hsesol3c            basis:hsesol3c
  Nbf            474
  Atoms           42

  Parameters: 
  sigma     1.0000
  eta       1.4281
  alpha     0.2936
  beta      1.9467

  dmp_scal      4.0000
  dmp_exp       6.0000
 cutoffs: 
   distance [bohr] 60.0
   noise    [a.u.] 2.2E-16
 SR-damping   T
 ** gCP correction **
  Egcp:        0.0858101662 / (a.u.) ||      53.8467 / (kcal/mol)
 INFORMATION **** GCP **** NORMAL TERMINATION OF GCP MODULE

 *******************************************************************************

 DFT-D3-GCP DISPERSION AND COUNTERPOISE CORRECTION

 D3 DISPERSION ENERGY (AU)      -4.7062372771091E-02
 GCP ENERGY (AU)                 8.5810166242002E-02
 TOTAL ENERGY + DISP + GCP (AU) -1.2890767299438E+03

 *******************************************************************************

 EIGENVECTORS IN FORTRAN UNIT  8
 TTTTTTTTTTTTTTTTTTTTTTTTTTTTTT END         TELAPSE      124.08 TCPU     3452.43
 EEEEEEEEEE TERMINATION  DATE 19 02 2026 TIME 17:50:57.1
