 Default number of threads is:           32

         
 *******************************************************************************
 *                                                                             *
 *                               CRYSTAL23                                     *
 *                      public : 1.0.1 - October 2022                          *
 *                       HTTP://WWW.CRYSTAL.UNITO.IT                           *
 *                                                                             *
 *                              MAIN AUTHORS                                   *
 *                                                                             *
 *  R. DOVESI(1,11), V.R. SAUNDERS(2), C. ROETTI(1,11), R. ORLANDO(1,11),      *
 *  C.M. ZICOVICH-WILSON(1,3), F. PASCALE(4), B. CIVALLERI(1,11),              *
 *  K. DOLL(5), N.M. HARRISON(6), I.J. BUSH(7), Ph. D'ARCO(8),                 *
 *  M. LLUNELL(9), M. CAUSA'(10), Y. NOEL(8), L. MASCHIO(1,11), A. ERBA(1,11)  *
 *  M. RE'RAT(14), S. CASASSA(1,11), B.G. SEARLE(2), J.K. DESMARAIS(1)         *
 *                                                                             *
 *        CONTRIBUTIONS TO THE CODE HAVE ALSO BEEN GIVEN BY                    *
 *                                                                             *
 *  M. FERRABONE(1,11), M. DE LA PIERRE(1,11), M. FERRERO(1,11),               *
 *  J. BAIMA(1,11), E. ALBANESE(1,11), M.F. PEINTINGER(12), R. BAST(13),       *
 *  B. KIRTMAN(15), V. LACIVITA(1,11), R. DEMICHELIS(1,16)                     *
 *  G. BRANDEBURG(17), S. SALUSTRO(1,11), G. SANSONE(1,11)                     *
 *  M.T. RUGGIERO(18), L.E. DAGA(1), L. DONA'(1), A. COSSARD(1)                *
 *                                                                             *
 * (1) THEORETICAL CHEMISTRY GROUP - UNIVERSITA' DI TORINO - TORINO (ITALY)    *
 * (2) SCIENTIFIC COMPUTING DEPARTMENT - STFC DARESBURY (UK)                   *
 * (3) UNIVERSIDAD AUTONOMA DEL ESTADO DE MORELOS - CUERNAVACA (MEXICO)        *
 * (4) UNIVERSITE' DE LORRAINE - NANCY (FRANCE)                                *
 * (5) UNIVERSITAET STUTTGART- STUTTGART (GERMANY)                             *
 * (6) IMPERIAL COLLEGE - LONDON (UK)                                          *
 * (7) SCIENTIFIC COMPUTING DEPARTMENT - STFC RAL (UK)                         *
 * (8) UPMC - SORBONNE UNIVERSITES - PARIS (FRANCE)                            *
 * (9) UNIVERSIDAD DE BARCELONA - BARCELONA (SPAIN)                            *
 *(10) UNIVERSITA' DI NAPOLI "FEDERICO II" - NAPOLI (ITALY)                    *
 *(11) NIS - NANOSTRUCTURED INTERFACES AND SURFACES - TORINO (ITALY)           *
 *(12) MPI FUER CHEMISCHE ENERGIEKONVERSION - MUELHEIM AN DER RUHR (GERMANY)   *
 *(13) UNIVERSITY OF TROMSO - TROMSO (NORWAY)                                  *
 *(14) UNIVERSITE' DE PAU ET DES PAYS DE L'ADOUR - PAU (FRANCE)                *
 *(15) UNIVERSITY OF CALIFORNIA SANTA BARBARA - SANTA BARBARA (USA)            *
 *(16) CURTIN UNIVERSITY - PERTH (AUSTRALIA)                                   *
 *(17) UNIVERSITY COLLEGE LONDON - LONDON (UK)                                 *
 *(18) UNIVERSITY OF VERMONT - BURLINGTON (USA)                                *
 *                                                                             *
 *******************************************************************************
 EEEEEEEEEE STARTING  DATE 19 02 2026 TIME 19:08:40.4
 cof-1_z40_L080_incl                                                             

 CRYSTAL CALCULATION
 (INPUT ACCORDING TO THE INTERNATIONAL TABLES FOR X-RAY CRYSTALLOGRAPHY)
 CRYSTAL FAMILY                       :  TRICLINIC   
 CRYSTAL CLASS  (GROTH - 1921)        :  TRICLINIC PEDIAL                     

 SPACE GROUP (NONCENTROSYMMETRIC)     :  P 1             

 LATTICE PARAMETERS  (ANGSTROMS AND DEGREES) - CONVENTIONAL CELL
        A           B           C        ALPHA        BETA       GAMMA
    15.02361    15.02392     8.94427    39.22890    89.99998   119.99596


 NUMBER OF IRREDUCIBLE ATOMS IN THE CONVENTIONAL CELL:   42

 INPUT COORDINATES

 ATOM AT. N.              COORDINATES
   1   5     4.596221800000E-01 -8.082982000000E-02  5.011882300000E-01
   2   5     6.186778400000E-01  7.822983000000E-02  5.011882500000E-01
   3   5     4.603896800000E-01  7.975633000000E-02  4.986774800000E-01
   4   5     7.319689000000E-02  3.054851800000E-01  5.011882400000E-01
   5   5     2.323048600000E-01  3.054644100000E-01  5.011882400000E-01
   6   5     2.330569100000E-01  4.661473100000E-01  4.986774800000E-01
   7   1     7.505853100000E-01  3.982430000000E-03  4.959829200000E-01
   8   1    -5.557911000000E-02  3.865952100000E-01  4.951869400000E-01
   9   1     7.507954300000E-01  2.896895200000E-01  4.950644400000E-01
  10   1    -5.544920000000E-02  1.012832500000E-01  4.950949900000E-01
  11   1     5.361081300000E-01 -2.128759200000E-01  5.040052500000E-01
  12   1     1.537607600000E-01  5.930678400000E-01  5.048012900000E-01
  13   1     2.506633500000E-01 -2.133948500000E-01  5.049238700000E-01
  14   1     4.391150300000E-01  5.929214000000E-01  5.048931100000E-01
  15   1     5.386144100000E-01  2.891065600000E-01  4.959829700000E-01
  16   1     1.567482000000E-01  1.011511300000E-01  4.951868900000E-01
  17   1     2.536646100000E-01  4.440400000000E-03  4.950643400000E-01
  18   1     4.421054700000E-01  3.865561700000E-01  4.950950900000E-01
  19   6     7.386319600000E-01  1.393958400000E-01  4.985856200000E-01
  20   6     7.939931400000E-01  8.776269000000E-02  4.961054100000E-01
  21   6    -9.904199000000E-02  3.022940900000E-01  4.958911600000E-01
  22   6     7.938243500000E-01  2.484056400000E-01  4.965341600000E-01
  23   6    -9.869315000000E-02  1.419800600000E-01  4.948806500000E-01
  24   6    -4.460127000000E-02  2.487302700000E-01  4.965647500000E-01
  25   6     3.999151700000E-01 -2.001113700000E-01  5.014025900000E-01
  26   6     4.522912400000E-01 -2.562487700000E-01  5.038827400000E-01
  27   6     2.378461700000E-01  6.367266600000E-01  5.040970800000E-01
  28   6     2.915327300000E-01 -2.559383100000E-01  5.034541000000E-01
  29   6     3.984537700000E-01  6.360658300000E-01  5.051074900000E-01
  30   6     2.911824800000E-01  5.824697400000E-01  5.034234500000E-01
  31   6     4.007865300000E-01  1.393267000000E-01  4.985856100000E-01
  32   6     4.547142400000E-01  2.486028100000E-01  4.961054600000E-01
  33   6     2.403932800000E-01  1.412808500000E-01  4.958911100000E-01
  34   6     2.936595200000E-01  8.740349000000E-02  4.965340900000E-01
  35   6     4.016234500000E-01  3.028280500000E-01  4.948807200000E-01
  36   6     2.933228200000E-01  2.486528700000E-01  4.965647500000E-01
  37   8     4.072430400000E-01 -2.664786000000E-02  4.993510900000E-01
  38   8     5.645598000000E-01 -2.989702000000E-02  5.046482000000E-01
  39   8     5.670140200000E-01  1.339616100000E-01  4.966566300000E-01
  40   8     1.268308600000E-01  4.126326000000E-01  4.993511200000E-01
  41   8     1.252220700000E-01  2.504202700000E-01  5.046481900000E-01
  42   8     2.865984400000E-01  4.142735900000E-01  4.966566100000E-01

 *******************************************************************************

 << INFORMATION >>: FROM NOW ON, ALL COORDINATES REFER TO THE PRIMITIVE CELL

 *******************************************************************************

 LATTICE PARAMETERS  (ANGSTROMS AND DEGREES) - PRIMITIVE CELL
       A          B          C        ALPHA      BETA     GAMMA        VOLUME
   15.02361   15.02392    8.94427    39.22889  89.99998 119.99596    781.935494

 COORDINATES OF THE EQUIVALENT ATOMS (FRACTIONAL UNITS)

 N. ATOM EQUIV AT. N.          X                  Y                  Z

   1   1   1    5 B     4.59622180000E-01 -8.08298200000E-02 -4.98811770000E-01

   2   2   1    5 B    -3.81322160000E-01  7.82298300000E-02 -4.98811750000E-01

   3   3   1    5 B     4.60389680000E-01  7.97563300000E-02  4.98677480000E-01

   4   4   1    5 B     7.31968900000E-02  3.05485180000E-01 -4.98811760000E-01

   5   5   1    5 B     2.32304860000E-01  3.05464410000E-01 -4.98811760000E-01

   6   6   1    5 B     2.33056910000E-01  4.66147310000E-01  4.98677480000E-01

   7   7   1    1 H    -2.49414690000E-01  3.98243000000E-03  4.95982920000E-01

   8   8   1    1 H    -5.55791100000E-02  3.86595210000E-01  4.95186940000E-01

   9   9   1    1 H    -2.49204570000E-01  2.89689520000E-01  4.95064440000E-01

  10  10   1    1 H    -5.54492000000E-02  1.01283250000E-01  4.95094990000E-01

  11  11   1    1 H    -4.63891870000E-01 -2.12875920000E-01 -4.95994750000E-01

  12  12   1    1 H     1.53760760000E-01 -4.06932160000E-01 -4.95198710000E-01

  13  13   1    1 H     2.50663350000E-01 -2.13394850000E-01 -4.95076130000E-01

  14  14   1    1 H     4.39115030000E-01 -4.07078600000E-01 -4.95106890000E-01

  15  15   1    1 H    -4.61385590000E-01  2.89106560000E-01  4.95982970000E-01

  16  16   1    1 H     1.56748200000E-01  1.01151130000E-01  4.95186890000E-01

  17  17   1    1 H     2.53664610000E-01  4.44040000000E-03  4.95064340000E-01

  18  18   1    1 H     4.42105470000E-01  3.86556170000E-01  4.95095090000E-01

  19  19   1    6 C    -2.61368040000E-01  1.39395840000E-01  4.98585620000E-01

  20  20   1    6 C    -2.06006860000E-01  8.77626900000E-02  4.96105410000E-01

  21  21   1    6 C    -9.90419900000E-02  3.02294090000E-01  4.95891160000E-01

  22  22   1    6 C    -2.06175650000E-01  2.48405640000E-01  4.96534160000E-01

  23  23   1    6 C    -9.86931500000E-02  1.41980060000E-01  4.94880650000E-01

  24  24   1    6 C    -4.46012700000E-02  2.48730270000E-01  4.96564750000E-01

  25  25   1    6 C     3.99915170000E-01 -2.00111370000E-01 -4.98597410000E-01

  26  26   1    6 C     4.52291240000E-01 -2.56248770000E-01 -4.96117260000E-01

  27  27   1    6 C     2.37846170000E-01 -3.63273340000E-01 -4.95902920000E-01

  28  28   1    6 C     2.91532730000E-01 -2.55938310000E-01 -4.96545900000E-01

  29  29   1    6 C     3.98453770000E-01 -3.63934170000E-01 -4.94892510000E-01

  30  30   1    6 C     2.91182480000E-01 -4.17530260000E-01 -4.96576550000E-01

  31  31   1    6 C     4.00786530000E-01  1.39326700000E-01  4.98585610000E-01

  32  32   1    6 C     4.54714240000E-01  2.48602810000E-01  4.96105460000E-01

  33  33   1    6 C     2.40393280000E-01  1.41280850000E-01  4.95891110000E-01

  34  34   1    6 C     2.93659520000E-01  8.74034900000E-02  4.96534090000E-01

  35  35   1    6 C     4.01623450000E-01  3.02828050000E-01  4.94880720000E-01

  36  36   1    6 C     2.93322820000E-01  2.48652870000E-01  4.96564750000E-01

  37  37   1    8 O     4.07243040000E-01 -2.66478600000E-02  4.99351090000E-01

  38  38   1    8 O    -4.35440200000E-01 -2.98970200000E-02 -4.95351800000E-01

  39  39   1    8 O    -4.32985980000E-01  1.33961610000E-01  4.96656630000E-01

  40  40   1    8 O     1.26830860000E-01  4.12632600000E-01  4.99351120000E-01

  41  41   1    8 O     1.25222070000E-01  2.50420270000E-01 -4.95351810000E-01

  42  42   1    8 O     2.86598440000E-01  4.14273590000E-01  4.96656610000E-01

 NUMBER OF SYMMETRY OPERATORS         :    1
 *******************************************************************************
 * GEOMETRY EDITING - INPUT COORDINATES ARE GIVEN IN ANGSTROM         
 *******************************************************************************

 GCALCO - MAX INDICES DIRECT LATTICE VECTOR     9    15    22
 NO.OF VECTORS CREATED 6999 STARS 3500 RMAX   218.87078 BOHR

 GEOMETRY FOR WAVE FUNCTION - DIMENSIONALITY OF THE SYSTEM    3
 (NON PERIODIC DIRECTION: LATTICE PARAMETER FORMALLY SET TO 500)
 *******************************************************************************
 LATTICE PARAMETERS (ANGSTROMS AND DEGREES) - BOHR = 0.5291772083 ANGSTROM
 PRIMITIVE CELL - CENTRING CODE 1/0 VOLUME=   781.935494 - DENSITY  0.828 g/cm^3
         A              B              C           ALPHA      BETA       GAMMA 
    15.02361100    15.02391600     8.94427200    39.228895  89.999975 119.995964
 *******************************************************************************
 ATOMS IN THE ASYMMETRIC UNIT   42 - ATOMS IN THE UNIT CELL:   42
     ATOM                 X/A                 Y/B                 Z/C    
 *******************************************************************************
      1 T   5 B     4.596221800000E-01 -8.082982000000E-02 -4.988117700000E-01
      2 T   5 B    -3.813221600000E-01  7.822983000000E-02 -4.988117500000E-01
      3 T   5 B     4.603896800000E-01  7.975633000000E-02  4.986774800000E-01
      4 T   5 B     7.319689000000E-02  3.054851800000E-01 -4.988117600000E-01
      5 T   5 B     2.323048600000E-01  3.054644100000E-01 -4.988117600000E-01
      6 T   5 B     2.330569100000E-01  4.661473100000E-01  4.986774800000E-01
      7 T   1 H    -2.494146900000E-01  3.982430000000E-03  4.959829200000E-01
      8 T   1 H    -5.557911000000E-02  3.865952100000E-01  4.951869400000E-01
      9 T   1 H    -2.492045700000E-01  2.896895200000E-01  4.950644400000E-01
     10 T   1 H    -5.544920000000E-02  1.012832500000E-01  4.950949900000E-01
     11 T   1 H    -4.638918700000E-01 -2.128759200000E-01 -4.959947500000E-01
     12 T   1 H     1.537607600000E-01 -4.069321600000E-01 -4.951987100000E-01
     13 T   1 H     2.506633500000E-01 -2.133948500000E-01 -4.950761300000E-01
     14 T   1 H     4.391150300000E-01 -4.070786000000E-01 -4.951068900000E-01
     15 T   1 H    -4.613855900000E-01  2.891065600000E-01  4.959829700000E-01
     16 T   1 H     1.567482000000E-01  1.011511300000E-01  4.951868900000E-01
     17 T   1 H     2.536646100000E-01  4.440400000000E-03  4.950643400000E-01
     18 T   1 H     4.421054700000E-01  3.865561700000E-01  4.950950900000E-01
     19 T   6 C    -2.613680400000E-01  1.393958400000E-01  4.985856200000E-01
     20 T   6 C    -2.060068600000E-01  8.776269000000E-02  4.961054100000E-01
     21 T   6 C    -9.904199000000E-02  3.022940900000E-01  4.958911600000E-01
     22 T   6 C    -2.061756500000E-01  2.484056400000E-01  4.965341600000E-01
     23 T   6 C    -9.869315000000E-02  1.419800600000E-01  4.948806500000E-01
     24 T   6 C    -4.460127000000E-02  2.487302700000E-01  4.965647500000E-01
     25 T   6 C     3.999151700000E-01 -2.001113700000E-01 -4.985974100000E-01
     26 T   6 C     4.522912400000E-01 -2.562487700000E-01 -4.961172600000E-01
     27 T   6 C     2.378461700000E-01 -3.632733400000E-01 -4.959029200000E-01
     28 T   6 C     2.915327300000E-01 -2.559383100000E-01 -4.965459000000E-01
     29 T   6 C     3.984537700000E-01 -3.639341700000E-01 -4.948925100000E-01
     30 T   6 C     2.911824800000E-01 -4.175302600000E-01 -4.965765500000E-01
     31 T   6 C     4.007865300000E-01  1.393267000000E-01  4.985856100000E-01
     32 T   6 C     4.547142400000E-01  2.486028100000E-01  4.961054600000E-01
     33 T   6 C     2.403932800000E-01  1.412808500000E-01  4.958911100000E-01
     34 T   6 C     2.936595200000E-01  8.740349000000E-02  4.965340900000E-01
     35 T   6 C     4.016234500000E-01  3.028280500000E-01  4.948807200000E-01
     36 T   6 C     2.933228200000E-01  2.486528700000E-01  4.965647500000E-01
     37 T   8 O     4.072430400000E-01 -2.664786000000E-02  4.993510900000E-01
     38 T   8 O    -4.354402000000E-01 -2.989702000000E-02 -4.953518000000E-01
     39 T   8 O    -4.329859800000E-01  1.339616100000E-01  4.966566300000E-01
     40 T   8 O     1.268308600000E-01  4.126326000000E-01  4.993511200000E-01
     41 T   8 O     1.252220700000E-01  2.504202700000E-01 -4.953518100000E-01
     42 T   8 O     2.865984400000E-01  4.142735900000E-01  4.966566100000E-01

 T = ATOM BELONGING TO THE ASYMMETRIC UNIT

 ****    1 SYMMOPS - TRANSLATORS IN FRACTIONAL UNITS
 **** MATRICES AND TRANSLATORS IN THE CRYSTALLOGRAPHIC REFERENCE FRAME
   V INV                    ROTATION MATRICES                   TRANSLATORS
   1   1  1.00 -0.00  0.00  0.00  1.00  0.00  0.00 -0.00  1.00  0.00  0.00  0.00

 DIRECT LATTICE VECTORS CARTESIAN COMPONENTS (ANGSTROM)
          X                    Y                    Z
   0.130113578931E+02  -0.751088897922E+01   0.000000000000E+00
   0.000000000000E+00   0.150239160000E+02   0.000000000000E+00
   0.399950349218E+01   0.692846250864E+01   0.400004758627E+01


 CARTESIAN COORDINATES - PRIMITIVE CELL
 *******************************************************************************
 *      ATOM          X(ANGSTROM)         Y(ANGSTROM)         Z(ANGSTROM)
 *******************************************************************************
    1     5 B    -1.419422866970E-02 -2.709674828694E-02 -5.995318402867E+00
    2     5 B     2.055335968497E+00  1.167952807096E+00 -5.995318322866E+00
    3     5 B    -1.027097181394E+00  6.108203406638E-01  5.994781236476E+00
    4     5 B    -1.042608443612E+00  5.838113911245E-01 -1.995270776593E+00
    5     5 B     1.027602297696E+00 -6.115429539893E-01 -1.995270776593E+00
    6     5 B     1.027345696011E+00  1.779499167662E+00 -2.005313936071E+00
    7     1 H    -5.261041866954E+00 -1.558905702320E+00 -2.016092304295E+00
    8     1 H    -2.742161287956E+00  2.728044125737E+00 -2.019276262172E+00
    9     1 H    -1.262477892221E+00 -5.369861715158E+00  1.980281318272E+00
   10     1 H    -2.740838736798E+00 -1.560071606814E+00 -2.019644066548E+00
   11     1 H    -4.020092386797E+00  3.777991872209E+00  2.016044983732E+00
   12     1 H     2.008730829999E-02  4.324355716182E+00 -1.980818404661E+00
   13     1 H     5.280915338873E+00 -1.590384791231E+00  2.019719507445E+00
   14     1 H     3.733301075993E+00  2.179527543635E+00 -1.980451120292E+00
   15     1 H    -4.019567417612E+00 -3.778587971844E+00  1.983955481981E+00
   16     1 H     2.050513294880E-02 -3.155210953970E+00 -2.019276462175E+00
   17     1 H     1.281029090016E+00 -5.336962316643E+00 -2.019766668006E+00
   18     1 H     3.733023545884E+00 -1.011232414273E+00 -2.019643666543E+00
   19     6 C    -5.406161674086E+00  5.833469889442E-01 -2.005681380442E+00
   20     6 C    -4.695757156281E+00 -6.253808382082E-01 -2.015602338466E+00
   21     6 C    -3.304855844350E+00  1.792835208415E+00 -2.016459348661E+00
   22     6 C    -4.696238556257E+00  1.792343689835E+00 -2.013887318063E+00
   23     6 C    -3.304358500536E+00 -6.253306910871E-01 -2.020501436748E+00
   24     6 C    -2.593814126917E+00  5.838656152889E-01 -2.013764956608E+00
   25     6 C    -7.902061709354E-01 -1.369234827222E+00 -5.994460952666E+00
   26     6 C     3.900700481633E+00  4.339616878708E+00 -1.984492648372E+00
   27     6 C     1.111336181040E+00  4.343846888656E+00 -1.983635278172E+00
   28     6 C     1.807299626492E+00  5.548750708574E+00 -1.986207228769E+00
   29     6 C     3.205100283309E+00  3.134613369231E+00 -1.979593590090E+00
   30     6 C     1.802619813608E+00  3.123425156986E+00 -1.986329830228E+00
   31     6 C     3.209368376712E+00 -4.391061296243E+00 -2.005681420442E+00
   32     6 C     3.901121743288E+00 -3.171534867801E+00 -2.015602138463E+00
   33     6 C     1.111657735171E+00 -3.175675159256E+00 -2.016459548664E+00
   34     6 C     1.807295448184E+00 -4.380746042354E+00 -2.013887598067E+00
   35     6 C     3.205440121866E+00 -1.966585952625E+00 -2.020501156744E+00
   36     6 C     1.803037148759E+00 -1.955407559202E+00 -2.013764956608E+00
   37     8 O    -1.715913029700E+00 -5.839416776554E-01  5.997475708531E+00
   38     8 O     1.365024863694E+00 -2.608918057934E-02 -5.981478358220E+00
   39     8 O     3.521478698246E-01  6.103509504575E-01  5.986697740312E+00
   40     8 O    -3.521052325722E-01  1.778018017593E+00 -2.002619344015E+00
   41     8 O    -3.518521250737E-01 -6.102624085100E-01 -1.981430811947E+00
   42     8 O     1.715911228361E+00  5.840067461374E-01 -2.013397512236E+00

 *******************************************************************************
 STARTING BASIS SET HANDLING 
 *******************************************************************************

 Loading internal basis set: SOLDEF2MSVP         

 Please cite in your publication:
 L. Dona', J. G. Brandenburg and B. Civalleri, J. Chem. Phys., 151, 121101 (2019
 )                                                                              
                                                                                
                    

 *******************************************************************************
 LOCAL ATOMIC FUNCTIONS BASIS SET
 *******************************************************************************
   ATOM   X(AU)   Y(AU)   Z(AU)  N. TYPE  EXPONENT  S COEF   P COEF   D/F/G COEF
 *******************************************************************************
   1 B   -0.027  -0.051 -11.330
                                  1 S  
                                         2.410E+03 1.755E-03 0.000E+00 0.000E+00
                                         3.619E+02 1.344E-02 0.000E+00 0.000E+00
                                         8.231E+01 6.637E-02 0.000E+00 0.000E+00
                                         2.311E+01 2.303E-01 0.000E+00 0.000E+00
                                         7.252E+00 5.150E-01 0.000E+00 0.000E+00
                                  2 S  
                                         2.367E+00 1.000E+00 0.000E+00 0.000E+00
                                  3 S  
                                         5.533E-01 1.000E+00 0.000E+00 0.000E+00
                                  4 S  
                                         1.716E-01 1.000E+00 0.000E+00 0.000E+00
                           5-     7 P  
                                         6.002E+00 0.000E+00-3.555E-02 0.000E+00
                                         1.240E+00 0.000E+00-1.983E-01 0.000E+00
                                         3.367E-01 0.000E+00-5.048E-01 0.000E+00
                           8-    10 P  
                                         1.256E-01 0.000E+00 1.000E+00 0.000E+00
                          11-    15 D  
                                         8.880E-01 0.000E+00 0.000E+00 1.000E+00
   2 B    3.884   2.207 -11.330
   3 B   -1.941   1.154  11.328
   4 B   -1.970   1.103  -3.771
   5 B    1.942  -1.156  -3.771
   6 B    1.941   3.363  -3.789
   7 H   -9.942  -2.946  -3.810
                                 91 S  
                                         1.874E+01 1.968E-02 0.000E+00 0.000E+00
                                         2.826E+00 1.380E-01 0.000E+00 0.000E+00
                                         6.401E-01 4.783E-01 0.000E+00 0.000E+00
                                 92 S  
                                         1.756E-01 1.000E+00 0.000E+00 0.000E+00
   8 H   -5.182   5.155  -3.816
   9 H   -2.386 -10.148   3.742
  10 H   -5.179  -2.948  -3.817
  11 H   -7.597   7.139   3.810
  12 H    0.038   8.172  -3.743
  13 H    9.979  -3.005   3.817
  14 H    7.055   4.119  -3.743
  15 H   -7.596  -7.140   3.749
  16 H    0.039  -5.962  -3.816
  17 H    2.421 -10.085  -3.817
  18 H    7.054  -1.911  -3.817
  19 C  -10.216   1.102  -3.790
                                115 S  
                                         3.624E+03 1.634E-03 0.000E+00 0.000E+00
                                         5.440E+02 1.252E-02 0.000E+00 0.000E+00
                                         1.237E+02 6.211E-02 0.000E+00 0.000E+00
                                         3.476E+01 2.182E-01 0.000E+00 0.000E+00
                                         1.093E+01 4.980E-01 0.000E+00 0.000E+00
                                116 S  
                                         3.574E+00 1.000E+00 0.000E+00 0.000E+00
                                117 S  
                                         7.742E-01 1.000E+00 0.000E+00 0.000E+00
                                118 S  
                                         2.330E-01 1.000E+00 0.000E+00 0.000E+00
                         119-   121 P  
                                         9.443E+00 0.000E+00 3.790E-02 0.000E+00
                                         2.002E+00 0.000E+00 2.082E-01 0.000E+00
                                         5.463E-01 0.000E+00 5.047E-01 0.000E+00
                         122-   124 P  
                                         1.820E-01 0.000E+00 1.000E+00 0.000E+00
                         125-   129 D  
                                         8.880E-01 0.000E+00 0.000E+00 1.000E+00
  20 C   -8.874  -1.182  -3.809
  21 C   -6.245   3.388  -3.811
  22 C   -8.875   3.387  -3.806
  23 C   -6.244  -1.182  -3.818
  24 C   -4.902   1.103  -3.805
  25 C   -1.493  -2.587 -11.328
  26 C    7.371   8.201  -3.750
  27 C    2.100   8.209  -3.749
  28 C    3.415  10.486  -3.753
  29 C    6.057   5.924  -3.741
  30 C    3.406   5.902  -3.754
  31 C    6.065  -8.298  -3.790
  32 C    7.372  -5.993  -3.809
  33 C    2.101  -6.001  -3.811
  34 C    3.415  -8.278  -3.806
  35 C    6.057  -3.716  -3.818
  36 C    3.407  -3.695  -3.805
  37 O   -3.243  -1.103  11.334
                                385 S  
                                         6.773E+03 1.727E-03 0.000E+00 0.000E+00
                                         1.017E+03 1.325E-02 0.000E+00 0.000E+00
                                         2.313E+02 6.603E-02 0.000E+00 0.000E+00
                                         6.501E+01 2.353E-01 0.000E+00 0.000E+00
                                         2.050E+01 5.498E-01 0.000E+00 0.000E+00
                                386 S  
                                         6.716E+00 1.000E+00 0.000E+00 0.000E+00
                                387 S  
                                         1.147E+00 1.000E+00 0.000E+00 0.000E+00
                                388 S  
                                         3.342E-01 1.000E+00 0.000E+00 0.000E+00
                         389-   391 P  
                                         1.769E+01 0.000E+00 4.359E-02 0.000E+00
                                         3.854E+00 0.000E+00 2.318E-01 0.000E+00
                                         1.047E+00 0.000E+00 5.146E-01 0.000E+00
                         392-   394 P  
                                         2.759E-01 0.000E+00 1.000E+00 0.000E+00
                         395-   399 D  
                                         8.000E-01 0.000E+00 0.000E+00 1.000E+00
  38 O    2.580  -0.049 -11.303
  39 O    0.665   1.153  11.313
  40 O   -0.665   3.360  -3.784
  41 O   -0.665  -1.153  -3.744
  42 O    3.243   1.104  -3.805

 *******************************************************************************
 FINISHED BASIS SET HANDLING 
 *******************************************************************************

 INFORMATION **** SET_MPP **** PCRYSTAL CALCULATION
 INFORMATION **** READM2 **** NEW DEFAULT: FOCK/KS MATRIX MIXING SET TO 30 %
 INFORMATION **** READM2 **** NEW DEFAULT: FULL DIRECT SCF MODE
 INFORMATION **** READM2 **** NEW DEFAULT: COULOMB BIPOLAR BUFFER SET TO 32 Mb
 INFORMATION **** READM2 **** NEW DEFAULT: EXCHANGE BIPOLAR BUFFER SET TO 32 Mb

 *******************************************************************************
 NEW DEFAULT: DFT INTEGRATION GRID INCREASED TO XLGRID
 NEW DEFAULT: DIIS ACCELERATOR ACTIVE
 USE KEYWORD NODIIS TO TURN IT OFF
 *******************************************************************************

 WARNING **** RDDFTP **** HSEsol-HJS ACTIVE
 RANGE SEPARATION - OMEGA:   0.110000000000000     
 WARNING **** RDDFTP **** HSEsol-3c has to be combined with sol-def2-mSVP basis set
 *******************************************************************************
 N. OF ATOMS PER CELL        42  COULOMB OVERLAP TOL         (T1) 10**   -6
 NUMBER OF SHELLS           234  COULOMB PENETRATION TOL     (T2) 10**   -6
 NUMBER OF AO               474  EXCHANGE OVERLAP TOL        (T3) 10**   -6
 N. OF ELECTRONS PER CELL   198  EXCHANGE PSEUDO OVP (F(G))  (T4) 10**   -6
 CORE ELECTRONS PER CELL     60  EXCHANGE PSEUDO OVP (P(G))  (T5) 10**  -12
 N. OF SYMMETRY OPERATORS     1  POLE ORDER IN MONO ZONE                  4
 *******************************************************************************
 TYPE OF CALCULATION :  RESTRICTED CLOSED SHELL
 KOHN-SHAM HAMILTONIAN

 (EXCHANGE)[CORRELATION] FUNCTIONAL:(HSEsol GGA)[PBEsol]

 RANGE-SEPARATED HYBRID FUNCTIONAL 
 OMEGA (SHORT-RANGE)[LONG-RANGE]:(    0.1100)[    0.0000]

 HYBRID EXCHANGE - PERCENTAGE OF FOCK EXCHANGE    25.0000

 CAPPA:IS1  2;IS2  2;IS3  8; K PTS MONK NET  20; SYMMOPS:K SPACE   2;G SPACE   1

 *******************************************************************************
 MAX NUMBER OF SCF CYCLES      50  CONVERGENCE ON DELTAP        10**-16
 WEIGHT OF F(I) IN F(I+1)      30% CONVERGENCE ON ENERGY        10**- 6
 SHRINK. FACT.(MONKH.)    2  2  8  NUMBER OF K POINTS IN THE IBZ     20
 SHRINKING FACTOR(GILAT NET)    8  NUMBER OF K POINTS(GILAT NET)   1028
 *******************************************************************************
 *** K POINTS COORDINATES (OBLIQUE COORDINATES IN UNITS OF IS =  2)
   1-R(  0  0  0)   2-R(  1  0  0)   3-R(  0  1  0)   4-R(  1  1  0)
   5-C(  0  0  1)   6-C(  1  0  1)   7-C(  0  1  1)   8-C(  1  1  1)
   9-C(  0  0  2)  10-C(  1  0  2)  11-C(  0  1  2)  12-C(  1  1  2)
  13-C(  0  0  3)  14-C(  1  0  3)  15-C(  0  1  3)  16-C(  1  1  3)
  17-R(  0  0  4)  18-R(  1  0  4)  19-R(  0  1  4)  20-R(  1  1  4)

 DIRECT LATTICE VECTORS COMPON. (A.U.)     RECIP. LATTICE VECTORS COMPON. (A.U.) 
        X            Y            Z              X            Y            Z
   24.5879030  -14.1935232    0.0000000      0.2555397    0.0000000   -0.2555049
    0.0000000   28.3910867    0.0000000      0.1277517    0.2213084   -0.5110614
    7.5579663   13.0928967    7.5589945      0.0000000    0.0000000    0.8312197

 DISK SPACE FOR EIGENVECTORS (FTN 10)     7189632 REALS

 SYMMETRY ADAPTION OF THE BLOCH FUNCTIONS DISABLED
 TTTTTTTTTTTTTTTTTTTTTTTTTTTTTT gordsh1     TELAPSE        0.04 TCPU        0.04

 MATRIX SIZE: P(G)  293028, F(G)   57963, P(G) IRR  147573, F(G) IRR   58443
 MAX G-VECTOR INDEX FOR 1- AND 2-ELECTRON INTEGRALS  55

 TTTTTTTTTTTTTTTTTTTTTTTTTTTTTT INPUT       TELAPSE        0.41 TCPU        0.41

 NEIGHBORS OF THE NON-EQUIVALENT ATOMS

 N = NUMBER OF NEIGHBORS AT DISTANCE R
    ATOM  N     R/ANG      R/AU   NEIGHBORS (ATOM LABELS AND CELL INDICES)
   1 B    1     1.3791     2.6061   37 O    1 2-3
   1 B    1     1.3793     2.6065   38 O    0 0 0
   1 B    1     1.5503     2.9297   25 C    0 0 0
   1 B    1     2.3895     4.5155    3 B    1 2-3
   1 B    1     2.3898     4.5160    2 B    0 0 0
   1 B    1     2.5632     4.8437   26 C    0 0-1

   2 B    1     1.3793     2.6065   39 O    1 2-3
   2 B    1     1.3793     2.6065   38 O    0 0 0
   2 B    1     1.5504     2.9298   19 C    1 1-1
   2 B    1     2.3895     4.5156    3 B    1 2-3
   2 B    1     2.3898     4.5160    1 B    0 0 0
   2 B    1     2.5634     4.8440   22 C    1 1-1

   3 B    1     1.3791     2.6061   37 O    0 0 0
   3 B    1     1.3793     2.6064   39 O    0 0 0
   3 B    1     1.5502     2.9294   31 C   -1-1 2
   3 B    1     2.3895     4.5155    1 B   -1-2 3
   3 B    1     2.3895     4.5156    2 B   -1-2 3
   3 B    1     2.5629     4.8433   32 C   -1-1 2

   4 B    1     1.3795     2.6068   40 O    0 0 0
   4 B    1     1.3795     2.6070   41 O    0 0 0
   4 B    1     1.5513     2.9316   24 C    0 0 0
   4 B    1     2.3905     4.5174    6 B    0 0 0
   4 B    1     2.3905     4.5175    5 B    0 0 0
   4 B    1     2.5648     4.8468   23 C    0 0 0

   5 B    1     1.3795     2.6069   41 O    0 0 0
   5 B    1     1.3797     2.6072   42 O    0 0 0
   5 B    1     1.5516     2.9322   36 C    0 0 0
   5 B    1     2.3905     4.5175    4 B    0 0 0
   5 B    1     2.3911     4.5185    6 B    0 0 0
   5 B    1     2.5651     4.8473   35 C    0 0 0

   6 B    1     1.3795     2.6068   40 O    0 0 0
   6 B    1     1.3796     2.6071   42 O    0 0 0
   6 B    1     1.5516     2.9322   30 C    0 0 0
   6 B    1     2.3905     4.5174    4 B    0 0 0
   6 B    1     2.3911     4.5185    5 B    0 0 0
   6 B    1     2.5651     4.8473   29 C    0 0 0

   7 H    1     1.0913     2.0623   20 C    0 0 0
   7 H    1     2.1472     4.0576   19 C    0 0 0
   7 H    1     2.1680     4.0969   23 C    0 0 0
   7 H    1     2.5202     4.7625   10 H    0 0 0
   7 H    1     2.5676     4.8520   38 O   -1-1 1
   7 H    1     2.7321     5.1630    2 B   -1-1 1

   8 H    1     1.0914     2.0625   21 C    0 0 0
   8 H    1     2.1493     4.0616   24 C    0 0 0
   8 H    1     2.1666     4.0942   22 C    0 0 0
   8 H    1     2.5198     4.7618    9 H    0 1-1
   8 H    1     2.5720     4.8604   40 O    0 0 0
   8 H    1     2.7362     5.1707    4 B    0 0 0

   9 H    1     1.0914     2.0624   22 C    0-1 1
   9 H    1     2.1471     4.0575   19 C    0-1 1
   9 H    1     2.1680     4.0970   21 C    0-1 1
   9 H    1     2.5198     4.7618    8 H    0-1 1
   9 H    1     2.5665     4.8500   39 O    0 0-1
   9 H    1     2.7315     5.1618    2 B   -1-2 2

  10 H    1     1.0915     2.0626   23 C    0 0 0
  10 H    1     2.1490     4.0610   24 C    0 0 0
  10 H    1     2.1669     4.0948   20 C    0 0 0
  10 H    1     2.5202     4.7625    7 H    0 0 0
  10 H    1     2.5712     4.8588   41 O    0 0 0
  10 H    1     2.7351     5.1686    4 B    0 0 0

  11 H    1     1.0913     2.0623   26 C   -1-1 1
  11 H    1     2.1469     4.0571   25 C   -1-1 2
  11 H    1     2.1680     4.0968   29 C   -1-1 1
  11 H    1     2.5198     4.7617   14 H   -1-1 1
  11 H    1     2.5670     4.8510   38 O   -1-1 2
  11 H    1     2.7310     5.1609    1 B   -1-1 2

  12 H    1     1.0914     2.0625   27 C    0 0 0
  12 H    1     2.1493     4.0617   30 C    0 0 0
  12 H    1     2.1664     4.0939   28 C    0 0 0
  12 H    1     2.5192     4.7606   13 H    0 1-1
  12 H    1     2.5735     4.8632   40 O    0 0 0
  12 H    1     2.7371     5.1723    6 B    0 0 0

  13 H    1     1.0914     2.0624   28 C    0-1 1
  13 H    1     2.1475     4.0581   25 C    0-1 2
  13 H    1     2.1679     4.0967   27 C    0-1 1
  13 H    1     2.5192     4.7606   12 H    0-1 1
  13 H    1     2.5675     4.8519   37 O    1 1-1
  13 H    1     2.7328     5.1643    1 B    0-1 2

  14 H    1     1.0914     2.0625   29 C    0 0 0
  14 H    1     2.1491     4.0612   30 C    0 0 0
  14 H    1     2.1666     4.0942   26 C    0 0 0
  14 H    1     2.5198     4.7617   11 H    1 1-1
  14 H    1     2.5723     4.8609   42 O    0 0 0
  14 H    1     2.7355     5.1693    6 B    0 0 0

  15 H    1     1.0914     2.0624   32 C   -1-1 1
  15 H    1     2.1475     4.0582   31 C   -1-1 1
  15 H    1     2.1678     4.0966   35 C   -1-1 1
  15 H    1     2.5200     4.7621   18 H   -1-1 1
  15 H    1     2.5667     4.8503   39 O    0 0-1
  15 H    1     2.7315     5.1618    3 B    0 0-1

  16 H    1     1.0913     2.0623   33 C    0 0 0
  16 H    1     2.1487     4.0605   36 C    0 0 0
  16 H    1     2.1667     4.0945   34 C    0 0 0
  16 H    1     2.5197     4.7616   17 H    0 0 0
  16 H    1     2.5723     4.8610   41 O    0 0 0
  16 H    1     2.7359     5.1701    5 B    0 0 0

  17 H    1     1.0915     2.0626   34 C    0 0 0
  17 H    1     2.1479     4.0589   31 C    0 0 0
  17 H    1     2.1679     4.0968   33 C    0 0 0
  17 H    1     2.5197     4.7616   16 H    0 0 0
  17 H    1     2.5677     4.8522   37 O    1 1-2
  17 H    1     2.7331     5.1648    3 B    1 1-2

  18 H    1     1.0914     2.0624   35 C    0 0 0
  18 H    1     2.1486     4.0602   36 C    0 0 0
  18 H    1     2.1668     4.0947   32 C    0 0 0
  18 H    1     2.5200     4.7621   15 H    1 1-1
  18 H    1     2.5717     4.8598   42 O    0 0 0
  18 H    1     2.7349     5.1682    5 B    0 0 0

  19 C    1     1.4020     2.6495   22 C    0 0 0
  19 C    1     1.4021     2.6495   20 C    0 0 0
  19 C    1     1.5504     2.9298    2 B   -1-1 1
  19 C    1     2.1471     4.0575    9 H    0 1-1
  19 C    1     2.1472     4.0576    7 H    0 0 0
  19 C    1     2.4246     4.5817   21 C    0 0 0

  20 C    1     1.0913     2.0623    7 H    0 0 0
  20 C    1     1.3914     2.6294   23 C    0 0 0
  20 C    1     1.4021     2.6495   19 C    0 0 0
  20 C    1     2.1669     4.0948   10 H    0 0 0
  20 C    1     2.4177     4.5688   22 C    0 0 0
  20 C    1     2.4250     4.5825   24 C    0 0 0

  21 C    1     1.0914     2.0625    8 H    0 0 0
  21 C    1     1.3914     2.6293   22 C    0 0 0
  21 C    1     1.4026     2.6505   24 C    0 0 0
  21 C    1     2.1680     4.0970    9 H    0 1-1
  21 C    1     2.4182     4.5697   23 C    0 0 0
  21 C    1     2.4246     4.5817   19 C    0 0 0

  22 C    1     1.0914     2.0624    9 H    0 1-1
  22 C    1     1.3914     2.6293   21 C    0 0 0
  22 C    1     1.4020     2.6495   19 C    0 0 0
  22 C    1     2.1666     4.0942    8 H    0 0 0
  22 C    1     2.4177     4.5688   20 C    0 0 0
  22 C    1     2.4250     4.5826   24 C    0 0 0

  23 C    1     1.0915     2.0626   10 H    0 0 0
  23 C    1     1.3914     2.6294   20 C    0 0 0
  23 C    1     1.4025     2.6504   24 C    0 0 0
  23 C    1     2.1680     4.0969    7 H    0 0 0
  23 C    1     2.4182     4.5697   21 C    0 0 0
  23 C    1     2.4246     4.5818   19 C    0 0 0

  24 C    1     1.4025     2.6504   23 C    0 0 0
  24 C    1     1.4026     2.6505   21 C    0 0 0
  24 C    1     1.5513     2.9316    4 B    0 0 0
  24 C    1     2.1490     4.0610   10 H    0 0 0
  24 C    1     2.1493     4.0616    8 H    0 0 0
  24 C    1     2.4250     4.5825   20 C    0 0 0

  25 C    1     1.4020     2.6494   26 C    0 0-1
  25 C    1     1.4021     2.6495   28 C    0 0-1
  25 C    1     1.5503     2.9297    1 B    0 0 0
  25 C    1     2.1469     4.0571   11 H    1 1-2
  25 C    1     2.1475     4.0581   13 H    0 1-2
  25 C    1     2.4246     4.5818   27 C    0 0-1

  26 C    1     1.0913     2.0623   11 H    1 1-1
  26 C    1     1.3914     2.6293   29 C    0 0 0
  26 C    1     1.4020     2.6494   25 C    0 0 1
  26 C    1     2.1666     4.0942   14 H    0 0 0
  26 C    1     2.4175     4.5684   28 C    0 0 0
  26 C    1     2.4251     4.5828   30 C    0 0 0

  27 C    1     1.0914     2.0625   12 H    0 0 0
  27 C    1     1.3915     2.6295   28 C    0 0 0
  27 C    1     1.4026     2.6505   30 C    0 0 0
  27 C    1     2.1679     4.0967   13 H    0 1-1
  27 C    1     2.4179     4.5691   29 C    0 0 0
  27 C    1     2.4246     4.5818   25 C    0 0 1

  28 C    1     1.0914     2.0624   13 H    0 1-1
  28 C    1     1.3915     2.6295   27 C    0 0 0
  28 C    1     1.4021     2.6495   25 C    0 0 1
  28 C    1     2.1664     4.0939   12 H    0 0 0
  28 C    1     2.4175     4.5684   26 C    0 0 0
  28 C    1     2.4253     4.5832   30 C    0 0 0

  29 C    1     1.0914     2.0625   14 H    0 0 0
  29 C    1     1.3914     2.6293   26 C    0 0 0
  29 C    1     1.4025     2.6504   30 C    0 0 0
  29 C    1     2.1680     4.0968   11 H    1 1-1
  29 C    1     2.4179     4.5691   27 C    0 0 0
  29 C    1     2.4247     4.5819   25 C    0 0 1

  30 C    1     1.4025     2.6504   29 C    0 0 0
  30 C    1     1.4026     2.6505   27 C    0 0 0
  30 C    1     1.5516     2.9322    6 B    0 0 0
  30 C    1     2.1491     4.0612   14 H    0 0 0
  30 C    1     2.1493     4.0617   12 H    0 0 0
  30 C    1     2.4251     4.5828   26 C    0 0 0

  31 C    1     1.4021     2.6496   32 C    0 0 0
  31 C    1     1.4021     2.6497   34 C    0 0 0
  31 C    1     1.5502     2.9294    3 B    1 1-2
  31 C    1     2.1475     4.0582   15 H    1 1-1
  31 C    1     2.1479     4.0589   17 H    0 0 0
  31 C    1     2.4244     4.5814   33 C    0 0 0

  32 C    1     1.0914     2.0624   15 H    1 1-1
  32 C    1     1.3914     2.6293   35 C    0 0 0
  32 C    1     1.4021     2.6496   31 C    0 0 0
  32 C    1     2.1668     4.0947   18 H    0 0 0
  32 C    1     2.4179     4.5692   34 C    0 0 0
  32 C    1     2.4251     4.5827   36 C    0 0 0

  33 C    1     1.0913     2.0623   16 H    0 0 0
  33 C    1     1.3914     2.6294   34 C    0 0 0
  33 C    1     1.4025     2.6504   36 C    0 0 0
  33 C    1     2.1679     4.0968   17 H    0 0 0
  33 C    1     2.4178     4.5690   35 C    0 0 0
  33 C    1     2.4244     4.5814   31 C    0 0 0

  34 C    1     1.0915     2.0626   17 H    0 0 0
  34 C    1     1.3914     2.6294   33 C    0 0 0
  34 C    1     1.4021     2.6497   31 C    0 0 0
  34 C    1     2.1667     4.0945   16 H    0 0 0
  34 C    1     2.4179     4.5692   32 C    0 0 0
  34 C    1     2.4253     4.5832   36 C    0 0 0

  35 C    1     1.0914     2.0624   18 H    0 0 0
  35 C    1     1.3914     2.6293   32 C    0 0 0
  35 C    1     1.4025     2.6503   36 C    0 0 0
  35 C    1     2.1678     4.0966   15 H    1 1-1
  35 C    1     2.4178     4.5690   33 C    0 0 0
  35 C    1     2.4245     4.5817   31 C    0 0 0

  36 C    1     1.4025     2.6503   35 C    0 0 0
  36 C    1     1.4025     2.6504   33 C    0 0 0
  36 C    1     1.5516     2.9322    5 B    0 0 0
  36 C    1     2.1486     4.0602   18 H    0 0 0
  36 C    1     2.1487     4.0605   16 H    0 0 0
  36 C    1     2.4251     4.5827   32 C    0 0 0

  37 O    1     1.3791     2.6061    3 B    0 0 0
  37 O    1     1.3791     2.6061    1 B   -1-2 3
  37 O    1     2.3880     4.5126   38 O   -1-2 3
  37 O    1     2.3882     4.5130   39 O    0 0 0
  37 O    1     2.5383     4.7966   31 C   -1-1 2
  37 O    1     2.5384     4.7968   25 C   -1-2 3

  38 O    1     1.3793     2.6065    1 B    0 0 0
  38 O    1     1.3793     2.6065    2 B    0 0 0
  38 O    1     2.3880     4.5126   37 O    1 2-3
  38 O    1     2.3882     4.5131   39 O    1 2-3
  38 O    1     2.5391     4.7981   19 C    1 1-1
  38 O    1     2.5395     4.7990   25 C    0 0 0

  39 O    1     1.3793     2.6064    3 B    0 0 0
  39 O    1     1.3793     2.6065    2 B   -1-2 3
  39 O    1     2.3882     4.5130   37 O    0 0 0
  39 O    1     2.3882     4.5131   38 O   -1-2 3
  39 O    1     2.5390     4.7980   19 C    0-1 2
  39 O    1     2.5391     4.7982   31 C   -1-1 2

  40 O    1     1.3795     2.6068    6 B    0 0 0
  40 O    1     1.3795     2.6068    4 B    0 0 0
  40 O    1     2.3880     4.5126   42 O    0 0 0
  40 O    1     2.3884     4.5134   41 O    0 0 0
  40 O    1     2.5400     4.7998   24 C    0 0 0
  40 O    1     2.5403     4.8005   30 C    0 0 0

  41 O    1     1.3795     2.6069    5 B    0 0 0
  41 O    1     1.3795     2.6070    4 B    0 0 0
  41 O    1     2.3881     4.5128   42 O    0 0 0
  41 O    1     2.3884     4.5134   40 O    0 0 0
  41 O    1     2.5404     4.8006   24 C    0 0 0
  41 O    1     2.5405     4.8008   36 C    0 0 0

  42 O    1     1.3796     2.6071    6 B    0 0 0
  42 O    1     1.3797     2.6072    5 B    0 0 0
  42 O    1     2.3880     4.5126   40 O    0 0 0
  42 O    1     2.3881     4.5128   41 O    0 0 0
  42 O    1     2.5409     4.8016   36 C    0 0 0
  42 O    1     2.5410     4.8019   30 C    0 0 0


 SYMMETRY ALLOWED INTERNAL DEGREE(S) OF FREEDOM: 123
 TTTTTTTTTTTTTTTTTTTTTTTTTTTTTT SYMM        TELAPSE        0.41 TCPU        0.41
 TTTTTTTTTTTTTTTTTTTTTTTTTTTTTT INT_SCREEN  TELAPSE        0.45 TCPU        0.44

 DFT PARAMETERS

     ATOM       ELECTRONS   NET CHARGE   R(ANGSTROM)
   1   5  B       5.0000      0.0000     0.89000000
   7   1  H       1.0000      0.0000     1.11000000
  19   6  C       6.0000      0.0000     0.77000000
  37   8  O       8.0000      0.0000     0.74000000

 SIZE OF GRID=    1326642
 TTTTTTTTTTTTTTTTTTTTTTTTTTTTTT MAKE_GRID2  TELAPSE        8.24 TCPU        8.23
 BECKE WEIGHT FUNCTION
 RADSAFE =     2.00
 TOLERANCES - DENSITY:10**- 6; POTENTIAL:10**- 9; GRID WGT:10**-14

 RADIAL INTEGRATION  - INTERVALS (POINTS,UPPER LIMIT):            1( 75,  4.0*R)

 ANGULAR INTEGRATION - INTERVALS (ACCURACY LEVEL [N. POINTS] UPPER LIMIT):
  1(  4[  86]   0.2)  2(  8[ 194]   0.5)  3( 12[ 350]   0.9)  4( 16[ 974]   3.5)
  5( 12[ 350]9999.0)
 TTTTTTTTTTTTTTTTTTTTTTTTTTTTTT INT_CALC    TELAPSE        8.31 TCPU        8.29
 EEEEEEEEEE INT_CALC TERMINATION  DATE 19 02 2026 TIME 19:08:48.7

 *******************************************************************************
 cof-1_z40_L080_incl                                                             
 CRYSTAL - SCF - TYPE OF CALCULATION :  RESTRICTED CLOSED SHELL
 *******************************************************************************

 CAPPA:IS1  2;IS2  2;IS3  8; K PTS MONK NET  20; SYMMOPS:K SPACE   2;G SPACE   1

 TTTTTTTTTTTTTTTTTTTTTTTTTTTTTT SDIK        TELAPSE        8.92 TCPU       16.64

 AAAAAAAAAAAAAAAAAAAAAAAAAAAAAAAAAAAAAAAAAAAAAAAAAAAAAAAAAAAAAAAAAAAAAAAAAAAAAAA
         ATOMIC WAVEFUNCTION(S)


 NUCLEAR CHARGE  5.0  SYMMETRY SPECIES            S    P
 N. ELECTRONS    5.0  NUMBER OF PRIMITIVE GTOS    8    4
                      NUMBER OF CONTRACTED GTOS   4    2
                      NUMBER OF CLOSED SHELLS     2    0
                      OPEN SHELL OCCUPATION       0    1

  ZNUC  SCFIT    TOTAL HF ENERGY   KINETIC ENERGY   VIRIAL THEOREM ACCURACY
   5.0    11    -2.451164084E+01  2.462155050E+01 -1.995536038E+00  1.5E-06

 NUCLEAR CHARGE  1.0  SYMMETRY SPECIES            S
 N. ELECTRONS    1.0  NUMBER OF PRIMITIVE GTOS    4
                      NUMBER OF CONTRACTED GTOS   2
                      NUMBER OF CLOSED SHELLS     0
                      OPEN SHELL OCCUPATION       1

  ZNUC  SCFIT    TOTAL HF ENERGY   KINETIC ENERGY   VIRIAL THEOREM ACCURACY
   1.0     1    -4.977266687E-01  5.190767460E-01 -1.958869132E+00  0.0E+00

 NUCLEAR CHARGE  6.0  SYMMETRY SPECIES            S    P
 N. ELECTRONS    6.0  NUMBER OF PRIMITIVE GTOS    8    4
                      NUMBER OF CONTRACTED GTOS   4    2
                      NUMBER OF CLOSED SHELLS     2    0
                      OPEN SHELL OCCUPATION       0    2

  ZNUC  SCFIT    TOTAL HF ENERGY   KINETIC ENERGY   VIRIAL THEOREM ACCURACY
   6.0     9    -3.766704647E+01  3.775180683E+01 -1.997754800E+00  1.1E-06

 NUCLEAR CHARGE  8.0  SYMMETRY SPECIES            S    P
 N. ELECTRONS    8.0  NUMBER OF PRIMITIVE GTOS    8    4
                      NUMBER OF CONTRACTED GTOS   4    2
                      NUMBER OF CLOSED SHELLS     2    0
                      OPEN SHELL OCCUPATION       0    4

  ZNUC  SCFIT    TOTAL HF ENERGY   KINETIC ENERGY   VIRIAL THEOREM ACCURACY
   8.0    12    -7.477373220E+01  7.477365593E+01 -2.000001020E+00  3.8E-06

 AAAAAAAAAAAAAAAAAAAAAAAAAAAAAAAAAAAAAAAAAAAAAAAAAAAAAAAAAAAAAAAAAAAAAAAAAAAAAAA

 CHARGE NORMALIZATION FACTOR   1.00000000
 TOTAL ATOMIC CHARGES:
   5.0000000   5.0000000   5.0000000   5.0000000   5.0000000   5.0000000
   1.0000000   1.0000000   1.0000000   1.0000000   1.0000000   1.0000000
   1.0000000   1.0000000   1.0000000   1.0000000   1.0000000   1.0000000
   6.0000000   6.0000000   6.0000000   6.0000000   6.0000000   6.0000000
   6.0000000   6.0000000   6.0000000   6.0000000   6.0000000   6.0000000
   6.0000000   6.0000000   6.0000000   6.0000000   6.0000000   6.0000000
   8.0000000   8.0000000   8.0000000   8.0000000   8.0000000   8.0000000
 TTTTTTTTTTTTTTTTTTTTTTTTTTTTTT MOQGAD      TELAPSE        8.96 TCPU       17.98
 TTTTTTTTTTTTTTTTTTTTTTTTTTTTTT SHELLXN     TELAPSE       14.39 TCPU      191.62
 TTTTTTTTTTTTTTTTTTTTTTTTTTTTTT MONMO3      TELAPSE       14.52 TCPU      195.80
 NUMERICALLY INTEGRATED DENSITY    198.0000169088
 TTTTTTTTTTTTTTTTTTTTTTTTTTTTTT NUMDFT      TELAPSE       15.10 TCPU      214.15
 CYC   0 ETOT(AU) -1.295955343920E+03 DETOT -1.30E+03 tst  0.00E+00 PX  1.00E+00
 TTTTTTTTTTTTTTTTTTTTTTTTTTTTTT DIIS        TELAPSE       15.13 TCPU      215.29
 TTTTTTTTTTTTTTTTTTTTTTTTTTTTTT FDIK        TELAPSE       15.61 TCPU      230.53
 INSULATING STATE
 TOP OF VALENCE BANDS -    BAND     99; K    1; EIG -3.1227693E-01 AU
 BOTTOM OF VIRTUAL BANDS - BAND    100; K    1; EIG -1.5806063E-01 AU
 DIRECT ENERGY BAND GAP:   4.1964 eV
 TTTTTTTTTTTTTTTTTTTTTTTTTTTTTT PDIG        TELAPSE       15.94 TCPU      236.71
 CHARGE NORMALIZATION FACTOR   1.00000000
 TOTAL ATOMIC CHARGES:
   4.1574947   4.1626180   4.1630015   4.1624923   4.1621964   4.1569232
   0.7852216   0.7853423   0.7852043   0.7853495   0.7853515   0.7855069
   0.7853415   0.7854688   0.7852084   0.7854166   0.7851707   0.7853334
   6.0433448   6.2655786   6.2655445   6.2652668   6.2652469   6.0427576
   6.0454072   6.2656559   6.2657298   6.2655688   6.2657303   6.0441139
   6.0437647   6.2650150   6.2656168   6.2651969   6.2658283   6.0423193
   8.6936274   8.6938521   8.6936705   8.6940993   8.6940499   8.6943732
 TTTTTTTTTTTTTTTTTTTTTTTTTTTTTT MOQGAD      TELAPSE       15.98 TCPU      236.75
 TTTTTTTTTTTTTTTTTTTTTTTTTTTTTT SHELLXN     TELAPSE       21.64 TCPU      417.05
 TTTTTTTTTTTTTTTTTTTTTTTTTTTTTT MONMO3      TELAPSE       21.77 TCPU      421.21
 NUMERICALLY INTEGRATED DENSITY    198.0000270723
 TTTTTTTTTTTTTTTTTTTTTTTTTTTTTT NUMDFT      TELAPSE       22.35 TCPU      439.79
 CYC   1 ETOT(AU) -1.288812381388E+03 DETOT  7.14E+00 tst  0.00E+00 PX  1.00E+00
 TTTTTTTTTTTTTTTTTTTTTTTTTTTTTT DIIS        TELAPSE       22.40 TCPU      441.30
 DIIS TEST: 0.11161E+01 AT SCF   CYCLE   1 - MIX   30 %
 TTTTTTTTTTTTTTTTTTTTTTTTTTTTTT FDIK        TELAPSE       22.88 TCPU      456.73
 INSULATING STATE
 TOP OF VALENCE BANDS -    BAND     99; K    1; EIG -2.2390376E-01 AU
 BOTTOM OF VIRTUAL BANDS - BAND    100; K    1; EIG -8.3152328E-02 AU
 DIRECT ENERGY BAND GAP:   3.8300 eV
 TTTTTTTTTTTTTTTTTTTTTTTTTTTTTT PDIG        TELAPSE       23.21 TCPU      462.92
 CHARGE NORMALIZATION FACTOR   1.00000000
 TOTAL ATOMIC CHARGES:
   4.7144173   4.7097829   4.7103348   4.7102399   4.7096637   4.7147928
   0.9073870   0.9074971   0.9074934   0.9072192   0.9067945   0.9070913
   0.9068003   0.9069874   0.9074095   0.9072867   0.9074357   0.9075063
   5.8710698   6.1366326   6.1369637   6.1307703   6.1310131   5.8738961
   5.8783591   6.1283971   6.1298502   6.1288538   6.1298230   5.8816390
   5.8712011   6.1309078   6.1309930   6.1369502   6.1364564   5.8737514
   8.3353498   8.3358172   8.3322075   8.3354208   8.3315828   8.3359547
 TTTTTTTTTTTTTTTTTTTTTTTTTTTTTT MOQGAD      TELAPSE       23.25 TCPU      462.96
 TTTTTTTTTTTTTTTTTTTTTTTTTTTTTT SHELLXN     TELAPSE       28.91 TCPU      643.21
 TTTTTTTTTTTTTTTTTTTTTTTTTTTTTT MONMO3      TELAPSE       29.04 TCPU      647.38
 NUMERICALLY INTEGRATED DENSITY    198.0000313794
 TTTTTTTTTTTTTTTTTTTTTTTTTTTTTT NUMDFT      TELAPSE       29.62 TCPU      665.95
 CYC   2 ETOT(AU) -1.289007118045E+03 DETOT -1.95E-01 tst  3.67E-03 PX  1.59E-01
 TTTTTTTTTTTTTTTTTTTTTTTTTTTTTT DIIS        TELAPSE       29.67 TCPU      667.50
 DIIS TEST: 0.46369E+00 AT SCF   CYCLE   2 - DIIS ACTIVE - HISTORY:     2 CYCLES
 TTTTTTTTTTTTTTTTTTTTTTTTTTTTTT FDIK        TELAPSE       30.15 TCPU      682.93
 INSULATING STATE
 TOP OF VALENCE BANDS -    BAND     99; K    1; EIG -2.3720668E-01 AU
 BOTTOM OF VIRTUAL BANDS - BAND    100; K    1; EIG -7.7535768E-02 AU
 DIRECT ENERGY BAND GAP:   4.3449 eV
 TTTTTTTTTTTTTTTTTTTTTTTTTTTTTT PDIG        TELAPSE       30.48 TCPU      689.11
 CHARGE NORMALIZATION FACTOR   1.00000000
 TOTAL ATOMIC CHARGES:
   4.5035695   4.5021319   4.5026301   4.5025281   4.5019760   4.5035295
   0.8861802   0.8864243   0.8863589   0.8862551   0.8850454   0.8855744
   0.8850983   0.8854438   0.8862964   0.8863018   0.8862852   0.8863430
   5.8899585   6.1623216   6.1616755   6.1617936   6.1617586   5.8897354
   5.8906678   6.1623133   6.1618757   6.1622564   6.1619752   5.8892912
   5.8899692   6.1617676   6.1619778   6.1620178   6.1618274   5.8896854
   8.5107336   8.5111416   8.5123877   8.5109502   8.5126092   8.5113379
 TTTTTTTTTTTTTTTTTTTTTTTTTTTTTT MOQGAD      TELAPSE       30.52 TCPU      689.15
 TTTTTTTTTTTTTTTTTTTTTTTTTTTTTT SHELLXN     TELAPSE       36.18 TCPU      869.36
 TTTTTTTTTTTTTTTTTTTTTTTTTTTTTT MONMO3      TELAPSE       36.31 TCPU      873.53
 NUMERICALLY INTEGRATED DENSITY    198.0000310769
 TTTTTTTTTTTTTTTTTTTTTTTTTTTTTT NUMDFT      TELAPSE       36.89 TCPU      892.12
 CYC   3 ETOT(AU) -1.289102628274E+03 DETOT -9.55E-02 tst  6.94E-04 PX  6.35E-02
 TTTTTTTTTTTTTTTTTTTTTTTTTTTTTT DIIS        TELAPSE       36.95 TCPU      893.97
 DIIS TEST: 0.13279E-01 AT SCF   CYCLE   3 - DIIS ACTIVE - HISTORY:     3 CYCLES
 TTTTTTTTTTTTTTTTTTTTTTTTTTTTTT FDIK        TELAPSE       37.43 TCPU      909.36
 INSULATING STATE
 TOP OF VALENCE BANDS -    BAND     99; K    1; EIG -2.4633288E-01 AU
 BOTTOM OF VIRTUAL BANDS - BAND    100; K    1; EIG -8.5941894E-02 AU
 DIRECT ENERGY BAND GAP:   4.3645 eV
 TTTTTTTTTTTTTTTTTTTTTTTTTTTTTT PDIG        TELAPSE       37.76 TCPU      915.54
 CHARGE NORMALIZATION FACTOR   1.00000000
 TOTAL ATOMIC CHARGES:
   4.5094182   4.5073037   4.5078263   4.5075740   4.5069350   4.5093135
   0.8693478   0.8694333   0.8696504   0.8695275   0.8688086   0.8690186
   0.8688211   0.8689232   0.8695999   0.8695905   0.8693867   0.8694237
   5.9402960   6.1684558   6.1688786   6.1647335   6.1648543   5.9420515
   5.9448686   6.1635487   6.1647661   6.1638012   6.1646865   5.9471616
   5.9406224   6.1646988   6.1650061   6.1685722   6.1686340   5.9417003
   8.4795232   8.4798903   8.4769273   8.4797378   8.4765227   8.4801606
 TTTTTTTTTTTTTTTTTTTTTTTTTTTTTT MOQGAD      TELAPSE       37.80 TCPU      915.59
 TTTTTTTTTTTTTTTTTTTTTTTTTTTTTT SHELLXN     TELAPSE       43.47 TCPU     1095.89
 TTTTTTTTTTTTTTTTTTTTTTTTTTTTTT MONMO3      TELAPSE       43.60 TCPU     1100.08
 NUMERICALLY INTEGRATED DENSITY    198.0000307513
 TTTTTTTTTTTTTTTTTTTTTTTTTTTTTT NUMDFT      TELAPSE       44.18 TCPU     1118.63
 CYC   4 ETOT(AU) -1.289105415602E+03 DETOT -2.79E-03 tst  3.05E-05 PX  1.30E-02
 TTTTTTTTTTTTTTTTTTTTTTTTTTTTTT DIIS        TELAPSE       44.24 TCPU     1120.57
 DIIS TEST: 0.38767E-02 AT SCF   CYCLE   4 - DIIS ACTIVE - HISTORY:     4 CYCLES
 TTTTTTTTTTTTTTTTTTTTTTTTTTTTTT FDIK        TELAPSE       44.72 TCPU     1136.00
 INSULATING STATE
 TOP OF VALENCE BANDS -    BAND     99; K    1; EIG -2.4472287E-01 AU
 BOTTOM OF VIRTUAL BANDS - BAND    100; K    1; EIG -8.5742748E-02 AU
 DIRECT ENERGY BAND GAP:   4.3261 eV
 TTTTTTTTTTTTTTTTTTTTTTTTTTTTTT PDIG        TELAPSE       45.05 TCPU     1142.18
 CHARGE NORMALIZATION FACTOR   1.00000000
 TOTAL ATOMIC CHARGES:
   4.5124556   4.5096563   4.5101838   4.5100772   4.5094720   4.5125095
   0.8722252   0.8724468   0.8724286   0.8723085   0.8713483   0.8718002
   0.8713842   0.8716812   0.8723686   0.8723640   0.8723089   0.8723946
   5.9213646   6.1688861   6.1684393   6.1662569   6.1662363   5.9217640
   5.9246193   6.1659406   6.1659205   6.1659814   6.1660131   5.9242437
   5.9213901   6.1662394   6.1664162   6.1686957   6.1684810   5.9217018
   8.4884679   8.4888994   8.4884463   8.4886399   8.4884610   8.4890824
 TTTTTTTTTTTTTTTTTTTTTTTTTTTTTT MOQGAD      TELAPSE       45.09 TCPU     1142.22
 TTTTTTTTTTTTTTTTTTTTTTTTTTTTTT SHELLXN     TELAPSE       50.75 TCPU     1322.50
 TTTTTTTTTTTTTTTTTTTTTTTTTTTTTT MONMO3      TELAPSE       50.88 TCPU     1326.66
 NUMERICALLY INTEGRATED DENSITY    198.0000307892
 TTTTTTTTTTTTTTTTTTTTTTTTTTTTTT NUMDFT      TELAPSE       51.46 TCPU     1345.21
 CYC   5 ETOT(AU) -1.289106305707E+03 DETOT -8.90E-04 tst  6.82E-06 PX  6.62E-03
 TTTTTTTTTTTTTTTTTTTTTTTTTTTTTT DIIS        TELAPSE       51.53 TCPU     1347.43
 DIIS TEST: 0.68921E-04 AT SCF   CYCLE   5 - DIIS ACTIVE - HISTORY:     5 CYCLES
 TTTTTTTTTTTTTTTTTTTTTTTTTTTTTT FDIK        TELAPSE       52.02 TCPU     1362.86
 INSULATING STATE
 TOP OF VALENCE BANDS -    BAND     99; K    1; EIG -2.4459899E-01 AU
 BOTTOM OF VIRTUAL BANDS - BAND    100; K    1; EIG -8.5169990E-02 AU
 DIRECT ENERGY BAND GAP:   4.3383 eV
 TTTTTTTTTTTTTTTTTTTTTTTTTTTTTT PDIG        TELAPSE       52.35 TCPU     1369.04
 CHARGE NORMALIZATION FACTOR   1.00000000
 TOTAL ATOMIC CHARGES:
   4.5117633   4.5095542   4.5100741   4.5098492   4.5092466   4.5116505
   0.8731455   0.8732531   0.8733234   0.8731890   0.8723417   0.8726256
   0.8723556   0.8725285   0.8732629   0.8732450   0.8731946   0.8732357
   5.9211097   6.1681745   6.1684150   6.1656287   6.1657360   5.9224054
   5.9237863   6.1649511   6.1658915   6.1651579   6.1658155   5.9253533
   5.9214059   6.1656079   6.1659110   6.1682179   6.1682287   5.9220733
   8.4882947   8.4886436   8.4870796   8.4885373   8.4868191   8.4889174
 TTTTTTTTTTTTTTTTTTTTTTTTTTTTTT MOQGAD      TELAPSE       52.39 TCPU     1369.08
 TTTTTTTTTTTTTTTTTTTTTTTTTTTTTT SHELLXN     TELAPSE       58.05 TCPU     1549.33
 TTTTTTTTTTTTTTTTTTTTTTTTTTTTTT MONMO3      TELAPSE       58.18 TCPU     1553.49
 NUMERICALLY INTEGRATED DENSITY    198.0000308064
 TTTTTTTTTTTTTTTTTTTTTTTTTTTTTT NUMDFT      TELAPSE       58.77 TCPU     1572.10
 CYC   6 ETOT(AU) -1.289106326050E+03 DETOT -2.03E-05 tst  2.21E-07 PX  1.02E-03
 TTTTTTTTTTTTTTTTTTTTTTTTTTTTTT DIIS        TELAPSE       58.84 TCPU     1574.28
 DIIS TEST: 0.52772E-05 AT SCF   CYCLE   6 - DIIS ACTIVE - HISTORY:     6 CYCLES
 TTTTTTTTTTTTTTTTTTTTTTTTTTTTTT FDIK        TELAPSE       59.32 TCPU     1589.74
 INSULATING STATE
 TOP OF VALENCE BANDS -    BAND     99; K    1; EIG -2.4456476E-01 AU
 BOTTOM OF VIRTUAL BANDS - BAND    100; K    1; EIG -8.5261100E-02 AU
 DIRECT ENERGY BAND GAP:   4.3349 eV
 TTTTTTTTTTTTTTTTTTTTTTTTTTTTTT PDIG        TELAPSE       59.65 TCPU     1595.92
 CHARGE NORMALIZATION FACTOR   1.00000000
 TOTAL ATOMIC CHARGES:
   4.5121404   4.5095323   4.5100587   4.5099510   4.5093436   4.5121738
   0.8730833   0.8732959   0.8733138   0.8731915   0.8722197   0.8726713
   0.8722577   0.8725494   0.8732549   0.8732457   0.8731694   0.8732415
   5.9217296   6.1681795   6.1677580   6.1654925   6.1654907   5.9221972
   5.9250949   6.1651731   6.1651448   6.1652044   6.1652473   5.9247906
   5.9217433   6.1654668   6.1656753   6.1679827   6.1678091   5.9221485
   8.4880551   8.4884961   8.4877632   8.4882196   8.4877673   8.4886765
 TTTTTTTTTTTTTTTTTTTTTTTTTTTTTT MOQGAD      TELAPSE       59.69 TCPU     1595.96
 TTTTTTTTTTTTTTTTTTTTTTTTTTTTTT SHELLXN     TELAPSE       65.35 TCPU     1776.12
 TTTTTTTTTTTTTTTTTTTTTTTTTTTTTT MONMO3      TELAPSE       65.48 TCPU     1780.29
 NUMERICALLY INTEGRATED DENSITY    198.0000308084
 TTTTTTTTTTTTTTTTTTTTTTTTTTTTTT NUMDFT      TELAPSE       66.06 TCPU     1798.88
 CYC   7 ETOT(AU) -1.289106326255E+03 DETOT -2.05E-07 tst  2.25E-08 PX  3.81E-04
 TTTTTTTTTTTTTTTTTTTTTTTTTTTTTT DIIS        TELAPSE       66.15 TCPU     1801.48
 DIIS TEST: 0.11248E-05 AT SCF   CYCLE   7 - DIIS ACTIVE - HISTORY:     7 CYCLES
 TTTTTTTTTTTTTTTTTTTTTTTTTTTTTT FDIK        TELAPSE       66.63 TCPU     1816.89
 INSULATING STATE
 TOP OF VALENCE BANDS -    BAND     99; K    1; EIG -2.4457871E-01 AU
 BOTTOM OF VIRTUAL BANDS - BAND    100; K    1; EIG -8.5261270E-02 AU
 DIRECT ENERGY BAND GAP:   4.3352 eV
 TTTTTTTTTTTTTTTTTTTTTTTTTTTTTT PDIG        TELAPSE       66.96 TCPU     1823.07
 CHARGE NORMALIZATION FACTOR   1.00000000
 TOTAL ATOMIC CHARGES:
   4.5121279   4.5096335   4.5101561   4.5099852   4.5093805   4.5120918
   0.8730744   0.8732336   0.8732777   0.8731508   0.8722406   0.8725999
   0.8722641   0.8724928   0.8732170   0.8732071   0.8731393   0.8732005
   5.9213992   6.1681411   6.1680686   6.1655267   6.1655673   5.9222816
   5.9243999   6.1649985   6.1655083   6.1651355   6.1655048   5.9250898
   5.9215806   6.1655097   6.1657416   6.1680834   6.1679807   5.9220652
   8.4881929   8.4885770   8.4875491   8.4884047   8.4874103   8.4888105
 TTTTTTTTTTTTTTTTTTTTTTTTTTTTTT MOQGAD      TELAPSE       67.00 TCPU     1823.11
 TTTTTTTTTTTTTTTTTTTTTTTTTTTTTT SHELLXN     TELAPSE       72.67 TCPU     2003.33
 +++ ENERGIES IN A.U. +++
 ::: EXT EL-POLE                                  -1.3224212110609E+03
 ::: EXT EL-SPHEROPOLE                             1.4291369921957E+01
 ::: BIELET ZONE E-E                               2.0021881953435E+03
 ::: TOTAL E-E                                     6.9405835420454E+02
 ::: TOTAL E-N + N-E                              -3.2178571565377E+03
 ::: TOTAL N-N                                     8.8461692688189E+01
 ::: KINETIC ENERGY                                1.2799510119120E+03
 ::: PSEUDO TOTAL   ENERGY                        -1.1553860977330E+03
 ::: VIRIAL COEFFICIENT                            1.0511489410175E+00
 TTTTTTTTTTTTTTTTTTTTTTTTTTTTTT MONMO3      TELAPSE       72.79 TCPU     2007.50
 NUMERICALLY INTEGRATED DENSITY    198.0000308082
 EXCHANGE ENERGY: -0.126030220868E+03  CORRELATION ENERGY: -0.769000794239E+01
 TTTTTTTTTTTTTTTTTTTTTTTTTTTTTT NUMDFT      TELAPSE       73.38 TCPU     2026.11
 CYC   8 ETOT(AU) -1.289106326543E+03 DETOT -2.88E-07 tst  6.52E-09 PX  3.81E-04

 == SCF ENDED - CONVERGENCE ON ENERGY      E(AU) -1.2891063265433E+03 CYCLES   8


 ENERGY EXPRESSION=HARTREE+FOCK EXCH*0.00000+(HSESOL     EXCH)*1.00000+PBESOL     CORR


 TOTAL ENERGY(DFT)(AU)(  8) -1.2891063265433E+03 DE-2.9E-07 tester 6.5E-09
 TTTTTTTTTTTTTTTTTTTTTTTTTTTTTT EDFT        TELAPSE       73.38 TCPU     2026.12
 
 INFORMATION **** DFTD3 ENERGY **** CALCULATE DFTD3 ENERGY

           DFT-D V3(BJ)
 DF                                         hsesol3c  
 parameters
 s6       :    1.0000
 s8       :    0.0000
 a1       :    0.5196
 a2       :    4.9385
 k1 k3    :   16.0000   -4.0000
 Cutoff   :   50.2022
 CN-Cutoff:   21.1671
 ABC-Cutoff:   21.1671
 
 Edisp /kcal,au:   -22.9970 -0.03664806

 E6    /kcal :   -24.1509
 E8    /kcal :     0.0000
 E6(ABC) "   :   1.153882
 
 INFORMATION **** DFTD3 ENERGY **** NORMAL TERMINATION OF DFTD3 MODULE

 GCP ENERGY CALCULATION
  level        hsesol3c            basis:hsesol3c
  Nbf            474
  Atoms           42

  Parameters: 
  sigma     1.0000
  eta       1.4281
  alpha     0.2936
  beta      1.9467

  dmp_scal      4.0000
  dmp_exp       6.0000
 cutoffs: 
   distance [bohr] 60.0
   noise    [a.u.] 2.2E-16
 SR-damping   T
 ** gCP correction **
  Egcp:        0.0829486758 / (a.u.) ||      52.0511 / (kcal/mol)
 INFORMATION **** GCP **** NORMAL TERMINATION OF GCP MODULE

 *******************************************************************************

 DFT-D3-GCP DISPERSION AND COUNTERPOISE CORRECTION

 D3 DISPERSION ENERGY (AU)      -3.6648060883309E-02
 GCP ENERGY (AU)                 8.2948675836609E-02
 TOTAL ENERGY + DISP + GCP (AU) -1.2890600259283E+03

 *******************************************************************************

 EIGENVECTORS IN FORTRAN UNIT  8
 TTTTTTTTTTTTTTTTTTTTTTTTTTTTTT END         TELAPSE       74.90 TCPU     2033.58
 EEEEEEEEEE TERMINATION  DATE 19 02 2026 TIME 19:09:55.3
