 Default number of threads is:           32

         
 *******************************************************************************
 *                                                                             *
 *                               CRYSTAL23                                     *
 *                      public : 1.0.1 - October 2022                          *
 *                       HTTP://WWW.CRYSTAL.UNITO.IT                           *
 *                                                                             *
 *                              MAIN AUTHORS                                   *
 *                                                                             *
 *  R. DOVESI(1,11), V.R. SAUNDERS(2), C. ROETTI(1,11), R. ORLANDO(1,11),      *
 *  C.M. ZICOVICH-WILSON(1,3), F. PASCALE(4), B. CIVALLERI(1,11),              *
 *  K. DOLL(5), N.M. HARRISON(6), I.J. BUSH(7), Ph. D'ARCO(8),                 *
 *  M. LLUNELL(9), M. CAUSA'(10), Y. NOEL(8), L. MASCHIO(1,11), A. ERBA(1,11)  *
 *  M. RE'RAT(14), S. CASASSA(1,11), B.G. SEARLE(2), J.K. DESMARAIS(1)         *
 *                                                                             *
 *        CONTRIBUTIONS TO THE CODE HAVE ALSO BEEN GIVEN BY                    *
 *                                                                             *
 *  M. FERRABONE(1,11), M. DE LA PIERRE(1,11), M. FERRERO(1,11),               *
 *  J. BAIMA(1,11), E. ALBANESE(1,11), M.F. PEINTINGER(12), R. BAST(13),       *
 *  B. KIRTMAN(15), V. LACIVITA(1,11), R. DEMICHELIS(1,16)                     *
 *  G. BRANDEBURG(17), S. SALUSTRO(1,11), G. SANSONE(1,11)                     *
 *  M.T. RUGGIERO(18), L.E. DAGA(1), L. DONA'(1), A. COSSARD(1)                *
 *                                                                             *
 * (1) THEORETICAL CHEMISTRY GROUP - UNIVERSITA' DI TORINO - TORINO (ITALY)    *
 * (2) SCIENTIFIC COMPUTING DEPARTMENT - STFC DARESBURY (UK)                   *
 * (3) UNIVERSIDAD AUTONOMA DEL ESTADO DE MORELOS - CUERNAVACA (MEXICO)        *
 * (4) UNIVERSITE' DE LORRAINE - NANCY (FRANCE)                                *
 * (5) UNIVERSITAET STUTTGART- STUTTGART (GERMANY)                             *
 * (6) IMPERIAL COLLEGE - LONDON (UK)                                          *
 * (7) SCIENTIFIC COMPUTING DEPARTMENT - STFC RAL (UK)                         *
 * (8) UPMC - SORBONNE UNIVERSITES - PARIS (FRANCE)                            *
 * (9) UNIVERSIDAD DE BARCELONA - BARCELONA (SPAIN)                            *
 *(10) UNIVERSITA' DI NAPOLI "FEDERICO II" - NAPOLI (ITALY)                    *
 *(11) NIS - NANOSTRUCTURED INTERFACES AND SURFACES - TORINO (ITALY)           *
 *(12) MPI FUER CHEMISCHE ENERGIEKONVERSION - MUELHEIM AN DER RUHR (GERMANY)   *
 *(13) UNIVERSITY OF TROMSO - TROMSO (NORWAY)                                  *
 *(14) UNIVERSITE' DE PAU ET DES PAYS DE L'ADOUR - PAU (FRANCE)                *
 *(15) UNIVERSITY OF CALIFORNIA SANTA BARBARA - SANTA BARBARA (USA)            *
 *(16) CURTIN UNIVERSITY - PERTH (AUSTRALIA)                                   *
 *(17) UNIVERSITY COLLEGE LONDON - LONDON (UK)                                 *
 *(18) UNIVERSITY OF VERMONT - BURLINGTON (USA)                                *
 *                                                                             *
 *******************************************************************************
 EEEEEEEEEE STARTING  DATE 19 02 2026 TIME 18:58:39.4
 cof-1_z38_L060_incl                                                             

 CRYSTAL CALCULATION
 (INPUT ACCORDING TO THE INTERNATIONAL TABLES FOR X-RAY CRYSTALLOGRAPHY)
 CRYSTAL FAMILY                       :  TRICLINIC   
 CRYSTAL CLASS  (GROTH - 1921)        :  TRICLINIC PEDIAL                     

 SPACE GROUP (NONCENTROSYMMETRIC)     :  P 1             

 LATTICE PARAMETERS  (ANGSTROMS AND DEGREES) - CONVENTIONAL CELL
        A           B           C        ALPHA        BETA       GAMMA
    15.02361    15.02392     7.10211    42.97413    89.99997   119.99596


 NUMBER OF IRREDUCIBLE ATOMS IN THE CONVENTIONAL CELL:   42

 INPUT COORDINATES

 ATOM AT. N.              COORDINATES
   1   5     4.981219900000E-01 -3.822370000000E-03  5.012523400000E-01
   2   5     6.571776500000E-01  1.552372900000E-01  5.012523600000E-01
   3   5     4.987270200000E-01  1.564388000000E-01  4.986094300000E-01
   4   5     1.116967000000E-01  3.824926300000E-01  5.012523600000E-01
   5   5     2.708046700000E-01  3.824718600000E-01  5.012523500000E-01
   6   5     2.713942500000E-01  5.428297800000E-01  4.986094300000E-01
   7   1     7.887482700000E-01  8.031611000000E-02  4.957730500000E-01
   8   1    -1.746766000000E-02  4.628258700000E-01  4.949351600000E-01
   9   1     7.888989600000E-01  3.659043200000E-01  4.948062200000E-01
  10   1    -1.734369000000E-02  1.775020000000E-01  4.948383800000E-01
  11   1     5.747902400000E-01 -1.355038400000E-01  5.042176300000E-01
  12   1     1.924943800000E-01  6.705429600000E-01  5.050555600000E-01
  13   1     2.894049000000E-01 -1.359038700000E-01  5.051845900000E-01
  14   1     4.778545900000E-01  6.704084000000E-01  5.051522100000E-01
  15   1     5.767773800000E-01  3.654402500000E-01  4.957731000000E-01
  16   1     1.948596500000E-01  1.773817800000E-01  4.949351100000E-01
  17   1     2.917681300000E-01  8.065519000000E-02  4.948061200000E-01
  18   1     4.802109800000E-01  4.627749400000E-01  4.948384800000E-01
  19   6     7.769633500000E-01  2.160664100000E-01  4.985127300000E-01
  20   6     8.321640300000E-01  1.641122300000E-01  4.959019900000E-01
  21   6    -6.088496000000E-02  3.786159000000E-01  4.956764600000E-01
  22   6     8.320229900000E-01  3.248106800000E-01  4.963533000000E-01
  23   6    -6.060152000000E-02  2.181710700000E-01  4.946127600000E-01
  24   6    -6.400660000000E-03  3.251392700000E-01  4.963855000000E-01
  25   6     4.384288600000E-01 -1.230761700000E-01  5.014779700000E-01
  26   6     4.909654200000E-01 -1.788925500000E-01  5.040886700000E-01
  27   6     2.765342200000E-01  7.141106300000E-01  5.043142900000E-01
  28   6     3.301791700000E-01 -1.786375700000E-01  5.036374600000E-01
  29   6     4.372072000000E-01  7.135805800000E-01  5.053778800000E-01
  30   6     3.298269400000E-01  6.597665100000E-01  5.036051900000E-01
  31   6     4.391179100000E-01  2.159972700000E-01  4.985127200000E-01
  32   6     4.928851300000E-01  3.249523500000E-01  4.959020500000E-01
  33   6     2.785503000000E-01  2.176026600000E-01  4.956764000000E-01
  34   6     3.318581500000E-01  1.638085100000E-01  4.963532200000E-01
  35   6     4.397150800000E-01  3.790190700000E-01  4.946128300000E-01
  36   6     3.315234300000E-01  3.250618700000E-01  4.963855000000E-01
  37   8     4.456239600000E-01  5.012179000000E-02  4.993184900000E-01
  38   8     6.032835100000E-01  4.755829000000E-02  5.048944100000E-01
  39   8     6.052205800000E-01  2.103825000000E-01  4.964822100000E-01
  40   8     1.652117800000E-01  4.894022600000E-01  4.993185200000E-01
  41   8     1.639457800000E-01  3.278755700000E-01  5.048944100000E-01
  42   8     3.248050000000E-01  4.906944700000E-01  4.964821900000E-01

 *******************************************************************************

 << INFORMATION >>: FROM NOW ON, ALL COORDINATES REFER TO THE PRIMITIVE CELL

 *******************************************************************************

 LATTICE PARAMETERS  (ANGSTROMS AND DEGREES) - PRIMITIVE CELL
       A          B          C        ALPHA      BETA     GAMMA        VOLUME
   15.02361   15.02392    7.10211    42.97413  89.99997 119.99596    742.836829

 COORDINATES OF THE EQUIVALENT ATOMS (FRACTIONAL UNITS)

 N. ATOM EQUIV AT. N.          X                  Y                  Z

   1   1   1    5 B     4.98121990000E-01 -3.82237000000E-03 -4.98747660000E-01

   2   2   1    5 B    -3.42822350000E-01  1.55237290000E-01 -4.98747640000E-01

   3   3   1    5 B     4.98727020000E-01  1.56438800000E-01  4.98609430000E-01

   4   4   1    5 B     1.11696700000E-01  3.82492630000E-01 -4.98747640000E-01

   5   5   1    5 B     2.70804670000E-01  3.82471860000E-01 -4.98747650000E-01

   6   6   1    5 B     2.71394250000E-01 -4.57170220000E-01  4.98609430000E-01

   7   7   1    1 H    -2.11251730000E-01  8.03161100000E-02  4.95773050000E-01

   8   8   1    1 H    -1.74676600000E-02  4.62825870000E-01  4.94935160000E-01

   9   9   1    1 H    -2.11101040000E-01  3.65904320000E-01  4.94806220000E-01

  10  10   1    1 H    -1.73436900000E-02  1.77502000000E-01  4.94838380000E-01

  11  11   1    1 H    -4.25209760000E-01 -1.35503840000E-01 -4.95782370000E-01

  12  12   1    1 H     1.92494380000E-01 -3.29457040000E-01 -4.94944440000E-01

  13  13   1    1 H     2.89404900000E-01 -1.35903870000E-01 -4.94815410000E-01

  14  14   1    1 H     4.77854590000E-01 -3.29591600000E-01 -4.94847790000E-01

  15  15   1    1 H    -4.23222620000E-01  3.65440250000E-01  4.95773100000E-01

  16  16   1    1 H     1.94859650000E-01  1.77381780000E-01  4.94935110000E-01

  17  17   1    1 H     2.91768130000E-01  8.06551900000E-02  4.94806120000E-01

  18  18   1    1 H     4.80210980000E-01  4.62774940000E-01  4.94838480000E-01

  19  19   1    6 C    -2.23036650000E-01  2.16066410000E-01  4.98512730000E-01

  20  20   1    6 C    -1.67835970000E-01  1.64112230000E-01  4.95901990000E-01

  21  21   1    6 C    -6.08849600000E-02  3.78615900000E-01  4.95676460000E-01

  22  22   1    6 C    -1.67977010000E-01  3.24810680000E-01  4.96353300000E-01

  23  23   1    6 C    -6.06015200000E-02  2.18171070000E-01  4.94612760000E-01

  24  24   1    6 C    -6.40066000000E-03  3.25139270000E-01  4.96385500000E-01

  25  25   1    6 C     4.38428860000E-01 -1.23076170000E-01 -4.98522030000E-01

  26  26   1    6 C     4.90965420000E-01 -1.78892550000E-01 -4.95911330000E-01

  27  27   1    6 C     2.76534220000E-01 -2.85889370000E-01 -4.95685710000E-01

  28  28   1    6 C     3.30179170000E-01 -1.78637570000E-01 -4.96362540000E-01

  29  29   1    6 C     4.37207200000E-01 -2.86419420000E-01 -4.94622120000E-01

  30  30   1    6 C     3.29826940000E-01 -3.40233490000E-01 -4.96394810000E-01

  31  31   1    6 C     4.39117910000E-01  2.15997270000E-01  4.98512720000E-01

  32  32   1    6 C     4.92885130000E-01  3.24952350000E-01  4.95902050000E-01

  33  33   1    6 C     2.78550300000E-01  2.17602660000E-01  4.95676400000E-01

  34  34   1    6 C     3.31858150000E-01  1.63808510000E-01  4.96353220000E-01

  35  35   1    6 C     4.39715080000E-01  3.79019070000E-01  4.94612830000E-01

  36  36   1    6 C     3.31523430000E-01  3.25061870000E-01  4.96385500000E-01

  37  37   1    8 O     4.45623960000E-01  5.01217900000E-02  4.99318490000E-01

  38  38   1    8 O    -3.96716490000E-01  4.75582900000E-02 -4.95105590000E-01

  39  39   1    8 O    -3.94779420000E-01  2.10382500000E-01  4.96482210000E-01

  40  40   1    8 O     1.65211780000E-01  4.89402260000E-01  4.99318520000E-01

  41  41   1    8 O     1.63945780000E-01  3.27875570000E-01 -4.95105590000E-01

  42  42   1    8 O     3.24805000000E-01  4.90694470000E-01  4.96482190000E-01

 NUMBER OF SYMMETRY OPERATORS         :    1
 *******************************************************************************
 * GEOMETRY EDITING - INPUT COORDINATES ARE GIVEN IN ANGSTROM         
 *******************************************************************************

 GCALCO - MAX INDICES DIRECT LATTICE VECTOR     9    13    25
 NO.OF VECTORS CREATED 6999 STARS 3500 RMAX   207.43261 BOHR

 GEOMETRY FOR WAVE FUNCTION - DIMENSIONALITY OF THE SYSTEM    3
 (NON PERIODIC DIRECTION: LATTICE PARAMETER FORMALLY SET TO 500)
 *******************************************************************************
 LATTICE PARAMETERS (ANGSTROMS AND DEGREES) - BOHR = 0.5291772083 ANGSTROM
 PRIMITIVE CELL - CENTRING CODE 1/0 VOLUME=   742.836829 - DENSITY  0.872 g/cm^3
         A              B              C           ALPHA      BETA       GAMMA 
    15.02361100    15.02391600     7.10211200    42.974134  89.999970 119.995964
 *******************************************************************************
 ATOMS IN THE ASYMMETRIC UNIT   42 - ATOMS IN THE UNIT CELL:   42
     ATOM                 X/A                 Y/B                 Z/C    
 *******************************************************************************
      1 T   5 B     4.981219900000E-01 -3.822370000000E-03 -4.987476600000E-01
      2 T   5 B    -3.428223500000E-01  1.552372900000E-01 -4.987476400000E-01
      3 T   5 B     4.987270200000E-01  1.564388000000E-01  4.986094300000E-01
      4 T   5 B     1.116967000000E-01  3.824926300000E-01 -4.987476400000E-01
      5 T   5 B     2.708046700000E-01  3.824718600000E-01 -4.987476500000E-01
      6 T   5 B     2.713942500000E-01 -4.571702200000E-01  4.986094300000E-01
      7 T   1 H    -2.112517300000E-01  8.031611000000E-02  4.957730500000E-01
      8 T   1 H    -1.746766000000E-02  4.628258700000E-01  4.949351600000E-01
      9 T   1 H    -2.111010400000E-01  3.659043200000E-01  4.948062200000E-01
     10 T   1 H    -1.734369000000E-02  1.775020000000E-01  4.948383800000E-01
     11 T   1 H    -4.252097600000E-01 -1.355038400000E-01 -4.957823700000E-01
     12 T   1 H     1.924943800000E-01 -3.294570400000E-01 -4.949444400000E-01
     13 T   1 H     2.894049000000E-01 -1.359038700000E-01 -4.948154100000E-01
     14 T   1 H     4.778545900000E-01 -3.295916000000E-01 -4.948477900000E-01
     15 T   1 H    -4.232226200000E-01  3.654402500000E-01  4.957731000000E-01
     16 T   1 H     1.948596500000E-01  1.773817800000E-01  4.949351100000E-01
     17 T   1 H     2.917681300000E-01  8.065519000000E-02  4.948061200000E-01
     18 T   1 H     4.802109800000E-01  4.627749400000E-01  4.948384800000E-01
     19 T   6 C    -2.230366500000E-01  2.160664100000E-01  4.985127300000E-01
     20 T   6 C    -1.678359700000E-01  1.641122300000E-01  4.959019900000E-01
     21 T   6 C    -6.088496000000E-02  3.786159000000E-01  4.956764600000E-01
     22 T   6 C    -1.679770100000E-01  3.248106800000E-01  4.963533000000E-01
     23 T   6 C    -6.060152000000E-02  2.181710700000E-01  4.946127600000E-01
     24 T   6 C    -6.400660000000E-03  3.251392700000E-01  4.963855000000E-01
     25 T   6 C     4.384288600000E-01 -1.230761700000E-01 -4.985220300000E-01
     26 T   6 C     4.909654200000E-01 -1.788925500000E-01 -4.959113300000E-01
     27 T   6 C     2.765342200000E-01 -2.858893700000E-01 -4.956857100000E-01
     28 T   6 C     3.301791700000E-01 -1.786375700000E-01 -4.963625400000E-01
     29 T   6 C     4.372072000000E-01 -2.864194200000E-01 -4.946221200000E-01
     30 T   6 C     3.298269400000E-01 -3.402334900000E-01 -4.963948100000E-01
     31 T   6 C     4.391179100000E-01  2.159972700000E-01  4.985127200000E-01
     32 T   6 C     4.928851300000E-01  3.249523500000E-01  4.959020500000E-01
     33 T   6 C     2.785503000000E-01  2.176026600000E-01  4.956764000000E-01
     34 T   6 C     3.318581500000E-01  1.638085100000E-01  4.963532200000E-01
     35 T   6 C     4.397150800000E-01  3.790190700000E-01  4.946128300000E-01
     36 T   6 C     3.315234300000E-01  3.250618700000E-01  4.963855000000E-01
     37 T   8 O     4.456239600000E-01  5.012179000000E-02  4.993184900000E-01
     38 T   8 O    -3.967164900000E-01  4.755829000000E-02 -4.951055900000E-01
     39 T   8 O    -3.947794200000E-01  2.103825000000E-01  4.964822100000E-01
     40 T   8 O     1.652117800000E-01  4.894022600000E-01  4.993185200000E-01
     41 T   8 O     1.639457800000E-01  3.278755700000E-01 -4.951055900000E-01
     42 T   8 O     3.248050000000E-01  4.906944700000E-01  4.964821900000E-01

 T = ATOM BELONGING TO THE ASYMMETRIC UNIT

 ****    1 SYMMOPS - TRANSLATORS IN FRACTIONAL UNITS
 **** MATRICES AND TRANSLATORS IN THE CRYSTALLOGRAPHIC REFERENCE FRAME
   V INV                    ROTATION MATRICES                   TRANSLATORS
   1   1  1.00  0.00  0.00  0.00  1.00  0.00  0.00  0.00  1.00  0.00  0.00  0.00

 DIRECT LATTICE VECTORS CARTESIAN COMPONENTS (ANGSTROM)
          X                    Y                    Z
   0.130113578931E+02  -0.751088897922E+01   0.000000000000E+00
   0.000000000000E+00   0.150239160000E+02   0.000000000000E+00
   0.299962572237E+01   0.519634201215E+01   0.380003553655E+01


 CARTESIAN COORDINATES - PRIMITIVE CELL
 *******************************************************************************
 *      ATOM          X(ANGSTROM)         Y(ANGSTROM)         Z(ANGSTROM)
 *******************************************************************************
    1     5 B     1.985561454016E+00  3.437144637934E+00 -5.695294368317E+00
    2     5 B    -5.956640539503E+00  2.315509300279E+00 -1.895258755769E+00
    3     5 B    -2.026974750888E+00 -1.121299767686E+00  5.694769089405E+00
    4     5 B    -4.273051074103E-02  2.315932315502E+00 -1.895258755769E+00
    5     5 B     2.027480200570E+00  1.120577918425E+00 -1.895258793770E+00
    6     5 B     2.027223666143E+00  3.511620052284E+00 -1.905301983690E+00
    7     1 H    -4.261163993689E+00  1.732150968413E-01 -1.916080328485E+00
    8     1 H    -1.742283461342E+00  4.460165001542E+00 -1.919264340261E+00
    9     1 H    -1.262477717937E+00 -5.369861408587E+00  1.880281219705E+00
   10     1 H    -1.740960747081E+00  1.720491189805E-01 -1.919632107700E+00
   11     1 H    -4.020092194361E+00  3.777992244437E+00  1.916044912154E+00
   12     1 H     4.019590919583E+00 -3.771097386974E+00  1.919229075931E+00
   13     1 H     5.280915420612E+00 -1.590384491989E+00  1.919719394516E+00
   14     1 H    -5.278553238900E+00  1.594963344165E+00  1.919596349365E+00
   15     1 H    -4.019567234039E+00 -3.778587680644E+00  1.883955398064E+00
   16     1 H     1.020383009557E+00 -1.423090141797E+00 -1.919264530262E+00
   17     1 H     2.280907003987E+00 -3.604841415504E+00 -1.919754696846E+00
   18     1 H     4.732901435613E+00  7.208884387871E-01 -1.919631727696E+00
   19     6 C    -4.406283790951E+00  2.315467741049E+00 -1.905669447126E+00
   20     6 C    -3.695879230389E+00  1.106740027878E+00 -1.915590351903E+00
   21     6 C    -2.304977867844E+00  3.524956054311E+00 -1.916447373917E+00
   22     6 C    -3.696360591221E+00  3.524464538903E+00 -1.913875357865E+00
   23     6 C    -2.304480630444E+00  1.106790170386E+00 -1.920489471718E+00
   24     6 C    -1.593936286369E+00  2.315986543157E+00 -1.913752996721E+00
   25     6 C     1.209549581381E+00  2.095006486954E+00 -5.694436966299E+00
   26     6 C     1.900952688885E+00  8.753957029906E-01 -5.684516213524E+00
   27     6 C    -8.884116221972E-01  8.796258026085E-01 -5.683658849506E+00
   28     6 C    -1.924482152698E-01  2.084529532748E+00 -5.686230827558E+00
   29     6 C     1.205352396249E+00 -3.296077614065E-01 -5.679617169710E+00
   30     6 C    -1.971280037825E-01 -3.407961208067E-01 -5.686353454705E+00
   31     6 C     4.209246139733E+00 -2.658940451709E+00 -1.905669485127E+00
   32     6 C     4.900999649183E+00 -1.439414036357E+00 -1.915590123901E+00
   33     6 C     2.111535601561E+00 -1.443554203609E+00 -1.916447601920E+00
   34     6 C     2.807173323102E+00 -2.648625349371E+00 -1.913875661868E+00
   35     6 C     4.205317921967E+00 -2.344650621614E-01 -1.920489205715E+00
   36     6 C     2.802914989306E+00 -2.232866313337E-01 -1.913752996721E+00
   37     8 O    -2.715790755149E+00 -2.316061888913E+00  5.697463542603E+00
   38     8 O    -6.646951696519E+00  1.121467288911E+00 -1.881418836343E+00
   39     8 O    -6.477297922510E-01 -1.121769218973E+00  5.686685577811E+00
   40     8 O     6.477725516076E-01  3.510138897582E+00 -1.902607416491E+00
   41     8 O     6.480257555841E-01  1.121858492174E+00 -1.881418836343E+00
   42     8 O     2.715789125908E+00  2.316127454082E+00 -1.913385571285E+00

 *******************************************************************************
 STARTING BASIS SET HANDLING 
 *******************************************************************************

 Loading internal basis set: SOLDEF2MSVP         

 Please cite in your publication:
 L. Dona', J. G. Brandenburg and B. Civalleri, J. Chem. Phys., 151, 121101 (2019
 )                                                                              
                                                                                
                    

 *******************************************************************************
 LOCAL ATOMIC FUNCTIONS BASIS SET
 *******************************************************************************
   ATOM   X(AU)   Y(AU)   Z(AU)  N. TYPE  EXPONENT  S COEF   P COEF   D/F/G COEF
 *******************************************************************************
   1 B    3.752   6.495 -10.763
                                  1 S  
                                         2.410E+03 1.755E-03 0.000E+00 0.000E+00
                                         3.619E+02 1.344E-02 0.000E+00 0.000E+00
                                         8.231E+01 6.637E-02 0.000E+00 0.000E+00
                                         2.311E+01 2.303E-01 0.000E+00 0.000E+00
                                         7.252E+00 5.150E-01 0.000E+00 0.000E+00
                                  2 S  
                                         2.367E+00 1.000E+00 0.000E+00 0.000E+00
                                  3 S  
                                         5.533E-01 1.000E+00 0.000E+00 0.000E+00
                                  4 S  
                                         1.716E-01 1.000E+00 0.000E+00 0.000E+00
                           5-     7 P  
                                         6.002E+00 0.000E+00-3.555E-02 0.000E+00
                                         1.240E+00 0.000E+00-1.983E-01 0.000E+00
                                         3.367E-01 0.000E+00-5.048E-01 0.000E+00
                           8-    10 P  
                                         1.256E-01 0.000E+00 1.000E+00 0.000E+00
                          11-    15 D  
                                         8.880E-01 0.000E+00 0.000E+00 1.000E+00
   2 B  -11.256   4.376  -3.582
   3 B   -3.830  -2.119  10.762
   4 B   -0.081   4.376  -3.582
   5 B    3.831   2.118  -3.582
   6 B    3.831   6.636  -3.600
   7 H   -8.052   0.327  -3.621
                                 91 S  
                                         1.874E+01 1.968E-02 0.000E+00 0.000E+00
                                         2.826E+00 1.380E-01 0.000E+00 0.000E+00
                                         6.401E-01 4.783E-01 0.000E+00 0.000E+00
                                 92 S  
                                         1.756E-01 1.000E+00 0.000E+00 0.000E+00
   8 H   -3.292   8.428  -3.627
   9 H   -2.386 -10.148   3.553
  10 H   -3.290   0.325  -3.628
  11 H   -7.597   7.139   3.621
  12 H    7.596  -7.126   3.627
  13 H    9.979  -3.005   3.628
  14 H   -9.975   3.014   3.628
  15 H   -7.596  -7.140   3.560
  16 H    1.928  -2.689  -3.627
  17 H    4.310  -6.812  -3.628
  18 H    8.944   1.362  -3.628
  19 C   -8.327   4.376  -3.601
                                115 S  
                                         3.624E+03 1.634E-03 0.000E+00 0.000E+00
                                         5.440E+02 1.252E-02 0.000E+00 0.000E+00
                                         1.237E+02 6.211E-02 0.000E+00 0.000E+00
                                         3.476E+01 2.182E-01 0.000E+00 0.000E+00
                                         1.093E+01 4.980E-01 0.000E+00 0.000E+00
                                116 S  
                                         3.574E+00 1.000E+00 0.000E+00 0.000E+00
                                117 S  
                                         7.742E-01 1.000E+00 0.000E+00 0.000E+00
                                118 S  
                                         2.330E-01 1.000E+00 0.000E+00 0.000E+00
                         119-   121 P  
                                         9.443E+00 0.000E+00 3.790E-02 0.000E+00
                                         2.002E+00 0.000E+00 2.082E-01 0.000E+00
                                         5.463E-01 0.000E+00 5.047E-01 0.000E+00
                         122-   124 P  
                                         1.820E-01 0.000E+00 1.000E+00 0.000E+00
                         125-   129 D  
                                         8.880E-01 0.000E+00 0.000E+00 1.000E+00
  20 C   -6.984   2.091  -3.620
  21 C   -4.356   6.661  -3.622
  22 C   -6.985   6.660  -3.617
  23 C   -4.355   2.092  -3.629
  24 C   -3.012   4.377  -3.616
  25 C    2.286   3.959 -10.761
  26 C    3.592   1.654 -10.742
  27 C   -1.679   1.662 -10.741
  28 C   -0.364   3.939 -10.745
  29 C    2.278  -0.623 -10.733
  30 C   -0.373  -0.644 -10.746
  31 C    7.954  -5.025  -3.601
  32 C    9.262  -2.720  -3.620
  33 C    3.990  -2.728  -3.622
  34 C    5.305  -5.005  -3.617
  35 C    7.947  -0.443  -3.629
  36 C    5.297  -0.422  -3.616
  37 O   -5.132  -4.377  10.767
                                385 S  
                                         6.773E+03 1.727E-03 0.000E+00 0.000E+00
                                         1.017E+03 1.325E-02 0.000E+00 0.000E+00
                                         2.313E+02 6.603E-02 0.000E+00 0.000E+00
                                         6.501E+01 2.353E-01 0.000E+00 0.000E+00
                                         2.050E+01 5.498E-01 0.000E+00 0.000E+00
                                386 S  
                                         6.716E+00 1.000E+00 0.000E+00 0.000E+00
                                387 S  
                                         1.147E+00 1.000E+00 0.000E+00 0.000E+00
                                388 S  
                                         3.342E-01 1.000E+00 0.000E+00 0.000E+00
                         389-   391 P  
                                         1.769E+01 0.000E+00 4.359E-02 0.000E+00
                                         3.854E+00 0.000E+00 2.318E-01 0.000E+00
                                         1.047E+00 0.000E+00 5.146E-01 0.000E+00
                         392-   394 P  
                                         2.759E-01 0.000E+00 1.000E+00 0.000E+00
                         395-   399 D  
                                         8.000E-01 0.000E+00 0.000E+00 1.000E+00
  38 O  -12.561   2.119  -3.555
  39 O   -1.224  -2.120  10.746
  40 O    1.224   6.633  -3.595
  41 O    1.225   2.120  -3.555
  42 O    5.132   4.377  -3.616

 *******************************************************************************
 FINISHED BASIS SET HANDLING 
 *******************************************************************************

 INFORMATION **** SET_MPP **** PCRYSTAL CALCULATION
 INFORMATION **** READM2 **** NEW DEFAULT: FOCK/KS MATRIX MIXING SET TO 30 %
 INFORMATION **** READM2 **** NEW DEFAULT: FULL DIRECT SCF MODE
 INFORMATION **** READM2 **** NEW DEFAULT: COULOMB BIPOLAR BUFFER SET TO 32 Mb
 INFORMATION **** READM2 **** NEW DEFAULT: EXCHANGE BIPOLAR BUFFER SET TO 32 Mb

 *******************************************************************************
 NEW DEFAULT: DFT INTEGRATION GRID INCREASED TO XLGRID
 NEW DEFAULT: DIIS ACCELERATOR ACTIVE
 USE KEYWORD NODIIS TO TURN IT OFF
 *******************************************************************************

 WARNING **** RDDFTP **** HSEsol-HJS ACTIVE
 RANGE SEPARATION - OMEGA:   0.110000000000000     
 WARNING **** RDDFTP **** HSEsol-3c has to be combined with sol-def2-mSVP basis set
 *******************************************************************************
 N. OF ATOMS PER CELL        42  COULOMB OVERLAP TOL         (T1) 10**   -6
 NUMBER OF SHELLS           234  COULOMB PENETRATION TOL     (T2) 10**   -6
 NUMBER OF AO               474  EXCHANGE OVERLAP TOL        (T3) 10**   -6
 N. OF ELECTRONS PER CELL   198  EXCHANGE PSEUDO OVP (F(G))  (T4) 10**   -6
 CORE ELECTRONS PER CELL     60  EXCHANGE PSEUDO OVP (P(G))  (T5) 10**  -12
 N. OF SYMMETRY OPERATORS     1  POLE ORDER IN MONO ZONE                  4
 *******************************************************************************
 TYPE OF CALCULATION :  RESTRICTED CLOSED SHELL
 KOHN-SHAM HAMILTONIAN

 (EXCHANGE)[CORRELATION] FUNCTIONAL:(HSEsol GGA)[PBEsol]

 RANGE-SEPARATED HYBRID FUNCTIONAL 
 OMEGA (SHORT-RANGE)[LONG-RANGE]:(    0.1100)[    0.0000]

 HYBRID EXCHANGE - PERCENTAGE OF FOCK EXCHANGE    25.0000

 CAPPA:IS1  2;IS2  2;IS3  8; K PTS MONK NET  20; SYMMOPS:K SPACE   2;G SPACE   1

 *******************************************************************************
 MAX NUMBER OF SCF CYCLES      50  CONVERGENCE ON DELTAP        10**-16
 WEIGHT OF F(I) IN F(I+1)      30% CONVERGENCE ON ENERGY        10**- 6
 SHRINK. FACT.(MONKH.)    2  2  8  NUMBER OF K POINTS IN THE IBZ     20
 SHRINKING FACTOR(GILAT NET)    8  NUMBER OF K POINTS(GILAT NET)   1028
 *******************************************************************************
 *** K POINTS COORDINATES (OBLIQUE COORDINATES IN UNITS OF IS =  2)
   1-R(  0  0  0)   2-R(  1  0  0)   3-R(  0  1  0)   4-R(  1  1  0)
   5-C(  0  0  1)   6-C(  1  0  1)   7-C(  0  1  1)   8-C(  1  1  1)
   9-C(  0  0  2)  10-C(  1  0  2)  11-C(  0  1  2)  12-C(  1  1  2)
  13-C(  0  0  3)  14-C(  1  0  3)  15-C(  0  1  3)  16-C(  1  1  3)
  17-R(  0  0  4)  18-R(  1  0  4)  19-R(  0  1  4)  20-R(  1  1  4)

 DIRECT LATTICE VECTORS COMPON. (A.U.)     RECIP. LATTICE VECTORS COMPON. (A.U.) 
        X            Y            Z              X            Y            Z
   24.5879030  -14.1935232    0.0000000      0.2555397    0.0000000   -0.2017148
    0.0000000   28.3910867    0.0000000      0.1277517    0.2213084   -0.4034702
    5.6684711    9.8196633    7.1810265      0.0000000    0.0000000    0.8749704

 DISK SPACE FOR EIGENVECTORS (FTN 10)     7189632 REALS

 SYMMETRY ADAPTION OF THE BLOCH FUNCTIONS DISABLED
 TTTTTTTTTTTTTTTTTTTTTTTTTTTTTT gordsh1     TELAPSE        0.04 TCPU        0.04

 MATRIX SIZE: P(G)  312278, F(G)   62601, P(G) IRR  157378, F(G) IRR   63117
 MAX G-VECTOR INDEX FOR 1- AND 2-ELECTRON INTEGRALS  67

 TTTTTTTTTTTTTTTTTTTTTTTTTTTTTT INPUT       TELAPSE        0.39 TCPU        0.39

 NEIGHBORS OF THE NON-EQUIVALENT ATOMS

 N = NUMBER OF NEIGHBORS AT DISTANCE R
    ATOM  N     R/ANG      R/AU   NEIGHBORS (ATOM LABELS AND CELL INDICES)
   1 B    1     1.3791     2.6061   37 O    1 2-3
   1 B    1     1.3793     2.6065   38 O    1 1-1
   1 B    1     1.5503     2.9297   25 C    0 0 0
   1 B    1     2.3895     4.5155    3 B    1 2-3
   1 B    1     2.3898     4.5160    2 B    1 1-1
   1 B    1     2.5632     4.8437   26 C    0 0 0

   2 B    1     1.3793     2.6065   39 O    0 1-2
   2 B    1     1.3793     2.6065   38 O    0 0 0
   2 B    1     1.5504     2.9298   19 C    0 0 0
   2 B    1     2.3895     4.5156    3 B    0 1-2
   2 B    1     2.3898     4.5160    1 B   -1-1 1
   2 B    1     2.5634     4.8440   22 C    0 0 0

   3 B    1     1.3791     2.6061   37 O    0 0 0
   3 B    1     1.3793     2.6064   39 O    0 0 0
   3 B    1     1.5502     2.9294   31 C   -1-1 2
   3 B    1     2.3895     4.5155    1 B   -1-2 3
   3 B    1     2.3895     4.5156    2 B    0-1 2
   3 B    1     2.5629     4.8433   32 C   -1-1 2

   4 B    1     1.3795     2.6068   40 O    0 0 0
   4 B    1     1.3795     2.6070   41 O    0 0 0
   4 B    1     1.5513     2.9316   24 C    0 0 0
   4 B    1     2.3905     4.5174    6 B    0 0 0
   4 B    1     2.3905     4.5175    5 B    0 0 0
   4 B    1     2.5648     4.8468   23 C    0 0 0

   5 B    1     1.3795     2.6069   41 O    0 0 0
   5 B    1     1.3797     2.6072   42 O    0 0 0
   5 B    1     1.5516     2.9322   36 C    0 0 0
   5 B    1     2.3905     4.5175    4 B    0 0 0
   5 B    1     2.3911     4.5185    6 B    0 0 0
   5 B    1     2.5651     4.8473   35 C    0 0 0

   6 B    1     1.3795     2.6068   40 O    0 0 0
   6 B    1     1.3796     2.6071   42 O    0 0 0
   6 B    1     1.5516     2.9322   30 C    0 0 1
   6 B    1     2.3905     4.5174    4 B    0 0 0
   6 B    1     2.3911     4.5185    5 B    0 0 0
   6 B    1     2.5651     4.8473   29 C    0 0 1

   7 H    1     1.0913     2.0623   20 C    0 0 0
   7 H    1     2.1472     4.0576   19 C    0 0 0
   7 H    1     2.1680     4.0969   23 C    0 0 0
   7 H    1     2.5202     4.7625   10 H    0 0 0
   7 H    1     2.5676     4.8520   38 O    0 0 0
   7 H    1     2.7321     5.1630    2 B    0 0 0

   8 H    1     1.0914     2.0625   21 C    0 0 0
   8 H    1     2.1493     4.0616   24 C    0 0 0
   8 H    1     2.1666     4.0942   22 C    0 0 0
   8 H    1     2.5198     4.7618    9 H    0 1-1
   8 H    1     2.5720     4.8604   40 O    0 0 0
   8 H    1     2.7362     5.1707    4 B    0 0 0

   9 H    1     1.0914     2.0624   22 C    0-1 1
   9 H    1     2.1471     4.0575   19 C    0-1 1
   9 H    1     2.1680     4.0970   21 C    0-1 1
   9 H    1     2.5198     4.7618    8 H    0-1 1
   9 H    1     2.5665     4.8500   39 O    0 0-1
   9 H    1     2.7315     5.1618    2 B    0-1 1

  10 H    1     1.0915     2.0626   23 C    0 0 0
  10 H    1     2.1490     4.0610   24 C    0 0 0
  10 H    1     2.1669     4.0948   20 C    0 0 0
  10 H    1     2.5202     4.7625    7 H    0 0 0
  10 H    1     2.5712     4.8588   41 O    0 0 0
  10 H    1     2.7351     5.1686    4 B    0 0 0

  11 H    1     1.0913     2.0623   26 C   -1-1 2
  11 H    1     2.1469     4.0571   25 C   -1-1 2
  11 H    1     2.1680     4.0968   29 C   -1-1 2
  11 H    1     2.5198     4.7617   14 H    0 0 0
  11 H    1     2.5670     4.8510   38 O    0 0 1
  11 H    1     2.7310     5.1609    1 B   -1-1 2

  12 H    1     1.0914     2.0625   27 C    0-1 2
  12 H    1     2.1493     4.0617   30 C    0-1 2
  12 H    1     2.1664     4.0939   28 C    0-1 2
  12 H    1     2.5192     4.7606   13 H    0 0 0
  12 H    1     2.5735     4.8632   40 O    0-1 1
  12 H    1     2.7371     5.1723    6 B    0-1 1

  13 H    1     1.0914     2.0624   28 C    0-1 2
  13 H    1     2.1475     4.0581   25 C    0-1 2
  13 H    1     2.1679     4.0967   27 C    0-1 2
  13 H    1     2.5192     4.7606   12 H    0 0 0
  13 H    1     2.5675     4.8519   37 O    1 1-1
  13 H    1     2.7328     5.1643    1 B    0-1 2

  14 H    1     1.0914     2.0625   29 C   -1-1 2
  14 H    1     2.1491     4.0612   30 C   -1-1 2
  14 H    1     2.1666     4.0942   26 C   -1-1 2
  14 H    1     2.5198     4.7617   11 H    0 0 0
  14 H    1     2.5723     4.8609   42 O   -1-1 1
  14 H    1     2.7355     5.1693    6 B   -1-1 1

  15 H    1     1.0914     2.0624   32 C   -1-1 1
  15 H    1     2.1475     4.0582   31 C   -1-1 1
  15 H    1     2.1678     4.0966   35 C   -1-1 1
  15 H    1     2.5200     4.7621   18 H   -1-1 1
  15 H    1     2.5667     4.8503   39 O    0 0-1
  15 H    1     2.7315     5.1618    3 B    0 0-1

  16 H    1     1.0913     2.0623   33 C    0 0 0
  16 H    1     2.1487     4.0605   36 C    0 0 0
  16 H    1     2.1667     4.0945   34 C    0 0 0
  16 H    1     2.5197     4.7616   17 H    0 0 0
  16 H    1     2.5723     4.8610   41 O    0 0 0
  16 H    1     2.7359     5.1701    5 B    0 0 0

  17 H    1     1.0915     2.0626   34 C    0 0 0
  17 H    1     2.1479     4.0589   31 C    0 0 0
  17 H    1     2.1679     4.0968   33 C    0 0 0
  17 H    1     2.5197     4.7616   16 H    0 0 0
  17 H    1     2.5677     4.8522   37 O    1 1-2
  17 H    1     2.7331     5.1648    3 B    1 1-2

  18 H    1     1.0914     2.0624   35 C    0 0 0
  18 H    1     2.1486     4.0602   36 C    0 0 0
  18 H    1     2.1668     4.0947   32 C    0 0 0
  18 H    1     2.5200     4.7621   15 H    1 1-1
  18 H    1     2.5717     4.8598   42 O    0 0 0
  18 H    1     2.7349     5.1682    5 B    0 0 0

  19 C    1     1.4020     2.6495   22 C    0 0 0
  19 C    1     1.4021     2.6495   20 C    0 0 0
  19 C    1     1.5504     2.9298    2 B    0 0 0
  19 C    1     2.1471     4.0575    9 H    0 1-1
  19 C    1     2.1472     4.0576    7 H    0 0 0
  19 C    1     2.4246     4.5817   21 C    0 0 0

  20 C    1     1.0913     2.0623    7 H    0 0 0
  20 C    1     1.3914     2.6294   23 C    0 0 0
  20 C    1     1.4021     2.6495   19 C    0 0 0
  20 C    1     2.1669     4.0948   10 H    0 0 0
  20 C    1     2.4177     4.5688   22 C    0 0 0
  20 C    1     2.4250     4.5825   24 C    0 0 0

  21 C    1     1.0914     2.0625    8 H    0 0 0
  21 C    1     1.3914     2.6293   22 C    0 0 0
  21 C    1     1.4026     2.6505   24 C    0 0 0
  21 C    1     2.1680     4.0970    9 H    0 1-1
  21 C    1     2.4182     4.5697   23 C    0 0 0
  21 C    1     2.4246     4.5817   19 C    0 0 0

  22 C    1     1.0914     2.0624    9 H    0 1-1
  22 C    1     1.3914     2.6293   21 C    0 0 0
  22 C    1     1.4020     2.6495   19 C    0 0 0
  22 C    1     2.1666     4.0942    8 H    0 0 0
  22 C    1     2.4177     4.5688   20 C    0 0 0
  22 C    1     2.4250     4.5826   24 C    0 0 0

  23 C    1     1.0915     2.0626   10 H    0 0 0
  23 C    1     1.3914     2.6294   20 C    0 0 0
  23 C    1     1.4025     2.6504   24 C    0 0 0
  23 C    1     2.1680     4.0969    7 H    0 0 0
  23 C    1     2.4182     4.5697   21 C    0 0 0
  23 C    1     2.4246     4.5818   19 C    0 0 0

  24 C    1     1.4025     2.6504   23 C    0 0 0
  24 C    1     1.4026     2.6505   21 C    0 0 0
  24 C    1     1.5513     2.9316    4 B    0 0 0
  24 C    1     2.1490     4.0610   10 H    0 0 0
  24 C    1     2.1493     4.0616    8 H    0 0 0
  24 C    1     2.4250     4.5825   20 C    0 0 0

  25 C    1     1.4020     2.6494   26 C    0 0 0
  25 C    1     1.4021     2.6495   28 C    0 0 0
  25 C    1     1.5503     2.9297    1 B    0 0 0
  25 C    1     2.1469     4.0571   11 H    1 1-2
  25 C    1     2.1475     4.0581   13 H    0 1-2
  25 C    1     2.4246     4.5818   27 C    0 0 0

  26 C    1     1.0913     2.0623   11 H    1 1-2
  26 C    1     1.3914     2.6293   29 C    0 0 0
  26 C    1     1.4020     2.6494   25 C    0 0 0
  26 C    1     2.1666     4.0942   14 H    1 1-2
  26 C    1     2.4175     4.5684   28 C    0 0 0
  26 C    1     2.4251     4.5828   30 C    0 0 0

  27 C    1     1.0914     2.0625   12 H    0 1-2
  27 C    1     1.3915     2.6295   28 C    0 0 0
  27 C    1     1.4026     2.6505   30 C    0 0 0
  27 C    1     2.1679     4.0967   13 H    0 1-2
  27 C    1     2.4179     4.5691   29 C    0 0 0
  27 C    1     2.4246     4.5818   25 C    0 0 0

  28 C    1     1.0914     2.0624   13 H    0 1-2
  28 C    1     1.3915     2.6295   27 C    0 0 0
  28 C    1     1.4021     2.6495   25 C    0 0 0
  28 C    1     2.1664     4.0939   12 H    0 1-2
  28 C    1     2.4175     4.5684   26 C    0 0 0
  28 C    1     2.4253     4.5832   30 C    0 0 0

  29 C    1     1.0914     2.0625   14 H    1 1-2
  29 C    1     1.3914     2.6293   26 C    0 0 0
  29 C    1     1.4025     2.6504   30 C    0 0 0
  29 C    1     2.1680     4.0968   11 H    1 1-2
  29 C    1     2.4179     4.5691   27 C    0 0 0
  29 C    1     2.4247     4.5819   25 C    0 0 0

  30 C    1     1.4025     2.6504   29 C    0 0 0
  30 C    1     1.4026     2.6505   27 C    0 0 0
  30 C    1     1.5516     2.9322    6 B    0 0-1
  30 C    1     2.1491     4.0612   14 H    1 1-2
  30 C    1     2.1493     4.0617   12 H    0 1-2
  30 C    1     2.4251     4.5828   26 C    0 0 0

  31 C    1     1.4021     2.6496   32 C    0 0 0
  31 C    1     1.4021     2.6497   34 C    0 0 0
  31 C    1     1.5502     2.9294    3 B    1 1-2
  31 C    1     2.1475     4.0582   15 H    1 1-1
  31 C    1     2.1479     4.0589   17 H    0 0 0
  31 C    1     2.4244     4.5814   33 C    0 0 0

  32 C    1     1.0914     2.0624   15 H    1 1-1
  32 C    1     1.3914     2.6293   35 C    0 0 0
  32 C    1     1.4021     2.6496   31 C    0 0 0
  32 C    1     2.1668     4.0947   18 H    0 0 0
  32 C    1     2.4179     4.5692   34 C    0 0 0
  32 C    1     2.4251     4.5827   36 C    0 0 0

  33 C    1     1.0913     2.0623   16 H    0 0 0
  33 C    1     1.3914     2.6294   34 C    0 0 0
  33 C    1     1.4025     2.6504   36 C    0 0 0
  33 C    1     2.1679     4.0968   17 H    0 0 0
  33 C    1     2.4178     4.5690   35 C    0 0 0
  33 C    1     2.4244     4.5814   31 C    0 0 0

  34 C    1     1.0915     2.0626   17 H    0 0 0
  34 C    1     1.3914     2.6294   33 C    0 0 0
  34 C    1     1.4021     2.6497   31 C    0 0 0
  34 C    1     2.1667     4.0945   16 H    0 0 0
  34 C    1     2.4179     4.5692   32 C    0 0 0
  34 C    1     2.4253     4.5832   36 C    0 0 0

  35 C    1     1.0914     2.0624   18 H    0 0 0
  35 C    1     1.3914     2.6293   32 C    0 0 0
  35 C    1     1.4025     2.6503   36 C    0 0 0
  35 C    1     2.1678     4.0966   15 H    1 1-1
  35 C    1     2.4178     4.5690   33 C    0 0 0
  35 C    1     2.4245     4.5817   31 C    0 0 0

  36 C    1     1.4025     2.6503   35 C    0 0 0
  36 C    1     1.4025     2.6504   33 C    0 0 0
  36 C    1     1.5516     2.9322    5 B    0 0 0
  36 C    1     2.1486     4.0602   18 H    0 0 0
  36 C    1     2.1487     4.0605   16 H    0 0 0
  36 C    1     2.4251     4.5827   32 C    0 0 0

  37 O    1     1.3791     2.6061    1 B   -1-2 3
  37 O    1     1.3791     2.6061    3 B    0 0 0
  37 O    1     2.3880     4.5126   38 O    0-1 2
  37 O    1     2.3882     4.5130   39 O    0 0 0
  37 O    1     2.5383     4.7966   31 C   -1-1 2
  37 O    1     2.5384     4.7968   25 C   -1-2 3

  38 O    1     1.3793     2.6065    1 B   -1-1 1
  38 O    1     1.3793     2.6065    2 B    0 0 0
  38 O    1     2.3880     4.5126   37 O    0 1-2
  38 O    1     2.3882     4.5131   39 O    0 1-2
  38 O    1     2.5391     4.7981   19 C    0 0 0
  38 O    1     2.5395     4.7990   25 C   -1-1 1

  39 O    1     1.3793     2.6064    3 B    0 0 0
  39 O    1     1.3793     2.6065    2 B    0-1 2
  39 O    1     2.3882     4.5130   37 O    0 0 0
  39 O    1     2.3882     4.5131   38 O    0-1 2
  39 O    1     2.5390     4.7980   19 C    0-1 2
  39 O    1     2.5391     4.7982   31 C   -1-1 2

  40 O    1     1.3795     2.6068    6 B    0 0 0
  40 O    1     1.3795     2.6068    4 B    0 0 0
  40 O    1     2.3880     4.5126   42 O    0 0 0
  40 O    1     2.3884     4.5134   41 O    0 0 0
  40 O    1     2.5400     4.7998   24 C    0 0 0
  40 O    1     2.5403     4.8005   30 C    0 0 1

  41 O    1     1.3795     2.6069    5 B    0 0 0
  41 O    1     1.3795     2.6070    4 B    0 0 0
  41 O    1     2.3881     4.5128   42 O    0 0 0
  41 O    1     2.3884     4.5134   40 O    0 0 0
  41 O    1     2.5404     4.8006   24 C    0 0 0
  41 O    1     2.5405     4.8008   36 C    0 0 0

  42 O    1     1.3796     2.6071    6 B    0 0 0
  42 O    1     1.3797     2.6072    5 B    0 0 0
  42 O    1     2.3880     4.5126   40 O    0 0 0
  42 O    1     2.3881     4.5128   41 O    0 0 0
  42 O    1     2.5409     4.8016   36 C    0 0 0
  42 O    1     2.5410     4.8019   30 C    0 0 1


 SYMMETRY ALLOWED INTERNAL DEGREE(S) OF FREEDOM: 123
 TTTTTTTTTTTTTTTTTTTTTTTTTTTTTT SYMM        TELAPSE        0.39 TCPU        0.39
 TTTTTTTTTTTTTTTTTTTTTTTTTTTTTT INT_SCREEN  TELAPSE        0.43 TCPU        0.42

 DFT PARAMETERS

     ATOM       ELECTRONS   NET CHARGE   R(ANGSTROM)
   1   5  B       5.0000      0.0000     0.89000000
   7   1  H       1.0000      0.0000     1.11000000
  19   6  C       6.0000      0.0000     0.77000000
  37   8  O       8.0000      0.0000     0.74000000

 SIZE OF GRID=    1310497
 TTTTTTTTTTTTTTTTTTTTTTTTTTTTTT MAKE_GRID2  TELAPSE        8.80 TCPU        8.79
 BECKE WEIGHT FUNCTION
 RADSAFE =     2.00
 TOLERANCES - DENSITY:10**- 6; POTENTIAL:10**- 9; GRID WGT:10**-14

 RADIAL INTEGRATION  - INTERVALS (POINTS,UPPER LIMIT):            1( 75,  4.0*R)

 ANGULAR INTEGRATION - INTERVALS (ACCURACY LEVEL [N. POINTS] UPPER LIMIT):
  1(  4[  86]   0.2)  2(  8[ 194]   0.5)  3( 12[ 350]   0.9)  4( 16[ 974]   3.5)
  5( 12[ 350]9999.0)
 TTTTTTTTTTTTTTTTTTTTTTTTTTTTTT INT_CALC    TELAPSE        8.88 TCPU        8.87
 EEEEEEEEEE INT_CALC TERMINATION  DATE 19 02 2026 TIME 18:58:48.3

 *******************************************************************************
 cof-1_z38_L060_incl                                                             
 CRYSTAL - SCF - TYPE OF CALCULATION :  RESTRICTED CLOSED SHELL
 *******************************************************************************

 CAPPA:IS1  2;IS2  2;IS3  8; K PTS MONK NET  20; SYMMOPS:K SPACE   2;G SPACE   1

 TTTTTTTTTTTTTTTTTTTTTTTTTTTTTT SDIK        TELAPSE        9.45 TCPU       16.83

 AAAAAAAAAAAAAAAAAAAAAAAAAAAAAAAAAAAAAAAAAAAAAAAAAAAAAAAAAAAAAAAAAAAAAAAAAAAAAAA
         ATOMIC WAVEFUNCTION(S)


 NUCLEAR CHARGE  5.0  SYMMETRY SPECIES            S    P
 N. ELECTRONS    5.0  NUMBER OF PRIMITIVE GTOS    8    4
                      NUMBER OF CONTRACTED GTOS   4    2
                      NUMBER OF CLOSED SHELLS     2    0
                      OPEN SHELL OCCUPATION       0    1

  ZNUC  SCFIT    TOTAL HF ENERGY   KINETIC ENERGY   VIRIAL THEOREM ACCURACY
   5.0    11    -2.451164084E+01  2.462155050E+01 -1.995536038E+00  1.5E-06

 NUCLEAR CHARGE  1.0  SYMMETRY SPECIES            S
 N. ELECTRONS    1.0  NUMBER OF PRIMITIVE GTOS    4
                      NUMBER OF CONTRACTED GTOS   2
                      NUMBER OF CLOSED SHELLS     0
                      OPEN SHELL OCCUPATION       1

  ZNUC  SCFIT    TOTAL HF ENERGY   KINETIC ENERGY   VIRIAL THEOREM ACCURACY
   1.0     1    -4.977266687E-01  5.190767460E-01 -1.958869132E+00  0.0E+00

 NUCLEAR CHARGE  6.0  SYMMETRY SPECIES            S    P
 N. ELECTRONS    6.0  NUMBER OF PRIMITIVE GTOS    8    4
                      NUMBER OF CONTRACTED GTOS   4    2
                      NUMBER OF CLOSED SHELLS     2    0
                      OPEN SHELL OCCUPATION       0    2

  ZNUC  SCFIT    TOTAL HF ENERGY   KINETIC ENERGY   VIRIAL THEOREM ACCURACY
   6.0     9    -3.766704647E+01  3.775180683E+01 -1.997754800E+00  1.1E-06

 NUCLEAR CHARGE  8.0  SYMMETRY SPECIES            S    P
 N. ELECTRONS    8.0  NUMBER OF PRIMITIVE GTOS    8    4
                      NUMBER OF CONTRACTED GTOS   4    2
                      NUMBER OF CLOSED SHELLS     2    0
                      OPEN SHELL OCCUPATION       0    4

  ZNUC  SCFIT    TOTAL HF ENERGY   KINETIC ENERGY   VIRIAL THEOREM ACCURACY
   8.0    12    -7.477373220E+01  7.477365593E+01 -2.000001020E+00  3.8E-06

 AAAAAAAAAAAAAAAAAAAAAAAAAAAAAAAAAAAAAAAAAAAAAAAAAAAAAAAAAAAAAAAAAAAAAAAAAAAAAAA

 CHARGE NORMALIZATION FACTOR   1.00000000
 TOTAL ATOMIC CHARGES:
   5.0000000   5.0000000   5.0000000   5.0000000   5.0000000   5.0000000
   1.0000000   1.0000000   1.0000000   1.0000000   1.0000000   1.0000000
   1.0000000   1.0000000   1.0000000   1.0000000   1.0000000   1.0000000
   6.0000000   6.0000000   6.0000000   6.0000000   6.0000000   6.0000000
   6.0000000   6.0000000   6.0000000   6.0000000   6.0000000   6.0000000
   6.0000000   6.0000000   6.0000000   6.0000000   6.0000000   6.0000000
   8.0000000   8.0000000   8.0000000   8.0000000   8.0000000   8.0000000
 TTTTTTTTTTTTTTTTTTTTTTTTTTTTTT MOQGAD      TELAPSE        9.49 TCPU       18.23
 TTTTTTTTTTTTTTTTTTTTTTTTTTTTTT SHELLXN     TELAPSE       16.01 TCPU      226.71
 TTTTTTTTTTTTTTTTTTTTTTTTTTTTTT MONMO3      TELAPSE       16.15 TCPU      231.10
 NUMERICALLY INTEGRATED DENSITY    198.0000038395
 TTTTTTTTTTTTTTTTTTTTTTTTTTTTTT NUMDFT      TELAPSE       16.74 TCPU      249.98
 CYC   0 ETOT(AU) -1.295958223464E+03 DETOT -1.30E+03 tst  0.00E+00 PX  1.00E+00
 TTTTTTTTTTTTTTTTTTTTTTTTTTTTTT DIIS        TELAPSE       16.78 TCPU      251.12
 TTTTTTTTTTTTTTTTTTTTTTTTTTTTTT FDIK        TELAPSE       17.26 TCPU      266.41
 INSULATING STATE
 TOP OF VALENCE BANDS -    BAND     99; K    1; EIG -3.1179114E-01 AU
 BOTTOM OF VIRTUAL BANDS - BAND    100; K   17; EIG -1.6127890E-01 AU
 INDIRECT ENERGY BAND GAP:   4.0956 eV
 BOTTOM OF VIRTUAL BANDS - BAND    100; K    1; EIG -1.5562765E-01 AU
 TTTTTTTTTTTTTTTTTTTTTTTTTTTTTT PDIG        TELAPSE       17.59 TCPU      272.60
 CHARGE NORMALIZATION FACTOR   1.00000000
 TOTAL ATOMIC CHARGES:
   4.1513081   4.1658848   4.1662057   4.1654873   4.1651957   4.1507814
   0.7852669   0.7853991   0.7849364   0.7850452   0.7855850   0.7857964
   0.7855713   0.7857394   0.7849261   0.7851133   0.7852173   0.7853936
   6.0439458   6.2660383   6.2660764   6.2655035   6.2655992   6.0434093
   6.0452719   6.2636890   6.2638750   6.2636178   6.2638547   6.0440712
   6.0443385   6.2652666   6.2659626   6.2656517   6.2663590   6.0429787
   8.6942907   8.6945508   8.6931958   8.6948252   8.6936879   8.6950873
 TTTTTTTTTTTTTTTTTTTTTTTTTTTTTT MOQGAD      TELAPSE       17.64 TCPU      272.64
 TTTTTTTTTTTTTTTTTTTTTTTTTTTTTT SHELLXN     TELAPSE       24.43 TCPU      489.01
 TTTTTTTTTTTTTTTTTTTTTTTTTTTTTT MONMO3      TELAPSE       24.57 TCPU      493.39
 NUMERICALLY INTEGRATED DENSITY    198.0000076408
 TTTTTTTTTTTTTTTTTTTTTTTTTTTTTT NUMDFT      TELAPSE       25.17 TCPU      512.53
 CYC   1 ETOT(AU) -1.288818020491E+03 DETOT  7.14E+00 tst  0.00E+00 PX  1.00E+00
 TTTTTTTTTTTTTTTTTTTTTTTTTTTTTT DIIS        TELAPSE       25.22 TCPU      514.06
 DIIS TEST: 0.11045E+01 AT SCF   CYCLE   1 - MIX   30 %
 TTTTTTTTTTTTTTTTTTTTTTTTTTTTTT FDIK        TELAPSE       25.70 TCPU      529.56
 INSULATING STATE
 TOP OF VALENCE BANDS -    BAND     99; K    1; EIG -2.2459058E-01 AU
 BOTTOM OF VIRTUAL BANDS - BAND    100; K   17; EIG -8.7128092E-02 AU
 INDIRECT ENERGY BAND GAP:   3.7405 eV
 BOTTOM OF VIRTUAL BANDS - BAND    100; K    1; EIG -7.7414475E-02 AU
 TTTTTTTTTTTTTTTTTTTTTTTTTTTTTT PDIG        TELAPSE       26.03 TCPU      535.74
 CHARGE NORMALIZATION FACTOR   1.00000000
 TOTAL ATOMIC CHARGES:
   4.7033161   4.7019317   4.7023596   4.7019441   4.7018013   4.7037266
   0.9083603   0.9084270   0.9124402   0.9124164   0.9014200   0.9014493
   0.9015323   0.9013498   0.9123774   0.9125037   0.9084151   0.9083644
   5.8665768   6.1429443   6.1437149   6.1337324   6.1338503   5.8690465
   5.8907430   6.1305203   6.1312502   6.1309077   6.1309268   5.8940891
   5.8664313   6.1335824   6.1340329   6.1434230   6.1431103   5.8690801
   8.3364503   8.3367533   8.3310610   8.3364572   8.3305681   8.3366125
 TTTTTTTTTTTTTTTTTTTTTTTTTTTTTT MOQGAD      TELAPSE       26.07 TCPU      535.78
 TTTTTTTTTTTTTTTTTTTTTTTTTTTTTT SHELLXN     TELAPSE       32.87 TCPU      752.21
 TTTTTTTTTTTTTTTTTTTTTTTTTTTTTT MONMO3      TELAPSE       33.01 TCPU      756.58
 NUMERICALLY INTEGRATED DENSITY    198.0000098563
 TTTTTTTTTTTTTTTTTTTTTTTTTTTTTT NUMDFT      TELAPSE       36.74 TCPU      781.67
 CYC   2 ETOT(AU) -1.289012224426E+03 DETOT -1.94E-01 tst  3.64E-03 PX  1.59E-01
 TTTTTTTTTTTTTTTTTTTTTTTTTTTTTT DIIS        TELAPSE       36.79 TCPU      783.02
 DIIS TEST: 0.45620E+00 AT SCF   CYCLE   2 - DIIS ACTIVE - HISTORY:     2 CYCLES
 TTTTTTTTTTTTTTTTTTTTTTTTTTTTTT FDIK        TELAPSE       37.27 TCPU      798.45
 INSULATING STATE
 TOP OF VALENCE BANDS -    BAND     99; K    1; EIG -2.3672854E-01 AU
 BOTTOM OF VIRTUAL BANDS - BAND    100; K   17; EIG -8.2127174E-02 AU
 INDIRECT ENERGY BAND GAP:   4.2069 eV
 BOTTOM OF VIRTUAL BANDS - BAND    100; K    1; EIG -7.3323167E-02 AU
 TTTTTTTTTTTTTTTTTTTTTTTTTTTTTT PDIG        TELAPSE       37.60 TCPU      804.63
 CHARGE NORMALIZATION FACTOR   1.00000000
 TOTAL ATOMIC CHARGES:
   4.4918273   4.5009938   4.5012631   4.5008085   4.5005185   4.4919087
   0.8873450   0.8875642   0.8903524   0.8903177   0.8810200   0.8813106
   0.8811656   0.8811584   0.8902452   0.8904412   0.8874663   0.8873935
   5.8934410   6.1617165   6.1614880   6.1589506   6.1587760   5.8935050
   5.8950383   6.1635354   6.1631831   6.1633849   6.1633442   5.8942879
   5.8934992   6.1589516   6.1588278   6.1614349   6.1617162   5.8934303
   8.5122819   8.5126951   8.5138067   8.5126141   8.5140036   8.5129875
 TTTTTTTTTTTTTTTTTTTTTTTTTTTTTT MOQGAD      TELAPSE       37.64 TCPU      804.67
 TTTTTTTTTTTTTTTTTTTTTTTTTTTTTT SHELLXN     TELAPSE       44.44 TCPU     1021.04
 TTTTTTTTTTTTTTTTTTTTTTTTTTTTTT MONMO3      TELAPSE       44.57 TCPU     1025.42
 NUMERICALLY INTEGRATED DENSITY    198.0000085107
 TTTTTTTTTTTTTTTTTTTTTTTTTTTTTT NUMDFT      TELAPSE       45.17 TCPU     1044.56
 CYC   3 ETOT(AU) -1.289106402887E+03 DETOT -9.42E-02 tst  7.02E-04 PX  6.50E-02
 TTTTTTTTTTTTTTTTTTTTTTTTTTTTTT DIIS        TELAPSE       45.23 TCPU     1046.44
 DIIS TEST: 0.13890E-01 AT SCF   CYCLE   3 - DIIS ACTIVE - HISTORY:     3 CYCLES
 TTTTTTTTTTTTTTTTTTTTTTTTTTTTTT FDIK        TELAPSE       45.72 TCPU     1061.96
 INSULATING STATE
 TOP OF VALENCE BANDS -    BAND     99; K    1; EIG -2.4711667E-01 AU
 BOTTOM OF VIRTUAL BANDS - BAND    100; K   17; EIG -9.0742939E-02 AU
 INDIRECT ENERGY BAND GAP:   4.2551 eV
 BOTTOM OF VIRTUAL BANDS - BAND    100; K    1; EIG -8.1108714E-02 AU
 TTTTTTTTTTTTTTTTTTTTTTTTTTTTTT PDIG        TELAPSE       46.04 TCPU     1068.14
 CHARGE NORMALIZATION FACTOR   1.00000000
 TOTAL ATOMIC CHARGES:
   4.4981660   4.5052728   4.5055718   4.5050898   4.5048121   4.4983002
   0.8700156   0.8700871   0.8732185   0.8732280   0.8638490   0.8639213
   0.8639321   0.8638337   0.8731844   0.8733106   0.8700629   0.8700076
   5.9373531   6.1720074   6.1726298   6.1658479   6.1661291   5.9390323
   5.9534717   6.1660236   6.1667959   6.1663437   6.1664739   5.9554290
   5.9375194   6.1655622   6.1664325   6.1722600   6.1722940   5.9388346
   8.4804957   8.4807077   8.4756135   8.4806304   8.4754799   8.4807694
 TTTTTTTTTTTTTTTTTTTTTTTTTTTTTT MOQGAD      TELAPSE       46.09 TCPU     1068.19
 TTTTTTTTTTTTTTTTTTTTTTTTTTTTTT SHELLXN     TELAPSE       52.88 TCPU     1284.54
 TTTTTTTTTTTTTTTTTTTTTTTTTTTTTT MONMO3      TELAPSE       53.02 TCPU     1288.93
 NUMERICALLY INTEGRATED DENSITY    198.0000089051
 TTTTTTTTTTTTTTTTTTTTTTTTTTTTTT NUMDFT      TELAPSE       53.61 TCPU     1308.04
 CYC   4 ETOT(AU) -1.289109351981E+03 DETOT -2.95E-03 tst  2.69E-05 PX  1.38E-02
 TTTTTTTTTTTTTTTTTTTTTTTTTTTTTT DIIS        TELAPSE       53.68 TCPU     1309.98
 DIIS TEST: 0.40526E-02 AT SCF   CYCLE   4 - DIIS ACTIVE - HISTORY:     4 CYCLES
 TTTTTTTTTTTTTTTTTTTTTTTTTTTTTT FDIK        TELAPSE       54.16 TCPU     1325.46
 INSULATING STATE
 TOP OF VALENCE BANDS -    BAND     99; K    1; EIG -2.4508893E-01 AU
 BOTTOM OF VIRTUAL BANDS - BAND    100; K   17; EIG -9.0391566E-02 AU
 INDIRECT ENERGY BAND GAP:   4.2095 eV
 BOTTOM OF VIRTUAL BANDS - BAND    100; K    1; EIG -8.1012158E-02 AU
 TTTTTTTTTTTTTTTTTTTTTTTTTTTTTT PDIG        TELAPSE       54.49 TCPU     1331.64
 CHARGE NORMALIZATION FACTOR   1.00000000
 TOTAL ATOMIC CHARGES:
   4.5011851   4.5069131   4.5072422   4.5068239   4.5065448   4.5013829
   0.8732027   0.8733653   0.8764549   0.8764822   0.8667733   0.8670063
   0.8669070   0.8668719   0.8763725   0.8766003   0.8733005   0.8732331
   5.9215367   6.1709004   6.1709163   6.1657797   6.1655359   5.9218799
   5.9325303   6.1676053   6.1673736   6.1675159   6.1674785   5.9326515
   5.9215042   6.1657111   6.1656444   6.1707601   6.1709793   5.9218565
   8.4893912   8.4897774   8.4882327   8.4896275   8.4881905   8.4899593
 TTTTTTTTTTTTTTTTTTTTTTTTTTTTTT MOQGAD      TELAPSE       54.53 TCPU     1331.69
 TTTTTTTTTTTTTTTTTTTTTTTTTTTTTT SHELLXN     TELAPSE       61.33 TCPU     1548.19
 TTTTTTTTTTTTTTTTTTTTTTTTTTTTTT MONMO3      TELAPSE       61.47 TCPU     1552.57
 NUMERICALLY INTEGRATED DENSITY    198.0000087693
 TTTTTTTTTTTTTTTTTTTTTTTTTTTTTT NUMDFT      TELAPSE       62.07 TCPU     1571.70
 CYC   5 ETOT(AU) -1.289110282228E+03 DETOT -9.30E-04 tst  6.87E-06 PX  6.65E-03
 TTTTTTTTTTTTTTTTTTTTTTTTTTTTTT DIIS        TELAPSE       62.14 TCPU     1573.94
 DIIS TEST: 0.59417E-04 AT SCF   CYCLE   5 - DIIS ACTIVE - HISTORY:     5 CYCLES
 TTTTTTTTTTTTTTTTTTTTTTTTTTTTTT FDIK        TELAPSE       62.62 TCPU     1589.50
 INSULATING STATE
 TOP OF VALENCE BANDS -    BAND     99; K    1; EIG -2.4489833E-01 AU
 BOTTOM OF VIRTUAL BANDS - BAND    100; K   17; EIG -8.9818940E-02 AU
 INDIRECT ENERGY BAND GAP:   4.2199 eV
 BOTTOM OF VIRTUAL BANDS - BAND    100; K    1; EIG -8.0585206E-02 AU
 TTTTTTTTTTTTTTTTTTTTTTTTTTTTTT PDIG        TELAPSE       62.95 TCPU     1595.68
 CHARGE NORMALIZATION FACTOR   1.00000000
 TOTAL ATOMIC CHARGES:
   4.5003151   4.5072220   4.5075260   4.5070193   4.5067493   4.5004119
   0.8740854   0.8741842   0.8772642   0.8772295   0.8677882   0.8678692
   0.8678700   0.8677878   0.8772067   0.8773210   0.8741396   0.8740933
   5.9209621   6.1701862   6.1706517   6.1649353   6.1653423   5.9225477
   5.9311418   6.1667905   6.1675339   6.1671119   6.1672168   5.9325713
   5.9211848   6.1647291   6.1655834   6.1703658   6.1703981   5.9222872
   8.4895771   8.4898027   8.4866402   8.4897625   8.4866713   8.4899236
 TTTTTTTTTTTTTTTTTTTTTTTTTTTTTT MOQGAD      TELAPSE       63.00 TCPU     1595.72
 TTTTTTTTTTTTTTTTTTTTTTTTTTTTTT SHELLXN     TELAPSE       69.79 TCPU     1812.07
 TTTTTTTTTTTTTTTTTTTTTTTTTTTTTT MONMO3      TELAPSE       69.93 TCPU     1816.45
 NUMERICALLY INTEGRATED DENSITY    198.0000087784
 TTTTTTTTTTTTTTTTTTTTTTTTTTTTTT NUMDFT      TELAPSE       70.53 TCPU     1835.62
 CYC   6 ETOT(AU) -1.289110298773E+03 DETOT -1.65E-05 tst  1.36E-07 PX  9.72E-04
 TTTTTTTTTTTTTTTTTTTTTTTTTTTTTT DIIS        TELAPSE       70.60 TCPU     1837.89
 DIIS TEST: 0.56213E-05 AT SCF   CYCLE   6 - DIIS ACTIVE - HISTORY:     6 CYCLES
 TTTTTTTTTTTTTTTTTTTTTTTTTTTTTT FDIK        TELAPSE       71.09 TCPU     1853.39
 INSULATING STATE
 TOP OF VALENCE BANDS -    BAND     99; K    1; EIG -2.4489879E-01 AU
 BOTTOM OF VIRTUAL BANDS - BAND    100; K   17; EIG -8.9921529E-02 AU
 INDIRECT ENERGY BAND GAP:   4.2171 eV
 BOTTOM OF VIRTUAL BANDS - BAND    100; K    1; EIG -8.0604870E-02 AU
 TTTTTTTTTTTTTTTTTTTTTTTTTTTTTT PDIG        TELAPSE       71.41 TCPU     1859.57
 CHARGE NORMALIZATION FACTOR   1.00000000
 TOTAL ATOMIC CHARGES:
   4.5008103   4.5070773   4.5073934   4.5069920   4.5067121   4.5010011
   0.8740429   0.8742007   0.8772505   0.8772880   0.8676282   0.8678653
   0.8677687   0.8677241   0.8771733   0.8774000   0.8741415   0.8740664
   5.9215794   6.1702386   6.1702852   6.1652113   6.1648783   5.9218575
   5.9325357   6.1669638   6.1667083   6.1668377   6.1668444   5.9327154
   5.9215196   6.1651117   6.1650156   6.1700947   6.1703542   5.9218719
   8.4891261   8.4895185   8.4876036   8.4893678   8.4875193   8.4897055
 TTTTTTTTTTTTTTTTTTTTTTTTTTTTTT MOQGAD      TELAPSE       71.46 TCPU     1859.62
 TTTTTTTTTTTTTTTTTTTTTTTTTTTTTT SHELLXN     TELAPSE       78.26 TCPU     2076.05
 TTTTTTTTTTTTTTTTTTTTTTTTTTTTTT MONMO3      TELAPSE       78.39 TCPU     2080.43
 NUMERICALLY INTEGRATED DENSITY    198.0000087755
 TTTTTTTTTTTTTTTTTTTTTTTTTTTTTT NUMDFT      TELAPSE       78.99 TCPU     2099.58
 CYC   7 ETOT(AU) -1.289110299358E+03 DETOT -5.85E-07 tst  1.32E-08 PX  3.80E-04
 TTTTTTTTTTTTTTTTTTTTTTTTTTTTTT DIIS        TELAPSE       79.07 TCPU     2102.18
 DIIS TEST: 0.12243E-05 AT SCF   CYCLE   7 - DIIS ACTIVE - HISTORY:     7 CYCLES
 TTTTTTTTTTTTTTTTTTTTTTTTTTTTTT FDIK        TELAPSE       79.56 TCPU     2117.75
 INSULATING STATE
 TOP OF VALENCE BANDS -    BAND     99; K    1; EIG -2.4490868E-01 AU
 BOTTOM OF VIRTUAL BANDS - BAND    100; K   17; EIG -8.9927602E-02 AU
 INDIRECT ENERGY BAND GAP:   4.2173 eV
 BOTTOM OF VIRTUAL BANDS - BAND    100; K    1; EIG -8.0616135E-02 AU
 TTTTTTTTTTTTTTTTTTTTTTTTTTTTTT PDIG        TELAPSE       79.89 TCPU     2123.93
 CHARGE NORMALIZATION FACTOR   1.00000000
 TOTAL ATOMIC CHARGES:
   4.5007975   4.5071667   4.5074810   4.5070162   4.5067407   4.5009463
   0.8740255   0.8741572   0.8772440   0.8772312   0.8676456   0.8677982
   0.8677506   0.8676930   0.8771726   0.8773374   0.8741009   0.8740461
   5.9211851   6.1702140   6.1704590   6.1649784   6.1651112   5.9222155
   5.9319915   6.1667872   6.1670774   6.1669296   6.1669447   5.9327936
   5.9213033   6.1648476   6.1652787   6.1702462   6.1703515   5.9220526
   8.4893381   8.4896361   8.4872903   8.4895422   8.4872950   8.4897807
 TTTTTTTTTTTTTTTTTTTTTTTTTTTTTT MOQGAD      TELAPSE       79.93 TCPU     2123.97
 TTTTTTTTTTTTTTTTTTTTTTTTTTTTTT SHELLXN     TELAPSE       86.73 TCPU     2340.36
 +++ ENERGIES IN A.U. +++
 ::: EXT EL-POLE                                  -1.3784435255342E+03
 ::: EXT EL-SPHEROPOLE                             1.5063183167699E+01
 ::: BIELET ZONE E-E                               2.0741875238074E+03
 ::: TOTAL E-E                                     7.1080718144080E+02
 ::: TOTAL E-N + N-E                              -3.2497828529722E+03
 ::: TOTAL N-N                                     1.0364820805316E+02
 ::: KINETIC ENERGY                                1.2799338744295E+03
 ::: PSEUDO TOTAL   ENERGY                        -1.1553935890487E+03
 ::: VIRIAL COEFFICIENT                            1.0511390304788E+00
 TTTTTTTTTTTTTTTTTTTTTTTTTTTTTT MONMO3      TELAPSE       86.87 TCPU     2344.74
 NUMERICALLY INTEGRATED DENSITY    198.0000087754
 EXCHANGE ENERGY: -0.126025554432E+03  CORRELATION ENERGY: -0.769115610209E+01
 TTTTTTTTTTTTTTTTTTTTTTTTTTTTTT NUMDFT      TELAPSE       87.46 TCPU     2363.85
 CYC   8 ETOT(AU) -1.289110299583E+03 DETOT -2.25E-07 tst  4.36E-09 PX  3.80E-04

 == SCF ENDED - CONVERGENCE ON ENERGY      E(AU) -1.2891102995829E+03 CYCLES   8


 ENERGY EXPRESSION=HARTREE+FOCK EXCH*0.00000+(HSESOL     EXCH)*1.00000+PBESOL     CORR


 TOTAL ENERGY(DFT)(AU)(  8) -1.2891102995829E+03 DE-2.2E-07 tester 4.4E-09
 TTTTTTTTTTTTTTTTTTTTTTTTTTTTTT EDFT        TELAPSE       87.46 TCPU     2363.86
 
 INFORMATION **** DFTD3 ENERGY **** CALCULATE DFTD3 ENERGY

           DFT-D V3(BJ)
 DF                                         hsesol3c  
 parameters
 s6       :    1.0000
 s8       :    0.0000
 a1       :    0.5196
 a2       :    4.9385
 k1 k3    :   16.0000   -4.0000
 Cutoff   :   50.2022
 CN-Cutoff:   21.1671
 ABC-Cutoff:   21.1671
 
 Edisp /kcal,au:   -24.6386 -0.03926411

 E6    /kcal :   -26.0129
 E8    /kcal :     0.0000
 E6(ABC) "   :   1.374341
 
 INFORMATION **** DFTD3 ENERGY **** NORMAL TERMINATION OF DFTD3 MODULE

 GCP ENERGY CALCULATION
  level        hsesol3c            basis:hsesol3c
  Nbf            474
  Atoms           42

  Parameters: 
  sigma     1.0000
  eta       1.4281
  alpha     0.2936
  beta      1.9467

  dmp_scal      4.0000
  dmp_exp       6.0000
 cutoffs: 
   distance [bohr] 60.0
   noise    [a.u.] 2.2E-16
 SR-damping   T
 ** gCP correction **
  Egcp:        0.0829933152 / (a.u.) ||      52.0791 / (kcal/mol)
 INFORMATION **** GCP **** NORMAL TERMINATION OF GCP MODULE

 *******************************************************************************

 DFT-D3-GCP DISPERSION AND COUNTERPOISE CORRECTION

 D3 DISPERSION ENERGY (AU)      -3.9264114345653E-02
 GCP ENERGY (AU)                 8.2993315233917E-02
 TOTAL ENERGY + DISP + GCP (AU) -1.2890665703820E+03

 *******************************************************************************

 EIGENVECTORS IN FORTRAN UNIT  8
 TTTTTTTTTTTTTTTTTTTTTTTTTTTTTT END         TELAPSE       89.00 TCPU     2371.31
 EEEEEEEEEE TERMINATION  DATE 19 02 2026 TIME 19:00:08.4
