 Default number of threads is:           32

         
 *******************************************************************************
 *                                                                             *
 *                               CRYSTAL23                                     *
 *                      public : 1.0.1 - October 2022                          *
 *                       HTTP://WWW.CRYSTAL.UNITO.IT                           *
 *                                                                             *
 *                              MAIN AUTHORS                                   *
 *                                                                             *
 *  R. DOVESI(1,11), V.R. SAUNDERS(2), C. ROETTI(1,11), R. ORLANDO(1,11),      *
 *  C.M. ZICOVICH-WILSON(1,3), F. PASCALE(4), B. CIVALLERI(1,11),              *
 *  K. DOLL(5), N.M. HARRISON(6), I.J. BUSH(7), Ph. D'ARCO(8),                 *
 *  M. LLUNELL(9), M. CAUSA'(10), Y. NOEL(8), L. MASCHIO(1,11), A. ERBA(1,11)  *
 *  M. RE'RAT(14), S. CASASSA(1,11), B.G. SEARLE(2), J.K. DESMARAIS(1)         *
 *                                                                             *
 *        CONTRIBUTIONS TO THE CODE HAVE ALSO BEEN GIVEN BY                    *
 *                                                                             *
 *  M. FERRABONE(1,11), M. DE LA PIERRE(1,11), M. FERRERO(1,11),               *
 *  J. BAIMA(1,11), E. ALBANESE(1,11), M.F. PEINTINGER(12), R. BAST(13),       *
 *  B. KIRTMAN(15), V. LACIVITA(1,11), R. DEMICHELIS(1,16)                     *
 *  G. BRANDEBURG(17), S. SALUSTRO(1,11), G. SANSONE(1,11)                     *
 *  M.T. RUGGIERO(18), L.E. DAGA(1), L. DONA'(1), A. COSSARD(1)                *
 *                                                                             *
 * (1) THEORETICAL CHEMISTRY GROUP - UNIVERSITA' DI TORINO - TORINO (ITALY)    *
 * (2) SCIENTIFIC COMPUTING DEPARTMENT - STFC DARESBURY (UK)                   *
 * (3) UNIVERSIDAD AUTONOMA DEL ESTADO DE MORELOS - CUERNAVACA (MEXICO)        *
 * (4) UNIVERSITE' DE LORRAINE - NANCY (FRANCE)                                *
 * (5) UNIVERSITAET STUTTGART- STUTTGART (GERMANY)                             *
 * (6) IMPERIAL COLLEGE - LONDON (UK)                                          *
 * (7) SCIENTIFIC COMPUTING DEPARTMENT - STFC RAL (UK)                         *
 * (8) UPMC - SORBONNE UNIVERSITES - PARIS (FRANCE)                            *
 * (9) UNIVERSIDAD DE BARCELONA - BARCELONA (SPAIN)                            *
 *(10) UNIVERSITA' DI NAPOLI "FEDERICO II" - NAPOLI (ITALY)                    *
 *(11) NIS - NANOSTRUCTURED INTERFACES AND SURFACES - TORINO (ITALY)           *
 *(12) MPI FUER CHEMISCHE ENERGIEKONVERSION - MUELHEIM AN DER RUHR (GERMANY)   *
 *(13) UNIVERSITY OF TROMSO - TROMSO (NORWAY)                                  *
 *(14) UNIVERSITE' DE PAU ET DES PAYS DE L'ADOUR - PAU (FRANCE)                *
 *(15) UNIVERSITY OF CALIFORNIA SANTA BARBARA - SANTA BARBARA (USA)            *
 *(16) CURTIN UNIVERSITY - PERTH (AUSTRALIA)                                   *
 *(17) UNIVERSITY COLLEGE LONDON - LONDON (UK)                                 *
 *(18) UNIVERSITY OF VERMONT - BURLINGTON (USA)                                *
 *                                                                             *
 *******************************************************************************
 EEEEEEEEEE STARTING  DATE 19 02 2026 TIME 19:50:03.0
 cof-1_z32_L050_serr                                                             

 CRYSTAL CALCULATION
 (INPUT ACCORDING TO THE INTERNATIONAL TABLES FOR X-RAY CRYSTALLOGRAPHY)
 CRYSTAL FAMILY                       :  TRICLINIC   
 CRYSTAL CLASS  (GROTH - 1921)        :  TRICLINIC PEDIAL                     

 SPACE GROUP (NONCENTROSYMMETRIC)     :  P 1             

 LATTICE PARAMETERS  (ANGSTROMS AND DEGREES) - CONVENTIONAL CELL
        A           B           C        ALPHA        BETA       GAMMA
    15.02361    15.02392     6.40000    90.00032    89.99994   119.99596


 NUMBER OF IRREDUCIBLE ATOMS IN THE CONVENTIONAL CELL:   84

 INPUT COORDINATES

 ATOM AT. N.              COORDINATES
   1   5     6.136805400000E-01  2.273182200000E-01  2.507463700000E-01
   2   5     8.057969300000E-01  6.115900500000E-01  7.507463700000E-01
   3   5     7.727362000000E-01  3.863778800000E-01  2.507463800000E-01
   4   5     9.648525900000E-01  7.706497100000E-01  7.507463800000E-01
   5   5     6.136762700000E-01  3.863606700000E-01  2.491771200000E-01
   6   5     8.057926600000E-01  7.706325000000E-01  7.491771300000E-01
   7   5     2.272552500000E-01  6.136332200000E-01  2.507463700000E-01
   8   5     4.193716400000E-01  9.979050500000E-01  7.507463700000E-01
   9   5     3.863632200000E-01  6.136124500000E-01  2.507463700000E-01
  10   5     5.784796100000E-01  9.978842800000E-01  7.507463700000E-01
  11   5     3.863435000000E-01  7.727516500000E-01  2.491771300000E-01
  12   5     5.784598900000E-01  1.570234800000E-01  7.491771200000E-01
  13   1     9.030436200000E-01  3.089300500000E-01  2.474930100000E-01
  14   1     9.516001000000E-02  6.932018800000E-01  7.474930000000E-01
  15   1     9.663453000000E-02  6.910534400000E-01  2.469955100000E-01
  16   1     2.887509200000E-01  7.532527000000E-02  7.469955100000E-01
  17   1     9.029714200000E-01  5.940724300000E-01  2.469189400000E-01
  18   1     9.508781000000E-02  9.783442600000E-01  7.469189400000E-01
  19   1     9.673618000000E-02  4.056849400000E-01  2.469380400000E-01
  20   1     2.888525700000E-01  7.899567700000E-01  7.469380400000E-01
  21   1     6.910324000000E-01  9.700412000000E-02  2.525070200000E-01
  22   1     8.831487900000E-01  4.812759500000E-01  7.525070200000E-01
  23   1     3.089297200000E-01  9.034373100000E-01  2.530045500000E-01
  24   1     5.010461100000E-01  2.877091400000E-01  7.530045500000E-01
  25   1     4.058699900000E-01  9.704998000000E-02  2.530811600000E-01
  26   1     5.979863800000E-01  4.813218100000E-01  7.530811600000E-01
  27   1     5.943122100000E-01  9.033473200000E-01  2.530619400000E-01
  28   1     7.864286000000E-01  2.876191500000E-01  7.530619400000E-01
  29   1     6.910727400000E-01  5.940542100000E-01  2.474930300000E-01
  30   1     8.831891300000E-01  9.783260400000E-01  7.474930300000E-01
  31   1     3.089618300000E-01  4.056093300000E-01  2.469954700000E-01
  32   1     5.010782200000E-01  7.898811600000E-01  7.469954700000E-01
  33   1     4.058405700000E-01  3.088232500000E-01  2.469188800000E-01
  34   1     5.979569600000E-01  6.930950800000E-01  7.469188800000E-01
  35   1     5.942908800000E-01  6.909579300000E-01  2.469381000000E-01
  36   1     7.864072700000E-01  7.522976000000E-02  7.469381000000E-01
  37   6     8.918903100000E-01  4.459436900000E-01  2.491197000000E-01
  38   6     8.400670000000E-02  8.302155200000E-01  7.491197100000E-01
  39   6     9.464891100000E-01  3.927856300000E-01  2.475695600000E-01
  40   6     1.386055000000E-01  7.770574600000E-01  7.475695700000E-01
  41   6     5.338812000000E-02  6.071853000000E-01  2.474356500000E-01
  42   6     2.455045100000E-01  9.914571300000E-01  7.474356500000E-01
  43   6     9.464521100000E-01  5.536921900000E-01  2.478375300000E-01
  44   6     1.385685000000E-01  9.379640200000E-01  7.478375300000E-01
  45   6     5.342634000000E-02  4.462499700000E-01  2.468040800000E-01
  46   6     2.455427300000E-01  8.305218000000E-01  7.468040800000E-01
  47   6     1.080358900000E-01  5.540356300000E-01  2.478566500000E-01
  48   6     3.001522800000E-01  9.383074600000E-01  7.478566500000E-01
  49   6     5.540394200000E-01  1.081684600000E-01  2.508803400000E-01
  50   6     7.461558100000E-01  4.924402900000E-01  7.508803400000E-01
  51   6     6.071778500000E-01  5.355594000000E-02  2.524304500000E-01
  52   6     7.992942400000E-01  4.378277700000E-01  7.524304500000E-01
  53   6     3.927986700000E-01  9.466631600000E-01  2.525644100000E-01
  54   6     5.849150600000E-01  3.309349900000E-01  7.525644100000E-01
  55   6     4.462875800000E-01  5.360286000000E-02  2.521625500000E-01
  56   6     6.384039700000E-01  4.378746900000E-01  7.521625500000E-01
  57   6     5.537168500000E-01  9.466235600000E-01  2.531959200000E-01
  58   6     7.458332400000E-01  3.308953900000E-01  7.531959200000E-01
  59   6     4.459279100000E-01  8.919920600000E-01  2.521433800000E-01
  60   6     6.380443000000E-01  2.762638900000E-01  7.521433800000E-01
  61   6     5.540448700000E-01  4.458745500000E-01  2.491197000000E-01
  62   6     7.461612600000E-01  8.301463800000E-01  7.491197000000E-01
  63   6     6.072102200000E-01  5.536257800000E-01  2.475696000000E-01
  64   6     7.993266100000E-01  9.378976100000E-01  7.475696000000E-01
  65   6     3.928233700000E-01  4.461720300000E-01  2.474356200000E-01
  66   6     5.849397600000E-01  8.304438600000E-01  7.474356200000E-01
  67   6     4.462872600000E-01  3.926899900000E-01  2.478374900000E-01
  68   6     6.384036500000E-01  7.769618200000E-01  7.478374900000E-01
  69   6     5.537429600000E-01  6.070980000000E-01  2.468041200000E-01
  70   6     7.458593500000E-01  9.913698300000E-01  7.468041200000E-01
  71   6     4.459599800000E-01  5.539582300000E-01  2.478566500000E-01
  72   6     6.380763700000E-01  9.382300600000E-01  7.478566500000E-01
  73   8     5.607366800000E-01  2.803706300000E-01  2.495981300000E-01
  74   8     7.528530700000E-01  6.646424600000E-01  7.495981400000E-01
  75   8     7.196817000000E-01  2.803783300000E-01  2.529088600000E-01
  76   8     9.117980900000E-01  6.646501600000E-01  7.529088700000E-01
  77   8     7.196794200000E-01  4.393234600000E-01  2.479140800000E-01
  78   8     9.117958100000E-01  8.235952900000E-01  7.479140800000E-01
  79   8     2.803245100000E-01  7.196511100000E-01  2.495981500000E-01
  80   8     4.724409000000E-01  1.039229400000E-01  7.495981500000E-01
  81   8     2.803439700000E-01  5.606956100000E-01  2.529088600000E-01
  82   8     4.724603600000E-01  9.449674400000E-01  7.529088700000E-01
  83   8     4.392638400000E-01  7.196354200000E-01  2.479140600000E-01
  84   8     6.313802300000E-01  1.039072500000E-01  7.479140700000E-01

 *******************************************************************************

 << INFORMATION >>: FROM NOW ON, ALL COORDINATES REFER TO THE PRIMITIVE CELL

 *******************************************************************************

 LATTICE PARAMETERS  (ANGSTROMS AND DEGREES) - PRIMITIVE CELL
       A          B          C        ALPHA      BETA     GAMMA        VOLUME
   15.02361   15.02392    6.40000    90.00032  89.99994 119.99596   1251.081907

 COORDINATES OF THE EQUIVALENT ATOMS (FRACTIONAL UNITS)

 N. ATOM EQUIV AT. N.          X                  Y                  Z

   1   1   1    5 B    -3.86319460000E-01  2.27318220000E-01  2.50746370000E-01

   2   2   1    5 B    -1.94203070000E-01 -3.88409950000E-01 -2.49253630000E-01

   3   3   1    5 B    -2.27263800000E-01  3.86377880000E-01  2.50746380000E-01

   4   4   1    5 B    -3.51474100000E-02 -2.29350290000E-01 -2.49253620000E-01

   5   5   1    5 B    -3.86323730000E-01  3.86360670000E-01  2.49177120000E-01

   6   6   1    5 B    -1.94207340000E-01 -2.29367500000E-01 -2.50822870000E-01

   7   7   1    5 B     2.27255250000E-01 -3.86366780000E-01  2.50746370000E-01

   8   8   1    5 B     4.19371640000E-01 -2.09495000000E-03 -2.49253630000E-01

   9   9   1    5 B     3.86363220000E-01 -3.86387550000E-01  2.50746370000E-01

  10  10   1    5 B    -4.21520390000E-01 -2.11572000000E-03 -2.49253630000E-01

  11  11   1    5 B     3.86343500000E-01 -2.27248350000E-01  2.49177130000E-01

  12  12   1    5 B    -4.21540110000E-01  1.57023480000E-01 -2.50822880000E-01

  13  13   1    1 H    -9.69563800000E-02  3.08930050000E-01  2.47493010000E-01

  14  14   1    1 H     9.51600100000E-02 -3.06798120000E-01 -2.52507000000E-01

  15  15   1    1 H     9.66345300000E-02 -3.08946560000E-01  2.46995510000E-01

  16  16   1    1 H     2.88750920000E-01  7.53252700000E-02 -2.53004490000E-01

  17  17   1    1 H    -9.70285800000E-02 -4.05927570000E-01  2.46918940000E-01

  18  18   1    1 H     9.50878100000E-02 -2.16557400000E-02 -2.53081060000E-01

  19  19   1    1 H     9.67361800000E-02  4.05684940000E-01  2.46938040000E-01

  20  20   1    1 H     2.88852570000E-01 -2.10043230000E-01 -2.53061960000E-01

  21  21   1    1 H    -3.08967600000E-01  9.70041200000E-02  2.52507020000E-01

  22  22   1    1 H    -1.16851210000E-01  4.81275950000E-01 -2.47492980000E-01

  23  23   1    1 H     3.08929720000E-01 -9.65626900000E-02  2.53004550000E-01

  24  24   1    1 H    -4.98953890000E-01  2.87709140000E-01 -2.46995450000E-01

  25  25   1    1 H     4.05869990000E-01  9.70499800000E-02  2.53081160000E-01

  26  26   1    1 H    -4.02013620000E-01  4.81321810000E-01 -2.46918840000E-01

  27  27   1    1 H    -4.05687790000E-01 -9.66526800000E-02  2.53061940000E-01

  28  28   1    1 H    -2.13571400000E-01  2.87619150000E-01 -2.46938060000E-01

  29  29   1    1 H    -3.08927260000E-01 -4.05945790000E-01  2.47493030000E-01

  30  30   1    1 H    -1.16810870000E-01 -2.16739600000E-02 -2.52506970000E-01

  31  31   1    1 H     3.08961830000E-01  4.05609330000E-01  2.46995470000E-01

  32  32   1    1 H    -4.98921780000E-01 -2.10118840000E-01 -2.53004530000E-01

  33  33   1    1 H     4.05840570000E-01  3.08823250000E-01  2.46918880000E-01

  34  34   1    1 H    -4.02043040000E-01 -3.06904920000E-01 -2.53081120000E-01

  35  35   1    1 H    -4.05709120000E-01 -3.09042070000E-01  2.46938100000E-01

  36  36   1    1 H    -2.13592730000E-01  7.52297600000E-02 -2.53061900000E-01

  37  37   1    6 C    -1.08109690000E-01  4.45943690000E-01  2.49119700000E-01

  38  38   1    6 C     8.40067000000E-02 -1.69784480000E-01 -2.50880290000E-01

  39  39   1    6 C    -5.35108900000E-02  3.92785630000E-01  2.47569560000E-01

  40  40   1    6 C     1.38605500000E-01 -2.22942540000E-01 -2.52430430000E-01

  41  41   1    6 C     5.33881200000E-02 -3.92814700000E-01  2.47435650000E-01

  42  42   1    6 C     2.45504510000E-01 -8.54287000000E-03 -2.52564350000E-01

  43  43   1    6 C    -5.35478900000E-02 -4.46307810000E-01  2.47837530000E-01

  44  44   1    6 C     1.38568500000E-01 -6.20359800000E-02 -2.52162470000E-01

  45  45   1    6 C     5.34263400000E-02  4.46249970000E-01  2.46804080000E-01

  46  46   1    6 C     2.45542730000E-01 -1.69478200000E-01 -2.53195920000E-01

  47  47   1    6 C     1.08035890000E-01 -4.45964370000E-01  2.47856650000E-01

  48  48   1    6 C     3.00152280000E-01 -6.16925400000E-02 -2.52143350000E-01

  49  49   1    6 C    -4.45960580000E-01  1.08168460000E-01  2.50880340000E-01

  50  50   1    6 C    -2.53844190000E-01  4.92440290000E-01 -2.49119660000E-01

  51  51   1    6 C    -3.92822150000E-01  5.35559400000E-02  2.52430450000E-01

  52  52   1    6 C    -2.00705760000E-01  4.37827770000E-01 -2.47569550000E-01

  53  53   1    6 C     3.92798670000E-01 -5.33368400000E-02  2.52564410000E-01

  54  54   1    6 C    -4.15084940000E-01  3.30934990000E-01 -2.47435590000E-01

  55  55   1    6 C     4.46287580000E-01  5.36028600000E-02  2.52162550000E-01

  56  56   1    6 C    -3.61596030000E-01  4.37874690000E-01 -2.47837450000E-01

  57  57   1    6 C    -4.46283150000E-01 -5.33764400000E-02  2.53195920000E-01

  58  58   1    6 C    -2.54166760000E-01  3.30895390000E-01 -2.46804080000E-01

  59  59   1    6 C     4.45927910000E-01 -1.08007940000E-01  2.52143380000E-01

  60  60   1    6 C    -3.61955700000E-01  2.76263890000E-01 -2.47856620000E-01

  61  61   1    6 C    -4.45955130000E-01  4.45874550000E-01  2.49119700000E-01

  62  62   1    6 C    -2.53838740000E-01 -1.69853620000E-01 -2.50880300000E-01

  63  63   1    6 C    -3.92789780000E-01 -4.46374220000E-01  2.47569600000E-01

  64  64   1    6 C    -2.00673390000E-01 -6.21023900000E-02 -2.52430400000E-01

  65  65   1    6 C     3.92823370000E-01  4.46172030000E-01  2.47435620000E-01

  66  66   1    6 C    -4.15060240000E-01 -1.69556140000E-01 -2.52564380000E-01

  67  67   1    6 C     4.46287260000E-01  3.92689990000E-01  2.47837490000E-01

  68  68   1    6 C    -3.61596350000E-01 -2.23038180000E-01 -2.52162510000E-01

  69  69   1    6 C    -4.46257040000E-01 -3.92902000000E-01  2.46804120000E-01

  70  70   1    6 C    -2.54140650000E-01 -8.63017000000E-03 -2.53195880000E-01

  71  71   1    6 C     4.45959980000E-01 -4.46041770000E-01  2.47856650000E-01

  72  72   1    6 C    -3.61923630000E-01 -6.17699400000E-02 -2.52143350000E-01

  73  73   1    8 O    -4.39263320000E-01  2.80370630000E-01  2.49598130000E-01

  74  74   1    8 O    -2.47146930000E-01 -3.35357540000E-01 -2.50401860000E-01

  75  75   1    8 O    -2.80318300000E-01  2.80378330000E-01  2.52908860000E-01

  76  76   1    8 O    -8.82019100000E-02 -3.35349840000E-01 -2.47091130000E-01

  77  77   1    8 O    -2.80320580000E-01  4.39323460000E-01  2.47914080000E-01

  78  78   1    8 O    -8.82041900000E-02 -1.76404710000E-01 -2.52085920000E-01

  79  79   1    8 O     2.80324510000E-01 -2.80348890000E-01  2.49598150000E-01

  80  80   1    8 O     4.72440900000E-01  1.03922940000E-01 -2.50401850000E-01

  81  81   1    8 O     2.80343970000E-01 -4.39304390000E-01  2.52908860000E-01

  82  82   1    8 O     4.72460360000E-01 -5.50325600000E-02 -2.47091130000E-01

  83  83   1    8 O     4.39263840000E-01 -2.80364580000E-01  2.47914060000E-01

  84  84   1    8 O    -3.68619770000E-01  1.03907250000E-01 -2.52085930000E-01

 NUMBER OF SYMMETRY OPERATORS         :    1
 *******************************************************************************
 * GEOMETRY EDITING - INPUT COORDINATES ARE GIVEN IN ANGSTROM         
 *******************************************************************************

 GCALCO - MAX INDICES DIRECT LATTICE VECTOR    11    11    24
 NO.OF VECTORS CREATED 6999 STARS 3500 RMAX   241.85967 BOHR

 GEOMETRY FOR WAVE FUNCTION - DIMENSIONALITY OF THE SYSTEM    3
 (NON PERIODIC DIRECTION: LATTICE PARAMETER FORMALLY SET TO 500)
 *******************************************************************************
 LATTICE PARAMETERS (ANGSTROMS AND DEGREES) - BOHR = 0.5291772083 ANGSTROM
 PRIMITIVE CELL - CENTRING CODE 1/0 VOLUME=  1251.081907 - DENSITY  1.036 g/cm^3
         A              B              C           ALPHA      BETA       GAMMA 
    15.02361100    15.02391600     6.40000000    90.000323  89.999944 119.995964
 *******************************************************************************
 ATOMS IN THE ASYMMETRIC UNIT   84 - ATOMS IN THE UNIT CELL:   84
     ATOM                 X/A                 Y/B                 Z/C    
 *******************************************************************************
      1 T   5 B    -3.863194600000E-01  2.273182200000E-01  2.507463700000E-01
      2 T   5 B    -1.942030700000E-01 -3.884099500000E-01 -2.492536300000E-01
      3 T   5 B    -2.272638000000E-01  3.863778800000E-01  2.507463800000E-01
      4 T   5 B    -3.514741000000E-02 -2.293502900000E-01 -2.492536200000E-01
      5 T   5 B    -3.863237300000E-01  3.863606700000E-01  2.491771200000E-01
      6 T   5 B    -1.942073400000E-01 -2.293675000000E-01 -2.508228700000E-01
      7 T   5 B     2.272552500000E-01 -3.863667800000E-01  2.507463700000E-01
      8 T   5 B     4.193716400000E-01 -2.094950000000E-03 -2.492536300000E-01
      9 T   5 B     3.863632200000E-01 -3.863875500000E-01  2.507463700000E-01
     10 T   5 B    -4.215203900000E-01 -2.115720000000E-03 -2.492536300000E-01
     11 T   5 B     3.863435000000E-01 -2.272483500000E-01  2.491771300000E-01
     12 T   5 B    -4.215401100000E-01  1.570234800000E-01 -2.508228800000E-01
     13 T   1 H    -9.695638000000E-02  3.089300500000E-01  2.474930100000E-01
     14 T   1 H     9.516001000000E-02 -3.067981200000E-01 -2.525070000000E-01
     15 T   1 H     9.663453000000E-02 -3.089465600000E-01  2.469955100000E-01
     16 T   1 H     2.887509200000E-01  7.532527000000E-02 -2.530044900000E-01
     17 T   1 H    -9.702858000000E-02 -4.059275700000E-01  2.469189400000E-01
     18 T   1 H     9.508781000000E-02 -2.165574000000E-02 -2.530810600000E-01
     19 T   1 H     9.673618000000E-02  4.056849400000E-01  2.469380400000E-01
     20 T   1 H     2.888525700000E-01 -2.100432300000E-01 -2.530619600000E-01
     21 T   1 H    -3.089676000000E-01  9.700412000000E-02  2.525070200000E-01
     22 T   1 H    -1.168512100000E-01  4.812759500000E-01 -2.474929800000E-01
     23 T   1 H     3.089297200000E-01 -9.656269000000E-02  2.530045500000E-01
     24 T   1 H    -4.989538900000E-01  2.877091400000E-01 -2.469954500000E-01
     25 T   1 H     4.058699900000E-01  9.704998000000E-02  2.530811600000E-01
     26 T   1 H    -4.020136200000E-01  4.813218100000E-01 -2.469188400000E-01
     27 T   1 H    -4.056877900000E-01 -9.665268000000E-02  2.530619400000E-01
     28 T   1 H    -2.135714000000E-01  2.876191500000E-01 -2.469380600000E-01
     29 T   1 H    -3.089272600000E-01 -4.059457900000E-01  2.474930300000E-01
     30 T   1 H    -1.168108700000E-01 -2.167396000000E-02 -2.525069700000E-01
     31 T   1 H     3.089618300000E-01  4.056093300000E-01  2.469954700000E-01
     32 T   1 H    -4.989217800000E-01 -2.101188400000E-01 -2.530045300000E-01
     33 T   1 H     4.058405700000E-01  3.088232500000E-01  2.469188800000E-01
     34 T   1 H    -4.020430400000E-01 -3.069049200000E-01 -2.530811200000E-01
     35 T   1 H    -4.057091200000E-01 -3.090420700000E-01  2.469381000000E-01
     36 T   1 H    -2.135927300000E-01  7.522976000000E-02 -2.530619000000E-01
     37 T   6 C    -1.081096900000E-01  4.459436900000E-01  2.491197000000E-01
     38 T   6 C     8.400670000000E-02 -1.697844800000E-01 -2.508802900000E-01
     39 T   6 C    -5.351089000000E-02  3.927856300000E-01  2.475695600000E-01
     40 T   6 C     1.386055000000E-01 -2.229425400000E-01 -2.524304300000E-01
     41 T   6 C     5.338812000000E-02 -3.928147000000E-01  2.474356500000E-01
     42 T   6 C     2.455045100000E-01 -8.542870000000E-03 -2.525643500000E-01
     43 T   6 C    -5.354789000000E-02 -4.463078100000E-01  2.478375300000E-01
     44 T   6 C     1.385685000000E-01 -6.203598000000E-02 -2.521624700000E-01
     45 T   6 C     5.342634000000E-02  4.462499700000E-01  2.468040800000E-01
     46 T   6 C     2.455427300000E-01 -1.694782000000E-01 -2.531959200000E-01
     47 T   6 C     1.080358900000E-01 -4.459643700000E-01  2.478566500000E-01
     48 T   6 C     3.001522800000E-01 -6.169254000000E-02 -2.521433500000E-01
     49 T   6 C    -4.459605800000E-01  1.081684600000E-01  2.508803400000E-01
     50 T   6 C    -2.538441900000E-01  4.924402900000E-01 -2.491196600000E-01
     51 T   6 C    -3.928221500000E-01  5.355594000000E-02  2.524304500000E-01
     52 T   6 C    -2.007057600000E-01  4.378277700000E-01 -2.475695500000E-01
     53 T   6 C     3.927986700000E-01 -5.333684000000E-02  2.525644100000E-01
     54 T   6 C    -4.150849400000E-01  3.309349900000E-01 -2.474355900000E-01
     55 T   6 C     4.462875800000E-01  5.360286000000E-02  2.521625500000E-01
     56 T   6 C    -3.615960300000E-01  4.378746900000E-01 -2.478374500000E-01
     57 T   6 C    -4.462831500000E-01 -5.337644000000E-02  2.531959200000E-01
     58 T   6 C    -2.541667600000E-01  3.308953900000E-01 -2.468040800000E-01
     59 T   6 C     4.459279100000E-01 -1.080079400000E-01  2.521433800000E-01
     60 T   6 C    -3.619557000000E-01  2.762638900000E-01 -2.478566200000E-01
     61 T   6 C    -4.459551300000E-01  4.458745500000E-01  2.491197000000E-01
     62 T   6 C    -2.538387400000E-01 -1.698536200000E-01 -2.508803000000E-01
     63 T   6 C    -3.927897800000E-01 -4.463742200000E-01  2.475696000000E-01
     64 T   6 C    -2.006733900000E-01 -6.210239000000E-02 -2.524304000000E-01
     65 T   6 C     3.928233700000E-01  4.461720300000E-01  2.474356200000E-01
     66 T   6 C    -4.150602400000E-01 -1.695561400000E-01 -2.525643800000E-01
     67 T   6 C     4.462872600000E-01  3.926899900000E-01  2.478374900000E-01
     68 T   6 C    -3.615963500000E-01 -2.230381800000E-01 -2.521625100000E-01
     69 T   6 C    -4.462570400000E-01 -3.929020000000E-01  2.468041200000E-01
     70 T   6 C    -2.541406500000E-01 -8.630170000000E-03 -2.531958800000E-01
     71 T   6 C     4.459599800000E-01 -4.460417700000E-01  2.478566500000E-01
     72 T   6 C    -3.619236300000E-01 -6.176994000000E-02 -2.521433500000E-01
     73 T   8 O    -4.392633200000E-01  2.803706300000E-01  2.495981300000E-01
     74 T   8 O    -2.471469300000E-01 -3.353575400000E-01 -2.504018600000E-01
     75 T   8 O    -2.803183000000E-01  2.803783300000E-01  2.529088600000E-01
     76 T   8 O    -8.820191000000E-02 -3.353498400000E-01 -2.470911300000E-01
     77 T   8 O    -2.803205800000E-01  4.393234600000E-01  2.479140800000E-01
     78 T   8 O    -8.820419000000E-02 -1.764047100000E-01 -2.520859200000E-01
     79 T   8 O     2.803245100000E-01 -2.803488900000E-01  2.495981500000E-01
     80 T   8 O     4.724409000000E-01  1.039229400000E-01 -2.504018500000E-01
     81 T   8 O     2.803439700000E-01 -4.393043900000E-01  2.529088600000E-01
     82 T   8 O     4.724603600000E-01 -5.503256000000E-02 -2.470911300000E-01
     83 T   8 O     4.392638400000E-01 -2.803645800000E-01  2.479140600000E-01
     84 T   8 O    -3.686197700000E-01  1.039072500000E-01 -2.520859300000E-01

 T = ATOM BELONGING TO THE ASYMMETRIC UNIT

 ****    1 SYMMOPS - TRANSLATORS IN FRACTIONAL UNITS
 **** MATRICES AND TRANSLATORS IN THE CRYSTALLOGRAPHIC REFERENCE FRAME
   V INV                    ROTATION MATRICES                   TRANSLATORS
   1   1  1.00 -0.00  0.00  0.00  1.00  0.00  0.00  0.00  1.00  0.00  0.00  0.00

 DIRECT LATTICE VECTORS CARTESIAN COMPONENTS (ANGSTROM)
          X                    Y                    Z
   0.130113578931E+02  -0.751088897922E+01   0.000000000000E+00
   0.000000000000E+00   0.150239160000E+02   0.000000000000E+00
  -0.136044311046E-04  -0.360794462958E-04   0.639999999988E+01


 CARTESIAN COORDINATES - PRIMITIVE CELL
 *******************************************************************************
 *      ATOM          X(ANGSTROM)         Y(ANGSTROM)         Z(ANGSTROM)
 *******************************************************************************
    1     5 B    -5.026544166374E+00  6.316803370330E+00  1.604776767971E+00
    2     5 B    -2.526842256746E+00 -4.376791771238E+00 -1.595223231971E+00
    3     5 B    -2.957014049198E+00  7.511852937382E+00  1.604776831971E+00
    4     5 B    -4.573121395703E-01 -3.181742204186E+00 -1.595223167971E+00
    5     5 B    -5.026599703524E+00 -6.317640092322E+00  1.594733567971E+00
    6     5 B    -2.526897793896E+00 -1.987319233891E+00 -1.605266367971E+00
    7     5 B     2.956895979564E+00 -7.511640047395E+00  1.604776767971E+00
    8     5 B     5.456597889192E+00 -3.181319188963E+00 -1.595223231971E+00
    9     5 B     5.027106720872E+00  6.316921607491E+00  1.604776767971E+00
   10     5 B    -5.484549262557E+00  3.134215445139E+00 -1.595223231971E+00
   11     5 B     5.026850158243E+00 -6.315952248053E+00  1.594733631971E+00
   12     5 B     7.526552067871E+00 -1.985631389621E+00 -1.605266431971E+00
   13     1 H    -1.261537527197E+00  5.369558797672E+00  1.583955263971E+00
   14     1 H     1.238164382431E+00 -5.324036343896E+00 -1.616044799971E+00
   15     1 H     1.257343094424E+00 -5.367407303779E+00  1.580771263971E+00
   16     1 H     3.757045004052E+00 -1.037086445347E+00 -1.619228735971E+00
   17     1 H    -1.262476939427E+00 -5.369859730272E+00  1.580281215971E+00
   18     1 H     1.237224970201E+00 -1.039538871840E+00 -1.619718783971E+00
   19     1 H     1.258665699736E+00  5.368392843384E+00  1.580403455971E+00
   20     1 H     3.758367609363E+00 -5.325202298185E+00 -1.619596543971E+00
   21     1 H    -4.020091456173E+00  3.777993981995E+00  1.616044927971E+00
   22     1 H    -1.520389546546E+00 -6.915601159573E+00 -1.583955071971E+00
   23     1 H     4.019591708739E+00 -3.771095700859E+00  1.619229119971E+00
   24     1 H     6.519293618366E+00  5.592251575730E-01 -1.580770879971E+00
   25     1 H     5.280916254916E+00 -1.590382818592E+00  1.619719423971E+00
   26     1 H    -5.230739728513E+00 -4.773088980944E+00 -1.580280575971E+00
   27     1 H    -5.278552471297E+00  1.594965075084E+00  1.619596415971E+00
   28     1 H    -2.778850561669E+00  5.925285933516E+00 -1.580403583971E+00
   29     1 H    -4.019566509783E+00 -3.778586026412E+00  1.583955391971E+00
   30     1 H    -1.519864600156E+00  5.517348320200E-01 -1.616044607971E+00
   31     1 H     4.020009585191E+00  3.773253587331E+00  1.580771007971E+00
   32     1 H    -6.491646398238E+00  5.905474249790E-01 -1.619228991971E+00
   33     1 H     5.280533544601E+00  1.591502193619E+00  1.580280831971E+00
   34     1 H    -5.231122438828E+00 -1.591203968733E+00 -1.619719167971E+00
   35     1 H    -5.278829920249E+00 -1.595794851360E+00  1.580403839971E+00
   36     1 H    -2.779128010622E+00  2.734526007071E+00 -1.619596159971E+00
   37     6 C    -1.406657257429E+00  7.511811430357E+00  1.594366079971E+00
   38     6 C     1.093044652198E+00 -3.181783711212E+00 -1.605633855971E+00
   39     6 C    -6.962527090090E-01  6.303083732924E+00  1.584445183971E+00
   40     6 C     1.803449200618E+00 -4.390511408645E+00 -1.615554751971E+00
   41     6 C     6.946485703362E-01 -6.302616225836E+00  1.583588159971E+00
   42     6 C     3.194350479964E+00 -1.972295367404E+00 -1.616411839971E+00
   43     6 C    -6.967341328966E-01 -6.303107732564E+00  1.586160191971E+00
   44     6 C     1.802967776731E+00 -1.972786874132E+00 -1.613839807971E+00
   45     6 C     6.951458730270E-01  6.303133851422E+00  1.579546111971E+00
   46     6 C     3.194847782655E+00 -4.390461290146E+00 -1.620453887971E+00
   47     6 C     1.405690258136E+00 -7.511585751964E+00  1.586282559971E+00
   48     6 C     3.905392167764E+00 -3.181264893533E+00 -1.613717439971E+00
   49     6 C     7.208801767397E+00 -2.536223768464E+00  1.605634175971E+00
   50     6 C    -3.302854216032E+00 -5.718929930816E+00 -1.594365823971E+00
   51     6 C    -5.111153016143E+00  3.755054393537E+00  1.615554879971E+00
   52     6 C    -2.611451106515E+00 -6.938540748031E+00 -1.584445119971E+00
   53     6 C     5.110840639292E+00 -3.751604517803E+00  1.616412223971E+00
   54     6 C     7.610542548919E+00  5.787163406282E-01 -1.583587775971E+00
   55     6 C     5.806803996078E+00 -2.546700698069E+00  1.613840319971E+00
   56     6 C    -4.704851987351E+00 -5.729406860421E+00 -1.586159679971E+00
   57     6 C    -5.806753230877E+00  2.550050906837E+00  1.620453887971E+00
   58     6 C    -3.307051321250E+00  6.880371765269E+00 -1.579546111971E+00
   59     6 C     5.802124201245E+00 -4.972026339831E+00  1.613717631971E+00
   60     6 C     8.301826110873E+00 -6.417054813990E-01 -1.586282367971E+00
   61     6 C     7.208872703250E+00  2.537403289563E+00  1.594366079971E+00
   62     6 C    -3.302783280179E+00 -6.453028727894E-01 -1.605633919971E+00
   63     6 C    -5.110731772359E+00 -3.756097288269E+00  1.584445439971E+00
   64     6 C    -2.611029862731E+00  5.742235701628E-01 -1.615554559971E+00
   65     6 C     5.111162089606E+00  3.752789452418E+00  1.583587967971E+00
   66     6 C    -5.400493893823E+00  5.700832900657E-01 -1.616412031971E+00
   67     6 C     5.806799891284E+00  2.547718419263E+00  1.586159935971E+00
   68     6 C    -4.704856092145E+00 -6.349877430892E-01 -1.613840063971E+00
   69     6 C    -5.806413417366E+00 -2.551148465154E+00  1.579546367971E+00
   70     6 C    -3.306711507738E+00  1.779172393277E+00 -1.620453631971E+00
   71     6 C     5.802541533812E+00  4.973057073544E+00  1.586282559971E+00
   72     6 C    -4.709114449617E+00  1.790350911192E+00 -1.613717439971E+00
   73     8 O     7.295942231604E+00  6.248385703281E-04  1.597428031971E+00
   74     8 O    -3.215713751825E+00 -3.182081323782E+00 -1.602571903971E+00
   75     8 O    -3.647325165954E+00  6.317810983471E+00  1.618616703971E+00
   76     8 O    -1.147623256327E+00 -4.375784158097E+00 -1.581383231971E+00
   77     8 O    -3.647354763899E+00 -6.318109429764E+00  1.586650111971E+00
   78     8 O    -1.147652854272E+00 -1.987788571332E+00 -1.613349887971E+00
   79     8 O     3.647399130165E+00 -6.317433452180E+00  1.597428159971E+00
   80     8 O     6.147101039792E+00 -1.987112593748E+00 -1.602571839971E+00
   81     8 O     3.647652286149E+00  6.318202186734E+00  1.618616703971E+00
   82     8 O     6.147354195777E+00 -4.375392954834E+00 -1.581383231971E+00
   83     8 O    -7.295942234068E+00 -5.557995051377E-04  1.586649983971E+00
   84     8 O    -4.796240324441E+00  4.329765058926E+00 -1.613349951971E+00

 *******************************************************************************
 STARTING BASIS SET HANDLING 
 *******************************************************************************

 Loading internal basis set: SOLDEF2MSVP         

 Please cite in your publication:
 L. Dona', J. G. Brandenburg and B. Civalleri, J. Chem. Phys., 151, 121101 (2019
 )                                                                              
                                                                                
                    

 *******************************************************************************
 LOCAL ATOMIC FUNCTIONS BASIS SET
 *******************************************************************************
   ATOM   X(AU)   Y(AU)   Z(AU)  N. TYPE  EXPONENT  S COEF   P COEF   D/F/G COEF
 *******************************************************************************
   1 B   -9.499  11.937   3.033
                                  1 S  
                                         2.410E+03 1.755E-03 0.000E+00 0.000E+00
                                         3.619E+02 1.344E-02 0.000E+00 0.000E+00
                                         8.231E+01 6.637E-02 0.000E+00 0.000E+00
                                         2.311E+01 2.303E-01 0.000E+00 0.000E+00
                                         7.252E+00 5.150E-01 0.000E+00 0.000E+00
                                  2 S  
                                         2.367E+00 1.000E+00 0.000E+00 0.000E+00
                                  3 S  
                                         5.533E-01 1.000E+00 0.000E+00 0.000E+00
                                  4 S  
                                         1.716E-01 1.000E+00 0.000E+00 0.000E+00
                           5-     7 P  
                                         6.002E+00 0.000E+00-3.555E-02 0.000E+00
                                         1.240E+00 0.000E+00-1.983E-01 0.000E+00
                                         3.367E-01 0.000E+00-5.048E-01 0.000E+00
                           8-    10 P  
                                         1.256E-01 0.000E+00 1.000E+00 0.000E+00
                          11-    15 D  
                                         8.880E-01 0.000E+00 0.000E+00 1.000E+00
   2 B   -4.775  -8.271  -3.015
   3 B   -5.588  14.195   3.033
   4 B   -0.864  -6.013  -3.015
   5 B   -9.499 -11.939   3.014
   6 B   -4.775  -3.755  -3.034
   7 B    5.588 -14.195   3.033
   8 B   10.311  -6.012  -3.015
   9 B    9.500  11.937   3.033
  10 B  -10.364   5.923  -3.015
  11 B    9.499 -11.935   3.014
  12 B   14.223  -3.752  -3.034
  13 H   -2.384  10.147   2.993
                                181 S  
                                         1.874E+01 1.968E-02 0.000E+00 0.000E+00
                                         2.826E+00 1.380E-01 0.000E+00 0.000E+00
                                         6.401E-01 4.783E-01 0.000E+00 0.000E+00
                                182 S  
                                         1.756E-01 1.000E+00 0.000E+00 0.000E+00
  14 H    2.340 -10.061  -3.054
  15 H    2.376 -10.143   2.987
  16 H    7.100  -1.960  -3.060
  17 H   -2.386 -10.148   2.986
  18 H    2.338  -1.964  -3.061
  19 H    2.379  10.145   2.987
  20 H    7.102 -10.063  -3.061
  21 H   -7.597   7.139   3.054
  22 H   -2.873 -13.069  -2.993
  23 H    7.596  -7.126   3.060
  24 H   12.320   1.057  -2.987
  25 H    9.979  -3.005   3.061
  26 H   -9.885  -9.020  -2.986
  27 H   -9.975   3.014   3.061
  28 H   -5.251  11.197  -2.987
  29 H   -7.596  -7.140   2.993
  30 H   -2.872   1.043  -3.054
  31 H    7.597   7.130   2.987
  32 H  -12.267   1.116  -3.060
  33 H    9.979   3.008   2.986
  34 H   -9.885  -3.007  -3.061
  35 H   -9.976  -3.016   2.987
  36 H   -5.252   5.168  -3.061
  37 C   -2.658  14.195   3.013
                                229 S  
                                         3.624E+03 1.634E-03 0.000E+00 0.000E+00
                                         5.440E+02 1.252E-02 0.000E+00 0.000E+00
                                         1.237E+02 6.211E-02 0.000E+00 0.000E+00
                                         3.476E+01 2.182E-01 0.000E+00 0.000E+00
                                         1.093E+01 4.980E-01 0.000E+00 0.000E+00
                                230 S  
                                         3.574E+00 1.000E+00 0.000E+00 0.000E+00
                                231 S  
                                         7.742E-01 1.000E+00 0.000E+00 0.000E+00
                                232 S  
                                         2.330E-01 1.000E+00 0.000E+00 0.000E+00
                         233-   235 P  
                                         9.443E+00 0.000E+00 3.790E-02 0.000E+00
                                         2.002E+00 0.000E+00 2.082E-01 0.000E+00
                                         5.463E-01 0.000E+00 5.047E-01 0.000E+00
                         236-   238 P  
                                         1.820E-01 0.000E+00 1.000E+00 0.000E+00
                         239-   243 D  
                                         8.880E-01 0.000E+00 0.000E+00 1.000E+00
  38 C    2.066  -6.013  -3.034
  39 C   -1.316  11.911   2.994
  40 C    3.408  -8.297  -3.053
  41 C    1.313 -11.910   2.993
  42 C    6.036  -3.727  -3.055
  43 C   -1.317 -11.911   2.997
  44 C    3.407  -3.728  -3.050
  45 C    1.314  11.911   2.985
  46 C    6.037  -8.297  -3.062
  47 C    2.656 -14.195   2.998
  48 C    7.380  -6.012  -3.049
  49 C   13.623  -4.793   3.034
  50 C   -6.241 -10.807  -3.013
  51 C   -9.659   7.096   3.053
  52 C   -4.935 -13.112  -2.994
  53 C    9.658  -7.090   3.055
  54 C   14.382   1.094  -2.993
  55 C   10.973  -4.813   3.050
  56 C   -8.891 -10.827  -2.997
  57 C  -10.973   4.819   3.062
  58 C   -6.249  13.002  -2.985
  59 C   10.964  -9.396   3.049
  60 C   15.688  -1.213  -2.998
  61 C   13.623   4.795   3.013
  62 C   -6.241  -1.219  -3.034
  63 C   -9.658  -7.098   2.994
  64 C   -4.934   1.085  -3.053
  65 C    9.659   7.092   2.993
  66 C  -10.205   1.077  -3.055
  67 C   10.973   4.814   2.997
  68 C   -8.891  -1.200  -3.050
  69 C  -10.973  -4.821   2.985
  70 C   -6.249   3.362  -3.062
  71 C   10.965   9.398   2.998
  72 C   -8.899   3.383  -3.049
  73 O   13.787   0.001   3.019
                                769 S  
                                         6.773E+03 1.727E-03 0.000E+00 0.000E+00
                                         1.017E+03 1.325E-02 0.000E+00 0.000E+00
                                         2.313E+02 6.603E-02 0.000E+00 0.000E+00
                                         6.501E+01 2.353E-01 0.000E+00 0.000E+00
                                         2.050E+01 5.498E-01 0.000E+00 0.000E+00
                                770 S  
                                         6.716E+00 1.000E+00 0.000E+00 0.000E+00
                                771 S  
                                         1.147E+00 1.000E+00 0.000E+00 0.000E+00
                                772 S  
                                         3.342E-01 1.000E+00 0.000E+00 0.000E+00
                         773-   775 P  
                                         1.769E+01 0.000E+00 4.359E-02 0.000E+00
                                         3.854E+00 0.000E+00 2.318E-01 0.000E+00
                                         1.047E+00 0.000E+00 5.146E-01 0.000E+00
                         776-   778 P  
                                         2.759E-01 0.000E+00 1.000E+00 0.000E+00
                         779-   783 D  
                                         8.000E-01 0.000E+00 0.000E+00 1.000E+00
  74 O   -6.077  -6.013  -3.028
  75 O   -6.892  11.939   3.059
  76 O   -2.169  -8.269  -2.988
  77 O   -6.893 -11.939   2.998
  78 O   -2.169  -3.756  -3.049
  79 O    6.893 -11.938   3.019
  80 O   11.616  -3.755  -3.028
  81 O    6.893  11.940   3.059
  82 O   11.617  -8.268  -2.988
  83 O  -13.787  -0.001   2.998
  84 O   -9.064   8.182  -3.049

 *******************************************************************************
 FINISHED BASIS SET HANDLING 
 *******************************************************************************

 INFORMATION **** SET_MPP **** PCRYSTAL CALCULATION
 INFORMATION **** READM2 **** NEW DEFAULT: FOCK/KS MATRIX MIXING SET TO 30 %
 INFORMATION **** READM2 **** NEW DEFAULT: FULL DIRECT SCF MODE
 INFORMATION **** READM2 **** NEW DEFAULT: COULOMB BIPOLAR BUFFER SET TO 32 Mb
 INFORMATION **** READM2 **** NEW DEFAULT: EXCHANGE BIPOLAR BUFFER SET TO 32 Mb

 *******************************************************************************
 NEW DEFAULT: DFT INTEGRATION GRID INCREASED TO XLGRID
 NEW DEFAULT: DIIS ACCELERATOR ACTIVE
 USE KEYWORD NODIIS TO TURN IT OFF
 *******************************************************************************

 WARNING **** RDDFTP **** HSEsol-HJS ACTIVE
 RANGE SEPARATION - OMEGA:   0.110000000000000     
 WARNING **** RDDFTP **** HSEsol-3c has to be combined with sol-def2-mSVP basis set
 *******************************************************************************
 N. OF ATOMS PER CELL        84  COULOMB OVERLAP TOL         (T1) 10**   -6
 NUMBER OF SHELLS           468  COULOMB PENETRATION TOL     (T2) 10**   -6
 NUMBER OF AO               948  EXCHANGE OVERLAP TOL        (T3) 10**   -6
 N. OF ELECTRONS PER CELL   396  EXCHANGE PSEUDO OVP (F(G))  (T4) 10**   -6
 CORE ELECTRONS PER CELL    120  EXCHANGE PSEUDO OVP (P(G))  (T5) 10**  -12
 N. OF SYMMETRY OPERATORS     1  POLE ORDER IN MONO ZONE                  4
 *******************************************************************************
 TYPE OF CALCULATION :  RESTRICTED CLOSED SHELL
 KOHN-SHAM HAMILTONIAN

 (EXCHANGE)[CORRELATION] FUNCTIONAL:(HSEsol GGA)[PBEsol]

 RANGE-SEPARATED HYBRID FUNCTIONAL 
 OMEGA (SHORT-RANGE)[LONG-RANGE]:(    0.1100)[    0.0000]

 HYBRID EXCHANGE - PERCENTAGE OF FOCK EXCHANGE    25.0000

 CAPPA:IS1  2;IS2  2;IS3  8; K PTS MONK NET  20; SYMMOPS:K SPACE   2;G SPACE   1

 *******************************************************************************
 MAX NUMBER OF SCF CYCLES      50  CONVERGENCE ON DELTAP        10**-16
 WEIGHT OF F(I) IN F(I+1)      30% CONVERGENCE ON ENERGY        10**- 6
 SHRINK. FACT.(MONKH.)    2  2  8  NUMBER OF K POINTS IN THE IBZ     20
 SHRINKING FACTOR(GILAT NET)    8  NUMBER OF K POINTS(GILAT NET)   1028
 *******************************************************************************
 *** K POINTS COORDINATES (OBLIQUE COORDINATES IN UNITS OF IS =  2)
   1-R(  0  0  0)   2-R(  1  0  0)   3-R(  0  1  0)   4-R(  1  1  0)
   5-C(  0  0  1)   6-C(  1  0  1)   7-C(  0  1  1)   8-C(  1  1  1)
   9-C(  0  0  2)  10-C(  1  0  2)  11-C(  0  1  2)  12-C(  1  1  2)
  13-C(  0  0  3)  14-C(  1  0  3)  15-C(  0  1  3)  16-C(  1  1  3)
  17-R(  0  0  4)  18-R(  1  0  4)  19-R(  0  1  4)  20-R(  1  1  4)

 DIRECT LATTICE VECTORS COMPON. (A.U.)     RECIP. LATTICE VECTORS COMPON. (A.U.) 
        X            Y            Z              X            Y            Z
   24.5879030  -14.1935232    0.0000000      0.2555397    0.0000000    0.0000005
    0.0000000   28.3910867    0.0000000      0.1277517    0.2213084    0.0000015
   -0.0000257   -0.0000682   12.0942473      0.0000000    0.0000000    0.5195185

 DISK SPACE FOR EIGENVECTORS (FTN 10)    28758528 REALS

 SYMMETRY ADAPTION OF THE BLOCH FUNCTIONS DISABLED
 TTTTTTTTTTTTTTTTTTTTTTTTTTTTTT gordsh1     TELAPSE        0.05 TCPU        0.05

 MATRIX SIZE: P(G)  798298, F(G)  149470, P(G) IRR  401315, F(G) IRR  150718
 MAX G-VECTOR INDEX FOR 1- AND 2-ELECTRON INTEGRALS  57

 TTTTTTTTTTTTTTTTTTTTTTTTTTTTTT INPUT       TELAPSE        2.82 TCPU        2.82

 NEIGHBORS OF THE NON-EQUIVALENT ATOMS

 N = NUMBER OF NEIGHBORS AT DISTANCE R
    ATOM  N     R/ANG      R/AU   NEIGHBORS (ATOM LABELS AND CELL INDICES)
   1 B    1     1.3791     2.6061   73 O   -1 0 0
   1 B    1     1.3793     2.6065   75 O    0 0 0
   1 B    1     1.5503     2.9297   49 C   -1 0 0
   1 B    1     2.3895     4.5155    5 B    0 1 0
   1 B    1     2.3898     4.5160    3 B    0 0 0
   1 B    1     2.5632     4.8437   51 C    0 0 0

   2 B    1     1.3791     2.6061   74 O    0 0 0
   2 B    1     1.3793     2.6065   76 O    0 0 0
   2 B    1     1.5503     2.9297   50 C    0 0 0
   2 B    1     2.3895     4.5155    6 B    0 0 0
   2 B    1     2.3898     4.5160    4 B    0 0 0
   2 B    1     2.5632     4.8437   52 C    0 0 0

   3 B    1     1.3793     2.6065   77 O    0 1 0
   3 B    1     1.3793     2.6065   75 O    0 0 0
   3 B    1     1.5504     2.9298   37 C    0 0 0
   3 B    1     2.3895     4.5156    5 B    0 1 0
   3 B    1     2.3898     4.5160    1 B    0 0 0
   3 B    1     2.5634     4.8440   43 C    0 1 0

   4 B    1     1.3793     2.6065   78 O    0 0 0
   4 B    1     1.3793     2.6065   76 O    0 0 0
   4 B    1     1.5504     2.9298   38 C    0 0 0
   4 B    1     2.3895     4.5156    6 B    0 0 0
   4 B    1     2.3898     4.5160    2 B    0 0 0
   4 B    1     2.5634     4.8440   44 C    0 0 0

   5 B    1     1.3791     2.6061   73 O   -1-1 0
   5 B    1     1.3793     2.6064   77 O    0 0 0
   5 B    1     1.5502     2.9294   61 C   -1-1 0
   5 B    1     2.3895     4.5155    1 B    0-1 0
   5 B    1     2.3895     4.5156    3 B    0-1 0
   5 B    1     2.5629     4.8433   63 C    0 0 0

   6 B    1     1.3791     2.6061   74 O    0 0 0
   6 B    1     1.3793     2.6064   78 O    0 0 0
   6 B    1     1.5502     2.9294   62 C    0 0 0
   6 B    1     2.3895     4.5155    2 B    0 0 0
   6 B    1     2.3895     4.5156    4 B    0 0 0
   6 B    1     2.5629     4.8433   64 C    0 0 0

   7 B    1     1.3795     2.6068   79 O    0 0 0
   7 B    1     1.3795     2.6070   81 O    0-1 0
   7 B    1     1.5513     2.9316   47 C    0 0 0
   7 B    1     2.3905     4.5174   11 B    0 0 0
   7 B    1     2.3905     4.5175    9 B    0-1 0
   7 B    1     2.5648     4.8468   45 C    0-1 0

   8 B    1     1.3795     2.6068   80 O    0 0 0
   8 B    1     1.3795     2.6070   82 O    0 0 0
   8 B    1     1.5513     2.9316   48 C    0 0 0
   8 B    1     2.3905     4.5174   12 B    0 0 0
   8 B    1     2.3905     4.5175   10 B    1 0 0
   8 B    1     2.5648     4.8468   46 C    0 0 0

   9 B    1     1.3795     2.6069   81 O    0 0 0
   9 B    1     1.3797     2.6072   83 O    1 1 0
   9 B    1     1.5516     2.9322   71 C    0 0 0
   9 B    1     2.3905     4.5175    7 B    0 1 0
   9 B    1     2.3911     4.5185   11 B    0 1 0
   9 B    1     2.5651     4.8473   69 C    1 1 0

  10 B    1     1.3795     2.6069   82 O   -1 0 0
  10 B    1     1.3797     2.6072   84 O    0 0 0
  10 B    1     1.5516     2.9322   72 C    0 0 0
  10 B    1     2.3905     4.5175    8 B   -1 0 0
  10 B    1     2.3911     4.5185   12 B   -1 0 0
  10 B    1     2.5651     4.8473   70 C    0 0 0

  11 B    1     1.3795     2.6068   79 O    0 0 0
  11 B    1     1.3796     2.6071   83 O    1 0 0
  11 B    1     1.5516     2.9322   59 C    0 0 0
  11 B    1     2.3905     4.5174    7 B    0 0 0
  11 B    1     2.3911     4.5185    9 B    0-1 0
  11 B    1     2.5651     4.8473   57 C    1 0 0

  12 B    1     1.3795     2.6068   80 O    0 0 0
  12 B    1     1.3796     2.6071   84 O    1 0 0
  12 B    1     1.5516     2.9322   60 C    0 0 0
  12 B    1     2.3905     4.5174    8 B    0 0 0
  12 B    1     2.3911     4.5185   10 B    1 0 0
  12 B    1     2.5651     4.8473   58 C    1 0 0

  13 H    1     1.0913     2.0623   39 C    0 0 0
  13 H    1     2.1472     4.0576   37 C    0 0 0
  13 H    1     2.1680     4.0969   45 C    0 0 0
  13 H    1     2.5202     4.7625   19 H    0 0 0
  13 H    1     2.5676     4.8520   75 O    0 0 0
  13 H    1     2.7321     5.1630    3 B    0 0 0

  14 H    1     1.0913     2.0623   40 C    0 0 0
  14 H    1     2.1472     4.0576   38 C    0 0 0
  14 H    1     2.1680     4.0969   46 C    0 0 0
  14 H    1     2.5202     4.7625   20 H    0 0 0
  14 H    1     2.5676     4.8520   76 O    0 0 0
  14 H    1     2.7321     5.1630    4 B    0 0 0

  15 H    1     1.0914     2.0625   41 C    0 0 0
  15 H    1     2.1493     4.0616   47 C    0 0 0
  15 H    1     2.1666     4.0942   43 C    0 0 0
  15 H    1     2.5198     4.7618   17 H    0 0 0
  15 H    1     2.5720     4.8604   79 O    0 0 0
  15 H    1     2.7362     5.1707    7 B    0 0 0

  16 H    1     1.0914     2.0625   42 C    0 0 0
  16 H    1     2.1493     4.0616   48 C    0 0 0
  16 H    1     2.1666     4.0942   44 C    0 0 0
  16 H    1     2.5198     4.7618   18 H    0 0 0
  16 H    1     2.5720     4.8604   80 O    0 0 0
  16 H    1     2.7362     5.1707    8 B    0 0 0

  17 H    1     1.0914     2.0624   43 C    0 0 0
  17 H    1     2.1471     4.0575   37 C    0-1 0
  17 H    1     2.1680     4.0970   41 C    0 0 0
  17 H    1     2.5198     4.7618   15 H    0 0 0
  17 H    1     2.5665     4.8500   77 O    0 0 0
  17 H    1     2.7315     5.1618    3 B    0-1 0

  18 H    1     1.0914     2.0624   44 C    0 0 0
  18 H    1     2.1471     4.0575   38 C    0 0 0
  18 H    1     2.1680     4.0970   42 C    0 0 0
  18 H    1     2.5198     4.7618   16 H    0 0 0
  18 H    1     2.5665     4.8500   78 O    0 0 0
  18 H    1     2.7315     5.1618    4 B    0 0 0

  19 H    1     1.0915     2.0626   45 C    0 0 0
  19 H    1     2.1490     4.0610   47 C    0 1 0
  19 H    1     2.1669     4.0948   39 C    0 0 0
  19 H    1     2.5202     4.7625   13 H    0 0 0
  19 H    1     2.5712     4.8588   81 O    0 0 0
  19 H    1     2.7351     5.1686    7 B    0 1 0

  20 H    1     1.0915     2.0626   46 C    0 0 0
  20 H    1     2.1490     4.0610   48 C    0 0 0
  20 H    1     2.1669     4.0948   40 C    0 0 0
  20 H    1     2.5202     4.7625   14 H    0 0 0
  20 H    1     2.5712     4.8588   82 O    0 0 0
  20 H    1     2.7351     5.1686    8 B    0 0 0

  21 H    1     1.0913     2.0623   51 C    0 0 0
  21 H    1     2.1469     4.0571   49 C   -1 0 0
  21 H    1     2.1680     4.0968   57 C    0 0 0
  21 H    1     2.5198     4.7617   27 H    0 0 0
  21 H    1     2.5670     4.8510   75 O    0 0 0
  21 H    1     2.7310     5.1609    1 B    0 0 0

  22 H    1     1.0913     2.0623   52 C    0 0 0
  22 H    1     2.1469     4.0571   50 C    0 0 0
  22 H    1     2.1680     4.0968   58 C    0-1 0
  22 H    1     2.5198     4.7617   28 H    0-1 0
  22 H    1     2.5670     4.8510   76 O    0 0 0
  22 H    1     2.7310     5.1609    2 B    0 0 0

  23 H    1     1.0914     2.0625   53 C    0 0 0
  23 H    1     2.1493     4.0617   59 C    0 0 0
  23 H    1     2.1664     4.0939   55 C    0 0 0
  23 H    1     2.5192     4.7606   25 H    0 0 0
  23 H    1     2.5735     4.8632   79 O    0 0 0
  23 H    1     2.7371     5.1723   11 B    0 0 0

  24 H    1     1.0914     2.0625   54 C    0 0 0
  24 H    1     2.1493     4.0617   60 C    0 0 0
  24 H    1     2.1664     4.0939   56 C    1 1 0
  24 H    1     2.5192     4.7606   26 H    1 1 0
  24 H    1     2.5735     4.8632   80 O    0 0 0
  24 H    1     2.7371     5.1723   12 B    0 0 0

  25 H    1     1.0914     2.0624   55 C    0 0 0
  25 H    1     2.1475     4.0581   49 C    0 0 0
  25 H    1     2.1679     4.0967   53 C    0 0 0
  25 H    1     2.5192     4.7606   23 H    0 0 0
  25 H    1     2.5675     4.8519   73 O    0 0 0
  25 H    1     2.7328     5.1643    1 B    1 0 0

  26 H    1     1.0914     2.0624   56 C    0 0 0
  26 H    1     2.1475     4.0581   50 C    0 0 0
  26 H    1     2.1679     4.0967   54 C   -1-1 0
  26 H    1     2.5192     4.7606   24 H   -1-1 0
  26 H    1     2.5675     4.8519   74 O    0 0 0
  26 H    1     2.7328     5.1643    2 B    0 0 0

  27 H    1     1.0914     2.0625   57 C    0 0 0
  27 H    1     2.1491     4.0612   59 C   -1 0 0
  27 H    1     2.1666     4.0942   51 C    0 0 0
  27 H    1     2.5198     4.7617   21 H    0 0 0
  27 H    1     2.5723     4.8609   83 O    0 0 0
  27 H    1     2.7355     5.1693   11 B   -1 0 0

  28 H    1     1.0914     2.0625   58 C    0 0 0
  28 H    1     2.1491     4.0612   60 C   -1 0 0
  28 H    1     2.1666     4.0942   52 C    0 1 0
  28 H    1     2.5198     4.7617   22 H    0 1 0
  28 H    1     2.5723     4.8609   84 O    0 0 0
  28 H    1     2.7355     5.1693   12 B   -1 0 0

  29 H    1     1.0914     2.0624   63 C    0 0 0
  29 H    1     2.1475     4.0582   61 C   -1-1 0
  29 H    1     2.1678     4.0966   69 C    0 0 0
  29 H    1     2.5200     4.7621   35 H    0 0 0
  29 H    1     2.5667     4.8503   77 O    0 0 0
  29 H    1     2.7315     5.1618    5 B    0 0 0

  30 H    1     1.0914     2.0624   64 C    0 0 0
  30 H    1     2.1475     4.0582   62 C    0 0 0
  30 H    1     2.1678     4.0966   70 C    0 0 0
  30 H    1     2.5200     4.7621   36 H    0 0 0
  30 H    1     2.5667     4.8503   78 O    0 0 0
  30 H    1     2.7315     5.1618    6 B    0 0 0

  31 H    1     1.0913     2.0623   65 C    0 0 0
  31 H    1     2.1487     4.0605   71 C    0 0 0
  31 H    1     2.1667     4.0945   67 C    0 0 0
  31 H    1     2.5197     4.7616   33 H    0 0 0
  31 H    1     2.5723     4.8610   81 O    0 0 0
  31 H    1     2.7359     5.1701    9 B    0 0 0

  32 H    1     1.0913     2.0623   66 C    0 0 0
  32 H    1     2.1487     4.0605   72 C    0 0 0
  32 H    1     2.1667     4.0945   68 C    0 0 0
  32 H    1     2.5197     4.7616   34 H    0 0 0
  32 H    1     2.5723     4.8610   82 O   -1 0 0
  32 H    1     2.7359     5.1701   10 B    0 0 0

  33 H    1     1.0915     2.0626   67 C    0 0 0
  33 H    1     2.1479     4.0589   61 C    0 0 0
  33 H    1     2.1679     4.0968   65 C    0 0 0
  33 H    1     2.5197     4.7616   31 H    0 0 0
  33 H    1     2.5677     4.8522   73 O    0 0 0
  33 H    1     2.7331     5.1648    5 B    1 1 0

  34 H    1     1.0915     2.0626   68 C    0 0 0
  34 H    1     2.1479     4.0589   62 C    0 0 0
  34 H    1     2.1679     4.0968   66 C    0 0 0
  34 H    1     2.5197     4.7616   32 H    0 0 0
  34 H    1     2.5677     4.8522   74 O    0 0 0
  34 H    1     2.7331     5.1648    6 B    0 0 0

  35 H    1     1.0914     2.0624   69 C    0 0 0
  35 H    1     2.1486     4.0602   71 C   -1-1 0
  35 H    1     2.1668     4.0947   63 C    0 0 0
  35 H    1     2.5200     4.7621   29 H    0 0 0
  35 H    1     2.5717     4.8598   83 O    0 0 0
  35 H    1     2.7349     5.1682    9 B   -1-1 0

  36 H    1     1.0914     2.0624   70 C    0 0 0
  36 H    1     2.1486     4.0602   72 C    0 0 0
  36 H    1     2.1668     4.0947   64 C    0 0 0
  36 H    1     2.5200     4.7621   30 H    0 0 0
  36 H    1     2.5717     4.8598   84 O    0 0 0
  36 H    1     2.7349     5.1682   10 B    0 0 0

  37 C    1     1.4020     2.6495   43 C    0 1 0
  37 C    1     1.4021     2.6495   39 C    0 0 0
  37 C    1     1.5504     2.9298    3 B    0 0 0
  37 C    1     2.1471     4.0575   17 H    0 1 0
  37 C    1     2.1472     4.0576   13 H    0 0 0
  37 C    1     2.4246     4.5817   41 C    0 1 0

  38 C    1     1.4020     2.6495   44 C    0 0 0
  38 C    1     1.4021     2.6495   40 C    0 0 0
  38 C    1     1.5504     2.9298    4 B    0 0 0
  38 C    1     2.1471     4.0575   18 H    0 0 0
  38 C    1     2.1472     4.0576   14 H    0 0 0
  38 C    1     2.4246     4.5817   42 C    0 0 0

  39 C    1     1.0913     2.0623   13 H    0 0 0
  39 C    1     1.3914     2.6294   45 C    0 0 0
  39 C    1     1.4021     2.6495   37 C    0 0 0
  39 C    1     2.1669     4.0948   19 H    0 0 0
  39 C    1     2.4177     4.5688   43 C    0 1 0
  39 C    1     2.4250     4.5825   47 C    0 1 0

  40 C    1     1.0913     2.0623   14 H    0 0 0
  40 C    1     1.3914     2.6294   46 C    0 0 0
  40 C    1     1.4021     2.6495   38 C    0 0 0
  40 C    1     2.1669     4.0948   20 H    0 0 0
  40 C    1     2.4177     4.5688   44 C    0 0 0
  40 C    1     2.4250     4.5825   48 C    0 0 0

  41 C    1     1.0914     2.0625   15 H    0 0 0
  41 C    1     1.3914     2.6293   43 C    0 0 0
  41 C    1     1.4026     2.6505   47 C    0 0 0
  41 C    1     2.1680     4.0970   17 H    0 0 0
  41 C    1     2.4182     4.5697   45 C    0-1 0
  41 C    1     2.4246     4.5817   37 C    0-1 0

  42 C    1     1.0914     2.0625   16 H    0 0 0
  42 C    1     1.3914     2.6293   44 C    0 0 0
  42 C    1     1.4026     2.6505   48 C    0 0 0
  42 C    1     2.1680     4.0970   18 H    0 0 0
  42 C    1     2.4182     4.5697   46 C    0 0 0
  42 C    1     2.4246     4.5817   38 C    0 0 0

  43 C    1     1.0914     2.0624   17 H    0 0 0
  43 C    1     1.3914     2.6293   41 C    0 0 0
  43 C    1     1.4020     2.6495   37 C    0-1 0
  43 C    1     2.1666     4.0942   15 H    0 0 0
  43 C    1     2.4177     4.5688   39 C    0-1 0
  43 C    1     2.4250     4.5826   47 C    0 0 0

  44 C    1     1.0914     2.0624   18 H    0 0 0
  44 C    1     1.3914     2.6293   42 C    0 0 0
  44 C    1     1.4020     2.6495   38 C    0 0 0
  44 C    1     2.1666     4.0942   16 H    0 0 0
  44 C    1     2.4177     4.5688   40 C    0 0 0
  44 C    1     2.4250     4.5826   48 C    0 0 0

  45 C    1     1.0915     2.0626   19 H    0 0 0
  45 C    1     1.3914     2.6294   39 C    0 0 0
  45 C    1     1.4025     2.6504   47 C    0 1 0
  45 C    1     2.1680     4.0969   13 H    0 0 0
  45 C    1     2.4182     4.5697   41 C    0 1 0
  45 C    1     2.4246     4.5818   37 C    0 0 0

  46 C    1     1.0915     2.0626   20 H    0 0 0
  46 C    1     1.3914     2.6294   40 C    0 0 0
  46 C    1     1.4025     2.6504   48 C    0 0 0
  46 C    1     2.1680     4.0969   14 H    0 0 0
  46 C    1     2.4182     4.5697   42 C    0 0 0
  46 C    1     2.4246     4.5818   38 C    0 0 0

  47 C    1     1.4025     2.6504   45 C    0-1 0
  47 C    1     1.4026     2.6505   41 C    0 0 0
  47 C    1     1.5513     2.9316    7 B    0 0 0
  47 C    1     2.1490     4.0610   19 H    0-1 0
  47 C    1     2.1493     4.0616   15 H    0 0 0
  47 C    1     2.4250     4.5825   39 C    0-1 0

  48 C    1     1.4025     2.6504   46 C    0 0 0
  48 C    1     1.4026     2.6505   42 C    0 0 0
  48 C    1     1.5513     2.9316    8 B    0 0 0
  48 C    1     2.1490     4.0610   20 H    0 0 0
  48 C    1     2.1493     4.0616   16 H    0 0 0
  48 C    1     2.4250     4.5825   40 C    0 0 0

  49 C    1     1.4020     2.6494   51 C    1 0 0
  49 C    1     1.4021     2.6495   55 C    0 0 0
  49 C    1     1.5503     2.9297    1 B    1 0 0
  49 C    1     2.1469     4.0571   21 H    1 0 0
  49 C    1     2.1475     4.0581   25 H    0 0 0
  49 C    1     2.4246     4.5818   53 C    0 0 0

  50 C    1     1.4020     2.6494   52 C    0 0 0
  50 C    1     1.4021     2.6495   56 C    0 0 0
  50 C    1     1.5503     2.9297    2 B    0 0 0
  50 C    1     2.1469     4.0571   22 H    0 0 0
  50 C    1     2.1475     4.0581   26 H    0 0 0
  50 C    1     2.4246     4.5818   54 C   -1-1 0

  51 C    1     1.0913     2.0623   21 H    0 0 0
  51 C    1     1.3914     2.6293   57 C    0 0 0
  51 C    1     1.4020     2.6494   49 C   -1 0 0
  51 C    1     2.1666     4.0942   27 H    0 0 0
  51 C    1     2.4175     4.5684   55 C   -1 0 0
  51 C    1     2.4251     4.5828   59 C   -1 0 0

  52 C    1     1.0913     2.0623   22 H    0 0 0
  52 C    1     1.3914     2.6293   58 C    0-1 0
  52 C    1     1.4020     2.6494   50 C    0 0 0
  52 C    1     2.1666     4.0942   28 H    0-1 0
  52 C    1     2.4175     4.5684   56 C    0 0 0
  52 C    1     2.4251     4.5828   60 C   -1-1 0

  53 C    1     1.0914     2.0625   23 H    0 0 0
  53 C    1     1.3915     2.6295   55 C    0 0 0
  53 C    1     1.4026     2.6505   59 C    0 0 0
  53 C    1     2.1679     4.0967   25 H    0 0 0
  53 C    1     2.4179     4.5691   57 C    1 0 0
  53 C    1     2.4246     4.5818   49 C    0 0 0

  54 C    1     1.0914     2.0625   24 H    0 0 0
  54 C    1     1.3915     2.6295   56 C    1 1 0
  54 C    1     1.4026     2.6505   60 C    0 0 0
  54 C    1     2.1679     4.0967   26 H    1 1 0
  54 C    1     2.4179     4.5691   58 C    1 0 0
  54 C    1     2.4246     4.5818   50 C    1 1 0

  55 C    1     1.0914     2.0624   25 H    0 0 0
  55 C    1     1.3915     2.6295   53 C    0 0 0
  55 C    1     1.4021     2.6495   49 C    0 0 0
  55 C    1     2.1664     4.0939   23 H    0 0 0
  55 C    1     2.4175     4.5684   51 C    1 0 0
  55 C    1     2.4253     4.5832   59 C    0 0 0

  56 C    1     1.0914     2.0624   26 H    0 0 0
  56 C    1     1.3915     2.6295   54 C   -1-1 0
  56 C    1     1.4021     2.6495   50 C    0 0 0
  56 C    1     2.1664     4.0939   24 H   -1-1 0
  56 C    1     2.4175     4.5684   52 C    0 0 0
  56 C    1     2.4253     4.5832   60 C   -1-1 0

  57 C    1     1.0914     2.0625   27 H    0 0 0
  57 C    1     1.3914     2.6293   51 C    0 0 0
  57 C    1     1.4025     2.6504   59 C   -1 0 0
  57 C    1     2.1680     4.0968   21 H    0 0 0
  57 C    1     2.4179     4.5691   53 C   -1 0 0
  57 C    1     2.4247     4.5819   49 C   -1 0 0

  58 C    1     1.0914     2.0625   28 H    0 0 0
  58 C    1     1.3914     2.6293   52 C    0 1 0
  58 C    1     1.4025     2.6504   60 C   -1 0 0
  58 C    1     2.1680     4.0968   22 H    0 1 0
  58 C    1     2.4179     4.5691   54 C   -1 0 0
  58 C    1     2.4247     4.5819   50 C    0 1 0

  59 C    1     1.4025     2.6504   57 C    1 0 0
  59 C    1     1.4026     2.6505   53 C    0 0 0
  59 C    1     1.5516     2.9322   11 B    0 0 0
  59 C    1     2.1491     4.0612   27 H    1 0 0
  59 C    1     2.1493     4.0617   23 H    0 0 0
  59 C    1     2.4251     4.5828   51 C    1 0 0

  60 C    1     1.4025     2.6504   58 C    1 0 0
  60 C    1     1.4026     2.6505   54 C    0 0 0
  60 C    1     1.5516     2.9322   12 B    0 0 0
  60 C    1     2.1491     4.0612   28 H    1 0 0
  60 C    1     2.1493     4.0617   24 H    0 0 0
  60 C    1     2.4251     4.5828   52 C    1 1 0

  61 C    1     1.4021     2.6496   63 C    1 1 0
  61 C    1     1.4021     2.6497   67 C    0 0 0
  61 C    1     1.5502     2.9294    5 B    1 1 0
  61 C    1     2.1475     4.0582   29 H    1 1 0
  61 C    1     2.1479     4.0589   33 H    0 0 0
  61 C    1     2.4244     4.5814   65 C    0 0 0

  62 C    1     1.4021     2.6496   64 C    0 0 0
  62 C    1     1.4021     2.6497   68 C    0 0 0
  62 C    1     1.5502     2.9294    6 B    0 0 0
  62 C    1     2.1475     4.0582   30 H    0 0 0
  62 C    1     2.1479     4.0589   34 H    0 0 0
  62 C    1     2.4244     4.5814   66 C    0 0 0

  63 C    1     1.0914     2.0624   29 H    0 0 0
  63 C    1     1.3914     2.6293   69 C    0 0 0
  63 C    1     1.4021     2.6496   61 C   -1-1 0
  63 C    1     2.1668     4.0947   35 H    0 0 0
  63 C    1     2.4179     4.5692   67 C   -1-1 0
  63 C    1     2.4251     4.5827   71 C   -1-1 0

  64 C    1     1.0914     2.0624   30 H    0 0 0
  64 C    1     1.3914     2.6293   70 C    0 0 0
  64 C    1     1.4021     2.6496   62 C    0 0 0
  64 C    1     2.1668     4.0947   36 H    0 0 0
  64 C    1     2.4179     4.5692   68 C    0 0 0
  64 C    1     2.4251     4.5827   72 C    0 0 0

  65 C    1     1.0913     2.0623   31 H    0 0 0
  65 C    1     1.3914     2.6294   67 C    0 0 0
  65 C    1     1.4025     2.6504   71 C    0 0 0
  65 C    1     2.1679     4.0968   33 H    0 0 0
  65 C    1     2.4178     4.5690   69 C    1 1 0
  65 C    1     2.4244     4.5814   61 C    0 0 0

  66 C    1     1.0913     2.0623   32 H    0 0 0
  66 C    1     1.3914     2.6294   68 C    0 0 0
  66 C    1     1.4025     2.6504   72 C    0 0 0
  66 C    1     2.1679     4.0968   34 H    0 0 0
  66 C    1     2.4178     4.5690   70 C    0 0 0
  66 C    1     2.4244     4.5814   62 C    0 0 0

  67 C    1     1.0915     2.0626   33 H    0 0 0
  67 C    1     1.3914     2.6294   65 C    0 0 0
  67 C    1     1.4021     2.6497   61 C    0 0 0
  67 C    1     2.1667     4.0945   31 H    0 0 0
  67 C    1     2.4179     4.5692   63 C    1 1 0
  67 C    1     2.4253     4.5832   71 C    0 0 0

  68 C    1     1.0915     2.0626   34 H    0 0 0
  68 C    1     1.3914     2.6294   66 C    0 0 0
  68 C    1     1.4021     2.6497   62 C    0 0 0
  68 C    1     2.1667     4.0945   32 H    0 0 0
  68 C    1     2.4179     4.5692   64 C    0 0 0
  68 C    1     2.4253     4.5832   72 C    0 0 0

  69 C    1     1.0914     2.0624   35 H    0 0 0
  69 C    1     1.3914     2.6293   63 C    0 0 0
  69 C    1     1.4025     2.6503   71 C   -1-1 0
  69 C    1     2.1678     4.0966   29 H    0 0 0
  69 C    1     2.4178     4.5690   65 C   -1-1 0
  69 C    1     2.4245     4.5817   61 C   -1-1 0

  70 C    1     1.0914     2.0624   36 H    0 0 0
  70 C    1     1.3914     2.6293   64 C    0 0 0
  70 C    1     1.4025     2.6503   72 C    0 0 0
  70 C    1     2.1678     4.0966   30 H    0 0 0
  70 C    1     2.4178     4.5690   66 C    0 0 0
  70 C    1     2.4245     4.5817   62 C    0 0 0

  71 C    1     1.4025     2.6503   69 C    1 1 0
  71 C    1     1.4025     2.6504   65 C    0 0 0
  71 C    1     1.5516     2.9322    9 B    0 0 0
  71 C    1     2.1486     4.0602   35 H    1 1 0
  71 C    1     2.1487     4.0605   31 H    0 0 0
  71 C    1     2.4251     4.5827   63 C    1 1 0

  72 C    1     1.4025     2.6503   70 C    0 0 0
  72 C    1     1.4025     2.6504   66 C    0 0 0
  72 C    1     1.5516     2.9322   10 B    0 0 0
  72 C    1     2.1486     4.0602   36 H    0 0 0
  72 C    1     2.1487     4.0605   32 H    0 0 0
  72 C    1     2.4251     4.5827   64 C    0 0 0

  73 O    1     1.3791     2.6061    1 B    1 0 0
  73 O    1     1.3791     2.6061    5 B    1 1 0
  73 O    1     2.3880     4.5126   75 O    1 0 0
  73 O    1     2.3882     4.5130   77 O    1 1 0
  73 O    1     2.5383     4.7966   61 C    0 0 0
  73 O    1     2.5384     4.7968   49 C    0 0 0

  74 O    1     1.3791     2.6061    2 B    0 0 0
  74 O    1     1.3791     2.6061    6 B    0 0 0
  74 O    1     2.3880     4.5126   76 O    0 0 0
  74 O    1     2.3882     4.5130   78 O    0 0 0
  74 O    1     2.5383     4.7966   62 C    0 0 0
  74 O    1     2.5384     4.7968   50 C    0 0 0

  75 O    1     1.3793     2.6065    1 B    0 0 0
  75 O    1     1.3793     2.6065    3 B    0 0 0
  75 O    1     2.3880     4.5126   73 O   -1 0 0
  75 O    1     2.3882     4.5131   77 O    0 1 0
  75 O    1     2.5391     4.7981   37 C    0 0 0
  75 O    1     2.5395     4.7990   49 C   -1 0 0

  76 O    1     1.3793     2.6065    2 B    0 0 0
  76 O    1     1.3793     2.6065    4 B    0 0 0
  76 O    1     2.3880     4.5126   74 O    0 0 0
  76 O    1     2.3882     4.5131   78 O    0 0 0
  76 O    1     2.5391     4.7981   38 C    0 0 0
  76 O    1     2.5395     4.7990   50 C    0 0 0

  77 O    1     1.3793     2.6064    5 B    0 0 0
  77 O    1     1.3793     2.6065    3 B    0-1 0
  77 O    1     2.3882     4.5130   73 O   -1-1 0
  77 O    1     2.3882     4.5131   75 O    0-1 0
  77 O    1     2.5390     4.7980   37 C    0-1 0
  77 O    1     2.5391     4.7982   61 C   -1-1 0

  78 O    1     1.3793     2.6064    6 B    0 0 0
  78 O    1     1.3793     2.6065    4 B    0 0 0
  78 O    1     2.3882     4.5130   74 O    0 0 0
  78 O    1     2.3882     4.5131   76 O    0 0 0
  78 O    1     2.5390     4.7980   38 C    0 0 0
  78 O    1     2.5391     4.7982   62 C    0 0 0

  79 O    1     1.3795     2.6068   11 B    0 0 0
  79 O    1     1.3795     2.6068    7 B    0 0 0
  79 O    1     2.3880     4.5126   83 O    1 0 0
  79 O    1     2.3884     4.5134   81 O    0-1 0
  79 O    1     2.5400     4.7998   47 C    0 0 0
  79 O    1     2.5403     4.8005   59 C    0 0 0

  80 O    1     1.3795     2.6068   12 B    0 0 0
  80 O    1     1.3795     2.6068    8 B    0 0 0
  80 O    1     2.3880     4.5126   84 O    1 0 0
  80 O    1     2.3884     4.5134   82 O    0 0 0
  80 O    1     2.5400     4.7998   48 C    0 0 0
  80 O    1     2.5403     4.8005   60 C    0 0 0

  81 O    1     1.3795     2.6069    9 B    0 0 0
  81 O    1     1.3795     2.6070    7 B    0 1 0
  81 O    1     2.3881     4.5128   83 O    1 1 0
  81 O    1     2.3884     4.5134   79 O    0 1 0
  81 O    1     2.5404     4.8006   47 C    0 1 0
  81 O    1     2.5405     4.8008   71 C    0 0 0

  82 O    1     1.3795     2.6069   10 B    1 0 0
  82 O    1     1.3795     2.6070    8 B    0 0 0
  82 O    1     2.3881     4.5128   84 O    1 0 0
  82 O    1     2.3884     4.5134   80 O    0 0 0
  82 O    1     2.5404     4.8006   48 C    0 0 0
  82 O    1     2.5405     4.8008   72 C    1 0 0

  83 O    1     1.3796     2.6071   11 B   -1 0 0
  83 O    1     1.3797     2.6072    9 B   -1-1 0
  83 O    1     2.3880     4.5126   79 O   -1 0 0
  83 O    1     2.3881     4.5128   81 O   -1-1 0
  83 O    1     2.5409     4.8016   71 C   -1-1 0
  83 O    1     2.5410     4.8019   59 C   -1 0 0

  84 O    1     1.3796     2.6071   12 B   -1 0 0
  84 O    1     1.3797     2.6072   10 B    0 0 0
  84 O    1     2.3880     4.5126   80 O   -1 0 0
  84 O    1     2.3881     4.5128   82 O   -1 0 0
  84 O    1     2.5409     4.8016   72 C    0 0 0
  84 O    1     2.5410     4.8019   60 C   -1 0 0


 SYMMETRY ALLOWED INTERNAL DEGREE(S) OF FREEDOM: 249
 TTTTTTTTTTTTTTTTTTTTTTTTTTTTTT SYMM        TELAPSE        2.83 TCPU        2.82
 TTTTTTTTTTTTTTTTTTTTTTTTTTTTTT INT_SCREEN  TELAPSE        3.04 TCPU        3.04

 DFT PARAMETERS

     ATOM       ELECTRONS   NET CHARGE   R(ANGSTROM)
   1   5  B       5.0000      0.0000     0.89000000
  13   1  H       1.0000      0.0000     1.11000000
  37   6  C       6.0000      0.0000     0.77000000
  73   8  O       8.0000      0.0000     0.74000000

 SIZE OF GRID=    2504683
 TTTTTTTTTTTTTTTTTTTTTTTTTTTTTT MAKE_GRID2  TELAPSE       26.60 TCPU       26.57
 BECKE WEIGHT FUNCTION
 RADSAFE =     2.00
 TOLERANCES - DENSITY:10**- 6; POTENTIAL:10**- 9; GRID WGT:10**-14

 RADIAL INTEGRATION  - INTERVALS (POINTS,UPPER LIMIT):            1( 75,  4.0*R)

 ANGULAR INTEGRATION - INTERVALS (ACCURACY LEVEL [N. POINTS] UPPER LIMIT):
  1(  4[  86]   0.2)  2(  8[ 194]   0.5)  3( 12[ 350]   0.9)  4( 16[ 974]   3.5)
  5( 12[ 350]9999.0)
 TTTTTTTTTTTTTTTTTTTTTTTTTTTTTT INT_CALC    TELAPSE       26.89 TCPU       26.86
 EEEEEEEEEE INT_CALC TERMINATION  DATE 19 02 2026 TIME 19:50:29.9

 *******************************************************************************
 cof-1_z32_L050_serr                                                             
 CRYSTAL - SCF - TYPE OF CALCULATION :  RESTRICTED CLOSED SHELL
 *******************************************************************************

 CAPPA:IS1  2;IS2  2;IS3  8; K PTS MONK NET  20; SYMMOPS:K SPACE   2;G SPACE   1

 TTTTTTTTTTTTTTTTTTTTTTTTTTTTTT SDIK        TELAPSE       28.80 TCPU       54.12

 AAAAAAAAAAAAAAAAAAAAAAAAAAAAAAAAAAAAAAAAAAAAAAAAAAAAAAAAAAAAAAAAAAAAAAAAAAAAAAA
         ATOMIC WAVEFUNCTION(S)


 NUCLEAR CHARGE  5.0  SYMMETRY SPECIES            S    P
 N. ELECTRONS    5.0  NUMBER OF PRIMITIVE GTOS    8    4
                      NUMBER OF CONTRACTED GTOS   4    2
                      NUMBER OF CLOSED SHELLS     2    0
                      OPEN SHELL OCCUPATION       0    1

  ZNUC  SCFIT    TOTAL HF ENERGY   KINETIC ENERGY   VIRIAL THEOREM ACCURACY
   5.0    11    -2.451164084E+01  2.462155050E+01 -1.995536038E+00  1.5E-06

 NUCLEAR CHARGE  1.0  SYMMETRY SPECIES            S
 N. ELECTRONS    1.0  NUMBER OF PRIMITIVE GTOS    4
                      NUMBER OF CONTRACTED GTOS   2
                      NUMBER OF CLOSED SHELLS     0
                      OPEN SHELL OCCUPATION       1

  ZNUC  SCFIT    TOTAL HF ENERGY   KINETIC ENERGY   VIRIAL THEOREM ACCURACY
   1.0     1    -4.977266687E-01  5.190767460E-01 -1.958869132E+00  0.0E+00

 NUCLEAR CHARGE  6.0  SYMMETRY SPECIES            S    P
 N. ELECTRONS    6.0  NUMBER OF PRIMITIVE GTOS    8    4
                      NUMBER OF CONTRACTED GTOS   4    2
                      NUMBER OF CLOSED SHELLS     2    0
                      OPEN SHELL OCCUPATION       0    2

  ZNUC  SCFIT    TOTAL HF ENERGY   KINETIC ENERGY   VIRIAL THEOREM ACCURACY
   6.0     9    -3.766704647E+01  3.775180683E+01 -1.997754800E+00  1.1E-06

 NUCLEAR CHARGE  8.0  SYMMETRY SPECIES            S    P
 N. ELECTRONS    8.0  NUMBER OF PRIMITIVE GTOS    8    4
                      NUMBER OF CONTRACTED GTOS   4    2
                      NUMBER OF CLOSED SHELLS     2    0
                      OPEN SHELL OCCUPATION       0    4

  ZNUC  SCFIT    TOTAL HF ENERGY   KINETIC ENERGY   VIRIAL THEOREM ACCURACY
   8.0    12    -7.477373220E+01  7.477365593E+01 -2.000001020E+00  3.8E-06

 AAAAAAAAAAAAAAAAAAAAAAAAAAAAAAAAAAAAAAAAAAAAAAAAAAAAAAAAAAAAAAAAAAAAAAAAAAAAAAA

 CHARGE NORMALIZATION FACTOR   1.00000000
 TOTAL ATOMIC CHARGES:
   5.0000000   5.0000000   5.0000000   5.0000000   5.0000000   5.0000000
   5.0000000   5.0000000   5.0000000   5.0000000   5.0000000   5.0000000
   1.0000000   1.0000000   1.0000000   1.0000000   1.0000000   1.0000000
   1.0000000   1.0000000   1.0000000   1.0000000   1.0000000   1.0000000
   1.0000000   1.0000000   1.0000000   1.0000000   1.0000000   1.0000000
   1.0000000   1.0000000   1.0000000   1.0000000   1.0000000   1.0000000
   6.0000000   6.0000000   6.0000000   6.0000000   6.0000000   6.0000000
   6.0000000   6.0000000   6.0000000   6.0000000   6.0000000   6.0000000
   6.0000000   6.0000000   6.0000000   6.0000000   6.0000000   6.0000000
   6.0000000   6.0000000   6.0000000   6.0000000   6.0000000   6.0000000
   6.0000000   6.0000000   6.0000000   6.0000000   6.0000000   6.0000000
   6.0000000   6.0000000   6.0000000   6.0000000   6.0000000   6.0000000
   8.0000000   8.0000000   8.0000000   8.0000000   8.0000000   8.0000000
   8.0000000   8.0000000   8.0000000   8.0000000   8.0000000   8.0000000
 TTTTTTTTTTTTTTTTTTTTTTTTTTTTTT MOQGAD      TELAPSE       28.90 TCPU       57.39
 TTTTTTTTTTTTTTTTTTTTTTTTTTTTTT SHELLXN     TELAPSE       51.55 TCPU      781.10
 TTTTTTTTTTTTTTTTTTTTTTTTTTTTTT MONMO3      TELAPSE       52.15 TCPU      800.57
 NUMERICALLY INTEGRATED DENSITY    395.9999512730
 TTTTTTTTTTTTTTTTTTTTTTTTTTTTTT NUMDFT      TELAPSE       53.74 TCPU      851.20
 CYC   0 ETOT(AU) -2.591998411732E+03 DETOT -2.59E+03 tst  0.00E+00 PX  1.00E+00
 TTTTTTTTTTTTTTTTTTTTTTTTTTTTTT DIIS        TELAPSE       53.85 TCPU      854.66
 TTTTTTTTTTTTTTTTTTTTTTTTTTTTTT FDIK        TELAPSE       55.66 TCPU      912.35
 INSULATING STATE
 TOP OF VALENCE BANDS -    BAND    198; K    4; EIG -3.0631403E-01 AU
 TOP OF VALENCE BANDS -    BAND    198; K    1; EIG -3.0754572E-01 AU
 BOTTOM OF VIRTUAL BANDS - BAND    199; K    1; EIG -1.8110119E-01 AU
 INDIRECT ENERGY BAND GAP:   3.4072 eV
 TTTTTTTTTTTTTTTTTTTTTTTTTTTTTT PDIG        TELAPSE       57.23 TCPU      919.31
 CHARGE NORMALIZATION FACTOR   1.00000000
 TOTAL ATOMIC CHARGES:
   4.1116604   4.1513089   4.1535062   4.1654348   4.1537170   4.1656969
   4.1652877   4.1533944   4.1650571   4.1531391   4.1509341   4.1113381
   0.7860697   0.7851648   0.7852731   0.7861859   0.7830711   0.7851243
   0.7852432   0.7831988   0.7861728   0.7862887   0.7864590   0.7863375
   0.7861655   0.7862837   0.7864204   0.7862933   0.7830792   0.7851258
   0.7853083   0.7832663   0.7860245   0.7851182   0.7852715   0.7861789
   6.0491309   6.0439448   6.2727239   6.2689442   6.2689166   6.2726779
   6.2695967   6.2641723   6.2641116   6.2695430   6.0432091   6.0483839
   6.0613798   6.0405325   6.2533001   6.2589589   6.2590251   6.2533845
   6.2532242   6.2588435   6.2590675   6.2533571   6.0392628   6.0600343
   6.0495083   6.0442948   6.2693764   6.2639417   6.2644837   6.2699171
   6.2723594   6.2685611   6.2691950   6.2729518   6.0427523   6.0478986
   8.7145817   8.6931593   8.7146516   8.6932672   8.7069109   8.6908195
   8.6935854   8.7149895   8.6912259   8.7073134   8.6937565   8.7151747
 TTTTTTTTTTTTTTTTTTTTTTTTTTTTTT MOQGAD      TELAPSE       57.33 TCPU      919.41
 TTTTTTTTTTTTTTTTTTTTTTTTTTTTTT SHELLXN     TELAPSE       80.88 TCPU     1671.07
 TTTTTTTTTTTTTTTTTTTTTTTTTTTTTT MONMO3      TELAPSE       81.49 TCPU     1690.53
 NUMERICALLY INTEGRATED DENSITY    395.9999627426
 TTTTTTTTTTTTTTTTTTTTTTTTTTTTTT NUMDFT      TELAPSE       83.11 TCPU     1742.16
 CYC   1 ETOT(AU) -2.577662608626E+03 DETOT  1.43E+01 tst  0.00E+00 PX  1.00E+00
 TTTTTTTTTTTTTTTTTTTTTTTTTTTTTT DIIS        TELAPSE       83.25 TCPU     1746.53
 DIIS TEST: 0.21654E+01 AT SCF   CYCLE   1 - MIX   30 %
 TTTTTTTTTTTTTTTTTTTTTTTTTTTTTT FDIK        TELAPSE       85.08 TCPU     1805.00
 INSULATING STATE
 TOP OF VALENCE BANDS -    BAND    198; K    4; EIG -2.2052149E-01 AU
 TOP OF VALENCE BANDS -    BAND    198; K    1; EIG -2.2284137E-01 AU
 BOTTOM OF VIRTUAL BANDS - BAND    199; K    1; EIG -1.0845738E-01 AU
 INDIRECT ENERGY BAND GAP:   3.0494 eV
 TTTTTTTTTTTTTTTTTTTTTTTTTTTTTT PDIG        TELAPSE       86.65 TCPU     1811.95
 CHARGE NORMALIZATION FACTOR   1.00000000
 TOTAL ATOMIC CHARGES:
   4.6345996   4.6789960   4.6561860   4.7207725   4.6561144   4.7208090
   4.7210112   4.6564166   4.7209865   4.6563783   4.6789501   4.6344588
   0.9136981   0.8971408   0.8971978   0.9136977   0.9195916   0.9148275
   0.9148660   0.9197828   0.8963434   0.8845713   0.8844561   0.8964592
   0.8963243   0.8845689   0.8844372   0.8964015   0.9196000   0.9148201
   0.9149366   0.9198489   0.9136358   0.8970792   0.8972059   0.9136894
   5.8559845   5.8861812   6.1568286   6.1391709   6.1396025   6.1572123
   6.1272537   6.1481003   6.1487708   6.1280519   5.8888476   5.8586694
   5.9446039   5.8626180   6.1579546   6.1381399   6.1391874   6.1586115
   6.1581288   6.1382254   6.1391668   6.1587245   5.8659617   5.9476436
   5.8559008   5.8861081   6.1272940   6.1481581   6.1486411   6.1279761
   6.1570412   6.1394006   6.1394103   6.1568974   5.8890785   5.8588552
   8.3538984   8.3264347   8.3542554   8.3268029   8.3399133   8.3395047
   8.3263117   8.3536767   8.3392322   8.3399462   8.3266994   8.3540643
 TTTTTTTTTTTTTTTTTTTTTTTTTTTTTT MOQGAD      TELAPSE       86.75 TCPU     1812.06
 TTTTTTTTTTTTTTTTTTTTTTTTTTTTTT SHELLXN     TELAPSE      110.31 TCPU     2563.69
 TTTTTTTTTTTTTTTTTTTTTTTTTTTTTT MONMO3      TELAPSE      110.91 TCPU     2583.14
 NUMERICALLY INTEGRATED DENSITY    395.9999496182
 TTTTTTTTTTTTTTTTTTTTTTTTTTTTTT NUMDFT      TELAPSE      112.53 TCPU     2634.66
 CYC   2 ETOT(AU) -2.578042219873E+03 DETOT -3.80E-01 tst  3.04E-03 PX  1.60E-01
 TTTTTTTTTTTTTTTTTTTTTTTTTTTTTT DIIS        TELAPSE      112.69 TCPU     2639.76
 DIIS TEST: 0.89990E+00 AT SCF   CYCLE   2 - DIIS ACTIVE - HISTORY:     2 CYCLES
 TTTTTTTTTTTTTTTTTTTTTTTTTTTTTT FDIK        TELAPSE      114.52 TCPU     2698.24
 INSULATING STATE
 TOP OF VALENCE BANDS -    BAND    198; K    4; EIG -2.3109918E-01 AU
 TOP OF VALENCE BANDS -    BAND    198; K    1; EIG -2.3333890E-01 AU
 BOTTOM OF VIRTUAL BANDS - BAND    199; K    1; EIG -1.0499131E-01 AU
 INDIRECT ENERGY BAND GAP:   3.4316 eV
 TTTTTTTTTTTTTTTTTTTTTTTTTTTTTT PDIG        TELAPSE      116.09 TCPU     2705.20
 CHARGE NORMALIZATION FACTOR   1.00000000
 TOTAL ATOMIC CHARGES:
   4.4202882   4.4786001   4.4763330   4.5119030   4.4764709   4.5120461
   4.5116158   4.4761378   4.5114499   4.4759319   4.4778460   4.4200654
   0.8912760   0.8788380   0.8789201   0.8915560   0.8936089   0.8933353
   0.8934676   0.8936300   0.8809180   0.8690812   0.8695415   0.8809173
   0.8809458   0.8690830   0.8694930   0.8808537   0.8936108   0.8933413
   0.8935143   0.8936946   0.8912682   0.8788425   0.8788735   0.8914924
   5.9223198   5.8809329   6.1641734   6.1711784   6.1709154   6.1640583
   6.1683211   6.1436872   6.1429224   6.1670048   5.8798609   5.9212569
   5.9177381   5.9030285   6.1552693   6.1811130   6.1804913   6.1551850
   6.1554255   6.1812485   6.1803560   6.1550179   5.9018163   5.9167549
   5.9226778   5.8812323   6.1682644   6.1436487   6.1430547   6.1670819
   6.1641132   6.1710509   6.1709649   6.1640591   5.8795374   5.9209751
   8.5283295   8.5150778   8.5284520   8.5152507   8.5339941   8.5006061
   8.5152958   8.5287441   8.5007593   8.5335598   8.5154774   8.5289261
 TTTTTTTTTTTTTTTTTTTTTTTTTTTTTT MOQGAD      TELAPSE      116.20 TCPU     2705.30
 TTTTTTTTTTTTTTTTTTTTTTTTTTTTTT SHELLXN     TELAPSE      139.76 TCPU     3457.00
 TTTTTTTTTTTTTTTTTTTTTTTTTTTTTT MONMO3      TELAPSE      140.37 TCPU     3476.46
 NUMERICALLY INTEGRATED DENSITY    395.9999504240
 TTTTTTTTTTTTTTTTTTTTTTTTTTTTTT NUMDFT      TELAPSE      141.98 TCPU     3527.95
 CYC   3 ETOT(AU) -2.578226220695E+03 DETOT -1.84E-01 tst  5.26E-04 PX  6.97E-02
 TTTTTTTTTTTTTTTTTTTTTTTTTTTTTT DIIS        TELAPSE      142.16 TCPU     3533.69
 DIIS TEST: 0.39094E-01 AT SCF   CYCLE   3 - DIIS ACTIVE - HISTORY:     3 CYCLES
 TTTTTTTTTTTTTTTTTTTTTTTTTTTTTT FDIK        TELAPSE      143.99 TCPU     3592.34
 INSULATING STATE
 TOP OF VALENCE BANDS -    BAND    198; K    4; EIG -2.4110106E-01 AU
 TOP OF VALENCE BANDS -    BAND    198; K    1; EIG -2.4303255E-01 AU
 BOTTOM OF VIRTUAL BANDS - BAND    199; K    1; EIG -1.1289842E-01 AU
 INDIRECT ENERGY BAND GAP:   3.4886 eV
 TTTTTTTTTTTTTTTTTTTTTTTTTTTTTT PDIG        TELAPSE      145.57 TCPU     3599.30
 CHARGE NORMALIZATION FACTOR   1.00000000
 TOTAL ATOMIC CHARGES:
   4.4400620   4.4742014   4.4784933   4.5125222   4.4785771   4.5126624
   4.5126379   4.4786104   4.5124762   4.4784444   4.4739646   4.4398468
   0.8751388   0.8638237   0.8639821   0.8751706   0.8810474   0.8732855
   0.8732836   0.8811837   0.8609311   0.8555570   0.8553895   0.8612058
   0.8609533   0.8555978   0.8553186   0.8611195   0.8810878   0.8732919
   0.8733424   0.8812128   0.8751286   0.8637883   0.8639575   0.8751259
   5.9238732   5.9514996   6.1862932   6.1679674   6.1682401   6.1862990
   6.1478746   6.1840746   6.1853107   6.1497097   5.9543001   5.9265753
   6.0173489   5.9064713   6.1829203   6.1655222   6.1666138   6.1835555
   6.1828477   6.1653123   6.1667626   6.1837689   5.9096665   6.0197607
   5.9238500   5.9515137   6.1477360   6.1839717   6.1854173   6.1498656
   6.1861623   6.1679051   6.1683534   6.1862911   5.9543573   5.9266092
   8.5026279   8.4748952   8.5029194   8.4751774   8.4822736   8.4882764
   8.4750103   8.5023939   8.4882739   8.4830469   8.4753415   8.5027408
 TTTTTTTTTTTTTTTTTTTTTTTTTTTTTT MOQGAD      TELAPSE      145.67 TCPU     3599.41
 TTTTTTTTTTTTTTTTTTTTTTTTTTTTTT SHELLXN     TELAPSE      169.24 TCPU     4351.22
 TTTTTTTTTTTTTTTTTTTTTTTTTTTTTT MONMO3      TELAPSE      169.84 TCPU     4370.68
 NUMERICALLY INTEGRATED DENSITY    395.9999511331
 TTTTTTTTTTTTTTTTTTTTTTTTTTTTTT NUMDFT      TELAPSE      171.46 TCPU     4422.21
 CYC   4 ETOT(AU) -2.578232621532E+03 DETOT -6.40E-03 tst  1.06E-04 PX  2.39E-02
 TTTTTTTTTTTTTTTTTTTTTTTTTTTTTT DIIS        TELAPSE      171.65 TCPU     4428.50
 DIIS TEST: 0.18183E-01 AT SCF   CYCLE   4 - DIIS ACTIVE - HISTORY:     4 CYCLES
 TTTTTTTTTTTTTTTTTTTTTTTTTTTTTT FDIK        TELAPSE      173.48 TCPU     4486.83
 INSULATING STATE
 TOP OF VALENCE BANDS -    BAND    198; K    4; EIG -2.4057630E-01 AU
 TOP OF VALENCE BANDS -    BAND    198; K    1; EIG -2.4262265E-01 AU
 BOTTOM OF VIRTUAL BANDS - BAND    199; K    1; EIG -1.1259325E-01 AU
 INDIRECT ENERGY BAND GAP:   3.4826 eV
 TTTTTTTTTTTTTTTTTTTTTTTTTTTTTT PDIG        TELAPSE      175.05 TCPU     4493.78
 CHARGE NORMALIZATION FACTOR   1.00000000
 TOTAL ATOMIC CHARGES:
   4.4333137   4.4823684   4.4791048   4.5193729   4.4792212   4.5195075
   4.5193202   4.4791336   4.5191689   4.4789429   4.4818575   4.4331250
   0.8755966   0.8640636   0.8641504   0.8757602   0.8808477   0.8768098
   0.8769756   0.8809828   0.8637189   0.8541215   0.8544196   0.8637774
   0.8637275   0.8541198   0.8543778   0.8637178   0.8808586   0.8768137
   0.8770316   0.8810429   0.8755700   0.8640402   0.8641247   0.8757203
   5.9335478   5.9296186   6.1748512   6.1770909   6.1770765   6.1749910
   6.1729416   6.1615224   6.1609060   6.1719375   5.9292295   5.9331901
   5.9650914   5.9375097   6.1687670   6.1831123   6.1829446   6.1688139
   6.1689200   6.1832100   6.1828489   6.1687251   5.9373118   5.9649925
   5.9337725   5.9298134   6.1728771   6.1614880   6.1609806   6.1720029
   6.1748488   6.1770608   6.1770791   6.1749101   5.9290603   5.9330306
   8.5006530   8.4850323   8.5008372   8.4852480   8.5017427   8.4798920
   8.4851225   8.5008968   8.4798845   8.5013172   8.4853640   8.5011300
 TTTTTTTTTTTTTTTTTTTTTTTTTTTTTT MOQGAD      TELAPSE      175.15 TCPU     4493.89
 TTTTTTTTTTTTTTTTTTTTTTTTTTTTTT SHELLXN     TELAPSE      198.72 TCPU     5245.95
 TTTTTTTTTTTTTTTTTTTTTTTTTTTTTT MONMO3      TELAPSE      199.33 TCPU     5265.41
 NUMERICALLY INTEGRATED DENSITY    395.9999512374
 TTTTTTTTTTTTTTTTTTTTTTTTTTTTTT NUMDFT      TELAPSE      200.94 TCPU     5316.90
 CYC   5 ETOT(AU) -2.578236157329E+03 DETOT -3.54E-03 tst  6.11E-05 PX  1.28E-02
 TTTTTTTTTTTTTTTTTTTTTTTTTTTTTT DIIS        TELAPSE      201.17 TCPU     5323.73
 DIIS TEST: 0.31966E-02 AT SCF   CYCLE   5 - DIIS ACTIVE - HISTORY:     5 CYCLES
 TTTTTTTTTTTTTTTTTTTTTTTTTTTTTT FDIK        TELAPSE      203.00 TCPU     5381.93
 INSULATING STATE
 TOP OF VALENCE BANDS -    BAND    198; K    4; EIG -2.3974635E-01 AU
 TOP OF VALENCE BANDS -    BAND    198; K    1; EIG -2.4181768E-01 AU
 BOTTOM OF VIRTUAL BANDS - BAND    199; K    1; EIG -1.1262553E-01 AU
 INDIRECT ENERGY BAND GAP:   3.4591 eV
 TTTTTTTTTTTTTTTTTTTTTTTTTTTTTT PDIG        TELAPSE      204.57 TCPU     5388.89
 CHARGE NORMALIZATION FACTOR   1.00000000
 TOTAL ATOMIC CHARGES:
   4.4360344   4.4815678   4.4793296   4.5188881   4.4794287   4.5190245
   4.5188599   4.4793350   4.5187077   4.4791593   4.4811362   4.4358268
   0.8776652   0.8657516   0.8658786   0.8778060   0.8826542   0.8782111
   0.8782847   0.8827648   0.8651215   0.8558195   0.8559559   0.8652582
   0.8651380   0.8558341   0.8559017   0.8651892   0.8826736   0.8782146
   0.8783416   0.8828154   0.8776467   0.8657287   0.8658510   0.8777613
   5.9291938   5.9223198   6.1814112   6.1711137   6.1711156   6.1813878
   6.1619190   6.1674455   6.1676895   6.1621617   5.9231850   5.9300300
   5.9752714   5.9132733   6.1745539   6.1759432   6.1762097   6.1748278
   6.1746117   6.1759155   6.1762112   6.1748433   5.9142769   5.9760405
   5.9293551   5.9224686   6.1618309   6.1673918   6.1677852   6.1622596
   6.1813466   6.1710410   6.1711710   6.1813561   5.9230662   5.9299202
   8.5078531   8.4864391   8.5080666   8.4866738   8.4993032   8.4865663
   8.4865785   8.5079235   8.4866210   8.4994359   8.4868399   8.5081910
 TTTTTTTTTTTTTTTTTTTTTTTTTTTTTT MOQGAD      TELAPSE      204.67 TCPU     5388.99
 TTTTTTTTTTTTTTTTTTTTTTTTTTTTTT SHELLXN     TELAPSE      228.25 TCPU     6141.10
 TTTTTTTTTTTTTTTTTTTTTTTTTTTTTT MONMO3      TELAPSE      228.86 TCPU     6160.55
 NUMERICALLY INTEGRATED DENSITY    395.9999510882
 TTTTTTTTTTTTTTTTTTTTTTTTTTTTTT NUMDFT      TELAPSE      230.47 TCPU     6212.01
 CYC   6 ETOT(AU) -2.578236863337E+03 DETOT -7.06E-04 tst  1.24E-05 PX  5.77E-03
 TTTTTTTTTTTTTTTTTTTTTTTTTTTTTT DIIS        TELAPSE      230.71 TCPU     6218.83
 DIIS TEST: 0.34254E-03 AT SCF   CYCLE   6 - DIIS ACTIVE - HISTORY:     6 CYCLES
 TTTTTTTTTTTTTTTTTTTTTTTTTTTTTT FDIK        TELAPSE      232.53 TCPU     6276.83
 INSULATING STATE
 TOP OF VALENCE BANDS -    BAND    198; K    2; EIG -2.3953899E-01 AU
 TOP OF VALENCE BANDS -    BAND    198; K    1; EIG -2.4157796E-01 AU
 BOTTOM OF VIRTUAL BANDS - BAND    199; K    1; EIG -1.1207118E-01 AU
 INDIRECT ENERGY BAND GAP:   3.4686 eV
 TTTTTTTTTTTTTTTTTTTTTTTTTTTTTT PDIG        TELAPSE      234.10 TCPU     6283.78
 CHARGE NORMALIZATION FACTOR   1.00000000
 TOTAL ATOMIC CHARGES:
   4.4355147   4.4814804   4.4797962   4.5183309   4.4798996   4.5184676
   4.5182929   4.4798077   4.5181395   4.4796286   4.4810222   4.4353022
   0.8781695   0.8656566   0.8657696   0.8783023   0.8829313   0.8783639
   0.8784561   0.8830492   0.8657255   0.8565595   0.8567076   0.8658530
   0.8657424   0.8565744   0.8566545   0.8657831   0.8829514   0.8783693
   0.8785113   0.8830982   0.8781526   0.8656333   0.8657412   0.8782573
   5.9256323   5.9270556   6.1769475   6.1745005   6.1745533   6.1769905
   6.1628978   6.1673540   6.1674356   6.1629408   5.9277890   5.9263384
   5.9723457   5.9173783   6.1719715   6.1769642   6.1771990   6.1722241
   6.1720359   6.1769489   6.1771906   6.1722356   5.9183126   5.9730677
   5.9257881   5.9272025   6.1628066   6.1672895   6.1675374   6.1630466
   6.1768791   6.1744383   6.1746090   6.1769532   5.9276778   5.9262279
   8.5062554   8.4862713   8.5064698   8.4865036   8.5001321   8.4863298
   8.4864033   8.5063504   8.4863575   8.5001812   8.4866674   8.5066171
 TTTTTTTTTTTTTTTTTTTTTTTTTTTTTT MOQGAD      TELAPSE      234.21 TCPU     6283.89
 TTTTTTTTTTTTTTTTTTTTTTTTTTTTTT SHELLXN     TELAPSE      257.78 TCPU     7035.83
 TTTTTTTTTTTTTTTTTTTTTTTTTTTTTT MONMO3      TELAPSE      258.39 TCPU     7055.30
 NUMERICALLY INTEGRATED DENSITY    395.9999510940
 TTTTTTTTTTTTTTTTTTTTTTTTTTTTTT NUMDFT      TELAPSE      260.00 TCPU     7106.75
 CYC   7 ETOT(AU) -2.578236928427E+03 DETOT -6.51E-05 tst  8.97E-07 PX  1.17E-03
 TTTTTTTTTTTTTTTTTTTTTTTTTTTTTT DIIS        TELAPSE      260.27 TCPU     7113.64
 DIIS TEST: 0.75174E-04 AT SCF   CYCLE   7 - DIIS ACTIVE - HISTORY:     7 CYCLES
 TTTTTTTTTTTTTTTTTTTTTTTTTTTTTT FDIK        TELAPSE      262.10 TCPU     7171.70
 INSULATING STATE
 TOP OF VALENCE BANDS -    BAND    198; K    2; EIG -2.3971683E-01 AU
 TOP OF VALENCE BANDS -    BAND    198; K    1; EIG -2.4177093E-01 AU
 BOTTOM OF VIRTUAL BANDS - BAND    199; K    1; EIG -1.1227632E-01 AU
 INDIRECT ENERGY BAND GAP:   3.4678 eV
 TTTTTTTTTTTTTTTTTTTTTTTTTTTTTT PDIG        TELAPSE      263.67 TCPU     7178.66
 CHARGE NORMALIZATION FACTOR   1.00000000
 TOTAL ATOMIC CHARGES:
   4.4355346   4.4815231   4.4798694   4.5184772   4.4799744   4.5186138
   4.5184375   4.4798802   4.5182845   4.4796998   4.4810632   4.4353280
   0.8779896   0.8658326   0.8659468   0.8781295   0.8827637   0.8784222
   0.8785177   0.8828786   0.8655056   0.8562281   0.8563933   0.8656261
   0.8655216   0.8562409   0.8563411   0.8655575   0.8827823   0.8784269
   0.8785734   0.8829297   0.8779712   0.8658102   0.8659186   0.8780848
   5.9283210   5.9250918   6.1784212   6.1729336   6.1729585   6.1784551
   6.1634946   6.1664227   6.1664630   6.1634596   5.9257167   5.9289270
   5.9730696   5.9177113   6.1724271   6.1770871   6.1772771   6.1726607
   6.1725033   6.1770833   6.1772589   6.1726580   5.9185166   5.9736970
   5.9284903   5.9252464   6.1634072   6.1663668   6.1665590   6.1635575
   6.1783645   6.1728711   6.1730061   6.1784138   5.9255932   5.9288087
   8.5061339   8.4861598   8.5063430   8.4863909   8.4998151   8.4856712
   8.4862883   8.5062407   8.4857042   8.4998251   8.4865484   8.5065027
 TTTTTTTTTTTTTTTTTTTTTTTTTTTTTT MOQGAD      TELAPSE      263.77 TCPU     7178.76
 TTTTTTTTTTTTTTTTTTTTTTTTTTTTTT SHELLXN     TELAPSE      287.32 TCPU     7929.97
 TTTTTTTTTTTTTTTTTTTTTTTTTTTTTT MONMO3      TELAPSE      287.93 TCPU     7949.44
 NUMERICALLY INTEGRATED DENSITY    395.9999510827
 TTTTTTTTTTTTTTTTTTTTTTTTTTTTTT NUMDFT      TELAPSE      289.54 TCPU     8000.91
 CYC   8 ETOT(AU) -2.578236947346E+03 DETOT -1.89E-05 tst  2.03E-07 PX  6.46E-04
 TTTTTTTTTTTTTTTTTTTTTTTTTTTTTT DIIS        TELAPSE      289.83 TCPU     8007.71
 DIIS TEST: 0.79241E-06 AT SCF   CYCLE   8 - DIIS ACTIVE - HISTORY:     8 CYCLES
 TTTTTTTTTTTTTTTTTTTTTTTTTTTTTT FDIK        TELAPSE      291.66 TCPU     8065.92
 INSULATING STATE
 TOP OF VALENCE BANDS -    BAND    198; K    2; EIG -2.3970923E-01 AU
 TOP OF VALENCE BANDS -    BAND    198; K    1; EIG -2.4176324E-01 AU
 BOTTOM OF VIRTUAL BANDS - BAND    199; K    1; EIG -1.1227912E-01 AU
 INDIRECT ENERGY BAND GAP:   3.4676 eV
 TTTTTTTTTTTTTTTTTTTTTTTTTTTTTT PDIG        TELAPSE      293.23 TCPU     8072.87
 CHARGE NORMALIZATION FACTOR   1.00000000
 TOTAL ATOMIC CHARGES:
   4.4355448   4.4815756   4.4797484   4.5186370   4.4798517   4.5187733
   4.5186020   4.4797596   4.5184493   4.4795807   4.4811246   4.4353391
   0.8779424   0.8658141   0.8659315   0.8780822   0.8828040   0.8783881
   0.8784778   0.8829179   0.8654645   0.8562336   0.8563904   0.8655903
   0.8654809   0.8562472   0.8563375   0.8655214   0.8828230   0.8783923
   0.8785339   0.8829685   0.8779242   0.8657913   0.8659035   0.8780374
   5.9280161   5.9251764   6.1784785   6.1729795   6.1729989   6.1784976
   6.1634212   6.1664352   6.1665279   6.1634597   5.9258653   5.9286819
   5.9729066   5.9178310   6.1724966   6.1769589   6.1771688   6.1727377
   6.1725653   6.1769487   6.1771572   6.1727425   5.9186916   5.9735703
   5.9281805   5.9253285   6.1633347   6.1663793   6.1666233   6.1635569
   6.1784185   6.1729155   6.1730493   6.1784590   5.9257451   5.9285679
   8.5062357   8.4861809   8.5064476   8.4864130   8.4998330   8.4856556
   8.4863108   8.5063324   8.4856925   8.4998743   8.4865717   8.5065968
 TTTTTTTTTTTTTTTTTTTTTTTTTTTTTT MOQGAD      TELAPSE      293.34 TCPU     8072.97
 TTTTTTTTTTTTTTTTTTTTTTTTTTTTTT SHELLXN     TELAPSE      316.91 TCPU     8825.07
 TTTTTTTTTTTTTTTTTTTTTTTTTTTTTT MONMO3      TELAPSE      317.52 TCPU     8844.51
 NUMERICALLY INTEGRATED DENSITY    395.9999510803
 TTTTTTTTTTTTTTTTTTTTTTTTTTTTTT NUMDFT      TELAPSE      319.13 TCPU     8895.97
 CYC   9 ETOT(AU) -2.578236947324E+03 DETOT  2.19E-08 tst  4.03E-09 PX  8.16E-05
 TTTTTTTTTTTTTTTTTTTTTTTTTTTTTT DIIS        TELAPSE      319.45 TCPU     8902.90
 DIIS TEST: 0.83704E-07 AT SCF   CYCLE   9 - DIIS ACTIVE - HISTORY:     9 CYCLES
 TTTTTTTTTTTTTTTTTTTTTTTTTTTTTT FDIK        TELAPSE      321.27 TCPU     8960.93
 INSULATING STATE
 TOP OF VALENCE BANDS -    BAND    198; K    2; EIG -2.3971414E-01 AU
 TOP OF VALENCE BANDS -    BAND    198; K    1; EIG -2.4176815E-01 AU
 BOTTOM OF VIRTUAL BANDS - BAND    199; K    1; EIG -1.1228067E-01 AU
 INDIRECT ENERGY BAND GAP:   3.4676 eV
 TTTTTTTTTTTTTTTTTTTTTTTTTTTTTT PDIG        TELAPSE      322.85 TCPU     8967.89
 CHARGE NORMALIZATION FACTOR   1.00000000
 TOTAL ATOMIC CHARGES:
   4.4355587   4.4815679   4.4797771   4.5185873   4.4798815   4.5187237
   4.5185484   4.4797878   4.5183955   4.4796077   4.4811086   4.4353517
   0.8779547   0.8658017   0.8659154   0.8780944   0.8827886   0.8783812
   0.8784779   0.8829047   0.8654679   0.8562165   0.8563830   0.8655878
   0.8654837   0.8562292   0.8563310   0.8655194   0.8828073   0.8783860
   0.8785335   0.8829557   0.8779362   0.8657791   0.8658873   0.8780499
   5.9281325   5.9251974   6.1783803   6.1730305   6.1730571   6.1784171
   6.1634487   6.1664931   6.1665261   6.1634036   5.9258116   5.9287285
   5.9730053   5.9177307   6.1724697   6.1770527   6.1772400   6.1727022
   6.1725470   6.1770495   6.1772211   6.1726985   5.9185248   5.9736263
   5.9283020   5.9253524   6.1633612   6.1664368   6.1666221   6.1635019
   6.1783238   6.1729689   6.1731046   6.1783751   5.9256882   5.9286097
   8.5061907   8.4861725   8.5063994   8.4864034   8.4998785   8.4857039
   8.4863012   8.5062990   8.4857355   8.4998854   8.4865611   8.5065605
 TTTTTTTTTTTTTTTTTTTTTTTTTTTTTT MOQGAD      TELAPSE      322.95 TCPU     8967.99
 TTTTTTTTTTTTTTTTTTTTTTTTTTTTTT SHELLXN     TELAPSE      346.50 TCPU     9719.49
 +++ ENERGIES IN A.U. +++
 ::: EXT EL-POLE                                  -3.1086619420479E+03
 ::: EXT EL-SPHEROPOLE                             3.5832939881131E+01
 ::: BIELET ZONE E-E                               4.6184666889993E+03
 ::: TOTAL E-E                                     1.5456376868325E+03
 ::: TOTAL E-N + N-E                              -6.7362266597752E+03
 ::: TOTAL N-N                                     3.1986794761489E+02
 ::: KINETIC ENERGY                                2.5599513185070E+03
 ::: PSEUDO TOTAL   ENERGY                        -2.3107697068208E+03
 ::: VIRIAL COEFFICIENT                            1.0511590810458E+00
 TTTTTTTTTTTTTTTTTTTTTTTTTTTTTT MONMO3      TELAPSE      347.11 TCPU     9738.94
 NUMERICALLY INTEGRATED DENSITY    395.9999510797
 EXCHANGE ENERGY: -0.252053006939E+03  CORRELATION ENERGY: -0.154142335740E+02
 TTTTTTTTTTTTTTTTTTTTTTTTTTTTTT NUMDFT      TELAPSE      348.72 TCPU     9790.42
 CYC  10 ETOT(AU) -2.578236947334E+03 DETOT -1.03E-08 tst  4.05E-10 PX  8.16E-05

 == SCF ENDED - CONVERGENCE ON ENERGY      E(AU) -2.5782369473341E+03 CYCLES  10


 ENERGY EXPRESSION=HARTREE+FOCK EXCH*0.00000+(HSESOL     EXCH)*1.00000+PBESOL     CORR


 TOTAL ENERGY(DFT)(AU)( 10) -2.5782369473341E+03 DE-1.0E-08 tester 4.0E-10
 TTTTTTTTTTTTTTTTTTTTTTTTTTTTTT EDFT        TELAPSE      348.72 TCPU     9790.43
 
 INFORMATION **** DFTD3 ENERGY **** CALCULATE DFTD3 ENERGY

           DFT-D V3(BJ)
 DF                                         hsesol3c  
 parameters
 s6       :    1.0000
 s8       :    0.0000
 a1       :    0.5196
 a2       :    4.9385
 k1 k3    :   16.0000   -4.0000
 Cutoff   :   50.2022
 CN-Cutoff:   21.1671
 ABC-Cutoff:   21.1671
 
 Edisp /kcal,au:   -59.6136 -0.09500028

 E6    /kcal :   -64.0843
 E8    /kcal :     0.0000
 E6(ABC) "   :   4.470671
 
 INFORMATION **** DFTD3 ENERGY **** NORMAL TERMINATION OF DFTD3 MODULE

 GCP ENERGY CALCULATION
  level        hsesol3c            basis:hsesol3c
  Nbf            948
  Atoms           84

  Parameters: 
  sigma     1.0000
  eta       1.4281
  alpha     0.2936
  beta      1.9467

  dmp_scal      4.0000
  dmp_exp       6.0000
 cutoffs: 
   distance [bohr] 60.0
   noise    [a.u.] 2.2E-16
 SR-damping   T
 ** gCP correction **
  Egcp:        0.1689401055 / (a.u.) ||     106.0115 / (kcal/mol)
 INFORMATION **** GCP **** NORMAL TERMINATION OF GCP MODULE

 *******************************************************************************

 DFT-D3-GCP DISPERSION AND COUNTERPOISE CORRECTION

 D3 DISPERSION ENERGY (AU)      -9.5000284514189E-02
 GCP ENERGY (AU)                 1.6894010545985E-01
 TOTAL ENERGY + DISP + GCP (AU) -2.5781630075131E+03

 *******************************************************************************

 EIGENVECTORS IN FORTRAN UNIT  8
 TTTTTTTTTTTTTTTTTTTTTTTTTTTTTT END         TELAPSE      352.42 TCPU     9800.03
 EEEEEEEEEE TERMINATION  DATE 19 02 2026 TIME 19:55:55.4
