 Default number of threads is:           32

         
 *******************************************************************************
 *                                                                             *
 *                               CRYSTAL23                                     *
 *                      public : 1.0.1 - October 2022                          *
 *                       HTTP://WWW.CRYSTAL.UNITO.IT                           *
 *                                                                             *
 *                              MAIN AUTHORS                                   *
 *                                                                             *
 *  R. DOVESI(1,11), V.R. SAUNDERS(2), C. ROETTI(1,11), R. ORLANDO(1,11),      *
 *  C.M. ZICOVICH-WILSON(1,3), F. PASCALE(4), B. CIVALLERI(1,11),              *
 *  K. DOLL(5), N.M. HARRISON(6), I.J. BUSH(7), Ph. D'ARCO(8),                 *
 *  M. LLUNELL(9), M. CAUSA'(10), Y. NOEL(8), L. MASCHIO(1,11), A. ERBA(1,11)  *
 *  M. RE'RAT(14), S. CASASSA(1,11), B.G. SEARLE(2), J.K. DESMARAIS(1)         *
 *                                                                             *
 *        CONTRIBUTIONS TO THE CODE HAVE ALSO BEEN GIVEN BY                    *
 *                                                                             *
 *  M. FERRABONE(1,11), M. DE LA PIERRE(1,11), M. FERRERO(1,11),               *
 *  J. BAIMA(1,11), E. ALBANESE(1,11), M.F. PEINTINGER(12), R. BAST(13),       *
 *  B. KIRTMAN(15), V. LACIVITA(1,11), R. DEMICHELIS(1,16)                     *
 *  G. BRANDEBURG(17), S. SALUSTRO(1,11), G. SANSONE(1,11)                     *
 *  M.T. RUGGIERO(18), L.E. DAGA(1), L. DONA'(1), A. COSSARD(1)                *
 *                                                                             *
 * (1) THEORETICAL CHEMISTRY GROUP - UNIVERSITA' DI TORINO - TORINO (ITALY)    *
 * (2) SCIENTIFIC COMPUTING DEPARTMENT - STFC DARESBURY (UK)                   *
 * (3) UNIVERSIDAD AUTONOMA DEL ESTADO DE MORELOS - CUERNAVACA (MEXICO)        *
 * (4) UNIVERSITE' DE LORRAINE - NANCY (FRANCE)                                *
 * (5) UNIVERSITAET STUTTGART- STUTTGART (GERMANY)                             *
 * (6) IMPERIAL COLLEGE - LONDON (UK)                                          *
 * (7) SCIENTIFIC COMPUTING DEPARTMENT - STFC RAL (UK)                         *
 * (8) UPMC - SORBONNE UNIVERSITES - PARIS (FRANCE)                            *
 * (9) UNIVERSIDAD DE BARCELONA - BARCELONA (SPAIN)                            *
 *(10) UNIVERSITA' DI NAPOLI "FEDERICO II" - NAPOLI (ITALY)                    *
 *(11) NIS - NANOSTRUCTURED INTERFACES AND SURFACES - TORINO (ITALY)           *
 *(12) MPI FUER CHEMISCHE ENERGIEKONVERSION - MUELHEIM AN DER RUHR (GERMANY)   *
 *(13) UNIVERSITY OF TROMSO - TROMSO (NORWAY)                                  *
 *(14) UNIVERSITE' DE PAU ET DES PAYS DE L'ADOUR - PAU (FRANCE)                *
 *(15) UNIVERSITY OF CALIFORNIA SANTA BARBARA - SANTA BARBARA (USA)            *
 *(16) CURTIN UNIVERSITY - PERTH (AUSTRALIA)                                   *
 *(17) UNIVERSITY COLLEGE LONDON - LONDON (UK)                                 *
 *(18) UNIVERSITY OF VERMONT - BURLINGTON (USA)                                *
 *                                                                             *
 *******************************************************************************
 EEEEEEEEEE STARTING  DATE 19 02 2026 TIME 18:19:13.7
 cof-1_z34_L070_incl                                                             

 CRYSTAL CALCULATION
 (INPUT ACCORDING TO THE INTERNATIONAL TABLES FOR X-RAY CRYSTALLOGRAPHY)
 CRYSTAL FAMILY                       :  TRICLINIC   
 CRYSTAL CLASS  (GROTH - 1921)        :  TRICLINIC PEDIAL                     

 SPACE GROUP (NONCENTROSYMMETRIC)     :  P 1             

 LATTICE PARAMETERS  (ANGSTROMS AND DEGREES) - CONVENTIONAL CELL
        A           B           C        ALPHA        BETA       GAMMA
    15.02361    15.02392     7.78203    38.82850    89.99998   119.99596


 NUMBER OF IRREDUCIBLE ATOMS IN THE CONVENTIONAL CELL:   42

 INPUT COORDINATES

 ATOM AT. N.              COORDINATES
   1   5     4.788228400000E-01 -4.242459000000E-02  5.013988000000E-01
   2   5     6.378785000000E-01  1.166350600000E-01  5.013988200000E-01
   3   5     4.796130500000E-01  1.182069700000E-01  4.984449600000E-01
   4   5     9.239755000000E-02  3.438904000000E-01  5.013988100000E-01
   5   5     2.515055200000E-01  3.438696400000E-01  5.013988000000E-01
   6   5     2.522802700000E-01  5.045979400000E-01  4.984449700000E-01
   7   1     7.698330200000E-01  4.248178000000E-02  4.952749000000E-01
   8   1    -3.632420000000E-02  4.251089600000E-01  4.943384500000E-01
   9   1     7.700514600000E-01  3.282054900000E-01  4.941943300000E-01
  10   1    -3.619345000000E-02  1.397986600000E-01  4.942302700000E-01
  11   1     5.552833200000E-01 -1.745216300000E-01  5.047129400000E-01
  12   1     1.729287600000E-01  6.314077300000E-01  5.056494500000E-01
  13   1     2.698302400000E-01 -1.750571800000E-01  5.057936500000E-01
  14   1     4.582821900000E-01  6.312596300000E-01  5.057574600000E-01
  15   1     5.578621300000E-01  3.276059100000E-01  4.952749500000E-01
  16   1     1.760031200000E-01  1.396648800000E-01  4.943383900000E-01
  17   1     2.729206400000E-01  4.295637000000E-02  4.941942200000E-01
  18   1     4.613612200000E-01  4.250715900000E-01  4.942303800000E-01
  19   6     7.578561600000E-01  1.778481300000E-01  4.983368800000E-01
  20   6     8.132397600000E-01  1.262598300000E-01  4.954190100000E-01
  21   6    -7.979344000000E-02  3.407951100000E-01  4.951669400000E-01
  22   6     8.130670900000E-01  2.868950300000E-01  4.959234100000E-01
  23   6    -7.943547000000E-02  1.804993400000E-01  4.939781200000E-01
  24   6    -2.535881000000E-02  2.872191100000E-01  4.959594000000E-01
  25   6     4.191139000000E-01 -1.617100200000E-01  5.016509800000E-01
  26   6     4.714675400000E-01 -2.178922700000E-01  5.045688000000E-01
  27   6     2.570205400000E-01  6.750793000000E-01  5.048209600000E-01
  28   6     3.107129000000E-01 -2.175740500000E-01  5.040645100000E-01
  29   6     4.176190000000E-01  6.744001900000E-01  5.060096700000E-01
  30   6     3.103629300000E-01  6.208345500000E-01  5.040284500000E-01
  31   6     4.200107200000E-01  1.777789900000E-01  4.983368800000E-01
  32   6     4.739608500000E-01  2.870999500000E-01  4.954190700000E-01
  33   6     2.596418300000E-01  1.797818700000E-01  4.951668800000E-01
  34   6     3.129022600000E-01  1.258928700000E-01  4.959233300000E-01
  35   6     4.208811300000E-01  3.413473300000E-01  4.939781900000E-01
  36   6     3.125652800000E-01  2.871417100000E-01  4.959594000000E-01
  37   8     4.264603100000E-01  1.179059000000E-02  4.992374400000E-01
  38   8     5.837291800000E-01  8.445650000000E-03  5.054693400000E-01
  39   8     5.862556500000E-01  1.724487900000E-01  4.960674900000E-01
  40   8     1.460481300000E-01  4.510710400000E-01  4.992374800000E-01
  41   8     1.443914500000E-01  2.887629300000E-01  5.054693400000E-01
  42   8     3.058400700000E-01  4.527607600000E-01  4.960674700000E-01

 *******************************************************************************

 << INFORMATION >>: FROM NOW ON, ALL COORDINATES REFER TO THE PRIMITIVE CELL

 *******************************************************************************

 LATTICE PARAMETERS  (ANGSTROMS AND DEGREES) - PRIMITIVE CELL
       A          B          C        ALPHA      BETA     GAMMA        VOLUME
   15.02361   15.02392    7.78203    38.82850  89.99998 119.99596    664.645429

 COORDINATES OF THE EQUIVALENT ATOMS (FRACTIONAL UNITS)

 N. ATOM EQUIV AT. N.          X                  Y                  Z

   1   1   1    5 B     4.78822840000E-01 -4.24245900000E-02 -4.98601200000E-01

   2   2   1    5 B    -3.62121500000E-01  1.16635060000E-01 -4.98601180000E-01

   3   3   1    5 B     4.79613050000E-01  1.18206970000E-01  4.98444960000E-01

   4   4   1    5 B     9.23975500000E-02  3.43890400000E-01 -4.98601190000E-01

   5   5   1    5 B     2.51505520000E-01  3.43869640000E-01 -4.98601200000E-01

   6   6   1    5 B     2.52280270000E-01 -4.95402060000E-01  4.98444970000E-01

   7   7   1    1 H    -2.30166980000E-01  4.24817800000E-02  4.95274900000E-01

   8   8   1    1 H    -3.63242000000E-02  4.25108960000E-01  4.94338450000E-01

   9   9   1    1 H    -2.29948540000E-01  3.28205490000E-01  4.94194330000E-01

  10  10   1    1 H    -3.61934500000E-02  1.39798660000E-01  4.94230270000E-01

  11  11   1    1 H    -4.44716680000E-01 -1.74521630000E-01 -4.95287060000E-01

  12  12   1    1 H     1.72928760000E-01 -3.68592270000E-01 -4.94350550000E-01

  13  13   1    1 H     2.69830240000E-01 -1.75057180000E-01 -4.94206350000E-01

  14  14   1    1 H     4.58282190000E-01 -3.68740370000E-01 -4.94242540000E-01

  15  15   1    1 H    -4.42137870000E-01  3.27605910000E-01  4.95274950000E-01

  16  16   1    1 H     1.76003120000E-01  1.39664880000E-01  4.94338390000E-01

  17  17   1    1 H     2.72920640000E-01  4.29563700000E-02  4.94194220000E-01

  18  18   1    1 H     4.61361220000E-01  4.25071590000E-01  4.94230380000E-01

  19  19   1    6 C    -2.42143840000E-01  1.77848130000E-01  4.98336880000E-01

  20  20   1    6 C    -1.86760240000E-01  1.26259830000E-01  4.95419010000E-01

  21  21   1    6 C    -7.97934400000E-02  3.40795110000E-01  4.95166940000E-01

  22  22   1    6 C    -1.86932910000E-01  2.86895030000E-01  4.95923410000E-01

  23  23   1    6 C    -7.94354700000E-02  1.80499340000E-01  4.93978120000E-01

  24  24   1    6 C    -2.53588100000E-02  2.87219110000E-01  4.95959400000E-01

  25  25   1    6 C     4.19113900000E-01 -1.61710020000E-01 -4.98349020000E-01

  26  26   1    6 C     4.71467540000E-01 -2.17892270000E-01 -4.95431200000E-01

  27  27   1    6 C     2.57020540000E-01 -3.24920700000E-01 -4.95179040000E-01

  28  28   1    6 C     3.10712900000E-01 -2.17574050000E-01 -4.95935490000E-01

  29  29   1    6 C     4.17619000000E-01 -3.25599810000E-01 -4.93990330000E-01

  30  30   1    6 C     3.10362930000E-01 -3.79165450000E-01 -4.95971550000E-01

  31  31   1    6 C     4.20010720000E-01  1.77778990000E-01  4.98336880000E-01

  32  32   1    6 C     4.73960850000E-01  2.87099950000E-01  4.95419070000E-01

  33  33   1    6 C     2.59641830000E-01  1.79781870000E-01  4.95166880000E-01

  34  34   1    6 C     3.12902260000E-01  1.25892870000E-01  4.95923330000E-01

  35  35   1    6 C     4.20881130000E-01  3.41347330000E-01  4.93978190000E-01

  36  36   1    6 C     3.12565280000E-01  2.87141710000E-01  4.95959400000E-01

  37  37   1    8 O     4.26460310000E-01  1.17905900000E-02  4.99237440000E-01

  38  38   1    8 O    -4.16270820000E-01  8.44565000000E-03 -4.94530660000E-01

  39  39   1    8 O    -4.13744350000E-01  1.72448790000E-01  4.96067490000E-01

  40  40   1    8 O     1.46048130000E-01  4.51071040000E-01  4.99237480000E-01

  41  41   1    8 O     1.44391450000E-01  2.88762930000E-01 -4.94530660000E-01

  42  42   1    8 O     3.05840070000E-01  4.52760760000E-01  4.96067470000E-01

 NUMBER OF SYMMETRY OPERATORS         :    1
 *******************************************************************************
 * GEOMETRY EDITING - INPUT COORDINATES ARE GIVEN IN ANGSTROM         
 *******************************************************************************

 GCALCO - MAX INDICES DIRECT LATTICE VECTOR     9    14    24
 NO.OF VECTORS CREATED 6999 STARS 3500 RMAX   207.39991 BOHR

 GEOMETRY FOR WAVE FUNCTION - DIMENSIONALITY OF THE SYSTEM    3
 (NON PERIODIC DIRECTION: LATTICE PARAMETER FORMALLY SET TO 500)
 *******************************************************************************
 LATTICE PARAMETERS (ANGSTROMS AND DEGREES) - BOHR = 0.5291772083 ANGSTROM
 PRIMITIVE CELL - CENTRING CODE 1/0 VOLUME=   664.645429 - DENSITY  0.975 g/cm^3
         A              B              C           ALPHA      BETA       GAMMA 
    15.02361100    15.02391600     7.78203100    38.828505  89.999975 119.995964
 *******************************************************************************
 ATOMS IN THE ASYMMETRIC UNIT   42 - ATOMS IN THE UNIT CELL:   42
     ATOM                 X/A                 Y/B                 Z/C    
 *******************************************************************************
      1 T   5 B     4.788228400000E-01 -4.242459000000E-02 -4.986012000000E-01
      2 T   5 B    -3.621215000000E-01  1.166350600000E-01 -4.986011800000E-01
      3 T   5 B     4.796130500000E-01  1.182069700000E-01  4.984449600000E-01
      4 T   5 B     9.239755000000E-02  3.438904000000E-01 -4.986011900000E-01
      5 T   5 B     2.515055200000E-01  3.438696400000E-01 -4.986012000000E-01
      6 T   5 B     2.522802700000E-01 -4.954020600000E-01  4.984449700000E-01
      7 T   1 H    -2.301669800000E-01  4.248178000000E-02  4.952749000000E-01
      8 T   1 H    -3.632420000000E-02  4.251089600000E-01  4.943384500000E-01
      9 T   1 H    -2.299485400000E-01  3.282054900000E-01  4.941943300000E-01
     10 T   1 H    -3.619345000000E-02  1.397986600000E-01  4.942302700000E-01
     11 T   1 H    -4.447166800000E-01 -1.745216300000E-01 -4.952870600000E-01
     12 T   1 H     1.729287600000E-01 -3.685922700000E-01 -4.943505500000E-01
     13 T   1 H     2.698302400000E-01 -1.750571800000E-01 -4.942063500000E-01
     14 T   1 H     4.582821900000E-01 -3.687403700000E-01 -4.942425400000E-01
     15 T   1 H    -4.421378700000E-01  3.276059100000E-01  4.952749500000E-01
     16 T   1 H     1.760031200000E-01  1.396648800000E-01  4.943383900000E-01
     17 T   1 H     2.729206400000E-01  4.295637000000E-02  4.941942200000E-01
     18 T   1 H     4.613612200000E-01  4.250715900000E-01  4.942303800000E-01
     19 T   6 C    -2.421438400000E-01  1.778481300000E-01  4.983368800000E-01
     20 T   6 C    -1.867602400000E-01  1.262598300000E-01  4.954190100000E-01
     21 T   6 C    -7.979344000000E-02  3.407951100000E-01  4.951669400000E-01
     22 T   6 C    -1.869329100000E-01  2.868950300000E-01  4.959234100000E-01
     23 T   6 C    -7.943547000000E-02  1.804993400000E-01  4.939781200000E-01
     24 T   6 C    -2.535881000000E-02  2.872191100000E-01  4.959594000000E-01
     25 T   6 C     4.191139000000E-01 -1.617100200000E-01 -4.983490200000E-01
     26 T   6 C     4.714675400000E-01 -2.178922700000E-01 -4.954312000000E-01
     27 T   6 C     2.570205400000E-01 -3.249207000000E-01 -4.951790400000E-01
     28 T   6 C     3.107129000000E-01 -2.175740500000E-01 -4.959354900000E-01
     29 T   6 C     4.176190000000E-01 -3.255998100000E-01 -4.939903300000E-01
     30 T   6 C     3.103629300000E-01 -3.791654500000E-01 -4.959715500000E-01
     31 T   6 C     4.200107200000E-01  1.777789900000E-01  4.983368800000E-01
     32 T   6 C     4.739608500000E-01  2.870999500000E-01  4.954190700000E-01
     33 T   6 C     2.596418300000E-01  1.797818700000E-01  4.951668800000E-01
     34 T   6 C     3.129022600000E-01  1.258928700000E-01  4.959233300000E-01
     35 T   6 C     4.208811300000E-01  3.413473300000E-01  4.939781900000E-01
     36 T   6 C     3.125652800000E-01  2.871417100000E-01  4.959594000000E-01
     37 T   8 O     4.264603100000E-01  1.179059000000E-02  4.992374400000E-01
     38 T   8 O    -4.162708200000E-01  8.445650000000E-03 -4.945306600000E-01
     39 T   8 O    -4.137443500000E-01  1.724487900000E-01  4.960674900000E-01
     40 T   8 O     1.460481300000E-01  4.510710400000E-01  4.992374800000E-01
     41 T   8 O     1.443914500000E-01  2.887629300000E-01 -4.945306600000E-01
     42 T   8 O     3.058400700000E-01  4.527607600000E-01  4.960674700000E-01

 T = ATOM BELONGING TO THE ASYMMETRIC UNIT

 ****    1 SYMMOPS - TRANSLATORS IN FRACTIONAL UNITS
 **** MATRICES AND TRANSLATORS IN THE CRYSTALLOGRAPHIC REFERENCE FRAME
   V INV                    ROTATION MATRICES                   TRANSLATORS
   1   1  1.00  0.00  0.00  0.00  1.00  0.00  0.00 -0.00  1.00  0.00  0.00  0.00

 DIRECT LATTICE VECTORS CARTESIAN COMPONENTS (ANGSTROM)
          X                    Y                    Z
   0.130113578931E+02  -0.751088897922E+01   0.000000000000E+00
   0.000000000000E+00   0.150239160000E+02   0.000000000000E+00
   0.349956599102E+01   0.606240548784E+01   0.340004177335E+01


 CARTESIAN COORDINATES - PRIMITIVE CELL
 *******************************************************************************
 *      ATOM          X(ANGSTROM)         Y(ANGSTROM)         Z(ANGSTROM)
 *******************************************************************************
    1     5 B     9.856815449832E-01  1.705019192595E+00 -5.095306681586E+00
    2     5 B     3.055211732151E+00  2.900068730657E+00 -5.095306613585E+00
    3     5 B    -1.527033827890E+00 -2.552348556988E-01  5.094775459059E+00
    4     5 B    -5.426701761161E-01  1.449870152307E+00 -1.695264874240E+00
    5     5 B     1.527540530196E+00  2.545158968087E-01 -1.695264908240E+00
    6     5 B     1.527283956712E+00  2.645557998393E+00 -1.705308053632E+00
    7     1 H    -4.761103746720E+00 -6.928468883764E-01 -1.716086424056E+00
    8     1 H    -2.242223129727E+00  3.594102983639E+00 -1.719270393175E+00
    9     1 H     2.237088910322E+00  6.925455734566E-01  5.080323139496E+00
   10     1 H    -2.240900477731E+00 -6.940128772557E-01 -1.719638209694E+00
   11     1 H     1.992134266572E+00 -8.337901562674E-01 -5.084038467143E+00
   12     1 H     5.200256139389E-01  5.190414492363E+00 -1.680812520676E+00
   13     1 H    -1.718215903022E+00  1.308721880409E+00 -5.080364007998E+00
   14     1 H     4.233239205803E+00  3.045586318251E+00 -1.680445282164E+00
   15     1 H    -5.200007023948E-01  2.283819190724E+00  5.083997292637E+00
   16     1 H     5.204434112926E-01 -2.289152188497E+00 -1.719270597177E+00
   17     1 H     1.780967417691E+00 -4.470903469083E+00 -1.719760781200E+00
   18     1 H     4.232961789952E+00 -1.451735604579E-01 -1.719637835689E+00
   19     6 C    -4.906223357542E+00  1.449405613386E+00 -1.705675564147E+00
   20     6 C    -4.195818795154E+00  2.406779456326E-01 -1.715596444036E+00
   21     6 C    -2.804917613278E+00  2.658894061576E+00 -1.716453492566E+00
   22     6 C    -4.196300285235E+00  2.658402479604E+00 -1.713881462966E+00
   23     6 C    -2.804420291535E+00  2.407280961204E-01 -1.720495530227E+00
   24     6 C    -2.093875894507E+00  1.449924489258E+00 -1.713759095462E+00
   25     6 C     2.096696777798E-01  3.628809490742E-01 -5.094449259052E+00
   26     6 C     9.010727284640E-01 -8.567298253342E-01 -5.084528549165E+00
   27     6 C    -1.888291487068E+00 -8.524996621722E-01 -5.083671194631E+00
   28     6 C    -1.192328221679E+00  3.524041286858E-01 -5.086243156230E+00
   29     6 C     2.054725221549E-01 -2.061733315033E+00 -5.079629530975E+00
   30     6 C     2.302557990073E+00  3.989483972073E+00 -1.686323988391E+00
   31     6 C     3.709306603138E+00 -3.525002527409E+00 -1.705675564147E+00
   32     6 C     4.401059984300E+00 -2.305475991530E+00 -1.715596240034E+00
   33     6 C     1.611595956244E+00 -2.309616323417E+00 -1.716453696568E+00
   34     6 C     2.307233719206E+00 -3.514687402825E+00 -1.713881734969E+00
   35     6 C     3.705378295872E+00 -1.100527226041E+00 -1.720495292224E+00
   36     6 C     2.302975381169E+00 -1.089348685233E+00 -1.713759095462E+00
   37     8 O    -2.215849814970E+00 -1.449996945661E+00  5.097469924164E+00
   38     8 O     2.364900603323E+00  1.706026796334E+00 -5.081466675546E+00
   39     8 O    -1.477889058006E-01 -2.557042245619E-01  5.086691961744E+00
   40     8 O     1.478330044706E-01  2.644076675590E+00 -1.702613486526E+00
   41     8 O     1.480861533931E-01  2.557964666488E-01 -1.681424902200E+00
   42     8 O     2.215849465049E+00  1.450065479799E+00 -1.713391652948E+00

 *******************************************************************************
 STARTING BASIS SET HANDLING 
 *******************************************************************************

 Loading internal basis set: SOLDEF2MSVP         

 Please cite in your publication:
 L. Dona', J. G. Brandenburg and B. Civalleri, J. Chem. Phys., 151, 121101 (2019
 )                                                                              
                                                                                
                    

 *******************************************************************************
 LOCAL ATOMIC FUNCTIONS BASIS SET
 *******************************************************************************
   ATOM   X(AU)   Y(AU)   Z(AU)  N. TYPE  EXPONENT  S COEF   P COEF   D/F/G COEF
 *******************************************************************************
   1 B    1.863   3.222  -9.629
                                  1 S  
                                         2.410E+03 1.755E-03 0.000E+00 0.000E+00
                                         3.619E+02 1.344E-02 0.000E+00 0.000E+00
                                         8.231E+01 6.637E-02 0.000E+00 0.000E+00
                                         2.311E+01 2.303E-01 0.000E+00 0.000E+00
                                         7.252E+00 5.150E-01 0.000E+00 0.000E+00
                                  2 S  
                                         2.367E+00 1.000E+00 0.000E+00 0.000E+00
                                  3 S  
                                         5.533E-01 1.000E+00 0.000E+00 0.000E+00
                                  4 S  
                                         1.716E-01 1.000E+00 0.000E+00 0.000E+00
                           5-     7 P  
                                         6.002E+00 0.000E+00-3.555E-02 0.000E+00
                                         1.240E+00 0.000E+00-1.983E-01 0.000E+00
                                         3.367E-01 0.000E+00-5.048E-01 0.000E+00
                           8-    10 P  
                                         1.256E-01 0.000E+00 1.000E+00 0.000E+00
                          11-    15 D  
                                         8.880E-01 0.000E+00 0.000E+00 1.000E+00
   2 B    5.774   5.480  -9.629
   3 B   -2.886  -0.482   9.628
   4 B   -1.025   2.740  -3.204
   5 B    2.887   0.481  -3.204
   6 B    2.886   4.999  -3.223
   7 H   -8.997  -1.309  -3.243
                                 91 S  
                                         1.874E+01 1.968E-02 0.000E+00 0.000E+00
                                         2.826E+00 1.380E-01 0.000E+00 0.000E+00
                                         6.401E-01 4.783E-01 0.000E+00 0.000E+00
                                 92 S  
                                         1.756E-01 1.000E+00 0.000E+00 0.000E+00
   8 H   -4.237   6.792  -3.249
   9 H    4.227   1.309   9.600
  10 H   -4.235  -1.311  -3.250
  11 H    3.765  -1.576  -9.607
  12 H    0.983   9.808  -3.176
  13 H   -3.247   2.473  -9.600
  14 H    8.000   5.755  -3.176
  15 H   -0.983   4.316   9.607
  16 H    0.983  -4.326  -3.249
  17 H    3.366  -8.449  -3.250
  18 H    7.999  -0.274  -3.250
  19 C   -9.271   2.739  -3.223
                                115 S  
                                         3.624E+03 1.634E-03 0.000E+00 0.000E+00
                                         5.440E+02 1.252E-02 0.000E+00 0.000E+00
                                         1.237E+02 6.211E-02 0.000E+00 0.000E+00
                                         3.476E+01 2.182E-01 0.000E+00 0.000E+00
                                         1.093E+01 4.980E-01 0.000E+00 0.000E+00
                                116 S  
                                         3.574E+00 1.000E+00 0.000E+00 0.000E+00
                                117 S  
                                         7.742E-01 1.000E+00 0.000E+00 0.000E+00
                                118 S  
                                         2.330E-01 1.000E+00 0.000E+00 0.000E+00
                         119-   121 P  
                                         9.443E+00 0.000E+00 3.790E-02 0.000E+00
                                         2.002E+00 0.000E+00 2.082E-01 0.000E+00
                                         5.463E-01 0.000E+00 5.047E-01 0.000E+00
                         122-   124 P  
                                         1.820E-01 0.000E+00 1.000E+00 0.000E+00
                         125-   129 D  
                                         8.880E-01 0.000E+00 0.000E+00 1.000E+00
  20 C   -7.929   0.455  -3.242
  21 C   -5.301   5.025  -3.244
  22 C   -7.930   5.024  -3.239
  23 C   -5.300   0.455  -3.251
  24 C   -3.957   2.740  -3.239
  25 C    0.396   0.686  -9.627
  26 C    1.703  -1.619  -9.608
  27 C   -3.568  -1.611  -9.607
  28 C   -2.253   0.666  -9.612
  29 C    0.388  -3.896  -9.599
  30 C    4.351   7.539  -3.187
  31 C    7.010  -6.661  -3.223
  32 C    8.317  -4.357  -3.242
  33 C    3.045  -4.365  -3.244
  34 C    4.360  -6.642  -3.239
  35 C    7.002  -2.080  -3.251
  36 C    4.352  -2.059  -3.239
  37 O   -4.187  -2.740   9.633
                                385 S  
                                         6.773E+03 1.727E-03 0.000E+00 0.000E+00
                                         1.017E+03 1.325E-02 0.000E+00 0.000E+00
                                         2.313E+02 6.603E-02 0.000E+00 0.000E+00
                                         6.501E+01 2.353E-01 0.000E+00 0.000E+00
                                         2.050E+01 5.498E-01 0.000E+00 0.000E+00
                                386 S  
                                         6.716E+00 1.000E+00 0.000E+00 0.000E+00
                                387 S  
                                         1.147E+00 1.000E+00 0.000E+00 0.000E+00
                                388 S  
                                         3.342E-01 1.000E+00 0.000E+00 0.000E+00
                         389-   391 P  
                                         1.769E+01 0.000E+00 4.359E-02 0.000E+00
                                         3.854E+00 0.000E+00 2.318E-01 0.000E+00
                                         1.047E+00 0.000E+00 5.146E-01 0.000E+00
                         392-   394 P  
                                         2.759E-01 0.000E+00 1.000E+00 0.000E+00
                         395-   399 D  
                                         8.000E-01 0.000E+00 0.000E+00 1.000E+00
  38 O    4.469   3.224  -9.603
  39 O   -0.279  -0.483   9.612
  40 O    0.279   4.997  -3.217
  41 O    0.280   0.483  -3.177
  42 O    4.187   2.740  -3.238

 *******************************************************************************
 FINISHED BASIS SET HANDLING 
 *******************************************************************************

 INFORMATION **** SET_MPP **** PCRYSTAL CALCULATION
 INFORMATION **** READM2 **** NEW DEFAULT: FOCK/KS MATRIX MIXING SET TO 30 %
 INFORMATION **** READM2 **** NEW DEFAULT: FULL DIRECT SCF MODE
 INFORMATION **** READM2 **** NEW DEFAULT: COULOMB BIPOLAR BUFFER SET TO 32 Mb
 INFORMATION **** READM2 **** NEW DEFAULT: EXCHANGE BIPOLAR BUFFER SET TO 32 Mb

 *******************************************************************************
 NEW DEFAULT: DFT INTEGRATION GRID INCREASED TO XLGRID
 NEW DEFAULT: DIIS ACCELERATOR ACTIVE
 USE KEYWORD NODIIS TO TURN IT OFF
 *******************************************************************************

 WARNING **** RDDFTP **** HSEsol-HJS ACTIVE
 RANGE SEPARATION - OMEGA:   0.110000000000000     
 WARNING **** RDDFTP **** HSEsol-3c has to be combined with sol-def2-mSVP basis set
 *******************************************************************************
 N. OF ATOMS PER CELL        42  COULOMB OVERLAP TOL         (T1) 10**   -6
 NUMBER OF SHELLS           234  COULOMB PENETRATION TOL     (T2) 10**   -6
 NUMBER OF AO               474  EXCHANGE OVERLAP TOL        (T3) 10**   -6
 N. OF ELECTRONS PER CELL   198  EXCHANGE PSEUDO OVP (F(G))  (T4) 10**   -6
 CORE ELECTRONS PER CELL     60  EXCHANGE PSEUDO OVP (P(G))  (T5) 10**  -12
 N. OF SYMMETRY OPERATORS     1  POLE ORDER IN MONO ZONE                  4
 *******************************************************************************
 TYPE OF CALCULATION :  RESTRICTED CLOSED SHELL
 KOHN-SHAM HAMILTONIAN

 (EXCHANGE)[CORRELATION] FUNCTIONAL:(HSEsol GGA)[PBEsol]

 RANGE-SEPARATED HYBRID FUNCTIONAL 
 OMEGA (SHORT-RANGE)[LONG-RANGE]:(    0.1100)[    0.0000]

 HYBRID EXCHANGE - PERCENTAGE OF FOCK EXCHANGE    25.0000

 CAPPA:IS1  2;IS2  2;IS3  8; K PTS MONK NET  20; SYMMOPS:K SPACE   2;G SPACE   1

 *******************************************************************************
 MAX NUMBER OF SCF CYCLES      50  CONVERGENCE ON DELTAP        10**-16
 WEIGHT OF F(I) IN F(I+1)      30% CONVERGENCE ON ENERGY        10**- 6
 SHRINK. FACT.(MONKH.)    2  2  8  NUMBER OF K POINTS IN THE IBZ     20
 SHRINKING FACTOR(GILAT NET)    8  NUMBER OF K POINTS(GILAT NET)   1028
 *******************************************************************************
 *** K POINTS COORDINATES (OBLIQUE COORDINATES IN UNITS OF IS =  2)
   1-R(  0  0  0)   2-R(  1  0  0)   3-R(  0  1  0)   4-R(  1  1  0)
   5-C(  0  0  1)   6-C(  1  0  1)   7-C(  0  1  1)   8-C(  1  1  1)
   9-C(  0  0  2)  10-C(  1  0  2)  11-C(  0  1  2)  12-C(  1  1  2)
  13-C(  0  0  3)  14-C(  1  0  3)  15-C(  0  1  3)  16-C(  1  1  3)
  17-R(  0  0  4)  18-R(  1  0  4)  19-R(  0  1  4)  20-R(  1  1  4)

 DIRECT LATTICE VECTORS COMPON. (A.U.)     RECIP. LATTICE VECTORS COMPON. (A.U.) 
        X            Y            Z              X            Y            Z
   24.5879030  -14.1935232    0.0000000      0.2555397    0.0000000   -0.2630197
    0.0000000   28.3910867    0.0000000      0.1277517    0.2213084   -0.5260925
    6.6132213   11.4562861    6.4251478      0.0000000    0.0000000    0.9779052

 DISK SPACE FOR EIGENVECTORS (FTN 10)     7189632 REALS

 SYMMETRY ADAPTION OF THE BLOCH FUNCTIONS DISABLED
 TTTTTTTTTTTTTTTTTTTTTTTTTTTTTT gordsh1     TELAPSE        0.04 TCPU        0.04

 MATRIX SIZE: P(G)  344508, F(G)   65996, P(G) IRR  173439, F(G) IRR   66512
 MAX G-VECTOR INDEX FOR 1- AND 2-ELECTRON INTEGRALS  47

 TTTTTTTTTTTTTTTTTTTTTTTTTTTTTT INPUT       TELAPSE        0.42 TCPU        0.42

 NEIGHBORS OF THE NON-EQUIVALENT ATOMS

 N = NUMBER OF NEIGHBORS AT DISTANCE R
    ATOM  N     R/ANG      R/AU   NEIGHBORS (ATOM LABELS AND CELL INDICES)
   1 B    1     1.3791     2.6061   37 O    1 2-3
   1 B    1     1.3793     2.6065   38 O    0 0 0
   1 B    1     1.5503     2.9297   25 C    0 0 0
   1 B    1     2.3895     4.5155    3 B    1 2-3
   1 B    1     2.3898     4.5160    2 B    0 0 0
   1 B    1     2.5632     4.8437   26 C    0 0 0

   2 B    1     1.3793     2.6065   39 O    1 2-3
   2 B    1     1.3793     2.6065   38 O    0 0 0
   2 B    1     1.5504     2.9298   19 C    1 1-1
   2 B    1     2.3895     4.5156    3 B    1 2-3
   2 B    1     2.3898     4.5160    1 B    0 0 0
   2 B    1     2.5634     4.8440   22 C    1 1-1

   3 B    1     1.3791     2.6061   37 O    0 0 0
   3 B    1     1.3793     2.6064   39 O    0 0 0
   3 B    1     1.5502     2.9294   31 C   -1-1 2
   3 B    1     2.3895     4.5155    1 B   -1-2 3
   3 B    1     2.3895     4.5156    2 B   -1-2 3
   3 B    1     2.5629     4.8433   32 C   -1-1 2

   4 B    1     1.3795     2.6068   40 O    0 0 0
   4 B    1     1.3795     2.6070   41 O    0 0 0
   4 B    1     1.5513     2.9316   24 C    0 0 0
   4 B    1     2.3905     4.5174    6 B    0 0 0
   4 B    1     2.3905     4.5175    5 B    0 0 0
   4 B    1     2.5648     4.8468   23 C    0 0 0

   5 B    1     1.3795     2.6069   41 O    0 0 0
   5 B    1     1.3797     2.6072   42 O    0 0 0
   5 B    1     1.5516     2.9322   36 C    0 0 0
   5 B    1     2.3905     4.5175    4 B    0 0 0
   5 B    1     2.3911     4.5185    6 B    0 0 0
   5 B    1     2.5651     4.8473   35 C    0 0 0

   6 B    1     1.3795     2.6068   40 O    0 0 0
   6 B    1     1.3796     2.6071   42 O    0 0 0
   6 B    1     1.5516     2.9322   30 C    0 0 0
   6 B    1     2.3905     4.5174    4 B    0 0 0
   6 B    1     2.3911     4.5185    5 B    0 0 0
   6 B    1     2.5651     4.8473   29 C    0 0 1

   7 H    1     1.0913     2.0623   20 C    0 0 0
   7 H    1     2.1472     4.0576   19 C    0 0 0
   7 H    1     2.1680     4.0969   23 C    0 0 0
   7 H    1     2.5202     4.7625   10 H    0 0 0
   7 H    1     2.5676     4.8520   38 O   -1-1 1
   7 H    1     2.7321     5.1630    2 B   -1-1 1

   8 H    1     1.0914     2.0625   21 C    0 0 0
   8 H    1     2.1493     4.0616   24 C    0 0 0
   8 H    1     2.1666     4.0942   22 C    0 0 0
   8 H    1     2.5198     4.7618    9 H    0 1-2
   8 H    1     2.5720     4.8604   40 O    0 0 0
   8 H    1     2.7362     5.1707    4 B    0 0 0

   9 H    1     1.0914     2.0624   22 C    0-1 2
   9 H    1     2.1471     4.0575   19 C    0-1 2
   9 H    1     2.1680     4.0970   21 C    0-1 2
   9 H    1     2.5198     4.7618    8 H    0-1 2
   9 H    1     2.5665     4.8500   39 O    0 0 0
   9 H    1     2.7315     5.1618    2 B   -1-2 3

  10 H    1     1.0915     2.0626   23 C    0 0 0
  10 H    1     2.1490     4.0610   24 C    0 0 0
  10 H    1     2.1669     4.0948   20 C    0 0 0
  10 H    1     2.5202     4.7625    7 H    0 0 0
  10 H    1     2.5712     4.8588   41 O    0 0 0
  10 H    1     2.7351     5.1686    4 B    0 0 0

  11 H    1     1.0913     2.0623   26 C    0 0 0
  11 H    1     2.1469     4.0571   25 C    0 0 0
  11 H    1     2.1680     4.0968   29 C    0 0 0
  11 H    1     2.5198     4.7617   14 H    0 0-1
  11 H    1     2.5670     4.8510   38 O    0 0 0
  11 H    1     2.7310     5.1609    1 B    0 0 0

  12 H    1     1.0914     2.0625   27 C    0 0 1
  12 H    1     2.1493     4.0617   30 C    0 0 0
  12 H    1     2.1664     4.0939   28 C    0 0 1
  12 H    1     2.5192     4.7606   13 H    0 0 1
  12 H    1     2.5735     4.8632   40 O    0 0 0
  12 H    1     2.7371     5.1723    6 B    0 0 0

  13 H    1     1.0914     2.0624   28 C    0 0 0
  13 H    1     2.1475     4.0581   25 C    0 0 0
  13 H    1     2.1679     4.0967   27 C    0 0 0
  13 H    1     2.5192     4.7606   12 H    0 0-1
  13 H    1     2.5675     4.8519   37 O    1 2-3
  13 H    1     2.7328     5.1643    1 B    0 0 0

  14 H    1     1.0914     2.0625   29 C    0 0 1
  14 H    1     2.1491     4.0612   30 C    0 0 0
  14 H    1     2.1666     4.0942   26 C    0 0 1
  14 H    1     2.5198     4.7617   11 H    0 0 1
  14 H    1     2.5723     4.8609   42 O    0 0 0
  14 H    1     2.7355     5.1693    6 B    0 0 0

  15 H    1     1.0914     2.0624   32 C   -1-1 2
  15 H    1     2.1475     4.0582   31 C   -1-1 2
  15 H    1     2.1678     4.0966   35 C   -1-1 2
  15 H    1     2.5200     4.7621   18 H   -1-1 2
  15 H    1     2.5667     4.8503   39 O    0 0 0
  15 H    1     2.7315     5.1618    3 B    0 0 0

  16 H    1     1.0913     2.0623   33 C    0 0 0
  16 H    1     2.1487     4.0605   36 C    0 0 0
  16 H    1     2.1667     4.0945   34 C    0 0 0
  16 H    1     2.5197     4.7616   17 H    0 0 0
  16 H    1     2.5723     4.8610   41 O    0 0 0
  16 H    1     2.7359     5.1701    5 B    0 0 0

  17 H    1     1.0915     2.0626   34 C    0 0 0
  17 H    1     2.1479     4.0589   31 C    0 0 0
  17 H    1     2.1679     4.0968   33 C    0 0 0
  17 H    1     2.5197     4.7616   16 H    0 0 0
  17 H    1     2.5677     4.8522   37 O    1 1-2
  17 H    1     2.7331     5.1648    3 B    1 1-2

  18 H    1     1.0914     2.0624   35 C    0 0 0
  18 H    1     2.1486     4.0602   36 C    0 0 0
  18 H    1     2.1668     4.0947   32 C    0 0 0
  18 H    1     2.5200     4.7621   15 H    1 1-2
  18 H    1     2.5717     4.8598   42 O    0 0 0
  18 H    1     2.7349     5.1682    5 B    0 0 0

  19 C    1     1.4020     2.6495   22 C    0 0 0
  19 C    1     1.4021     2.6495   20 C    0 0 0
  19 C    1     1.5504     2.9298    2 B   -1-1 1
  19 C    1     2.1471     4.0575    9 H    0 1-2
  19 C    1     2.1472     4.0576    7 H    0 0 0
  19 C    1     2.4246     4.5817   21 C    0 0 0

  20 C    1     1.0913     2.0623    7 H    0 0 0
  20 C    1     1.3914     2.6294   23 C    0 0 0
  20 C    1     1.4021     2.6495   19 C    0 0 0
  20 C    1     2.1669     4.0948   10 H    0 0 0
  20 C    1     2.4177     4.5688   22 C    0 0 0
  20 C    1     2.4250     4.5825   24 C    0 0 0

  21 C    1     1.0914     2.0625    8 H    0 0 0
  21 C    1     1.3914     2.6293   22 C    0 0 0
  21 C    1     1.4026     2.6505   24 C    0 0 0
  21 C    1     2.1680     4.0970    9 H    0 1-2
  21 C    1     2.4182     4.5697   23 C    0 0 0
  21 C    1     2.4246     4.5817   19 C    0 0 0

  22 C    1     1.0914     2.0624    9 H    0 1-2
  22 C    1     1.3914     2.6293   21 C    0 0 0
  22 C    1     1.4020     2.6495   19 C    0 0 0
  22 C    1     2.1666     4.0942    8 H    0 0 0
  22 C    1     2.4177     4.5688   20 C    0 0 0
  22 C    1     2.4250     4.5826   24 C    0 0 0

  23 C    1     1.0915     2.0626   10 H    0 0 0
  23 C    1     1.3914     2.6294   20 C    0 0 0
  23 C    1     1.4025     2.6504   24 C    0 0 0
  23 C    1     2.1680     4.0969    7 H    0 0 0
  23 C    1     2.4182     4.5697   21 C    0 0 0
  23 C    1     2.4246     4.5818   19 C    0 0 0

  24 C    1     1.4025     2.6504   23 C    0 0 0
  24 C    1     1.4026     2.6505   21 C    0 0 0
  24 C    1     1.5513     2.9316    4 B    0 0 0
  24 C    1     2.1490     4.0610   10 H    0 0 0
  24 C    1     2.1493     4.0616    8 H    0 0 0
  24 C    1     2.4250     4.5825   20 C    0 0 0

  25 C    1     1.4020     2.6494   26 C    0 0 0
  25 C    1     1.4021     2.6495   28 C    0 0 0
  25 C    1     1.5503     2.9297    1 B    0 0 0
  25 C    1     2.1469     4.0571   11 H    0 0 0
  25 C    1     2.1475     4.0581   13 H    0 0 0
  25 C    1     2.4246     4.5818   27 C    0 0 0

  26 C    1     1.0913     2.0623   11 H    0 0 0
  26 C    1     1.3914     2.6293   29 C    0 0 0
  26 C    1     1.4020     2.6494   25 C    0 0 0
  26 C    1     2.1666     4.0942   14 H    0 0-1
  26 C    1     2.4175     4.5684   28 C    0 0 0
  26 C    1     2.4251     4.5828   30 C    0 0-1

  27 C    1     1.0914     2.0625   12 H    0 0-1
  27 C    1     1.3915     2.6295   28 C    0 0 0
  27 C    1     1.4026     2.6505   30 C    0 0-1
  27 C    1     2.1679     4.0967   13 H    0 0 0
  27 C    1     2.4179     4.5691   29 C    0 0 0
  27 C    1     2.4246     4.5818   25 C    0 0 0

  28 C    1     1.0914     2.0624   13 H    0 0 0
  28 C    1     1.3915     2.6295   27 C    0 0 0
  28 C    1     1.4021     2.6495   25 C    0 0 0
  28 C    1     2.1664     4.0939   12 H    0 0-1
  28 C    1     2.4175     4.5684   26 C    0 0 0
  28 C    1     2.4253     4.5832   30 C    0 0-1

  29 C    1     1.0914     2.0625   14 H    0 0-1
  29 C    1     1.3914     2.6293   26 C    0 0 0
  29 C    1     1.4025     2.6504   30 C    0 0-1
  29 C    1     2.1680     4.0968   11 H    0 0 0
  29 C    1     2.4179     4.5691   27 C    0 0 0
  29 C    1     2.4247     4.5819   25 C    0 0 0

  30 C    1     1.4025     2.6504   29 C    0 0 1
  30 C    1     1.4026     2.6505   27 C    0 0 1
  30 C    1     1.5516     2.9322    6 B    0 0 0
  30 C    1     2.1491     4.0612   14 H    0 0 0
  30 C    1     2.1493     4.0617   12 H    0 0 0
  30 C    1     2.4251     4.5828   26 C    0 0 1

  31 C    1     1.4021     2.6496   32 C    0 0 0
  31 C    1     1.4021     2.6497   34 C    0 0 0
  31 C    1     1.5502     2.9294    3 B    1 1-2
  31 C    1     2.1475     4.0582   15 H    1 1-2
  31 C    1     2.1479     4.0589   17 H    0 0 0
  31 C    1     2.4244     4.5814   33 C    0 0 0

  32 C    1     1.0914     2.0624   15 H    1 1-2
  32 C    1     1.3914     2.6293   35 C    0 0 0
  32 C    1     1.4021     2.6496   31 C    0 0 0
  32 C    1     2.1668     4.0947   18 H    0 0 0
  32 C    1     2.4179     4.5692   34 C    0 0 0
  32 C    1     2.4251     4.5827   36 C    0 0 0

  33 C    1     1.0913     2.0623   16 H    0 0 0
  33 C    1     1.3914     2.6294   34 C    0 0 0
  33 C    1     1.4025     2.6504   36 C    0 0 0
  33 C    1     2.1679     4.0968   17 H    0 0 0
  33 C    1     2.4178     4.5690   35 C    0 0 0
  33 C    1     2.4244     4.5814   31 C    0 0 0

  34 C    1     1.0915     2.0626   17 H    0 0 0
  34 C    1     1.3914     2.6294   33 C    0 0 0
  34 C    1     1.4021     2.6497   31 C    0 0 0
  34 C    1     2.1667     4.0945   16 H    0 0 0
  34 C    1     2.4179     4.5692   32 C    0 0 0
  34 C    1     2.4253     4.5832   36 C    0 0 0

  35 C    1     1.0914     2.0624   18 H    0 0 0
  35 C    1     1.3914     2.6293   32 C    0 0 0
  35 C    1     1.4025     2.6503   36 C    0 0 0
  35 C    1     2.1678     4.0966   15 H    1 1-2
  35 C    1     2.4178     4.5690   33 C    0 0 0
  35 C    1     2.4245     4.5817   31 C    0 0 0

  36 C    1     1.4025     2.6503   35 C    0 0 0
  36 C    1     1.4025     2.6504   33 C    0 0 0
  36 C    1     1.5516     2.9322    5 B    0 0 0
  36 C    1     2.1486     4.0602   18 H    0 0 0
  36 C    1     2.1487     4.0605   16 H    0 0 0
  36 C    1     2.4251     4.5827   32 C    0 0 0

  37 O    1     1.3791     2.6061    1 B   -1-2 3
  37 O    1     1.3791     2.6061    3 B    0 0 0
  37 O    1     2.3880     4.5126   38 O   -1-2 3
  37 O    1     2.3882     4.5130   39 O    0 0 0
  37 O    1     2.5383     4.7966   31 C   -1-1 2
  37 O    1     2.5384     4.7968   25 C   -1-2 3

  38 O    1     1.3793     2.6065    1 B    0 0 0
  38 O    1     1.3793     2.6065    2 B    0 0 0
  38 O    1     2.3880     4.5126   37 O    1 2-3
  38 O    1     2.3882     4.5131   39 O    1 2-3
  38 O    1     2.5391     4.7981   19 C    1 1-1
  38 O    1     2.5395     4.7990   25 C    0 0 0

  39 O    1     1.3793     2.6064    3 B    0 0 0
  39 O    1     1.3793     2.6065    2 B   -1-2 3
  39 O    1     2.3882     4.5130   37 O    0 0 0
  39 O    1     2.3882     4.5131   38 O   -1-2 3
  39 O    1     2.5390     4.7980   19 C    0-1 2
  39 O    1     2.5391     4.7982   31 C   -1-1 2

  40 O    1     1.3795     2.6068    6 B    0 0 0
  40 O    1     1.3795     2.6068    4 B    0 0 0
  40 O    1     2.3880     4.5126   42 O    0 0 0
  40 O    1     2.3884     4.5134   41 O    0 0 0
  40 O    1     2.5400     4.7998   24 C    0 0 0
  40 O    1     2.5403     4.8005   30 C    0 0 0

  41 O    1     1.3795     2.6069    5 B    0 0 0
  41 O    1     1.3795     2.6070    4 B    0 0 0
  41 O    1     2.3881     4.5128   42 O    0 0 0
  41 O    1     2.3884     4.5134   40 O    0 0 0
  41 O    1     2.5404     4.8006   24 C    0 0 0
  41 O    1     2.5405     4.8008   36 C    0 0 0

  42 O    1     1.3796     2.6071    6 B    0 0 0
  42 O    1     1.3797     2.6072    5 B    0 0 0
  42 O    1     2.3880     4.5126   40 O    0 0 0
  42 O    1     2.3881     4.5128   41 O    0 0 0
  42 O    1     2.5409     4.8016   36 C    0 0 0
  42 O    1     2.5410     4.8019   30 C    0 0 0


 SYMMETRY ALLOWED INTERNAL DEGREE(S) OF FREEDOM: 123
 TTTTTTTTTTTTTTTTTTTTTTTTTTTTTT SYMM        TELAPSE        0.43 TCPU        0.42
 TTTTTTTTTTTTTTTTTTTTTTTTTTTTTT INT_SCREEN  TELAPSE        0.46 TCPU        0.46

 DFT PARAMETERS

     ATOM       ELECTRONS   NET CHARGE   R(ANGSTROM)
   1   5  B       5.0000      0.0000     0.89000000
   7   1  H       1.0000      0.0000     1.11000000
  19   6  C       6.0000      0.0000     0.77000000
  37   8  O       8.0000      0.0000     0.74000000

 SIZE OF GRID=    1283852
 TTTTTTTTTTTTTTTTTTTTTTTTTTTTTT MAKE_GRID2  TELAPSE        9.81 TCPU        9.80
 BECKE WEIGHT FUNCTION
 RADSAFE =     2.00
 TOLERANCES - DENSITY:10**- 6; POTENTIAL:10**- 9; GRID WGT:10**-14

 RADIAL INTEGRATION  - INTERVALS (POINTS,UPPER LIMIT):            1( 75,  4.0*R)

 ANGULAR INTEGRATION - INTERVALS (ACCURACY LEVEL [N. POINTS] UPPER LIMIT):
  1(  4[  86]   0.2)  2(  8[ 194]   0.5)  3( 12[ 350]   0.9)  4( 16[ 974]   3.5)
  5( 12[ 350]9999.0)
 TTTTTTTTTTTTTTTTTTTTTTTTTTTTTT INT_CALC    TELAPSE        9.89 TCPU        9.88
 EEEEEEEEEE INT_CALC TERMINATION  DATE 19 02 2026 TIME 18:19:23.6

 *******************************************************************************
 cof-1_z34_L070_incl                                                             
 CRYSTAL - SCF - TYPE OF CALCULATION :  RESTRICTED CLOSED SHELL
 *******************************************************************************

 CAPPA:IS1  2;IS2  2;IS3  8; K PTS MONK NET  20; SYMMOPS:K SPACE   2;G SPACE   1

 TTTTTTTTTTTTTTTTTTTTTTTTTTTTTT SDIK        TELAPSE       10.53 TCPU       15.76

 AAAAAAAAAAAAAAAAAAAAAAAAAAAAAAAAAAAAAAAAAAAAAAAAAAAAAAAAAAAAAAAAAAAAAAAAAAAAAAA
         ATOMIC WAVEFUNCTION(S)


 NUCLEAR CHARGE  5.0  SYMMETRY SPECIES            S    P
 N. ELECTRONS    5.0  NUMBER OF PRIMITIVE GTOS    8    4
                      NUMBER OF CONTRACTED GTOS   4    2
                      NUMBER OF CLOSED SHELLS     2    0
                      OPEN SHELL OCCUPATION       0    1

  ZNUC  SCFIT    TOTAL HF ENERGY   KINETIC ENERGY   VIRIAL THEOREM ACCURACY
   5.0    11    -2.451164084E+01  2.462155050E+01 -1.995536038E+00  1.5E-06

 NUCLEAR CHARGE  1.0  SYMMETRY SPECIES            S
 N. ELECTRONS    1.0  NUMBER OF PRIMITIVE GTOS    4
                      NUMBER OF CONTRACTED GTOS   2
                      NUMBER OF CLOSED SHELLS     0
                      OPEN SHELL OCCUPATION       1

  ZNUC  SCFIT    TOTAL HF ENERGY   KINETIC ENERGY   VIRIAL THEOREM ACCURACY
   1.0     1    -4.977266687E-01  5.190767460E-01 -1.958869132E+00  0.0E+00

 NUCLEAR CHARGE  6.0  SYMMETRY SPECIES            S    P
 N. ELECTRONS    6.0  NUMBER OF PRIMITIVE GTOS    8    4
                      NUMBER OF CONTRACTED GTOS   4    2
                      NUMBER OF CLOSED SHELLS     2    0
                      OPEN SHELL OCCUPATION       0    2

  ZNUC  SCFIT    TOTAL HF ENERGY   KINETIC ENERGY   VIRIAL THEOREM ACCURACY
   6.0     9    -3.766704647E+01  3.775180683E+01 -1.997754800E+00  1.1E-06

 NUCLEAR CHARGE  8.0  SYMMETRY SPECIES            S    P
 N. ELECTRONS    8.0  NUMBER OF PRIMITIVE GTOS    8    4
                      NUMBER OF CONTRACTED GTOS   4    2
                      NUMBER OF CLOSED SHELLS     2    0
                      OPEN SHELL OCCUPATION       0    4

  ZNUC  SCFIT    TOTAL HF ENERGY   KINETIC ENERGY   VIRIAL THEOREM ACCURACY
   8.0    12    -7.477373220E+01  7.477365593E+01 -2.000001020E+00  3.8E-06

 AAAAAAAAAAAAAAAAAAAAAAAAAAAAAAAAAAAAAAAAAAAAAAAAAAAAAAAAAAAAAAAAAAAAAAAAAAAAAAA

 CHARGE NORMALIZATION FACTOR   1.00000000
 TOTAL ATOMIC CHARGES:
   5.0000000   5.0000000   5.0000000   5.0000000   5.0000000   5.0000000
   1.0000000   1.0000000   1.0000000   1.0000000   1.0000000   1.0000000
   1.0000000   1.0000000   1.0000000   1.0000000   1.0000000   1.0000000
   6.0000000   6.0000000   6.0000000   6.0000000   6.0000000   6.0000000
   6.0000000   6.0000000   6.0000000   6.0000000   6.0000000   6.0000000
   6.0000000   6.0000000   6.0000000   6.0000000   6.0000000   6.0000000
   8.0000000   8.0000000   8.0000000   8.0000000   8.0000000   8.0000000
 TTTTTTTTTTTTTTTTTTTTTTTTTTTTTT MOQGAD      TELAPSE       10.57 TCPU       16.65
 TTTTTTTTTTTTTTTTTTTTTTTTTTTTTT SHELLXN     TELAPSE       22.09 TCPU      281.56
 TTTTTTTTTTTTTTTTTTTTTTTTTTTTTT MONMO3      TELAPSE       22.27 TCPU      286.24
 NUMERICALLY INTEGRATED DENSITY    197.9999408074
 TTTTTTTTTTTTTTTTTTTTTTTTTTTTTT NUMDFT      TELAPSE       23.11 TCPU      308.09
 CYC   0 ETOT(AU) -1.295970833692E+03 DETOT -1.30E+03 tst  0.00E+00 PX  1.00E+00
 TTTTTTTTTTTTTTTTTTTTTTTTTTTTTT DIIS        TELAPSE       23.15 TCPU      309.18
 TTTTTTTTTTTTTTTTTTTTTTTTTTTTTT FDIK        TELAPSE       24.53 TCPU      348.54
 INSULATING STATE
 TOP OF VALENCE BANDS -    BAND     99; K    1; EIG -3.0548416E-01 AU
 BOTTOM OF VIRTUAL BANDS - BAND    100; K   17; EIG -1.6065646E-01 AU
 INDIRECT ENERGY BAND GAP:   3.9410 eV
 BOTTOM OF VIRTUAL BANDS - BAND    100; K    1; EIG -1.5888921E-01 AU
 TTTTTTTTTTTTTTTTTTTTTTTTTTTTTT PDIG        TELAPSE       24.88 TCPU      354.36
 CHARGE NORMALIZATION FACTOR   1.00000000
 TOTAL ATOMIC CHARGES:
   4.1375143   4.1582034   4.1587750   4.1580746   4.1577767   4.1356756
   0.7854917   0.7856282   0.7852734   0.7854142   0.7860205   0.7862523
   0.7860007   0.7861737   0.7852723   0.7854872   0.7854354   0.7856185
   6.0443450   6.2679558   6.2679143   6.2663329   6.2663196   6.0439259
   6.0481168   6.2659266   6.2662893   6.2658646   6.2662393   6.0469153
   6.0447992   6.2660277   6.2666808   6.2675292   6.2682109   6.0434997
   8.6979830   8.6982453   8.6995191   8.6985066   8.6999732   8.6987921
 TTTTTTTTTTTTTTTTTTTTTTTTTTTTTT MOQGAD      TELAPSE       24.93 TCPU      354.40
 TTTTTTTTTTTTTTTTTTTTTTTTTTTTTT SHELLXN     TELAPSE       33.63 TCPU      631.29
 TTTTTTTTTTTTTTTTTTTTTTTTTTTTTT MONMO3      TELAPSE       33.78 TCPU      636.16
 NUMERICALLY INTEGRATED DENSITY    197.9999588224
 TTTTTTTTTTTTTTTTTTTTTTTTTTTTTT NUMDFT      TELAPSE       34.48 TCPU      658.52
 CYC   1 ETOT(AU) -1.288819495839E+03 DETOT  7.15E+00 tst  0.00E+00 PX  1.00E+00
 TTTTTTTTTTTTTTTTTTTTTTTTTTTTTT DIIS        TELAPSE       34.53 TCPU      660.12
 DIIS TEST: 0.11107E+01 AT SCF   CYCLE   1 - MIX   30 %
 TTTTTTTTTTTTTTTTTTTTTTTTTTTTTT FDIK        TELAPSE       35.07 TCPU      677.37
 INSULATING STATE
 TOP OF VALENCE BANDS -    BAND     99; K    1; EIG -2.1598358E-01 AU
 BOTTOM OF VIRTUAL BANDS - BAND    100; K    1; EIG -8.6113287E-02 AU
 DIRECT ENERGY BAND GAP:   3.5340 eV
 TTTTTTTTTTTTTTTTTTTTTTTTTTTTTT PDIG        TELAPSE       35.43 TCPU      683.56
 CHARGE NORMALIZATION FACTOR   1.00000000
 TOTAL ATOMIC CHARGES:
   4.7035348   4.6975027   4.6983221   4.6976165   4.6970677   4.7031828
   0.9072802   0.9074250   0.9087497   0.9084862   0.9016305   0.9019762
   0.9017056   0.9018046   0.9086345   0.9085540   0.9073812   0.9073948
   5.8688482   6.1488994   6.1494107   6.1299561   6.1299479   5.8717137
   5.9007243   6.1243565   6.1263748   6.1249259   6.1265772   5.9041830
   5.8688988   6.1299414   6.1301570   6.1493155   6.1487566   5.8715001
   8.3416527   8.3419652   8.3303263   8.3418159   8.3294800   8.3420239
 TTTTTTTTTTTTTTTTTTTTTTTTTTTTTT MOQGAD      TELAPSE       35.47 TCPU      683.61
 TTTTTTTTTTTTTTTTTTTTTTTTTTTTTT SHELLXN     TELAPSE       44.37 TCPU      967.20
 TTTTTTTTTTTTTTTTTTTTTTTTTTTTTT MONMO3      TELAPSE       44.52 TCPU      971.99
 NUMERICALLY INTEGRATED DENSITY    197.9999512946
 TTTTTTTTTTTTTTTTTTTTTTTTTTTTTT NUMDFT      TELAPSE       45.22 TCPU      994.58
 CYC   2 ETOT(AU) -1.289012010091E+03 DETOT -1.93E-01 tst  3.26E-03 PX  1.60E-01
 TTTTTTTTTTTTTTTTTTTTTTTTTTTTTT DIIS        TELAPSE       45.28 TCPU      996.46
 DIIS TEST: 0.46536E+00 AT SCF   CYCLE   2 - DIIS ACTIVE - HISTORY:     2 CYCLES
 TTTTTTTTTTTTTTTTTTTTTTTTTTTTTT FDIK        TELAPSE       45.84 TCPU     1014.21
 INSULATING STATE
 TOP OF VALENCE BANDS -    BAND     99; K    1; EIG -2.2909966E-01 AU
 BOTTOM OF VIRTUAL BANDS - BAND    100; K   17; EIG -8.0911847E-02 AU
 INDIRECT ENERGY BAND GAP:   4.0324 eV
 BOTTOM OF VIRTUAL BANDS - BAND    100; K    1; EIG -7.9421179E-02 AU
 TTTTTTTTTTTTTTTTTTTTTTTTTTTTTT PDIG        TELAPSE       46.20 TCPU     1020.42
 CHARGE NORMALIZATION FACTOR   1.00000000
 TOTAL ATOMIC CHARGES:
   4.4855634   4.4935615   4.4941822   4.4936831   4.4931723   4.4847536
   0.8862156   0.8865053   0.8874172   0.8872162   0.8803299   0.8810011
   0.8804255   0.8808377   0.8872931   0.8873034   0.8863858   0.8863565
   5.8943189   6.1644511   6.1639994   6.1628669   6.1630355   5.8948131
   5.8949230   6.1670111   6.1668812   6.1669722   6.1671437   5.8930019
   5.8942927   6.1628870   6.1631586   6.1640297   6.1642346   5.8948542
   8.5136417   8.5140726   8.5193239   8.5139116   8.5196978   8.5142743
 TTTTTTTTTTTTTTTTTTTTTTTTTTTTTT MOQGAD      TELAPSE       46.24 TCPU     1020.46
 TTTTTTTTTTTTTTTTTTTTTTTTTTTTTT SHELLXN     TELAPSE       54.95 TCPU     1298.15
 TTTTTTTTTTTTTTTTTTTTTTTTTTTTTT MONMO3      TELAPSE       55.10 TCPU     1302.92
 NUMERICALLY INTEGRATED DENSITY    197.9999514467
 TTTTTTTTTTTTTTTTTTTTTTTTTTTTTT NUMDFT      TELAPSE       55.81 TCPU     1325.42
 CYC   3 ETOT(AU) -1.289107535140E+03 DETOT -9.55E-02 tst  7.38E-04 PX  6.66E-02
 TTTTTTTTTTTTTTTTTTTTTTTTTTTTTT DIIS        TELAPSE       55.88 TCPU     1327.64
 DIIS TEST: 0.13888E-01 AT SCF   CYCLE   3 - DIIS ACTIVE - HISTORY:     3 CYCLES
 TTTTTTTTTTTTTTTTTTTTTTTTTTTTTT FDIK        TELAPSE       56.42 TCPU     1344.97
 INSULATING STATE
 TOP OF VALENCE BANDS -    BAND     99; K    1; EIG -2.3845588E-01 AU
 BOTTOM OF VIRTUAL BANDS - BAND    100; K   17; EIG -8.8741374E-02 AU
 INDIRECT ENERGY BAND GAP:   4.0739 eV
 BOTTOM OF VIRTUAL BANDS - BAND    100; K    1; EIG -8.8327196E-02 AU
 TTTTTTTTTTTTTTTTTTTTTTTTTTTTTT PDIG        TELAPSE       56.76 TCPU     1351.17
 CHARGE NORMALIZATION FACTOR   1.00000000
 TOTAL ATOMIC CHARGES:
   4.4924271   4.4982261   4.4988950   4.4982100   4.4976292   4.4917007
   0.8689941   0.8691509   0.8709950   0.8709084   0.8646486   0.8649580
   0.8647053   0.8648273   0.8709221   0.8709760   0.8690716   0.8691113
   5.9398698   6.1765187   6.1769748   6.1643950   6.1643967   5.9415049
   5.9598261   6.1626875   6.1644439   6.1630919   6.1644742   5.9618058
   5.9402482   6.1642461   6.1646747   6.1767387   6.1765709   5.9410702
   8.4862502   8.4864735   8.4773087   8.4865444   8.4768218   8.4867066
 TTTTTTTTTTTTTTTTTTTTTTTTTTTTTT MOQGAD      TELAPSE       56.81 TCPU     1351.22
 TTTTTTTTTTTTTTTTTTTTTTTTTTTTTT SHELLXN     TELAPSE       65.54 TCPU     1629.31
 TTTTTTTTTTTTTTTTTTTTTTTTTTTTTT MONMO3      TELAPSE       65.69 TCPU     1634.18
 NUMERICALLY INTEGRATED DENSITY    197.9999521890
 TTTTTTTTTTTTTTTTTTTTTTTTTTTTTT NUMDFT      TELAPSE       66.40 TCPU     1656.85
 CYC   4 ETOT(AU) -1.289110456082E+03 DETOT -2.92E-03 tst  4.02E-05 PX  1.47E-02
 TTTTTTTTTTTTTTTTTTTTTTTTTTTTTT DIIS        TELAPSE       66.47 TCPU     1659.03
 DIIS TEST: 0.39184E-02 AT SCF   CYCLE   4 - DIIS ACTIVE - HISTORY:     4 CYCLES
 TTTTTTTTTTTTTTTTTTTTTTTTTTTTTT FDIK        TELAPSE       67.02 TCPU     1676.63
 INSULATING STATE
 TOP OF VALENCE BANDS -    BAND     99; K    1; EIG -2.3692664E-01 AU
 BOTTOM OF VIRTUAL BANDS - BAND    100; K   17; EIG -8.8639729E-02 AU
 INDIRECT ENERGY BAND GAP:   4.0351 eV
 BOTTOM OF VIRTUAL BANDS - BAND    100; K    1; EIG -8.8038611E-02 AU
 TTTTTTTTTTTTTTTTTTTTTTTTTTTTTT PDIG        TELAPSE       67.37 TCPU     1682.82
 CHARGE NORMALIZATION FACTOR   1.00000000
 TOTAL ATOMIC CHARGES:
   4.4967857   4.5001712   4.5008615   4.5003096   4.4997522   4.4961409
   0.8721030   0.8723516   0.8736292   0.8734694   0.8666298   0.8672038
   0.8667206   0.8670448   0.8735246   0.8735514   0.8722514   0.8722414
   5.9228523   6.1745358   6.1742990   6.1666587   6.1667204   5.9237826
   5.9355739   6.1675059   6.1678458   6.1675631   6.1681610   5.9347421
   5.9227949   6.1666270   6.1669026   6.1742644   6.1743720   5.9237850
   8.4925939   8.4930069   8.4923243   8.4928144   8.4923699   8.4931617
 TTTTTTTTTTTTTTTTTTTTTTTTTTTTTT MOQGAD      TELAPSE       67.42 TCPU     1682.87
 TTTTTTTTTTTTTTTTTTTTTTTTTTTTTT SHELLXN     TELAPSE       76.29 TCPU     1965.62
 TTTTTTTTTTTTTTTTTTTTTTTTTTTTTT MONMO3      TELAPSE       76.44 TCPU     1970.44
 NUMERICALLY INTEGRATED DENSITY    197.9999521146
 TTTTTTTTTTTTTTTTTTTTTTTTTTTTTT NUMDFT      TELAPSE       77.15 TCPU     1993.11
 CYC   5 ETOT(AU) -1.289111351700E+03 DETOT -8.96E-04 tst  7.14E-06 PX  7.08E-03
 TTTTTTTTTTTTTTTTTTTTTTTTTTTTTT DIIS        TELAPSE       77.23 TCPU     1995.51
 DIIS TEST: 0.78053E-04 AT SCF   CYCLE   5 - DIIS ACTIVE - HISTORY:     5 CYCLES
 TTTTTTTTTTTTTTTTTTTTTTTTTTTTTT FDIK        TELAPSE       77.78 TCPU     2013.19
 INSULATING STATE
 TOP OF VALENCE BANDS -    BAND     99; K    1; EIG -2.3672017E-01 AU
 BOTTOM OF VIRTUAL BANDS - BAND    100; K   17; EIG -8.8224173E-02 AU
 INDIRECT ENERGY BAND GAP:   4.0408 eV
 BOTTOM OF VIRTUAL BANDS - BAND    100; K    1; EIG -8.7442689E-02 AU
 TTTTTTTTTTTTTTTTTTTTTTTTTTTTTT PDIG        TELAPSE       78.13 TCPU     2019.38
 CHARGE NORMALIZATION FACTOR   1.00000000
 TOTAL ATOMIC CHARGES:
   4.4951258   4.5005385   4.5012063   4.5005472   4.4999997   4.4943645
   0.8729722   0.8731558   0.8744617   0.8743268   0.8677944   0.8681727
   0.8678446   0.8680542   0.8743642   0.8744009   0.8730627   0.8731014
   5.9228280   6.1742645   6.1745320   6.1656932   6.1658063   5.9241769
   5.9345105   6.1661704   6.1676959   6.1665582   6.1676748   5.9356762
   5.9232006   6.1656229   6.1660195   6.1743796   6.1742276   5.9237589
   8.4936446   8.4938807   8.4891727   8.4939652   8.4889090   8.4941382
 TTTTTTTTTTTTTTTTTTTTTTTTTTTTTT MOQGAD      TELAPSE       78.18 TCPU     2019.43
 TTTTTTTTTTTTTTTTTTTTTTTTTTTTTT SHELLXN     TELAPSE       86.87 TCPU     2296.51
 TTTTTTTTTTTTTTTTTTTTTTTTTTTTTT MONMO3      TELAPSE       87.02 TCPU     2301.29
 NUMERICALLY INTEGRATED DENSITY    197.9999520783
 TTTTTTTTTTTTTTTTTTTTTTTTTTTTTT NUMDFT      TELAPSE       87.72 TCPU     2323.59
 CYC   6 ETOT(AU) -1.289111369987E+03 DETOT -1.83E-05 tst  2.00E-07 PX  1.67E-03
 TTTTTTTTTTTTTTTTTTTTTTTTTTTTTT DIIS        TELAPSE       87.80 TCPU     2326.24
 DIIS TEST: 0.17683E-04 AT SCF   CYCLE   6 - DIIS ACTIVE - HISTORY:     6 CYCLES
 TTTTTTTTTTTTTTTTTTTTTTTTTTTTTT FDIK        TELAPSE       88.35 TCPU     2343.66
 INSULATING STATE
 TOP OF VALENCE BANDS -    BAND     99; K    1; EIG -2.3674772E-01 AU
 BOTTOM OF VIRTUAL BANDS - BAND    100; K   17; EIG -8.8246580E-02 AU
 INDIRECT ENERGY BAND GAP:   4.0409 eV
 BOTTOM OF VIRTUAL BANDS - BAND    100; K    1; EIG -8.7545759E-02 AU
 TTTTTTTTTTTTTTTTTTTTTTTTTTTTTT PDIG        TELAPSE       88.70 TCPU     2349.85
 CHARGE NORMALIZATION FACTOR   1.00000000
 TOTAL ATOMIC CHARGES:
   4.4958933   4.5003014   4.5009770   4.5004132   4.4998593   4.4952094
   0.8729462   0.8731708   0.8744853   0.8743347   0.8675854   0.8681239
   0.8676743   0.8679656   0.8743873   0.8744096   0.8730831   0.8730710
   5.9230699   6.1740007   6.1739085   6.1658246   6.1658742   5.9241217
   5.9359127   6.1665186   6.1670599   6.1666040   6.1673454   5.9355716
   5.9230760   6.1657546   6.1660914   6.1738068   6.1739087   5.9240678
   8.4926973   8.4930824   8.4908326   8.4929342   8.4907901   8.4932555
 TTTTTTTTTTTTTTTTTTTTTTTTTTTTTT MOQGAD      TELAPSE       88.74 TCPU     2349.90
 TTTTTTTTTTTTTTTTTTTTTTTTTTTTTT SHELLXN     TELAPSE       97.45 TCPU     2627.54
 TTTTTTTTTTTTTTTTTTTTTTTTTTTTTT MONMO3      TELAPSE       97.60 TCPU     2632.40
 NUMERICALLY INTEGRATED DENSITY    197.9999520773
 TTTTTTTTTTTTTTTTTTTTTTTTTTTTTT NUMDFT      TELAPSE       98.31 TCPU     2655.07
 CYC   7 ETOT(AU) -1.289111373509E+03 DETOT -3.52E-06 tst  4.35E-08 PX  7.02E-04
 TTTTTTTTTTTTTTTTTTTTTTTTTTTTTT DIIS        TELAPSE       98.40 TCPU     2657.87
 DIIS TEST: 0.13158E-05 AT SCF   CYCLE   7 - DIIS ACTIVE - HISTORY:     7 CYCLES
 TTTTTTTTTTTTTTTTTTTTTTTTTTTTTT FDIK        TELAPSE       98.96 TCPU     2675.65
 INSULATING STATE
 TOP OF VALENCE BANDS -    BAND     99; K    1; EIG -2.3674811E-01 AU
 BOTTOM OF VIRTUAL BANDS - BAND    100; K   17; EIG -8.8265124E-02 AU
 INDIRECT ENERGY BAND GAP:   4.0404 eV
 BOTTOM OF VIRTUAL BANDS - BAND    100; K    1; EIG -8.7566194E-02 AU
 TTTTTTTTTTTTTTTTTTTTTTTTTTTTTT PDIG        TELAPSE       99.30 TCPU     2681.84
 CHARGE NORMALIZATION FACTOR   1.00000000
 TOTAL ATOMIC CHARGES:
   4.4959421   4.5004011   4.5010775   4.5004723   4.4999186   4.4952402
   0.8729125   0.8731292   0.8744502   0.8743010   0.8675982   0.8680686
   0.8676657   0.8679323   0.8743476   0.8743810   0.8730316   0.8730473
   5.9229406   6.1740745   6.1740936   6.1657515   6.1658450   5.9240922
   5.9354286   6.1663338   6.1673047   6.1665817   6.1674280   5.9356341
   5.9231241   6.1657098   6.1660327   6.1740076   6.1739669   5.9238606
   8.4929469   8.4932634   8.4905458   8.4932181   8.4904286   8.4934702
 TTTTTTTTTTTTTTTTTTTTTTTTTTTTTT MOQGAD      TELAPSE       99.35 TCPU     2681.89
 TTTTTTTTTTTTTTTTTTTTTTTTTTTTTT SHELLXN     TELAPSE      108.20 TCPU     2964.00
 TTTTTTTTTTTTTTTTTTTTTTTTTTTTTT MONMO3      TELAPSE      108.35 TCPU     2968.81
 NUMERICALLY INTEGRATED DENSITY    197.9999520739
 TTTTTTTTTTTTTTTTTTTTTTTTTTTTTT NUMDFT      TELAPSE      109.06 TCPU     2991.43
 CYC   8 ETOT(AU) -1.289111373623E+03 DETOT -1.14E-07 tst  2.29E-09 PX  1.25E-04
 TTTTTTTTTTTTTTTTTTTTTTTTTTTTTT DIIS        TELAPSE      109.15 TCPU     2994.34
 DIIS TEST: 0.55317E-07 AT SCF   CYCLE   8 - DIIS ACTIVE - HISTORY:     8 CYCLES
 TTTTTTTTTTTTTTTTTTTTTTTTTTTTTT FDIK        TELAPSE      109.70 TCPU     3011.65
 INSULATING STATE
 TOP OF VALENCE BANDS -    BAND     99; K    1; EIG -2.3675228E-01 AU
 BOTTOM OF VIRTUAL BANDS - BAND    100; K   17; EIG -8.8263257E-02 AU
 INDIRECT ENERGY BAND GAP:   4.0406 eV
 BOTTOM OF VIRTUAL BANDS - BAND    100; K    1; EIG -8.7558255E-02 AU
 TTTTTTTTTTTTTTTTTTTTTTTTTTTTTT PDIG        TELAPSE      110.05 TCPU     3017.84
 CHARGE NORMALIZATION FACTOR   1.00000000
 TOTAL ATOMIC CHARGES:
   4.4958847   4.5003927   4.5010676   4.5004797   4.4999272   4.4951866
   0.8729100   0.8731254   0.8744405   0.8742941   0.8675744   0.8680798
   0.8676573   0.8679281   0.8743441   0.8743675   0.8730372   0.8730352
   5.9229727   6.1740773   6.1740630   6.1658063   6.1658663   5.9240834
   5.9355084   6.1664898   6.1672303   6.1666249   6.1674653   5.9354877
   5.9230439   6.1657289   6.1660904   6.1739466   6.1740004   5.9239641
   8.4929242   8.4932815   8.4905243   8.4931792   8.4904364   8.4934726
 TTTTTTTTTTTTTTTTTTTTTTTTTTTTTT MOQGAD      TELAPSE      110.10 TCPU     3017.89
 TTTTTTTTTTTTTTTTTTTTTTTTTTTTTT SHELLXN     TELAPSE      118.78 TCPU     3294.54
 +++ ENERGIES IN A.U. +++
 ::: EXT EL-POLE                                  -1.5328872016494E+03
 ::: EXT EL-SPHEROPOLE                             1.6841091437772E+01
 ::: BIELET ZONE E-E                               2.1690631091530E+03
 ::: TOTAL E-E                                     6.5301699894136E+02
 ::: TOTAL E-N + N-E                              -3.1307750910826E+03
 ::: TOTAL N-N                                     4.2417790035339E+01
 ::: KINETIC ENERGY                                1.2799498057095E+03
 ::: PSEUDO TOTAL   ENERGY                        -1.1553904963963E+03
 ::: VIRIAL COEFFICIENT                            1.0511465724956E+00
 TTTTTTTTTTTTTTTTTTTTTTTTTTTTTT MONMO3      TELAPSE      118.93 TCPU     3299.35
 NUMERICALLY INTEGRATED DENSITY    197.9999520741
 EXCHANGE ENERGY: -0.126024129761E+03  CORRELATION ENERGY: -0.769674751937E+01
 TTTTTTTTTTTTTTTTTTTTTTTTTTTTTT NUMDFT      TELAPSE      119.63 TCPU     3321.80
 CYC   9 ETOT(AU) -1.289111373677E+03 DETOT -5.36E-08 tst  3.36E-10 PX  1.25E-04

 == SCF ENDED - CONVERGENCE ON ENERGY      E(AU) -1.2891113736769E+03 CYCLES   9


 ENERGY EXPRESSION=HARTREE+FOCK EXCH*0.00000+(HSESOL     EXCH)*1.00000+PBESOL     CORR


 TOTAL ENERGY(DFT)(AU)(  9) -1.2891113736769E+03 DE-5.4E-08 tester 3.4E-10
 TTTTTTTTTTTTTTTTTTTTTTTTTTTTTT EDFT        TELAPSE      119.63 TCPU     3321.81
 
 INFORMATION **** DFTD3 ENERGY **** CALCULATE DFTD3 ENERGY

           DFT-D V3(BJ)
 DF                                         hsesol3c  
 parameters
 s6       :    1.0000
 s8       :    0.0000
 a1       :    0.5196
 a2       :    4.9385
 k1 k3    :   16.0000   -4.0000
 Cutoff   :   50.2022
 CN-Cutoff:   21.1671
 ABC-Cutoff:   21.1671
 
 Edisp /kcal,au:   -26.8465 -0.04278262

 E6    /kcal :   -28.4909
 E8    /kcal :     0.0000
 E6(ABC) "   :   1.644421
 
 INFORMATION **** DFTD3 ENERGY **** NORMAL TERMINATION OF DFTD3 MODULE

 GCP ENERGY CALCULATION
  level        hsesol3c            basis:hsesol3c
  Nbf            474
  Atoms           42

  Parameters: 
  sigma     1.0000
  eta       1.4281
  alpha     0.2936
  beta      1.9467

  dmp_scal      4.0000
  dmp_exp       6.0000
 cutoffs: 
   distance [bohr] 60.0
   noise    [a.u.] 2.2E-16
 SR-damping   T
 ** gCP correction **
  Egcp:        0.0835232576 / (a.u.) ||      52.4116 / (kcal/mol)
 INFORMATION **** GCP **** NORMAL TERMINATION OF GCP MODULE

 *******************************************************************************

 DFT-D3-GCP DISPERSION AND COUNTERPOISE CORRECTION

 D3 DISPERSION ENERGY (AU)      -4.2782616782760E-02
 GCP ENERGY (AU)                 8.3523257589083E-02
 TOTAL ENERGY + DISP + GCP (AU) -1.2890706330361E+03

 *******************************************************************************

 EIGENVECTORS IN FORTRAN UNIT 10
 TTTTTTTTTTTTTTTTTTTTTTTTTTTTTT END         TELAPSE      121.60 TCPU     3329.74
 EEEEEEEEEE TERMINATION  DATE 19 02 2026 TIME 18:21:15.3
