 Default number of threads is:           32

         
 *******************************************************************************
 *                                                                             *
 *                               CRYSTAL23                                     *
 *                      public : 1.0.1 - October 2022                          *
 *                       HTTP://WWW.CRYSTAL.UNITO.IT                           *
 *                                                                             *
 *                              MAIN AUTHORS                                   *
 *                                                                             *
 *  R. DOVESI(1,11), V.R. SAUNDERS(2), C. ROETTI(1,11), R. ORLANDO(1,11),      *
 *  C.M. ZICOVICH-WILSON(1,3), F. PASCALE(4), B. CIVALLERI(1,11),              *
 *  K. DOLL(5), N.M. HARRISON(6), I.J. BUSH(7), Ph. D'ARCO(8),                 *
 *  M. LLUNELL(9), M. CAUSA'(10), Y. NOEL(8), L. MASCHIO(1,11), A. ERBA(1,11)  *
 *  M. RE'RAT(14), S. CASASSA(1,11), B.G. SEARLE(2), J.K. DESMARAIS(1)         *
 *                                                                             *
 *        CONTRIBUTIONS TO THE CODE HAVE ALSO BEEN GIVEN BY                    *
 *                                                                             *
 *  M. FERRABONE(1,11), M. DE LA PIERRE(1,11), M. FERRERO(1,11),               *
 *  J. BAIMA(1,11), E. ALBANESE(1,11), M.F. PEINTINGER(12), R. BAST(13),       *
 *  B. KIRTMAN(15), V. LACIVITA(1,11), R. DEMICHELIS(1,16)                     *
 *  G. BRANDEBURG(17), S. SALUSTRO(1,11), G. SANSONE(1,11)                     *
 *  M.T. RUGGIERO(18), L.E. DAGA(1), L. DONA'(1), A. COSSARD(1)                *
 *                                                                             *
 * (1) THEORETICAL CHEMISTRY GROUP - UNIVERSITA' DI TORINO - TORINO (ITALY)    *
 * (2) SCIENTIFIC COMPUTING DEPARTMENT - STFC DARESBURY (UK)                   *
 * (3) UNIVERSIDAD AUTONOMA DEL ESTADO DE MORELOS - CUERNAVACA (MEXICO)        *
 * (4) UNIVERSITE' DE LORRAINE - NANCY (FRANCE)                                *
 * (5) UNIVERSITAET STUTTGART- STUTTGART (GERMANY)                             *
 * (6) IMPERIAL COLLEGE - LONDON (UK)                                          *
 * (7) SCIENTIFIC COMPUTING DEPARTMENT - STFC RAL (UK)                         *
 * (8) UPMC - SORBONNE UNIVERSITES - PARIS (FRANCE)                            *
 * (9) UNIVERSIDAD DE BARCELONA - BARCELONA (SPAIN)                            *
 *(10) UNIVERSITA' DI NAPOLI "FEDERICO II" - NAPOLI (ITALY)                    *
 *(11) NIS - NANOSTRUCTURED INTERFACES AND SURFACES - TORINO (ITALY)           *
 *(12) MPI FUER CHEMISCHE ENERGIEKONVERSION - MUELHEIM AN DER RUHR (GERMANY)   *
 *(13) UNIVERSITY OF TROMSO - TROMSO (NORWAY)                                  *
 *(14) UNIVERSITE' DE PAU ET DES PAYS DE L'ADOUR - PAU (FRANCE)                *
 *(15) UNIVERSITY OF CALIFORNIA SANTA BARBARA - SANTA BARBARA (USA)            *
 *(16) CURTIN UNIVERSITY - PERTH (AUSTRALIA)                                   *
 *(17) UNIVERSITY COLLEGE LONDON - LONDON (UK)                                 *
 *(18) UNIVERSITY OF VERMONT - BURLINGTON (USA)                                *
 *                                                                             *
 *******************************************************************************
 EEEEEEEEEE STARTING  DATE 19 02 2026 TIME 18:10:21.9
 cof-1_z33_L060_incl                                                             

 CRYSTAL CALCULATION
 (INPUT ACCORDING TO THE INTERNATIONAL TABLES FOR X-RAY CRYSTALLOGRAPHY)
 CRYSTAL FAMILY                       :  TRICLINIC   
 CRYSTAL CLASS  (GROTH - 1921)        :  TRICLINIC PEDIAL                     

 SPACE GROUP (NONCENTROSYMMETRIC)     :  P 1             

 LATTICE PARAMETERS  (ANGSTROMS AND DEGREES) - CONVENTIONAL CELL
        A           B           C        ALPHA        BETA       GAMMA
    15.02361    15.02392     6.84763    40.63678    89.99997   119.99596


 NUMBER OF IRREDUCIBLE ATOMS IN THE CONVENTIONAL CELL:   42

 INPUT COORDINATES

 ATOM AT. N.              COORDINATES
   1   5     4.980782500000E-01 -3.909860000000E-03  5.014420800000E-01
   2   5     6.571339100000E-01  1.551497900000E-01  5.014421000000E-01
   3   5     4.987755900000E-01  1.565359500000E-01  4.983987500000E-01
   4   5     1.116529600000E-01  3.824051300000E-01  5.014421000000E-01
   5   5     2.707609300000E-01  3.823843600000E-01  5.014420900000E-01
   6   5     2.714428200000E-01  5.429269300000E-01  4.983987500000E-01
   7   1     7.888959100000E-01  8.061143000000E-02  4.951326100000E-01
   8   1    -1.729074000000E-02  4.631797300000E-01  4.941677800000E-01
   9   1     7.890803800000E-01  3.662671900000E-01  4.940192800000E-01
  10   1    -1.716340000000E-02  1.778626300000E-01  4.940563200000E-01
  11   1     5.746429200000E-01 -1.357985100000E-01  5.048566600000E-01
  12   1     1.923177900000E-01  6.701897400000E-01  5.058215500000E-01
  13   1     2.892238100000E-01 -1.362661000000E-01  5.059701200000E-01
  14   1     4.776746200000E-01  6.700484300000E-01  5.059328400000E-01
  15   1     5.769250200000E-01  3.657355700000E-01  4.951326600000E-01
  16   1     1.950365700000E-01  1.777356500000E-01  4.941677200000E-01
  17   1     2.919495600000E-01  8.101807000000E-02  4.940191700000E-01
  18   1     4.803912700000E-01  4.631355600000E-01  4.940564400000E-01
  19   6     7.770153000000E-01  2.161703200000E-01  4.982873900000E-01
  20   6     8.323071700000E-01  1.643985400000E-01  4.952810900000E-01
  21   6    -6.073394000000E-02  3.789179700000E-01  4.950213800000E-01
  22   6     8.321503700000E-01  3.250654600000E-01  4.958007700000E-01
  23   6    -6.041335000000E-02  2.185474500000E-01  4.937965200000E-01
  24   6    -6.274400000000E-03  3.253918000000E-01  4.958378500000E-01
  25   6     4.383772300000E-01 -1.231794400000E-01  5.017019100000E-01
  26   6     4.908226000000E-01 -1.791782200000E-01  5.047081600000E-01
  27   6     2.763835300000E-01  7.138092100000E-01  5.049679500000E-01
  28   6     3.300521100000E-01 -1.788917100000E-01  5.041885900000E-01
  29   6     4.370193600000E-01  7.132048500000E-01  5.061926900000E-01
  30   6     3.297010100000E-01  6.595146200000E-01  5.041514300000E-01
  31   6     4.391698600000E-01  2.161011800000E-01  4.982873900000E-01
  32   6     4.930282700000E-01  3.252386700000E-01  4.952811500000E-01
  33   6     2.787013200000E-01  2.179047300000E-01  4.950213200000E-01
  34   6     3.319855300000E-01  1.640633000000E-01  4.958006900000E-01
  35   6     4.399032600000E-01  3.793954500000E-01  4.937966000000E-01
  36   6     3.316496900000E-01  3.253144000000E-01  4.958378500000E-01
  37   8     4.456477700000E-01  5.016940000000E-02  4.992152400000E-01
  38   8     6.031125500000E-01  4.721633000000E-02  5.056359900000E-01
  39   8     6.053434500000E-01  2.106282800000E-01  4.959492200000E-01
  40   8     1.652355900000E-01  4.894498700000E-01  4.992152800000E-01
  41   8     1.637748200000E-01  3.275336100000E-01  5.056359800000E-01
  42   8     3.249278800000E-01  4.909402500000E-01  4.959492000000E-01

 *******************************************************************************

 << INFORMATION >>: FROM NOW ON, ALL COORDINATES REFER TO THE PRIMITIVE CELL

 *******************************************************************************

 LATTICE PARAMETERS  (ANGSTROMS AND DEGREES) - PRIMITIVE CELL
       A          B          C        ALPHA      BETA     GAMMA        VOLUME
   15.02361   15.02392    6.84763    40.63678  89.99997 119.99596    645.096059

 COORDINATES OF THE EQUIVALENT ATOMS (FRACTIONAL UNITS)

 N. ATOM EQUIV AT. N.          X                  Y                  Z

   1   1   1    5 B     4.98078250000E-01 -3.90986000000E-03 -4.98557920000E-01

   2   2   1    5 B    -3.42866090000E-01  1.55149790000E-01 -4.98557900000E-01

   3   3   1    5 B     4.98775590000E-01  1.56535950000E-01  4.98398750000E-01

   4   4   1    5 B     1.11652960000E-01  3.82405130000E-01 -4.98557900000E-01

   5   5   1    5 B     2.70760930000E-01  3.82384360000E-01 -4.98557910000E-01

   6   6   1    5 B     2.71442820000E-01 -4.57073070000E-01  4.98398750000E-01

   7   7   1    1 H    -2.11104090000E-01  8.06114300000E-02  4.95132610000E-01

   8   8   1    1 H    -1.72907400000E-02  4.63179730000E-01  4.94167780000E-01

   9   9   1    1 H    -2.10919620000E-01  3.66267190000E-01  4.94019280000E-01

  10  10   1    1 H    -1.71634000000E-02  1.77862630000E-01  4.94056320000E-01

  11  11   1    1 H    -4.25357080000E-01 -1.35798510000E-01 -4.95143340000E-01

  12  12   1    1 H     1.92317790000E-01 -3.29810260000E-01 -4.94178450000E-01

  13  13   1    1 H     2.89223810000E-01 -1.36266100000E-01 -4.94029880000E-01

  14  14   1    1 H     4.77674620000E-01 -3.29951570000E-01 -4.94067160000E-01

  15  15   1    1 H    -4.23074980000E-01  3.65735570000E-01  4.95132660000E-01

  16  16   1    1 H     1.95036570000E-01  1.77735650000E-01  4.94167720000E-01

  17  17   1    1 H     2.91949560000E-01  8.10180700000E-02  4.94019170000E-01

  18  18   1    1 H     4.80391270000E-01  4.63135560000E-01  4.94056440000E-01

  19  19   1    6 C    -2.22984700000E-01  2.16170320000E-01  4.98287390000E-01

  20  20   1    6 C    -1.67692830000E-01  1.64398540000E-01  4.95281090000E-01

  21  21   1    6 C    -6.07339400000E-02  3.78917970000E-01  4.95021380000E-01

  22  22   1    6 C    -1.67849630000E-01  3.25065460000E-01  4.95800770000E-01

  23  23   1    6 C    -6.04133500000E-02  2.18547450000E-01  4.93796520000E-01

  24  24   1    6 C    -6.27440000000E-03  3.25391800000E-01  4.95837850000E-01

  25  25   1    6 C     4.38377230000E-01 -1.23179440000E-01 -4.98298090000E-01

  26  26   1    6 C     4.90822600000E-01 -1.79178220000E-01 -4.95291840000E-01

  27  27   1    6 C     2.76383530000E-01 -2.86190790000E-01 -4.95032050000E-01

  28  28   1    6 C     3.30052110000E-01 -1.78891710000E-01 -4.95811410000E-01

  29  29   1    6 C     4.37019360000E-01 -2.86795150000E-01 -4.93807310000E-01

  30  30   1    6 C     3.29701010000E-01 -3.40485380000E-01 -4.95848570000E-01

  31  31   1    6 C     4.39169860000E-01  2.16101180000E-01  4.98287390000E-01

  32  32   1    6 C     4.93028270000E-01  3.25238670000E-01  4.95281150000E-01

  33  33   1    6 C     2.78701320000E-01  2.17904730000E-01  4.95021320000E-01

  34  34   1    6 C     3.31985530000E-01  1.64063300000E-01  4.95800690000E-01

  35  35   1    6 C     4.39903260000E-01  3.79395450000E-01  4.93796600000E-01

  36  36   1    6 C     3.31649690000E-01  3.25314400000E-01  4.95837850000E-01

  37  37   1    8 O     4.45647770000E-01  5.01694000000E-02  4.99215240000E-01

  38  38   1    8 O    -3.96887450000E-01  4.72163300000E-02 -4.94364010000E-01

  39  39   1    8 O    -3.94656550000E-01  2.10628280000E-01  4.95949220000E-01

  40  40   1    8 O     1.65235590000E-01  4.89449870000E-01  4.99215280000E-01

  41  41   1    8 O     1.63774820000E-01  3.27533610000E-01 -4.94364020000E-01

  42  42   1    8 O     3.24927880000E-01  4.90940250000E-01  4.95949200000E-01

 NUMBER OF SYMMETRY OPERATORS         :    1
 *******************************************************************************
 * GEOMETRY EDITING - INPUT COORDINATES ARE GIVEN IN ANGSTROM         
 *******************************************************************************

 GCALCO - MAX INDICES DIRECT LATTICE VECTOR     9    13    26
 NO.OF VECTORS CREATED 6999 STARS 3500 RMAX   200.73341 BOHR

 GEOMETRY FOR WAVE FUNCTION - DIMENSIONALITY OF THE SYSTEM    3
 (NON PERIODIC DIRECTION: LATTICE PARAMETER FORMALLY SET TO 500)
 *******************************************************************************
 LATTICE PARAMETERS (ANGSTROMS AND DEGREES) - BOHR = 0.5291772083 ANGSTROM
 PRIMITIVE CELL - CENTRING CODE 1/0 VOLUME=   645.096059 - DENSITY  1.004 g/cm^3
         A              B              C           ALPHA      BETA       GAMMA 
    15.02361100    15.02391600     6.84762700    40.636782  89.999973 119.995964
 *******************************************************************************
 ATOMS IN THE ASYMMETRIC UNIT   42 - ATOMS IN THE UNIT CELL:   42
     ATOM                 X/A                 Y/B                 Z/C    
 *******************************************************************************
      1 T   5 B     4.980782500000E-01 -3.909860000000E-03 -4.985579200000E-01
      2 T   5 B    -3.428660900000E-01  1.551497900000E-01 -4.985579000000E-01
      3 T   5 B     4.987755900000E-01  1.565359500000E-01  4.983987500000E-01
      4 T   5 B     1.116529600000E-01  3.824051300000E-01 -4.985579000000E-01
      5 T   5 B     2.707609300000E-01  3.823843600000E-01 -4.985579100000E-01
      6 T   5 B     2.714428200000E-01 -4.570730700000E-01  4.983987500000E-01
      7 T   1 H    -2.111040900000E-01  8.061143000000E-02  4.951326100000E-01
      8 T   1 H    -1.729074000000E-02  4.631797300000E-01  4.941677800000E-01
      9 T   1 H    -2.109196200000E-01  3.662671900000E-01  4.940192800000E-01
     10 T   1 H    -1.716340000000E-02  1.778626300000E-01  4.940563200000E-01
     11 T   1 H    -4.253570800000E-01 -1.357985100000E-01 -4.951433400000E-01
     12 T   1 H     1.923177900000E-01 -3.298102600000E-01 -4.941784500000E-01
     13 T   1 H     2.892238100000E-01 -1.362661000000E-01 -4.940298800000E-01
     14 T   1 H     4.776746200000E-01 -3.299515700000E-01 -4.940671600000E-01
     15 T   1 H    -4.230749800000E-01  3.657355700000E-01  4.951326600000E-01
     16 T   1 H     1.950365700000E-01  1.777356500000E-01  4.941677200000E-01
     17 T   1 H     2.919495600000E-01  8.101807000000E-02  4.940191700000E-01
     18 T   1 H     4.803912700000E-01  4.631355600000E-01  4.940564400000E-01
     19 T   6 C    -2.229847000000E-01  2.161703200000E-01  4.982873900000E-01
     20 T   6 C    -1.676928300000E-01  1.643985400000E-01  4.952810900000E-01
     21 T   6 C    -6.073394000000E-02  3.789179700000E-01  4.950213800000E-01
     22 T   6 C    -1.678496300000E-01  3.250654600000E-01  4.958007700000E-01
     23 T   6 C    -6.041335000000E-02  2.185474500000E-01  4.937965200000E-01
     24 T   6 C    -6.274400000000E-03  3.253918000000E-01  4.958378500000E-01
     25 T   6 C     4.383772300000E-01 -1.231794400000E-01 -4.982980900000E-01
     26 T   6 C     4.908226000000E-01 -1.791782200000E-01 -4.952918400000E-01
     27 T   6 C     2.763835300000E-01 -2.861907900000E-01 -4.950320500000E-01
     28 T   6 C     3.300521100000E-01 -1.788917100000E-01 -4.958114100000E-01
     29 T   6 C     4.370193600000E-01 -2.867951500000E-01 -4.938073100000E-01
     30 T   6 C     3.297010100000E-01 -3.404853800000E-01 -4.958485700000E-01
     31 T   6 C     4.391698600000E-01  2.161011800000E-01  4.982873900000E-01
     32 T   6 C     4.930282700000E-01  3.252386700000E-01  4.952811500000E-01
     33 T   6 C     2.787013200000E-01  2.179047300000E-01  4.950213200000E-01
     34 T   6 C     3.319855300000E-01  1.640633000000E-01  4.958006900000E-01
     35 T   6 C     4.399032600000E-01  3.793954500000E-01  4.937966000000E-01
     36 T   6 C     3.316496900000E-01  3.253144000000E-01  4.958378500000E-01
     37 T   8 O     4.456477700000E-01  5.016940000000E-02  4.992152400000E-01
     38 T   8 O    -3.968874500000E-01  4.721633000000E-02 -4.943640100000E-01
     39 T   8 O    -3.946565500000E-01  2.106282800000E-01  4.959492200000E-01
     40 T   8 O     1.652355900000E-01  4.894498700000E-01  4.992152800000E-01
     41 T   8 O     1.637748200000E-01  3.275336100000E-01 -4.943640200000E-01
     42 T   8 O     3.249278800000E-01  4.909402500000E-01  4.959492000000E-01

 T = ATOM BELONGING TO THE ASYMMETRIC UNIT

 ****    1 SYMMOPS - TRANSLATORS IN FRACTIONAL UNITS
 **** MATRICES AND TRANSLATORS IN THE CRYSTALLOGRAPHIC REFERENCE FRAME
   V INV                    ROTATION MATRICES                   TRANSLATORS
   1   1  1.00  0.00  0.00  0.00  1.00  0.00  0.00 -0.00  1.00  0.00  0.00  0.00

 DIRECT LATTICE VECTORS CARTESIAN COMPONENTS (ANGSTROM)
          X                    Y                    Z
   0.130113578931E+02  -0.751088897922E+01   0.000000000000E+00
   0.000000000000E+00   0.150239160000E+02   0.000000000000E+00
   0.299962679960E+01   0.519634486196E+01   0.330003555584E+01


 CARTESIAN COORDINATES - PRIMITIVE CELL
 *******************************************************************************
 *      ATOM          X(ANGSTROM)         Y(ANGSTROM)         Z(ANGSTROM)
 *******************************************************************************
    1     5 B     1.985559871918E+00  3.437140405127E+00 -4.945294418485E+00
    2     5 B    -5.956641044373E+00  2.315507767049E+00 -1.645258796645E+00
    3     5 B    -2.026973136265E+00 -1.121295493300E+00  4.944769151826E+00
    4     5 B    -4.273101561131E-02  2.315930782271E+00 -1.645258796645E+00
    5     5 B     2.027479695700E+00  1.120576385194E+00 -1.645258829645E+00
    6     5 B     2.027223126310E+00  3.511618627040E+00 -1.655301959854E+00
    7     1 H    -4.261164620964E+00  1.732136680084E-01 -1.666080337984E+00
    8     1 H    -1.742283889587E+00  4.460163527518E+00 -1.669264311289E+00
    9     1 H     1.737149608914E+00 -1.735152452213E-01  4.930316745110E+00
   10     1 H    -1.740961361676E+00  1.720477625535E-01 -1.669632133252E+00
   11     1 H    -4.020091632935E+00  3.777993708458E+00  1.666044928602E+00
   12     1 H    -1.979662127108E+00  8.601302768877E-01 -4.930842011769E+00
   13     1 H     5.280916034850E+00 -1.590383133734E+00  1.669719386192E+00
   14     1 H     1.733551543717E+00 -1.284697921054E+00 -4.930474750812E+00
   15     1 H    -1.019939984490E+00  1.417758602303E+00  4.933990938697E+00
   16     1 H     1.020382551315E+00 -1.423091517546E+00 -1.669264509291E+00
   17     1 H     2.280906554130E+00 -3.604842940752E+00 -1.669754729573E+00
   18     1 H     4.732900881011E+00  7.208870360480E-01 -1.669631737248E+00
   19     6 C    -4.406284327027E+00  2.315466311981E+00 -1.655669451813E+00
   20     6 C    -3.695879795929E+00  1.106738569508E+00 -1.665590348705E+00
   21     6 C    -2.304978431371E+00  3.524954575342E+00 -1.666447400939E+00
   22     6 C    -3.696361130791E+00  3.524463023457E+00 -1.663875386227E+00
   23     6 C    -2.304481243025E+00  1.106788643120E+00 -1.670489482490E+00
   24     6 C    -1.593936760446E+00  2.315984994350E+00 -1.663753020909E+00
   25     6 C     1.209547927149E+00  2.095002153304E+00 -4.944436970247E+00
   26     6 C     1.900951034119E+00  8.753913466784E-01 -4.934516238357E+00
   27     6 C    -8.884131788590E-01  8.796214900624E-01 -4.933658922120E+00
   28     6 C    -1.924498660094E-01  2.084525285476E+00 -4.936230837831E+00
   29     6 C     1.205350858646E+00 -3.296120776194E-01 -4.929617236573E+00
   30     6 C    -1.971296198976E-01 -3.408004617903E-01 -4.936353467152E+00
   31     6 C     4.209245633652E+00 -2.658941828814E+00 -1.655669451813E+00
   32     6 C     4.900999083643E+00 -1.439415344488E+00 -1.665590150703E+00
   33     6 C     2.111535038035E+00 -1.443555682578E+00 -1.666447598941E+00
   34     6 C     2.807172783532E+00 -2.648626714578E+00 -1.663875650230E+00
   35     6 C     4.205317469496E+00 -2.344666125722E-01 -1.670489218487E+00
   36     6 C     2.802914515229E+00 -2.232881801407E-01 -1.663753020909E+00
   37     8 O    -2.715789051077E+00 -2.316057684365E+00  4.947463597857E+00
   38     8 O     3.364778905096E+00  3.438148025458E+00 -4.931454366367E+00
   39     8 O    -6.477282457418E-01 -1.121764838978E+00  4.936685615731E+00
   40     8 O     6.477721312200E-01  3.510137454463E+00 -1.652607381821E+00
   41     8 O     6.480252337428E-01  1.121857017938E+00 -1.631418843528E+00
   42     8 O     2.715788648074E+00  2.316126059338E+00 -1.663385561949E+00

 *******************************************************************************
 STARTING BASIS SET HANDLING 
 *******************************************************************************

 Loading internal basis set: SOLDEF2MSVP         

 Please cite in your publication:
 L. Dona', J. G. Brandenburg and B. Civalleri, J. Chem. Phys., 151, 121101 (2019
 )                                                                              
                                                                                
                    

 *******************************************************************************
 LOCAL ATOMIC FUNCTIONS BASIS SET
 *******************************************************************************
   ATOM   X(AU)   Y(AU)   Z(AU)  N. TYPE  EXPONENT  S COEF   P COEF   D/F/G COEF
 *******************************************************************************
   1 B    3.752   6.495  -9.345
                                  1 S  
                                         2.410E+03 1.755E-03 0.000E+00 0.000E+00
                                         3.619E+02 1.344E-02 0.000E+00 0.000E+00
                                         8.231E+01 6.637E-02 0.000E+00 0.000E+00
                                         2.311E+01 2.303E-01 0.000E+00 0.000E+00
                                         7.252E+00 5.150E-01 0.000E+00 0.000E+00
                                  2 S  
                                         2.367E+00 1.000E+00 0.000E+00 0.000E+00
                                  3 S  
                                         5.533E-01 1.000E+00 0.000E+00 0.000E+00
                                  4 S  
                                         1.716E-01 1.000E+00 0.000E+00 0.000E+00
                           5-     7 P  
                                         6.002E+00 0.000E+00-3.555E-02 0.000E+00
                                         1.240E+00 0.000E+00-1.983E-01 0.000E+00
                                         3.367E-01 0.000E+00-5.048E-01 0.000E+00
                           8-    10 P  
                                         1.256E-01 0.000E+00 1.000E+00 0.000E+00
                          11-    15 D  
                                         8.880E-01 0.000E+00 0.000E+00 1.000E+00
   2 B  -11.256   4.376  -3.109
   3 B   -3.830  -2.119   9.344
   4 B   -0.081   4.376  -3.109
   5 B    3.831   2.118  -3.109
   6 B    3.831   6.636  -3.128
   7 H   -8.052   0.327  -3.148
                                 91 S  
                                         1.874E+01 1.968E-02 0.000E+00 0.000E+00
                                         2.826E+00 1.380E-01 0.000E+00 0.000E+00
                                         6.401E-01 4.783E-01 0.000E+00 0.000E+00
                                 92 S  
                                         1.756E-01 1.000E+00 0.000E+00 0.000E+00
   8 H   -3.292   8.428  -3.154
   9 H    3.283  -0.328   9.317
  10 H   -3.290   0.325  -3.155
  11 H   -7.597   7.139   3.148
  12 H   -3.741   1.625  -9.318
  13 H    9.979  -3.005   3.155
  14 H    3.276  -2.428  -9.317
  15 H   -1.927   2.679   9.324
  16 H    1.928  -2.689  -3.154
  17 H    4.310  -6.812  -3.155
  18 H    8.944   1.362  -3.155
  19 C   -8.327   4.376  -3.129
                                115 S  
                                         3.624E+03 1.634E-03 0.000E+00 0.000E+00
                                         5.440E+02 1.252E-02 0.000E+00 0.000E+00
                                         1.237E+02 6.211E-02 0.000E+00 0.000E+00
                                         3.476E+01 2.182E-01 0.000E+00 0.000E+00
                                         1.093E+01 4.980E-01 0.000E+00 0.000E+00
                                116 S  
                                         3.574E+00 1.000E+00 0.000E+00 0.000E+00
                                117 S  
                                         7.742E-01 1.000E+00 0.000E+00 0.000E+00
                                118 S  
                                         2.330E-01 1.000E+00 0.000E+00 0.000E+00
                         119-   121 P  
                                         9.443E+00 0.000E+00 3.790E-02 0.000E+00
                                         2.002E+00 0.000E+00 2.082E-01 0.000E+00
                                         5.463E-01 0.000E+00 5.047E-01 0.000E+00
                         122-   124 P  
                                         1.820E-01 0.000E+00 1.000E+00 0.000E+00
                         125-   129 D  
                                         8.880E-01 0.000E+00 0.000E+00 1.000E+00
  20 C   -6.984   2.091  -3.148
  21 C   -4.356   6.661  -3.149
  22 C   -6.985   6.660  -3.144
  23 C   -4.355   2.092  -3.157
  24 C   -3.012   4.377  -3.144
  25 C    2.286   3.959  -9.344
  26 C    3.592   1.654  -9.325
  27 C   -1.679   1.662  -9.323
  28 C   -0.364   3.939  -9.328
  29 C    2.278  -0.623  -9.316
  30 C   -0.373  -0.644  -9.328
  31 C    7.954  -5.025  -3.129
  32 C    9.262  -2.720  -3.148
  33 C    3.990  -2.728  -3.149
  34 C    5.305  -5.005  -3.144
  35 C    7.947  -0.443  -3.157
  36 C    5.297  -0.422  -3.144
  37 O   -5.132  -4.377   9.349
                                385 S  
                                         6.773E+03 1.727E-03 0.000E+00 0.000E+00
                                         1.017E+03 1.325E-02 0.000E+00 0.000E+00
                                         2.313E+02 6.603E-02 0.000E+00 0.000E+00
                                         6.501E+01 2.353E-01 0.000E+00 0.000E+00
                                         2.050E+01 5.498E-01 0.000E+00 0.000E+00
                                386 S  
                                         6.716E+00 1.000E+00 0.000E+00 0.000E+00
                                387 S  
                                         1.147E+00 1.000E+00 0.000E+00 0.000E+00
                                388 S  
                                         3.342E-01 1.000E+00 0.000E+00 0.000E+00
                         389-   391 P  
                                         1.769E+01 0.000E+00 4.359E-02 0.000E+00
                                         3.854E+00 0.000E+00 2.318E-01 0.000E+00
                                         1.047E+00 0.000E+00 5.146E-01 0.000E+00
                         392-   394 P  
                                         2.759E-01 0.000E+00 1.000E+00 0.000E+00
                         395-   399 D  
                                         8.000E-01 0.000E+00 0.000E+00 1.000E+00
  38 O    6.359   6.497  -9.319
  39 O   -1.224  -2.120   9.329
  40 O    1.224   6.633  -3.123
  41 O    1.225   2.120  -3.083
  42 O    5.132   4.377  -3.143

 *******************************************************************************
 FINISHED BASIS SET HANDLING 
 *******************************************************************************

 INFORMATION **** SET_MPP **** PCRYSTAL CALCULATION
 INFORMATION **** READM2 **** NEW DEFAULT: FOCK/KS MATRIX MIXING SET TO 30 %
 INFORMATION **** READM2 **** NEW DEFAULT: FULL DIRECT SCF MODE
 INFORMATION **** READM2 **** NEW DEFAULT: COULOMB BIPOLAR BUFFER SET TO 32 Mb
 INFORMATION **** READM2 **** NEW DEFAULT: EXCHANGE BIPOLAR BUFFER SET TO 32 Mb

 *******************************************************************************
 NEW DEFAULT: DFT INTEGRATION GRID INCREASED TO XLGRID
 NEW DEFAULT: DIIS ACCELERATOR ACTIVE
 USE KEYWORD NODIIS TO TURN IT OFF
 *******************************************************************************

 WARNING **** RDDFTP **** HSEsol-HJS ACTIVE
 RANGE SEPARATION - OMEGA:   0.110000000000000     
 WARNING **** RDDFTP **** HSEsol-3c has to be combined with sol-def2-mSVP basis set
 *******************************************************************************
 N. OF ATOMS PER CELL        42  COULOMB OVERLAP TOL         (T1) 10**   -6
 NUMBER OF SHELLS           234  COULOMB PENETRATION TOL     (T2) 10**   -6
 NUMBER OF AO               474  EXCHANGE OVERLAP TOL        (T3) 10**   -6
 N. OF ELECTRONS PER CELL   198  EXCHANGE PSEUDO OVP (F(G))  (T4) 10**   -6
 CORE ELECTRONS PER CELL     60  EXCHANGE PSEUDO OVP (P(G))  (T5) 10**  -12
 N. OF SYMMETRY OPERATORS     1  POLE ORDER IN MONO ZONE                  4
 *******************************************************************************
 TYPE OF CALCULATION :  RESTRICTED CLOSED SHELL
 KOHN-SHAM HAMILTONIAN

 (EXCHANGE)[CORRELATION] FUNCTIONAL:(HSEsol GGA)[PBEsol]

 RANGE-SEPARATED HYBRID FUNCTIONAL 
 OMEGA (SHORT-RANGE)[LONG-RANGE]:(    0.1100)[    0.0000]

 HYBRID EXCHANGE - PERCENTAGE OF FOCK EXCHANGE    25.0000

 CAPPA:IS1  2;IS2  2;IS3  8; K PTS MONK NET  20; SYMMOPS:K SPACE   2;G SPACE   1

 *******************************************************************************
 MAX NUMBER OF SCF CYCLES      50  CONVERGENCE ON DELTAP        10**-16
 WEIGHT OF F(I) IN F(I+1)      30% CONVERGENCE ON ENERGY        10**- 6
 SHRINK. FACT.(MONKH.)    2  2  8  NUMBER OF K POINTS IN THE IBZ     20
 SHRINKING FACTOR(GILAT NET)    8  NUMBER OF K POINTS(GILAT NET)   1028
 *******************************************************************************
 *** K POINTS COORDINATES (OBLIQUE COORDINATES IN UNITS OF IS =  2)
   1-R(  0  0  0)   2-R(  1  0  0)   3-R(  0  1  0)   4-R(  1  1  0)
   5-C(  0  0  1)   6-C(  1  0  1)   7-C(  0  1  1)   8-C(  1  1  1)
   9-C(  0  0  2)  10-C(  1  0  2)  11-C(  0  1  2)  12-C(  1  1  2)
  13-C(  0  0  3)  14-C(  1  0  3)  15-C(  0  1  3)  16-C(  1  1  3)
  17-R(  0  0  4)  18-R(  1  0  4)  19-R(  0  1  4)  20-R(  1  1  4)

 DIRECT LATTICE VECTORS COMPON. (A.U.)     RECIP. LATTICE VECTORS COMPON. (A.U.) 
        X            Y            Z              X            Y            Z
   24.5879030  -14.1935232    0.0000000      0.2555397    0.0000000   -0.2322774
    0.0000000   28.3910867    0.0000000      0.1277517    0.2213084   -0.4646017
    5.6684732    9.8196687    6.2361634      0.0000000    0.0000000    1.0075402

 DISK SPACE FOR EIGENVECTORS (FTN 10)     7189632 REALS

 SYMMETRY ADAPTION OF THE BLOCH FUNCTIONS DISABLED
 TTTTTTTTTTTTTTTTTTTTTTTTTTTTTT gordsh1     TELAPSE        0.04 TCPU        0.04

 MATRIX SIZE: P(G)  360040, F(G)   69158, P(G) IRR  181259, F(G) IRR   69674
 MAX G-VECTOR INDEX FOR 1- AND 2-ELECTRON INTEGRALS  51

 TTTTTTTTTTTTTTTTTTTTTTTTTTTTTT INPUT       TELAPSE        0.43 TCPU        0.42

 NEIGHBORS OF THE NON-EQUIVALENT ATOMS

 N = NUMBER OF NEIGHBORS AT DISTANCE R
    ATOM  N     R/ANG      R/AU   NEIGHBORS (ATOM LABELS AND CELL INDICES)
   1 B    1     1.3791     2.6061   37 O    1 2-3
   1 B    1     1.3793     2.6065   38 O    0 0 0
   1 B    1     1.5503     2.9297   25 C    0 0 0
   1 B    1     2.3895     4.5155    3 B    1 2-3
   1 B    1     2.3898     4.5160    2 B    1 1-1
   1 B    1     2.5632     4.8437   26 C    0 0 0

   2 B    1     1.3793     2.6065   39 O    0 1-2
   2 B    1     1.3793     2.6065   38 O   -1-1 1
   2 B    1     1.5504     2.9298   19 C    0 0 0
   2 B    1     2.3895     4.5156    3 B    0 1-2
   2 B    1     2.3898     4.5160    1 B   -1-1 1
   2 B    1     2.5634     4.8440   22 C    0 0 0

   3 B    1     1.3791     2.6061   37 O    0 0 0
   3 B    1     1.3793     2.6064   39 O    0 0 0
   3 B    1     1.5502     2.9294   31 C   -1-1 2
   3 B    1     2.3895     4.5155    1 B   -1-2 3
   3 B    1     2.3895     4.5156    2 B    0-1 2
   3 B    1     2.5629     4.8433   32 C   -1-1 2

   4 B    1     1.3795     2.6068   40 O    0 0 0
   4 B    1     1.3795     2.6070   41 O    0 0 0
   4 B    1     1.5513     2.9316   24 C    0 0 0
   4 B    1     2.3905     4.5174    6 B    0 0 0
   4 B    1     2.3905     4.5175    5 B    0 0 0
   4 B    1     2.5648     4.8468   23 C    0 0 0

   5 B    1     1.3795     2.6069   41 O    0 0 0
   5 B    1     1.3797     2.6072   42 O    0 0 0
   5 B    1     1.5516     2.9322   36 C    0 0 0
   5 B    1     2.3905     4.5175    4 B    0 0 0
   5 B    1     2.3911     4.5185    6 B    0 0 0
   5 B    1     2.5651     4.8473   35 C    0 0 0

   6 B    1     1.3795     2.6068   40 O    0 0 0
   6 B    1     1.3796     2.6071   42 O    0 0 0
   6 B    1     1.5516     2.9322   30 C    0 0 1
   6 B    1     2.3905     4.5174    4 B    0 0 0
   6 B    1     2.3911     4.5185    5 B    0 0 0
   6 B    1     2.5651     4.8473   29 C    0 0 1

   7 H    1     1.0913     2.0623   20 C    0 0 0
   7 H    1     2.1472     4.0576   19 C    0 0 0
   7 H    1     2.1680     4.0969   23 C    0 0 0
   7 H    1     2.5202     4.7625   10 H    0 0 0
   7 H    1     2.5676     4.8520   38 O   -1-1 1
   7 H    1     2.7321     5.1630    2 B    0 0 0

   8 H    1     1.0914     2.0625   21 C    0 0 0
   8 H    1     2.1493     4.0616   24 C    0 0 0
   8 H    1     2.1666     4.0942   22 C    0 0 0
   8 H    1     2.5198     4.7618    9 H    0 1-2
   8 H    1     2.5720     4.8604   40 O    0 0 0
   8 H    1     2.7362     5.1707    4 B    0 0 0

   9 H    1     1.0914     2.0624   22 C    0-1 2
   9 H    1     2.1471     4.0575   19 C    0-1 2
   9 H    1     2.1680     4.0970   21 C    0-1 2
   9 H    1     2.5198     4.7618    8 H    0-1 2
   9 H    1     2.5665     4.8500   39 O    0 0 0
   9 H    1     2.7315     5.1618    2 B    0-1 2

  10 H    1     1.0915     2.0626   23 C    0 0 0
  10 H    1     2.1490     4.0610   24 C    0 0 0
  10 H    1     2.1669     4.0948   20 C    0 0 0
  10 H    1     2.5202     4.7625    7 H    0 0 0
  10 H    1     2.5712     4.8588   41 O    0 0 0
  10 H    1     2.7351     5.1686    4 B    0 0 0

  11 H    1     1.0913     2.0623   26 C   -1-1 2
  11 H    1     2.1469     4.0571   25 C   -1-1 2
  11 H    1     2.1680     4.0968   29 C   -1-1 2
  11 H    1     2.5198     4.7617   14 H   -1-1 2
  11 H    1     2.5670     4.8510   38 O   -1-1 2
  11 H    1     2.7310     5.1609    1 B   -1-1 2

  12 H    1     1.0914     2.0625   27 C    0 0 0
  12 H    1     2.1493     4.0617   30 C    0 0 0
  12 H    1     2.1664     4.0939   28 C    0 0 0
  12 H    1     2.5192     4.7606   13 H    0 1-2
  12 H    1     2.5735     4.8632   40 O    0 0-1
  12 H    1     2.7371     5.1723    6 B    0 0-1

  13 H    1     1.0914     2.0624   28 C    0-1 2
  13 H    1     2.1475     4.0581   25 C    0-1 2
  13 H    1     2.1679     4.0967   27 C    0-1 2
  13 H    1     2.5192     4.7606   12 H    0-1 2
  13 H    1     2.5675     4.8519   37 O    1 1-1
  13 H    1     2.7328     5.1643    1 B    0-1 2

  14 H    1     1.0914     2.0625   29 C    0 0 0
  14 H    1     2.1491     4.0612   30 C    0 0 0
  14 H    1     2.1666     4.0942   26 C    0 0 0
  14 H    1     2.5198     4.7617   11 H    1 1-2
  14 H    1     2.5723     4.8609   42 O    0 0-1
  14 H    1     2.7355     5.1693    6 B    0 0-1

  15 H    1     1.0914     2.0624   32 C   -1-1 2
  15 H    1     2.1475     4.0582   31 C   -1-1 2
  15 H    1     2.1678     4.0966   35 C   -1-1 2
  15 H    1     2.5200     4.7621   18 H   -1-1 2
  15 H    1     2.5667     4.8503   39 O    0 0 0
  15 H    1     2.7315     5.1618    3 B    0 0 0

  16 H    1     1.0913     2.0623   33 C    0 0 0
  16 H    1     2.1487     4.0605   36 C    0 0 0
  16 H    1     2.1667     4.0945   34 C    0 0 0
  16 H    1     2.5197     4.7616   17 H    0 0 0
  16 H    1     2.5723     4.8610   41 O    0 0 0
  16 H    1     2.7359     5.1701    5 B    0 0 0

  17 H    1     1.0915     2.0626   34 C    0 0 0
  17 H    1     2.1479     4.0589   31 C    0 0 0
  17 H    1     2.1679     4.0968   33 C    0 0 0
  17 H    1     2.5197     4.7616   16 H    0 0 0
  17 H    1     2.5677     4.8522   37 O    1 1-2
  17 H    1     2.7331     5.1648    3 B    1 1-2

  18 H    1     1.0914     2.0624   35 C    0 0 0
  18 H    1     2.1486     4.0602   36 C    0 0 0
  18 H    1     2.1668     4.0947   32 C    0 0 0
  18 H    1     2.5200     4.7621   15 H    1 1-2
  18 H    1     2.5717     4.8598   42 O    0 0 0
  18 H    1     2.7349     5.1682    5 B    0 0 0

  19 C    1     1.4020     2.6495   22 C    0 0 0
  19 C    1     1.4021     2.6495   20 C    0 0 0
  19 C    1     1.5504     2.9298    2 B    0 0 0
  19 C    1     2.1471     4.0575    9 H    0 1-2
  19 C    1     2.1472     4.0576    7 H    0 0 0
  19 C    1     2.4246     4.5817   21 C    0 0 0

  20 C    1     1.0913     2.0623    7 H    0 0 0
  20 C    1     1.3914     2.6294   23 C    0 0 0
  20 C    1     1.4021     2.6495   19 C    0 0 0
  20 C    1     2.1669     4.0948   10 H    0 0 0
  20 C    1     2.4177     4.5688   22 C    0 0 0
  20 C    1     2.4250     4.5825   24 C    0 0 0

  21 C    1     1.0914     2.0625    8 H    0 0 0
  21 C    1     1.3914     2.6293   22 C    0 0 0
  21 C    1     1.4026     2.6505   24 C    0 0 0
  21 C    1     2.1680     4.0970    9 H    0 1-2
  21 C    1     2.4182     4.5697   23 C    0 0 0
  21 C    1     2.4246     4.5817   19 C    0 0 0

  22 C    1     1.0914     2.0624    9 H    0 1-2
  22 C    1     1.3914     2.6293   21 C    0 0 0
  22 C    1     1.4020     2.6495   19 C    0 0 0
  22 C    1     2.1666     4.0942    8 H    0 0 0
  22 C    1     2.4177     4.5688   20 C    0 0 0
  22 C    1     2.4250     4.5826   24 C    0 0 0

  23 C    1     1.0915     2.0626   10 H    0 0 0
  23 C    1     1.3914     2.6294   20 C    0 0 0
  23 C    1     1.4025     2.6504   24 C    0 0 0
  23 C    1     2.1680     4.0969    7 H    0 0 0
  23 C    1     2.4182     4.5697   21 C    0 0 0
  23 C    1     2.4246     4.5818   19 C    0 0 0

  24 C    1     1.4025     2.6504   23 C    0 0 0
  24 C    1     1.4026     2.6505   21 C    0 0 0
  24 C    1     1.5513     2.9316    4 B    0 0 0
  24 C    1     2.1490     4.0610   10 H    0 0 0
  24 C    1     2.1493     4.0616    8 H    0 0 0
  24 C    1     2.4250     4.5825   20 C    0 0 0

  25 C    1     1.4020     2.6494   26 C    0 0 0
  25 C    1     1.4021     2.6495   28 C    0 0 0
  25 C    1     1.5503     2.9297    1 B    0 0 0
  25 C    1     2.1469     4.0571   11 H    1 1-2
  25 C    1     2.1475     4.0581   13 H    0 1-2
  25 C    1     2.4246     4.5818   27 C    0 0 0

  26 C    1     1.0913     2.0623   11 H    1 1-2
  26 C    1     1.3914     2.6293   29 C    0 0 0
  26 C    1     1.4020     2.6494   25 C    0 0 0
  26 C    1     2.1666     4.0942   14 H    0 0 0
  26 C    1     2.4175     4.5684   28 C    0 0 0
  26 C    1     2.4251     4.5828   30 C    0 0 0

  27 C    1     1.0914     2.0625   12 H    0 0 0
  27 C    1     1.3915     2.6295   28 C    0 0 0
  27 C    1     1.4026     2.6505   30 C    0 0 0
  27 C    1     2.1679     4.0967   13 H    0 1-2
  27 C    1     2.4179     4.5691   29 C    0 0 0
  27 C    1     2.4246     4.5818   25 C    0 0 0

  28 C    1     1.0914     2.0624   13 H    0 1-2
  28 C    1     1.3915     2.6295   27 C    0 0 0
  28 C    1     1.4021     2.6495   25 C    0 0 0
  28 C    1     2.1664     4.0939   12 H    0 0 0
  28 C    1     2.4175     4.5684   26 C    0 0 0
  28 C    1     2.4253     4.5832   30 C    0 0 0

  29 C    1     1.0914     2.0625   14 H    0 0 0
  29 C    1     1.3914     2.6293   26 C    0 0 0
  29 C    1     1.4025     2.6504   30 C    0 0 0
  29 C    1     2.1680     4.0968   11 H    1 1-2
  29 C    1     2.4179     4.5691   27 C    0 0 0
  29 C    1     2.4247     4.5819   25 C    0 0 0

  30 C    1     1.4025     2.6504   29 C    0 0 0
  30 C    1     1.4026     2.6505   27 C    0 0 0
  30 C    1     1.5516     2.9322    6 B    0 0-1
  30 C    1     2.1491     4.0612   14 H    0 0 0
  30 C    1     2.1493     4.0617   12 H    0 0 0
  30 C    1     2.4251     4.5828   26 C    0 0 0

  31 C    1     1.4021     2.6496   32 C    0 0 0
  31 C    1     1.4021     2.6497   34 C    0 0 0
  31 C    1     1.5502     2.9294    3 B    1 1-2
  31 C    1     2.1475     4.0582   15 H    1 1-2
  31 C    1     2.1479     4.0589   17 H    0 0 0
  31 C    1     2.4244     4.5814   33 C    0 0 0

  32 C    1     1.0914     2.0624   15 H    1 1-2
  32 C    1     1.3914     2.6293   35 C    0 0 0
  32 C    1     1.4021     2.6496   31 C    0 0 0
  32 C    1     2.1668     4.0947   18 H    0 0 0
  32 C    1     2.4179     4.5692   34 C    0 0 0
  32 C    1     2.4251     4.5827   36 C    0 0 0

  33 C    1     1.0913     2.0623   16 H    0 0 0
  33 C    1     1.3914     2.6294   34 C    0 0 0
  33 C    1     1.4025     2.6504   36 C    0 0 0
  33 C    1     2.1679     4.0968   17 H    0 0 0
  33 C    1     2.4178     4.5690   35 C    0 0 0
  33 C    1     2.4244     4.5814   31 C    0 0 0

  34 C    1     1.0915     2.0626   17 H    0 0 0
  34 C    1     1.3914     2.6294   33 C    0 0 0
  34 C    1     1.4021     2.6497   31 C    0 0 0
  34 C    1     2.1667     4.0945   16 H    0 0 0
  34 C    1     2.4179     4.5692   32 C    0 0 0
  34 C    1     2.4253     4.5832   36 C    0 0 0

  35 C    1     1.0914     2.0624   18 H    0 0 0
  35 C    1     1.3914     2.6293   32 C    0 0 0
  35 C    1     1.4025     2.6503   36 C    0 0 0
  35 C    1     2.1678     4.0966   15 H    1 1-2
  35 C    1     2.4178     4.5690   33 C    0 0 0
  35 C    1     2.4245     4.5817   31 C    0 0 0

  36 C    1     1.4025     2.6503   35 C    0 0 0
  36 C    1     1.4025     2.6504   33 C    0 0 0
  36 C    1     1.5516     2.9322    5 B    0 0 0
  36 C    1     2.1486     4.0602   18 H    0 0 0
  36 C    1     2.1487     4.0605   16 H    0 0 0
  36 C    1     2.4251     4.5827   32 C    0 0 0

  37 O    1     1.3791     2.6061    1 B   -1-2 3
  37 O    1     1.3791     2.6061    3 B    0 0 0
  37 O    1     2.3880     4.5126   38 O   -1-2 3
  37 O    1     2.3882     4.5130   39 O    0 0 0
  37 O    1     2.5383     4.7966   31 C   -1-1 2
  37 O    1     2.5384     4.7968   25 C   -1-2 3

  38 O    1     1.3793     2.6065    1 B    0 0 0
  38 O    1     1.3793     2.6065    2 B    1 1-1
  38 O    1     2.3880     4.5126   37 O    1 2-3
  38 O    1     2.3882     4.5131   39 O    1 2-3
  38 O    1     2.5391     4.7981   19 C    1 1-1
  38 O    1     2.5395     4.7990   25 C    0 0 0

  39 O    1     1.3793     2.6064    3 B    0 0 0
  39 O    1     1.3793     2.6065    2 B    0-1 2
  39 O    1     2.3882     4.5130   37 O    0 0 0
  39 O    1     2.3882     4.5131   38 O   -1-2 3
  39 O    1     2.5390     4.7980   19 C    0-1 2
  39 O    1     2.5391     4.7982   31 C   -1-1 2

  40 O    1     1.3795     2.6068    6 B    0 0 0
  40 O    1     1.3795     2.6068    4 B    0 0 0
  40 O    1     2.3880     4.5126   42 O    0 0 0
  40 O    1     2.3884     4.5134   41 O    0 0 0
  40 O    1     2.5400     4.7998   24 C    0 0 0
  40 O    1     2.5403     4.8005   30 C    0 0 1

  41 O    1     1.3795     2.6069    5 B    0 0 0
  41 O    1     1.3795     2.6070    4 B    0 0 0
  41 O    1     2.3881     4.5128   42 O    0 0 0
  41 O    1     2.3884     4.5134   40 O    0 0 0
  41 O    1     2.5404     4.8006   24 C    0 0 0
  41 O    1     2.5405     4.8008   36 C    0 0 0

  42 O    1     1.3796     2.6071    6 B    0 0 0
  42 O    1     1.3797     2.6072    5 B    0 0 0
  42 O    1     2.3880     4.5126   40 O    0 0 0
  42 O    1     2.3881     4.5128   41 O    0 0 0
  42 O    1     2.5409     4.8016   36 C    0 0 0
  42 O    1     2.5410     4.8019   30 C    0 0 1


 SYMMETRY ALLOWED INTERNAL DEGREE(S) OF FREEDOM: 123
 TTTTTTTTTTTTTTTTTTTTTTTTTTTTTT SYMM        TELAPSE        0.43 TCPU        0.43
 TTTTTTTTTTTTTTTTTTTTTTTTTTTTTT INT_SCREEN  TELAPSE        0.46 TCPU        0.46

 DFT PARAMETERS

     ATOM       ELECTRONS   NET CHARGE   R(ANGSTROM)
   1   5  B       5.0000      0.0000     0.89000000
   7   1  H       1.0000      0.0000     1.11000000
  19   6  C       6.0000      0.0000     0.77000000
  37   8  O       8.0000      0.0000     0.74000000

 SIZE OF GRID=    1270739
 TTTTTTTTTTTTTTTTTTTTTTTTTTTTTT MAKE_GRID2  TELAPSE       10.43 TCPU       10.42
 BECKE WEIGHT FUNCTION
 RADSAFE =     2.00
 TOLERANCES - DENSITY:10**- 6; POTENTIAL:10**- 9; GRID WGT:10**-14

 RADIAL INTEGRATION  - INTERVALS (POINTS,UPPER LIMIT):            1( 75,  4.0*R)

 ANGULAR INTEGRATION - INTERVALS (ACCURACY LEVEL [N. POINTS] UPPER LIMIT):
  1(  4[  86]   0.2)  2(  8[ 194]   0.5)  3( 12[ 350]   0.9)  4( 16[ 974]   3.5)
  5( 12[ 350]9999.0)
 TTTTTTTTTTTTTTTTTTTTTTTTTTTTTT INT_CALC    TELAPSE       10.51 TCPU       10.50
 EEEEEEEEEE INT_CALC TERMINATION  DATE 19 02 2026 TIME 18:10:32.4

 *******************************************************************************
 cof-1_z33_L060_incl                                                             
 CRYSTAL - SCF - TYPE OF CALCULATION :  RESTRICTED CLOSED SHELL
 *******************************************************************************

 CAPPA:IS1  2;IS2  2;IS3  8; K PTS MONK NET  20; SYMMOPS:K SPACE   2;G SPACE   1

 TTTTTTTTTTTTTTTTTTTTTTTTTTTTTT SDIK        TELAPSE       11.09 TCPU       18.58

 AAAAAAAAAAAAAAAAAAAAAAAAAAAAAAAAAAAAAAAAAAAAAAAAAAAAAAAAAAAAAAAAAAAAAAAAAAAAAAA
         ATOMIC WAVEFUNCTION(S)


 NUCLEAR CHARGE  5.0  SYMMETRY SPECIES            S    P
 N. ELECTRONS    5.0  NUMBER OF PRIMITIVE GTOS    8    4
                      NUMBER OF CONTRACTED GTOS   4    2
                      NUMBER OF CLOSED SHELLS     2    0
                      OPEN SHELL OCCUPATION       0    1

  ZNUC  SCFIT    TOTAL HF ENERGY   KINETIC ENERGY   VIRIAL THEOREM ACCURACY
   5.0    11    -2.451164084E+01  2.462155050E+01 -1.995536038E+00  1.5E-06

 NUCLEAR CHARGE  1.0  SYMMETRY SPECIES            S
 N. ELECTRONS    1.0  NUMBER OF PRIMITIVE GTOS    4
                      NUMBER OF CONTRACTED GTOS   2
                      NUMBER OF CLOSED SHELLS     0
                      OPEN SHELL OCCUPATION       1

  ZNUC  SCFIT    TOTAL HF ENERGY   KINETIC ENERGY   VIRIAL THEOREM ACCURACY
   1.0     1    -4.977266687E-01  5.190767460E-01 -1.958869132E+00  0.0E+00

 NUCLEAR CHARGE  6.0  SYMMETRY SPECIES            S    P
 N. ELECTRONS    6.0  NUMBER OF PRIMITIVE GTOS    8    4
                      NUMBER OF CONTRACTED GTOS   4    2
                      NUMBER OF CLOSED SHELLS     2    0
                      OPEN SHELL OCCUPATION       0    2

  ZNUC  SCFIT    TOTAL HF ENERGY   KINETIC ENERGY   VIRIAL THEOREM ACCURACY
   6.0     9    -3.766704647E+01  3.775180683E+01 -1.997754800E+00  1.1E-06

 NUCLEAR CHARGE  8.0  SYMMETRY SPECIES            S    P
 N. ELECTRONS    8.0  NUMBER OF PRIMITIVE GTOS    8    4
                      NUMBER OF CONTRACTED GTOS   4    2
                      NUMBER OF CLOSED SHELLS     2    0
                      OPEN SHELL OCCUPATION       0    4

  ZNUC  SCFIT    TOTAL HF ENERGY   KINETIC ENERGY   VIRIAL THEOREM ACCURACY
   8.0    12    -7.477373220E+01  7.477365593E+01 -2.000001020E+00  3.8E-06

 AAAAAAAAAAAAAAAAAAAAAAAAAAAAAAAAAAAAAAAAAAAAAAAAAAAAAAAAAAAAAAAAAAAAAAAAAAAAAAA

 CHARGE NORMALIZATION FACTOR   1.00000000
 TOTAL ATOMIC CHARGES:
   5.0000000   5.0000000   5.0000000   5.0000000   5.0000000   5.0000000
   1.0000000   1.0000000   1.0000000   1.0000000   1.0000000   1.0000000
   1.0000000   1.0000000   1.0000000   1.0000000   1.0000000   1.0000000
   6.0000000   6.0000000   6.0000000   6.0000000   6.0000000   6.0000000
   6.0000000   6.0000000   6.0000000   6.0000000   6.0000000   6.0000000
   6.0000000   6.0000000   6.0000000   6.0000000   6.0000000   6.0000000
   8.0000000   8.0000000   8.0000000   8.0000000   8.0000000   8.0000000
 TTTTTTTTTTTTTTTTTTTTTTTTTTTTTT MOQGAD      TELAPSE       11.14 TCPU       20.13
 TTTTTTTTTTTTTTTTTTTTTTTTTTTTTT SHELLXN     TELAPSE       20.08 TCPU      305.92
 TTTTTTTTTTTTTTTTTTTTTTTTTTTTTT MONMO3      TELAPSE       20.23 TCPU      310.83
 NUMERICALLY INTEGRATED DENSITY    197.9999931601
 TTTTTTTTTTTTTTTTTTTTTTTTTTTTTT NUMDFT      TELAPSE       20.92 TCPU      332.70
 CYC   0 ETOT(AU) -1.295982734349E+03 DETOT -1.30E+03 tst  0.00E+00 PX  1.00E+00
 TTTTTTTTTTTTTTTTTTTTTTTTTTTTTT DIIS        TELAPSE       20.96 TCPU      333.91
 TTTTTTTTTTTTTTTTTTTTTTTTTTTTTT FDIK        TELAPSE       21.44 TCPU      349.29
 INSULATING STATE
 TOP OF VALENCE BANDS -    BAND     99; K    1; EIG -3.0468799E-01 AU
 BOTTOM OF VIRTUAL BANDS - BAND    100; K   17; EIG -1.6744676E-01 AU
 INDIRECT ENERGY BAND GAP:   3.7345 eV
 BOTTOM OF VIRTUAL BANDS - BAND    100; K    1; EIG -1.5735341E-01 AU
 TTTTTTTTTTTTTTTTTTTTTTTTTTTTTT PDIG        TELAPSE       21.78 TCPU      355.49
 CHARGE NORMALIZATION FACTOR   1.00000000
 TOTAL ATOMIC CHARGES:
   4.1410680   4.1608138   4.1613494   4.1603887   4.1600272   4.1399112
   0.7856282   0.7857920   0.7844333   0.7845050   0.7860370   0.7863215
   0.7860175   0.7862322   0.7844055   0.7845818   0.7855726   0.7857865
   6.0460889   6.2688385   6.2688545   6.2670957   6.2672706   6.0454716
   6.0466956   6.2599309   6.2600189   6.2598757   6.2599605   6.0456604
   6.0464912   6.2668125   6.2676230   6.2684126   6.2691577   6.0450685
   8.6982798   8.6986136   8.6981562   8.6989398   8.6985932   8.6992188
 TTTTTTTTTTTTTTTTTTTTTTTTTTTTTT MOQGAD      TELAPSE       21.83 TCPU      355.54
 TTTTTTTTTTTTTTTTTTTTTTTTTTTTTT SHELLXN     TELAPSE       31.14 TCPU      652.41
 TTTTTTTTTTTTTTTTTTTTTTTTTTTTTT MONMO3      TELAPSE       31.29 TCPU      657.31
 NUMERICALLY INTEGRATED DENSITY    197.9999899776
 TTTTTTTTTTTTTTTTTTTTTTTTTTTTTT NUMDFT      TELAPSE       31.99 TCPU      679.57
 CYC   1 ETOT(AU) -1.288825784872E+03 DETOT  7.16E+00 tst  0.00E+00 PX  1.00E+00
 TTTTTTTTTTTTTTTTTTTTTTTTTTTTTT DIIS        TELAPSE       32.04 TCPU      681.11
 DIIS TEST: 0.10966E+01 AT SCF   CYCLE   1 - MIX   30 %
 TTTTTTTTTTTTTTTTTTTTTTTTTTTTTT FDIK        TELAPSE       32.52 TCPU      696.76
 INSULATING STATE
 TOP OF VALENCE BANDS -    BAND     99; K    1; EIG -2.1735527E-01 AU
 BOTTOM OF VIRTUAL BANDS - BAND    100; K   17; EIG -9.4937717E-02 AU
 INDIRECT ENERGY BAND GAP:   3.3312 eV
 BOTTOM OF VIRTUAL BANDS - BAND    100; K    1; EIG -7.9004873E-02 AU
 TTTTTTTTTTTTTTTTTTTTTTTTTTTTTT PDIG        TELAPSE       32.86 TCPU      702.96
 CHARGE NORMALIZATION FACTOR   1.00000000
 TOTAL ATOMIC CHARGES:
   4.6949213   4.6929363   4.6936346   4.6927084   4.6925213   4.6948179
   0.9073684   0.9075537   0.9123807   0.9122504   0.8943909   0.8944875
   0.8945347   0.8943268   0.9122450   0.9123526   0.9074582   0.9074874
   5.8676610   6.1512632   6.1522041   6.1346062   6.1348609   5.8701081
   5.9064725   6.1306707   6.1313269   6.1310909   6.1310030   5.9100502
   5.8675434   6.1343553   6.1351096   6.1517505   6.1515543   5.8701225
   8.3399582   8.3401937   8.3302230   8.3400747   8.3293784   8.3400427
 TTTTTTTTTTTTTTTTTTTTTTTTTTTTTT MOQGAD      TELAPSE       32.91 TCPU      703.01
 TTTTTTTTTTTTTTTTTTTTTTTTTTTTTT SHELLXN     TELAPSE       42.22 TCPU      999.68
 TTTTTTTTTTTTTTTTTTTTTTTTTTTTTT MONMO3      TELAPSE       42.37 TCPU     1004.57
 NUMERICALLY INTEGRATED DENSITY    197.9999871041
 TTTTTTTTTTTTTTTTTTTTTTTTTTTTTT NUMDFT      TELAPSE       43.06 TCPU     1026.80
 CYC   2 ETOT(AU) -1.289017417419E+03 DETOT -1.92E-01 tst  3.56E-03 PX  1.60E-01
 TTTTTTTTTTTTTTTTTTTTTTTTTTTTTT DIIS        TELAPSE       43.12 TCPU     1028.44
 DIIS TEST: 0.45548E+00 AT SCF   CYCLE   2 - DIIS ACTIVE - HISTORY:     2 CYCLES
 TTTTTTTTTTTTTTTTTTTTTTTTTTTTTT FDIK        TELAPSE       43.61 TCPU     1044.08
 INSULATING STATE
 TOP OF VALENCE BANDS -    BAND     99; K    1; EIG -2.2858663E-01 AU
 BOTTOM OF VIRTUAL BANDS - BAND    100; K   17; EIG -8.9427793E-02 AU
 INDIRECT ENERGY BAND GAP:   3.7867 eV
 BOTTOM OF VIRTUAL BANDS - BAND    100; K    1; EIG -7.5440267E-02 AU
 TTTTTTTTTTTTTTTTTTTTTTTTTTTTTT PDIG        TELAPSE       43.94 TCPU     1050.27
 CHARGE NORMALIZATION FACTOR   1.00000000
 TOTAL ATOMIC CHARGES:
   4.4780150   4.4949407   4.4953704   4.4945198   4.4941671   4.4775495
   0.8866252   0.8870176   0.8900808   0.8899333   0.8762507   0.8766538
   0.8764139   0.8764565   0.8898725   0.8900723   0.8867831   0.8868378
   5.8977414   6.1652582   6.1650651   6.1603070   6.1604583   5.8979074
   5.8981868   6.1663202   6.1657712   6.1661104   6.1659379   5.8974589
   5.8978038   6.1602839   6.1604799   6.1648999   6.1653665   5.8979249
   8.5151938   8.5156799   8.5182586   8.5156287   8.5184097   8.5159879
 TTTTTTTTTTTTTTTTTTTTTTTTTTTTTT MOQGAD      TELAPSE       43.99 TCPU     1050.32
 TTTTTTTTTTTTTTTTTTTTTTTTTTTTTT SHELLXN     TELAPSE       53.29 TCPU     1347.01
 TTTTTTTTTTTTTTTTTTTTTTTTTTTTTT MONMO3      TELAPSE       53.45 TCPU     1351.90
 NUMERICALLY INTEGRATED DENSITY    197.9999859782
 TTTTTTTTTTTTTTTTTTTTTTTTTTTTTT NUMDFT      TELAPSE       54.14 TCPU     1374.07
 CYC   3 ETOT(AU) -1.289111169630E+03 DETOT -9.38E-02 tst  7.70E-04 PX  6.69E-02
 TTTTTTTTTTTTTTTTTTTTTTTTTTTTTT DIIS        TELAPSE       54.20 TCPU     1376.00
 DIIS TEST: 0.14588E-01 AT SCF   CYCLE   3 - DIIS ACTIVE - HISTORY:     3 CYCLES
 TTTTTTTTTTTTTTTTTTTTTTTTTTTTTT FDIK        TELAPSE       54.69 TCPU     1391.64
 INSULATING STATE
 TOP OF VALENCE BANDS -    BAND     99; K    1; EIG -2.3921330E-01 AU
 BOTTOM OF VIRTUAL BANDS - BAND    100; K   17; EIG -9.8211560E-02 AU
 INDIRECT ENERGY BAND GAP:   3.8369 eV
 BOTTOM OF VIRTUAL BANDS - BAND    100; K    1; EIG -8.2890618E-02 AU
 TTTTTTTTTTTTTTTTTTTTTTTTTTTTTT PDIG        TELAPSE       55.03 TCPU     1397.83
 CHARGE NORMALIZATION FACTOR   1.00000000
 TOTAL ATOMIC CHARGES:
   4.4857224   4.4987620   4.4992543   4.4983649   4.4980224   4.4853704
   0.8691619   0.8693987   0.8732701   0.8732145   0.8591082   0.8592863
   0.8592035   0.8591611   0.8731481   0.8733077   0.8692355   0.8693278
   5.9388658   6.1778087   6.1785623   6.1670946   6.1675226   5.9403377
   5.9634436   6.1661095   6.1667729   6.1664829   6.1663506   5.9654316
   5.9391537   6.1667418   6.1678364   6.1780770   6.1781942   5.9400955
   8.4847525   8.4849239   8.4767379   8.4850132   8.4763737   8.4849976
 TTTTTTTTTTTTTTTTTTTTTTTTTTTTTT MOQGAD      TELAPSE       55.08 TCPU     1397.88
 TTTTTTTTTTTTTTTTTTTTTTTTTTTTTT SHELLXN     TELAPSE       64.39 TCPU     1694.64
 TTTTTTTTTTTTTTTTTTTTTTTTTTTTTT MONMO3      TELAPSE       64.55 TCPU     1699.54
 NUMERICALLY INTEGRATED DENSITY    197.9999867242
 TTTTTTTTTTTTTTTTTTTTTTTTTTTTTT NUMDFT      TELAPSE       65.24 TCPU     1721.73
 CYC   4 ETOT(AU) -1.289114287055E+03 DETOT -3.12E-03 tst  3.05E-05 PX  1.49E-02
 TTTTTTTTTTTTTTTTTTTTTTTTTTTTTT DIIS        TELAPSE       65.30 TCPU     1723.70
 DIIS TEST: 0.40673E-02 AT SCF   CYCLE   4 - DIIS ACTIVE - HISTORY:     4 CYCLES
 TTTTTTTTTTTTTTTTTTTTTTTTTTTTTT FDIK        TELAPSE       65.79 TCPU     1739.29
 INSULATING STATE
 TOP OF VALENCE BANDS -    BAND     99; K    1; EIG -2.3720884E-01 AU
 BOTTOM OF VIRTUAL BANDS - BAND    100; K   17; EIG -9.7861695E-02 AU
 INDIRECT ENERGY BAND GAP:   3.7918 eV
 BOTTOM OF VIRTUAL BANDS - BAND    100; K    1; EIG -8.2872550E-02 AU
 TTTTTTTTTTTTTTTTTTTTTTTTTTTTTT PDIG        TELAPSE       66.13 TCPU     1745.49
 CHARGE NORMALIZATION FACTOR   1.00000000
 TOTAL ATOMIC CHARGES:
   4.4893289   4.5005029   4.5010200   4.5001768   4.4998461   4.4890190
   0.8723420   0.8726706   0.8763982   0.8763288   0.8617191   0.8620648
   0.8618788   0.8618811   0.8762261   0.8764569   0.8724784   0.8725362
   5.9242066   6.1759822   6.1760843   6.1670434   6.1671044   5.9245722
   5.9398585   6.1689793   6.1685123   6.1688044   6.1686531   5.9400902
   5.9241494   6.1669088   6.1672266   6.1757758   6.1761956   5.9246418
   8.4924581   8.4928880   8.4906481   8.4927985   8.4904712   8.4930722
 TTTTTTTTTTTTTTTTTTTTTTTTTTTTTT MOQGAD      TELAPSE       66.18 TCPU     1745.54
 TTTTTTTTTTTTTTTTTTTTTTTTTTTTTT SHELLXN     TELAPSE       75.48 TCPU     2042.13
 TTTTTTTTTTTTTTTTTTTTTTTTTTTTTT MONMO3      TELAPSE       75.64 TCPU     2047.02
 NUMERICALLY INTEGRATED DENSITY    197.9999866143
 TTTTTTTTTTTTTTTTTTTTTTTTTTTTTT NUMDFT      TELAPSE       76.33 TCPU     2069.30
 CYC   5 ETOT(AU) -1.289115220056E+03 DETOT -9.33E-04 tst  5.95E-06 PX  6.94E-03
 TTTTTTTTTTTTTTTTTTTTTTTTTTTTTT DIIS        TELAPSE       76.40 TCPU     2071.56
 DIIS TEST: 0.62081E-04 AT SCF   CYCLE   5 - DIIS ACTIVE - HISTORY:     5 CYCLES
 TTTTTTTTTTTTTTTTTTTTTTTTTTTTTT FDIK        TELAPSE       76.90 TCPU     2087.30
 INSULATING STATE
 TOP OF VALENCE BANDS -    BAND     99; K    1; EIG -2.3703086E-01 AU
 BOTTOM OF VIRTUAL BANDS - BAND    100; K   17; EIG -9.7304870E-02 AU
 INDIRECT ENERGY BAND GAP:   3.8021 eV
 BOTTOM OF VIRTUAL BANDS - BAND    100; K    1; EIG -8.2509075E-02 AU
 TTTTTTTTTTTTTTTTTTTTTTTTTTTTTT PDIG        TELAPSE       77.23 TCPU     2093.49
 CHARGE NORMALIZATION FACTOR   1.00000000
 TOTAL ATOMIC CHARGES:
   4.4879081   4.5010172   4.5015181   4.5006069   4.5002690   4.4875138
   0.8732234   0.8734904   0.8771288   0.8770156   0.8627936   0.8629683
   0.8628786   0.8628609   0.8769732   0.8771255   0.8733046   0.8734077
   5.9237239   6.1753047   6.1758822   6.1662200   6.1668094   5.9251749
   5.9385839   6.1679785   6.1686750   6.1684074   6.1681983   5.9400165
   5.9241007   6.1659939   6.1670132   6.1754979   6.1756007   5.9248369
   8.4931488   8.4933441   8.4883485   8.4934572   8.4881974   8.4934823
 TTTTTTTTTTTTTTTTTTTTTTTTTTTTTT MOQGAD      TELAPSE       77.28 TCPU     2093.54
 TTTTTTTTTTTTTTTTTTTTTTTTTTTTTT SHELLXN     TELAPSE       86.59 TCPU     2390.34
 TTTTTTTTTTTTTTTTTTTTTTTTTTTTTT MONMO3      TELAPSE       86.74 TCPU     2395.24
 NUMERICALLY INTEGRATED DENSITY    197.9999865717
 TTTTTTTTTTTTTTTTTTTTTTTTTTTTTT NUMDFT      TELAPSE       87.44 TCPU     2417.49
 CYC   6 ETOT(AU) -1.289115235683E+03 DETOT -1.56E-05 tst  1.23E-07 PX  1.21E-03
 TTTTTTTTTTTTTTTTTTTTTTTTTTTTTT DIIS        TELAPSE       87.51 TCPU     2419.82
 DIIS TEST: 0.98538E-05 AT SCF   CYCLE   6 - DIIS ACTIVE - HISTORY:     6 CYCLES
 TTTTTTTTTTTTTTTTTTTTTTTTTTTTTT FDIK        TELAPSE       88.00 TCPU     2435.44
 INSULATING STATE
 TOP OF VALENCE BANDS -    BAND     99; K    1; EIG -2.3704050E-01 AU
 BOTTOM OF VIRTUAL BANDS - BAND    100; K   17; EIG -9.7408949E-02 AU
 INDIRECT ENERGY BAND GAP:   3.7996 eV
 BOTTOM OF VIRTUAL BANDS - BAND    100; K    1; EIG -8.2514706E-02 AU
 TTTTTTTTTTTTTTTTTTTTTTTTTTTTTT PDIG        TELAPSE       88.34 TCPU     2441.64
 CHARGE NORMALIZATION FACTOR   1.00000000
 TOTAL ATOMIC CHARGES:
   4.4886123   4.5007964   4.5012907   4.5004603   4.5001321   4.4882873
   0.8731838   0.8735013   0.8771456   0.8770844   0.8625969   0.8629340
   0.8627611   0.8627459   0.8769842   0.8772004   0.8733144   0.8733704
   5.9241536   6.1753223   6.1755003   6.1664810   6.1665018   5.9245513
   5.9398895   6.1682663   6.1678593   6.1680757   6.1680081   5.9403063
   5.9240880   6.1662839   6.1666829   6.1751502   6.1755808   5.9246462
   8.4924160   8.4928334   8.4897242   8.4927561   8.4895065   8.4930149
 TTTTTTTTTTTTTTTTTTTTTTTTTTTTTT MOQGAD      TELAPSE       88.39 TCPU     2441.69
 TTTTTTTTTTTTTTTTTTTTTTTTTTTTTT SHELLXN     TELAPSE       97.71 TCPU     2738.50
 TTTTTTTTTTTTTTTTTTTTTTTTTTTTTT MONMO3      TELAPSE       97.86 TCPU     2743.39
 NUMERICALLY INTEGRATED DENSITY    197.9999865822
 TTTTTTTTTTTTTTTTTTTTTTTTTTTTTT NUMDFT      TELAPSE       98.55 TCPU     2765.62
 CYC   7 ETOT(AU) -1.289115237524E+03 DETOT -1.84E-06 tst  2.64E-08 PX  5.18E-04
 TTTTTTTTTTTTTTTTTTTTTTTTTTTTTT DIIS        TELAPSE       98.63 TCPU     2768.17
 DIIS TEST: 0.11862E-05 AT SCF   CYCLE   7 - DIIS ACTIVE - HISTORY:     7 CYCLES
 TTTTTTTTTTTTTTTTTTTTTTTTTTTTTT FDIK        TELAPSE       99.12 TCPU     2783.85
 INSULATING STATE
 TOP OF VALENCE BANDS -    BAND     99; K    1; EIG -2.3704659E-01 AU
 BOTTOM OF VIRTUAL BANDS - BAND    100; K   17; EIG -9.7424694E-02 AU
 INDIRECT ENERGY BAND GAP:   3.7993 eV
 BOTTOM OF VIRTUAL BANDS - BAND    100; K    1; EIG -8.2529380E-02 AU
 TTTTTTTTTTTTTTTTTTTTTTTTTTTTTT PDIG        TELAPSE       99.46 TCPU     2790.04
 CHARGE NORMALIZATION FACTOR   1.00000000
 TOTAL ATOMIC CHARGES:
   4.4886271   4.5008668   4.5013746   4.5004960   4.5001581   4.4882790
   0.8731580   0.8734573   0.8771373   0.8770355   0.8626150   0.8628678
   0.8627304   0.8627288   0.8769694   0.8771585   0.8732660   0.8733493
   5.9238474   6.1753311   6.1756801   6.1662642   6.1666434   5.9248297
   5.9394563   6.1680359   6.1682127   6.1682195   6.1679878   5.9403067
   5.9240544   6.1661040   6.1667857   6.1753420   6.1755778   5.9246511
   8.4926803   8.4929775   8.4893811   8.4929988   8.4892249   8.4931329
 TTTTTTTTTTTTTTTTTTTTTTTTTTTTTT MOQGAD      TELAPSE       99.51 TCPU     2790.09
 TTTTTTTTTTTTTTTTTTTTTTTTTTTTTT SHELLXN     TELAPSE      108.81 TCPU     3086.73
 TTTTTTTTTTTTTTTTTTTTTTTTTTTTTT MONMO3      TELAPSE      108.96 TCPU     3091.63
 NUMERICALLY INTEGRATED DENSITY    197.9999865784
 TTTTTTTTTTTTTTTTTTTTTTTTTTTTTT NUMDFT      TELAPSE      109.66 TCPU     3113.83
 CYC   8 ETOT(AU) -1.289115237686E+03 DETOT -1.61E-07 tst  2.83E-09 PX  1.23E-04
 TTTTTTTTTTTTTTTTTTTTTTTTTTTTTT DIIS        TELAPSE      109.74 TCPU     3116.48
 DIIS TEST: 0.92586E-07 AT SCF   CYCLE   8 - DIIS ACTIVE - HISTORY:     8 CYCLES
 TTTTTTTTTTTTTTTTTTTTTTTTTTTTTT FDIK        TELAPSE      110.23 TCPU     3132.11
 INSULATING STATE
 TOP OF VALENCE BANDS -    BAND     99; K    1; EIG -2.3704944E-01 AU
 BOTTOM OF VIRTUAL BANDS - BAND    100; K   17; EIG -9.7415588E-02 AU
 INDIRECT ENERGY BAND GAP:   3.7996 eV
 BOTTOM OF VIRTUAL BANDS - BAND    100; K    1; EIG -8.2529616E-02 AU
 TTTTTTTTTTTTTTTTTTTTTTTTTTTTTT PDIG        TELAPSE      110.57 TCPU     3138.30
 CHARGE NORMALIZATION FACTOR   1.00000000
 TOTAL ATOMIC CHARGES:
   4.4885681   4.5008676   4.5013658   4.5005071   4.5001771   4.4882243
   0.8731532   0.8734561   0.8771143   0.8770394   0.8625944   0.8628852
   0.8627373   0.8627186   0.8769559   0.8771524   0.8732695   0.8733394
   5.9240137   6.1753412   6.1756327   6.1663942   6.1665763   5.9247073
   5.9394725   6.1682111   6.1681147   6.1681866   6.1680967   5.9401889
   5.9240635   6.1661823   6.1667709   6.1752731   6.1756097   5.9246873
   8.4926397   8.4929966   8.4893868   8.4929713   8.4891913   8.4931660
 TTTTTTTTTTTTTTTTTTTTTTTTTTTTTT MOQGAD      TELAPSE      110.62 TCPU     3138.35
 TTTTTTTTTTTTTTTTTTTTTTTTTTTTTT SHELLXN     TELAPSE      119.93 TCPU     3434.99
 +++ ENERGIES IN A.U. +++
 ::: EXT EL-POLE                                  -1.5745006325183E+03
 ::: EXT EL-SPHEROPOLE                             1.7365107865923E+01
 ::: BIELET ZONE E-E                               2.2272191056191E+03
 ::: TOTAL E-E                                     6.7008358096679E+02
 ::: TOTAL E-N + N-E                              -3.1638481508144E+03
 ::: TOTAL N-N                                     5.8421967518486E+01
 ::: KINETIC ENERGY                                1.2799521206460E+03
 ::: PSEUDO TOTAL   ENERGY                        -1.1553904816831E+03
 ::: VIRIAL COEFFICIENT                            1.0511474807872E+00
 TTTTTTTTTTTTTTTTTTTTTTTTTTTTTT MONMO3      TELAPSE      120.08 TCPU     3439.89
 NUMERICALLY INTEGRATED DENSITY    197.9999865783
 EXCHANGE ENERGY: -0.126023441738E+03  CORRELATION ENERGY: -0.770131430294E+01
 TTTTTTTTTTTTTTTTTTTTTTTTTTTTTT NUMDFT      TELAPSE      120.77 TCPU     3462.09
 CYC   9 ETOT(AU) -1.289115237724E+03 DETOT -3.78E-08 tst  6.69E-10 PX  1.23E-04

 == SCF ENDED - CONVERGENCE ON ENERGY      E(AU) -1.2891152377238E+03 CYCLES   9


 ENERGY EXPRESSION=HARTREE+FOCK EXCH*0.00000+(HSESOL     EXCH)*1.00000+PBESOL     CORR


 TOTAL ENERGY(DFT)(AU)(  9) -1.2891152377238E+03 DE-3.8E-08 tester 6.7E-10
 TTTTTTTTTTTTTTTTTTTTTTTTTTTTTT EDFT        TELAPSE      120.77 TCPU     3462.10
 
 INFORMATION **** DFTD3 ENERGY **** CALCULATE DFTD3 ENERGY

           DFT-D V3(BJ)
 DF                                         hsesol3c  
 parameters
 s6       :    1.0000
 s8       :    0.0000
 a1       :    0.5196
 a2       :    4.9385
 k1 k3    :   16.0000   -4.0000
 Cutoff   :   50.2022
 CN-Cutoff:   21.1671
 ABC-Cutoff:   21.1671
 
 Edisp /kcal,au:   -28.1061 -0.04478988

 E6    /kcal :   -29.8916
 E8    /kcal :     0.0000
 E6(ABC) "   :   1.785489
 
 INFORMATION **** DFTD3 ENERGY **** NORMAL TERMINATION OF DFTD3 MODULE

 GCP ENERGY CALCULATION
  level        hsesol3c            basis:hsesol3c
  Nbf            474
  Atoms           42

  Parameters: 
  sigma     1.0000
  eta       1.4281
  alpha     0.2936
  beta      1.9467

  dmp_scal      4.0000
  dmp_exp       6.0000
 cutoffs: 
   distance [bohr] 60.0
   noise    [a.u.] 2.2E-16
 SR-damping   T
 ** gCP correction **
  Egcp:        0.0837479842 / (a.u.) ||      52.5527 / (kcal/mol)
 INFORMATION **** GCP **** NORMAL TERMINATION OF GCP MODULE

 *******************************************************************************

 DFT-D3-GCP DISPERSION AND COUNTERPOISE CORRECTION

 D3 DISPERSION ENERGY (AU)      -4.4789881907996E-02
 GCP ENERGY (AU)                 8.3747984232418E-02
 TOTAL ENERGY + DISP + GCP (AU) -1.2890762796214E+03

 *******************************************************************************

 EIGENVECTORS IN FORTRAN UNIT 10
 TTTTTTTTTTTTTTTTTTTTTTTTTTTTTT END         TELAPSE      122.59 TCPU     3469.89
 EEEEEEEEEE TERMINATION  DATE 19 02 2026 TIME 18:12:24.5
