 Default number of threads is:           32

         
 *******************************************************************************
 *                                                                             *
 *                               CRYSTAL23                                     *
 *                      public : 1.0.1 - October 2022                          *
 *                       HTTP://WWW.CRYSTAL.UNITO.IT                           *
 *                                                                             *
 *                              MAIN AUTHORS                                   *
 *                                                                             *
 *  R. DOVESI(1,11), V.R. SAUNDERS(2), C. ROETTI(1,11), R. ORLANDO(1,11),      *
 *  C.M. ZICOVICH-WILSON(1,3), F. PASCALE(4), B. CIVALLERI(1,11),              *
 *  K. DOLL(5), N.M. HARRISON(6), I.J. BUSH(7), Ph. D'ARCO(8),                 *
 *  M. LLUNELL(9), M. CAUSA'(10), Y. NOEL(8), L. MASCHIO(1,11), A. ERBA(1,11)  *
 *  M. RE'RAT(14), S. CASASSA(1,11), B.G. SEARLE(2), J.K. DESMARAIS(1)         *
 *                                                                             *
 *        CONTRIBUTIONS TO THE CODE HAVE ALSO BEEN GIVEN BY                    *
 *                                                                             *
 *  M. FERRABONE(1,11), M. DE LA PIERRE(1,11), M. FERRERO(1,11),               *
 *  J. BAIMA(1,11), E. ALBANESE(1,11), M.F. PEINTINGER(12), R. BAST(13),       *
 *  B. KIRTMAN(15), V. LACIVITA(1,11), R. DEMICHELIS(1,16)                     *
 *  G. BRANDEBURG(17), S. SALUSTRO(1,11), G. SANSONE(1,11)                     *
 *  M.T. RUGGIERO(18), L.E. DAGA(1), L. DONA'(1), A. COSSARD(1)                *
 *                                                                             *
 * (1) THEORETICAL CHEMISTRY GROUP - UNIVERSITA' DI TORINO - TORINO (ITALY)    *
 * (2) SCIENTIFIC COMPUTING DEPARTMENT - STFC DARESBURY (UK)                   *
 * (3) UNIVERSIDAD AUTONOMA DEL ESTADO DE MORELOS - CUERNAVACA (MEXICO)        *
 * (4) UNIVERSITE' DE LORRAINE - NANCY (FRANCE)                                *
 * (5) UNIVERSITAET STUTTGART- STUTTGART (GERMANY)                             *
 * (6) IMPERIAL COLLEGE - LONDON (UK)                                          *
 * (7) SCIENTIFIC COMPUTING DEPARTMENT - STFC RAL (UK)                         *
 * (8) UPMC - SORBONNE UNIVERSITES - PARIS (FRANCE)                            *
 * (9) UNIVERSIDAD DE BARCELONA - BARCELONA (SPAIN)                            *
 *(10) UNIVERSITA' DI NAPOLI "FEDERICO II" - NAPOLI (ITALY)                    *
 *(11) NIS - NANOSTRUCTURED INTERFACES AND SURFACES - TORINO (ITALY)           *
 *(12) MPI FUER CHEMISCHE ENERGIEKONVERSION - MUELHEIM AN DER RUHR (GERMANY)   *
 *(13) UNIVERSITY OF TROMSO - TROMSO (NORWAY)                                  *
 *(14) UNIVERSITE' DE PAU ET DES PAYS DE L'ADOUR - PAU (FRANCE)                *
 *(15) UNIVERSITY OF CALIFORNIA SANTA BARBARA - SANTA BARBARA (USA)            *
 *(16) CURTIN UNIVERSITY - PERTH (AUSTRALIA)                                   *
 *(17) UNIVERSITY COLLEGE LONDON - LONDON (UK)                                 *
 *(18) UNIVERSITY OF VERMONT - BURLINGTON (USA)                                *
 *                                                                             *
 *******************************************************************************
 EEEEEEEEEE STARTING  DATE 19 02 2026 TIME 20:26:57.6
 cof-1_z42_L020_serr                                                             

 CRYSTAL CALCULATION
 (INPUT ACCORDING TO THE INTERNATIONAL TABLES FOR X-RAY CRYSTALLOGRAPHY)
 CRYSTAL FAMILY                       :  TRICLINIC   
 CRYSTAL CLASS  (GROTH - 1921)        :  TRICLINIC PEDIAL                     

 SPACE GROUP (NONCENTROSYMMETRIC)     :  P 1             

 LATTICE PARAMETERS  (ANGSTROMS AND DEGREES) - CONVENTIONAL CELL
        A           B           C        ALPHA        BETA       GAMMA
    15.02361    15.02392     8.40000    90.00032    89.99994   119.99596


 NUMBER OF IRREDUCIBLE ATOMS IN THE CONVENTIONAL CELL:   84

 INPUT COORDINATES

 ATOM AT. N.              COORDINATES
   1   5     6.136805400000E-01  2.273182200000E-01  2.505686600000E-01
   2   5     6.905271000000E-01  3.810269500000E-01  7.505686600000E-01
   3   5     7.727362000000E-01  3.863778800000E-01  2.505686700000E-01
   4   5     8.495827600000E-01  5.400866100000E-01  7.505686600000E-01
   5   5     6.136762700000E-01  3.863606700000E-01  2.493730400000E-01
   6   5     6.905228300000E-01  5.400694000000E-01  7.493730400000E-01
   7   5     2.272552500000E-01  6.136332200000E-01  2.505686700000E-01
   8   5     3.041018100000E-01  7.673419500000E-01  7.505686600000E-01
   9   5     3.863632200000E-01  6.136124500000E-01  2.505686600000E-01
  10   5     4.632097800000E-01  7.673211800000E-01  7.505686600000E-01
  11   5     3.863435000000E-01  7.727516500000E-01  2.493730400000E-01
  12   5     4.631900600000E-01  9.264603800000E-01  7.493730500000E-01
  13   1     9.030436200000E-01  3.089300500000E-01  2.480899000000E-01
  14   1     9.798901800000E-01  4.626387800000E-01  7.480899100000E-01
  15   1     9.663453000000E-02  6.910534400000E-01  2.477108700000E-01
  16   1     1.734810900000E-01  8.447621700000E-01  7.477108600000E-01
  17   1     9.029714200000E-01  5.940724300000E-01  2.476525200000E-01
  18   1     9.798179800000E-01  7.477811600000E-01  7.476525300000E-01
  19   1     9.673618000000E-02  4.056849400000E-01  2.476670700000E-01
  20   1     1.735827400000E-01  5.593936700000E-01  7.476670700000E-01
  21   1     6.910324000000E-01  9.700412000000E-02  2.519101100000E-01
  22   1     7.678789600000E-01  2.507128500000E-01  7.519101100000E-01
  23   1     3.089297200000E-01  9.034373100000E-01  2.522891800000E-01
  24   1     3.857762800000E-01  5.714604000000E-02  7.522891800000E-01
  25   1     4.058699900000E-01  9.704998000000E-02  2.523475500000E-01
  26   1     4.827165500000E-01  2.507587100000E-01  7.523475500000E-01
  27   1     5.943122100000E-01  9.033473200000E-01  2.523329000000E-01
  28   1     6.711587700000E-01  5.705605000000E-02  7.523329000000E-01
  29   1     6.910727400000E-01  5.940542100000E-01  2.480899300000E-01
  30   1     7.679193000000E-01  7.477629400000E-01  7.480899300000E-01
  31   1     3.089618300000E-01  4.056093300000E-01  2.477108400000E-01
  32   1     3.858083900000E-01  5.593180600000E-01  7.477108400000E-01
  33   1     4.058405700000E-01  3.088232500000E-01  2.476524800000E-01
  34   1     4.826871300000E-01  4.625319800000E-01  7.476524800000E-01
  35   1     5.942908800000E-01  6.909579300000E-01  2.476671200000E-01
  36   1     6.711374400000E-01  8.446666600000E-01  7.476671200000E-01
  37   6     8.918903100000E-01  4.459436900000E-01  2.493293000000E-01
  38   6     9.687368700000E-01  5.996524200000E-01  7.493293000000E-01
  39   6     9.464891100000E-01  3.927856300000E-01  2.481482400000E-01
  40   6     2.333567000000E-02  5.464943600000E-01  7.481482400000E-01
  41   6     5.338812000000E-02  6.071853000000E-01  2.480462100000E-01
  42   6     1.302346800000E-01  7.608940300000E-01  7.480462100000E-01
  43   6     9.464521100000E-01  5.536921900000E-01  2.483524000000E-01
  44   6     2.329867000000E-02  7.074009200000E-01  7.483524000000E-01
  45   6     5.342634000000E-02  4.462499700000E-01  2.475650100000E-01
  46   6     1.302729000000E-01  5.999587000000E-01  7.475650100000E-01
  47   6     1.080358900000E-01  5.540356300000E-01  2.483669700000E-01
  48   6     1.848824500000E-01  7.077443600000E-01  7.483669700000E-01
  49   6     5.540394200000E-01  1.081684600000E-01  2.506707300000E-01
  50   6     6.308859800000E-01  2.618771900000E-01  7.506707300000E-01
  51   6     6.071778500000E-01  5.355594000000E-02  2.518517700000E-01
  52   6     6.840244100000E-01  2.072646700000E-01  7.518517700000E-01
  53   6     3.927986700000E-01  9.466631600000E-01  2.519538400000E-01
  54   6     4.696452300000E-01  1.003718900000E-01  7.519538400000E-01
  55   6     4.462875800000E-01  5.360286000000E-02  2.516476600000E-01
  56   6     5.231341400000E-01  2.073115900000E-01  7.516476500000E-01
  57   6     5.537168500000E-01  9.466235600000E-01  2.524349900000E-01
  58   6     6.305634100000E-01  1.003322900000E-01  7.524349900000E-01
  59   6     4.459279100000E-01  8.919920600000E-01  2.516330500000E-01
  60   6     5.227744700000E-01  4.570079000000E-02  7.516330500000E-01
  61   6     5.540448700000E-01  4.458745500000E-01  2.493293000000E-01
  62   6     6.308914300000E-01  5.995832800000E-01  7.493293000000E-01
  63   6     6.072102200000E-01  5.536257800000E-01  2.481482600000E-01
  64   6     6.840567800000E-01  7.073345100000E-01  7.481482600000E-01
  65   6     3.928233700000E-01  4.461720300000E-01  2.480461900000E-01
  66   6     4.696699300000E-01  5.998807600000E-01  7.480461900000E-01
  67   6     4.462872600000E-01  3.926899900000E-01  2.483523700000E-01
  68   6     5.231338200000E-01  5.463987200000E-01  7.483523700000E-01
  69   6     5.537429600000E-01  6.070980000000E-01  2.475650500000E-01
  70   6     6.305895200000E-01  7.608067300000E-01  7.475650400000E-01
  71   6     4.459599800000E-01  5.539582300000E-01  2.483669700000E-01
  72   6     5.228065400000E-01  7.076669600000E-01  7.483669700000E-01
  73   8     5.607366800000E-01  2.803706300000E-01  2.496938200000E-01
  74   8     6.375832400000E-01  4.340793600000E-01  7.496938100000E-01
  75   8     7.196817000000E-01  2.803783300000E-01  2.522162800000E-01
  76   8     7.965282600000E-01  4.340870600000E-01  7.522162800000E-01
  77   8     7.196794200000E-01  4.393234600000E-01  2.484107200000E-01
  78   8     7.965259800000E-01  5.930321900000E-01  7.484107200000E-01
  79   8     2.803245100000E-01  7.196511100000E-01  2.496938300000E-01
  80   8     3.571710700000E-01  8.733598400000E-01  7.496938300000E-01
  81   8     2.803439700000E-01  5.606956100000E-01  2.522162700000E-01
  82   8     3.571905300000E-01  7.144043400000E-01  7.522162700000E-01
  83   8     4.392638400000E-01  7.196354200000E-01  2.484107200000E-01
  84   8     5.161104000000E-01  8.733441500000E-01  7.484107200000E-01

 *******************************************************************************

 << INFORMATION >>: FROM NOW ON, ALL COORDINATES REFER TO THE PRIMITIVE CELL

 *******************************************************************************

 LATTICE PARAMETERS  (ANGSTROMS AND DEGREES) - PRIMITIVE CELL
       A          B          C        ALPHA      BETA     GAMMA        VOLUME
   15.02361   15.02392    8.40000    90.00032  89.99994 119.99596   1642.045003

 COORDINATES OF THE EQUIVALENT ATOMS (FRACTIONAL UNITS)

 N. ATOM EQUIV AT. N.          X                  Y                  Z

   1   1   1    5 B    -3.86319460000E-01  2.27318220000E-01  2.50568660000E-01

   2   2   1    5 B    -3.09472900000E-01  3.81026950000E-01 -2.49431340000E-01

   3   3   1    5 B    -2.27263800000E-01  3.86377880000E-01  2.50568670000E-01

   4   4   1    5 B    -1.50417240000E-01 -4.59913390000E-01 -2.49431340000E-01

   5   5   1    5 B    -3.86323730000E-01  3.86360670000E-01  2.49373040000E-01

   6   6   1    5 B    -3.09477170000E-01 -4.59930600000E-01 -2.50626960000E-01

   7   7   1    5 B     2.27255250000E-01 -3.86366780000E-01  2.50568670000E-01

   8   8   1    5 B     3.04101810000E-01 -2.32658050000E-01 -2.49431340000E-01

   9   9   1    5 B     3.86363220000E-01 -3.86387550000E-01  2.50568660000E-01

  10  10   1    5 B     4.63209780000E-01 -2.32678820000E-01 -2.49431340000E-01

  11  11   1    5 B     3.86343500000E-01 -2.27248350000E-01  2.49373040000E-01

  12  12   1    5 B     4.63190060000E-01 -7.35396200000E-02 -2.50626950000E-01

  13  13   1    1 H    -9.69563800000E-02  3.08930050000E-01  2.48089900000E-01

  14  14   1    1 H    -2.01098200000E-02  4.62638780000E-01 -2.51910090000E-01

  15  15   1    1 H     9.66345300000E-02 -3.08946560000E-01  2.47710870000E-01

  16  16   1    1 H     1.73481090000E-01 -1.55237830000E-01 -2.52289140000E-01

  17  17   1    1 H    -9.70285800000E-02 -4.05927570000E-01  2.47652520000E-01

  18  18   1    1 H    -2.01820200000E-02 -2.52218840000E-01 -2.52347470000E-01

  19  19   1    1 H     9.67361800000E-02  4.05684940000E-01  2.47667070000E-01

  20  20   1    1 H     1.73582740000E-01 -4.40606330000E-01 -2.52332930000E-01

  21  21   1    1 H    -3.08967600000E-01  9.70041200000E-02  2.51910110000E-01

  22  22   1    1 H    -2.32121040000E-01  2.50712850000E-01 -2.48089890000E-01

  23  23   1    1 H     3.08929720000E-01 -9.65626900000E-02  2.52289180000E-01

  24  24   1    1 H     3.85776280000E-01  5.71460400000E-02 -2.47710820000E-01

  25  25   1    1 H     4.05869990000E-01  9.70499800000E-02  2.52347550000E-01

  26  26   1    1 H     4.82716550000E-01  2.50758710000E-01 -2.47652450000E-01

  27  27   1    1 H    -4.05687790000E-01 -9.66526800000E-02  2.52332900000E-01

  28  28   1    1 H    -3.28841230000E-01  5.70560500000E-02 -2.47667100000E-01

  29  29   1    1 H    -3.08927260000E-01 -4.05945790000E-01  2.48089930000E-01

  30  30   1    1 H    -2.32080700000E-01 -2.52237060000E-01 -2.51910070000E-01

  31  31   1    1 H     3.08961830000E-01  4.05609330000E-01  2.47710840000E-01

  32  32   1    1 H     3.85808390000E-01 -4.40681940000E-01 -2.52289160000E-01

  33  33   1    1 H     4.05840570000E-01  3.08823250000E-01  2.47652480000E-01

  34  34   1    1 H     4.82687130000E-01  4.62531980000E-01 -2.52347520000E-01

  35  35   1    1 H    -4.05709120000E-01 -3.09042070000E-01  2.47667120000E-01

  36  36   1    1 H    -3.28862560000E-01 -1.55333340000E-01 -2.52332880000E-01

  37  37   1    6 C    -1.08109690000E-01  4.45943690000E-01  2.49329300000E-01

  38  38   1    6 C    -3.12631300000E-02 -4.00347580000E-01 -2.50670700000E-01

  39  39   1    6 C    -5.35108900000E-02  3.92785630000E-01  2.48148240000E-01

  40  40   1    6 C     2.33356700000E-02 -4.53505640000E-01 -2.51851760000E-01

  41  41   1    6 C     5.33881200000E-02 -3.92814700000E-01  2.48046210000E-01

  42  42   1    6 C     1.30234680000E-01 -2.39105970000E-01 -2.51953790000E-01

  43  43   1    6 C    -5.35478900000E-02 -4.46307810000E-01  2.48352400000E-01

  44  44   1    6 C     2.32986700000E-02 -2.92599080000E-01 -2.51647600000E-01

  45  45   1    6 C     5.34263400000E-02  4.46249970000E-01  2.47565010000E-01

  46  46   1    6 C     1.30272900000E-01 -4.00041300000E-01 -2.52434990000E-01

  47  47   1    6 C     1.08035890000E-01 -4.45964370000E-01  2.48366970000E-01

  48  48   1    6 C     1.84882450000E-01 -2.92255640000E-01 -2.51633030000E-01

  49  49   1    6 C    -4.45960580000E-01  1.08168460000E-01  2.50670730000E-01

  50  50   1    6 C    -3.69114020000E-01  2.61877190000E-01 -2.49329270000E-01

  51  51   1    6 C    -3.92822150000E-01  5.35559400000E-02  2.51851770000E-01

  52  52   1    6 C    -3.15975590000E-01  2.07264670000E-01 -2.48148230000E-01

  53  53   1    6 C     3.92798670000E-01 -5.33368400000E-02  2.51953840000E-01

  54  54   1    6 C     4.69645230000E-01  1.00371890000E-01 -2.48046160000E-01

  55  55   1    6 C     4.46287580000E-01  5.36028600000E-02  2.51647660000E-01

  56  56   1    6 C    -4.76865860000E-01  2.07311590000E-01 -2.48352350000E-01

  57  57   1    6 C    -4.46283150000E-01 -5.33764400000E-02  2.52434990000E-01

  58  58   1    6 C    -3.69436590000E-01  1.00332290000E-01 -2.47565010000E-01

  59  59   1    6 C     4.45927910000E-01 -1.08007940000E-01  2.51633050000E-01

  60  60   1    6 C    -4.77225530000E-01  4.57007900000E-02 -2.48366950000E-01

  61  61   1    6 C    -4.45955130000E-01  4.45874550000E-01  2.49329300000E-01

  62  62   1    6 C    -3.69108570000E-01 -4.00416720000E-01 -2.50670700000E-01

  63  63   1    6 C    -3.92789780000E-01 -4.46374220000E-01  2.48148260000E-01

  64  64   1    6 C    -3.15943220000E-01 -2.92665490000E-01 -2.51851740000E-01

  65  65   1    6 C     3.92823370000E-01  4.46172030000E-01  2.48046190000E-01

  66  66   1    6 C     4.69669930000E-01 -4.00119240000E-01 -2.51953810000E-01

  67  67   1    6 C     4.46287260000E-01  3.92689990000E-01  2.48352370000E-01

  68  68   1    6 C    -4.76866180000E-01 -4.53601280000E-01 -2.51647630000E-01

  69  69   1    6 C    -4.46257040000E-01 -3.92902000000E-01  2.47565050000E-01

  70  70   1    6 C    -3.69410480000E-01 -2.39193270000E-01 -2.52434960000E-01

  71  71   1    6 C     4.45959980000E-01 -4.46041770000E-01  2.48366970000E-01

  72  72   1    6 C    -4.77193460000E-01 -2.92333040000E-01 -2.51633030000E-01

  73  73   1    8 O    -4.39263320000E-01  2.80370630000E-01  2.49693820000E-01

  74  74   1    8 O    -3.62416760000E-01  4.34079360000E-01 -2.50306190000E-01

  75  75   1    8 O    -2.80318300000E-01  2.80378330000E-01  2.52216280000E-01

  76  76   1    8 O    -2.03471740000E-01  4.34087060000E-01 -2.47783720000E-01

  77  77   1    8 O    -2.80320580000E-01  4.39323460000E-01  2.48410720000E-01

  78  78   1    8 O    -2.03474020000E-01 -4.06967810000E-01 -2.51589280000E-01

  79  79   1    8 O     2.80324510000E-01 -2.80348890000E-01  2.49693830000E-01

  80  80   1    8 O     3.57171070000E-01 -1.26640160000E-01 -2.50306170000E-01

  81  81   1    8 O     2.80343970000E-01 -4.39304390000E-01  2.52216270000E-01

  82  82   1    8 O     3.57190530000E-01 -2.85595660000E-01 -2.47783730000E-01

  83  83   1    8 O     4.39263840000E-01 -2.80364580000E-01  2.48410720000E-01

  84  84   1    8 O    -4.83889600000E-01 -1.26655850000E-01 -2.51589280000E-01

 NUMBER OF SYMMETRY OPERATORS         :    1
 *******************************************************************************
 * GEOMETRY EDITING - INPUT COORDINATES ARE GIVEN IN ANGSTROM         
 *******************************************************************************

 GCALCO - MAX INDICES DIRECT LATTICE VECTOR    12    12    20
 NO.OF VECTORS CREATED 6999 STARS 3500 RMAX   264.54886 BOHR

 GEOMETRY FOR WAVE FUNCTION - DIMENSIONALITY OF THE SYSTEM    3
 (NON PERIODIC DIRECTION: LATTICE PARAMETER FORMALLY SET TO 500)
 *******************************************************************************
 LATTICE PARAMETERS (ANGSTROMS AND DEGREES) - BOHR = 0.5291772083 ANGSTROM
 PRIMITIVE CELL - CENTRING CODE 1/0 VOLUME=  1642.045003 - DENSITY  0.789 g/cm^3
         A              B              C           ALPHA      BETA       GAMMA 
    15.02361100    15.02391600     8.40000000    90.000323  89.999944 119.995964
 *******************************************************************************
 ATOMS IN THE ASYMMETRIC UNIT   84 - ATOMS IN THE UNIT CELL:   84
     ATOM                 X/A                 Y/B                 Z/C    
 *******************************************************************************
      1 T   5 B    -3.863194600000E-01  2.273182200000E-01  2.505686600000E-01
      2 T   5 B    -3.094729000000E-01  3.810269500000E-01 -2.494313400000E-01
      3 T   5 B    -2.272638000000E-01  3.863778800000E-01  2.505686700000E-01
      4 T   5 B    -1.504172400000E-01 -4.599133900000E-01 -2.494313400000E-01
      5 T   5 B    -3.863237300000E-01  3.863606700000E-01  2.493730400000E-01
      6 T   5 B    -3.094771700000E-01 -4.599306000000E-01 -2.506269600000E-01
      7 T   5 B     2.272552500000E-01 -3.863667800000E-01  2.505686700000E-01
      8 T   5 B     3.041018100000E-01 -2.326580500000E-01 -2.494313400000E-01
      9 T   5 B     3.863632200000E-01 -3.863875500000E-01  2.505686600000E-01
     10 T   5 B     4.632097800000E-01 -2.326788200000E-01 -2.494313400000E-01
     11 T   5 B     3.863435000000E-01 -2.272483500000E-01  2.493730400000E-01
     12 T   5 B     4.631900600000E-01 -7.353962000000E-02 -2.506269500000E-01
     13 T   1 H    -9.695638000000E-02  3.089300500000E-01  2.480899000000E-01
     14 T   1 H    -2.010982000000E-02  4.626387800000E-01 -2.519100900000E-01
     15 T   1 H     9.663453000000E-02 -3.089465600000E-01  2.477108700000E-01
     16 T   1 H     1.734810900000E-01 -1.552378300000E-01 -2.522891400000E-01
     17 T   1 H    -9.702858000000E-02 -4.059275700000E-01  2.476525200000E-01
     18 T   1 H    -2.018202000000E-02 -2.522188400000E-01 -2.523474700000E-01
     19 T   1 H     9.673618000000E-02  4.056849400000E-01  2.476670700000E-01
     20 T   1 H     1.735827400000E-01 -4.406063300000E-01 -2.523329300000E-01
     21 T   1 H    -3.089676000000E-01  9.700412000000E-02  2.519101100000E-01
     22 T   1 H    -2.321210400000E-01  2.507128500000E-01 -2.480898900000E-01
     23 T   1 H     3.089297200000E-01 -9.656269000000E-02  2.522891800000E-01
     24 T   1 H     3.857762800000E-01  5.714604000000E-02 -2.477108200000E-01
     25 T   1 H     4.058699900000E-01  9.704998000000E-02  2.523475500000E-01
     26 T   1 H     4.827165500000E-01  2.507587100000E-01 -2.476524500000E-01
     27 T   1 H    -4.056877900000E-01 -9.665268000000E-02  2.523329000000E-01
     28 T   1 H    -3.288412300000E-01  5.705605000000E-02 -2.476671000000E-01
     29 T   1 H    -3.089272600000E-01 -4.059457900000E-01  2.480899300000E-01
     30 T   1 H    -2.320807000000E-01 -2.522370600000E-01 -2.519100700000E-01
     31 T   1 H     3.089618300000E-01  4.056093300000E-01  2.477108400000E-01
     32 T   1 H     3.858083900000E-01 -4.406819400000E-01 -2.522891600000E-01
     33 T   1 H     4.058405700000E-01  3.088232500000E-01  2.476524800000E-01
     34 T   1 H     4.826871300000E-01  4.625319800000E-01 -2.523475200000E-01
     35 T   1 H    -4.057091200000E-01 -3.090420700000E-01  2.476671200000E-01
     36 T   1 H    -3.288625600000E-01 -1.553333400000E-01 -2.523328800000E-01
     37 T   6 C    -1.081096900000E-01  4.459436900000E-01  2.493293000000E-01
     38 T   6 C    -3.126313000000E-02 -4.003475800000E-01 -2.506707000000E-01
     39 T   6 C    -5.351089000000E-02  3.927856300000E-01  2.481482400000E-01
     40 T   6 C     2.333567000000E-02 -4.535056400000E-01 -2.518517600000E-01
     41 T   6 C     5.338812000000E-02 -3.928147000000E-01  2.480462100000E-01
     42 T   6 C     1.302346800000E-01 -2.391059700000E-01 -2.519537900000E-01
     43 T   6 C    -5.354789000000E-02 -4.463078100000E-01  2.483524000000E-01
     44 T   6 C     2.329867000000E-02 -2.925990800000E-01 -2.516476000000E-01
     45 T   6 C     5.342634000000E-02  4.462499700000E-01  2.475650100000E-01
     46 T   6 C     1.302729000000E-01 -4.000413000000E-01 -2.524349900000E-01
     47 T   6 C     1.080358900000E-01 -4.459643700000E-01  2.483669700000E-01
     48 T   6 C     1.848824500000E-01 -2.922556400000E-01 -2.516330300000E-01
     49 T   6 C    -4.459605800000E-01  1.081684600000E-01  2.506707300000E-01
     50 T   6 C    -3.691140200000E-01  2.618771900000E-01 -2.493292700000E-01
     51 T   6 C    -3.928221500000E-01  5.355594000000E-02  2.518517700000E-01
     52 T   6 C    -3.159755900000E-01  2.072646700000E-01 -2.481482300000E-01
     53 T   6 C     3.927986700000E-01 -5.333684000000E-02  2.519538400000E-01
     54 T   6 C     4.696452300000E-01  1.003718900000E-01 -2.480461600000E-01
     55 T   6 C     4.462875800000E-01  5.360286000000E-02  2.516476600000E-01
     56 T   6 C    -4.768658600000E-01  2.073115900000E-01 -2.483523500000E-01
     57 T   6 C    -4.462831500000E-01 -5.337644000000E-02  2.524349900000E-01
     58 T   6 C    -3.694365900000E-01  1.003322900000E-01 -2.475650100000E-01
     59 T   6 C     4.459279100000E-01 -1.080079400000E-01  2.516330500000E-01
     60 T   6 C    -4.772255300000E-01  4.570079000000E-02 -2.483669500000E-01
     61 T   6 C    -4.459551300000E-01  4.458745500000E-01  2.493293000000E-01
     62 T   6 C    -3.691085700000E-01 -4.004167200000E-01 -2.506707000000E-01
     63 T   6 C    -3.927897800000E-01 -4.463742200000E-01  2.481482600000E-01
     64 T   6 C    -3.159432200000E-01 -2.926654900000E-01 -2.518517400000E-01
     65 T   6 C     3.928233700000E-01  4.461720300000E-01  2.480461900000E-01
     66 T   6 C     4.696699300000E-01 -4.001192400000E-01 -2.519538100000E-01
     67 T   6 C     4.462872600000E-01  3.926899900000E-01  2.483523700000E-01
     68 T   6 C    -4.768661800000E-01 -4.536012800000E-01 -2.516476300000E-01
     69 T   6 C    -4.462570400000E-01 -3.929020000000E-01  2.475650500000E-01
     70 T   6 C    -3.694104800000E-01 -2.391932700000E-01 -2.524349600000E-01
     71 T   6 C     4.459599800000E-01 -4.460417700000E-01  2.483669700000E-01
     72 T   6 C    -4.771934600000E-01 -2.923330400000E-01 -2.516330300000E-01
     73 T   8 O    -4.392633200000E-01  2.803706300000E-01  2.496938200000E-01
     74 T   8 O    -3.624167600000E-01  4.340793600000E-01 -2.503061900000E-01
     75 T   8 O    -2.803183000000E-01  2.803783300000E-01  2.522162800000E-01
     76 T   8 O    -2.034717400000E-01  4.340870600000E-01 -2.477837200000E-01
     77 T   8 O    -2.803205800000E-01  4.393234600000E-01  2.484107200000E-01
     78 T   8 O    -2.034740200000E-01 -4.069678100000E-01 -2.515892800000E-01
     79 T   8 O     2.803245100000E-01 -2.803488900000E-01  2.496938300000E-01
     80 T   8 O     3.571710700000E-01 -1.266401600000E-01 -2.503061700000E-01
     81 T   8 O     2.803439700000E-01 -4.393043900000E-01  2.522162700000E-01
     82 T   8 O     3.571905300000E-01 -2.855956600000E-01 -2.477837300000E-01
     83 T   8 O     4.392638400000E-01 -2.803645800000E-01  2.484107200000E-01
     84 T   8 O    -4.838896000000E-01 -1.266558500000E-01 -2.515892800000E-01

 T = ATOM BELONGING TO THE ASYMMETRIC UNIT

 ****    1 SYMMOPS - TRANSLATORS IN FRACTIONAL UNITS
 **** MATRICES AND TRANSLATORS IN THE CRYSTALLOGRAPHIC REFERENCE FRAME
   V INV                    ROTATION MATRICES                   TRANSLATORS
   1   1  1.00  0.00  0.00  0.00  1.00  0.00 -0.00  0.00  1.00  0.00  0.00  0.00

 DIRECT LATTICE VECTORS CARTESIAN COMPONENTS (ANGSTROM)
          X                    Y                    Z
   0.130113578931E+02  -0.751088897922E+01   0.000000000000E+00
   0.000000000000E+00   0.150239160000E+02   0.000000000000E+00
  -0.178558158248E-04  -0.473542732632E-04   0.839999999985E+01


 CARTESIAN COORDINATES - PRIMITIVE CELL
 *******************************************************************************
 *      ATOM          X(ANGSTROM)         Y(ANGSTROM)         Z(ANGSTROM)
 *******************************************************************************
    1     5 B    -5.026545229220E+00  6.316800551624E+00  2.104776743962E+00
    2     5 B    -4.026658206302E+00 -6.974970703848E+00 -2.095223255962E+00
    3     5 B    -2.957015112044E+00  7.511850118676E+00  2.104776827962E+00
    4     5 B    -1.957128089126E+00 -5.779921136795E+00 -2.095223255962E+00
    5     5 B    -5.026600766370E+00 -6.317642911029E+00  2.094733535962E+00
    6     5 B    -4.026713743451E+00 -4.585498166500E+00 -2.105266463962E+00
    7     5 B     2.956894916718E+00 -7.511642866102E+00  2.104776827962E+00
    8     5 B     3.956781939636E+00 -5.779498121573E+00 -2.095223255962E+00
    9     5 B     5.027105658026E+00  6.316918788785E+00  2.104776743962E+00
   10     5 B    -6.984365212113E+00  5.360365125299E-01 -2.095223255962E+00
   11     5 B     5.026849095397E+00 -6.315955066760E+00  2.094733535962E+00
   12     5 B     6.026736118315E+00 -4.583810322231E+00 -2.105266379962E+00
   13     1 H    -1.261538590043E+00  5.369555978966E+00  2.083955159962E+00
   14     1 H    -2.616515671248E-01  7.101700723494E+00 -2.116044755962E+00
   15     1 H     1.257342031578E+00 -5.367410122486E+00  2.080771307962E+00
   16     1 H     2.257229054496E+00 -3.635265377957E+00 -2.119228775962E+00
   17     1 H    -1.262478002273E+00 -5.369862548978E+00  2.080281167962E+00
   18     1 H    -2.625909793549E-01 -3.637717804450E+00 -2.119718747962E+00
   19     1 H     1.258664636890E+00  5.368390024677E+00  2.080403387962E+00
   20     1 H     2.258551659808E+00  7.100534769206E+00 -2.119596611962E+00
   21     1 H    -4.020092519019E+00  3.777991163289E+00  2.116044923962E+00
   22     1 H    -3.020205496101E+00  5.510135907817E+00 -2.083955075962E+00
   23     1 H     4.019590645893E+00 -3.771098519565E+00  2.119229111962E+00
   24     1 H     5.019477668811E+00 -2.038953775037E+00 -2.080770887962E+00
   25     1 H     5.280915192070E+00 -1.590385637299E+00  2.119719419962E+00
   26     1 H     6.280802214988E+00  1.417591072298E-01 -2.080280579962E+00
   27     1 H    -5.278553534143E+00  1.594962256378E+00  2.119596359962E+00
   28     1 H    -4.278666511225E+00  3.327107000906E+00 -2.080403639962E+00
   29     1 H    -4.019567572629E+00 -3.778588845118E+00  2.083955411962E+00
   30     1 H    -3.019680549711E+00 -2.046444100590E+00 -2.116044587962E+00
   31     1 H     4.020008522345E+00  3.773250768624E+00  2.080771055962E+00
   32     1 H     5.019895545263E+00  5.505395513153E+00 -2.119228943962E+00
   33     1 H     5.280532481755E+00  1.591499374912E+00  2.080280831962E+00
   34     1 H     6.280419504673E+00  3.323644119440E+00 -2.119719167962E+00
   35     1 H    -5.278830983096E+00 -1.595797670067E+00  2.080403807962E+00
   36     1 H    -4.278943960177E+00  1.363470744616E-01 -2.119596191962E+00
   37     6 C    -1.406658320275E+00  7.511808611650E+00  2.094366119962E+00
   38     6 C    -4.067712973573E-01 -5.779962643822E+00 -2.105633879962E+00
   39     6 C    -6.962537718553E-01  6.303080914217E+00  2.084445215962E+00
   40     6 C     3.036332510629E-01 -6.988690341255E+00 -2.115554783962E+00
   41     6 C     6.946475074900E-01 -6.302619044542E+00  2.083588163962E+00
   42     6 C     1.694534530408E+00 -4.570474300014E+00 -2.116411835962E+00
   43     6 C    -6.967351957427E-01 -6.303110551270E+00  2.086160159962E+00
   44     6 C     3.031518271754E-01 -4.570965806741E+00 -2.113839839962E+00
   45     6 C     6.951448101809E-01  6.303131032716E+00  2.079546083962E+00
   46     6 C     1.695031833099E+00 -6.988640222756E+00 -2.120453915962E+00
   47     6 C     1.405689195290E+00 -7.511588570671E+00  2.086282547962E+00
   48     6 C     2.405576218208E+00 -5.779443826143E+00 -2.113717451962E+00
   49     6 C     7.208800704551E+00 -2.536226587170E+00  2.105634131962E+00
   50     6 C     8.208687727469E+00 -8.040818426418E-01 -2.094365867962E+00
   51     6 C    -5.111154078989E+00  3.755051574831E+00  2.115554867962E+00
   52     6 C    -4.111267056071E+00  5.487196319359E+00 -2.084445131962E+00
   53     6 C     5.110839576445E+00 -3.751607336510E+00  2.116412255962E+00
   54     6 C     6.110726599363E+00 -2.019462591982E+00 -2.083587743962E+00
   55     6 C     5.806802933232E+00 -2.546703516775E+00  2.113840343962E+00
   56     6 C     6.806689956150E+00 -8.145587722464E-01 -2.086159739962E+00
   57     6 C    -5.806754293723E+00  2.550048088130E+00  2.120453915962E+00
   58     6 C    -4.806867270805E+00  4.282192832659E+00 -2.079546083962E+00
   59     6 C     5.802123138399E+00 -4.972029158537E+00  2.113717619962E+00
   60     6 C     6.802010161317E+00 -3.239884414009E+00 -2.086282379962E+00
   61     6 C     7.208871640404E+00  2.537400470856E+00  2.094366119962E+00
   62     6 C    -4.802599229734E+00 -3.243481805399E+00 -2.105633879962E+00
   63     6 C    -5.110732835205E+00 -3.756100106975E+00  2.084445383962E+00
   64     6 C    -4.110845812286E+00 -2.023955362447E+00 -2.115554615962E+00
   65     6 C     5.111161026760E+00  3.752786633711E+00  2.083587995962E+00
   66     6 C    -6.900309843379E+00 -2.028095642544E+00 -2.116412003962E+00
   67     6 C     5.806798828437E+00  2.547715600556E+00  2.086159907962E+00
   68     6 C    -6.204672041701E+00 -3.233166675699E+00 -2.113840091962E+00
   69     6 C    -5.806414480212E+00 -2.551151283861E+00  2.079546419962E+00
   70     6 C    -4.806527457294E+00 -8.190065393322E-01 -2.120453663962E+00
   71     6 C     5.802540470965E+00  4.973054254838E+00  2.086282547962E+00
   72     6 C    -6.208930399173E+00 -8.078280214172E-01 -2.113717451962E+00
   73     8 O     7.295941168757E+00  6.220198632697E-04  2.097428087962E+00
   74     8 O    -4.715529701381E+00 -5.780260256391E+00 -2.102571995962E+00
   75     8 O    -3.647326228801E+00  6.317808164764E+00  2.118616751962E+00
   76     8 O    -2.647439205882E+00 -6.973963090707E+00 -2.081383247962E+00
   77     8 O    -3.647355826745E+00 -6.318112248470E+00  2.086650047962E+00
   78     8 O    -2.647468803827E+00 -4.585967503942E+00 -2.113349951962E+00
   79     8 O     3.647398067319E+00 -6.317436270886E+00  2.097428171962E+00
   80     8 O     4.647285090237E+00 -4.585291526358E+00 -2.102571827962E+00
   81     8 O     3.647651223303E+00  6.318199368028E+00  2.118616667962E+00
   82     8 O     4.647538246221E+00 -6.973571887444E+00 -2.081383331962E+00
   83     8 O    -7.295943296914E+00 -5.586182122386E-04  2.086650047962E+00
   84     8 O    -6.296056273996E+00  1.731586126316E+00 -2.113349951962E+00

 *******************************************************************************
 STARTING BASIS SET HANDLING 
 *******************************************************************************

 Loading internal basis set: SOLDEF2MSVP         

 Please cite in your publication:
 L. Dona', J. G. Brandenburg and B. Civalleri, J. Chem. Phys., 151, 121101 (2019
 )                                                                              
                                                                                
                    

 *******************************************************************************
 LOCAL ATOMIC FUNCTIONS BASIS SET
 *******************************************************************************
   ATOM   X(AU)   Y(AU)   Z(AU)  N. TYPE  EXPONENT  S COEF   P COEF   D/F/G COEF
 *******************************************************************************
   1 B   -9.499  11.937   3.977
                                  1 S  
                                         2.410E+03 1.755E-03 0.000E+00 0.000E+00
                                         3.619E+02 1.344E-02 0.000E+00 0.000E+00
                                         8.231E+01 6.637E-02 0.000E+00 0.000E+00
                                         2.311E+01 2.303E-01 0.000E+00 0.000E+00
                                         7.252E+00 5.150E-01 0.000E+00 0.000E+00
                                  2 S  
                                         2.367E+00 1.000E+00 0.000E+00 0.000E+00
                                  3 S  
                                         5.533E-01 1.000E+00 0.000E+00 0.000E+00
                                  4 S  
                                         1.716E-01 1.000E+00 0.000E+00 0.000E+00
                           5-     7 P  
                                         6.002E+00 0.000E+00-3.555E-02 0.000E+00
                                         1.240E+00 0.000E+00-1.983E-01 0.000E+00
                                         3.367E-01 0.000E+00-5.048E-01 0.000E+00
                           8-    10 P  
                                         1.256E-01 0.000E+00 1.000E+00 0.000E+00
                          11-    15 D  
                                         8.880E-01 0.000E+00 0.000E+00 1.000E+00
   2 B   -7.609 -13.181  -3.959
   3 B   -5.588  14.195   3.977
   4 B   -3.698 -10.922  -3.959
   5 B   -9.499 -11.939   3.958
   6 B   -7.609  -8.665  -3.978
   7 B    5.588 -14.195   3.977
   8 B    7.477 -10.922  -3.959
   9 B    9.500  11.937   3.977
  10 B  -13.199   1.013  -3.959
  11 B    9.499 -11.935   3.958
  12 B   11.389  -8.662  -3.978
  13 H   -2.384  10.147   3.938
                                181 S  
                                         1.874E+01 1.968E-02 0.000E+00 0.000E+00
                                         2.826E+00 1.380E-01 0.000E+00 0.000E+00
                                         6.401E-01 4.783E-01 0.000E+00 0.000E+00
                                182 S  
                                         1.756E-01 1.000E+00 0.000E+00 0.000E+00
  14 H   -0.494  13.420  -3.999
  15 H    2.376 -10.143   3.932
  16 H    4.266  -6.870  -4.005
  17 H   -2.386 -10.148   3.931
  18 H   -0.496  -6.874  -4.006
  19 H    2.379  10.145   3.931
  20 H    4.268  13.418  -4.005
  21 H   -7.597   7.139   3.999
  22 H   -5.707  10.413  -3.938
  23 H    7.596  -7.126   4.005
  24 H    9.485  -3.853  -3.932
  25 H    9.979  -3.005   4.006
  26 H   11.869   0.268  -3.931
  27 H   -9.975   3.014   4.005
  28 H   -8.086   6.287  -3.931
  29 H   -7.596  -7.140   3.938
  30 H   -5.706  -3.867  -3.999
  31 H    7.597   7.130   3.932
  32 H    9.486  10.404  -4.005
  33 H    9.979   3.007   3.931
  34 H   11.868   6.281  -4.006
  35 H   -9.976  -3.016   3.931
  36 H   -8.086   0.258  -4.005
  37 C   -2.658  14.195   3.958
                                229 S  
                                         3.624E+03 1.634E-03 0.000E+00 0.000E+00
                                         5.440E+02 1.252E-02 0.000E+00 0.000E+00
                                         1.237E+02 6.211E-02 0.000E+00 0.000E+00
                                         3.476E+01 2.182E-01 0.000E+00 0.000E+00
                                         1.093E+01 4.980E-01 0.000E+00 0.000E+00
                                230 S  
                                         3.574E+00 1.000E+00 0.000E+00 0.000E+00
                                231 S  
                                         7.742E-01 1.000E+00 0.000E+00 0.000E+00
                                232 S  
                                         2.330E-01 1.000E+00 0.000E+00 0.000E+00
                         233-   235 P  
                                         9.443E+00 0.000E+00 3.790E-02 0.000E+00
                                         2.002E+00 0.000E+00 2.082E-01 0.000E+00
                                         5.463E-01 0.000E+00 5.047E-01 0.000E+00
                         236-   238 P  
                                         1.820E-01 0.000E+00 1.000E+00 0.000E+00
                         239-   243 D  
                                         8.880E-01 0.000E+00 0.000E+00 1.000E+00
  38 C   -0.769 -10.923  -3.979
  39 C   -1.316  11.911   3.939
  40 C    0.574 -13.207  -3.998
  41 C    1.313 -11.910   3.937
  42 C    3.202  -8.637  -3.999
  43 C   -1.317 -11.911   3.942
  44 C    0.573  -8.638  -3.995
  45 C    1.314  11.911   3.930
  46 C    3.203 -13.207  -4.007
  47 C    2.656 -14.195   3.943
  48 C    4.546 -10.922  -3.994
  49 C   13.623  -4.793   3.979
  50 C   15.512  -1.519  -3.958
  51 C   -9.659   7.096   3.998
  52 C   -7.769  10.369  -3.939
  53 C    9.658  -7.090   3.999
  54 C   11.548  -3.816  -3.937
  55 C   10.973  -4.813   3.995
  56 C   12.863  -1.539  -3.942
  57 C  -10.973   4.819   4.007
  58 C   -9.084   8.092  -3.930
  59 C   10.964  -9.396   3.994
  60 C   12.854  -6.122  -3.943
  61 C   13.623   4.795   3.958
  62 C   -9.076  -6.129  -3.979
  63 C   -9.658  -7.098   3.939
  64 C   -7.768  -3.825  -3.998
  65 C    9.659   7.092   3.937
  66 C  -13.040  -3.833  -3.999
  67 C   10.973   4.814   3.942
  68 C  -11.725  -6.110  -3.995
  69 C  -10.973  -4.821   3.930
  70 C   -9.083  -1.548  -4.007
  71 C   10.965   9.398   3.943
  72 C  -11.733  -1.527  -3.994
  73 O   13.787   0.001   3.964
                                769 S  
                                         6.773E+03 1.727E-03 0.000E+00 0.000E+00
                                         1.017E+03 1.325E-02 0.000E+00 0.000E+00
                                         2.313E+02 6.603E-02 0.000E+00 0.000E+00
                                         6.501E+01 2.353E-01 0.000E+00 0.000E+00
                                         2.050E+01 5.498E-01 0.000E+00 0.000E+00
                                770 S  
                                         6.716E+00 1.000E+00 0.000E+00 0.000E+00
                                771 S  
                                         1.147E+00 1.000E+00 0.000E+00 0.000E+00
                                772 S  
                                         3.342E-01 1.000E+00 0.000E+00 0.000E+00
                         773-   775 P  
                                         1.769E+01 0.000E+00 4.359E-02 0.000E+00
                                         3.854E+00 0.000E+00 2.318E-01 0.000E+00
                                         1.047E+00 0.000E+00 5.146E-01 0.000E+00
                         776-   778 P  
                                         2.759E-01 0.000E+00 1.000E+00 0.000E+00
                         779-   783 D  
                                         8.000E-01 0.000E+00 0.000E+00 1.000E+00
  74 O   -8.911 -10.923  -3.973
  75 O   -6.892  11.939   4.004
  76 O   -5.003 -13.179  -3.933
  77 O   -6.893 -11.940   3.943
  78 O   -5.003  -8.666  -3.994
  79 O    6.893 -11.938   3.964
  80 O    8.782  -8.665  -3.973
  81 O    6.893  11.940   4.004
  82 O    8.783 -13.178  -3.933
  83 O  -13.787  -0.001   3.943
  84 O  -11.898   3.272  -3.994

 *******************************************************************************
 FINISHED BASIS SET HANDLING 
 *******************************************************************************

 INFORMATION **** SET_MPP **** PCRYSTAL CALCULATION
 INFORMATION **** READM2 **** NEW DEFAULT: FOCK/KS MATRIX MIXING SET TO 30 %
 INFORMATION **** READM2 **** NEW DEFAULT: FULL DIRECT SCF MODE
 INFORMATION **** READM2 **** NEW DEFAULT: COULOMB BIPOLAR BUFFER SET TO 32 Mb
 INFORMATION **** READM2 **** NEW DEFAULT: EXCHANGE BIPOLAR BUFFER SET TO 32 Mb

 *******************************************************************************
 NEW DEFAULT: DFT INTEGRATION GRID INCREASED TO XLGRID
 NEW DEFAULT: DIIS ACCELERATOR ACTIVE
 USE KEYWORD NODIIS TO TURN IT OFF
 *******************************************************************************

 WARNING **** RDDFTP **** HSEsol-HJS ACTIVE
 RANGE SEPARATION - OMEGA:   0.110000000000000     
 WARNING **** RDDFTP **** HSEsol-3c has to be combined with sol-def2-mSVP basis set
 *******************************************************************************
 N. OF ATOMS PER CELL        84  COULOMB OVERLAP TOL         (T1) 10**   -6
 NUMBER OF SHELLS           468  COULOMB PENETRATION TOL     (T2) 10**   -6
 NUMBER OF AO               948  EXCHANGE OVERLAP TOL        (T3) 10**   -6
 N. OF ELECTRONS PER CELL   396  EXCHANGE PSEUDO OVP (F(G))  (T4) 10**   -6
 CORE ELECTRONS PER CELL    120  EXCHANGE PSEUDO OVP (P(G))  (T5) 10**  -12
 N. OF SYMMETRY OPERATORS     1  POLE ORDER IN MONO ZONE                  4
 *******************************************************************************
 TYPE OF CALCULATION :  RESTRICTED CLOSED SHELL
 KOHN-SHAM HAMILTONIAN

 (EXCHANGE)[CORRELATION] FUNCTIONAL:(HSEsol GGA)[PBEsol]

 RANGE-SEPARATED HYBRID FUNCTIONAL 
 OMEGA (SHORT-RANGE)[LONG-RANGE]:(    0.1100)[    0.0000]

 HYBRID EXCHANGE - PERCENTAGE OF FOCK EXCHANGE    25.0000

 CAPPA:IS1  2;IS2  2;IS3  8; K PTS MONK NET  20; SYMMOPS:K SPACE   2;G SPACE   1

 *******************************************************************************
 MAX NUMBER OF SCF CYCLES      50  CONVERGENCE ON DELTAP        10**-16
 WEIGHT OF F(I) IN F(I+1)      30% CONVERGENCE ON ENERGY        10**- 6
 SHRINK. FACT.(MONKH.)    2  2  8  NUMBER OF K POINTS IN THE IBZ     20
 SHRINKING FACTOR(GILAT NET)    8  NUMBER OF K POINTS(GILAT NET)   1028
 *******************************************************************************
 *** K POINTS COORDINATES (OBLIQUE COORDINATES IN UNITS OF IS =  2)
   1-R(  0  0  0)   2-R(  1  0  0)   3-R(  0  1  0)   4-R(  1  1  0)
   5-C(  0  0  1)   6-C(  1  0  1)   7-C(  0  1  1)   8-C(  1  1  1)
   9-C(  0  0  2)  10-C(  1  0  2)  11-C(  0  1  2)  12-C(  1  1  2)
  13-C(  0  0  3)  14-C(  1  0  3)  15-C(  0  1  3)  16-C(  1  1  3)
  17-R(  0  0  4)  18-R(  1  0  4)  19-R(  0  1  4)  20-R(  1  1  4)

 DIRECT LATTICE VECTORS COMPON. (A.U.)     RECIP. LATTICE VECTORS COMPON. (A.U.) 
        X            Y            Z              X            Y            Z
   24.5879030  -14.1935232    0.0000000      0.2555397    0.0000000    0.0000005
    0.0000000   28.3910867    0.0000000      0.1277517    0.2213084    0.0000015
   -0.0000337   -0.0000895   15.8736995      0.0000000    0.0000000    0.3958236

 DISK SPACE FOR EIGENVECTORS (FTN 10)    28758528 REALS

 SYMMETRY ADAPTION OF THE BLOCH FUNCTIONS DISABLED
 TTTTTTTTTTTTTTTTTTTTTTTTTTTTTT gordsh1     TELAPSE        0.06 TCPU        0.06

 MATRIX SIZE: P(G)  626766, F(G)  129695, P(G) IRR  315285, F(G) IRR  130655
 MAX G-VECTOR INDEX FOR 1- AND 2-ELECTRON INTEGRALS  53

 TTTTTTTTTTTTTTTTTTTTTTTTTTTTTT INPUT       TELAPSE        3.20 TCPU        3.19

 NEIGHBORS OF THE NON-EQUIVALENT ATOMS

 N = NUMBER OF NEIGHBORS AT DISTANCE R
    ATOM  N     R/ANG      R/AU   NEIGHBORS (ATOM LABELS AND CELL INDICES)
   1 B    1     1.3791     2.6061   73 O   -1 0 0
   1 B    1     1.3793     2.6065   75 O    0 0 0
   1 B    1     1.5503     2.9297   49 C   -1 0 0
   1 B    1     2.3895     4.5155    5 B    0 1 0
   1 B    1     2.3898     4.5160    3 B    0 0 0
   1 B    1     2.5632     4.8437   51 C    0 0 0

   2 B    1     1.3791     2.6061   74 O    0 0 0
   2 B    1     1.3793     2.6065   76 O    0 0 0
   2 B    1     1.5503     2.9297   50 C   -1-1 0
   2 B    1     2.3895     4.5155    6 B    0 0 0
   2 B    1     2.3898     4.5160    4 B    0 0 0
   2 B    1     2.5632     4.8437   52 C    0-1 0

   3 B    1     1.3793     2.6065   77 O    0 1 0
   3 B    1     1.3793     2.6065   75 O    0 0 0
   3 B    1     1.5504     2.9298   37 C    0 0 0
   3 B    1     2.3895     4.5156    5 B    0 1 0
   3 B    1     2.3898     4.5160    1 B    0 0 0
   3 B    1     2.5634     4.8440   43 C    0 1 0

   4 B    1     1.3793     2.6065   78 O    0 0 0
   4 B    1     1.3793     2.6065   76 O    0 0 0
   4 B    1     1.5504     2.9298   38 C    0 0 0
   4 B    1     2.3895     4.5156    6 B    0 0 0
   4 B    1     2.3898     4.5160    2 B    0 0 0
   4 B    1     2.5634     4.8440   44 C    0 0 0

   5 B    1     1.3791     2.6061   73 O   -1-1 0
   5 B    1     1.3793     2.6064   77 O    0 0 0
   5 B    1     1.5502     2.9294   61 C   -1-1 0
   5 B    1     2.3895     4.5155    1 B    0-1 0
   5 B    1     2.3895     4.5156    3 B    0-1 0
   5 B    1     2.5629     4.8433   63 C    0 0 0

   6 B    1     1.3791     2.6061   74 O    0 0 0
   6 B    1     1.3793     2.6064   78 O    0 0 0
   6 B    1     1.5502     2.9294   62 C    0 0 0
   6 B    1     2.3895     4.5155    2 B    0 0 0
   6 B    1     2.3895     4.5156    4 B    0 0 0
   6 B    1     2.5629     4.8433   64 C    0 0 0

   7 B    1     1.3795     2.6068   79 O    0 0 0
   7 B    1     1.3795     2.6070   81 O    0-1 0
   7 B    1     1.5513     2.9316   47 C    0 0 0
   7 B    1     2.3905     4.5174   11 B    0 0 0
   7 B    1     2.3905     4.5175    9 B    0-1 0
   7 B    1     2.5648     4.8468   45 C    0-1 0

   8 B    1     1.3795     2.6068   80 O    0 0 0
   8 B    1     1.3795     2.6070   82 O    0 0 0
   8 B    1     1.5513     2.9316   48 C    0 0 0
   8 B    1     2.3905     4.5174   12 B    0 0 0
   8 B    1     2.3905     4.5175   10 B    1 0 0
   8 B    1     2.5648     4.8468   46 C    0 0 0

   9 B    1     1.3795     2.6069   81 O    0 0 0
   9 B    1     1.3797     2.6072   83 O    1 1 0
   9 B    1     1.5516     2.9322   71 C    0 0 0
   9 B    1     2.3905     4.5175    7 B    0 1 0
   9 B    1     2.3911     4.5185   11 B    0 1 0
   9 B    1     2.5651     4.8473   69 C    1 1 0

  10 B    1     1.3795     2.6069   82 O   -1 0 0
  10 B    1     1.3797     2.6072   84 O    0 0 0
  10 B    1     1.5516     2.9322   72 C    0 0 0
  10 B    1     2.3905     4.5175    8 B   -1 0 0
  10 B    1     2.3911     4.5185   12 B   -1 0 0
  10 B    1     2.5651     4.8473   70 C    0 0 0

  11 B    1     1.3795     2.6068   79 O    0 0 0
  11 B    1     1.3796     2.6071   83 O    1 0 0
  11 B    1     1.5516     2.9322   59 C    0 0 0
  11 B    1     2.3905     4.5174    7 B    0 0 0
  11 B    1     2.3911     4.5185    9 B    0-1 0
  11 B    1     2.5651     4.8473   57 C    1 0 0

  12 B    1     1.3795     2.6068   80 O    0 0 0
  12 B    1     1.3796     2.6071   84 O    1 0 0
  12 B    1     1.5516     2.9322   60 C    0 0 0
  12 B    1     2.3905     4.5174    8 B    0 0 0
  12 B    1     2.3911     4.5185   10 B    1 0 0
  12 B    1     2.5651     4.8473   58 C    1 0 0

  13 H    1     1.0913     2.0623   39 C    0 0 0
  13 H    1     2.1472     4.0576   37 C    0 0 0
  13 H    1     2.1680     4.0969   45 C    0 0 0
  13 H    1     2.5202     4.7625   19 H    0 0 0
  13 H    1     2.5676     4.8520   75 O    0 0 0
  13 H    1     2.7321     5.1630    3 B    0 0 0

  14 H    1     1.0913     2.0623   40 C    0 1 0
  14 H    1     2.1472     4.0576   38 C    0 1 0
  14 H    1     2.1680     4.0969   46 C    0 1 0
  14 H    1     2.5202     4.7625   20 H    0 0 0
  14 H    1     2.5676     4.8520   76 O    0 1 0
  14 H    1     2.7321     5.1630    4 B    0 1 0

  15 H    1     1.0914     2.0625   41 C    0 0 0
  15 H    1     2.1493     4.0616   47 C    0 0 0
  15 H    1     2.1666     4.0942   43 C    0 0 0
  15 H    1     2.5198     4.7618   17 H    0 0 0
  15 H    1     2.5720     4.8604   79 O    0 0 0
  15 H    1     2.7362     5.1707    7 B    0 0 0

  16 H    1     1.0914     2.0625   42 C    0 0 0
  16 H    1     2.1493     4.0616   48 C    0 0 0
  16 H    1     2.1666     4.0942   44 C    0 0 0
  16 H    1     2.5198     4.7618   18 H    0 0 0
  16 H    1     2.5720     4.8604   80 O    0 0 0
  16 H    1     2.7362     5.1707    8 B    0 0 0

  17 H    1     1.0914     2.0624   43 C    0 0 0
  17 H    1     2.1471     4.0575   37 C    0-1 0
  17 H    1     2.1680     4.0970   41 C    0 0 0
  17 H    1     2.5198     4.7618   15 H    0 0 0
  17 H    1     2.5665     4.8500   77 O    0 0 0
  17 H    1     2.7315     5.1618    3 B    0-1 0

  18 H    1     1.0914     2.0624   44 C    0 0 0
  18 H    1     2.1471     4.0575   38 C    0 0 0
  18 H    1     2.1680     4.0970   42 C    0 0 0
  18 H    1     2.5198     4.7618   16 H    0 0 0
  18 H    1     2.5665     4.8500   78 O    0 0 0
  18 H    1     2.7315     5.1618    4 B    0 0 0

  19 H    1     1.0915     2.0626   45 C    0 0 0
  19 H    1     2.1490     4.0610   47 C    0 1 0
  19 H    1     2.1669     4.0948   39 C    0 0 0
  19 H    1     2.5202     4.7625   13 H    0 0 0
  19 H    1     2.5712     4.8588   81 O    0 0 0
  19 H    1     2.7351     5.1686    7 B    0 1 0

  20 H    1     1.0915     2.0626   46 C    0 1 0
  20 H    1     2.1490     4.0610   48 C    0 1 0
  20 H    1     2.1669     4.0948   40 C    0 1 0
  20 H    1     2.5202     4.7625   14 H    0 0 0
  20 H    1     2.5712     4.8588   82 O    0 1 0
  20 H    1     2.7351     5.1686    8 B    0 1 0

  21 H    1     1.0913     2.0623   51 C    0 0 0
  21 H    1     2.1469     4.0571   49 C   -1 0 0
  21 H    1     2.1680     4.0968   57 C    0 0 0
  21 H    1     2.5198     4.7617   27 H    0 0 0
  21 H    1     2.5670     4.8510   75 O    0 0 0
  21 H    1     2.7310     5.1609    1 B    0 0 0

  22 H    1     1.0913     2.0623   52 C    0 0 0
  22 H    1     2.1469     4.0571   50 C   -1 0 0
  22 H    1     2.1680     4.0968   58 C    0 0 0
  22 H    1     2.5198     4.7617   28 H    0 0 0
  22 H    1     2.5670     4.8510   76 O    0 1 0
  22 H    1     2.7310     5.1609    2 B    0 1 0

  23 H    1     1.0914     2.0625   53 C    0 0 0
  23 H    1     2.1493     4.0617   59 C    0 0 0
  23 H    1     2.1664     4.0939   55 C    0 0 0
  23 H    1     2.5192     4.7606   25 H    0 0 0
  23 H    1     2.5735     4.8632   79 O    0 0 0
  23 H    1     2.7371     5.1723   11 B    0 0 0

  24 H    1     1.0914     2.0625   54 C    0 0 0
  24 H    1     2.1493     4.0617   60 C    0 0 0
  24 H    1     2.1664     4.0939   56 C    0 0 0
  24 H    1     2.5192     4.7606   26 H    0 0 0
  24 H    1     2.5735     4.8632   80 O    0 0 0
  24 H    1     2.7371     5.1723   12 B    0 0 0

  25 H    1     1.0914     2.0624   55 C    0 0 0
  25 H    1     2.1475     4.0581   49 C    0 0 0
  25 H    1     2.1679     4.0967   53 C    0 0 0
  25 H    1     2.5192     4.7606   23 H    0 0 0
  25 H    1     2.5675     4.8519   73 O    0 0 0
  25 H    1     2.7328     5.1643    1 B    1 0 0

  26 H    1     1.0914     2.0624   56 C    0 0 0
  26 H    1     2.1475     4.0581   50 C    0 0 0
  26 H    1     2.1679     4.0967   54 C    0 0 0
  26 H    1     2.5192     4.7606   24 H    0 0 0
  26 H    1     2.5675     4.8519   74 O    1 1 0
  26 H    1     2.7328     5.1643    2 B    1 1 0

  27 H    1     1.0914     2.0625   57 C    0 0 0
  27 H    1     2.1491     4.0612   59 C   -1 0 0
  27 H    1     2.1666     4.0942   51 C    0 0 0
  27 H    1     2.5198     4.7617   21 H    0 0 0
  27 H    1     2.5723     4.8609   83 O    0 0 0
  27 H    1     2.7355     5.1693   11 B   -1 0 0

  28 H    1     1.0914     2.0625   58 C    0 0 0
  28 H    1     2.1491     4.0612   60 C   -1 0 0
  28 H    1     2.1666     4.0942   52 C    0 0 0
  28 H    1     2.5198     4.7617   22 H    0 0 0
  28 H    1     2.5723     4.8609   84 O    0 0 0
  28 H    1     2.7355     5.1693   12 B   -1 0 0

  29 H    1     1.0914     2.0624   63 C    0 0 0
  29 H    1     2.1475     4.0582   61 C   -1-1 0
  29 H    1     2.1678     4.0966   69 C    0 0 0
  29 H    1     2.5200     4.7621   35 H    0 0 0
  29 H    1     2.5667     4.8503   77 O    0 0 0
  29 H    1     2.7315     5.1618    5 B    0 0 0

  30 H    1     1.0914     2.0624   64 C    0 0 0
  30 H    1     2.1475     4.0582   62 C    0 0 0
  30 H    1     2.1678     4.0966   70 C    0 0 0
  30 H    1     2.5200     4.7621   36 H    0 0 0
  30 H    1     2.5667     4.8503   78 O    0 0 0
  30 H    1     2.7315     5.1618    6 B    0 0 0

  31 H    1     1.0913     2.0623   65 C    0 0 0
  31 H    1     2.1487     4.0605   71 C    0 0 0
  31 H    1     2.1667     4.0945   67 C    0 0 0
  31 H    1     2.5197     4.7616   33 H    0 0 0
  31 H    1     2.5723     4.8610   81 O    0 0 0
  31 H    1     2.7359     5.1701    9 B    0 0 0

  32 H    1     1.0913     2.0623   66 C    1 1 0
  32 H    1     2.1487     4.0605   72 C    1 1 0
  32 H    1     2.1667     4.0945   68 C    1 1 0
  32 H    1     2.5197     4.7616   34 H    0 0 0
  32 H    1     2.5723     4.8610   82 O    0 1 0
  32 H    1     2.7359     5.1701   10 B    1 1 0

  33 H    1     1.0915     2.0626   67 C    0 0 0
  33 H    1     2.1479     4.0589   61 C    0 0 0
  33 H    1     2.1679     4.0968   65 C    0 0 0
  33 H    1     2.5197     4.7616   31 H    0 0 0
  33 H    1     2.5677     4.8522   73 O    0 0 0
  33 H    1     2.7331     5.1648    5 B    1 1 0

  34 H    1     1.0915     2.0626   68 C    1 1 0
  34 H    1     2.1479     4.0589   62 C    1 1 0
  34 H    1     2.1679     4.0968   66 C    1 1 0
  34 H    1     2.5197     4.7616   32 H    0 0 0
  34 H    1     2.5677     4.8522   74 O    1 1 0
  34 H    1     2.7331     5.1648    6 B    1 1 0

  35 H    1     1.0914     2.0624   69 C    0 0 0
  35 H    1     2.1486     4.0602   71 C   -1-1 0
  35 H    1     2.1668     4.0947   63 C    0 0 0
  35 H    1     2.5200     4.7621   29 H    0 0 0
  35 H    1     2.5717     4.8598   83 O    0 0 0
  35 H    1     2.7349     5.1682    9 B   -1-1 0

  36 H    1     1.0914     2.0624   70 C    0 0 0
  36 H    1     2.1486     4.0602   72 C    0 0 0
  36 H    1     2.1668     4.0947   64 C    0 0 0
  36 H    1     2.5200     4.7621   30 H    0 0 0
  36 H    1     2.5717     4.8598   84 O    0 0 0
  36 H    1     2.7349     5.1682   10 B    0 0 0

  37 C    1     1.4020     2.6495   43 C    0 1 0
  37 C    1     1.4021     2.6495   39 C    0 0 0
  37 C    1     1.5504     2.9298    3 B    0 0 0
  37 C    1     2.1471     4.0575   17 H    0 1 0
  37 C    1     2.1472     4.0576   13 H    0 0 0
  37 C    1     2.4246     4.5817   41 C    0 1 0

  38 C    1     1.4020     2.6495   44 C    0 0 0
  38 C    1     1.4021     2.6495   40 C    0 0 0
  38 C    1     1.5504     2.9298    4 B    0 0 0
  38 C    1     2.1471     4.0575   18 H    0 0 0
  38 C    1     2.1472     4.0576   14 H    0-1 0
  38 C    1     2.4246     4.5817   42 C    0 0 0

  39 C    1     1.0913     2.0623   13 H    0 0 0
  39 C    1     1.3914     2.6294   45 C    0 0 0
  39 C    1     1.4021     2.6495   37 C    0 0 0
  39 C    1     2.1669     4.0948   19 H    0 0 0
  39 C    1     2.4177     4.5688   43 C    0 1 0
  39 C    1     2.4250     4.5825   47 C    0 1 0

  40 C    1     1.0913     2.0623   14 H    0-1 0
  40 C    1     1.3914     2.6294   46 C    0 0 0
  40 C    1     1.4021     2.6495   38 C    0 0 0
  40 C    1     2.1669     4.0948   20 H    0-1 0
  40 C    1     2.4177     4.5688   44 C    0 0 0
  40 C    1     2.4250     4.5825   48 C    0 0 0

  41 C    1     1.0914     2.0625   15 H    0 0 0
  41 C    1     1.3914     2.6293   43 C    0 0 0
  41 C    1     1.4026     2.6505   47 C    0 0 0
  41 C    1     2.1680     4.0970   17 H    0 0 0
  41 C    1     2.4182     4.5697   45 C    0-1 0
  41 C    1     2.4246     4.5817   37 C    0-1 0

  42 C    1     1.0914     2.0625   16 H    0 0 0
  42 C    1     1.3914     2.6293   44 C    0 0 0
  42 C    1     1.4026     2.6505   48 C    0 0 0
  42 C    1     2.1680     4.0970   18 H    0 0 0
  42 C    1     2.4182     4.5697   46 C    0 0 0
  42 C    1     2.4246     4.5817   38 C    0 0 0

  43 C    1     1.0914     2.0624   17 H    0 0 0
  43 C    1     1.3914     2.6293   41 C    0 0 0
  43 C    1     1.4020     2.6495   37 C    0-1 0
  43 C    1     2.1666     4.0942   15 H    0 0 0
  43 C    1     2.4177     4.5688   39 C    0-1 0
  43 C    1     2.4250     4.5826   47 C    0 0 0

  44 C    1     1.0914     2.0624   18 H    0 0 0
  44 C    1     1.3914     2.6293   42 C    0 0 0
  44 C    1     1.4020     2.6495   38 C    0 0 0
  44 C    1     2.1666     4.0942   16 H    0 0 0
  44 C    1     2.4177     4.5688   40 C    0 0 0
  44 C    1     2.4250     4.5826   48 C    0 0 0

  45 C    1     1.0915     2.0626   19 H    0 0 0
  45 C    1     1.3914     2.6294   39 C    0 0 0
  45 C    1     1.4025     2.6504   47 C    0 1 0
  45 C    1     2.1680     4.0969   13 H    0 0 0
  45 C    1     2.4182     4.5697   41 C    0 1 0
  45 C    1     2.4246     4.5818   37 C    0 0 0

  46 C    1     1.0915     2.0626   20 H    0-1 0
  46 C    1     1.3914     2.6294   40 C    0 0 0
  46 C    1     1.4025     2.6504   48 C    0 0 0
  46 C    1     2.1680     4.0969   14 H    0-1 0
  46 C    1     2.4182     4.5697   42 C    0 0 0
  46 C    1     2.4246     4.5818   38 C    0 0 0

  47 C    1     1.4025     2.6504   45 C    0-1 0
  47 C    1     1.4026     2.6505   41 C    0 0 0
  47 C    1     1.5513     2.9316    7 B    0 0 0
  47 C    1     2.1490     4.0610   19 H    0-1 0
  47 C    1     2.1493     4.0616   15 H    0 0 0
  47 C    1     2.4250     4.5825   39 C    0-1 0

  48 C    1     1.4025     2.6504   46 C    0 0 0
  48 C    1     1.4026     2.6505   42 C    0 0 0
  48 C    1     1.5513     2.9316    8 B    0 0 0
  48 C    1     2.1490     4.0610   20 H    0-1 0
  48 C    1     2.1493     4.0616   16 H    0 0 0
  48 C    1     2.4250     4.5825   40 C    0 0 0

  49 C    1     1.4020     2.6494   51 C    1 0 0
  49 C    1     1.4021     2.6495   55 C    0 0 0
  49 C    1     1.5503     2.9297    1 B    1 0 0
  49 C    1     2.1469     4.0571   21 H    1 0 0
  49 C    1     2.1475     4.0581   25 H    0 0 0
  49 C    1     2.4246     4.5818   53 C    0 0 0

  50 C    1     1.4020     2.6494   52 C    1 0 0
  50 C    1     1.4021     2.6495   56 C    0 0 0
  50 C    1     1.5503     2.9297    2 B    1 1 0
  50 C    1     2.1469     4.0571   22 H    1 0 0
  50 C    1     2.1475     4.0581   26 H    0 0 0
  50 C    1     2.4246     4.5818   54 C    0 0 0

  51 C    1     1.0913     2.0623   21 H    0 0 0
  51 C    1     1.3914     2.6293   57 C    0 0 0
  51 C    1     1.4020     2.6494   49 C   -1 0 0
  51 C    1     2.1666     4.0942   27 H    0 0 0
  51 C    1     2.4175     4.5684   55 C   -1 0 0
  51 C    1     2.4251     4.5828   59 C   -1 0 0

  52 C    1     1.0913     2.0623   22 H    0 0 0
  52 C    1     1.3914     2.6293   58 C    0 0 0
  52 C    1     1.4020     2.6494   50 C   -1 0 0
  52 C    1     2.1666     4.0942   28 H    0 0 0
  52 C    1     2.4175     4.5684   56 C   -1 0 0
  52 C    1     2.4251     4.5828   60 C   -1 0 0

  53 C    1     1.0914     2.0625   23 H    0 0 0
  53 C    1     1.3915     2.6295   55 C    0 0 0
  53 C    1     1.4026     2.6505   59 C    0 0 0
  53 C    1     2.1679     4.0967   25 H    0 0 0
  53 C    1     2.4179     4.5691   57 C    1 0 0
  53 C    1     2.4246     4.5818   49 C    0 0 0

  54 C    1     1.0914     2.0625   24 H    0 0 0
  54 C    1     1.3915     2.6295   56 C    0 0 0
  54 C    1     1.4026     2.6505   60 C    0 0 0
  54 C    1     2.1679     4.0967   26 H    0 0 0
  54 C    1     2.4179     4.5691   58 C    1 0 0
  54 C    1     2.4246     4.5818   50 C    0 0 0

  55 C    1     1.0914     2.0624   25 H    0 0 0
  55 C    1     1.3915     2.6295   53 C    0 0 0
  55 C    1     1.4021     2.6495   49 C    0 0 0
  55 C    1     2.1664     4.0939   23 H    0 0 0
  55 C    1     2.4175     4.5684   51 C    1 0 0
  55 C    1     2.4253     4.5832   59 C    0 0 0

  56 C    1     1.0914     2.0624   26 H    0 0 0
  56 C    1     1.3915     2.6295   54 C    0 0 0
  56 C    1     1.4021     2.6495   50 C    0 0 0
  56 C    1     2.1664     4.0939   24 H    0 0 0
  56 C    1     2.4175     4.5684   52 C    1 0 0
  56 C    1     2.4253     4.5832   60 C    0 0 0

  57 C    1     1.0914     2.0625   27 H    0 0 0
  57 C    1     1.3914     2.6293   51 C    0 0 0
  57 C    1     1.4025     2.6504   59 C   -1 0 0
  57 C    1     2.1680     4.0968   21 H    0 0 0
  57 C    1     2.4179     4.5691   53 C   -1 0 0
  57 C    1     2.4247     4.5819   49 C   -1 0 0

  58 C    1     1.0914     2.0625   28 H    0 0 0
  58 C    1     1.3914     2.6293   52 C    0 0 0
  58 C    1     1.4025     2.6504   60 C   -1 0 0
  58 C    1     2.1680     4.0968   22 H    0 0 0
  58 C    1     2.4179     4.5691   54 C   -1 0 0
  58 C    1     2.4247     4.5819   50 C   -1 0 0

  59 C    1     1.4025     2.6504   57 C    1 0 0
  59 C    1     1.4026     2.6505   53 C    0 0 0
  59 C    1     1.5516     2.9322   11 B    0 0 0
  59 C    1     2.1491     4.0612   27 H    1 0 0
  59 C    1     2.1493     4.0617   23 H    0 0 0
  59 C    1     2.4251     4.5828   51 C    1 0 0

  60 C    1     1.4025     2.6504   58 C    1 0 0
  60 C    1     1.4026     2.6505   54 C    0 0 0
  60 C    1     1.5516     2.9322   12 B    0 0 0
  60 C    1     2.1491     4.0612   28 H    1 0 0
  60 C    1     2.1493     4.0617   24 H    0 0 0
  60 C    1     2.4251     4.5828   52 C    1 0 0

  61 C    1     1.4021     2.6496   63 C    1 1 0
  61 C    1     1.4021     2.6497   67 C    0 0 0
  61 C    1     1.5502     2.9294    5 B    1 1 0
  61 C    1     2.1475     4.0582   29 H    1 1 0
  61 C    1     2.1479     4.0589   33 H    0 0 0
  61 C    1     2.4244     4.5814   65 C    0 0 0

  62 C    1     1.4021     2.6496   64 C    0 0 0
  62 C    1     1.4021     2.6497   68 C    0 0 0
  62 C    1     1.5502     2.9294    6 B    0 0 0
  62 C    1     2.1475     4.0582   30 H    0 0 0
  62 C    1     2.1479     4.0589   34 H   -1-1 0
  62 C    1     2.4244     4.5814   66 C    0 0 0

  63 C    1     1.0914     2.0624   29 H    0 0 0
  63 C    1     1.3914     2.6293   69 C    0 0 0
  63 C    1     1.4021     2.6496   61 C   -1-1 0
  63 C    1     2.1668     4.0947   35 H    0 0 0
  63 C    1     2.4179     4.5692   67 C   -1-1 0
  63 C    1     2.4251     4.5827   71 C   -1-1 0

  64 C    1     1.0914     2.0624   30 H    0 0 0
  64 C    1     1.3914     2.6293   70 C    0 0 0
  64 C    1     1.4021     2.6496   62 C    0 0 0
  64 C    1     2.1668     4.0947   36 H    0 0 0
  64 C    1     2.4179     4.5692   68 C    0 0 0
  64 C    1     2.4251     4.5827   72 C    0 0 0

  65 C    1     1.0913     2.0623   31 H    0 0 0
  65 C    1     1.3914     2.6294   67 C    0 0 0
  65 C    1     1.4025     2.6504   71 C    0 0 0
  65 C    1     2.1679     4.0968   33 H    0 0 0
  65 C    1     2.4178     4.5690   69 C    1 1 0
  65 C    1     2.4244     4.5814   61 C    0 0 0

  66 C    1     1.0913     2.0623   32 H   -1-1 0
  66 C    1     1.3914     2.6294   68 C    0 0 0
  66 C    1     1.4025     2.6504   72 C    0 0 0
  66 C    1     2.1679     4.0968   34 H   -1-1 0
  66 C    1     2.4178     4.5690   70 C    0 0 0
  66 C    1     2.4244     4.5814   62 C    0 0 0

  67 C    1     1.0915     2.0626   33 H    0 0 0
  67 C    1     1.3914     2.6294   65 C    0 0 0
  67 C    1     1.4021     2.6497   61 C    0 0 0
  67 C    1     2.1667     4.0945   31 H    0 0 0
  67 C    1     2.4179     4.5692   63 C    1 1 0
  67 C    1     2.4253     4.5832   71 C    0 0 0

  68 C    1     1.0915     2.0626   34 H   -1-1 0
  68 C    1     1.3914     2.6294   66 C    0 0 0
  68 C    1     1.4021     2.6497   62 C    0 0 0
  68 C    1     2.1667     4.0945   32 H   -1-1 0
  68 C    1     2.4179     4.5692   64 C    0 0 0
  68 C    1     2.4253     4.5832   72 C    0 0 0

  69 C    1     1.0914     2.0624   35 H    0 0 0
  69 C    1     1.3914     2.6293   63 C    0 0 0
  69 C    1     1.4025     2.6503   71 C   -1-1 0
  69 C    1     2.1678     4.0966   29 H    0 0 0
  69 C    1     2.4178     4.5690   65 C   -1-1 0
  69 C    1     2.4245     4.5817   61 C   -1-1 0

  70 C    1     1.0914     2.0624   36 H    0 0 0
  70 C    1     1.3914     2.6293   64 C    0 0 0
  70 C    1     1.4025     2.6503   72 C    0 0 0
  70 C    1     2.1678     4.0966   30 H    0 0 0
  70 C    1     2.4178     4.5690   66 C    0 0 0
  70 C    1     2.4245     4.5817   62 C    0 0 0

  71 C    1     1.4025     2.6503   69 C    1 1 0
  71 C    1     1.4025     2.6504   65 C    0 0 0
  71 C    1     1.5516     2.9322    9 B    0 0 0
  71 C    1     2.1486     4.0602   35 H    1 1 0
  71 C    1     2.1487     4.0605   31 H    0 0 0
  71 C    1     2.4251     4.5827   63 C    1 1 0

  72 C    1     1.4025     2.6503   70 C    0 0 0
  72 C    1     1.4025     2.6504   66 C    0 0 0
  72 C    1     1.5516     2.9322   10 B    0 0 0
  72 C    1     2.1486     4.0602   36 H    0 0 0
  72 C    1     2.1487     4.0605   32 H   -1-1 0
  72 C    1     2.4251     4.5827   64 C    0 0 0

  73 O    1     1.3791     2.6061    1 B    1 0 0
  73 O    1     1.3791     2.6061    5 B    1 1 0
  73 O    1     2.3880     4.5126   75 O    1 0 0
  73 O    1     2.3882     4.5130   77 O    1 1 0
  73 O    1     2.5383     4.7966   61 C    0 0 0
  73 O    1     2.5384     4.7968   49 C    0 0 0

  74 O    1     1.3791     2.6061    2 B    0 0 0
  74 O    1     1.3791     2.6061    6 B    0 0 0
  74 O    1     2.3880     4.5126   76 O    0 0 0
  74 O    1     2.3882     4.5130   78 O    0 0 0
  74 O    1     2.5383     4.7966   62 C    0 0 0
  74 O    1     2.5384     4.7968   50 C   -1-1 0

  75 O    1     1.3793     2.6065    1 B    0 0 0
  75 O    1     1.3793     2.6065    3 B    0 0 0
  75 O    1     2.3880     4.5126   73 O   -1 0 0
  75 O    1     2.3882     4.5131   77 O    0 1 0
  75 O    1     2.5391     4.7981   37 C    0 0 0
  75 O    1     2.5395     4.7990   49 C   -1 0 0

  76 O    1     1.3793     2.6065    2 B    0 0 0
  76 O    1     1.3793     2.6065    4 B    0 0 0
  76 O    1     2.3880     4.5126   74 O    0 0 0
  76 O    1     2.3882     4.5131   78 O    0 0 0
  76 O    1     2.5391     4.7981   38 C    0 0 0
  76 O    1     2.5395     4.7990   50 C   -1-1 0

  77 O    1     1.3793     2.6064    5 B    0 0 0
  77 O    1     1.3793     2.6065    3 B    0-1 0
  77 O    1     2.3882     4.5130   73 O   -1-1 0
  77 O    1     2.3882     4.5131   75 O    0-1 0
  77 O    1     2.5390     4.7980   37 C    0-1 0
  77 O    1     2.5391     4.7982   61 C   -1-1 0

  78 O    1     1.3793     2.6064    6 B    0 0 0
  78 O    1     1.3793     2.6065    4 B    0 0 0
  78 O    1     2.3882     4.5130   74 O    0 0 0
  78 O    1     2.3882     4.5131   76 O    0 0 0
  78 O    1     2.5390     4.7980   38 C    0 0 0
  78 O    1     2.5391     4.7982   62 C    0 0 0

  79 O    1     1.3795     2.6068   11 B    0 0 0
  79 O    1     1.3795     2.6068    7 B    0 0 0
  79 O    1     2.3880     4.5126   83 O    1 0 0
  79 O    1     2.3884     4.5134   81 O    0-1 0
  79 O    1     2.5400     4.7998   47 C    0 0 0
  79 O    1     2.5403     4.8005   59 C    0 0 0

  80 O    1     1.3795     2.6068   12 B    0 0 0
  80 O    1     1.3795     2.6068    8 B    0 0 0
  80 O    1     2.3880     4.5126   84 O    1 0 0
  80 O    1     2.3884     4.5134   82 O    0 0 0
  80 O    1     2.5400     4.7998   48 C    0 0 0
  80 O    1     2.5403     4.8005   60 C    0 0 0

  81 O    1     1.3795     2.6069    9 B    0 0 0
  81 O    1     1.3795     2.6070    7 B    0 1 0
  81 O    1     2.3881     4.5128   83 O    1 1 0
  81 O    1     2.3884     4.5134   79 O    0 1 0
  81 O    1     2.5404     4.8006   47 C    0 1 0
  81 O    1     2.5405     4.8008   71 C    0 0 0

  82 O    1     1.3795     2.6069   10 B    1 0 0
  82 O    1     1.3795     2.6070    8 B    0 0 0
  82 O    1     2.3881     4.5128   84 O    1 0 0
  82 O    1     2.3884     4.5134   80 O    0 0 0
  82 O    1     2.5404     4.8006   48 C    0 0 0
  82 O    1     2.5405     4.8008   72 C    1 0 0

  83 O    1     1.3796     2.6071   11 B   -1 0 0
  83 O    1     1.3797     2.6072    9 B   -1-1 0
  83 O    1     2.3880     4.5126   79 O   -1 0 0
  83 O    1     2.3881     4.5128   81 O   -1-1 0
  83 O    1     2.5409     4.8016   71 C   -1-1 0
  83 O    1     2.5410     4.8019   59 C   -1 0 0

  84 O    1     1.3796     2.6071   12 B   -1 0 0
  84 O    1     1.3797     2.6072   10 B    0 0 0
  84 O    1     2.3880     4.5126   80 O   -1 0 0
  84 O    1     2.3881     4.5128   82 O   -1 0 0
  84 O    1     2.5409     4.8016   72 C    0 0 0
  84 O    1     2.5410     4.8019   60 C   -1 0 0


 SYMMETRY ALLOWED INTERNAL DEGREE(S) OF FREEDOM: 249
 TTTTTTTTTTTTTTTTTTTTTTTTTTTTTT SYMM        TELAPSE        3.21 TCPU        3.20
 TTTTTTTTTTTTTTTTTTTTTTTTTTTTTT INT_SCREEN  TELAPSE        3.41 TCPU        3.40

 DFT PARAMETERS

     ATOM       ELECTRONS   NET CHARGE   R(ANGSTROM)
   1   5  B       5.0000      0.0000     0.89000000
  13   1  H       1.0000      0.0000     1.11000000
  37   6  C       6.0000      0.0000     0.77000000
  73   8  O       8.0000      0.0000     0.74000000

 SIZE OF GRID=    2646836
 TTTTTTTTTTTTTTTTTTTTTTTTTTTTTT MAKE_GRID2  TELAPSE       22.57 TCPU       22.55
 BECKE WEIGHT FUNCTION
 RADSAFE =     2.00
 TOLERANCES - DENSITY:10**- 6; POTENTIAL:10**- 9; GRID WGT:10**-14

 RADIAL INTEGRATION  - INTERVALS (POINTS,UPPER LIMIT):            1( 75,  4.0*R)

 ANGULAR INTEGRATION - INTERVALS (ACCURACY LEVEL [N. POINTS] UPPER LIMIT):
  1(  4[  86]   0.2)  2(  8[ 194]   0.5)  3( 12[ 350]   0.9)  4( 16[ 974]   3.5)
  5( 12[ 350]9999.0)
 TTTTTTTTTTTTTTTTTTTTTTTTTTTTTT INT_CALC    TELAPSE       22.93 TCPU       22.90
 EEEEEEEEEE INT_CALC TERMINATION  DATE 19 02 2026 TIME 20:27:20.5

 *******************************************************************************
 cof-1_z42_L020_serr                                                             
 CRYSTAL - SCF - TYPE OF CALCULATION :  RESTRICTED CLOSED SHELL
 *******************************************************************************

 CAPPA:IS1  2;IS2  2;IS3  8; K PTS MONK NET  20; SYMMOPS:K SPACE   2;G SPACE   1

 TTTTTTTTTTTTTTTTTTTTTTTTTTTTTT SDIK        TELAPSE       26.01 TCPU       55.97

 AAAAAAAAAAAAAAAAAAAAAAAAAAAAAAAAAAAAAAAAAAAAAAAAAAAAAAAAAAAAAAAAAAAAAAAAAAAAAAA
         ATOMIC WAVEFUNCTION(S)


 NUCLEAR CHARGE  5.0  SYMMETRY SPECIES            S    P
 N. ELECTRONS    5.0  NUMBER OF PRIMITIVE GTOS    8    4
                      NUMBER OF CONTRACTED GTOS   4    2
                      NUMBER OF CLOSED SHELLS     2    0
                      OPEN SHELL OCCUPATION       0    1

  ZNUC  SCFIT    TOTAL HF ENERGY   KINETIC ENERGY   VIRIAL THEOREM ACCURACY
   5.0    11    -2.451164084E+01  2.462155050E+01 -1.995536038E+00  1.5E-06

 NUCLEAR CHARGE  1.0  SYMMETRY SPECIES            S
 N. ELECTRONS    1.0  NUMBER OF PRIMITIVE GTOS    4
                      NUMBER OF CONTRACTED GTOS   2
                      NUMBER OF CLOSED SHELLS     0
                      OPEN SHELL OCCUPATION       1

  ZNUC  SCFIT    TOTAL HF ENERGY   KINETIC ENERGY   VIRIAL THEOREM ACCURACY
   1.0     1    -4.977266687E-01  5.190767460E-01 -1.958869132E+00  0.0E+00

 NUCLEAR CHARGE  6.0  SYMMETRY SPECIES            S    P
 N. ELECTRONS    6.0  NUMBER OF PRIMITIVE GTOS    8    4
                      NUMBER OF CONTRACTED GTOS   4    2
                      NUMBER OF CLOSED SHELLS     2    0
                      OPEN SHELL OCCUPATION       0    2

  ZNUC  SCFIT    TOTAL HF ENERGY   KINETIC ENERGY   VIRIAL THEOREM ACCURACY
   6.0     9    -3.766704647E+01  3.775180683E+01 -1.997754800E+00  1.1E-06

 NUCLEAR CHARGE  8.0  SYMMETRY SPECIES            S    P
 N. ELECTRONS    8.0  NUMBER OF PRIMITIVE GTOS    8    4
                      NUMBER OF CONTRACTED GTOS   4    2
                      NUMBER OF CLOSED SHELLS     2    0
                      OPEN SHELL OCCUPATION       0    4

  ZNUC  SCFIT    TOTAL HF ENERGY   KINETIC ENERGY   VIRIAL THEOREM ACCURACY
   8.0    12    -7.477373220E+01  7.477365593E+01 -2.000001020E+00  3.8E-06

 AAAAAAAAAAAAAAAAAAAAAAAAAAAAAAAAAAAAAAAAAAAAAAAAAAAAAAAAAAAAAAAAAAAAAAAAAAAAAAA

 CHARGE NORMALIZATION FACTOR   1.00000000
 TOTAL ATOMIC CHARGES:
   5.0000000   5.0000000   5.0000000   5.0000000   5.0000000   5.0000000
   5.0000000   5.0000000   5.0000000   5.0000000   5.0000000   5.0000000
   1.0000000   1.0000000   1.0000000   1.0000000   1.0000000   1.0000000
   1.0000000   1.0000000   1.0000000   1.0000000   1.0000000   1.0000000
   1.0000000   1.0000000   1.0000000   1.0000000   1.0000000   1.0000000
   1.0000000   1.0000000   1.0000000   1.0000000   1.0000000   1.0000000
   6.0000000   6.0000000   6.0000000   6.0000000   6.0000000   6.0000000
   6.0000000   6.0000000   6.0000000   6.0000000   6.0000000   6.0000000
   6.0000000   6.0000000   6.0000000   6.0000000   6.0000000   6.0000000
   6.0000000   6.0000000   6.0000000   6.0000000   6.0000000   6.0000000
   6.0000000   6.0000000   6.0000000   6.0000000   6.0000000   6.0000000
   6.0000000   6.0000000   6.0000000   6.0000000   6.0000000   6.0000000
   8.0000000   8.0000000   8.0000000   8.0000000   8.0000000   8.0000000
   8.0000000   8.0000000   8.0000000   8.0000000   8.0000000   8.0000000
 TTTTTTTTTTTTTTTTTTTTTTTTTTTTTT MOQGAD      TELAPSE       26.20 TCPU       58.56
 TTTTTTTTTTTTTTTTTTTTTTTTTTTTTT SHELLXN     TELAPSE       46.20 TCPU      629.24
 TTTTTTTTTTTTTTTTTTTTTTTTTTTTTT MONMO3      TELAPSE       46.80 TCPU      648.42
 NUMERICALLY INTEGRATED DENSITY    396.0000214606
 TTTTTTTTTTTTTTTTTTTTTTTTTTTTTT NUMDFT      TELAPSE       48.38 TCPU      698.93
 CYC   0 ETOT(AU) -2.591910742835E+03 DETOT -2.59E+03 tst  0.00E+00 PX  1.00E+00
 TTTTTTTTTTTTTTTTTTTTTTTTTTTTTT DIIS        TELAPSE       48.49 TCPU      702.40
 TTTTTTTTTTTTTTTTTTTTTTTTTTTTTT FDIK        TELAPSE       50.47 TCPU      765.75
 INSULATING STATE
 TOP OF VALENCE BANDS -    BAND    198; K    1; EIG -3.1241891E-01 AU
 BOTTOM OF VIRTUAL BANDS - BAND    199; K    1; EIG -1.5673623E-01 AU
 DIRECT ENERGY BAND GAP:   4.2363 eV
 TTTTTTTTTTTTTTTTTTTTTTTTTTTTTT PDIG        TELAPSE       52.55 TCPU      772.71
 CHARGE NORMALIZATION FACTOR   1.00000000
 TOTAL ATOMIC CHARGES:
   4.1675645   4.1522874   4.1591786   4.1644739   4.1594226   4.1647070
   4.1643162   4.1590377   4.1640890   4.1588159   4.1519531   4.1671894
   0.7852176   0.7852824   0.7853973   0.7853329   0.7853352   0.7850899
   0.7852090   0.7854555   0.7851834   0.7854606   0.7856245   0.7853497
   0.7851739   0.7854503   0.7855882   0.7853137   0.7853372   0.7850919
   0.7852737   0.7855192   0.7851692   0.7852339   0.7853897   0.7853261
   6.0441516   6.0438967   6.2660391   6.2655100   6.2654751   6.2659998
   6.2653195   6.2651746   6.2651157   6.2652610   6.0431707   6.0434137
   6.0426631   6.0461764   6.2653249   6.2657297   6.2658028   6.2654051
   6.2652237   6.2656390   6.2658165   6.2654086   6.0449421   6.0414513
   6.0445027   6.0442514   6.2651014   6.2649514   6.2654958   6.2656482
   6.2656660   6.2651432   6.2657632   6.2662768   6.0426910   6.0429420
   8.6929596   8.6939737   8.6930630   8.6940790   8.6948154   8.6911001
   8.6943936   8.6933828   8.6915057   8.6952115   8.6945685   8.6935631
 TTTTTTTTTTTTTTTTTTTTTTTTTTTTTT MOQGAD      TELAPSE       52.67 TCPU      772.83
 TTTTTTTTTTTTTTTTTTTTTTTTTTTTTT SHELLXN     TELAPSE       71.50 TCPU     1373.52
 TTTTTTTTTTTTTTTTTTTTTTTTTTTTTT MONMO3      TELAPSE       72.11 TCPU     1393.13
 NUMERICALLY INTEGRATED DENSITY    396.0000346101
 TTTTTTTTTTTTTTTTTTTTTTTTTTTTTT NUMDFT      TELAPSE       73.77 TCPU     1446.10
 CYC   1 ETOT(AU) -2.577625140451E+03 DETOT  1.43E+01 tst  0.00E+00 PX  1.00E+00
 TTTTTTTTTTTTTTTTTTTTTTTTTTTTTT DIIS        TELAPSE       73.91 TCPU     1450.55
 DIIS TEST: 0.22401E+01 AT SCF   CYCLE   1 - MIX   30 %
 TTTTTTTTTTTTTTTTTTTTTTTTTTTTTT FDIK        TELAPSE       75.94 TCPU     1515.61
 INSULATING STATE
 TOP OF VALENCE BANDS -    BAND    198; K    1; EIG -2.2230870E-01 AU
 BOTTOM OF VIRTUAL BANDS - BAND    199; K    1; EIG -7.8254298E-02 AU
 DIRECT ENERGY BAND GAP:   3.9199 eV
 TTTTTTTTTTTTTTTTTTTTTTTTTTTTTT PDIG        TELAPSE       77.99 TCPU     1522.55
 CHARGE NORMALIZATION FACTOR   1.00000000
 TOTAL ATOMIC CHARGES:
   4.6886348   4.7205325   4.7126730   4.7028697   4.7127028   4.7028659
   4.7031326   4.7129897   4.7030876   4.7129856   4.7208223   4.6888417
   0.9138087   0.9135029   0.9136035   0.9138447   0.9161869   0.9166508
   0.9166974   0.9161895   0.9155787   0.9097934   0.9098113   0.9157058
   0.9155664   0.9097653   0.9097952   0.9156771   0.9161715   0.9166354
   0.9167733   0.9162601   0.9137638   0.9134407   0.9136144   0.9138388
   5.8716793   5.8558838   6.1421964   6.1018240   6.1023186   6.1426611
   6.1317275   6.1415049   6.1421451   6.1325177   5.8586157   5.8744747
   5.8377349   5.8975910   6.1223435   6.1412596   6.1420484   6.1230525
   6.1225430   6.1414719   6.1419243   6.1229240   5.9010248   5.8409728
   5.8715811   5.8558353   6.1318019   6.1416051   6.1419817   6.1323713
   6.1424426   6.1020401   6.1020813   6.1423834   5.8588037   5.8747022
   8.3328282   8.3353668   8.3332023   8.3357180   8.3486419   8.3372780
   8.3352542   8.3326759   8.3369802   8.3484426   8.3356684   8.3330601
 TTTTTTTTTTTTTTTTTTTTTTTTTTTTTT MOQGAD      TELAPSE       78.11 TCPU     1522.67
 TTTTTTTTTTTTTTTTTTTTTTTTTTTTTT SHELLXN     TELAPSE       96.86 TCPU     2120.65
 TTTTTTTTTTTTTTTTTTTTTTTTTTTTTT MONMO3      TELAPSE       97.45 TCPU     2139.82
 NUMERICALLY INTEGRATED DENSITY    396.0000425930
 TTTTTTTTTTTTTTTTTTTTTTTTTTTTTT NUMDFT      TELAPSE       99.06 TCPU     2191.20
 CYC   2 ETOT(AU) -2.578014432551E+03 DETOT -3.89E-01 tst  4.39E-03 PX  1.58E-01
 TTTTTTTTTTTTTTTTTTTTTTTTTTTTTT DIIS        TELAPSE       99.23 TCPU     2196.45
 DIIS TEST: 0.93994E+00 AT SCF   CYCLE   2 - DIIS ACTIVE - HISTORY:     2 CYCLES
 TTTTTTTTTTTTTTTTTTTTTTTTTTTTTT FDIK        TELAPSE      101.25 TCPU     2261.11
 INSULATING STATE
 TOP OF VALENCE BANDS -    BAND    198; K    1; EIG -2.3561116E-01 AU
 BOTTOM OF VIRTUAL BANDS - BAND    199; K    1; EIG -7.3852568E-02 AU
 DIRECT ENERGY BAND GAP:   4.4017 eV
 TTTTTTTTTTTTTTTTTTTTTTTTTTTTTT PDIG        TELAPSE      103.26 TCPU     2268.02
 CHARGE NORMALIZATION FACTOR   1.00000000
 TOTAL ATOMIC CHARGES:
   4.4936428   4.5015268   4.4997451   4.4995018   4.4999001   4.4996023
   4.4990656   4.4992973   4.4988896   4.4991416   4.5008867   4.4929788
   0.8934064   0.8846744   0.8847349   0.8936293   0.8897060   0.8933851
   0.8935101   0.8897780   0.8887066   0.8888891   0.8892098   0.8888424
   0.8887440   0.8889169   0.8891387   0.8887656   0.8896973   0.8933823
   0.8935672   0.8898393   0.8934284   0.8846746   0.8846900   0.8935800
   5.8828055   5.8966058   6.1539181   6.1664815   6.1658893   6.1533364
   6.1634857   6.1567739   6.1561087   6.1625964   5.8953584   5.8815413
   5.9086752   5.8830920   6.1650867   6.1542040   6.1534431   6.1646076
   6.1651196   6.1542523   6.1533579   6.1645611   5.8814539   5.9071558
   5.8830561   5.8969133   6.1634398   6.1567305   6.1562302   6.1627048
   6.1538475   6.1663939   6.1659338   6.1533434   5.8950457   5.8812407
   8.5123975   8.5109513   8.5125617   8.5111076   8.5108320   8.5087656
   8.5110708   8.5126336   8.5089488   8.5107728   8.5112568   8.5128370
 TTTTTTTTTTTTTTTTTTTTTTTTTTTTTT MOQGAD      TELAPSE      103.38 TCPU     2268.13
 TTTTTTTTTTTTTTTTTTTTTTTTTTTTTT SHELLXN     TELAPSE      122.21 TCPU     2868.71
 TTTTTTTTTTTTTTTTTTTTTTTTTTTTTT MONMO3      TELAPSE      122.82 TCPU     2888.30
 NUMERICALLY INTEGRATED DENSITY    396.0000415482
 TTTTTTTTTTTTTTTTTTTTTTTTTTTTTT NUMDFT      TELAPSE      124.48 TCPU     2941.47
 CYC   3 ETOT(AU) -2.578208388988E+03 DETOT -1.94E-01 tst  7.15E-04 PX  6.38E-02
 TTTTTTTTTTTTTTTTTTTTTTTTTTTTTT DIIS        TELAPSE      124.67 TCPU     2947.58
 DIIS TEST: 0.28104E-01 AT SCF   CYCLE   3 - DIIS ACTIVE - HISTORY:     3 CYCLES
 TTTTTTTTTTTTTTTTTTTTTTTTTTTTTT FDIK        TELAPSE      126.71 TCPU     3012.59
 INSULATING STATE
 TOP OF VALENCE BANDS -    BAND    198; K    1; EIG -2.4589927E-01 AU
 BOTTOM OF VIRTUAL BANDS - BAND    199; K    1; EIG -8.2896972E-02 AU
 DIRECT ENERGY BAND GAP:   4.4355 eV
 TTTTTTTTTTTTTTTTTTTTTTTTTTTTTT PDIG        TELAPSE      128.77 TCPU     3019.55
 CHARGE NORMALIZATION FACTOR   1.00000000
 TOTAL ATOMIC CHARGES:
   4.4975008   4.5118434   4.5071573   4.5024872   4.5073046   4.5025800
   4.5027154   4.5073877   4.5025462   4.5072462   4.5118839   4.4975366
   0.8723830   0.8738204   0.8739628   0.8723707   0.8747354   0.8745185
   0.8745571   0.8747002   0.8749362   0.8694134   0.8693589   0.8751329
   0.8749591   0.8694171   0.8693033   0.8750729   0.8747420   0.8745182
   0.8746192   0.8747510   0.8723905   0.8738002   0.8739351   0.8723296
   5.9460205   5.9267592   6.1741367   6.1432933   6.1441642   6.1748619
   6.1655176   6.1695571   6.1707068   6.1671096   5.9302722   5.9496404
   5.9094757   5.9711569   6.1531336   6.1748775   6.1761586   6.1541738
   6.1531139   6.1749107   6.1761439   6.1541725   5.9751243   5.9130505
   5.9459786   5.9267810   6.1654263   6.1695089   6.1707602   6.1672022
   6.1740763   6.1431941   6.1442434   6.1748810   5.9302770   5.9496905
   8.4769150   8.4806953   8.4772028   8.4809620   8.4909847   8.4791663
   8.4808697   8.4769273   8.4790831   8.4912514   8.4812197   8.4772546
 TTTTTTTTTTTTTTTTTTTTTTTTTTTTTT MOQGAD      TELAPSE      128.89 TCPU     3019.67
 TTTTTTTTTTTTTTTTTTTTTTTTTTTTTT SHELLXN     TELAPSE      147.68 TCPU     3619.11
 TTTTTTTTTTTTTTTTTTTTTTTTTTTTTT MONMO3      TELAPSE      148.28 TCPU     3638.27
 NUMERICALLY INTEGRATED DENSITY    396.0000409720
 TTTTTTTTTTTTTTTTTTTTTTTTTTTTTT NUMDFT      TELAPSE      149.89 TCPU     3689.77
 CYC   4 ETOT(AU) -2.578213738967E+03 DETOT -5.35E-03 tst  4.58E-05 PX  2.13E-02
 TTTTTTTTTTTTTTTTTTTTTTTTTTTTTT DIIS        TELAPSE      150.11 TCPU     3696.18
 DIIS TEST: 0.10268E-01 AT SCF   CYCLE   4 - DIIS ACTIVE - HISTORY:     4 CYCLES
 TTTTTTTTTTTTTTTTTTTTTTTTTTTTTT FDIK        TELAPSE      152.13 TCPU     3760.55
 INSULATING STATE
 TOP OF VALENCE BANDS -    BAND    198; K    1; EIG -2.4475988E-01 AU
 BOTTOM OF VIRTUAL BANDS - BAND    199; K    1; EIG -8.2330577E-02 AU
 DIRECT ENERGY BAND GAP:   4.4199 eV
 TTTTTTTTTTTTTTTTTTTTTTTTTTTTTT PDIG        TELAPSE      154.14 TCPU     3767.43
 CHARGE NORMALIZATION FACTOR   1.00000000
 TOTAL ATOMIC CHARGES:
   4.4966781   4.5138155   4.5092381   4.5052018   4.5093791   4.5052980
   4.5049620   4.5090246   4.5048003   4.5088901   4.5134423   4.4962465
   0.8775200   0.8732210   0.8733150   0.8777497   0.8768635   0.8780258
   0.8781924   0.8769857   0.8751360   0.8737479   0.8740631   0.8752935
   0.8751532   0.8737539   0.8740095   0.8752336   0.8768547   0.8780198
   0.8782570   0.8770514   0.8775199   0.8731976   0.8732899   0.8777179
   5.9193161   5.9233751   6.1661095   6.1584331   6.1577766   6.1655147
   6.1683634   6.1692236   6.1683794   6.1672261   5.9218350   5.9177947
   5.9246386   5.9274479   6.1676284   6.1654028   6.1646227   6.1671199
   6.1677135   6.1654937   6.1645163   6.1670347   5.9258936   5.9231384
   5.9194799   5.9236022   6.1683310   6.1692021   6.1684344   6.1672793
   6.1661219   6.1584197   6.1577641   6.1654536   5.9216270   5.9176124
   8.4881387   8.4878341   8.4883443   8.4880285   8.4925184   8.4878274
   8.4878265   8.4882835   8.4878704   8.4922615   8.4880678   8.4885250
 TTTTTTTTTTTTTTTTTTTTTTTTTTTTTT MOQGAD      TELAPSE      154.26 TCPU     3767.55
 TTTTTTTTTTTTTTTTTTTTTTTTTTTTTT SHELLXN     TELAPSE      173.15 TCPU     4370.19
 TTTTTTTTTTTTTTTTTTTTTTTTTTTTTT MONMO3      TELAPSE      173.77 TCPU     4389.78
 NUMERICALLY INTEGRATED DENSITY    396.0000411127
 TTTTTTTTTTTTTTTTTTTTTTTTTTTTTT NUMDFT      TELAPSE      175.43 TCPU     4442.78
 CYC   5 ETOT(AU) -2.578216103006E+03 DETOT -2.36E-03 tst  2.17E-05 PX  1.16E-02
 TTTTTTTTTTTTTTTTTTTTTTTTTTTTTT DIIS        TELAPSE      175.67 TCPU     4449.26
 DIIS TEST: 0.54286E-03 AT SCF   CYCLE   5 - DIIS ACTIVE - HISTORY:     5 CYCLES
 TTTTTTTTTTTTTTTTTTTTTTTTTTTTTT FDIK        TELAPSE      177.69 TCPU     4513.78
 INSULATING STATE
 TOP OF VALENCE BANDS -    BAND    198; K    1; EIG -2.4389095E-01 AU
 BOTTOM OF VIRTUAL BANDS - BAND    199; K    1; EIG -8.1773815E-02 AU
 DIRECT ENERGY BAND GAP:   4.4114 eV
 TTTTTTTTTTTTTTTTTTTTTTTTTTTTTT PDIG        TELAPSE      179.68 TCPU     4520.66
 CHARGE NORMALIZATION FACTOR   1.00000000
 TOTAL ATOMIC CHARGES:
   4.4979582   4.5128667   4.5086824   4.5049864   4.5088272   4.5050809
   4.5051108   4.5087768   4.5049477   4.5086381   4.5127795   4.4978747
   0.8781591   0.8752017   0.8753296   0.8781652   0.8780579   0.8796085
   0.8796294   0.8780123   0.8779816   0.8745051   0.8744968   0.8781710
   0.8780100   0.8745165   0.8744355   0.8781047   0.8780591   0.8796059
   0.8796910   0.8780671   0.8781706   0.8751861   0.8752990   0.8781227
   5.9198187   5.9135847   6.1684083   6.1541557   6.1549274   6.1690344
   6.1663288   6.1662092   6.1673809   6.1679393   5.9169236   5.9232151
   5.9075077   5.9352325   6.1593512   6.1690337   6.1701336   6.1602665
   6.1593219   6.1690514   6.1701177   6.1602748   5.9386115   5.9105713
   5.9198674   5.9136964   6.1662567   6.1661655   6.1674585   6.1680380
   6.1683278   6.1540451   6.1550060   6.1690640   5.9168246   5.9231528
   8.4885309   8.4898758   8.4887831   8.4901117   8.4957624   8.4881861
   8.4901059   8.4885960   8.4882135   8.4961301   8.4904014   8.4888850
 TTTTTTTTTTTTTTTTTTTTTTTTTTTTTT MOQGAD      TELAPSE      179.80 TCPU     4520.78
 TTTTTTTTTTTTTTTTTTTTTTTTTTTTTT SHELLXN     TELAPSE      198.54 TCPU     5118.43
 TTTTTTTTTTTTTTTTTTTTTTTTTTTTTT MONMO3      TELAPSE      199.14 TCPU     5137.56
 NUMERICALLY INTEGRATED DENSITY    396.0000412066
 TTTTTTTTTTTTTTTTTTTTTTTTTTTTTT NUMDFT      TELAPSE      200.77 TCPU     5189.86
 CYC   6 ETOT(AU) -2.578216171065E+03 DETOT -6.81E-05 tst  5.32E-06 PX  4.02E-03
 TTTTTTTTTTTTTTTTTTTTTTTTTTTTTT DIIS        TELAPSE      201.04 TCPU     5196.37
 DIIS TEST: 0.30142E-03 AT SCF   CYCLE   6 - DIIS ACTIVE - HISTORY:     6 CYCLES
 TTTTTTTTTTTTTTTTTTTTTTTTTTTTTT FDIK        TELAPSE      203.08 TCPU     5261.31
 INSULATING STATE
 TOP OF VALENCE BANDS -    BAND    198; K    1; EIG -2.4413339E-01 AU
 BOTTOM OF VIRTUAL BANDS - BAND    199; K    1; EIG -8.1720390E-02 AU
 DIRECT ENERGY BAND GAP:   4.4195 eV
 TTTTTTTTTTTTTTTTTTTTTTTTTTTTTT PDIG        TELAPSE      205.14 TCPU     5268.27
 CHARGE NORMALIZATION FACTOR   1.00000000
 TOTAL ATOMIC CHARGES:
   4.4978748   4.5130701   4.5087629   4.5051646   4.5089067   4.5052601
   4.5049939   4.5086102   4.5048309   4.5084724   4.5127400   4.4975157
   0.8783332   0.8749815   0.8750807   0.8785046   0.8780201   0.8794081
   0.8795445   0.8781039   0.8773371   0.8746078   0.8748347   0.8774976
   0.8773586   0.8746151   0.8747789   0.8774360   0.8780166   0.8794051
   0.8796063   0.8781636   0.8783390   0.8749630   0.8750519   0.8784675
   5.9209114   5.9185017   6.1674814   6.1553315   6.1550429   6.1672007
   6.1670591   6.1676723   6.1672550   6.1665067   5.9181050   5.9205666
   5.9154507   5.9333495   6.1625319   6.1673789   6.1670885   6.1623957
   6.1625815   6.1674534   6.1670074   6.1623364   5.9331111   5.9151532
   5.9210249   5.9186766   6.1670018   6.1676348   6.1673249   6.1665874
   6.1674584   6.1552785   6.1550679   6.1671743   5.9179456   5.9204374
   8.4878970   8.4886904   8.4881204   8.4889008   8.4944611   8.4878756
   8.4887479   8.4880346   8.4878919   8.4943276   8.4890145   8.4882957
 TTTTTTTTTTTTTTTTTTTTTTTTTTTTTT MOQGAD      TELAPSE      205.26 TCPU     5268.39
 TTTTTTTTTTTTTTTTTTTTTTTTTTTTTT SHELLXN     TELAPSE      224.04 TCPU     5867.50
 TTTTTTTTTTTTTTTTTTTTTTTTTTTTTT MONMO3      TELAPSE      224.66 TCPU     5887.11
 NUMERICALLY INTEGRATED DENSITY    396.0000411729
 TTTTTTTTTTTTTTTTTTTTTTTTTTTTTT NUMDFT      TELAPSE      226.32 TCPU     5940.16
 CYC   7 ETOT(AU) -2.578216249420E+03 DETOT -7.84E-05 tst  1.16E-06 PX  1.80E-03
 TTTTTTTTTTTTTTTTTTTTTTTTTTTTTT DIIS        TELAPSE      226.61 TCPU     5946.69
 DIIS TEST: 0.77448E-05 AT SCF   CYCLE   7 - DIIS ACTIVE - HISTORY:     7 CYCLES
 TTTTTTTTTTTTTTTTTTTTTTTTTTTTTT FDIK        TELAPSE      228.64 TCPU     6011.26
 INSULATING STATE
 TOP OF VALENCE BANDS -    BAND    198; K    1; EIG -2.4414696E-01 AU
 BOTTOM OF VIRTUAL BANDS - BAND    199; K    1; EIG -8.1754198E-02 AU
 DIRECT ENERGY BAND GAP:   4.4189 eV
 TTTTTTTTTTTTTTTTTTTTTTTTTTTTTT PDIG        TELAPSE      230.71 TCPU     6018.23
 CHARGE NORMALIZATION FACTOR   1.00000000
 TOTAL ATOMIC CHARGES:
   4.4977018   4.5131757   4.5088668   4.5051461   4.5090102   4.5052415
   4.5051123   4.5088256   4.5049494   4.5086880   4.5129627   4.4974659
   0.8783599   0.8748845   0.8749972   0.8784615   0.8779988   0.8793972
   0.8794771   0.8780213   0.8772513   0.8746321   0.8747602   0.8774260
   0.8772752   0.8746418   0.8747020   0.8773622   0.8779956   0.8793932
   0.8795400   0.8780808   0.8783670   0.8748662   0.8749684   0.8784232
   5.9199390   5.9178856   6.1670146   6.1553321   6.1554882   6.1671144
   6.1667089   6.1671559   6.1674839   6.1671647   5.9191690   5.9212624
   5.9149002   5.9323710   6.1624218   6.1670142   6.1673102   6.1627318
   6.1624450   6.1670648   6.1672532   6.1626973   5.9336602   5.9160248
   5.9200386   5.9180485   6.1666546   6.1671222   6.1675503   6.1672423
   6.1669767   6.1552653   6.1555260   6.1671027   5.9190221   5.9211476
   8.4879817   8.4886911   8.4882141   8.4889093   8.4942223   8.4877768
   8.4888150   8.4880760   8.4878142   8.4943282   8.4890878   8.4883450
 TTTTTTTTTTTTTTTTTTTTTTTTTTTTTT MOQGAD      TELAPSE      230.82 TCPU     6018.35
 TTTTTTTTTTTTTTTTTTTTTTTTTTTTTT SHELLXN     TELAPSE      249.58 TCPU     6616.64
 TTTTTTTTTTTTTTTTTTTTTTTTTTTTTT MONMO3      TELAPSE      250.18 TCPU     6635.81
 NUMERICALLY INTEGRATED DENSITY    396.0000411721
 TTTTTTTTTTTTTTTTTTTTTTTTTTTTTT NUMDFT      TELAPSE      251.79 TCPU     6687.30
 CYC   8 ETOT(AU) -2.578216250636E+03 DETOT -1.22E-06 tst  3.93E-08 PX  2.59E-04
 TTTTTTTTTTTTTTTTTTTTTTTTTTTTTT DIIS        TELAPSE      252.10 TCPU     6693.80
 DIIS TEST: 0.23685E-05 AT SCF   CYCLE   8 - DIIS ACTIVE - HISTORY:     8 CYCLES
 TTTTTTTTTTTTTTTTTTTTTTTTTTTTTT FDIK        TELAPSE      254.14 TCPU     6758.56
 INSULATING STATE
 TOP OF VALENCE BANDS -    BAND    198; K    1; EIG -2.4414627E-01 AU
 BOTTOM OF VIRTUAL BANDS - BAND    199; K    1; EIG -8.1768280E-02 AU
 DIRECT ENERGY BAND GAP:   4.4185 eV
 TTTTTTTTTTTTTTTTTTTTTTTTTTTTTT PDIG        TELAPSE      256.20 TCPU     6765.52
 CHARGE NORMALIZATION FACTOR   1.00000000
 TOTAL ATOMIC CHARGES:
   4.4977115   4.5132663   4.5089369   4.5051887   4.5090801   4.5052839
   4.5051029   4.5088551   4.5049403   4.5087178   4.5130098   4.4974297
   0.8783091   0.8748879   0.8749952   0.8784370   0.8779810   0.8793612
   0.8794651   0.8780289   0.8772510   0.8745873   0.8747538   0.8774208
   0.8772741   0.8745961   0.8746964   0.8773577   0.8779778   0.8793576
   0.8795276   0.8780883   0.8783158   0.8748694   0.8749665   0.8783991
   5.9202857   5.9181005   6.1671765   6.1553616   6.1553511   6.1671339
   6.1669048   6.1673134   6.1673377   6.1669535   5.9187148   5.9209470
   5.9149834   5.9327528   6.1624307   6.1672177   6.1672873   6.1625659
   6.1624608   6.1672754   6.1672239   6.1625247   5.9334484   5.9155571
   5.9203881   5.9182655   6.1668490   6.1672781   6.1674056   6.1670326
   6.1671426   6.1552985   6.1553856   6.1671186   5.9185655   5.9208292
   8.4880058   8.4887463   8.4882356   8.4889624   8.4943182   8.4878077
   8.4888472   8.4881196   8.4878318   8.4943253   8.4891183   8.4883863
 TTTTTTTTTTTTTTTTTTTTTTTTTTTTTT MOQGAD      TELAPSE      256.32 TCPU     6765.63
 TTTTTTTTTTTTTTTTTTTTTTTTTTTTTT SHELLXN     TELAPSE      275.08 TCPU     7364.14
 TTTTTTTTTTTTTTTTTTTTTTTTTTTTTT MONMO3      TELAPSE      275.70 TCPU     7383.74
 NUMERICALLY INTEGRATED DENSITY    396.0000411730
 TTTTTTTTTTTTTTTTTTTTTTTTTTTTTT NUMDFT      TELAPSE      277.36 TCPU     7436.74
 CYC   9 ETOT(AU) -2.578216250940E+03 DETOT -3.04E-07 tst  6.05E-09 PX  1.23E-04
 TTTTTTTTTTTTTTTTTTTTTTTTTTTTTT DIIS        TELAPSE      277.69 TCPU     7443.32
 DIIS TEST: 0.53078E-07 AT SCF   CYCLE   9 - DIIS ACTIVE - HISTORY:     9 CYCLES
 TTTTTTTTTTTTTTTTTTTTTTTTTTTTTT FDIK        TELAPSE      279.73 TCPU     7508.10
 INSULATING STATE
 TOP OF VALENCE BANDS -    BAND    198; K    1; EIG -2.4414818E-01 AU
 BOTTOM OF VIRTUAL BANDS - BAND    199; K    1; EIG -8.1763381E-02 AU
 DIRECT ENERGY BAND GAP:   4.4187 eV
 TTTTTTTTTTTTTTTTTTTTTTTTTTTTTT PDIG        TELAPSE      281.80 TCPU     7515.06
 CHARGE NORMALIZATION FACTOR   1.00000000
 TOTAL ATOMIC CHARGES:
   4.4977389   4.5132285   4.5088944   4.5051774   4.5090378   4.5052727
   4.5050960   4.5088148   4.5049331   4.5086774   4.5129757   4.4974604
   0.8783026   0.8748949   0.8750031   0.8784295   0.8779882   0.8793582
   0.8794585   0.8780330   0.8772505   0.8745887   0.8747521   0.8774202
   0.8772734   0.8745973   0.8746950   0.8773574   0.8779850   0.8793546
   0.8795210   0.8780925   0.8783092   0.8748764   0.8749744   0.8783917
   5.9202586   5.9180398   6.1672382   6.1553292   6.1553257   6.1672016
   6.1668448   6.1673520   6.1674143   6.1669405   5.9187201   5.9209830
   5.9150137   5.9327115   6.1624377   6.1672049   6.1672924   6.1625890
   6.1624710   6.1672650   6.1672260   6.1625449   5.9334517   5.9156275
   5.9203632   5.9182068   6.1667890   6.1673166   6.1674823   6.1670197
   6.1672058   6.1552676   6.1553587   6.1671845   5.9185687   5.9208630
   8.4879898   8.4887287   8.4882187   8.4889439   8.4943395   8.4878369
   8.4888284   8.4880994   8.4878671   8.4943599   8.4890988   8.4883653
 TTTTTTTTTTTTTTTTTTTTTTTTTTTTTT MOQGAD      TELAPSE      281.91 TCPU     7515.18
 TTTTTTTTTTTTTTTTTTTTTTTTTTTTTT SHELLXN     TELAPSE      300.72 TCPU     8115.07
 +++ ENERGIES IN A.U. +++
 ::: EXT EL-POLE                                  -2.3603890080412E+03
 ::: EXT EL-SPHEROPOLE                             2.7235253674443E+01
 ::: BIELET ZONE E-E                               4.1351858717304E+03
 ::: TOTAL E-E                                     1.8020321173637E+03
 ::: TOTAL E-N + N-E                              -7.2654896266383E+03
 ::: TOTAL N-N                                     5.9281303343532E+02
 ::: KINETIC ENERGY                                2.5598590314120E+03
 ::: PSEUDO TOTAL   ENERGY                        -2.3107854444273E+03
 ::: VIRIAL COEFFICIENT                            1.0511377063590E+00
 TTTTTTTTTTTTTTTTTTTTTTTTTTTTTT MONMO3      TELAPSE      301.32 TCPU     8134.22
 NUMERICALLY INTEGRATED DENSITY    396.0000411730
 EXCHANGE ENERGY: -0.252052212662E+03  CORRELATION ENERGY: -0.153785939113E+02
 TTTTTTTTTTTTTTTTTTTTTTTTTTTTTT NUMDFT      TELAPSE      302.93 TCPU     8185.68
 CYC  10 ETOT(AU) -2.578216251000E+03 DETOT -6.08E-08 tst  9.91E-11 PX  1.23E-04

 == SCF ENDED - CONVERGENCE ON ENERGY      E(AU) -2.5782162510003E+03 CYCLES  10


 ENERGY EXPRESSION=HARTREE+FOCK EXCH*0.00000+(HSESOL     EXCH)*1.00000+PBESOL     CORR


 TOTAL ENERGY(DFT)(AU)( 10) -2.5782162510003E+03 DE-6.1E-08 tester 9.9E-11
 TTTTTTTTTTTTTTTTTTTTTTTTTTTTTT EDFT        TELAPSE      302.93 TCPU     8185.69
 
 INFORMATION **** DFTD3 ENERGY **** CALCULATE DFTD3 ENERGY

           DFT-D V3(BJ)
 DF                                         hsesol3c  
 parameters
 s6       :    1.0000
 s8       :    0.0000
 a1       :    0.5196
 a2       :    4.9385
 k1 k3    :   16.0000   -4.0000
 Cutoff   :   50.2022
 CN-Cutoff:   21.1671
 ABC-Cutoff:   21.1671
 
 Edisp /kcal,au:   -48.4576 -0.07722212

 E6    /kcal :   -51.5614
 E8    /kcal :     0.0000
 E6(ABC) "   :   3.103735
 
 INFORMATION **** DFTD3 ENERGY **** NORMAL TERMINATION OF DFTD3 MODULE

 GCP ENERGY CALCULATION
  level        hsesol3c            basis:hsesol3c
  Nbf            948
  Atoms           84

  Parameters: 
  sigma     1.0000
  eta       1.4281
  alpha     0.2936
  beta      1.9467

  dmp_scal      4.0000
  dmp_exp       6.0000
 cutoffs: 
   distance [bohr] 60.0
   noise    [a.u.] 2.2E-16
 SR-damping   T
 ** gCP correction **
  Egcp:        0.1658672713 / (a.u.) ||     104.0833 / (kcal/mol)
 INFORMATION **** GCP **** NORMAL TERMINATION OF GCP MODULE

 *******************************************************************************

 DFT-D3-GCP DISPERSION AND COUNTERPOISE CORRECTION

 D3 DISPERSION ENERGY (AU)      -7.7222119154698E-02
 GCP ENERGY (AU)                 1.6586727127197E-01
 TOTAL ENERGY + DISP + GCP (AU) -2.5781276058482E+03

 *******************************************************************************

 EIGENVECTORS IN FORTRAN UNIT  8
 TTTTTTTTTTTTTTTTTTTTTTTTTTTTTT END         TELAPSE      306.09 TCPU     8194.37
 EEEEEEEEEE TERMINATION  DATE 19 02 2026 TIME 20:32:03.7
