 Default number of threads is:           96

         
 *******************************************************************************
 *                                                                             *
 *                               CRYSTAL23                                     *
 *                      public : 1.0.1 - October 2022                          *
 *                       HTTP://WWW.CRYSTAL.UNITO.IT                           *
 *                                                                             *
 *                              MAIN AUTHORS                                   *
 *                                                                             *
 *  R. DOVESI(1,11), V.R. SAUNDERS(2), C. ROETTI(1,11), R. ORLANDO(1,11),      *
 *  C.M. ZICOVICH-WILSON(1,3), F. PASCALE(4), B. CIVALLERI(1,11),              *
 *  K. DOLL(5), N.M. HARRISON(6), I.J. BUSH(7), Ph. D'ARCO(8),                 *
 *  M. LLUNELL(9), M. CAUSA'(10), Y. NOEL(8), L. MASCHIO(1,11), A. ERBA(1,11)  *
 *  M. RE'RAT(14), S. CASASSA(1,11), B.G. SEARLE(2), J.K. DESMARAIS(1)         *
 *                                                                             *
 *        CONTRIBUTIONS TO THE CODE HAVE ALSO BEEN GIVEN BY                    *
 *                                                                             *
 *  M. FERRABONE(1,11), M. DE LA PIERRE(1,11), M. FERRERO(1,11),               *
 *  J. BAIMA(1,11), E. ALBANESE(1,11), M.F. PEINTINGER(12), R. BAST(13),       *
 *  B. KIRTMAN(15), V. LACIVITA(1,11), R. DEMICHELIS(1,16)                     *
 *  G. BRANDEBURG(17), S. SALUSTRO(1,11), G. SANSONE(1,11)                     *
 *  M.T. RUGGIERO(18), L.E. DAGA(1), L. DONA'(1), A. COSSARD(1)                *
 *                                                                             *
 * (1) THEORETICAL CHEMISTRY GROUP - UNIVERSITA' DI TORINO - TORINO (ITALY)    *
 * (2) SCIENTIFIC COMPUTING DEPARTMENT - STFC DARESBURY (UK)                   *
 * (3) UNIVERSIDAD AUTONOMA DEL ESTADO DE MORELOS - CUERNAVACA (MEXICO)        *
 * (4) UNIVERSITE' DE LORRAINE - NANCY (FRANCE)                                *
 * (5) UNIVERSITAET STUTTGART- STUTTGART (GERMANY)                             *
 * (6) IMPERIAL COLLEGE - LONDON (UK)                                          *
 * (7) SCIENTIFIC COMPUTING DEPARTMENT - STFC RAL (UK)                         *
 * (8) UPMC - SORBONNE UNIVERSITES - PARIS (FRANCE)                            *
 * (9) UNIVERSIDAD DE BARCELONA - BARCELONA (SPAIN)                            *
 *(10) UNIVERSITA' DI NAPOLI "FEDERICO II" - NAPOLI (ITALY)                    *
 *(11) NIS - NANOSTRUCTURED INTERFACES AND SURFACES - TORINO (ITALY)           *
 *(12) MPI FUER CHEMISCHE ENERGIEKONVERSION - MUELHEIM AN DER RUHR (GERMANY)   *
 *(13) UNIVERSITY OF TROMSO - TROMSO (NORWAY)                                  *
 *(14) UNIVERSITE' DE PAU ET DES PAYS DE L'ADOUR - PAU (FRANCE)                *
 *(15) UNIVERSITY OF CALIFORNIA SANTA BARBARA - SANTA BARBARA (USA)            *
 *(16) CURTIN UNIVERSITY - PERTH (AUSTRALIA)                                   *
 *(17) UNIVERSITY COLLEGE LONDON - LONDON (UK)                                 *
 *(18) UNIVERSITY OF VERMONT - BURLINGTON (USA)                                *
 *                                                                             *
 *******************************************************************************
 EEEEEEEEEE STARTING  DATE 14 01 2026 TIME 12:42:43.5
 COF-1_z33_inc_L020                                                              

 CRYSTAL CALCULATION
 (INPUT ACCORDING TO THE INTERNATIONAL TABLES FOR X-RAY CRYSTALLOGRAPHY)
 CRYSTAL FAMILY                       :  TRICLINIC   
 CRYSTAL CLASS  (GROTH - 1921)        :  TRICLINIC PEDIAL                     

 SPACE GROUP (NONCENTROSYMMETRIC)     :  P 1             

 LATTICE PARAMETERS  (ANGSTROMS AND DEGREES) - CONVENTIONAL CELL
        A           B           C        ALPHA        BETA       GAMMA
    15.02070    15.04439     3.85876    63.34785    89.99939   120.05310


 NUMBER OF IRREDUCIBLE ATOMS IN THE CONVENTIONAL CELL:   42

 INPUT COORDINATES

 ATOM AT. N.              COORDINATES
   1   5     5.770469000000E-01  1.511808800000E-01  5.006520900000E-01
   2   5     7.358255400000E-01  3.102060600000E-01  5.006620800000E-01
   3   5     5.767039900000E-01  3.101130800000E-01  4.992321100000E-01
   4   5     1.898510300000E-01  5.367283600000E-01  5.054470700000E-01
   5   5     3.481140800000E-01  5.356064400000E-01  5.094909600000E-01
   6   5     3.488462100000E-01  6.958612000000E-01  5.035253300000E-01
   7   1     8.655515800000E-01  2.320556600000E-01  5.045504800000E-01
   8   1     6.089240000000E-02  6.157271700000E-01  4.929601700000E-01
   9   1     8.665207700000E-01  5.184489300000E-01  4.928218800000E-01
  10   1     6.002419000000E-02  3.293356800000E-01  5.041190500000E-01
  11   1     5.555542500000E-01  8.257837000000E-01  5.042411200000E-01
  12   1     3.701579200000E-01  2.267250000000E-02  4.945923900000E-01
  13   1     2.717169600000E-01  8.287599500000E-01  4.958992400000E-01
  14   1     6.537992100000E-01  1.975959000000E-02  5.023797900000E-01
  15   1     5.556482000000E-01  6.141093300000E-01  4.977967100000E-01
  16   1     3.676998200000E-01  2.312239800000E-01  5.060798200000E-01
  17   1     2.703638800000E-01  3.272014900000E-01  5.057149400000E-01
  18   1     6.533677000000E-01  5.181067200000E-01  4.987301600000E-01
  19   6     8.551373000000E-01  3.696735500000E-01  5.004120800000E-01
  20   6     9.095254600000E-01  3.162258200000E-01  5.021781700000E-01
  21   6     1.703504000000E-02  5.315440000000E-01  4.957852900000E-01
  22   6     9.100305800000E-01  4.779673100000E-01  4.961224500000E-01
  23   6     1.660569000000E-02  3.698896400000E-01  5.015344600000E-01
  24   6     7.127518000000E-02  4.778970600000E-01  4.993512000000E-01
  25   6     4.079349900000E-01  8.154879000000E-01  5.018935400000E-01
  26   6     5.157782000000E-01  8.699100100000E-01  5.022837200000E-01
  27   6     4.097252000000E-01 -2.173453000000E-02  4.970073700000E-01
  28   6     3.555207100000E-01  8.711384400000E-01  4.981260400000E-01
  29   6     5.699722300000E-01 -2.300269000000E-02  5.008463200000E-01
  30   6     5.174178800000E-01  3.224001000000E-02  4.992220700000E-01
  31   6     4.076820300000E-01  4.767262600000E-01  4.999932800000E-01
  32   6     5.155737000000E-01  5.300659500000E-01  4.994418000000E-01
  33   6     4.083876500000E-01  3.153417600000E-01  5.039653200000E-01
  34   6     3.545330200000E-01  3.684807300000E-01  5.033573800000E-01
  35   6     5.693150500000E-01  4.768573000000E-01  5.003801600000E-01
  36   6     5.164647700000E-01  3.689432600000E-01  5.016220000000E-01
  37   8     5.240095300000E-01  2.041545300000E-01  4.996219700000E-01
  38   8     6.829386400000E-01  2.039925100000E-01  5.026120100000E-01
  39   8     6.828952600000E-01  3.634304700000E-01  4.980923100000E-01
  40   8     2.428967700000E-01  6.430029300000E-01  5.027586800000E-01
  41   8     2.420801400000E-01  4.827912800000E-01  5.102464000000E-01
  42   8     4.015148500000E-01  6.423336500000E-01  5.052304000000E-01

 *******************************************************************************

 << INFORMATION >>: FROM NOW ON, ALL COORDINATES REFER TO THE PRIMITIVE CELL

 *******************************************************************************

 LATTICE PARAMETERS  (ANGSTROMS AND DEGREES) - PRIMITIVE CELL
       A          B          C        ALPHA      BETA     GAMMA        VOLUME
   15.02070   15.04439    3.85876    63.34785  89.99939 120.05310    645.494042

 COORDINATES OF THE EQUIVALENT ATOMS (FRACTIONAL UNITS)

 N. ATOM EQUIV AT. N.          X                  Y                  Z

   1   1   1    5 B    -4.22953100000E-01  1.51180880000E-01 -4.99347910000E-01

   2   2   1    5 B    -2.64174460000E-01  3.10206060000E-01 -4.99337920000E-01

   3   3   1    5 B    -4.23296010000E-01  3.10113080000E-01  4.99232110000E-01

   4   4   1    5 B     1.89851030000E-01 -4.63271640000E-01 -4.94552930000E-01

   5   5   1    5 B     3.48114080000E-01 -4.64393560000E-01 -4.90509040000E-01

   6   6   1    5 B     3.48846210000E-01 -3.04138800000E-01 -4.96474670000E-01

   7   7   1    1 H    -1.34448420000E-01  2.32055660000E-01 -4.95449520000E-01

   8   8   1    1 H     6.08924000000E-02 -3.84272830000E-01  4.92960170000E-01

   9   9   1    1 H    -1.33479230000E-01 -4.81551070000E-01  4.92821880000E-01

  10  10   1    1 H     6.00241900000E-02  3.29335680000E-01 -4.95880950000E-01

  11  11   1    1 H    -4.44445750000E-01 -1.74216300000E-01 -4.95758880000E-01

  12  12   1    1 H     3.70157920000E-01  2.26725000000E-02  4.94592390000E-01

  13  13   1    1 H     2.71716960000E-01 -1.71240050000E-01  4.95899240000E-01

  14  14   1    1 H    -3.46200790000E-01  1.97595900000E-02 -4.97620210000E-01

  15  15   1    1 H    -4.44351800000E-01 -3.85890670000E-01  4.97796710000E-01

  16  16   1    1 H     3.67699820000E-01  2.31223980000E-01 -4.93920180000E-01

  17  17   1    1 H     2.70363880000E-01  3.27201490000E-01 -4.94285060000E-01

  18  18   1    1 H    -3.46632300000E-01 -4.81893280000E-01  4.98730160000E-01

  19  19   1    6 C    -1.44862700000E-01  3.69673550000E-01 -4.99587920000E-01

  20  20   1    6 C    -9.04745400000E-02  3.16225820000E-01 -4.97821830000E-01

  21  21   1    6 C     1.70350400000E-02 -4.68456000000E-01  4.95785290000E-01

  22  22   1    6 C    -8.99694200000E-02  4.77967310000E-01  4.96122450000E-01

  23  23   1    6 C     1.66056900000E-02  3.69889640000E-01 -4.98465540000E-01

  24  24   1    6 C     7.12751800000E-02  4.77897060000E-01  4.99351200000E-01

  25  25   1    6 C     4.07934990000E-01 -1.84512100000E-01 -4.98106460000E-01

  26  26   1    6 C    -4.84221800000E-01 -1.30089990000E-01 -4.97716280000E-01

  27  27   1    6 C     4.09725200000E-01 -2.17345300000E-02  4.97007370000E-01

  28  28   1    6 C     3.55520710000E-01 -1.28861560000E-01  4.98126040000E-01

  29  29   1    6 C    -4.30027770000E-01 -2.30026900000E-02 -4.99153680000E-01

  30  30   1    6 C    -4.82582120000E-01  3.22400100000E-02  4.99222070000E-01

  31  31   1    6 C     4.07682030000E-01  4.76726260000E-01  4.99993280000E-01

  32  32   1    6 C    -4.84426300000E-01 -4.69934050000E-01  4.99441800000E-01

  33  33   1    6 C     4.08387650000E-01  3.15341760000E-01 -4.96034680000E-01

  34  34   1    6 C     3.54533020000E-01  3.68480730000E-01 -4.96642620000E-01

  35  35   1    6 C    -4.30684950000E-01  4.76857300000E-01 -4.99619840000E-01

  36  36   1    6 C    -4.83535230000E-01  3.68943260000E-01 -4.98378000000E-01

  37  37   1    8 O    -4.75990470000E-01  2.04154530000E-01  4.99621970000E-01

  38  38   1    8 O    -3.17061360000E-01  2.03992510000E-01 -4.97387990000E-01

  39  39   1    8 O    -3.17104740000E-01  3.63430470000E-01  4.98092310000E-01

  40  40   1    8 O     2.42896770000E-01 -3.56997070000E-01 -4.97241320000E-01

  41  41   1    8 O     2.42080140000E-01  4.82791280000E-01 -4.89753600000E-01

  42  42   1    8 O     4.01514850000E-01 -3.57666350000E-01 -4.94769600000E-01

 NUMBER OF SYMMETRY OPERATORS         :    1
 *******************************************************************************
 * GEOMETRY EDITING - INPUT COORDINATES ARE GIVEN IN ANGSTROM         
 *******************************************************************************
 INFORMATION **** NEW DEFAULT **** FINALRUN 4 FOR GEOMETRY OPTIMIZATIONS
 INFORMATION **** NEW DEFAULT **** OPTGEOM OPTIMIZES BOTH ATOMIC COORDINATES AND CELL PARAMETERS
 INFORMATION **** NEW DEFAULT **** TOL. ON ATOMIC DISP TO REDEFINE REF. GEOMETRY: 0.8 Angs
 INFORMATION **** NEW DEFAULT **** N POINTS TO REDEFINE REF. GEOMETRY: N OF OPT DEGS OF FREEDOM
 INFORMATION **** NEW DEFAULT **** TOL. ON ENERGY TO REDEFINE REF. GEOMETRY: 10**-3*(5*N. ATOMS)
 INFORMATION **** MAXTRADIUS **** MAX ALLOWED TRUST RADIUS  3.000000E-01

 IMPORTANT INFORMATION:
 THE COORDINATE SYSTEM ADOPTED IN THE OPTIMIZATION IS NOT IN
 GENERAL HOMOGENEOUS UNITS. FOR THIS REASON THE GRADIENT AND 
 HESSIAN MATRIX IN TERMS OF THIS SYSTEM ARE GIVEN WITHOUT
 UNITS. FOR MORE DETAILS SEE THE MANUAL.

 *******************************************************************************
 COMBINED CELL/ATOM OPTIMIZATION CONTROL

 INITIAL TRUST RADIUS         0.50000 MAXIMUM TRUST RADIUS               0.30000
 MAXIMUM GRADIENT COMPONENT   0.00045 MAXIMUM DISPLACEMENT COMPONENT     0.00180
 R.M.S. OF GRADIENT COMPONENT 0.00030 R.M.S. OF DISPLACEMENT COMPONENTS  0.00120
 THRESHOLD ON ENERGY CHANGE 0.100E-06 EXTRAPOLATING POLYNOMIAL ORDER           2
 MAXIMUM ALLOWED NUMBER OF STEPS   -1 SORTING OF ENERGY POINTS:               NO
 ANALYTICAL  GRADIENT                 HESSIAN UPDATING                      BFGS
 STEP SIZE NUMERICAL GRADIENT 0.00100
 INITIAL HESSIAN MATRIX: SCHLEGEL MODEL 2
 *******************************************************************************


 GCALCO - MAX INDICES DIRECT LATTICE VECTOR     9    10    34
 NO.OF VECTORS CREATED 6999 STARS 3500 RMAX   193.92237 BOHR

 GEOMETRY FOR WAVE FUNCTION - DIMENSIONALITY OF THE SYSTEM    3
 (NON PERIODIC DIRECTION: LATTICE PARAMETER FORMALLY SET TO 500)
 *******************************************************************************
 LATTICE PARAMETERS (ANGSTROMS AND DEGREES) - BOHR = 0.5291772083 ANGSTROM
 PRIMITIVE CELL - CENTRING CODE 1/0 VOLUME=   645.494042 - DENSITY  1.004 g/cm^3
         A              B              C           ALPHA      BETA       GAMMA 
    15.02070100    15.04438700     3.85875600    63.347851  89.999390 120.053104
 *******************************************************************************
 ATOMS IN THE ASYMMETRIC UNIT   42 - ATOMS IN THE UNIT CELL:   42
     ATOM                 X/A                 Y/B                 Z/C    
 *******************************************************************************
      1 T   5 B    -4.229531000000E-01  1.511808800000E-01 -4.993479100000E-01
      2 T   5 B    -2.641744600000E-01  3.102060600000E-01 -4.993379200000E-01
      3 T   5 B    -4.232960100000E-01  3.101130800000E-01  4.992321100000E-01
      4 T   5 B     1.898510300000E-01 -4.632716400000E-01 -4.945529300000E-01
      5 T   5 B     3.481140800000E-01 -4.643935600000E-01 -4.905090400000E-01
      6 T   5 B     3.488462100000E-01 -3.041388000000E-01 -4.964746700000E-01
      7 T   1 H    -1.344484200000E-01  2.320556600000E-01 -4.954495200000E-01
      8 T   1 H     6.089240000000E-02 -3.842728300000E-01  4.929601700000E-01
      9 T   1 H    -1.334792300000E-01 -4.815510700000E-01  4.928218800000E-01
     10 T   1 H     6.002419000000E-02  3.293356800000E-01 -4.958809500000E-01
     11 T   1 H    -4.444457500000E-01 -1.742163000000E-01 -4.957588800000E-01
     12 T   1 H     3.701579200000E-01  2.267250000000E-02  4.945923900000E-01
     13 T   1 H     2.717169600000E-01 -1.712400500000E-01  4.958992400000E-01
     14 T   1 H    -3.462007900000E-01  1.975959000000E-02 -4.976202100000E-01
     15 T   1 H    -4.443518000000E-01 -3.858906700000E-01  4.977967100000E-01
     16 T   1 H     3.676998200000E-01  2.312239800000E-01 -4.939201800000E-01
     17 T   1 H     2.703638800000E-01  3.272014900000E-01 -4.942850600000E-01
     18 T   1 H    -3.466323000000E-01 -4.818932800000E-01  4.987301600000E-01
     19 T   6 C    -1.448627000000E-01  3.696735500000E-01 -4.995879200000E-01
     20 T   6 C    -9.047454000000E-02  3.162258200000E-01 -4.978218300000E-01
     21 T   6 C     1.703504000000E-02 -4.684560000000E-01  4.957852900000E-01
     22 T   6 C    -8.996942000000E-02  4.779673100000E-01  4.961224500000E-01
     23 T   6 C     1.660569000000E-02  3.698896400000E-01 -4.984655400000E-01
     24 T   6 C     7.127518000000E-02  4.778970600000E-01  4.993512000000E-01
     25 T   6 C     4.079349900000E-01 -1.845121000000E-01 -4.981064600000E-01
     26 T   6 C    -4.842218000000E-01 -1.300899900000E-01 -4.977162800000E-01
     27 T   6 C     4.097252000000E-01 -2.173453000000E-02  4.970073700000E-01
     28 T   6 C     3.555207100000E-01 -1.288615600000E-01  4.981260400000E-01
     29 T   6 C    -4.300277700000E-01 -2.300269000000E-02 -4.991536800000E-01
     30 T   6 C    -4.825821200000E-01  3.224001000000E-02  4.992220700000E-01
     31 T   6 C     4.076820300000E-01  4.767262600000E-01  4.999932800000E-01
     32 T   6 C    -4.844263000000E-01 -4.699340500000E-01  4.994418000000E-01
     33 T   6 C     4.083876500000E-01  3.153417600000E-01 -4.960346800000E-01
     34 T   6 C     3.545330200000E-01  3.684807300000E-01 -4.966426200000E-01
     35 T   6 C    -4.306849500000E-01  4.768573000000E-01 -4.996198400000E-01
     36 T   6 C    -4.835352300000E-01  3.689432600000E-01 -4.983780000000E-01
     37 T   8 O    -4.759904700000E-01  2.041545300000E-01  4.996219700000E-01
     38 T   8 O    -3.170613600000E-01  2.039925100000E-01 -4.973879900000E-01
     39 T   8 O    -3.171047400000E-01  3.634304700000E-01  4.980923100000E-01
     40 T   8 O     2.428967700000E-01 -3.569970700000E-01 -4.972413200000E-01
     41 T   8 O     2.420801400000E-01  4.827912800000E-01 -4.897536000000E-01
     42 T   8 O     4.015148500000E-01 -3.576663500000E-01 -4.947696000000E-01

 T = ATOM BELONGING TO THE ASYMMETRIC UNIT

 ****    1 SYMMOPS - TRANSLATORS IN FRACTIONAL UNITS
 **** MATRICES AND TRANSLATORS IN THE CRYSTALLOGRAPHIC REFERENCE FRAME
   V INV                    ROTATION MATRICES                   TRANSLATORS
   1   1  1.00  0.00  0.00  0.00  1.00  0.00 -0.00 -0.00  1.00  0.00  0.00  0.00

 DIRECT LATTICE VECTORS CARTESIAN COMPONENTS (ANGSTROM)
          X                    Y                    Z
   0.130013421718E+02  -0.752240388864E+01   0.000000000000E+00
   0.000000000000E+00   0.150443870000E+02   0.000000000000E+00
   0.100154215357E+01   0.173093273721E+01   0.330011864051E+01


 CARTESIAN COORDINATES - PRIMITIVE CELL
 *******************************************************************************
 *      ATOM          X(ANGSTROM)         Y(ANGSTROM)         Z(ANGSTROM)
 *******************************************************************************
    1     5 B    -5.999075956873E+00  4.591710065198E+00 -1.647907345889E+00
    2     5 B    -3.934730523258E+00  5.789766648911E+00 -1.647874377704E+00
    3     5 B     6.996385754830E+00 -5.395346822333E-01 -1.652593448357E+00
    4     5 B     1.973002596129E+00  5.790575178561E+00 -1.632083343011E+00
    5     5 B     4.034684788627E+00  4.590177698736E+00 -1.618738026241E+00
    6     5 B     3.036686477787E+00  5.254346107736E+00 -4.938543953514E+00
    7     1 H    -2.244223492119E+00  3.644920678208E+00 -1.635042196382E+00
    8     1 H     1.285403318345E+00 -5.385925498261E+00  1.626827046045E+00
    9     1 H    -1.241827255035E+00 -5.387514452834E+00  1.626370672638E+00
   10     1 H     2.837493581979E-01  3.644790652446E+00 -1.636465966568E+00
   11     1 H    -5.273372535299E+00  1.595130461237E+00  1.664055519422E+00
   12     1 H     4.306362749364E+00 -3.318210090346E+00 -1.667905074815E+00
   13     1 H     4.029349163616E+00 -3.761798069740E+00  1.636526325737E+00
   14     1 H    -4.999462547710E+00  2.040185975683E+00 -1.642205730914E+00
   15     1 H    -5.278605407472E+00 -1.601242249110E+00  1.642788201854E+00
   16     1 H     4.285909295552E+00 -1.423061261507E-01 -1.629995192941E+00
   17     1 H     3.020045991300E+00  2.033185348409E+00 -1.631199340230E+00
   18     1 H    -4.007185861594E+00 -3.779012474593E+00  1.645868697599E+00
   19     6 C    -2.383767891920E+00  5.786474601821E+00 -1.648699407364E+00
   20     6 C    -1.674880000085E+00  4.576313544147E+00 -1.642871100835E+00
   21     6 C     7.180282510031E-01 -6.317606818524E+00  1.636150277218E+00
   22     6 C    -6.728356674103E-01 -6.318120909775E+00  1.637262945219E+00
   23     6 C    -2.833379927219E-01  4.577037862865E+00 -1.644995420205E+00
   24     6 C     4.252521262022E-01  5.786918227842E+00 -1.652200437228E+00
   25     6 C    -7.194972246032E+00  2.546624653950E+00  1.656308226904E+00
   26     6 C    -5.792474990202E+00  2.554807131214E+00  1.657595867195E+00
   27     6 C     5.824751353287E+00 -2.548814790971E+00  1.640183286207E+00
   28     6 C     5.121140626711E+00 -3.750790879568E+00  1.643875029926E+00
   29     6 C    -5.089319479196E+00  3.755712490469E+00  1.652852276662E+00
   30     6 C    -6.775765474571E+00  3.248395890292E+00 -1.652626581548E+00
   31     6 C     4.799635762167E+00  3.239827460229E+00 -1.650081497051E+00
   32     6 C    -5.797980067353E+00 -2.561319267846E+00  1.648217194029E+00
   33     6 C     4.812787934726E+00  8.134639618649E-01 -1.636973293806E+00
   34     6 C     4.111996585025E+00  2.016971166211E+00 -1.638979567932E+00
   35     6 C    -5.098330580135E+00 -3.764450692372E+00  1.651313893356E+00
   36     6 C     6.215588619026E+00  8.028097945824E-01 -1.644706527819E+00
   37     8 O     6.311677511037E+00 -1.736552282141E+00 -1.651306864103E+00
   38     8 O    -4.620378269471E+00  4.593060717958E+00 -1.641439377364E+00
   39     8 O    -2.622384630632E+00 -4.598311409706E+00  4.943882357432E+00
   40     8 O     1.658433723147E+00  5.254793297578E+00 -4.941073989470E+00
   41     8 O     2.656857857870E+00  4.594543730641E+00 -1.616244984616E+00
   42     8 O     3.723157187629E+00  4.055813509511E+00 -4.932917020224E+00

 *******************************************************************************
 STARTING BASIS SET HANDLING 
 *******************************************************************************

 Loading internal basis set: SOLDEF2MSVP         

 Please cite in your publication:
 L. Dona', J. G. Brandenburg and B. Civalleri, J. Chem. Phys., 151, 121101 (2019
 )                                                                              
                                                                                
                    

 *******************************************************************************
 LOCAL ATOMIC FUNCTIONS BASIS SET
 *******************************************************************************
   ATOM   X(AU)   Y(AU)   Z(AU)  N. TYPE  EXPONENT  S COEF   P COEF   D/F/G COEF
 *******************************************************************************
   1 B  -11.337   8.677  -3.114
                                  1 S  
                                         2.410E+03 1.755E-03 0.000E+00 0.000E+00
                                         3.619E+02 1.344E-02 0.000E+00 0.000E+00
                                         8.231E+01 6.637E-02 0.000E+00 0.000E+00
                                         2.311E+01 2.303E-01 0.000E+00 0.000E+00
                                         7.252E+00 5.150E-01 0.000E+00 0.000E+00
                                  2 S  
                                         2.367E+00 1.000E+00 0.000E+00 0.000E+00
                                  3 S  
                                         5.533E-01 1.000E+00 0.000E+00 0.000E+00
                                  4 S  
                                         1.716E-01 1.000E+00 0.000E+00 0.000E+00
                           5-     7 P  
                                         6.002E+00 0.000E+00-3.555E-02 0.000E+00
                                         1.240E+00 0.000E+00-1.983E-01 0.000E+00
                                         3.367E-01 0.000E+00-5.048E-01 0.000E+00
                           8-    10 P  
                                         1.256E-01 0.000E+00 1.000E+00 0.000E+00
                          11-    15 D  
                                         8.880E-01 0.000E+00 0.000E+00 1.000E+00
   2 B   -7.436  10.941  -3.114
   3 B   13.221  -1.020  -3.123
   4 B    3.728  10.943  -3.084
   5 B    7.624   8.674  -3.059
   6 B    5.739   9.929  -9.332
   7 H   -4.241   6.888  -3.090
                                 91 S  
                                         1.874E+01 1.968E-02 0.000E+00 0.000E+00
                                         2.826E+00 1.380E-01 0.000E+00 0.000E+00
                                         6.401E-01 4.783E-01 0.000E+00 0.000E+00
                                 92 S  
                                         1.756E-01 1.000E+00 0.000E+00 0.000E+00
   8 H    2.429 -10.178   3.074
   9 H   -2.347 -10.181   3.073
  10 H    0.536   6.888  -3.092
  11 H   -9.965   3.014   3.145
  12 H    8.138  -6.271  -3.152
  13 H    7.614  -7.109   3.093
  14 H   -9.448   3.855  -3.103
  15 H   -9.975  -3.026   3.104
  16 H    8.099  -0.269  -3.080
  17 H    5.707   3.842  -3.083
  18 H   -7.572  -7.141   3.110
  19 C   -4.505  10.935  -3.116
                                115 S  
                                         3.624E+03 1.634E-03 0.000E+00 0.000E+00
                                         5.440E+02 1.252E-02 0.000E+00 0.000E+00
                                         1.237E+02 6.211E-02 0.000E+00 0.000E+00
                                         3.476E+01 2.182E-01 0.000E+00 0.000E+00
                                         1.093E+01 4.980E-01 0.000E+00 0.000E+00
                                116 S  
                                         3.574E+00 1.000E+00 0.000E+00 0.000E+00
                                117 S  
                                         7.742E-01 1.000E+00 0.000E+00 0.000E+00
                                118 S  
                                         2.330E-01 1.000E+00 0.000E+00 0.000E+00
                         119-   121 P  
                                         9.443E+00 0.000E+00 3.790E-02 0.000E+00
                                         2.002E+00 0.000E+00 2.082E-01 0.000E+00
                                         5.463E-01 0.000E+00 5.047E-01 0.000E+00
                         122-   124 P  
                                         1.820E-01 0.000E+00 1.000E+00 0.000E+00
                         125-   129 D  
                                         8.880E-01 0.000E+00 0.000E+00 1.000E+00
  20 C   -3.165   8.648  -3.105
  21 C    1.357 -11.939   3.092
  22 C   -1.271 -11.940   3.094
  23 C   -0.535   8.649  -3.109
  24 C    0.804  10.936  -3.122
  25 C  -13.597   4.812   3.130
  26 C  -10.946   4.828   3.132
  27 C   11.007  -4.817   3.099
  28 C    9.678  -7.088   3.106
  29 C   -9.617   7.097   3.123
  30 C  -12.804   6.139  -3.123
  31 C    9.070   6.122  -3.118
  32 C  -10.957  -4.840   3.115
  33 C    9.095   1.537  -3.093
  34 C    7.771   3.812  -3.097
  35 C   -9.634  -7.114   3.121
  36 C   11.746   1.517  -3.108
  37 O   11.927  -3.282  -3.121
                                385 S  
                                         6.773E+03 1.727E-03 0.000E+00 0.000E+00
                                         1.017E+03 1.325E-02 0.000E+00 0.000E+00
                                         2.313E+02 6.603E-02 0.000E+00 0.000E+00
                                         6.501E+01 2.353E-01 0.000E+00 0.000E+00
                                         2.050E+01 5.498E-01 0.000E+00 0.000E+00
                                386 S  
                                         6.716E+00 1.000E+00 0.000E+00 0.000E+00
                                387 S  
                                         1.147E+00 1.000E+00 0.000E+00 0.000E+00
                                388 S  
                                         3.342E-01 1.000E+00 0.000E+00 0.000E+00
                         389-   391 P  
                                         1.769E+01 0.000E+00 4.359E-02 0.000E+00
                                         3.854E+00 0.000E+00 2.318E-01 0.000E+00
                                         1.047E+00 0.000E+00 5.146E-01 0.000E+00
                         392-   394 P  
                                         2.759E-01 0.000E+00 1.000E+00 0.000E+00
                         395-   399 D  
                                         8.000E-01 0.000E+00 0.000E+00 1.000E+00
  38 O   -8.731   8.680  -3.102
  39 O   -4.956  -8.690   9.343
  40 O    3.134   9.930  -9.337
  41 O    5.021   8.682  -3.054
  42 O    7.036   7.664  -9.322

 *******************************************************************************
 FINISHED BASIS SET HANDLING 
 *******************************************************************************

 INFORMATION **** SET_MPP **** PCRYSTAL CALCULATION
 INFORMATION **** READM2 **** NEW DEFAULT: FOCK/KS MATRIX MIXING SET TO 30 %
 INFORMATION **** READM2 **** NEW DEFAULT: FULL DIRECT SCF MODE
 INFORMATION **** READM2 **** NEW DEFAULT: COULOMB BIPOLAR BUFFER SET TO 32 Mb
 INFORMATION **** READM2 **** NEW DEFAULT: EXCHANGE BIPOLAR BUFFER SET TO 32 Mb

 *******************************************************************************
 NEW DEFAULT: DFT INTEGRATION GRID INCREASED TO XLGRID
 NEW DEFAULT: DIIS ACCELERATOR ACTIVE
 USE KEYWORD NODIIS TO TURN IT OFF
 *******************************************************************************

 WARNING **** RDDFTP **** HSEsol-HJS ACTIVE
 RANGE SEPARATION - OMEGA:   0.110000000000000     
 WARNING **** RDDFTP **** HSEsol-3c has to be combined with sol-def2-mSVP basis set
 *******************************************************************************
 N. OF ATOMS PER CELL        42  COULOMB OVERLAP TOL         (T1) 10**   -6
 NUMBER OF SHELLS           234  COULOMB PENETRATION TOL     (T2) 10**   -6
 NUMBER OF AO               474  EXCHANGE OVERLAP TOL        (T3) 10**   -6
 N. OF ELECTRONS PER CELL   198  EXCHANGE PSEUDO OVP (F(G))  (T4) 10**   -6
 CORE ELECTRONS PER CELL     60  EXCHANGE PSEUDO OVP (P(G))  (T5) 10**  -12
 N. OF SYMMETRY OPERATORS     1  POLE ORDER IN MONO ZONE                  4
 *******************************************************************************
 TYPE OF CALCULATION :  RESTRICTED CLOSED SHELL
 KOHN-SHAM HAMILTONIAN

 (EXCHANGE)[CORRELATION] FUNCTIONAL:(HSEsol GGA)[PBEsol]

 RANGE-SEPARATED HYBRID FUNCTIONAL 
 OMEGA (SHORT-RANGE)[LONG-RANGE]:(    0.1100)[    0.0000]

 HYBRID EXCHANGE - PERCENTAGE OF FOCK EXCHANGE    25.0000

 CAPPA:IS1  2;IS2  2;IS3  8; K PTS MONK NET  20; SYMMOPS:K SPACE   2;G SPACE   1

 *******************************************************************************
 MAX NUMBER OF SCF CYCLES      50  CONVERGENCE ON DELTAP        10**-16
 WEIGHT OF F(I) IN F(I+1)      30% CONVERGENCE ON ENERGY        10**- 7
 SHRINK. FACT.(MONKH.)    2  2  8  NUMBER OF K POINTS IN THE IBZ     20
 SHRINKING FACTOR(GILAT NET)    8  NUMBER OF K POINTS(GILAT NET)   1028
 *******************************************************************************
 *** K POINTS COORDINATES (OBLIQUE COORDINATES IN UNITS OF IS =  2)
   1-R(  0  0  0)   2-R(  1  0  0)   3-R(  0  1  0)   4-R(  1  1  0)
   5-C(  0  0  1)   6-C(  1  0  1)   7-C(  0  1  1)   8-C(  1  1  1)
   9-C(  0  0  2)  10-C(  1  0  2)  11-C(  0  1  2)  12-C(  1  1  2)
  13-C(  0  0  3)  14-C(  1  0  3)  15-C(  0  1  3)  16-C(  1  1  3)
  17-R(  0  0  4)  18-R(  1  0  4)  19-R(  0  1  4)  20-R(  1  1  4)

 DIRECT LATTICE VECTORS COMPON. (A.U.)     RECIP. LATTICE VECTORS COMPON. (A.U.) 
        X            Y            Z              X            Y            Z
   24.5689761  -14.2152832    0.0000000      0.2557366    0.0000000   -0.0776126
    0.0000000   28.4297713    0.0000000      0.1278719    0.2210072   -0.1547271
    1.8926404    3.2709888    6.2363204      0.0000000    0.0000000    1.0075148

 DISK SPACE FOR EIGENVECTORS (FTN 10)     7189632 REALS

 SYMMETRY ADAPTION OF THE BLOCH FUNCTIONS DISABLED
 TTTTTTTTTTTTTTTTTTTTTTTTTTTTTT gordsh1     TELAPSE        0.04 TCPU        0.04

 MATRIX SIZE: P(G)  397022, F(G)   81627, P(G) IRR  200794, F(G) IRR   82359
 MAX G-VECTOR INDEX FOR 1- AND 2-ELECTRON INTEGRALS  77

 TTTTTTTTTTTTTTTTTTTTTTTTTTTTTT INPUT       TELAPSE        0.33 TCPU        0.32

 NEIGHBORS OF THE NON-EQUIVALENT ATOMS

 N = NUMBER OF NEIGHBORS AT DISTANCE R
    ATOM  N     R/ANG      R/AU   NEIGHBORS (ATOM LABELS AND CELL INDICES)
   1 B    1     1.3787     2.6054   38 O    0 0 0
   1 B    1     1.3795     2.6068   37 O   -1 0 0
   1 B    1     1.5517     2.9323   30 C    0 0 0
   1 B    1     2.3868     4.5104    2 B    0 0 0
   1 B    1     2.3912     4.5187    3 B   -1 0 0
   1 B    1     2.5629     4.8432   27 C   -1 0-1

   2 B    1     1.3792     2.6064   38 O    0 0 0
   2 B    1     1.3798     2.6075   39 O    0 1-2
   2 B    1     1.5510     2.9309   19 C    0 0 0
   2 B    1     2.3868     4.5104    1 B    0 0 0
   2 B    1     2.3894     4.5154    3 B   -1 0 0
   2 B    1     2.5618     4.8411   22 C    0 1-1

   3 B    1     1.3790     2.6060   37 O    0 0 0
   3 B    1     1.3795     2.6069   39 O    1 1-2
   3 B    1     1.5529     2.9346   36 C    0 0 0
   3 B    1     2.3894     4.5154    2 B    1 0 0
   3 B    1     2.3912     4.5187    1 B    1 0 0
   3 B    1     2.5679     4.8526   35 C    1 1-1

   4 B    1     1.3778     2.6037   41 O    0 0 0
   4 B    1     1.3785     2.6051   40 O    0 0 1
   4 B    1     1.5479     2.9251   24 C    0 0 0
   4 B    1     2.3857     4.5084    5 B    0 0 0
   4 B    1     2.3859     4.5087    6 B    0 0 1
   4 B    1     2.5584     4.8347   21 C    0 1-1

   5 B    1     1.3778     2.6037   41 O    0 0 0
   5 B    1     1.3813     2.6104   42 O    0 0 1
   5 B    1     1.5523     2.9334   31 C    0 0 0
   5 B    1     2.3857     4.5084    4 B    0 0 0
   5 B    1     2.3952     4.5262    6 B    0 0 1
   5 B    1     2.5590     4.8358   32 C    1 1-1

   6 B    1     1.3783     2.6045   40 O    0 0 0
   6 B    1     1.3812     2.6101   42 O    0 0 0
   6 B    1     1.5546     2.9377   25 C    1 1-2
   6 B    1     2.3859     4.5087    4 B    0 0-1
   6 B    1     2.3952     4.5262    5 B    0 0-1
   6 B    1     2.5605     4.8386   26 C    1 1-2

   7 H    1     1.0917     2.0629   20 C    0 0 0
   7 H    1     2.1461     4.0556   19 C    0 0 0
   7 H    1     2.1712     4.1029   23 C    0 0 0
   7 H    1     2.5280     4.7772   10 H    0 0 0
   7 H    1     2.5583     4.8346   38 O    0 0 0
   7 H    1     2.7310     5.1608    2 B    0 0 0

   8 H    1     1.0909     2.0615   21 C    0 0 0
   8 H    1     2.1454     4.0542   24 C    0-1 1
   8 H    1     2.1688     4.0985   22 C    0 0 0
   8 H    1     2.5272     4.7758    9 H    0 0 0
   8 H    1     2.5562     4.8304   40 O    0-1 2
   8 H    1     2.7242     5.1481    4 B    0-1 1

   9 H    1     1.0908     2.0614   22 C    0 0 0
   9 H    1     2.1442     4.0520   19 C    0-1 1
   9 H    1     2.1694     4.0995   21 C    0 0 0
   9 H    1     2.5272     4.7758    8 H    0 0 0
   9 H    1     2.5616     4.8406   39 O    0 0-1
   9 H    1     2.7248     5.1492    2 B    0-1 1

  10 H    1     1.0912     2.0621   23 C    0 0 0
  10 H    1     2.1469     4.0570   24 C    0 0 0
  10 H    1     2.1689     4.0986   20 C    0 0 0
  10 H    1     2.5280     4.7772    7 H    0 0 0
  10 H    1     2.5562     4.8305   41 O    0 0 0
  10 H    1     2.7309     5.1607    4 B    0 0 0

  11 H    1     1.0911     2.0619   26 C    0 0 0
  11 H    1     2.1443     4.0521   25 C    0 0 0
  11 H    1     2.1684     4.0978   29 C    0 0 0
  11 H    1     2.5222     4.7664   14 H    0 0 1
  11 H    1     2.5622     4.8419   42 O   -1-1 2
  11 H    1     2.7179     5.1361    6 B   -1-1 2

  12 H    1     1.0917     2.0630   27 C    0 0-1
  12 H    1     2.1441     4.0518   30 C    1 0 0
  12 H    1     2.1716     4.1037   28 C    0 0-1
  12 H    1     2.5226     4.7669   13 H    0 0-1
  12 H    1     2.5541     4.8265   37 O    0 0 0
  12 H    1     2.7237     5.1470    1 B    1 0 0

  13 H    1     1.0919     2.0633   28 C    0 0 0
  13 H    1     2.1522     4.0671   25 C    1 0 0
  13 H    1     2.1668     4.0946   27 C    0 0 0
  13 H    1     2.5226     4.7669   12 H    0 0 1
  13 H    1     2.5923     4.8987   40 O    0-1 2
  13 H    1     2.7582     5.2123    6 B    0-1 2

  14 H    1     1.0915     2.0627   29 C    0 0-1
  14 H    1     2.1483     4.0597   30 C    0 0 0
  14 H    1     2.1679     4.0968   26 C    0 0-1
  14 H    1     2.5222     4.7664   11 H    0 0-1
  14 H    1     2.5809     4.8771   38 O    0 0 0
  14 H    1     2.7404     5.1785    1 B    0 0 0

  15 H    1     1.0916     2.0628   32 C    0 0 0
  15 H    1     2.1436     4.0508   31 C   -1-1 1
  15 H    1     2.1707     4.1021   35 C    0 0 0
  15 H    1     2.5217     4.7654   18 H    0 0 0
  15 H    1     2.5567     4.8315   42 O   -1-1 2
  15 H    1     2.7165     5.1334    5 B   -1-1 1

  16 H    1     1.0914     2.0624   33 C    0 0 0
  16 H    1     2.1487     4.0605   36 C    0 0 0
  16 H    1     2.1663     4.0937   34 C    0 0 0
  16 H    1     2.5170     4.7564   17 H    0 0 0
  16 H    1     2.5779     4.8716   37 O    0 0 0
  16 H    1     2.7395     5.1769    3 B    0 0 0

  17 H    1     1.0921     2.0638   34 C    0 0 0
  17 H    1     2.1502     4.0633   31 C    0 0 0
  17 H    1     2.1683     4.0976   33 C    0 0 0
  17 H    1     2.5170     4.7564   16 H    0 0 0
  17 H    1     2.5870     4.8888   41 O    0 0 0
  17 H    1     2.7510     5.1986    5 B    0 0 0

  18 H    1     1.0913     2.0622   35 C    0 0 0
  18 H    1     2.1495     4.0619   36 C   -1-1 1
  18 H    1     2.1656     4.0923   32 C    0 0 0
  18 H    1     2.5217     4.7654   15 H    0 0 0
  18 H    1     2.5789     4.8734   39 O    0 0-1
  18 H    1     2.7392     5.1763    3 B   -1-1 1

  19 C    1     1.4017     2.6488   22 C    0 1-1
  19 C    1     1.4025     2.6504   20 C    0 0 0
  19 C    1     1.5510     2.9309    2 B    0 0 0
  19 C    1     2.1442     4.0520    9 H    0 1-1
  19 C    1     2.1461     4.0556    7 H    0 0 0
  19 C    1     2.4236     4.5800   21 C    0 1-1

  20 C    1     1.0917     2.0629    7 H    0 0 0
  20 C    1     1.3915     2.6296   23 C    0 0 0
  20 C    1     1.4025     2.6504   19 C    0 0 0
  20 C    1     2.1689     4.0986   10 H    0 0 0
  20 C    1     2.4191     4.5714   22 C    0 1-1
  20 C    1     2.4241     4.5809   24 C    0 0 0

  21 C    1     1.0909     2.0615    8 H    0 0 0
  21 C    1     1.3909     2.6284   22 C    0 0 0
  21 C    1     1.4014     2.6483   24 C    0-1 1
  21 C    1     2.1694     4.0995    9 H    0 0 0
  21 C    1     2.4189     4.5710   23 C    0-1 1
  21 C    1     2.4236     4.5800   19 C    0-1 1

  22 C    1     1.0908     2.0614    9 H    0 0 0
  22 C    1     1.3909     2.6284   21 C    0 0 0
  22 C    1     1.4017     2.6488   19 C    0-1 1
  22 C    1     2.1688     4.0985    8 H    0 0 0
  22 C    1     2.4191     4.5714   20 C    0-1 1
  22 C    1     2.4226     4.5780   24 C    0-1 1

  23 C    1     1.0912     2.0621   10 H    0 0 0
  23 C    1     1.3915     2.6296   20 C    0 0 0
  23 C    1     1.4021     2.6496   24 C    0 0 0
  23 C    1     2.1712     4.1029    7 H    0 0 0
  23 C    1     2.4189     4.5710   21 C    0 1-1
  23 C    1     2.4237     4.5802   19 C    0 0 0

  24 C    1     1.4014     2.6483   21 C    0 1-1
  24 C    1     1.4021     2.6496   23 C    0 0 0
  24 C    1     1.5479     2.9251    4 B    0 0 0
  24 C    1     2.1454     4.0542    8 H    0 1-1
  24 C    1     2.1469     4.0570   10 H    0 0 0
  24 C    1     2.4226     4.5780   22 C    0 1-1

  25 C    1     1.4025     2.6504   26 C    0 0 0
  25 C    1     1.4037     2.6526   28 C   -1 0 0
  25 C    1     1.5546     2.9377    6 B   -1-1 2
  25 C    1     2.1443     4.0521   11 H    0 0 0
  25 C    1     2.1522     4.0671   13 H   -1 0 0
  25 C    1     2.4271     4.5865   27 C   -1 0 0

  26 C    1     1.0911     2.0619   11 H    0 0 0
  26 C    1     1.3916     2.6298   29 C    0 0 0
  26 C    1     1.4025     2.6504   25 C    0 0 0
  26 C    1     2.1679     4.0968   14 H    0 0 1
  26 C    1     2.4165     4.5665   28 C   -1 0 0
  26 C    1     2.4246     4.5819   30 C    0 0 1

  27 C    1     1.0917     2.0630   12 H    0 0 1
  27 C    1     1.3928     2.6320   28 C    0 0 0
  27 C    1     1.4024     2.6501   30 C    1 0 1
  27 C    1     2.1668     4.0946   13 H    0 0 0
  27 C    1     2.4166     4.5668   29 C    1 0 0
  27 C    1     2.4271     4.5865   25 C    1 0 0

  28 C    1     1.0919     2.0633   13 H    0 0 0
  28 C    1     1.3928     2.6320   27 C    0 0 0
  28 C    1     1.4037     2.6526   25 C    1 0 0
  28 C    1     2.1716     4.1037   12 H    0 0 1
  28 C    1     2.4165     4.5665   26 C    1 0 0
  28 C    1     2.4277     4.5877   30 C    1 0 1

  29 C    1     1.0915     2.0627   14 H    0 0 1
  29 C    1     1.3916     2.6298   26 C    0 0 0
  29 C    1     1.4023     2.6499   30 C    0 0 1
  29 C    1     2.1684     4.0978   11 H    0 0 0
  29 C    1     2.4166     4.5668   27 C   -1 0 0
  29 C    1     2.4281     4.5884   25 C    0 0 0

  30 C    1     1.4023     2.6499   29 C    0 0-1
  30 C    1     1.4024     2.6501   27 C   -1 0-1
  30 C    1     1.5517     2.9323    1 B    0 0 0
  30 C    1     2.1441     4.0518   12 H   -1 0 0
  30 C    1     2.1483     4.0597   14 H    0 0 0
  30 C    1     2.4246     4.5819   26 C    0 0-1

  31 C    1     1.4022     2.6498   32 C    1 1-1
  31 C    1     1.4030     2.6512   34 C    0 0 0
  31 C    1     1.5523     2.9334    5 B    0 0 0
  31 C    1     2.1436     4.0508   15 H    1 1-1
  31 C    1     2.1502     4.0633   17 H    0 0 0
  31 C    1     2.4264     4.5853   33 C    0 0 0

  32 C    1     1.0916     2.0628   15 H    0 0 0
  32 C    1     1.3918     2.6301   35 C    0 0 0
  32 C    1     1.4022     2.6498   31 C   -1-1 1
  32 C    1     2.1656     4.0923   18 H    0 0 0
  32 C    1     2.4163     4.5661   34 C   -1-1 1
  32 C    1     2.4270     4.5863   36 C   -1-1 1

  33 C    1     1.0914     2.0624   16 H    0 0 0
  33 C    1     1.3927     2.6318   34 C    0 0 0
  33 C    1     1.4029     2.6510   36 C    0 0 0
  33 C    1     2.1683     4.0976   17 H    0 0 0
  33 C    1     2.4155     4.5646   35 C    1 1-1
  33 C    1     2.4264     4.5853   31 C    0 0 0

  34 C    1     1.0921     2.0638   17 H    0 0 0
  34 C    1     1.3927     2.6318   33 C    0 0 0
  34 C    1     1.4030     2.6512   31 C    0 0 0
  34 C    1     2.1663     4.0937   16 H    0 0 0
  34 C    1     2.4163     4.5661   32 C    1 1-1
  34 C    1     2.4289     4.5899   36 C    0 0 0

  35 C    1     1.0913     2.0622   18 H    0 0 0
  35 C    1     1.3918     2.6301   32 C    0 0 0
  35 C    1     1.4029     2.6511   36 C   -1-1 1
  35 C    1     2.1707     4.1021   15 H    0 0 0
  35 C    1     2.4155     4.5646   33 C   -1-1 1
  35 C    1     2.4269     4.5861   31 C   -1-1 1

  36 C    1     1.4029     2.6510   33 C    0 0 0
  36 C    1     1.4029     2.6511   35 C    1 1-1
  36 C    1     1.5529     2.9346    3 B    0 0 0
  36 C    1     2.1487     4.0605   16 H    0 0 0
  36 C    1     2.1495     4.0619   18 H    1 1-1
  36 C    1     2.4270     4.5863   32 C    1 1-1

  37 O    1     1.3790     2.6060    3 B    0 0 0
  37 O    1     1.3795     2.6068    1 B    1 0 0
  37 O    1     2.3868     4.5105   39 O    1 1-2
  37 O    1     2.3885     4.5136   38 O    1 0 0
  37 O    1     2.5389     4.7979   30 C    1 0 0
  37 O    1     2.5412     4.8021   36 C    0 0 0

  38 O    1     1.3787     2.6054    1 B    0 0 0
  38 O    1     1.3792     2.6064    2 B    0 0 0
  38 O    1     2.3885     4.5136   37 O   -1 0 0
  38 O    1     2.3912     4.5187   39 O    0 1-2
  38 O    1     2.5351     4.7906   19 C    0 0 0
  38 O    1     2.5405     4.8008   30 C    0 0 0

  39 O    1     1.3795     2.6069    3 B   -1-1 2
  39 O    1     1.3798     2.6075    2 B    0-1 2
  39 O    1     2.3868     4.5105   37 O   -1-1 2
  39 O    1     2.3912     4.5187   38 O    0-1 2
  39 O    1     2.5416     4.8030   19 C    0-1 2
  39 O    1     2.5427     4.8050   36 C   -1-1 2

  40 O    1     1.3783     2.6045    6 B    0 0 0
  40 O    1     1.3785     2.6051    4 B    0 0-1
  40 O    1     2.3876     4.5119   42 O    0 0 0
  40 O    1     2.3913     4.5189   41 O    0 0-1
  40 O    1     2.5354     4.7912   25 C    1 1-2
  40 O    1     2.5360     4.7923   24 C    0 0-1

  41 O    1     1.3778     2.6037    4 B    0 0 0
  41 O    1     1.3778     2.6037    5 B    0 0 0
  41 O    1     2.3870     4.5107   42 O    0 0 1
  41 O    1     2.3913     4.5189   40 O    0 0 1
  41 O    1     2.5304     4.7818   24 C    0 0 0
  41 O    1     2.5353     4.7911   31 C    0 0 0

  42 O    1     1.3812     2.6101    6 B    0 0 0
  42 O    1     1.3813     2.6104    5 B    0 0-1
  42 O    1     2.3870     4.5107   41 O    0 0-1
  42 O    1     2.3876     4.5119   40 O    0 0 0
  42 O    1     2.5481     4.8152   31 C    0 0-1
  42 O    1     2.5522     4.8230   25 C    1 1-2


 SYMMETRY ALLOWED ELASTIC DISTORTION 1
  0.5773503  0.0000000  0.0000000
  0.0000000  0.5773503  0.0000000
  0.0000000  0.0000000  0.5773503

 SYMMETRY ALLOWED ELASTIC DISTORTION 2
  0.8164966  0.0000000  0.0000000
  0.0000000 -0.4082483  0.0000000
  0.0000000  0.0000000 -0.4082483

 SYMMETRY ALLOWED ELASTIC DISTORTION 3
  0.0000000  0.7071068  0.0000000
  0.7071068  0.0000000  0.0000000
  0.0000000  0.0000000  0.0000000

 SYMMETRY ALLOWED ELASTIC DISTORTION 4
  0.0000000  0.0000000  0.0000000
  0.0000000  0.7071068  0.0000000
  0.0000000  0.0000000 -0.7071068

 SYMMETRY ALLOWED ELASTIC DISTORTION 5
  0.0000000  0.0000000  0.7071068
  0.0000000  0.0000000  0.0000000
  0.7071068  0.0000000  0.0000000

 SYMMETRY ALLOWED ELASTIC DISTORTION 6
  0.0000000  0.0000000  0.0000000
  0.0000000  0.0000000  0.7071068
  0.0000000  0.7071068  0.0000000

 SYMMETRY ALLOWED INTERNAL DEGREE(S) OF FREEDOM: 123
 TTTTTTTTTTTTTTTTTTTTTTTTTTTTTT SYMM        TELAPSE        0.33 TCPU        0.33
 TTTTTTTTTTTTTTTTTTTTTTTTTTTTTT INT_SCREEN  TELAPSE        0.36 TCPU        0.36

 *******************************************************************************
 *                             OPTIMIZATION STARTS                             *
 *******************************************************************************
 RECLASIFICATION OF INDICES FOR INTEGRAL CALC ACCORDING TO DIFFERENT CRITERIA:
           FIXDELTE                  FIXDELTX              FIXDELTN
          0.10000000               0.80000000                129
 DEFAULT MAX NUM OF POINTS  258
 *******************************************************************************

 *******************************************************************************
 COORDINATE AND CELL OPTIMIZATION - POINT    1

 DFT PARAMETERS

     ATOM       ELECTRONS   NET CHARGE   R(ANGSTROM)
   1   5  B       5.0000      0.0000     0.89000000
   7   1  H       1.0000      0.0000     1.11000000
  19   6  C       6.0000      0.0000     0.77000000
  37   8  O       8.0000      0.0000     0.74000000

 SIZE OF GRID=    1242923
 TTTTTTTTTTTTTTTTTTTTTTTTTTTTTT MAKE_GRID2  TELAPSE       18.18 TCPU       18.16
 BECKE WEIGHT FUNCTION
 RADSAFE =     2.00
 TOLERANCES - DENSITY:10**- 6; POTENTIAL:10**- 9; GRID WGT:10**-14

 RADIAL INTEGRATION  - INTERVALS (POINTS,UPPER LIMIT):            1( 75,  4.0*R)

 ANGULAR INTEGRATION - INTERVALS (ACCURACY LEVEL [N. POINTS] UPPER LIMIT):
  1(  4[  86]   0.2)  2(  8[ 194]   0.5)  3( 12[ 350]   0.9)  4( 16[ 974]   3.5)
  5( 12[ 350]9999.0)
 TTTTTTTTTTTTTTTTTTTTTTTTTTTTTT INT_CALC    TELAPSE       18.30 TCPU       18.28

 *******************************************************************************
 COF-1_z33_inc_L020                                                              
 CRYSTAL - SCF - TYPE OF CALCULATION :  RESTRICTED CLOSED SHELL
 *******************************************************************************

 CAPPA:IS1  2;IS2  2;IS3  8; K PTS MONK NET  20; SYMMOPS:K SPACE   2;G SPACE   1

 TTTTTTTTTTTTTTTTTTTTTTTTTTTTTT SDIK        TELAPSE       19.15 TCPU       57.18

 AAAAAAAAAAAAAAAAAAAAAAAAAAAAAAAAAAAAAAAAAAAAAAAAAAAAAAAAAAAAAAAAAAAAAAAAAAAAAAA
         ATOMIC WAVEFUNCTION(S)


 NUCLEAR CHARGE  5.0  SYMMETRY SPECIES            S    P
 N. ELECTRONS    5.0  NUMBER OF PRIMITIVE GTOS    8    4
                      NUMBER OF CONTRACTED GTOS   4    2
                      NUMBER OF CLOSED SHELLS     2    0
                      OPEN SHELL OCCUPATION       0    1

  ZNUC  SCFIT    TOTAL HF ENERGY   KINETIC ENERGY   VIRIAL THEOREM ACCURACY
   5.0    11    -2.451164084E+01  2.462155050E+01 -1.995536038E+00  1.5E-06

 NUCLEAR CHARGE  1.0  SYMMETRY SPECIES            S
 N. ELECTRONS    1.0  NUMBER OF PRIMITIVE GTOS    4
                      NUMBER OF CONTRACTED GTOS   2
                      NUMBER OF CLOSED SHELLS     0
                      OPEN SHELL OCCUPATION       1

  ZNUC  SCFIT    TOTAL HF ENERGY   KINETIC ENERGY   VIRIAL THEOREM ACCURACY
   1.0     1    -4.977266687E-01  5.190767460E-01 -1.958869132E+00  0.0E+00

 NUCLEAR CHARGE  6.0  SYMMETRY SPECIES            S    P
 N. ELECTRONS    6.0  NUMBER OF PRIMITIVE GTOS    8    4
                      NUMBER OF CONTRACTED GTOS   4    2
                      NUMBER OF CLOSED SHELLS     2    0
                      OPEN SHELL OCCUPATION       0    2

  ZNUC  SCFIT    TOTAL HF ENERGY   KINETIC ENERGY   VIRIAL THEOREM ACCURACY
   6.0     9    -3.766704647E+01  3.775180683E+01 -1.997754800E+00  1.1E-06

 NUCLEAR CHARGE  8.0  SYMMETRY SPECIES            S    P
 N. ELECTRONS    8.0  NUMBER OF PRIMITIVE GTOS    8    4
                      NUMBER OF CONTRACTED GTOS   4    2
                      NUMBER OF CLOSED SHELLS     2    0
                      OPEN SHELL OCCUPATION       0    4

  ZNUC  SCFIT    TOTAL HF ENERGY   KINETIC ENERGY   VIRIAL THEOREM ACCURACY
   8.0    12    -7.477373220E+01  7.477365593E+01 -2.000001020E+00  3.8E-06

 AAAAAAAAAAAAAAAAAAAAAAAAAAAAAAAAAAAAAAAAAAAAAAAAAAAAAAAAAAAAAAAAAAAAAAAAAAAAAAA

 CHARGE NORMALIZATION FACTOR   1.00000000
 TOTAL ATOMIC CHARGES:
   5.0000000   5.0000000   5.0000000   5.0000000   5.0000000   5.0000000
   1.0000000   1.0000000   1.0000000   1.0000000   1.0000000   1.0000000
   1.0000000   1.0000000   1.0000000   1.0000000   1.0000000   1.0000000
   6.0000000   6.0000000   6.0000000   6.0000000   6.0000000   6.0000000
   6.0000000   6.0000000   6.0000000   6.0000000   6.0000000   6.0000000
   6.0000000   6.0000000   6.0000000   6.0000000   6.0000000   6.0000000
   8.0000000   8.0000000   8.0000000   8.0000000   8.0000000   8.0000000
 TTTTTTTTTTTTTTTTTTTTTTTTTTTTTT MOQGAD      TELAPSE       19.20 TCPU       62.64
 TTTTTTTTTTTTTTTTTTTTTTTTTTTTTT SHELLXN     TELAPSE       23.29 TCPU      453.90
 TTTTTTTTTTTTTTTTTTTTTTTTTTTTTT MONMO3      TELAPSE       23.35 TCPU      460.42
 NUMERICALLY INTEGRATED DENSITY    197.9999576111
 TTTTTTTTTTTTTTTTTTTTTTTTTTTTTT NUMDFT      TELAPSE       23.61 TCPU      485.25
 CYC   0 ETOT(AU) -1.295994624621E+03 DETOT -1.30E+03 tst  0.00E+00 PX  1.00E+00
 TTTTTTTTTTTTTTTTTTTTTTTTTTTTTT DIIS        TELAPSE       23.65 TCPU      488.91
 TTTTTTTTTTTTTTTTTTTTTTTTTTTTTT FDIK        TELAPSE       24.21 TCPU      541.01
 INSULATING STATE
 TOP OF VALENCE BANDS -    BAND     99; K    1; EIG -3.0001770E-01 AU
 BOTTOM OF VIRTUAL BANDS - BAND    100; K    1; EIG -1.6241475E-01 AU
 DIRECT ENERGY BAND GAP:   3.7444 eV
 TTTTTTTTTTTTTTTTTTTTTTTTTTTTTT PDIG        TELAPSE       24.51 TCPU      558.17
 CHARGE NORMALIZATION FACTOR   1.00000000
 TOTAL ATOMIC CHARGES:
   4.1286360   4.1365511   4.1378154   4.1389950   4.1367772   4.1283089
   0.7864398   0.7863943   0.7851965   0.7851469   0.7862806   0.7861773
   0.7872170   0.7867628   0.7861392   0.7867505   0.7852982   0.7855767
   6.0514177   6.2710918   6.2712664   6.2682874   6.2669111   6.0538380
   6.0442573   6.2672508   6.2653674   6.2682178   6.2679621   6.0478819
   6.0503921   6.2711031   6.2721507   6.2678058   6.2693681   6.0478340
   8.7085119   8.7078850   8.7023520   8.7074746   8.7013327   8.7095766
 TTTTTTTTTTTTTTTTTTTTTTTTTTTTTT MOQGAD      TELAPSE       24.57 TCPU      558.23
 TTTTTTTTTTTTTTTTTTTTTTTTTTTTTT SHELLXN     TELAPSE       28.82 TCPU      963.59
 TTTTTTTTTTTTTTTTTTTTTTTTTTTTTT MONMO3      TELAPSE       28.91 TCPU      971.87
 NUMERICALLY INTEGRATED DENSITY    197.9999636953
 TTTTTTTTTTTTTTTTTTTTTTTTTTTTTT NUMDFT      TELAPSE       29.17 TCPU      996.88
 CYC   1 ETOT(AU) -1.288826457489E+03 DETOT  7.17E+00 tst  0.00E+00 PX  1.00E+00
 TTTTTTTTTTTTTTTTTTTTTTTTTTTTTT DIIS        TELAPSE       29.22 TCPU     1001.77
 DIIS TEST: 0.10803E+01 AT SCF   CYCLE   1 - MIX   30 %
 TTTTTTTTTTTTTTTTTTTTTTTTTTTTTT FDIK        TELAPSE       29.76 TCPU     1053.30
 INSULATING STATE
 TOP OF VALENCE BANDS -    BAND     99; K    3; EIG -2.0807355E-01 AU
 TOP OF VALENCE BANDS -    BAND     99; K    1; EIG -2.0807522E-01 AU
 BOTTOM OF VIRTUAL BANDS - BAND    100; K    1; EIG -8.4195682E-02 AU
 INDIRECT ENERGY BAND GAP:   3.3709 eV
 TTTTTTTTTTTTTTTTTTTTTTTTTTTTTT PDIG        TELAPSE       30.05 TCPU     1070.47
 CHARGE NORMALIZATION FACTOR   1.00000000
 TOTAL ATOMIC CHARGES:
   4.6701459   4.6774783   4.6771976   4.6773269   4.6765091   4.6708646
   0.9158509   0.9162300   0.9204377   0.9201491   0.9123165   0.9119277
   0.9131062   0.9132872   0.9152701   0.9158945   0.9197283   0.9200837
   5.8671387   6.1158069   6.1137943   6.1507546   6.1535609   5.8634164
   5.8791117   6.1316606   6.1339107   6.1363808   6.1341954   5.8751687
   5.8699186   6.1101523   6.1136037   6.1540414   6.1503329   5.8695787
   8.3497622   8.3483431   8.3691981   8.3467256   8.3665246   8.3531148
 TTTTTTTTTTTTTTTTTTTTTTTTTTTTTT MOQGAD      TELAPSE       30.11 TCPU     1070.53
 TTTTTTTTTTTTTTTTTTTTTTTTTTTTTT SHELLXN     TELAPSE       34.38 TCPU     1476.93
 TTTTTTTTTTTTTTTTTTTTTTTTTTTTTT MONMO3      TELAPSE       34.46 TCPU     1484.74
 NUMERICALLY INTEGRATED DENSITY    197.9999560335
 TTTTTTTTTTTTTTTTTTTTTTTTTTTTTT NUMDFT      TELAPSE       34.73 TCPU     1509.91
 CYC   2 ETOT(AU) -1.289017678394E+03 DETOT -1.91E-01 tst  3.49E-03 PX  1.57E-01
 TTTTTTTTTTTTTTTTTTTTTTTTTTTTTT DIIS        TELAPSE       34.78 TCPU     1515.26
 DIIS TEST: 0.46018E+00 AT SCF   CYCLE   2 - DIIS ACTIVE - HISTORY:     2 CYCLES
 TTTTTTTTTTTTTTTTTTTTTTTTTTTTTT FDIK        TELAPSE       35.33 TCPU     1567.56
 INSULATING STATE
 TOP OF VALENCE BANDS -    BAND     99; K    1; EIG -2.2058353E-01 AU
 BOTTOM OF VIRTUAL BANDS - BAND    100; K    1; EIG -7.9599361E-02 AU
 DIRECT ENERGY BAND GAP:   3.8364 eV
 TTTTTTTTTTTTTTTTTTTTTTTTTTTTTT PDIG        TELAPSE       35.63 TCPU     1584.72
 CHARGE NORMALIZATION FACTOR   1.00000000
 TOTAL ATOMIC CHARGES:
   4.4633666   4.4659547   4.4662919   4.4674109   4.4655118   4.4630308
   0.8899762   0.8898850   0.8928335   0.8927962   0.8882832   0.8881066
   0.8899919   0.8893101   0.8888262   0.8900310   0.8930910   0.8926867
   5.8927628   6.1692137   6.1705893   6.1646897   6.1648234   5.8952831
   5.9030924   6.1606636   6.1607198   6.1636947   6.1632378   5.9045658
   5.8937574   6.1691867   6.1695947   6.1655508   6.1666630   5.8931834
   8.5281113   8.5277229   8.5201034   8.5273174   8.5181318   8.5299567
 TTTTTTTTTTTTTTTTTTTTTTTTTTTTTT MOQGAD      TELAPSE       35.68 TCPU     1584.78
 TTTTTTTTTTTTTTTTTTTTTTTTTTTTTT SHELLXN     TELAPSE       39.95 TCPU     1991.19
 TTTTTTTTTTTTTTTTTTTTTTTTTTTTTT MONMO3      TELAPSE       40.02 TCPU     1997.54
 NUMERICALLY INTEGRATED DENSITY    197.9999575431
 TTTTTTTTTTTTTTTTTTTTTTTTTTTTTT NUMDFT      TELAPSE       40.29 TCPU     2022.92
 CYC   3 ETOT(AU) -1.289114496500E+03 DETOT -9.68E-02 tst  7.48E-04 PX  6.29E-02
 TTTTTTTTTTTTTTTTTTTTTTTTTTTTTT DIIS        TELAPSE       40.35 TCPU     2028.67
 DIIS TEST: 0.11331E-01 AT SCF   CYCLE   3 - DIIS ACTIVE - HISTORY:     3 CYCLES
 TTTTTTTTTTTTTTTTTTTTTTTTTTTTTT FDIK        TELAPSE       40.89 TCPU     2080.45
 INSULATING STATE
 TOP OF VALENCE BANDS -    BAND     99; K    3; EIG -2.3284897E-01 AU
 TOP OF VALENCE BANDS -    BAND     99; K    1; EIG -2.3285032E-01 AU
 BOTTOM OF VIRTUAL BANDS - BAND    100; K    1; EIG -8.9143766E-02 AU
 INDIRECT ENERGY BAND GAP:   3.9104 eV
 TTTTTTTTTTTTTTTTTTTTTTTTTTTTTT PDIG        TELAPSE       41.19 TCPU     2097.64
 CHARGE NORMALIZATION FACTOR   1.00000000
 TOTAL ATOMIC CHARGES:
   4.4728030   4.4720087   4.4718306   4.4729421   4.4712252   4.4729740
   0.8745833   0.8750177   0.8760855   0.8759935   0.8705242   0.8703473
   0.8719268   0.8717758   0.8740387   0.8747945   0.8759268   0.8762471
   5.9462676   6.1560513   6.1534557   6.1811790   6.1820958   5.9431664
   5.9547561   6.1662417   6.1663844   6.1678710   6.1667236   5.9534729
   5.9470204   6.1522473   6.1548501   6.1831396   6.1804228   5.9451701
   8.4917094   8.4904168   8.5075490   8.4889347   8.5056259   8.4942035
 TTTTTTTTTTTTTTTTTTTTTTTTTTTTTT MOQGAD      TELAPSE       41.24 TCPU     2097.70
 TTTTTTTTTTTTTTTTTTTTTTTTTTTTTT SHELLXN     TELAPSE       45.52 TCPU     2504.68
 TTTTTTTTTTTTTTTTTTTTTTTTTTTTTT MONMO3      TELAPSE       45.59 TCPU     2511.09
 NUMERICALLY INTEGRATED DENSITY    197.9999575324
 TTTTTTTTTTTTTTTTTTTTTTTTTTTTTT NUMDFT      TELAPSE       45.85 TCPU     2536.78
 CYC   4 ETOT(AU) -1.289116748548E+03 DETOT -2.25E-03 tst  3.47E-05 PX  1.22E-02
 TTTTTTTTTTTTTTTTTTTTTTTTTTTTTT DIIS        TELAPSE       45.92 TCPU     2543.21
 DIIS TEST: 0.40959E-02 AT SCF   CYCLE   4 - DIIS ACTIVE - HISTORY:     4 CYCLES
 TTTTTTTTTTTTTTTTTTTTTTTTTTTTTT FDIK        TELAPSE       46.46 TCPU     2594.85
 INSULATING STATE
 TOP OF VALENCE BANDS -    BAND     99; K    1; EIG -2.3014636E-01 AU
 BOTTOM OF VIRTUAL BANDS - BAND    100; K    1; EIG -8.8074441E-02 AU
 DIRECT ENERGY BAND GAP:   3.8660 eV
 TTTTTTTTTTTTTTTTTTTTTTTTTTTTTT PDIG        TELAPSE       46.76 TCPU     2612.03
 CHARGE NORMALIZATION FACTOR   1.00000000
 TOTAL ATOMIC CHARGES:
   4.4718818   4.4747150   4.4749139   4.4758329   4.4740657   4.4718306
   0.8770572   0.8770299   0.8796310   0.8794663   0.8745306   0.8742679
   0.8759845   0.8755175   0.8760946   0.8771550   0.8796540   0.8794798
   5.9228298   6.1645050   6.1654698   6.1762916   6.1770984   5.9243440
   5.9307559   6.1668314   6.1675668   6.1698419   6.1687776   5.9310618
   5.9243716   6.1634263   6.1645538   6.1773959   6.1776127   5.9239938
   8.5058311   8.5049378   8.5066329   8.5044053   8.5045234   8.5078332
 TTTTTTTTTTTTTTTTTTTTTTTTTTTTTT MOQGAD      TELAPSE       46.82 TCPU     2612.09
 TTTTTTTTTTTTTTTTTTTTTTTTTTTTTT SHELLXN     TELAPSE       51.09 TCPU     3018.38
 TTTTTTTTTTTTTTTTTTTTTTTTTTTTTT MONMO3      TELAPSE       51.16 TCPU     3025.07
 NUMERICALLY INTEGRATED DENSITY    197.9999575789
 TTTTTTTTTTTTTTTTTTTTTTTTTTTTTT NUMDFT      TELAPSE       51.42 TCPU     3050.51
 CYC   5 ETOT(AU) -1.289117686159E+03 DETOT -9.38E-04 tst  5.84E-06 PX  7.16E-03
 TTTTTTTTTTTTTTTTTTTTTTTTTTTTTT DIIS        TELAPSE       51.50 TCPU     3057.87
 DIIS TEST: 0.11244E-03 AT SCF   CYCLE   5 - DIIS ACTIVE - HISTORY:     5 CYCLES
 TTTTTTTTTTTTTTTTTTTTTTTTTTTTTT FDIK        TELAPSE       52.06 TCPU     3111.75
 INSULATING STATE
 TOP OF VALENCE BANDS -    BAND     99; K    1; EIG -2.2989690E-01 AU
 BOTTOM OF VIRTUAL BANDS - BAND    100; K    1; EIG -8.7546705E-02 AU
 DIRECT ENERGY BAND GAP:   3.8735 eV
 TTTTTTTTTTTTTTTTTTTTTTTTTTTTTT PDIG        TELAPSE       52.36 TCPU     3128.94
 CHARGE NORMALIZATION FACTOR   1.00000000
 TOTAL ATOMIC CHARGES:
   4.4726437   4.4737378   4.4736822   4.4747308   4.4730721   4.4726602
   0.8781317   0.8784352   0.8806418   0.8806094   0.8754078   0.8752587
   0.8768903   0.8765506   0.8774434   0.8783126   0.8805819   0.8807527
   5.9242366   6.1640620   6.1620115   6.1768992   6.1774064   5.9221634
   5.9323985   6.1666399   6.1662203   6.1683565   6.1680567   5.9322037
   5.9248739   6.1611341   6.1629834   6.1787577   6.1767958   5.9228446
   8.5033223   8.5026158   8.5106718   8.5011622   8.5088506   8.5057902
 TTTTTTTTTTTTTTTTTTTTTTTTTTTTTT MOQGAD      TELAPSE       52.42 TCPU     3128.99
 TTTTTTTTTTTTTTTTTTTTTTTTTTTTTT SHELLXN     TELAPSE       56.70 TCPU     3536.13
 TTTTTTTTTTTTTTTTTTTTTTTTTTTTTT MONMO3      TELAPSE       56.76 TCPU     3542.56
 NUMERICALLY INTEGRATED DENSITY    197.9999576063
 TTTTTTTTTTTTTTTTTTTTTTTTTTTTTT NUMDFT      TELAPSE       57.03 TCPU     3568.02
 CYC   6 ETOT(AU) -1.289117706894E+03 DETOT -2.07E-05 tst  3.64E-07 PX  1.51E-03
 TTTTTTTTTTTTTTTTTTTTTTTTTTTTTT DIIS        TELAPSE       57.11 TCPU     3575.56
 DIIS TEST: 0.39993E-04 AT SCF   CYCLE   6 - DIIS ACTIVE - HISTORY:     6 CYCLES
 TTTTTTTTTTTTTTTTTTTTTTTTTTTTTT FDIK        TELAPSE       57.75 TCPU     3636.99
 INSULATING STATE
 TOP OF VALENCE BANDS -    BAND     99; K    1; EIG -2.2993978E-01 AU
 BOTTOM OF VIRTUAL BANDS - BAND    100; K    1; EIG -8.7609899E-02 AU
 DIRECT ENERGY BAND GAP:   3.8730 eV
 TTTTTTTTTTTTTTTTTTTTTTTTTTTTTT PDIG        TELAPSE       58.05 TCPU     3654.16
 CHARGE NORMALIZATION FACTOR   1.00000000
 TOTAL ATOMIC CHARGES:
   4.4722867   4.4740629   4.4742045   4.4752110   4.4734344   4.4722609
   0.8781472   0.8782332   0.8805500   0.8804140   0.8753818   0.8751285
   0.8768262   0.8764474   0.8772763   0.8782797   0.8805646   0.8804727
   5.9237026   6.1630966   6.1633919   6.1761467   6.1769212   5.9243820
   5.9324669   6.1658974   6.1666743   6.1689047   6.1674857   5.9323507
   5.9249771   6.1614730   6.1630165   6.1774120   6.1770500   5.9244103
   8.5043327   8.5032535   8.5082888   8.5026250   8.5062140   8.5063444
 TTTTTTTTTTTTTTTTTTTTTTTTTTTTTT MOQGAD      TELAPSE       58.11 TCPU     3654.22
 TTTTTTTTTTTTTTTTTTTTTTTTTTTTTT SHELLXN     TELAPSE       62.37 TCPU     4059.90
 TTTTTTTTTTTTTTTTTTTTTTTTTTTTTT MONMO3      TELAPSE       62.46 TCPU     4068.15
 NUMERICALLY INTEGRATED DENSITY    197.9999575721
 TTTTTTTTTTTTTTTTTTTTTTTTTTTTTT NUMDFT      TELAPSE       62.72 TCPU     4093.10
 CYC   7 ETOT(AU) -1.289117715176E+03 DETOT -8.28E-06 tst  1.02E-07 PX  9.50E-04
 TTTTTTTTTTTTTTTTTTTTTTTTTTTTTT DIIS        TELAPSE       62.80 TCPU     4101.32
 DIIS TEST: 0.23062E-05 AT SCF   CYCLE   7 - DIIS ACTIVE - HISTORY:     7 CYCLES
 TTTTTTTTTTTTTTTTTTTTTTTTTTTTTT FDIK        TELAPSE       63.34 TCPU     4153.32
 INSULATING STATE
 TOP OF VALENCE BANDS -    BAND     99; K    1; EIG -2.2996502E-01 AU
 BOTTOM OF VIRTUAL BANDS - BAND    100; K    1; EIG -8.7643046E-02 AU
 DIRECT ENERGY BAND GAP:   3.8728 eV
 TTTTTTTTTTTTTTTTTTTTTTTTTTTTTT PDIG        TELAPSE       63.64 TCPU     4170.49
 CHARGE NORMALIZATION FACTOR   1.00000000
 TOTAL ATOMIC CHARGES:
   4.4723982   4.4742024   4.4742680   4.4752578   4.4735415   4.4723689
   0.8780618   0.8782027   0.8804938   0.8803942   0.8753189   0.8751261
   0.8768150   0.8763902   0.8772358   0.8782010   0.8804783   0.8804768
   5.9241571   6.1635602   6.1629113   6.1762582   6.1769304   5.9237223
   5.9321387   6.1663421   6.1663359   6.1684704   6.1680194   5.9322512
   5.9252247   6.1615388   6.1629435   6.1777306   6.1768562   5.9239585
   8.5041826   8.5034480   8.5084453   8.5023772   8.5064777   8.5064881
 TTTTTTTTTTTTTTTTTTTTTTTTTTTTTT MOQGAD      TELAPSE       63.70 TCPU     4170.55
 TTTTTTTTTTTTTTTTTTTTTTTTTTTTTT SHELLXN     TELAPSE       67.97 TCPU     4577.06
 TTTTTTTTTTTTTTTTTTTTTTTTTTTTTT MONMO3      TELAPSE       68.04 TCPU     4583.57
 NUMERICALLY INTEGRATED DENSITY    197.9999575736
 TTTTTTTTTTTTTTTTTTTTTTTTTTTTTT NUMDFT      TELAPSE       68.30 TCPU     4609.02
 CYC   8 ETOT(AU) -1.289117715367E+03 DETOT -1.91E-07 tst  1.28E-08 PX  1.62E-04
 TTTTTTTTTTTTTTTTTTTTTTTTTTTTTT DIIS        TELAPSE       68.40 TCPU     4618.02
 DIIS TEST: 0.57976E-06 AT SCF   CYCLE   8 - DIIS ACTIVE - HISTORY:     8 CYCLES
 TTTTTTTTTTTTTTTTTTTTTTTTTTTTTT FDIK        TELAPSE       69.01 TCPU     4676.56
 INSULATING STATE
 TOP OF VALENCE BANDS -    BAND     99; K    1; EIG -2.2996653E-01 AU
 BOTTOM OF VIRTUAL BANDS - BAND    100; K    1; EIG -8.7646223E-02 AU
 DIRECT ENERGY BAND GAP:   3.8727 eV
 TTTTTTTTTTTTTTTTTTTTTTTTTTTTTT PDIG        TELAPSE       69.31 TCPU     4693.74
 CHARGE NORMALIZATION FACTOR   1.00000000
 TOTAL ATOMIC CHARGES:
   4.4724163   4.4741719   4.4742580   4.4752613   4.4735224   4.4724013
   0.8780553   0.8781885   0.8804945   0.8803858   0.8753256   0.8751007
   0.8767842   0.8764023   0.8772229   0.8781944   0.8804851   0.8804635
   5.9238861   6.1634063   6.1631010   6.1762829   6.1769854   5.9238685
   5.9322387   6.1661408   6.1665591   6.1687568   6.1677417   5.9321758
   5.9250318   6.1614739   6.1630470   6.1777191   6.1769373   5.9240274
   8.5042197   8.5032921   8.5085895   8.5024255   8.5065909   8.5063684
 TTTTTTTTTTTTTTTTTTTTTTTTTTTTTT MOQGAD      TELAPSE       69.36 TCPU     4693.80
 TTTTTTTTTTTTTTTTTTTTTTTTTTTTTT SHELLXN     TELAPSE       73.63 TCPU     5099.33
 TTTTTTTTTTTTTTTTTTTTTTTTTTTTTT MONMO3      TELAPSE       73.71 TCPU     5106.71
 NUMERICALLY INTEGRATED DENSITY    197.9999575755
 TTTTTTTTTTTTTTTTTTTTTTTTTTTTTT NUMDFT      TELAPSE       73.97 TCPU     5131.80
 CYC   9 ETOT(AU) -1.289117715507E+03 DETOT -1.40E-07 tst  2.92E-09 PX  7.07E-05
 TTTTTTTTTTTTTTTTTTTTTTTTTTTTTT DIIS        TELAPSE       74.07 TCPU     5141.28
 DIIS TEST: 0.38654E-07 AT SCF   CYCLE   9 - DIIS ACTIVE - HISTORY:     9 CYCLES
 TTTTTTTTTTTTTTTTTTTTTTTTTTTTTT FDIK        TELAPSE       74.68 TCPU     5199.57
 INSULATING STATE
 TOP OF VALENCE BANDS -    BAND     99; K    1; EIG -2.2996390E-01 AU
 BOTTOM OF VIRTUAL BANDS - BAND    100; K    1; EIG -8.7643675E-02 AU
 DIRECT ENERGY BAND GAP:   3.8727 eV
 TTTTTTTTTTTTTTTTTTTTTTTTTTTTTT PDIG        TELAPSE       74.98 TCPU     5216.75
 CHARGE NORMALIZATION FACTOR   1.00000000
 TOTAL ATOMIC CHARGES:
   4.4723983   4.4741524   4.4742422   4.4752404   4.4735010   4.4723747
   0.8780593   0.8781869   0.8804963   0.8803844   0.8753181   0.8751024
   0.8767899   0.8763914   0.8772225   0.8781983   0.8804910   0.8804596
   5.9239166   6.1634342   6.1631048   6.1762784   6.1769789   5.9238598
   5.9322591   6.1661934   6.1664975   6.1686777   6.1678125   5.9322477
   5.9250366   6.1615294   6.1630203   6.1776736   6.1769717   5.9240427
   8.5042045   8.5033180   8.5085653   8.5024178   8.5065570   8.5063933
 TTTTTTTTTTTTTTTTTTTTTTTTTTTTTT MOQGAD      TELAPSE       75.04 TCPU     5216.81
 TTTTTTTTTTTTTTTTTTTTTTTTTTTTTT SHELLXN     TELAPSE       79.33 TCPU     5625.16
 TTTTTTTTTTTTTTTTTTTTTTTTTTTTTT MONMO3      TELAPSE       79.39 TCPU     5631.62
 NUMERICALLY INTEGRATED DENSITY    197.9999575747
 TTTTTTTTTTTTTTTTTTTTTTTTTTTTTT NUMDFT      TELAPSE       79.66 TCPU     5656.88
 CYC  10 ETOT(AU) -1.289117715547E+03 DETOT -3.95E-08 tst  1.97E-10 PX  2.05E-05
 TTTTTTTTTTTTTTTTTTTTTTTTTTTTTT DIIS        TELAPSE       79.76 TCPU     5666.73
 DIIS TEST: 0.47596E-08 AT SCF   CYCLE  10 - DIIS ACTIVE - HISTORY:    10 CYCLES
 TTTTTTTTTTTTTTTTTTTTTTTTTTTTTT FDIK        TELAPSE       80.30 TCPU     5718.73
 INSULATING STATE
 TOP OF VALENCE BANDS -    BAND     99; K    1; EIG -2.2996445E-01 AU
 BOTTOM OF VIRTUAL BANDS - BAND    100; K    1; EIG -8.7643250E-02 AU
 DIRECT ENERGY BAND GAP:   3.8728 eV
 TTTTTTTTTTTTTTTTTTTTTTTTTTTTTT PDIG        TELAPSE       80.60 TCPU     5735.90
 CHARGE NORMALIZATION FACTOR   1.00000000
 TOTAL ATOMIC CHARGES:
   4.4723941   4.4741526   4.4742390   4.4752400   4.4735034   4.4723742
   0.8780591   0.8781904   0.8804957   0.8803866   0.8753211   0.8751028
   0.8767889   0.8763958   0.8772255   0.8781983   0.8804874   0.8804643
   5.9239326   6.1634312   6.1630862   6.1762742   6.1769785   5.9238672
   5.9322575   6.1661794   6.1665117   6.1686952   6.1677958   5.9322340
   5.9250688   6.1615024   6.1630261   6.1777040   6.1769373   5.9240345
   8.5042130   8.5033216   8.5085570   8.5024212   8.5065594   8.5063922
 TTTTTTTTTTTTTTTTTTTTTTTTTTTTTT MOQGAD      TELAPSE       80.66 TCPU     5735.96
 TTTTTTTTTTTTTTTTTTTTTTTTTTTTTT SHELLXN     TELAPSE       84.93 TCPU     6142.52
 +++ ENERGIES IN A.U. +++
 ::: EXT EL-POLE                                  -1.5651479507948E+03
 ::: EXT EL-SPHEROPOLE                             1.7369010447229E+01
 ::: BIELET ZONE E-E                               2.4505820124963E+03
 ::: TOTAL E-E                                     9.0280307214867E+02
 ::: TOTAL E-N + N-E                              -3.6288462236262E+03
 ::: TOTAL N-N                                     2.9071168992296E+02
 ::: KINETIC ENERGY                                1.2799405788282E+03
 ::: PSEUDO TOTAL   ENERGY                        -1.1553908827263E+03
 ::: VIRIAL COEFFICIENT                            1.0511428107706E+00
 TTTTTTTTTTTTTTTTTTTTTTTTTTTTTT MONMO3      TELAPSE       84.99 TCPU     6148.94
 NUMERICALLY INTEGRATED DENSITY    197.9999575747
 EXCHANGE ENERGY: -0.126015985275E+03  CORRELATION ENERGY: -0.771084753871E+01
 TTTTTTTTTTTTTTTTTTTTTTTTTTTTTT NUMDFT      TELAPSE       85.26 TCPU     6174.09
 CYC  11 ETOT(AU) -1.289117715540E+03 DETOT  6.68E-09 tst  4.10E-11 PX  2.05E-05

 == SCF ENDED - CONVERGENCE ON ENERGY      E(AU) -1.2891177155401E+03 CYCLES  11


 ENERGY EXPRESSION=HARTREE+FOCK EXCH*0.00000+(HSESOL     EXCH)*1.00000+PBESOL     CORR


 TOTAL ENERGY(DFT)(AU)( 11) -1.2891177155401E+03 DE 6.7E-09 tester 4.1E-11
 TTTTTTTTTTTTTTTTTTTTTTTTTTTTTT EDFT        TELAPSE       85.26 TCPU     6174.13

 *******************************************************************************
 *                             FORCE CALCULATION                               *
 *******************************************************************************

 TTTTTTTTTTTTTTTTTTTTTTTTTTTTTT NUMDFG      TELAPSE       88.72 TCPU     6482.38
 INFORMATION **** GENPOG **** BIPO BUFFER LENGTH (WORDS) =     1854900
 TTTTTTTTTTTTTTTTTTTTTTTTTTTTTT SHELXG      TELAPSE      112.06 TCPU     8718.37


 D3 DISPERSION ENERGY (AU)      -5.0571561891477E-02
 GCP ENERGY (AU)                 8.4415825767378E-02
 TOTAL ENERGY + DISP + GCP (AU) -1.2890838712762E+03

 CARTESIAN FORCES IN HARTREE/BOHR (ANALYTICAL)
   ATOM                     X                   Y                   Z
   1   5            -1.600608534282E-03 -2.681052963930E-03  4.678608262651E-03
   2   5             6.284601641934E-03 -2.627643695675E-03 -1.069008271859E-03
   3   5            -5.000646269613E-03  3.946545615515E-03 -2.679973657904E-04
   4   5            -6.533074666733E-03  2.267167484372E-03 -2.565223021356E-04
   5   5             4.675745653099E-03 -3.406872312692E-03 -3.101525551812E-03
   6   5             1.065945360543E-03  3.197321161793E-03 -4.792108120167E-03
   7   1             3.711605418597E-03 -9.976398821046E-04 -8.492680683552E-04
   8   1            -3.276982529431E-03  1.357414136922E-03  9.164665755159E-04
   9   1             3.329375934779E-03  2.091322937801E-03  1.532628185454E-04
  10   1            -3.221385804918E-03 -1.669730609656E-03 -5.322103541039E-05
  11   1             2.795849126923E-03  2.206923251219E-03  1.017427668475E-04
  12   1            -2.834846616034E-03 -2.750798429943E-03 -6.336628748244E-05
  13   1             1.127943336430E-03  2.411602829875E-03  2.445415415791E-04
  14   1            -8.798890846751E-04 -2.963156400103E-03 -2.067929181855E-04
  15   1             3.036545574152E-03 -2.760184893431E-03  1.020590025589E-03
  16   1            -2.172649328353E-03  2.125986406488E-03 -9.120266417720E-04
  17   1             7.367053184937E-04 -3.255704833744E-03  3.546250798425E-05
  18   1            -1.497144256271E-04  3.073691924820E-03  1.070201605461E-04
  19   6             7.592040263821E-06 -4.347476766167E-04  5.399361495075E-04
  20   6             2.578718450122E-03  2.637783984790E-03  2.511098865896E-03
  21   6            -3.201142605810E-03 -2.227285461830E-03 -2.498650813749E-03
  22   6             3.818868027613E-03 -2.973410962777E-03 -8.155694020155E-04
  23   6            -4.585289126334E-03  2.875836315264E-03  1.063055751904E-03
  24   6            -1.219066306331E-03  7.912379691050E-04 -2.443682962950E-04
  25   6             1.442544223949E-03 -1.771115791849E-04  2.417287959299E-03
  26   6            -1.496083982762E-04  3.574310903685E-03  9.242657696653E-04
  27   6             1.031241379525E-04 -4.279834779773E-03 -6.593906892988E-04
  28   6             3.222667851878E-03  1.552477647147E-03  7.723177541722E-04
  29   6            -3.178736264934E-03 -1.517831653522E-03 -3.433083760686E-04
  30   6            -4.801093765802E-04 -8.458693776728E-04 -2.922470398376E-03
  31   6             2.024451486426E-03  1.886708866161E-04  2.061710441761E-03
  32   6            -6.208178428899E-04 -3.589168888471E-03 -2.862553284175E-03
  33   6            -7.570674246082E-05  3.855639621009E-03  2.134522317695E-03
  34   6             4.644779112761E-03 -1.890453914260E-03  6.060671127659E-04
  35   6            -4.249581709153E-03  2.221237933749E-03 -1.509425997564E-03
  36   6            -8.149733803783E-04  8.050144463131E-04  9.006158058834E-04
  37   8             6.735344292519E-03  3.900604601847E-05 -1.847523714413E-03
  38   8            -4.302711624323E-03  6.426378722029E-03 -1.829429626512E-03
  39   8            -2.962794332801E-03 -5.254951478891E-03  1.688477808969E-03
  40   8             3.575016536324E-03 -6.642011651234E-03  2.028671988653E-03
  41   8             3.462939137753E-03  4.804403038385E-03 -5.142085892214E-04
  42   8            -6.870027692527E-03  4.954881827461E-04  2.713013365271E-03

 RESULTANT FORCE     4.646283358056E-14  1.501576640806E-13  4.429789868254E-14

 ATOMIC PART

 SYMMETRY ALLOWED FORCES (ANALYTICAL) (DIRECTION, FORCE)

    1 -4.3265575E-05    2 -3.1600515E-03    3  4.7353207E-03    4  6.8385090E-03
    5  8.0670363E-04    6 -9.6675839E-04    7 -6.2151661E-03    8  8.6630865E-04
    9 -1.8002188E-04   10 -6.8683455E-03   11 -1.3612698E-03   12 -1.7307348E-04
   13  5.6603408E-03   14 -6.8597744E-04   15 -3.0608825E-03   16 -7.0517359E-04
   17  3.2576781E-03   18 -4.8586599E-03   19  3.7280714E-03   20  1.0107060E-03
   21 -9.9678067E-04   22 -3.4978471E-03   23 -4.4278602E-04   24  7.6583431E-04
   25  1.8288492E-03   26  3.5470248E-03   27  1.4018905E-05   28 -1.9601180E-03
   29 -2.9812119E-03   30 -1.9523499E-04   31  1.2967633E-03   32  3.3949610E-03
   33 -4.3991082E-05   34 -1.0911048E-03   35 -3.7223256E-03   36 -2.1327211E-04
   37 -2.6896594E-04   38  2.7147244E-03   39  9.2667876E-05   40  6.9226628E-04
   41 -2.9478503E-03   42 -3.6340294E-04   43  4.0660549E-03   44 -8.7882014E-04
   45  8.7328373E-04   46 -2.8688461E-03   47  7.3937950E-04   48 -1.0631824E-03
   49  2.3352430E-03   50 -2.4961834E-03   51 -1.3863839E-04   52 -1.5876148E-03
   53  2.5402679E-03   54 -7.1266191E-05   55  2.7870929E-04   56 -3.7319878E-04
   57  3.6792693E-04   58  9.9327350E-04   59  3.6460082E-03   60  2.3997512E-03
   61 -1.5872843E-03   62 -3.4571193E-03   63 -2.6162157E-03   64  4.9444365E-03
   65 -6.8516596E-04   66 -1.0192649E-03   67 -5.2705467E-03   68  1.5592327E-04
   69  8.5586026E-04   70 -1.4895501E-03   71  4.2573742E-05   72 -4.4109459E-04
   73  1.2948546E-03   74  5.5412762E-04   75  2.2725017E-03   76 -1.9836605E-03
   77  3.1128684E-03   78  8.7137996E-04   79  2.1765346E-03   80 -3.5765778E-03
   81 -7.0793856E-04   82  2.0983888E-03   83  3.0189960E-03   84  7.2514088E-04
   85 -1.9002767E-03   86 -2.8417959E-03   87 -3.7881369E-04   88  2.8411778E-05
   89 -1.0574522E-03   90 -3.0936425E-03   91  1.7539960E-03   92  1.0957674E-03
   93  1.8426631E-03   94  1.5043033E-03   95 -3.6186200E-03   96 -3.1460750E-03
   97 -1.7696364E-03   98  3.0797346E-03   99  1.7892634E-03  100  5.4074243E-03
  101  6.7538409E-04  102  3.7928570E-04  103 -4.3000442E-03  104 -1.9140404E-04
  105 -1.8314877E-03  106 -9.8812640E-04  107  3.1281678E-04  108  4.8832282E-04
  109  6.4100908E-03  110  3.7859360E-03  111 -2.4326447E-03  112 -6.4074827E-03
  113  4.6376767E-03  114 -2.9591393E-03  115 -1.7778190E-04  116 -4.9130163E-03
  117  2.4189725E-04  118  7.5300210E-03  119 -4.4084653E-03  120  7.5874545E-04
  121  4.7983589E-03  122  6.2963662E-03  123 -2.2819905E-03

 CELL PART

 GRADIENT WITH RESPECT TO THE CELL PARAMETER IN HARTREE/BOHR
ORDER: -D/DA1X, -D/DA1Y, -D/DA1Z
       -D/DA2X, -D/DA2Y, -D/DA2Z
       -D/DA3X, -D/DA3Y, -D/DA3Z
 -0.307700175398E-02  0.371764527497E-03 -0.104349200369E-03
 -0.121010355961E-02 -0.480384383866E-02 -0.164448070194E-03
 -0.632766766994E-03 -0.914147699611E-03 -0.945960968961E-03

STRESS TENSOR, IN HARTREE/BOHR^3:
ORDER: 11 12 13
       21 22 23
       31 32 33
  0.176299839504E-04 -0.166843311118E-05  0.905906213848E-06
 -0.169965663851E-05  0.332522409396E-04  0.130874774822E-05
  0.999565465185E-06  0.144308568484E-05  0.135429350045E-05

STRESS TENSOR DOES NOT CORRESPOND TO
HYDROSTATIC PRESSURE, NO PRESSURE COMPUTED!

 SYMMETRY ALLOWED FORCES (ANALYTICAL) (DIRECTION, FORCE)

    1 -2.9679992E-03    2 -2.3882824E-05    3  2.0418702E-04    4 -2.4947209E-03
    5 -1.4049681E-04    6 -2.1521938E-04
 TTTTTTTTTTTTTTTTTTTTTTTTTTTTTT TOTGRA      TELAPSE      118.35 TCPU     8946.15
 INFORMATION **** optc001 **** GEOMETRY OUTPUT FILE
 CLASSICAL MODEL (SCHLEGEL) USED AS INITIAL HESSIAN MATRIX
 REFERENCE GEOMETRY DEFINED

 MAX GRADIENT      0.007530  THRESHOLD              0.000450 CONVERGED NO
 RMS GRADIENT      0.002771  THRESHOLD              0.000300 CONVERGED NO

 GRADIENT NORM     0.031469  GRADIENT THRESHOLD     0.500000

 EIGENVALUES OF THE ESTIMATED HESSIAN
  0.2156E-04  0.2387E-04  0.1156E-03  0.1337E-03  0.1524E-03  0.2053E-03
  0.2811E-03  0.4680E-03  0.9451E-03  0.1019E-02  0.1145E-02  0.1353E-02
  0.1409E-02  0.1640E-02  0.1795E-02  0.1836E-02  0.2088E-02  0.2750E-02
  0.3018E-02  0.3094E-02  0.3879E-02  0.5495E-02  0.5746E-02  0.6252E-02
  0.9460E-02  0.1013E-01  0.1018E-01  0.1035E-01  0.1309E-01  0.1549E-01
  0.1554E-01  0.1563E-01  0.1691E-01  0.1835E-01  0.1844E-01  0.1914E-01
  0.1978E-01  0.2340E-01  0.2634E-01  0.2690E-01  0.2778E-01  0.3720E-01
  0.3827E-01  0.4170E-01  0.4572E-01  0.4582E-01  0.4917E-01  0.4963E-01
  0.5099E-01  0.5116E-01  0.5340E-01  0.5676E-01  0.5931E-01  0.6643E-01
  0.6790E-01  0.6802E-01  0.6816E-01  0.6825E-01  0.6976E-01  0.6993E-01
  0.7020E-01  0.7336E-01  0.8888E-01  0.9017E-01  0.9578E-01  0.9637E-01
  0.9898E-01  0.1006      0.1208      0.1214      0.1220      0.1347    
  0.1350      0.1440      0.2138      0.2142      0.2224      0.2250    
  0.2257      0.2735      0.3057      0.3075      0.3149      0.3462    
  0.3528      0.3547      0.4246      0.4258      0.4498      0.4535    
  0.4577      0.4605      0.4704      0.6310      0.6328      0.6463    
  0.6560      0.7306      0.7704      0.7718      0.7958      0.7964    
  0.9012      0.9180      0.9205      0.9778      0.9822       1.032    
   1.074       1.074       1.075       1.077       1.117       1.120    
   1.184       1.186       1.188       1.212       1.224       1.225    
   1.313       1.346       1.351       1.374       1.379       1.381    
   1.429       1.447       1.452    
 NEWTON STEP ( 0.7570491961E+01) EXCEEDS TRUST RADIUS ( 0.3000000000E+00)
 LEVEL SHIFT    -0.1085015886E-03

 INITIAL TRUST RADIUS    0.3000000000E+00

 PREDICTED ENERGY CHANGE    -0.101E-02

 INITIAL DISPLACEMENTS
 -0.000900 -0.001022  0.003666  0.000035 -0.000689  0.008453 -0.001247 -0.000158
  0.010784 -0.001247  0.000038 -0.017842  0.000890  0.000749 -0.031759  0.000155
  0.000303 -0.027004  0.004116  0.001363  0.091412 -0.006296 -0.001764 -0.073664
  0.002499  0.003297 -0.067502 -0.005211 -0.003734  0.085551  0.002492  0.004364
  0.012604 -0.001702 -0.006382 -0.009700  0.001045  0.002121  0.020570  0.000322
 -0.004072 -0.013784  0.005483 -0.000241 -0.089574 -0.002833  0.002246  0.082663
  0.005024 -0.000888  0.085881 -0.002768  0.002770 -0.086819 -0.000780 -0.000285
  0.014548 -0.000827  0.000999  0.066632 -0.001633 -0.001557 -0.046999  0.000055
 -0.000853 -0.037715 -0.002879 -0.000008  0.055771 -0.001772 -0.000397 -0.003753
  0.001071 -0.000277  0.009144  0.000081  0.000298  0.011375  0.000686 -0.002126
 -0.001880  0.001825 -0.000475  0.014866 -0.000827 -0.001394 -0.002246 -0.000559
 -0.001290 -0.000672  0.001201  0.000576 -0.005661  0.000846 -0.000318 -0.060059
  0.000620  0.001731  0.058737  0.002780  0.001698  0.057452 -0.000489  0.000261
 -0.045564  0.000148  0.000743  0.014722  0.000496  0.000321  0.012159 -0.001768
 -0.000330  0.013500 -0.000778 -0.002098  0.032283  0.000916 -0.000905  0.008411
  0.000876  0.001309 -0.004995  0.008130  0.003024  0.000811 -0.010258 -0.034225
 -0.061061
[...]
   4 B    1     2.5643     4.8459   21 C    0 1-1

   5 B    1     1.3767     2.6016   42 O    0 0 1
   5 B    1     1.3792     2.6063   41 O    0 0 0
   5 B    1     1.5481     2.9255   31 C    0 0 0
   5 B    1     2.3953     4.5265    6 B    0 0 1
   5 B    1     2.4026     4.5403    4 B    0 0 0
   5 B    1     2.5641     4.8454   32 C    1 1-1

   6 B    1     1.3766     2.6014   42 O    0 0 0
   6 B    1     1.3766     2.6015   40 O    0 0 0
   6 B    1     1.5511     2.9311   25 C    1 1-2
   6 B    1     2.3953     4.5265    5 B    0 0-1
   6 B    1     2.3954     4.5266    4 B    0 0-1
   6 B    1     2.5680     4.8528   26 C    1 1-2

   7 H    1     1.0905     2.0607   20 C    0 0 0
   7 H    1     2.1445     4.0525   23 C    0 0 0
   7 H    1     2.1585     4.0790   19 C    0 0 0
   7 H    1     2.4593     4.6473   10 H    0 0 0
   7 H    1     2.6210     4.9529   38 O    0 0 0
   7 H    1     2.7592     5.2142    2 B    0 0 0

   8 H    1     1.0905     2.0607   21 C    0 0 0
   8 H    1     2.1445     4.0525   22 C    0 0 0
   8 H    1     2.1586     4.0792   24 C    0-1 1
   8 H    1     2.4592     4.6473    9 H    0 0 0
   8 H    1     2.6210     4.9530   40 O    0-1 2
   8 H    1     2.7593     5.2143    4 B    0-1 1

   9 H    1     1.0913     2.0623   22 C    0 0 0
   9 H    1     2.1435     4.0506   21 C    0 0 0
   9 H    1     2.1602     4.0821   19 C    0-1 1
   9 H    1     2.4592     4.6473    8 H    0 0 0
   9 H    1     2.6164     4.9443   39 O    0 0-1
   9 H    1     2.7614     5.2183    2 B    0-1 1

  10 H    1     1.0913     2.0623   23 C    0 0 0
  10 H    1     2.1435     4.0506   20 C    0 0 0
  10 H    1     2.1601     4.0821   24 C    0 0 0
  10 H    1     2.4593     4.6473    7 H    0 0 0
  10 H    1     2.6162     4.9438   41 O    0 0 0
  10 H    1     2.7614     5.2183    4 B    0 0 0

  11 H    1     1.0904     2.0606   26 C    0 0 0
  11 H    1     2.1453     4.0541   29 C    0 0 0
  11 H    1     2.1579     4.0778   25 C    0 0 0
  11 H    1     2.4630     4.6544   14 H    0 0 1
  11 H    1     2.6102     4.9325   42 O   -1-1 2
  11 H    1     2.7601     5.2158    6 B   -1-1 2

  12 H    1     1.0904     2.0606   27 C    0 0-1
  12 H    1     2.1454     4.0541   28 C    0 0-1
  12 H    1     2.1578     4.0777   30 C    1 0 0
  12 H    1     2.4630     4.6543   13 H    0 0-1
  12 H    1     2.6098     4.9319   37 O    0 0 0
  12 H    1     2.7599     5.2155    1 B    1 0 0

  13 H    1     1.0904     2.0605   28 C    0 0 0
  13 H    1     2.1453     4.0540   27 C    0 0 0
  13 H    1     2.1580     4.0780   25 C    1 0 0
  13 H    1     2.4630     4.6543   12 H    0 0 1
  13 H    1     2.6114     4.9348   40 O    0-1 2
  13 H    1     2.7609     5.2174    6 B    0-1 2

  14 H    1     1.0904     2.0606   29 C    0 0-1
  14 H    1     2.1453     4.0541   26 C    0 0-1
  14 H    1     2.1580     4.0780   30 C    0 0 0
  14 H    1     2.4630     4.6544   11 H    0 0-1
  14 H    1     2.6115     4.9351   38 O    0 0 0
  14 H    1     2.7609     5.2174    1 B    0 0 0

  15 H    1     1.0904     2.0606   32 C    0 0 0
  15 H    1     2.1444     4.0524   35 C    0 0 0
  15 H    1     2.1584     4.0787   31 C   -1-1 1
  15 H    1     2.4596     4.6480   18 H    0 0 0
  15 H    1     2.6199     4.9508   42 O   -1-1 2
  15 H    1     2.7585     5.2128    5 B   -1-1 1

  16 H    1     1.0904     2.0605   33 C    0 0 0
  16 H    1     2.1445     4.0524   34 C    0 0 0
  16 H    1     2.1583     4.0785   36 C    0 0 0
  16 H    1     2.4596     4.6479   17 H    0 0 0
  16 H    1     2.6204     4.9519   37 O    0 0 0
  16 H    1     2.7587     5.2131    3 B    0 0 0

  17 H    1     1.0914     2.0624   34 C    0 0 0
  17 H    1     2.1436     4.0509   33 C    0 0 0
  17 H    1     2.1601     4.0820   31 C    0 0 0
  17 H    1     2.4596     4.6479   16 H    0 0 0
  17 H    1     2.6170     4.9455   41 O    0 0 0
  17 H    1     2.7617     5.2188    5 B    0 0 0

  18 H    1     1.0914     2.0625   35 C    0 0 0
  18 H    1     2.1437     4.0509   32 C    0 0 0
  18 H    1     2.1602     4.0822   36 C   -1-1 1
  18 H    1     2.4596     4.6480   15 H    0 0 0
  18 H    1     2.6167     4.9449   39 O    0 0-1
  18 H    1     2.7615     5.2184    3 B   -1-1 1

  19 C    1     1.3996     2.6449   20 C    0 0 0
  19 C    1     1.4009     2.6472   22 C    0 1-1
  19 C    1     1.5481     2.9255    2 B    0 0 0
  19 C    1     2.1585     4.0790    7 H    0 0 0
  19 C    1     2.1602     4.0821    9 H    0 1-1
  19 C    1     2.4208     4.5746   23 C    0 0 0

  20 C    1     1.0905     2.0607    7 H    0 0 0
  20 C    1     1.3852     2.6177   23 C    0 0 0
  20 C    1     1.3996     2.6449   19 C    0 0 0
  20 C    1     2.1435     4.0506   10 H    0 0 0
  20 C    1     2.4045     4.5438   22 C    0 1-1
  20 C    1     2.4241     4.5809   24 C    0 0 0

  21 C    1     1.0905     2.0607    8 H    0 0 0
  21 C    1     1.3852     2.6177   22 C    0 0 0
  21 C    1     1.3997     2.6450   24 C    0-1 1
  21 C    1     2.1435     4.0506    9 H    0 0 0
  21 C    1     2.4045     4.5438   23 C    0-1 1
  21 C    1     2.4241     4.5809   19 C    0-1 1

  22 C    1     1.0913     2.0623    9 H    0 0 0
  22 C    1     1.3852     2.6177   21 C    0 0 0
  22 C    1     1.4009     2.6472   19 C    0-1 1
  22 C    1     2.1445     4.0525    8 H    0 0 0
  22 C    1     2.4045     4.5438   20 C    0-1 1
  22 C    1     2.4208     4.5747   24 C    0-1 1

  23 C    1     1.0913     2.0623   10 H    0 0 0
  23 C    1     1.3852     2.6177   20 C    0 0 0
  23 C    1     1.4008     2.6472   24 C    0 0 0
  23 C    1     2.1445     4.0525    7 H    0 0 0
  23 C    1     2.4045     4.5438   21 C    0 1-1
  23 C    1     2.4208     4.5746   19 C    0 0 0

  24 C    1     1.3997     2.6450   21 C    0 1-1
  24 C    1     1.4008     2.6472   23 C    0 0 0
  24 C    1     1.5481     2.9255    4 B    0 0 0
  24 C    1     2.1586     4.0792    8 H    0 1-1
  24 C    1     2.1601     4.0821   10 H    0 0 0
  24 C    1     2.4208     4.5747   22 C    0 1-1

  25 C    1     1.4006     2.6468   28 C   -1 0 0
  25 C    1     1.4007     2.6469   26 C    0 0 0
  25 C    1     1.5511     2.9311    6 B   -1-1 2
  25 C    1     2.1579     4.0778   11 H    0 0 0
  25 C    1     2.1580     4.0780   13 H   -1 0 0
  25 C    1     2.4235     4.5798   27 C   -1 0 0

  26 C    1     1.0904     2.0606   11 H    0 0 0
  26 C    1     1.3859     2.6189   29 C    0 0 0
  26 C    1     1.4007     2.6469   25 C    0 0 0
  26 C    1     2.1453     4.0541   14 H    0 0 1
  26 C    1     2.4046     4.5440   28 C   -1 0 0
  26 C    1     2.4237     4.5801   30 C    0 0 1

  27 C    1     1.0904     2.0606   12 H    0 0 1
  27 C    1     1.3859     2.6189   28 C    0 0 0
  27 C    1     1.4007     2.6469   30 C    1 0 1
  27 C    1     2.1453     4.0540   13 H    0 0 0
  27 C    1     2.4045     4.5439   29 C    1 0 0
  27 C    1     2.4235     4.5798   25 C    1 0 0

  28 C    1     1.0904     2.0605   13 H    0 0 0
  28 C    1     1.3859     2.6189   27 C    0 0 0
  28 C    1     1.4006     2.6468   25 C    1 0 0
  28 C    1     2.1454     4.0541   12 H    0 0 1
  28 C    1     2.4046     4.5440   26 C    1 0 0
  28 C    1     2.4238     4.5804   30 C    1 0 1

  29 C    1     1.0904     2.0606   14 H    0 0 1
  29 C    1     1.3859     2.6189   26 C    0 0 0
  29 C    1     1.4007     2.6469   30 C    0 0 1
  29 C    1     2.1453     4.0541   11 H    0 0 0
  29 C    1     2.4045     4.5439   27 C   -1 0 0
  29 C    1     2.4237     4.5802   25 C    0 0 0

  30 C    1     1.4007     2.6469   29 C    0 0-1
  30 C    1     1.4007     2.6469   27 C   -1 0-1
  30 C    1     1.5508     2.9306    1 B    0 0 0
  30 C    1     2.1578     4.0777   12 H   -1 0 0
  30 C    1     2.1580     4.0780   14 H    0 0 0
  30 C    1     2.4237     4.5801   26 C    0 0-1

  31 C    1     1.3997     2.6450   32 C    1 1-1
  31 C    1     1.4008     2.6471   34 C    0 0 0
  31 C    1     1.5481     2.9255    5 B    0 0 0
  31 C    1     2.1584     4.0787   15 H    1 1-1
  31 C    1     2.1601     4.0820   17 H    0 0 0
  31 C    1     2.4209     4.5748   35 C    1 1-1

  32 C    1     1.0904     2.0606   15 H    0 0 0
  32 C    1     1.3852     2.6176   35 C    0 0 0
  32 C    1     1.3997     2.6450   31 C   -1-1 1
  32 C    1     2.1437     4.0509   18 H    0 0 0
  32 C    1     2.4045     4.5438   34 C   -1-1 1
  32 C    1     2.4238     4.5804   36 C   -1-1 1

  33 C    1     1.0904     2.0605   16 H    0 0 0
  33 C    1     1.3852     2.6176   34 C    0 0 0
  33 C    1     1.3996     2.6449   36 C    0 0 0
  33 C    1     2.1436     4.0509   17 H    0 0 0
  33 C    1     2.4045     4.5438   35 C    1 1-1
  33 C    1     2.4239     4.5804   31 C    0 0 0

  34 C    1     1.0914     2.0624   17 H    0 0 0
  34 C    1     1.3852     2.6176   33 C    0 0 0
  34 C    1     1.4008     2.6471   31 C    0 0 0
  34 C    1     2.1445     4.0524   16 H    0 0 0
  34 C    1     2.4045     4.5438   32 C    1 1-1
  34 C    1     2.4208     4.5747   36 C    0 0 0

  35 C    1     1.0914     2.0625   18 H    0 0 0
  35 C    1     1.3852     2.6176   32 C    0 0 0
  35 C    1     1.4008     2.6472   36 C   -1-1 1
  35 C    1     2.1444     4.0524   15 H    0 0 0
  35 C    1     2.4045     4.5438   33 C   -1-1 1
  35 C    1     2.4209     4.5748   31 C   -1-1 1

  36 C    1     1.3996     2.6449   33 C    0 0 0
  36 C    1     1.4008     2.6472   35 C    1 1-1
  36 C    1     1.5481     2.9256    3 B    0 0 0
  36 C    1     2.1583     4.0785   16 H    0 0 0
  36 C    1     2.1602     4.0822   18 H    1 1-1
  36 C    1     2.4208     4.5747   34 C    0 0 0

  37 O    1     1.3766     2.6014    3 B    0 0 0
  37 O    1     1.3767     2.6016    1 B    1 0 0
  37 O    1     2.3728     4.4840   39 O    1 1-2
  37 O    1     2.3755     4.4890   38 O    1 0 0
  37 O    1     2.5413     4.8024   30 C    1 0 0
  37 O    1     2.5438     4.8070   36 C    0 0 0

  38 O    1     1.3766     2.6015    2 B    0 0 0
  38 O    1     1.3767     2.6015    1 B    0 0 0
  38 O    1     2.3728     4.4839   39 O    0 1-2
  38 O    1     2.3755     4.4890   37 O   -1 0 0
  38 O    1     2.5414     4.8025   30 C    0 0 0
  38 O    1     2.5438     4.8071   19 C    0 0 0

  39 O    1     1.3792     2.6064    2 B    0-1 2
  39 O    1     1.3793     2.6064    3 B   -1-1 2
  39 O    1     2.3728     4.4839   38 O    0-1 2
  39 O    1     2.3728     4.4840   37 O   -1-1 2
  39 O    1     2.5416     4.8029   19 C    0-1 2
  39 O    1     2.5416     4.8030   36 C   -1-1 2

  40 O    1     1.3766     2.6015    6 B    0 0 0
  40 O    1     1.3767     2.6016    4 B    0 0-1
  40 O    1     2.3728     4.4839   41 O    0 0-1
  40 O    1     2.3754     4.4889   42 O    0 0 0
  40 O    1     2.5415     4.8027   25 C    1 1-2
  40 O    1     2.5439     4.8074   24 C    0 0-1

  41 O    1     1.3792     2.6063    5 B    0 0 0
  41 O    1     1.3792     2.6064    4 B    0 0 0
  41 O    1     2.3727     4.4838   42 O    0 0 1
  41 O    1     2.3728     4.4839   40 O    0 0 1
  41 O    1     2.5415     4.8027   24 C    0 0 0
  41 O    1     2.5416     4.8029   31 C    0 0 0

  42 O    1     1.3766     2.6014    6 B    0 0 0
  42 O    1     1.3767     2.6016    5 B    0 0-1
  42 O    1     2.3727     4.4838   41 O    0 0-1
  42 O    1     2.3754     4.4889   40 O    0 0 0
  42 O    1     2.5415     4.8027   25 C    1 1-2
  42 O    1     2.5438     4.8072   31 C    0 0-1


 FINAL OPTIMIZED GEOMETRY - DIMENSIONALITY OF THE SYSTEM      3
 (NON PERIODIC DIRECTION: LATTICE PARAMETER FORMALLY SET TO 500)
 *******************************************************************************
 LATTICE PARAMETERS (ANGSTROMS AND DEGREES) - BOHR = 0.5291772083 ANGSTROM
 PRIMITIVE CELL - CENTRING CODE 1/0 VOLUME=   634.700730 - DENSITY  1.021 g/cm^3
         A              B              C           ALPHA      BETA       GAMMA 
    15.03433708    15.05383224     3.76370038    63.822222  89.875176 119.948427
 *******************************************************************************
 ATOMS IN THE ASYMMETRIC UNIT   42 - ATOMS IN THE UNIT CELL:   42
     ATOM                 X/A                 Y/B                 Z/C    
 *******************************************************************************
      1 T   5 B    -4.232558201418E-01  1.515681782210E-01  4.941026611840E-01
      2 T   5 B    -2.642395395864E-01  3.098410499251E-01  4.982092371059E-01
      3 T   5 B    -4.240293982019E-01  3.098757466247E-01  4.979538660857E-01
      4 T   5 B     1.894533627989E-01 -4.630895914961E-01 -4.947202676269E-01
      5 T   5 B     3.492420209393E-01 -4.631285828681E-01 -4.946538601545E-01
      6 T   5 B     3.486574259740E-01 -3.044929238057E-01 -4.929379406230E-01
      7 T   1 H    -1.346628096851E-01  2.269080582198E-01 -4.523478723525E-01
      8 T   1 H     5.986979353471E-02 -3.801641636377E-01  4.559048449063E-01
      9 T   1 H    -1.286421493440E-01 -4.744371047903E-01  4.523139465748E-01
     10 T   1 H     5.385576823653E-02  3.211879403601E-01 -4.488220612292E-01
     11 T   1 H    -4.421638196894E-01 -1.721980417643E-01 -4.906784724577E-01
     12 T   1 H     3.678701612662E-01  1.985264001029E-02  4.880053218503E-01
     13 T   1 H     2.719995973738E-01 -1.717380975359E-01 -4.927955614704E-01
     14 T   1 H    -3.462947174050E-01  1.939670542162E-02  4.901196846728E-01
     15 T   1 H    -4.382584468223E-01 -3.801793851506E-01  4.557213417934E-01
     16 T   1 H     3.634379957273E-01  2.268693441151E-01 -4.521041817119E-01
     17 T   1 H     2.690071490804E-01  3.208900307314E-01 -4.469623175012E-01
     18 T   1 H    -3.438318707120E-01 -4.742103763648E-01  4.506385234170E-01
     19 T   6 C    -1.456484348205E-01  3.690192547051E-01 -4.984838902523E-01
     20 T   6 C    -9.241215857485E-02  3.129504385047E-01 -4.697145270306E-01
     21 T   6 C     1.761477690863E-02 -4.662215736639E-01  4.733791522101E-01
     22 T   6 C    -8.873121053073E-02  4.803041714494E-01  4.735196469641E-01
     23 T   6 C     1.393588375397E-02  3.664300580183E-01 -4.699021871467E-01
     24 T   6 C     7.084886055380E-02  4.777039689526E-01 -4.978233247316E-01
     25 T   6 C     4.078632965906E-01 -1.860738489361E-01 -4.896055142274E-01
     26 T   6 C    -4.842539614776E-01 -1.302811107948E-01 -4.947619538380E-01
     27 T   6 C     4.099361428429E-01 -2.211214595704E-02  4.924011211693E-01
     28 T   6 C     3.559299616389E-01 -1.300382538911E-01 -4.959321717364E-01
     29 T   6 C    -4.302522506994E-01 -2.235752421648E-02  4.935908188765E-01
     30 T   6 C    -4.822301092588E-01  3.359000748083E-02  4.879552136693E-01
     31 T   6 C     4.086245862500E-01  4.776103904801E-01 -4.974966833923E-01
     32 T   6 C    -4.820238212584E-01 -4.662403401655E-01  4.732571384614E-01
     33 T   6 C     4.071928186654E-01  3.129114317324E-01 -4.695171085328E-01
     34 T   6 C     3.542393178020E-01  3.662641201328E-01 -4.689838785433E-01
     35 T   6 C    -4.290726573333E-01  4.804041341690E-01  4.727547312412E-01
     36 T   6 C    -4.834533141616E-01  3.690752210827E-01 -4.988883233167E-01
     37 T   8 O    -4.753155212713E-01  2.054658344342E-01  4.904403310176E-01
     38 T   8 O    -3.173492985567E-01  2.053916034439E-01  4.909438068837E-01
     39 T   8 O    -3.187692282476E-01  3.606102995524E-01 -4.940202950968E-01
     40 T   8 O     2.426575971388E-01 -3.584835406329E-01 -4.884676077361E-01
     41 T   8 O     2.439483925171E-01  4.860809718507E-01  4.978205875491E-01
     42 T   8 O     4.006401281856E-01 -3.585171239472E-01 -4.884321649241E-01

 T = ATOM BELONGING TO THE ASYMMETRIC UNIT
 INFORMATION **** fort.34 **** GEOMETRY OUTPUT FILE

 DIRECT LATTICE VECTORS CARTESIAN COMPONENTS (ANGSTROM)
          X                    Y                    Z
   0.130206308602E+02  -0.751627368925E+01   0.965307990156E-02
   0.120933449118E-01   0.150528783859E+02  -0.169029807019E+00
   0.985983235289E+00   0.169576792615E+01   0.321210970969E+01


 CARTESIAN COORDINATES - PRIMITIVE CELL
 *******************************************************************************
 *      ATOM          X(ANGSTROM)         Y(ANGSTROM)         Z(ANGSTROM)
 *******************************************************************************
    1     5 B    -6.008031122110E+00  4.604959457593E+00 -1.654703016284E+00
    2     5 B    -3.931575768788E+00  5.799175661169E+00 -1.666730079990E+00
    3     5 B     7.008238955268E+00 -5.159844827502E-01 -1.659445608872E+00
    4     5 B     1.985509454956E+00  5.819132994908E+00 -1.678020829513E+00
    5     5 B     4.066123593373E+00  4.617643387167E+00 -1.676258478038E+00
    6     5 B     3.076138866470E+00  5.317102521604E+00 -4.909676263921E+00
    7     1 H    -2.196658076760E+00  3.660704925114E+00 -1.492645129096E+00
    8     1 H     1.224459558905E+00 -5.399453862458E+00  1.529253382135E+00
    9     1 H    -1.234765502814E+00 -5.407714954552E+00  1.531834238941E+00
   10     1 H     2.625892864471E-01  3.668910255453E+00 -1.495436162340E+00
   11     1 H    -5.257151838715E+00  1.595039213816E+00  1.660834983061E+00
   12     1 H     4.285323489955E+00 -3.334397592041E+00 -1.644387684845E+00
   13     1 H     4.039624536746E+00 -3.769475094795E+00  1.660850793131E+00
   14     1 H    -5.011474556051E+00  2.030183436048E+00 -1.644412943594E+00
   15     1 H    -5.261665494918E+00 -1.655925981863E+00  1.523858051189E+00
   16     1 H     4.289168448408E+00 -8.332656914130E-02 -1.487047617312E+00
   17     1 H     3.065826068901E+00  2.050442888764E+00 -1.487335232377E+00
   18     1 H    -4.038320626906E+00 -3.789718327075E+00  1.524337028512E+00
   19     6 C    -2.383468586895E+00  5.804222468847E+00 -1.664966153393E+00
   20     6 C    -1.662610635232E+00  4.608873138290E+00 -1.562564607236E+00
   21     6 C     6.904612375317E-01 -6.347632950221E+00  1.599521150654E+00
   22     6 C    -6.947387655205E-01 -6.353010611959E+00  1.607984611887E+00
   23     6 C    -2.774303156029E-01  4.614236126485E+00 -1.571180455733E+00
   24     6 C     4.374284466811E-01  5.814107495623E+00 -1.679125435054E+00
   25     6 C    -7.209003282774E+00  2.515225104112E+00  1.665179167390E+00
   26     6 C    -5.808711366073E+00  2.535446066556E+00  1.640226882616E+00
   27     6 C     5.822859032933E+00 -2.579045660586E+00  1.589341180476E+00
   28     6 C     5.129862473261E+00 -3.777934971441E+00  1.644537326828E+00
   29     6 C    -5.115753837893E+00  3.734364057929E+00  1.585093690578E+00
   30     6 C    -6.783401601847E+00  3.261890654564E+00 -1.655076748228E+00
   31     6 C     4.835802415730E+00  3.274437978244E+00 -1.674799833617E+00
   32     6 C    -5.815269043191E+00 -2.592701897551E+00  1.594309349895E+00
   33     6 C     4.842755528961E+00  8.534530045962E-01 -1.557101157291E+00
   34     6 C     4.154438509753E+00  2.055481774253E+00 -1.564917723063E+00
   35     6 C    -5.126952095974E+00 -3.794703542883E+00  1.602225378808E+00
   36     6 C     6.238331549259E+00  8.271393367426E-01 -1.659882474342E+00
   37     8 O     6.331790393834E+00 -1.714914867563E+00 -1.666426589553E+00
   38     8 O    -4.631525070994E+00  4.613777846268E+00 -1.672925041917E+00
   39     8 O    -2.673438069077E+00 -4.674906557778E+00  4.942370845565E+00
   40     8 O     1.699708970090E+00  5.308692704193E+00 -4.887214265524E+00
   41     8 O     2.687099830980E+00  4.631755129930E+00 -1.692862686284E+00
   42     8 O     3.756775729101E+00  4.120807339962E+00 -4.885569724747E+00

 ****    1 SYMMOPS - TRANSLATORS IN FRACTIONAL UNITS
 **** MATRICES AND TRANSLATORS IN THE CRYSTALLOGRAPHIC REFERENCE FRAME
   V INV                    ROTATION MATRICES                   TRANSLATORS
   1   1  1.00  0.00  0.00  0.00  1.00  0.00 -0.00 -0.00  1.00  0.00  0.00  0.00
 TTTTTTTTTTTTTTTTTTTTTTTTTTTTTT END         TELAPSE     1634.68 TCPU   122226.76
 EEEEEEEEEE TERMINATION  DATE 14 01 2026 TIME 13:09:58.2
