 Default number of threads is:           32

         
 *******************************************************************************
 *                                                                             *
 *                               CRYSTAL23                                     *
 *                      public : 1.0.1 - October 2022                          *
 *                       HTTP://WWW.CRYSTAL.UNITO.IT                           *
 *                                                                             *
 *                              MAIN AUTHORS                                   *
 *                                                                             *
 *  R. DOVESI(1,11), V.R. SAUNDERS(2), C. ROETTI(1,11), R. ORLANDO(1,11),      *
 *  C.M. ZICOVICH-WILSON(1,3), F. PASCALE(4), B. CIVALLERI(1,11),              *
 *  K. DOLL(5), N.M. HARRISON(6), I.J. BUSH(7), Ph. D'ARCO(8),                 *
 *  M. LLUNELL(9), M. CAUSA'(10), Y. NOEL(8), L. MASCHIO(1,11), A. ERBA(1,11)  *
 *  M. RE'RAT(14), S. CASASSA(1,11), B.G. SEARLE(2), J.K. DESMARAIS(1)         *
 *                                                                             *
 *        CONTRIBUTIONS TO THE CODE HAVE ALSO BEEN GIVEN BY                    *
 *                                                                             *
 *  M. FERRABONE(1,11), M. DE LA PIERRE(1,11), M. FERRERO(1,11),               *
 *  J. BAIMA(1,11), E. ALBANESE(1,11), M.F. PEINTINGER(12), R. BAST(13),       *
 *  B. KIRTMAN(15), V. LACIVITA(1,11), R. DEMICHELIS(1,16)                     *
 *  G. BRANDEBURG(17), S. SALUSTRO(1,11), G. SANSONE(1,11)                     *
 *  M.T. RUGGIERO(18), L.E. DAGA(1), L. DONA'(1), A. COSSARD(1)                *
 *                                                                             *
 * (1) THEORETICAL CHEMISTRY GROUP - UNIVERSITA' DI TORINO - TORINO (ITALY)    *
 * (2) SCIENTIFIC COMPUTING DEPARTMENT - STFC DARESBURY (UK)                   *
 * (3) UNIVERSIDAD AUTONOMA DEL ESTADO DE MORELOS - CUERNAVACA (MEXICO)        *
 * (4) UNIVERSITE' DE LORRAINE - NANCY (FRANCE)                                *
 * (5) UNIVERSITAET STUTTGART- STUTTGART (GERMANY)                             *
 * (6) IMPERIAL COLLEGE - LONDON (UK)                                          *
 * (7) SCIENTIFIC COMPUTING DEPARTMENT - STFC RAL (UK)                         *
 * (8) UPMC - SORBONNE UNIVERSITES - PARIS (FRANCE)                            *
 * (9) UNIVERSIDAD DE BARCELONA - BARCELONA (SPAIN)                            *
 *(10) UNIVERSITA' DI NAPOLI "FEDERICO II" - NAPOLI (ITALY)                    *
 *(11) NIS - NANOSTRUCTURED INTERFACES AND SURFACES - TORINO (ITALY)           *
 *(12) MPI FUER CHEMISCHE ENERGIEKONVERSION - MUELHEIM AN DER RUHR (GERMANY)   *
 *(13) UNIVERSITY OF TROMSO - TROMSO (NORWAY)                                  *
 *(14) UNIVERSITE' DE PAU ET DES PAYS DE L'ADOUR - PAU (FRANCE)                *
 *(15) UNIVERSITY OF CALIFORNIA SANTA BARBARA - SANTA BARBARA (USA)            *
 *(16) CURTIN UNIVERSITY - PERTH (AUSTRALIA)                                   *
 *(17) UNIVERSITY COLLEGE LONDON - LONDON (UK)                                 *
 *(18) UNIVERSITY OF VERMONT - BURLINGTON (USA)                                *
 *                                                                             *
 *******************************************************************************
 EEEEEEEEEE STARTING  DATE 02 12 2025 TIME 08:03:53.5
 COF-5_z41_inc_L020                                                              

 CRYSTAL CALCULATION
 (INPUT ACCORDING TO THE INTERNATIONAL TABLES FOR X-RAY CRYSTALLOGRAPHY)
 CRYSTAL FAMILY                       :  TRICLINIC   
 CRYSTAL CLASS  (GROTH - 1921)        :  TRICLINIC PEDIAL                     

 SPACE GROUP (NONCENTROSYMMETRIC)     :  P 1             

 LATTICE PARAMETERS  (ANGSTROMS AND DEGREES) - CONVENTIONAL CELL
        A           B           C        ALPHA        BETA       GAMMA
    15.02070    15.04439     4.56180    67.70157    89.99936   120.05310


 NUMBER OF IRREDUCIBLE ATOMS IN THE CONVENTIONAL CELL:   42

 INPUT COORDINATES

 ATOM AT. N.              COORDINATES
   1   5     5.770466300000E-01  1.511803400000E-01  5.006556000000E-01
   2   5     7.358252600000E-01  3.102055200000E-01  5.006655900000E-01
   3   5     5.767037200000E-01  3.101125400000E-01  4.992356200000E-01
   4   5     1.898507500000E-01  5.367278100000E-01  5.054506300000E-01
   5   5     3.481138000000E-01  5.356058900000E-01  5.094945400000E-01
   6   5     3.488459400000E-01  6.958606600000E-01  5.035288700000E-01
   7   1     8.655513100000E-01  2.320551200000E-01  5.045540200000E-01
   8   1     6.089213000000E-02  6.157266400000E-01  4.929636400000E-01
   9   1     8.665205100000E-01  5.184484000000E-01  4.928253400000E-01
  10   1     6.002392000000E-02  3.293351400000E-01  5.041225900000E-01
  11   1     5.555539800000E-01  8.257831500000E-01  5.042446600000E-01
  12   1     3.701576600000E-01  2.267197000000E-02  4.945958700000E-01
  13   1     2.717166900000E-01  8.287594100000E-01  4.959027200000E-01
  14   1     6.537989400000E-01  1.975905000000E-02  5.023833200000E-01
  15   1     5.556479300000E-01  6.141087900000E-01  4.978002100000E-01
  16   1     3.676995500000E-01  2.312234400000E-01  5.060833800000E-01
  17   1     2.703636100000E-01  3.272009500000E-01  5.057185000000E-01
  18   1     6.533674300000E-01  5.181061900000E-01  4.987336600000E-01
  19   6     8.551370300000E-01  3.696730100000E-01  5.004156000000E-01
  20   6     9.095251900000E-01  3.162252800000E-01  5.021817000000E-01
  21   6     1.703477000000E-02  5.315434600000E-01  4.957887800000E-01
  22   6     9.100303100000E-01  4.779667700000E-01  4.961259400000E-01
  23   6     1.660542000000E-02  3.698890900000E-01  5.015379900000E-01
  24   6     7.127491000000E-02  4.778965200000E-01  4.993547100000E-01
  25   6     4.079347200000E-01  8.154873500000E-01  5.018970700000E-01
  26   6     5.157779200000E-01  8.699094700000E-01  5.022872500000E-01
  27   6     4.097249300000E-01 -2.173506000000E-02  4.970108600000E-01
  28   6     3.555204400000E-01  8.711379000000E-01  4.981295400000E-01
  29   6     5.699719600000E-01 -2.300323000000E-02  5.008498400000E-01
  30   6     5.174176100000E-01  3.223947000000E-02  4.992255800000E-01
  31   6     4.076817600000E-01  4.767257200000E-01  4.999967900000E-01
  32   6     5.155734300000E-01  5.300654100000E-01  4.994453100000E-01
  33   6     4.083873800000E-01  3.153412100000E-01  5.039688600000E-01
  34   6     3.545327500000E-01  3.684801800000E-01  5.033609200000E-01
  35   6     5.693147800000E-01  4.768567600000E-01  5.003836700000E-01
  36   6     5.164645000000E-01  3.689427200000E-01  5.016255300000E-01
  37   8     5.240092600000E-01  2.041539900000E-01  4.996254800000E-01
  38   8     6.829383600000E-01  2.039919700000E-01  5.026155400000E-01
  39   8     6.828949900000E-01  3.634299300000E-01  4.980958100000E-01
  40   8     2.428964900000E-01  6.430023900000E-01  5.027622100000E-01
  41   8     2.420798700000E-01  4.827907300000E-01  5.102499900000E-01
  42   8     4.015145700000E-01  6.423331100000E-01  5.052339500000E-01

 *******************************************************************************

 << INFORMATION >>: FROM NOW ON, ALL COORDINATES REFER TO THE PRIMITIVE CELL

 *******************************************************************************

 LATTICE PARAMETERS  (ANGSTROMS AND DEGREES) - PRIMITIVE CELL
       A          B          C        ALPHA      BETA     GAMMA        VOLUME
   15.02070   15.04439    4.56180    67.70157  89.99936 120.05310    801.971880

 COORDINATES OF THE EQUIVALENT ATOMS (FRACTIONAL UNITS)

 N. ATOM EQUIV AT. N.          X                  Y                  Z

   1   1   1    5 B    -4.22953370000E-01  1.51180340000E-01 -4.99344400000E-01

   2   2   1    5 B    -2.64174740000E-01  3.10205520000E-01 -4.99334410000E-01

   3   3   1    5 B    -4.23296280000E-01  3.10112540000E-01  4.99235620000E-01

   4   4   1    5 B     1.89850750000E-01 -4.63272190000E-01 -4.94549370000E-01

   5   5   1    5 B     3.48113800000E-01 -4.64394110000E-01 -4.90505460000E-01

   6   6   1    5 B     3.48845940000E-01 -3.04139340000E-01 -4.96471130000E-01

   7   7   1    1 H    -1.34448690000E-01  2.32055120000E-01 -4.95445980000E-01

   8   8   1    1 H     6.08921300000E-02 -3.84273360000E-01  4.92963640000E-01

   9   9   1    1 H    -1.33479490000E-01 -4.81551600000E-01  4.92825340000E-01

  10  10   1    1 H     6.00239200000E-02  3.29335140000E-01 -4.95877410000E-01

  11  11   1    1 H    -4.44446020000E-01 -1.74216850000E-01 -4.95755340000E-01

  12  12   1    1 H     3.70157660000E-01  2.26719700000E-02  4.94595870000E-01

  13  13   1    1 H     2.71716690000E-01 -1.71240590000E-01  4.95902720000E-01

  14  14   1    1 H    -3.46201060000E-01  1.97590500000E-02 -4.97616680000E-01

  15  15   1    1 H    -4.44352070000E-01 -3.85891210000E-01  4.97800210000E-01

  16  16   1    1 H     3.67699550000E-01  2.31223440000E-01 -4.93916620000E-01

  17  17   1    1 H     2.70363610000E-01  3.27200950000E-01 -4.94281500000E-01

  18  18   1    1 H    -3.46632570000E-01 -4.81893810000E-01  4.98733660000E-01

  19  19   1    6 C    -1.44862970000E-01  3.69673010000E-01 -4.99584400000E-01

  20  20   1    6 C    -9.04748100000E-02  3.16225280000E-01 -4.97818300000E-01

  21  21   1    6 C     1.70347700000E-02 -4.68456540000E-01  4.95788780000E-01

  22  22   1    6 C    -8.99696900000E-02  4.77966770000E-01  4.96125940000E-01

  23  23   1    6 C     1.66054200000E-02  3.69889090000E-01 -4.98462010000E-01

  24  24   1    6 C     7.12749100000E-02  4.77896520000E-01  4.99354710000E-01

  25  25   1    6 C     4.07934720000E-01 -1.84512650000E-01 -4.98102930000E-01

  26  26   1    6 C    -4.84222080000E-01 -1.30090530000E-01 -4.97712750000E-01

  27  27   1    6 C     4.09724930000E-01 -2.17350600000E-02  4.97010860000E-01

  28  28   1    6 C     3.55520440000E-01 -1.28862100000E-01  4.98129540000E-01

  29  29   1    6 C    -4.30028040000E-01 -2.30032300000E-02 -4.99150160000E-01

  30  30   1    6 C    -4.82582390000E-01  3.22394700000E-02  4.99225580000E-01

  31  31   1    6 C     4.07681760000E-01  4.76725720000E-01  4.99996790000E-01

  32  32   1    6 C    -4.84426570000E-01 -4.69934590000E-01  4.99445310000E-01

  33  33   1    6 C     4.08387380000E-01  3.15341210000E-01 -4.96031140000E-01

  34  34   1    6 C     3.54532750000E-01  3.68480180000E-01 -4.96639080000E-01

  35  35   1    6 C    -4.30685220000E-01  4.76856760000E-01 -4.99616330000E-01

  36  36   1    6 C    -4.83535500000E-01  3.68942720000E-01 -4.98374470000E-01

  37  37   1    8 O    -4.75990740000E-01  2.04153990000E-01  4.99625480000E-01

  38  38   1    8 O    -3.17061640000E-01  2.03991970000E-01 -4.97384460000E-01

  39  39   1    8 O    -3.17105010000E-01  3.63429930000E-01  4.98095810000E-01

  40  40   1    8 O     2.42896490000E-01 -3.56997610000E-01 -4.97237790000E-01

  41  41   1    8 O     2.42079870000E-01  4.82790730000E-01 -4.89750010000E-01

  42  42   1    8 O     4.01514570000E-01 -3.57666890000E-01 -4.94766050000E-01

 NUMBER OF SYMMETRY OPERATORS         :    1
 *******************************************************************************
 * GEOMETRY EDITING - INPUT COORDINATES ARE GIVEN IN ANGSTROM         
 *******************************************************************************

 GCALCO - MAX INDICES DIRECT LATTICE VECTOR    10    10    31
 NO.OF VECTORS CREATED 6999 STARS 3500 RMAX   207.95383 BOHR

 GEOMETRY FOR WAVE FUNCTION - DIMENSIONALITY OF THE SYSTEM    3
 (NON PERIODIC DIRECTION: LATTICE PARAMETER FORMALLY SET TO 500)
 *******************************************************************************
 LATTICE PARAMETERS (ANGSTROMS AND DEGREES) - BOHR = 0.5291772083 ANGSTROM
 PRIMITIVE CELL - CENTRING CODE 1/0 VOLUME=   801.971880 - DENSITY  0.808 g/cm^3
         A              B              C           ALPHA      BETA       GAMMA 
    15.02070100    15.04438700     4.56179800    67.701569  89.999358 120.053104
 *******************************************************************************
 ATOMS IN THE ASYMMETRIC UNIT   42 - ATOMS IN THE UNIT CELL:   42
     ATOM                 X/A                 Y/B                 Z/C    
 *******************************************************************************
      1 T   5 B    -4.229533700000E-01  1.511803400000E-01 -4.993444000000E-01
      2 T   5 B    -2.641747400000E-01  3.102055200000E-01 -4.993344100000E-01
      3 T   5 B    -4.232962800000E-01  3.101125400000E-01  4.992356200000E-01
      4 T   5 B     1.898507500000E-01 -4.632721900000E-01 -4.945493700000E-01
      5 T   5 B     3.481138000000E-01 -4.643941100000E-01 -4.905054600000E-01
      6 T   5 B     3.488459400000E-01 -3.041393400000E-01 -4.964711300000E-01
      7 T   1 H    -1.344486900000E-01  2.320551200000E-01 -4.954459800000E-01
      8 T   1 H     6.089213000000E-02 -3.842733600000E-01  4.929636400000E-01
      9 T   1 H    -1.334794900000E-01 -4.815516000000E-01  4.928253400000E-01
     10 T   1 H     6.002392000000E-02  3.293351400000E-01 -4.958774100000E-01
     11 T   1 H    -4.444460200000E-01 -1.742168500000E-01 -4.957553400000E-01
     12 T   1 H     3.701576600000E-01  2.267197000000E-02  4.945958700000E-01
     13 T   1 H     2.717166900000E-01 -1.712405900000E-01  4.959027200000E-01
     14 T   1 H    -3.462010600000E-01  1.975905000000E-02 -4.976166800000E-01
     15 T   1 H    -4.443520700000E-01 -3.858912100000E-01  4.978002100000E-01
     16 T   1 H     3.676995500000E-01  2.312234400000E-01 -4.939166200000E-01
     17 T   1 H     2.703636100000E-01  3.272009500000E-01 -4.942815000000E-01
     18 T   1 H    -3.466325700000E-01 -4.818938100000E-01  4.987336600000E-01
     19 T   6 C    -1.448629700000E-01  3.696730100000E-01 -4.995844000000E-01
     20 T   6 C    -9.047481000000E-02  3.162252800000E-01 -4.978183000000E-01
     21 T   6 C     1.703477000000E-02 -4.684565400000E-01  4.957887800000E-01
     22 T   6 C    -8.996969000000E-02  4.779667700000E-01  4.961259400000E-01
     23 T   6 C     1.660542000000E-02  3.698890900000E-01 -4.984620100000E-01
     24 T   6 C     7.127491000000E-02  4.778965200000E-01  4.993547100000E-01
     25 T   6 C     4.079347200000E-01 -1.845126500000E-01 -4.981029300000E-01
     26 T   6 C    -4.842220800000E-01 -1.300905300000E-01 -4.977127500000E-01
     27 T   6 C     4.097249300000E-01 -2.173506000000E-02  4.970108600000E-01
     28 T   6 C     3.555204400000E-01 -1.288621000000E-01  4.981295400000E-01
     29 T   6 C    -4.300280400000E-01 -2.300323000000E-02 -4.991501600000E-01
     30 T   6 C    -4.825823900000E-01  3.223947000000E-02  4.992255800000E-01
     31 T   6 C     4.076817600000E-01  4.767257200000E-01  4.999967900000E-01
     32 T   6 C    -4.844265700000E-01 -4.699345900000E-01  4.994453100000E-01
     33 T   6 C     4.083873800000E-01  3.153412100000E-01 -4.960311400000E-01
     34 T   6 C     3.545327500000E-01  3.684801800000E-01 -4.966390800000E-01
     35 T   6 C    -4.306852200000E-01  4.768567600000E-01 -4.996163300000E-01
     36 T   6 C    -4.835355000000E-01  3.689427200000E-01 -4.983744700000E-01
     37 T   8 O    -4.759907400000E-01  2.041539900000E-01  4.996254800000E-01
     38 T   8 O    -3.170616400000E-01  2.039919700000E-01 -4.973844600000E-01
     39 T   8 O    -3.171050100000E-01  3.634299300000E-01  4.980958100000E-01
     40 T   8 O     2.428964900000E-01 -3.569976100000E-01 -4.972377900000E-01
     41 T   8 O     2.420798700000E-01  4.827907300000E-01 -4.897500100000E-01
     42 T   8 O     4.015145700000E-01 -3.576668900000E-01 -4.947660500000E-01

 T = ATOM BELONGING TO THE ASYMMETRIC UNIT

 ****    1 SYMMOPS - TRANSLATORS IN FRACTIONAL UNITS
 **** MATRICES AND TRANSLATORS IN THE CRYSTALLOGRAPHIC REFERENCE FRAME
   V INV                    ROTATION MATRICES                   TRANSLATORS
   1   1  1.00 -0.00  0.00  0.00  1.00  0.00  0.00  0.00  1.00  0.00  0.00  0.00

 DIRECT LATTICE VECTORS CARTESIAN COMPONENTS (ANGSTROM)
          X                    Y                    Z
   0.130013421718E+02  -0.752240388864E+01   0.000000000000E+00
   0.000000000000E+00   0.150443870000E+02   0.000000000000E+00
   0.100152714891E+01   0.173088677061E+01   0.410011894341E+01


 CARTESIAN COORDINATES - PRIMITIVE CELL
 *******************************************************************************
 *      ATOM          X(ANGSTROM)         Y(ANGSTROM)         Z(ANGSTROM)
 *******************************************************************************
    1     5 B    -5.999068459332E+00  4.591733001014E+00 -2.047371433726E+00
    2     5 B    -3.934723155881E+00  5.789789659493E+00 -2.047330473538E+00
    3     5 B     6.996393273677E+00 -5.395116811455E-01 -2.053193520623E+00
    4     5 B     1.973009941785E+00  5.790597905293E+00 -2.027711240389E+00
    5     5 B     4.034692093637E+00  4.590200274202E+00 -2.011130728392E+00
    6     5 B    -7.961578907034E+00  1.194205359869E+00  2.064528258441E+00
    7     1 H    -2.244216023026E+00  3.644943486755E+00 -2.031387448035E+00
    8     1 H     1.285395886585E+00 -5.385948094261E+00  2.021209558777E+00
    9     1 H    -1.241834564722E+00 -5.387537135010E+00  2.020642512327E+00
   10     1 H     2.837568337638E-01  3.644813480825E+00 -2.033156362350E+00
   11     1 H    -5.273380066219E+00  1.595107166965E+00  2.067463082580E+00
   12     1 H     4.306370437796E+00 -3.318186852692E+00 -2.072217047491E+00
   13     1 H     4.029341697771E+00 -3.761820933974E+00  2.033260136361E+00
   14     1 H    -4.999455056062E+00  2.040208866700E+00 -2.040287576225E+00
   15     1 H    -5.278612881757E+00 -1.601265165947E+00  2.041040071055E+00
   16     1 H     4.285916761728E+00 -1.422833532844E-01 -2.025116890127E+00
   17     1 H     3.020053462951E+00  2.033208138048E+00 -2.026612941527E+00
   18     1 H    -4.007193349885E+00 -3.779035283893E+00  2.044867327082E+00
   19     6 C    -2.383760380763E+00  5.786497565979E+00 -2.048355462272E+00
   20     6 C    -1.674872505412E+00  4.576336444433E+00 -2.041114242206E+00
   21     6 C     7.180207968836E-01 -6.317629660211E+00  2.032792968808E+00
   22     6 C    -6.728431265887E-01 -6.318143766960E+00  2.034175364911E+00
   23     6 C    -2.833304883904E-01  4.577060642295E+00 -2.043753529771E+00
   24     6 C     4.252596432622E-01  5.786941223456E+00 -2.052705237458E+00
   25     6 C    -7.194979751742E+00  2.546601450279E+00  2.057837684349E+00
   26     6 C    -5.792482631780E+00  2.554784135276E+00  2.059437468759E+00
   27     6 C     5.824743880830E+00 -2.548837538389E+00  2.037803642167E+00
   28     6 C     5.121133147485E+00 -3.750813811543E+00  2.042390363226E+00
   29     6 C    -5.089326979209E+00  3.755689468071E+00  2.053543916788E+00
   30     6 C    -6.775757955573E+00  3.248418891842E+00 -2.053234685817E+00
   31     6 C     4.799643269593E+00  3.239850426328E+00 -2.050072633087E+00
   32     6 C    -5.797987556307E+00 -2.561342242993E+00  2.047785176728E+00
   33     6 C     4.812795412598E+00  8.134866468659E-01 -2.033786673635E+00
   34     6 C     4.112004072019E+00  2.016993879157E+00 -2.036279299946E+00
   35     6 C    -5.098338083168E+00 -3.764473710652E+00  2.051632564340E+00
   36     6 C     6.215596122044E+00  8.028327204329E-01 -2.043394605359E+00
   37     8 O     6.311685024034E+00 -1.736529298974E+00 -2.051595048252E+00
   38     8 O    -4.620370911321E+00  4.593083673525E+00 -2.039335446604E+00
   39     8 O    -3.623934262919E+00 -6.329267077339E+00  2.042252066214E+00
   40     8 O     3.661510381575E+00 -6.327751245776E+00  2.061384861252E+00
   41     8 O     2.656865291573E+00  4.594566213466E+00 -2.008033293536E+00
   42     8 O    -7.275108342774E+00 -4.327224199360E-03  2.071519289249E+00

 *******************************************************************************
 STARTING BASIS SET HANDLING 
 *******************************************************************************

 Loading internal basis set: SOLDEF2MSVP         

 Please cite in your publication:
 L. Dona', J. G. Brandenburg and B. Civalleri, J. Chem. Phys., 151, 121101 (2019
 )                                                                              
                                                                                
                    

 *******************************************************************************
 LOCAL ATOMIC FUNCTIONS BASIS SET
 *******************************************************************************
   ATOM   X(AU)   Y(AU)   Z(AU)  N. TYPE  EXPONENT  S COEF   P COEF   D/F/G COEF
 *******************************************************************************
   1 B  -11.337   8.677  -3.869
                                  1 S  
                                         2.410E+03 1.755E-03 0.000E+00 0.000E+00
                                         3.619E+02 1.344E-02 0.000E+00 0.000E+00
                                         8.231E+01 6.637E-02 0.000E+00 0.000E+00
                                         2.311E+01 2.303E-01 0.000E+00 0.000E+00
                                         7.252E+00 5.150E-01 0.000E+00 0.000E+00
                                  2 S  
                                         2.367E+00 1.000E+00 0.000E+00 0.000E+00
                                  3 S  
                                         5.533E-01 1.000E+00 0.000E+00 0.000E+00
                                  4 S  
                                         1.716E-01 1.000E+00 0.000E+00 0.000E+00
                           5-     7 P  
                                         6.002E+00 0.000E+00-3.555E-02 0.000E+00
                                         1.240E+00 0.000E+00-1.983E-01 0.000E+00
                                         3.367E-01 0.000E+00-5.048E-01 0.000E+00
                           8-    10 P  
                                         1.256E-01 0.000E+00 1.000E+00 0.000E+00
                          11-    15 D  
                                         8.880E-01 0.000E+00 0.000E+00 1.000E+00
   2 B   -7.436  10.941  -3.869
   3 B   13.221  -1.020  -3.880
   4 B    3.728  10.943  -3.832
   5 B    7.624   8.674  -3.800
   6 B  -15.045   2.257   3.901
   7 H   -4.241   6.888  -3.839
                                 91 S  
                                         1.874E+01 1.968E-02 0.000E+00 0.000E+00
                                         2.826E+00 1.380E-01 0.000E+00 0.000E+00
                                         6.401E-01 4.783E-01 0.000E+00 0.000E+00
                                 92 S  
                                         1.756E-01 1.000E+00 0.000E+00 0.000E+00
   8 H    2.429 -10.178   3.820
   9 H   -2.347 -10.181   3.818
  10 H    0.536   6.888  -3.842
  11 H   -9.965   3.014   3.907
  12 H    8.138  -6.270  -3.916
  13 H    7.614  -7.109   3.842
  14 H   -9.448   3.855  -3.856
  15 H   -9.975  -3.026   3.857
  16 H    8.099  -0.269  -3.827
  17 H    5.707   3.842  -3.830
  18 H   -7.572  -7.141   3.864
  19 C   -4.505  10.935  -3.871
                                115 S  
                                         3.624E+03 1.634E-03 0.000E+00 0.000E+00
                                         5.440E+02 1.252E-02 0.000E+00 0.000E+00
                                         1.237E+02 6.211E-02 0.000E+00 0.000E+00
                                         3.476E+01 2.182E-01 0.000E+00 0.000E+00
                                         1.093E+01 4.980E-01 0.000E+00 0.000E+00
                                116 S  
                                         3.574E+00 1.000E+00 0.000E+00 0.000E+00
                                117 S  
                                         7.742E-01 1.000E+00 0.000E+00 0.000E+00
                                118 S  
                                         2.330E-01 1.000E+00 0.000E+00 0.000E+00
                         119-   121 P  
                                         9.443E+00 0.000E+00 3.790E-02 0.000E+00
                                         2.002E+00 0.000E+00 2.082E-01 0.000E+00
                                         5.463E-01 0.000E+00 5.047E-01 0.000E+00
                         122-   124 P  
                                         1.820E-01 0.000E+00 1.000E+00 0.000E+00
                         125-   129 D  
                                         8.880E-01 0.000E+00 0.000E+00 1.000E+00
  20 C   -3.165   8.648  -3.857
  21 C    1.357 -11.939   3.841
  22 C   -1.271 -11.940   3.844
  23 C   -0.535   8.649  -3.862
  24 C    0.804  10.936  -3.879
  25 C  -13.597   4.812   3.889
  26 C  -10.946   4.828   3.892
  27 C   11.007  -4.817   3.851
  28 C    9.678  -7.088   3.860
  29 C   -9.617   7.097   3.881
  30 C  -12.804   6.139  -3.880
  31 C    9.070   6.122  -3.874
  32 C  -10.957  -4.840   3.870
  33 C    9.095   1.537  -3.843
  34 C    7.771   3.812  -3.848
  35 C   -9.634  -7.114   3.877
  36 C   11.746   1.517  -3.861
  37 O   11.927  -3.282  -3.877
                                385 S  
                                         6.773E+03 1.727E-03 0.000E+00 0.000E+00
                                         1.017E+03 1.325E-02 0.000E+00 0.000E+00
                                         2.313E+02 6.603E-02 0.000E+00 0.000E+00
                                         6.501E+01 2.353E-01 0.000E+00 0.000E+00
                                         2.050E+01 5.498E-01 0.000E+00 0.000E+00
                                386 S  
                                         6.716E+00 1.000E+00 0.000E+00 0.000E+00
                                387 S  
                                         1.147E+00 1.000E+00 0.000E+00 0.000E+00
                                388 S  
                                         3.342E-01 1.000E+00 0.000E+00 0.000E+00
                         389-   391 P  
                                         1.769E+01 0.000E+00 4.359E-02 0.000E+00
                                         3.854E+00 0.000E+00 2.318E-01 0.000E+00
                                         1.047E+00 0.000E+00 5.146E-01 0.000E+00
                         392-   394 P  
                                         2.759E-01 0.000E+00 1.000E+00 0.000E+00
                         395-   399 D  
                                         8.000E-01 0.000E+00 0.000E+00 1.000E+00
  38 O   -8.731   8.680  -3.854
  39 O   -6.848 -11.961   3.859
  40 O    6.919 -11.958   3.895
  41 O    5.021   8.682  -3.795
  42 O  -13.748  -0.008   3.915

 *******************************************************************************
 FINISHED BASIS SET HANDLING 
 *******************************************************************************

 INFORMATION **** SET_MPP **** PCRYSTAL CALCULATION
 INFORMATION **** READM2 **** NEW DEFAULT: FOCK/KS MATRIX MIXING SET TO 30 %
 INFORMATION **** READM2 **** NEW DEFAULT: FULL DIRECT SCF MODE
 INFORMATION **** READM2 **** NEW DEFAULT: COULOMB BIPOLAR BUFFER SET TO 32 Mb
 INFORMATION **** READM2 **** NEW DEFAULT: EXCHANGE BIPOLAR BUFFER SET TO 32 Mb

 *******************************************************************************
 NEW DEFAULT: DFT INTEGRATION GRID INCREASED TO XLGRID
 NEW DEFAULT: DIIS ACCELERATOR ACTIVE
 USE KEYWORD NODIIS TO TURN IT OFF
 *******************************************************************************

 WARNING **** RDDFTP **** HSEsol-HJS ACTIVE
 RANGE SEPARATION - OMEGA:   0.110000000000000     
 WARNING **** RDDFTP **** HSEsol-3c has to be combined with sol-def2-mSVP basis set
 *******************************************************************************
 N. OF ATOMS PER CELL        42  COULOMB OVERLAP TOL         (T1) 10**   -6
 NUMBER OF SHELLS           234  COULOMB PENETRATION TOL     (T2) 10**   -6
 NUMBER OF AO               474  EXCHANGE OVERLAP TOL        (T3) 10**   -6
 N. OF ELECTRONS PER CELL   198  EXCHANGE PSEUDO OVP (F(G))  (T4) 10**   -6
 CORE ELECTRONS PER CELL     60  EXCHANGE PSEUDO OVP (P(G))  (T5) 10**  -12
 N. OF SYMMETRY OPERATORS     1  POLE ORDER IN MONO ZONE                  4
 *******************************************************************************
 TYPE OF CALCULATION :  RESTRICTED CLOSED SHELL
 KOHN-SHAM HAMILTONIAN

 (EXCHANGE)[CORRELATION] FUNCTIONAL:(HSEsol GGA)[PBEsol]

 RANGE-SEPARATED HYBRID FUNCTIONAL 
 OMEGA (SHORT-RANGE)[LONG-RANGE]:(    0.1100)[    0.0000]

 HYBRID EXCHANGE - PERCENTAGE OF FOCK EXCHANGE    25.0000

 CAPPA:IS1  2;IS2  2;IS3  8; K PTS MONK NET  20; SYMMOPS:K SPACE   2;G SPACE   1

 *******************************************************************************
 MAX NUMBER OF SCF CYCLES      50  CONVERGENCE ON DELTAP        10**-16
 WEIGHT OF F(I) IN F(I+1)      30% CONVERGENCE ON ENERGY        10**- 6
 SHRINK. FACT.(MONKH.)    2  2  8  NUMBER OF K POINTS IN THE IBZ     20
 SHRINKING FACTOR(GILAT NET)    8  NUMBER OF K POINTS(GILAT NET)   1028
 *******************************************************************************
 *** K POINTS COORDINATES (OBLIQUE COORDINATES IN UNITS OF IS =  2)
   1-R(  0  0  0)   2-R(  1  0  0)   3-R(  0  1  0)   4-R(  1  1  0)
   5-C(  0  0  1)   6-C(  1  0  1)   7-C(  0  1  1)   8-C(  1  1  1)
   9-C(  0  0  2)  10-C(  1  0  2)  11-C(  0  1  2)  12-C(  1  1  2)
  13-C(  0  0  3)  14-C(  1  0  3)  15-C(  0  1  3)  16-C(  1  1  3)
  17-R(  0  0  4)  18-R(  1  0  4)  19-R(  0  1  4)  20-R(  1  1  4)

 DIRECT LATTICE VECTORS COMPON. (A.U.)     RECIP. LATTICE VECTORS COMPON. (A.U.) 
        X            Y            Z              X            Y            Z
   24.5689761  -14.2152832    0.0000000      0.2557366    0.0000000   -0.0624682
    0.0000000   28.4297713    0.0000000      0.1278719    0.2210072   -0.1245343
    1.8926120    3.2709020    7.7481019      0.0000000    0.0000000    0.8109322

 DISK SPACE FOR EIGENVECTORS (FTN 10)     7189632 REALS

 SYMMETRY ADAPTION OF THE BLOCH FUNCTIONS DISABLED
 TTTTTTTTTTTTTTTTTTTTTTTTTTTTTT gordsh1     TELAPSE        0.04 TCPU        0.04

 MATRIX SIZE: P(G)  319510, F(G)   66639, P(G) IRR  161252, F(G) IRR   67335
 MAX G-VECTOR INDEX FOR 1- AND 2-ELECTRON INTEGRALS  79

 TTTTTTTTTTTTTTTTTTTTTTTTTTTTTT INPUT       TELAPSE        0.31 TCPU        0.31

 NEIGHBORS OF THE NON-EQUIVALENT ATOMS

 N = NUMBER OF NEIGHBORS AT DISTANCE R
    ATOM  N     R/ANG      R/AU   NEIGHBORS (ATOM LABELS AND CELL INDICES)
   1 B    1     1.3787     2.6054   38 O    0 0 0
   1 B    1     1.3795     2.6068   37 O   -1 0 0
   1 B    1     1.5517     2.9323   30 C    0 0 0
   1 B    1     2.3868     4.5104    2 B    0 0 0
   1 B    1     2.3912     4.5187    3 B   -1 0 0
   1 B    1     2.5629     4.8432   27 C   -1 0-1

   2 B    1     1.3792     2.6064   38 O    0 0 0
   2 B    1     1.3798     2.6075   39 O    0 1-1
   2 B    1     1.5510     2.9309   19 C    0 0 0
   2 B    1     2.3868     4.5104    1 B    0 0 0
   2 B    1     2.3894     4.5154    3 B   -1 0 0
   2 B    1     2.5618     4.8411   22 C    0 1-1

   3 B    1     1.3790     2.6060   37 O    0 0 0
   3 B    1     1.3795     2.6069   39 O    1 1-1
   3 B    1     1.5529     2.9346   36 C    0 0 0
   3 B    1     2.3894     4.5154    2 B    1 0 0
   3 B    1     2.3912     4.5187    1 B    1 0 0
   3 B    1     2.5679     4.8526   35 C    1 1-1

   4 B    1     1.3779     2.6038   41 O    0 0 0
   4 B    1     1.3786     2.6051   40 O    0 1-1
   4 B    1     1.5480     2.9252   24 C    0 0 0
   4 B    1     2.3857     4.5084    5 B    0 0 0
   4 B    1     2.3859     4.5087    6 B    1 1-1
   4 B    1     2.5585     4.8349   21 C    0 1-1

   5 B    1     1.3778     2.6037   41 O    0 0 0
   5 B    1     1.3814     2.6104   42 O    1 1-1
   5 B    1     1.5525     2.9337   31 C    0 0 0
   5 B    1     2.3857     4.5084    4 B    0 0 0
   5 B    1     2.3952     4.5263    6 B    1 1-1
   5 B    1     2.5591     4.8360   32 C    1 1-1

   6 B    1     1.3783     2.6045   40 O   -1 0 0
   6 B    1     1.3812     2.6101   42 O    0 0 0
   6 B    1     1.5546     2.9377   25 C    0 0 0
   6 B    1     2.3859     4.5087    4 B   -1-1 1
   6 B    1     2.3952     4.5263    5 B   -1-1 1
   6 B    1     2.5605     4.8387   26 C    0 0 0

   7 H    1     1.0917     2.0630   20 C    0 0 0
   7 H    1     2.1462     4.0557   19 C    0 0 0
   7 H    1     2.1712     4.1030   23 C    0 0 0
   7 H    1     2.5280     4.7772   10 H    0 0 0
   7 H    1     2.5583     4.8346   38 O    0 0 0
   7 H    1     2.7310     5.1609    2 B    0 0 0

   8 H    1     1.0909     2.0615   21 C    0 0 0
   8 H    1     2.1454     4.0543   24 C    0-1 1
   8 H    1     2.1688     4.0985   22 C    0 0 0
   8 H    1     2.5272     4.7758    9 H    0 0 0
   8 H    1     2.5563     4.8307   40 O    0 0 0
   8 H    1     2.7244     5.1484    4 B    0-1 1

   9 H    1     1.0909     2.0614   22 C    0 0 0
   9 H    1     2.1443     4.0521   19 C    0-1 1
   9 H    1     2.1694     4.0996   21 C    0 0 0
   9 H    1     2.5272     4.7758    8 H    0 0 0
   9 H    1     2.5616     4.8407   39 O    0 0 0
   9 H    1     2.7249     5.1493    2 B    0-1 1

  10 H    1     1.0912     2.0621   23 C    0 0 0
  10 H    1     2.1469     4.0570   24 C    0 0 0
  10 H    1     2.1689     4.0986   20 C    0 0 0
  10 H    1     2.5280     4.7772    7 H    0 0 0
  10 H    1     2.5562     4.8306   41 O    0 0 0
  10 H    1     2.7309     5.1607    4 B    0 0 0

  11 H    1     1.0911     2.0619   26 C    0 0 0
  11 H    1     2.1443     4.0521   25 C    0 0 0
  11 H    1     2.1685     4.0978   29 C    0 0 0
  11 H    1     2.5223     4.7664   14 H    0 0 1
  11 H    1     2.5622     4.8419   42 O    0 0 0
  11 H    1     2.7179     5.1361    6 B    0 0 0

  12 H    1     1.0917     2.0630   27 C    0 0-1
  12 H    1     2.1441     4.0518   30 C    1 0 0
  12 H    1     2.1716     4.1037   28 C    0 0-1
  12 H    1     2.5226     4.7669   13 H    0 0-1
  12 H    1     2.5541     4.8265   37 O    0 0 0
  12 H    1     2.7237     5.1471    1 B    1 0 0

  13 H    1     1.0919     2.0634   28 C    0 0 0
  13 H    1     2.1522     4.0672   25 C    1 0 0
  13 H    1     2.1668     4.0946   27 C    0 0 0
  13 H    1     2.5226     4.7669   12 H    0 0 1
  13 H    1     2.5923     4.8988   40 O    0 0 0
  13 H    1     2.7583     5.2124    6 B    1 0 0

  14 H    1     1.0915     2.0627   29 C    0 0-1
  14 H    1     2.1483     4.0597   30 C    0 0 0
  14 H    1     2.1679     4.0968   26 C    0 0-1
  14 H    1     2.5223     4.7664   11 H    0 0-1
  14 H    1     2.5809     4.8771   38 O    0 0 0
  14 H    1     2.7404     5.1785    1 B    0 0 0

  15 H    1     1.0916     2.0628   32 C    0 0 0
  15 H    1     2.1436     4.0508   31 C   -1-1 1
  15 H    1     2.1707     4.1021   35 C    0 0 0
  15 H    1     2.5217     4.7654   18 H    0 0 0
  15 H    1     2.5568     4.8316   42 O    0 0 0
  15 H    1     2.7166     5.1336    5 B   -1-1 1

  16 H    1     1.0914     2.0625   33 C    0 0 0
  16 H    1     2.1488     4.0606   36 C    0 0 0
  16 H    1     2.1663     4.0937   34 C    0 0 0
  16 H    1     2.5170     4.7564   17 H    0 0 0
  16 H    1     2.5780     4.8717   37 O    0 0 0
  16 H    1     2.7396     5.1770    3 B    0 0 0

  17 H    1     1.0921     2.0638   34 C    0 0 0
  17 H    1     2.1502     4.0633   31 C    0 0 0
  17 H    1     2.1683     4.0976   33 C    0 0 0
  17 H    1     2.5170     4.7564   16 H    0 0 0
  17 H    1     2.5870     4.8888   41 O    0 0 0
  17 H    1     2.7510     5.1986    5 B    0 0 0

  18 H    1     1.0913     2.0622   35 C    0 0 0
  18 H    1     2.1495     4.0619   36 C   -1-1 1
  18 H    1     2.1656     4.0923   32 C    0 0 0
  18 H    1     2.5217     4.7654   15 H    0 0 0
  18 H    1     2.5789     4.8734   39 O    0 0 0
  18 H    1     2.7392     5.1763    3 B   -1-1 1

  19 C    1     1.4017     2.6489   22 C    0 1-1
  19 C    1     1.4025     2.6504   20 C    0 0 0
  19 C    1     1.5510     2.9309    2 B    0 0 0
  19 C    1     2.1443     4.0521    9 H    0 1-1
  19 C    1     2.1462     4.0557    7 H    0 0 0
  19 C    1     2.4236     4.5800   21 C    0 1-1

  20 C    1     1.0917     2.0630    7 H    0 0 0
  20 C    1     1.3915     2.6296   23 C    0 0 0
  20 C    1     1.4025     2.6504   19 C    0 0 0
  20 C    1     2.1689     4.0986   10 H    0 0 0
  20 C    1     2.4191     4.5715   22 C    0 1-1
  20 C    1     2.4241     4.5809   24 C    0 0 0

  21 C    1     1.0909     2.0615    8 H    0 0 0
  21 C    1     1.3909     2.6284   22 C    0 0 0
  21 C    1     1.4015     2.6484   24 C    0-1 1
  21 C    1     2.1694     4.0996    9 H    0 0 0
  21 C    1     2.4189     4.5711   23 C    0-1 1
  21 C    1     2.4236     4.5800   19 C    0-1 1

  22 C    1     1.0909     2.0614    9 H    0 0 0
  22 C    1     1.3909     2.6284   21 C    0 0 0
  22 C    1     1.4017     2.6489   19 C    0-1 1
  22 C    1     2.1688     4.0985    8 H    0 0 0
  22 C    1     2.4191     4.5715   20 C    0-1 1
  22 C    1     2.4226     4.5780   24 C    0-1 1

  23 C    1     1.0912     2.0621   10 H    0 0 0
  23 C    1     1.3915     2.6296   20 C    0 0 0
  23 C    1     1.4021     2.6497   24 C    0 0 0
  23 C    1     2.1712     4.1030    7 H    0 0 0
  23 C    1     2.4189     4.5711   21 C    0 1-1
  23 C    1     2.4238     4.5802   19 C    0 0 0

  24 C    1     1.4015     2.6484   21 C    0 1-1
  24 C    1     1.4021     2.6497   23 C    0 0 0
  24 C    1     1.5480     2.9252    4 B    0 0 0
  24 C    1     2.1454     4.0543    8 H    0 1-1
  24 C    1     2.1469     4.0570   10 H    0 0 0
  24 C    1     2.4226     4.5780   22 C    0 1-1

  25 C    1     1.4025     2.6504   26 C    0 0 0
  25 C    1     1.4037     2.6526   28 C   -1 0 0
  25 C    1     1.5546     2.9377    6 B    0 0 0
  25 C    1     2.1443     4.0521   11 H    0 0 0
  25 C    1     2.1522     4.0672   13 H   -1 0 0
  25 C    1     2.4271     4.5866   27 C   -1 0 0

  26 C    1     1.0911     2.0619   11 H    0 0 0
  26 C    1     1.3916     2.6298   29 C    0 0 0
  26 C    1     1.4025     2.6504   25 C    0 0 0
  26 C    1     2.1679     4.0968   14 H    0 0 1
  26 C    1     2.4165     4.5665   28 C   -1 0 0
  26 C    1     2.4246     4.5819   30 C    0 0 1

  27 C    1     1.0917     2.0630   12 H    0 0 1
  27 C    1     1.3928     2.6320   28 C    0 0 0
  27 C    1     1.4024     2.6502   30 C    1 0 1
  27 C    1     2.1668     4.0946   13 H    0 0 0
  27 C    1     2.4166     4.5668   29 C    1 0 0
  27 C    1     2.4271     4.5866   25 C    1 0 0

  28 C    1     1.0919     2.0634   13 H    0 0 0
  28 C    1     1.3928     2.6320   27 C    0 0 0
  28 C    1     1.4037     2.6526   25 C    1 0 0
  28 C    1     2.1716     4.1037   12 H    0 0 1
  28 C    1     2.4165     4.5665   26 C    1 0 0
  28 C    1     2.4277     4.5877   30 C    1 0 1

  29 C    1     1.0915     2.0627   14 H    0 0 1
  29 C    1     1.3916     2.6298   26 C    0 0 0
  29 C    1     1.4023     2.6499   30 C    0 0 1
  29 C    1     2.1685     4.0978   11 H    0 0 0
  29 C    1     2.4166     4.5668   27 C   -1 0 0
  29 C    1     2.4281     4.5885   25 C    0 0 0

  30 C    1     1.4023     2.6499   29 C    0 0-1
  30 C    1     1.4024     2.6502   27 C   -1 0-1
  30 C    1     1.5517     2.9323    1 B    0 0 0
  30 C    1     2.1441     4.0518   12 H   -1 0 0
  30 C    1     2.1483     4.0597   14 H    0 0 0
  30 C    1     2.4246     4.5819   26 C    0 0-1

  31 C    1     1.4022     2.6498   32 C    1 1-1
  31 C    1     1.4030     2.6513   34 C    0 0 0
  31 C    1     1.5525     2.9337    5 B    0 0 0
  31 C    1     2.1436     4.0508   15 H    1 1-1
  31 C    1     2.1502     4.0633   17 H    0 0 0
  31 C    1     2.4265     4.5853   33 C    0 0 0

  32 C    1     1.0916     2.0628   15 H    0 0 0
  32 C    1     1.3918     2.6301   35 C    0 0 0
  32 C    1     1.4022     2.6498   31 C   -1-1 1
  32 C    1     2.1656     4.0923   18 H    0 0 0
  32 C    1     2.4163     4.5661   34 C   -1-1 1
  32 C    1     2.4270     4.5863   36 C   -1-1 1

  33 C    1     1.0914     2.0625   16 H    0 0 0
  33 C    1     1.3927     2.6318   34 C    0 0 0
  33 C    1     1.4029     2.6510   36 C    0 0 0
  33 C    1     2.1683     4.0976   17 H    0 0 0
  33 C    1     2.4155     4.5646   35 C    1 1-1
  33 C    1     2.4265     4.5853   31 C    0 0 0

  34 C    1     1.0921     2.0638   17 H    0 0 0
  34 C    1     1.3927     2.6318   33 C    0 0 0
  34 C    1     1.4030     2.6513   31 C    0 0 0
  34 C    1     2.1663     4.0937   16 H    0 0 0
  34 C    1     2.4163     4.5661   32 C    1 1-1
  34 C    1     2.4289     4.5899   36 C    0 0 0

  35 C    1     1.0913     2.0622   18 H    0 0 0
  35 C    1     1.3918     2.6301   32 C    0 0 0
  35 C    1     1.4029     2.6511   36 C   -1-1 1
  35 C    1     2.1707     4.1021   15 H    0 0 0
  35 C    1     2.4155     4.5646   33 C   -1-1 1
  35 C    1     2.4269     4.5861   31 C   -1-1 1

  36 C    1     1.4029     2.6510   33 C    0 0 0
  36 C    1     1.4029     2.6511   35 C    1 1-1
  36 C    1     1.5529     2.9346    3 B    0 0 0
  36 C    1     2.1488     4.0606   16 H    0 0 0
  36 C    1     2.1495     4.0619   18 H    1 1-1
  36 C    1     2.4270     4.5863   32 C    1 1-1

  37 O    1     1.3790     2.6060    3 B    0 0 0
  37 O    1     1.3795     2.6068    1 B    1 0 0
  37 O    1     2.3868     4.5105   39 O    1 1-1
  37 O    1     2.3885     4.5136   38 O    1 0 0
  37 O    1     2.5389     4.7979   30 C    1 0 0
  37 O    1     2.5412     4.8022   36 C    0 0 0

  38 O    1     1.3787     2.6054    1 B    0 0 0
  38 O    1     1.3792     2.6064    2 B    0 0 0
  38 O    1     2.3885     4.5136   37 O   -1 0 0
  38 O    1     2.3912     4.5188   39 O    0 1-1
  38 O    1     2.5351     4.7906   19 C    0 0 0
  38 O    1     2.5405     4.8008   30 C    0 0 0

  39 O    1     1.3795     2.6069    3 B   -1-1 1
  39 O    1     1.3798     2.6075    2 B    0-1 1
  39 O    1     2.3868     4.5105   37 O   -1-1 1
  39 O    1     2.3912     4.5188   38 O    0-1 1
  39 O    1     2.5416     4.8030   19 C    0-1 1
  39 O    1     2.5427     4.8050   36 C   -1-1 1

  40 O    1     1.3783     2.6045    6 B    1 0 0
  40 O    1     1.3786     2.6051    4 B    0-1 1
  40 O    1     2.3876     4.5120   42 O    1 0 0
  40 O    1     2.3914     4.5191   41 O    0-1 1
  40 O    1     2.5354     4.7912   25 C    1 0 0
  40 O    1     2.5360     4.7924   24 C    0-1 1

  41 O    1     1.3778     2.6037    5 B    0 0 0
  41 O    1     1.3779     2.6038    4 B    0 0 0
  41 O    1     2.3870     4.5108   42 O    1 1-1
  41 O    1     2.3914     4.5191   40 O    0 1-1
  41 O    1     2.5306     4.7821   24 C    0 0 0
  41 O    1     2.5355     4.7913   31 C    0 0 0

  42 O    1     1.3812     2.6101    6 B    0 0 0
  42 O    1     1.3814     2.6104    5 B   -1-1 1
  42 O    1     2.3870     4.5108   41 O   -1-1 1
  42 O    1     2.3876     4.5120   40 O   -1 0 0
  42 O    1     2.5481     4.8152   31 C   -1-1 1
  42 O    1     2.5522     4.8230   25 C    0 0 0


 SYMMETRY ALLOWED INTERNAL DEGREE(S) OF FREEDOM: 123
 TTTTTTTTTTTTTTTTTTTTTTTTTTTTTT SYMM        TELAPSE        0.31 TCPU        0.31
 TTTTTTTTTTTTTTTTTTTTTTTTTTTTTT INT_SCREEN  TELAPSE        0.34 TCPU        0.34

 DFT PARAMETERS

     ATOM       ELECTRONS   NET CHARGE   R(ANGSTROM)
   1   5  B       5.0000      0.0000     0.89000000
   7   1  H       1.0000      0.0000     1.11000000
  19   6  C       6.0000      0.0000     0.77000000
  37   8  O       8.0000      0.0000     0.74000000

 SIZE OF GRID=    1318023
 TTTTTTTTTTTTTTTTTTTTTTTTTTTTTT MAKE_GRID2  TELAPSE        9.29 TCPU        9.28
 BECKE WEIGHT FUNCTION
 RADSAFE =     2.00
 TOLERANCES - DENSITY:10**- 6; POTENTIAL:10**- 9; GRID WGT:10**-14

 RADIAL INTEGRATION  - INTERVALS (POINTS,UPPER LIMIT):            1( 75,  4.0*R)

 ANGULAR INTEGRATION - INTERVALS (ACCURACY LEVEL [N. POINTS] UPPER LIMIT):
  1(  4[  86]   0.2)  2(  8[ 194]   0.5)  3( 12[ 350]   0.9)  4( 16[ 974]   3.5)
  5( 12[ 350]9999.0)
 TTTTTTTTTTTTTTTTTTTTTTTTTTTTTT INT_CALC    TELAPSE        9.38 TCPU        9.37
 EEEEEEEEEE INT_CALC TERMINATION  DATE 02 12 2025 TIME 08:04:02.9

 *******************************************************************************
 COF-5_z41_inc_L020                                                              
 CRYSTAL - SCF - TYPE OF CALCULATION :  RESTRICTED CLOSED SHELL
 *******************************************************************************

 CAPPA:IS1  2;IS2  2;IS3  8; K PTS MONK NET  20; SYMMOPS:K SPACE   2;G SPACE   1

 TTTTTTTTTTTTTTTTTTTTTTTTTTTTTT SDIK        TELAPSE       10.10 TCPU       14.30

 AAAAAAAAAAAAAAAAAAAAAAAAAAAAAAAAAAAAAAAAAAAAAAAAAAAAAAAAAAAAAAAAAAAAAAAAAAAAAAA
         ATOMIC WAVEFUNCTION(S)


 NUCLEAR CHARGE  5.0  SYMMETRY SPECIES            S    P
 N. ELECTRONS    5.0  NUMBER OF PRIMITIVE GTOS    8    4
                      NUMBER OF CONTRACTED GTOS   4    2
                      NUMBER OF CLOSED SHELLS     2    0
                      OPEN SHELL OCCUPATION       0    1

  ZNUC  SCFIT    TOTAL HF ENERGY   KINETIC ENERGY   VIRIAL THEOREM ACCURACY
   5.0    11    -2.451164084E+01  2.462155050E+01 -1.995536038E+00  1.5E-06

 NUCLEAR CHARGE  1.0  SYMMETRY SPECIES            S
 N. ELECTRONS    1.0  NUMBER OF PRIMITIVE GTOS    4
                      NUMBER OF CONTRACTED GTOS   2
                      NUMBER OF CLOSED SHELLS     0
                      OPEN SHELL OCCUPATION       1

  ZNUC  SCFIT    TOTAL HF ENERGY   KINETIC ENERGY   VIRIAL THEOREM ACCURACY
   1.0     1    -4.977266687E-01  5.190767460E-01 -1.958869132E+00  0.0E+00

 NUCLEAR CHARGE  6.0  SYMMETRY SPECIES            S    P
 N. ELECTRONS    6.0  NUMBER OF PRIMITIVE GTOS    8    4
                      NUMBER OF CONTRACTED GTOS   4    2
                      NUMBER OF CLOSED SHELLS     2    0
                      OPEN SHELL OCCUPATION       0    2

  ZNUC  SCFIT    TOTAL HF ENERGY   KINETIC ENERGY   VIRIAL THEOREM ACCURACY
   6.0     9    -3.766704647E+01  3.775180683E+01 -1.997754800E+00  1.1E-06

 NUCLEAR CHARGE  8.0  SYMMETRY SPECIES            S    P
 N. ELECTRONS    8.0  NUMBER OF PRIMITIVE GTOS    8    4
                      NUMBER OF CONTRACTED GTOS   4    2
                      NUMBER OF CLOSED SHELLS     2    0
                      OPEN SHELL OCCUPATION       0    4

  ZNUC  SCFIT    TOTAL HF ENERGY   KINETIC ENERGY   VIRIAL THEOREM ACCURACY
   8.0    12    -7.477373220E+01  7.477365593E+01 -2.000001020E+00  3.8E-06

 AAAAAAAAAAAAAAAAAAAAAAAAAAAAAAAAAAAAAAAAAAAAAAAAAAAAAAAAAAAAAAAAAAAAAAAAAAAAAAA

 CHARGE NORMALIZATION FACTOR   1.00000000
 TOTAL ATOMIC CHARGES:
   5.0000000   5.0000000   5.0000000   5.0000000   5.0000000   5.0000000
   1.0000000   1.0000000   1.0000000   1.0000000   1.0000000   1.0000000
   1.0000000   1.0000000   1.0000000   1.0000000   1.0000000   1.0000000
   6.0000000   6.0000000   6.0000000   6.0000000   6.0000000   6.0000000
   6.0000000   6.0000000   6.0000000   6.0000000   6.0000000   6.0000000
   6.0000000   6.0000000   6.0000000   6.0000000   6.0000000   6.0000000
   8.0000000   8.0000000   8.0000000   8.0000000   8.0000000   8.0000000
 TTTTTTTTTTTTTTTTTTTTTTTTTTTTTT MOQGAD      TELAPSE       10.15 TCPU       15.03
 TTTTTTTTTTTTTTTTTTTTTTTTTTTTTT SHELLXN     TELAPSE       17.83 TCPU      248.10
 TTTTTTTTTTTTTTTTTTTTTTTTTTTTTT MONMO3      TELAPSE       17.99 TCPU      253.02
 NUMERICALLY INTEGRATED DENSITY    197.9999738821
 TTTTTTTTTTTTTTTTTTTTTTTTTTTTTT NUMDFT      TELAPSE       18.54 TCPU      270.82
 CYC   0 ETOT(AU) -1.295947635670E+03 DETOT -1.30E+03 tst  0.00E+00 PX  1.00E+00
 TTTTTTTTTTTTTTTTTTTTTTTTTTTTTT DIIS        TELAPSE       18.58 TCPU      272.00
 TTTTTTTTTTTTTTTTTTTTTTTTTTTTTT FDIK        TELAPSE       19.09 TCPU      288.36
 INSULATING STATE
 TOP OF VALENCE BANDS -    BAND     99; K    1; EIG -3.1144183E-01 AU
 BOTTOM OF VIRTUAL BANDS - BAND    100; K    1; EIG -1.5688688E-01 AU
 DIRECT ENERGY BAND GAP:   4.2057 eV
 TTTTTTTTTTTTTTTTTTTTTTTTTTTTTT PDIG        TELAPSE       19.38 TCPU      294.50
 CHARGE NORMALIZATION FACTOR   1.00000000
 TOTAL ATOMIC CHARGES:
   4.1574286   4.1592163   4.1603994   4.1620754   4.1593511   4.1566009
   0.7852931   0.7852589   0.7853873   0.7854194   0.7853402   0.7852532
   0.7862113   0.7857887   0.7850080   0.7855929   0.7855856   0.7858286
   6.0445663   6.2656265   6.2657248   6.2660662   6.2647651   6.0468162
   6.0412722   6.2666303   6.2648221   6.2673085   6.2671382   6.0448096
   6.0437204   6.2657391   6.2666123   6.2655716   6.2671897   6.0412543
   8.6945720   8.6937929   8.6934912   8.6933869   8.6922524   8.6958321
 TTTTTTTTTTTTTTTTTTTTTTTTTTTTTT MOQGAD      TELAPSE       19.43 TCPU      294.54
 TTTTTTTTTTTTTTTTTTTTTTTTTTTTTT SHELLXN     TELAPSE       27.08 TCPU      538.56
 TTTTTTTTTTTTTTTTTTTTTTTTTTTTTT MONMO3      TELAPSE       27.24 TCPU      543.73
 NUMERICALLY INTEGRATED DENSITY    197.9999853388
 TTTTTTTTTTTTTTTTTTTTTTTTTTTTTT NUMDFT      TELAPSE       27.80 TCPU      561.64
 CYC   1 ETOT(AU) -1.288813950672E+03 DETOT  7.13E+00 tst  0.00E+00 PX  1.00E+00
 TTTTTTTTTTTTTTTTTTTTTTTTTTTTTT DIIS        TELAPSE       27.85 TCPU      563.06
 DIIS TEST: 0.11054E+01 AT SCF   CYCLE   1 - MIX   30 %
 TTTTTTTTTTTTTTTTTTTTTTTTTTTTTT FDIK        TELAPSE       28.35 TCPU      579.09
 INSULATING STATE
 TOP OF VALENCE BANDS -    BAND     99; K    1; EIG -2.2120770E-01 AU
 BOTTOM OF VIRTUAL BANDS - BAND    100; K    1; EIG -7.8903122E-02 AU
 DIRECT ENERGY BAND GAP:   3.8723 eV
 TTTTTTTTTTTTTTTTTTTTTTTTTTTTTT PDIG        TELAPSE       28.64 TCPU      585.24
 CHARGE NORMALIZATION FACTOR   1.00000000
 TOTAL ATOMIC CHARGES:
   4.7021931   4.7060159   4.7061532   4.7066466   4.7053979   4.7021725
   0.9131577   0.9135177   0.9169993   0.9169124   0.9122438   0.9118740
   0.9128350   0.9131069   0.9126902   0.9132388   0.9166566   0.9168757
   5.8652829   6.1233984   6.1213887   6.1381504   6.1405881   5.8614767
   5.8735879   6.1293981   6.1319393   6.1347176   6.1324630   5.8690343
   5.8675364   6.1180777   6.1211676   6.1407150   6.1376791   5.8676861
   8.3351225   8.3337778   8.3448993   8.3323757   8.3420648   8.3387856
 TTTTTTTTTTTTTTTTTTTTTTTTTTTTTT MOQGAD      TELAPSE       28.69 TCPU      585.29
 TTTTTTTTTTTTTTTTTTTTTTTTTTTTTT SHELLXN     TELAPSE       36.33 TCPU      829.01
 TTTTTTTTTTTTTTTTTTTTTTTTTTTTTT MONMO3      TELAPSE       36.49 TCPU      833.94
 NUMERICALLY INTEGRATED DENSITY    197.9999843596
 TTTTTTTTTTTTTTTTTTTTTTTTTTTTTT NUMDFT      TELAPSE       37.08 TCPU      852.71
 CYC   2 ETOT(AU) -1.289008973776E+03 DETOT -1.95E-01 tst  4.20E-03 PX  1.58E-01
 TTTTTTTTTTTTTTTTTTTTTTTTTTTTTT DIIS        TELAPSE       37.13 TCPU      854.42
 DIIS TEST: 0.46336E+00 AT SCF   CYCLE   2 - DIIS ACTIVE - HISTORY:     2 CYCLES
 TTTTTTTTTTTTTTTTTTTTTTTTTTTTTT FDIK        TELAPSE       37.63 TCPU      870.48
 INSULATING STATE
 TOP OF VALENCE BANDS -    BAND     99; K    1; EIG -2.3469242E-01 AU
 BOTTOM OF VIRTUAL BANDS - BAND    100; K    1; EIG -7.4564146E-02 AU
 DIRECT ENERGY BAND GAP:   4.3573 eV
 TTTTTTTTTTTTTTTTTTTTTTTTTTTTTT PDIG        TELAPSE       37.92 TCPU      876.63
 CHARGE NORMALIZATION FACTOR   1.00000000
 TOTAL ATOMIC CHARGES:
   4.4959059   4.4976371   4.4981401   4.4994952   4.4973433   4.4951601
   0.8893289   0.8891527   0.8919702   0.8921528   0.8885668   0.8884634
   0.8900839   0.8894959   0.8881527   0.8893220   0.8923605   0.8919423
   5.8881335   6.1598169   6.1608483   6.1593970   6.1593743   5.8902859
   5.8940425   6.1580765   6.1583386   6.1608370   6.1608310   5.8954491
   5.8893849   6.1597741   6.1601429   6.1602315   6.1610402   5.8882904
   8.5129837   8.5124494   8.5102994   8.5119448   8.5082475   8.5151067
 TTTTTTTTTTTTTTTTTTTTTTTTTTTTTT MOQGAD      TELAPSE       37.97 TCPU      876.67
 TTTTTTTTTTTTTTTTTTTTTTTTTTTTTT SHELLXN     TELAPSE       45.62 TCPU     1120.75
 TTTTTTTTTTTTTTTTTTTTTTTTTTTTTT MONMO3      TELAPSE       45.77 TCPU     1125.62
 NUMERICALLY INTEGRATED DENSITY    197.9999840888
 TTTTTTTTTTTTTTTTTTTTTTTTTTTTTT NUMDFT      TELAPSE       46.33 TCPU     1143.48
 CYC   3 ETOT(AU) -1.289105570903E+03 DETOT -9.66E-02 tst  7.22E-04 PX  6.32E-02
 TTTTTTTTTTTTTTTTTTTTTTTTTTTTTT DIIS        TELAPSE       46.39 TCPU     1145.29
 DIIS TEST: 0.11978E-01 AT SCF   CYCLE   3 - DIIS ACTIVE - HISTORY:     3 CYCLES
 TTTTTTTTTTTTTTTTTTTTTTTTTTTTTT FDIK        TELAPSE       46.91 TCPU     1161.75
 INSULATING STATE
 TOP OF VALENCE BANDS -    BAND     99; K    1; EIG -2.4549709E-01 AU
 BOTTOM OF VIRTUAL BANDS - BAND    100; K    1; EIG -8.3576741E-02 AU
 DIRECT ENERGY BAND GAP:   4.4061 eV
 TTTTTTTTTTTTTTTTTTTTTTTTTTTTTT PDIG        TELAPSE       47.19 TCPU     1167.88
 CHARGE NORMALIZATION FACTOR   1.00000000
 TOTAL ATOMIC CHARGES:
   4.5027328   4.5028820   4.5031480   4.5044447   4.5022768   4.5023145
   0.8724367   0.8728445   0.8744846   0.8745700   0.8707855   0.8706649
   0.8720005   0.8719361   0.8719242   0.8726806   0.8746502   0.8747558
   5.9404644   6.1598157   6.1574859   6.1704602   6.1710892   5.9377380
   5.9455592   6.1649044   6.1654582   6.1673422   6.1658307   5.9436226
   5.9408420   6.1564921   6.1587571   6.1716610   6.1700473   5.9397561
   8.4782186   8.4769405   8.4856849   8.4758241   8.4835552   8.4809181
 TTTTTTTTTTTTTTTTTTTTTTTTTTTTTT MOQGAD      TELAPSE       47.24 TCPU     1167.93
 TTTTTTTTTTTTTTTTTTTTTTTTTTTTTT SHELLXN     TELAPSE       54.88 TCPU     1411.45
 TTTTTTTTTTTTTTTTTTTTTTTTTTTTTT MONMO3      TELAPSE       55.03 TCPU     1416.49
 NUMERICALLY INTEGRATED DENSITY    197.9999842712
 TTTTTTTTTTTTTTTTTTTTTTTTTTTTTT NUMDFT      TELAPSE       55.61 TCPU     1434.78
 CYC   4 ETOT(AU) -1.289108048478E+03 DETOT -2.48E-03 tst  2.82E-05 PX  1.27E-02
 TTTTTTTTTTTTTTTTTTTTTTTTTTTTTT DIIS        TELAPSE       55.67 TCPU     1436.71
 DIIS TEST: 0.40489E-02 AT SCF   CYCLE   4 - DIIS ACTIVE - HISTORY:     4 CYCLES
 TTTTTTTTTTTTTTTTTTTTTTTTTTTTTT FDIK        TELAPSE       56.16 TCPU     1452.54
 INSULATING STATE
 TOP OF VALENCE BANDS -    BAND     99; K    1; EIG -2.4339167E-01 AU
 BOTTOM OF VIRTUAL BANDS - BAND    100; K    1; EIG -8.2852398E-02 AU
 DIRECT ENERGY BAND GAP:   4.3685 eV
 TTTTTTTTTTTTTTTTTTTTTTTTTTTTTT PDIG        TELAPSE       56.45 TCPU     1458.69
 CHARGE NORMALIZATION FACTOR   1.00000000
 TOTAL ATOMIC CHARGES:
   4.5030803   4.5050532   4.5054802   4.5066472   4.5045951   4.5025336
   0.8756977   0.8756285   0.8781873   0.8782598   0.8746207   0.8744348
   0.8759133   0.8755143   0.8747724   0.8757893   0.8784343   0.8782312
   5.9187376   6.1620098   6.1624585   6.1683248   6.1688595   5.9197856
   5.9239969   6.1646649   6.1654021   6.1674719   6.1669689   5.9241641
   5.9203549   6.1608915   6.1618466   6.1692733   6.1692529   5.9193848
   8.4904461   8.4895838   8.4918313   8.4889163   8.4896773   8.4928232
 TTTTTTTTTTTTTTTTTTTTTTTTTTTTTT MOQGAD      TELAPSE       56.50 TCPU     1458.73
 TTTTTTTTTTTTTTTTTTTTTTTTTTTTTT SHELLXN     TELAPSE       64.15 TCPU     1702.64
 TTTTTTTTTTTTTTTTTTTTTTTTTTTTTT MONMO3      TELAPSE       64.30 TCPU     1707.53
 NUMERICALLY INTEGRATED DENSITY    197.9999843404
 TTTTTTTTTTTTTTTTTTTTTTTTTTTTTT NUMDFT      TELAPSE       64.87 TCPU     1725.85
 CYC   5 ETOT(AU) -1.289108974749E+03 DETOT -9.26E-04 tst  5.95E-06 PX  6.71E-03
 TTTTTTTTTTTTTTTTTTTTTTTTTTTTTT DIIS        TELAPSE       64.94 TCPU     1728.10
 DIIS TEST: 0.71797E-04 AT SCF   CYCLE   5 - DIIS ACTIVE - HISTORY:     5 CYCLES
 TTTTTTTTTTTTTTTTTTTTTTTTTTTTTT FDIK        TELAPSE       65.46 TCPU     1744.43
 INSULATING STATE
 TOP OF VALENCE BANDS -    BAND     99; K    1; EIG -2.4314536E-01 AU
 BOTTOM OF VIRTUAL BANDS - BAND    100; K    1; EIG -8.2257720E-02 AU
 DIRECT ENERGY BAND GAP:   4.3780 eV
 TTTTTTTTTTTTTTTTTTTTTTTTTTTTTT PDIG        TELAPSE       65.75 TCPU     1750.58
 CHARGE NORMALIZATION FACTOR   1.00000000
 TOTAL ATOMIC CHARGES:
   4.5033900   4.5044722   4.5048093   4.5060659   4.5039687   4.5028806
   0.8765414   0.8768287   0.8790988   0.8792337   0.8755266   0.8754211
   0.8767881   0.8765891   0.8758825   0.8767364   0.8793054   0.8792901
   5.9201254   6.1621908   6.1603735   6.1682911   6.1685602   5.9182906
   5.9251341   6.1642839   6.1645699   6.1668621   6.1658772   5.9242288
   5.9204195   6.1595572   6.1613587   6.1694503   6.1684400   5.9192802
   8.4890257   8.4880722   8.4931070   8.4870346   8.4910372   8.4916010
 TTTTTTTTTTTTTTTTTTTTTTTTTTTTTT MOQGAD      TELAPSE       65.79 TCPU     1750.62
 TTTTTTTTTTTTTTTTTTTTTTTTTTTTTT SHELLXN     TELAPSE       73.43 TCPU     1994.29
 TTTTTTTTTTTTTTTTTTTTTTTTTTTTTT MONMO3      TELAPSE       73.59 TCPU     1999.26
 NUMERICALLY INTEGRATED DENSITY    197.9999843156
 TTTTTTTTTTTTTTTTTTTTTTTTTTTTTT NUMDFT      TELAPSE       74.16 TCPU     2017.57
 CYC   6 ETOT(AU) -1.289108992506E+03 DETOT -1.78E-05 tst  1.83E-07 PX  1.08E-03
 TTTTTTTTTTTTTTTTTTTTTTTTTTTTTT DIIS        TELAPSE       74.23 TCPU     2019.80
 DIIS TEST: 0.11310E-04 AT SCF   CYCLE   6 - DIIS ACTIVE - HISTORY:     6 CYCLES
 TTTTTTTTTTTTTTTTTTTTTTTTTTTTTT FDIK        TELAPSE       74.74 TCPU     2035.95
 INSULATING STATE
 TOP OF VALENCE BANDS -    BAND     99; K    1; EIG -2.4317927E-01 AU
 BOTTOM OF VIRTUAL BANDS - BAND    100; K    1; EIG -8.2335786E-02 AU
 DIRECT ENERGY BAND GAP:   4.3768 eV
 TTTTTTTTTTTTTTTTTTTTTTTTTTTTTT PDIG        TELAPSE       75.02 TCPU     2042.10
 CHARGE NORMALIZATION FACTOR   1.00000000
 TOTAL ATOMIC CHARGES:
   4.5032171   4.5047745   4.5051921   4.5064139   4.5043306   4.5026713
   0.8766442   0.8766357   0.8790689   0.8791459   0.8755032   0.8753259
   0.8767950   0.8764500   0.8757645   0.8767545   0.8793204   0.8791415
   5.9192042   6.1611875   6.1613805   6.1677232   6.1683050   5.9199530
   5.9247991   6.1638936   6.1646486   6.1667530   6.1659392   5.9245739
   5.9207123   6.1598519   6.1610004   6.1687292   6.1685000   5.9197186
   8.4896467   8.4886697   8.4918970   8.4879964   8.4897453   8.4920224
 TTTTTTTTTTTTTTTTTTTTTTTTTTTTTT MOQGAD      TELAPSE       75.07 TCPU     2042.14
 TTTTTTTTTTTTTTTTTTTTTTTTTTTTTT SHELLXN     TELAPSE       82.72 TCPU     2285.89
 TTTTTTTTTTTTTTTTTTTTTTTTTTTTTT MONMO3      TELAPSE       82.87 TCPU     2290.80
 NUMERICALLY INTEGRATED DENSITY    197.9999843162
 TTTTTTTTTTTTTTTTTTTTTTTTTTTTTT NUMDFT      TELAPSE       83.43 TCPU     2308.60
 CYC   7 ETOT(AU) -1.289108994193E+03 DETOT -1.69E-06 tst  5.37E-08 PX  4.36E-04
 TTTTTTTTTTTTTTTTTTTTTTTTTTTTTT DIIS        TELAPSE       83.50 TCPU     2311.08
 DIIS TEST: 0.17576E-05 AT SCF   CYCLE   7 - DIIS ACTIVE - HISTORY:     7 CYCLES
 TTTTTTTTTTTTTTTTTTTTTTTTTTTTTT FDIK        TELAPSE       84.01 TCPU     2327.43
 INSULATING STATE
 TOP OF VALENCE BANDS -    BAND     99; K    1; EIG -2.4317979E-01 AU
 BOTTOM OF VIRTUAL BANDS - BAND    100; K    1; EIG -8.2355619E-02 AU
 DIRECT ENERGY BAND GAP:   4.3763 eV
 TTTTTTTTTTTTTTTTTTTTTTTTTTTTTT PDIG        TELAPSE       84.31 TCPU     2333.56
 CHARGE NORMALIZATION FACTOR   1.00000000
 TOTAL ATOMIC CHARGES:
   4.5033344   4.5048283   4.5052131   4.5064254   4.5043440   4.5027985
   0.8765472   0.8766558   0.8790241   0.8791289   0.8754515   0.8753084
   0.8767450   0.8764308   0.8757504   0.8766911   0.8792578   0.8791414
   5.9196978   6.1616081   6.1609098   6.1679303   6.1683146   5.9192315
   5.9247407   6.1640825   6.1645745   6.1666957   6.1660587   5.9244617
   5.9206118   6.1597385   6.1610819   6.1689439   6.1684748   5.9195946
   8.4894996   8.4886189   8.4922150   8.4877454   8.4900939   8.4919996
 TTTTTTTTTTTTTTTTTTTTTTTTTTTTTT MOQGAD      TELAPSE       84.35 TCPU     2333.60
 TTTTTTTTTTTTTTTTTTTTTTTTTTTTTT SHELLXN     TELAPSE       92.22 TCPU     2584.24
 TTTTTTTTTTTTTTTTTTTTTTTTTTTTTT MONMO3      TELAPSE       92.38 TCPU     2589.18
 NUMERICALLY INTEGRATED DENSITY    197.9999843156
 TTTTTTTTTTTTTTTTTTTTTTTTTTTTTT NUMDFT      TELAPSE       92.97 TCPU     2607.98
 CYC   8 ETOT(AU) -1.289108994511E+03 DETOT -3.18E-07 tst  1.24E-08 PX  1.74E-04
 TTTTTTTTTTTTTTTTTTTTTTTTTTTTTT DIIS        TELAPSE       93.05 TCPU     2610.67
 DIIS TEST: 0.12457E-06 AT SCF   CYCLE   8 - DIIS ACTIVE - HISTORY:     8 CYCLES
 TTTTTTTTTTTTTTTTTTTTTTTTTTTTTT FDIK        TELAPSE       93.56 TCPU     2626.84
 INSULATING STATE
 TOP OF VALENCE BANDS -    BAND     99; K    1; EIG -2.4318040E-01 AU
 BOTTOM OF VIRTUAL BANDS - BAND    100; K    1; EIG -8.2351287E-02 AU
 DIRECT ENERGY BAND GAP:   4.3764 eV
 TTTTTTTTTTTTTTTTTTTTTTTTTTTTTT PDIG        TELAPSE       93.85 TCPU     2632.99
 CHARGE NORMALIZATION FACTOR   1.00000000
 TOTAL ATOMIC CHARGES:
   4.5033358   4.5047953   4.5051822   4.5064106   4.5043261   4.5028078
   0.8765504   0.8766366   0.8790243   0.8791194   0.8754543   0.8752995
   0.8767329   0.8764378   0.8757408   0.8766862   0.8792571   0.8791348
   5.9194557   6.1615189   6.1610688   6.1679071   6.1683957   5.9194032
   5.9248443   6.1640380   6.1646439   6.1668256   6.1659399   5.9243821
   5.9206037   6.1597662   6.1611276   6.1689859   6.1684794   5.9195319
   8.4895048   8.4885396   8.4922673   8.4877515   8.4901470   8.4919403
 TTTTTTTTTTTTTTTTTTTTTTTTTTTTTT MOQGAD      TELAPSE       93.90 TCPU     2633.04
 TTTTTTTTTTTTTTTTTTTTTTTTTTTTTT SHELLXN     TELAPSE      101.58 TCPU     2877.80
 +++ ENERGIES IN A.U. +++
 ::: EXT EL-POLE                                  -1.2254801412660E+03
 ::: EXT EL-SPHEROPOLE                             1.3947945295849E+01
 ::: BIELET ZONE E-E                               2.0971398666591E+03
 ::: TOTAL E-E                                     8.8560767068898E+02
 ::: TOTAL E-N + N-E                              -3.6012906224075E+03
 ::: TOTAL N-N                                     2.8037665093121E+02
 ::: KINETIC ENERGY                                1.2799083292010E+03
 ::: PSEUDO TOTAL   ENERGY                        -1.1553979715863E+03
 ::: VIRIAL COEFFICIENT                            1.0511271857566E+00
 TTTTTTTTTTTTTTTTTTTTTTTTTTTTTT MONMO3      TELAPSE      101.73 TCPU     2882.66
 NUMERICALLY INTEGRATED DENSITY    197.9999843158
 EXCHANGE ENERGY: -0.126021705129E+03  CORRELATION ENERGY: -0.768931785548E+01
 TTTTTTTTTTTTTTTTTTTTTTTTTTTTTT NUMDFT      TELAPSE      102.29 TCPU     2900.52
 CYC   9 ETOT(AU) -1.289108994571E+03 DETOT -5.98E-08 tst  1.61E-09 PX  1.74E-04

 == SCF ENDED - CONVERGENCE ON ENERGY      E(AU) -1.2891089945705E+03 CYCLES   9


 ENERGY EXPRESSION=HARTREE+FOCK EXCH*0.00000+(HSESOL     EXCH)*1.00000+PBESOL     CORR


 TOTAL ENERGY(DFT)(AU)(  9) -1.2891089945705E+03 DE-6.0E-08 tester 1.6E-09
 TTTTTTTTTTTTTTTTTTTTTTTTTTTTTT EDFT        TELAPSE      102.29 TCPU     2900.53
 
 INFORMATION **** DFTD3 ENERGY **** CALCULATE DFTD3 ENERGY

           DFT-D V3(BJ)
 DF                                         hsesol3c  
 parameters
 s6       :    1.0000
 s8       :    0.0000
 a1       :    0.5196
 a2       :    4.9385
 k1 k3    :   16.0000   -4.0000
 Cutoff   :   50.2022
 CN-Cutoff:   21.1671
 ABC-Cutoff:   21.1671
 
 Edisp /kcal,au:   -24.8745 -0.03964008

 E6    /kcal :   -26.4460
 E8    /kcal :     0.0000
 E6(ABC) "   :   1.571521
 
 INFORMATION **** DFTD3 ENERGY **** NORMAL TERMINATION OF DFTD3 MODULE

 GCP ENERGY CALCULATION
  level        hsesol3c            basis:hsesol3c
  Nbf            474
  Atoms           42

  Parameters: 
  sigma     1.0000
  eta       1.4281
  alpha     0.2936
  beta      1.9467

  dmp_scal      4.0000
  dmp_exp       6.0000
 cutoffs: 
   distance [bohr] 60.0
   noise    [a.u.] 2.2E-16
 SR-damping   T
 ** gCP correction **
  Egcp:        0.0829680988 / (a.u.) ||      52.0633 / (kcal/mol)
 INFORMATION **** GCP **** NORMAL TERMINATION OF GCP MODULE

 *******************************************************************************

 DFT-D3-GCP DISPERSION AND COUNTERPOISE CORRECTION

 D3 DISPERSION ENERGY (AU)      -3.9640075148166E-02
 GCP ENERGY (AU)                 8.2968098800475E-02
 TOTAL ENERGY + DISP + GCP (AU) -1.2890656665469E+03

 *******************************************************************************

 EIGENVECTORS IN FORTRAN UNIT 10
 TTTTTTTTTTTTTTTTTTTTTTTTTTTTTT END         TELAPSE      103.38 TCPU     2907.59
 EEEEEEEEEE TERMINATION  DATE 02 12 2025 TIME 08:05:36.9
