 Default number of threads is:           32

         
 *******************************************************************************
 *                                                                             *
 *                               CRYSTAL23                                     *
 *                      public : 1.0.1 - October 2022                          *
 *                       HTTP://WWW.CRYSTAL.UNITO.IT                           *
 *                                                                             *
 *                              MAIN AUTHORS                                   *
 *                                                                             *
 *  R. DOVESI(1,11), V.R. SAUNDERS(2), C. ROETTI(1,11), R. ORLANDO(1,11),      *
 *  C.M. ZICOVICH-WILSON(1,3), F. PASCALE(4), B. CIVALLERI(1,11),              *
 *  K. DOLL(5), N.M. HARRISON(6), I.J. BUSH(7), Ph. D'ARCO(8),                 *
 *  M. LLUNELL(9), M. CAUSA'(10), Y. NOEL(8), L. MASCHIO(1,11), A. ERBA(1,11)  *
 *  M. RE'RAT(14), S. CASASSA(1,11), B.G. SEARLE(2), J.K. DESMARAIS(1)         *
 *                                                                             *
 *        CONTRIBUTIONS TO THE CODE HAVE ALSO BEEN GIVEN BY                    *
 *                                                                             *
 *  M. FERRABONE(1,11), M. DE LA PIERRE(1,11), M. FERRERO(1,11),               *
 *  J. BAIMA(1,11), E. ALBANESE(1,11), M.F. PEINTINGER(12), R. BAST(13),       *
 *  B. KIRTMAN(15), V. LACIVITA(1,11), R. DEMICHELIS(1,16)                     *
 *  G. BRANDEBURG(17), S. SALUSTRO(1,11), G. SANSONE(1,11)                     *
 *  M.T. RUGGIERO(18), L.E. DAGA(1), L. DONA'(1), A. COSSARD(1)                *
 *                                                                             *
 * (1) THEORETICAL CHEMISTRY GROUP - UNIVERSITA' DI TORINO - TORINO (ITALY)    *
 * (2) SCIENTIFIC COMPUTING DEPARTMENT - STFC DARESBURY (UK)                   *
 * (3) UNIVERSIDAD AUTONOMA DEL ESTADO DE MORELOS - CUERNAVACA (MEXICO)        *
 * (4) UNIVERSITE' DE LORRAINE - NANCY (FRANCE)                                *
 * (5) UNIVERSITAET STUTTGART- STUTTGART (GERMANY)                             *
 * (6) IMPERIAL COLLEGE - LONDON (UK)                                          *
 * (7) SCIENTIFIC COMPUTING DEPARTMENT - STFC RAL (UK)                         *
 * (8) UPMC - SORBONNE UNIVERSITES - PARIS (FRANCE)                            *
 * (9) UNIVERSIDAD DE BARCELONA - BARCELONA (SPAIN)                            *
 *(10) UNIVERSITA' DI NAPOLI "FEDERICO II" - NAPOLI (ITALY)                    *
 *(11) NIS - NANOSTRUCTURED INTERFACES AND SURFACES - TORINO (ITALY)           *
 *(12) MPI FUER CHEMISCHE ENERGIEKONVERSION - MUELHEIM AN DER RUHR (GERMANY)   *
 *(13) UNIVERSITY OF TROMSO - TROMSO (NORWAY)                                  *
 *(14) UNIVERSITE' DE PAU ET DES PAYS DE L'ADOUR - PAU (FRANCE)                *
 *(15) UNIVERSITY OF CALIFORNIA SANTA BARBARA - SANTA BARBARA (USA)            *
 *(16) CURTIN UNIVERSITY - PERTH (AUSTRALIA)                                   *
 *(17) UNIVERSITY COLLEGE LONDON - LONDON (UK)                                 *
 *(18) UNIVERSITY OF VERMONT - BURLINGTON (USA)                                *
 *                                                                             *
 *******************************************************************************
 EEEEEEEEEE STARTING  DATE 19 02 2026 TIME 20:27:00.3
 cof-1_z43_L000_serr                                                             

 CRYSTAL CALCULATION
 (INPUT ACCORDING TO THE INTERNATIONAL TABLES FOR X-RAY CRYSTALLOGRAPHY)
 CRYSTAL FAMILY                       :  TRICLINIC   
 CRYSTAL CLASS  (GROTH - 1921)        :  TRICLINIC PEDIAL                     

 SPACE GROUP (NONCENTROSYMMETRIC)     :  P 1             

 LATTICE PARAMETERS  (ANGSTROMS AND DEGREES) - CONVENTIONAL CELL
        A           B           C        ALPHA        BETA       GAMMA
    15.02361    15.02392     8.60000    90.00032    89.99994   119.99596


 NUMBER OF IRREDUCIBLE ATOMS IN THE CONVENTIONAL CELL:   84

 INPUT COORDINATES

 ATOM AT. N.              COORDINATES
   1   5     6.136805400000E-01  2.273182200000E-01  2.505554300000E-01
   2   5     6.136805400000E-01  2.273182200000E-01  7.505554300000E-01
   3   5     7.727362000000E-01  3.863778800000E-01  2.505554400000E-01
   4   5     7.727362000000E-01  3.863778800000E-01  7.505554400000E-01
   5   5     6.136762700000E-01  3.863606700000E-01  2.493876200000E-01
   6   5     6.136762700000E-01  3.863606700000E-01  7.493876300000E-01
   7   5     2.272552500000E-01  6.136332200000E-01  2.505554400000E-01
   8   5     2.272552500000E-01  6.136332200000E-01  7.505554400000E-01
   9   5     3.863632200000E-01  6.136124500000E-01  2.505554300000E-01
  10   5     3.863632200000E-01  6.136124500000E-01  7.505554300000E-01
  11   5     3.863435000000E-01  7.727516500000E-01  2.493876300000E-01
  12   5     3.863435000000E-01  7.727516500000E-01  7.493876300000E-01
  13   1     9.030436200000E-01  3.089300500000E-01  2.481343300000E-01
  14   1     9.030436200000E-01  3.089300500000E-01  7.481343300000E-01
  15   1     9.663453000000E-02  6.910534400000E-01  2.477641000000E-01
  16   1     9.663453000000E-02  6.910534400000E-01  7.477641000000E-01
  17   1     9.029714200000E-01  5.940724300000E-01  2.477071200000E-01
  18   1     9.029714200000E-01  5.940724300000E-01  7.477071200000E-01
  19   1     9.673618000000E-02  4.056849400000E-01  2.477213300000E-01
  20   1     9.673618000000E-02  4.056849400000E-01  7.477213300000E-01
  21   1     6.910324000000E-01  9.700412000000E-02  2.518656900000E-01
  22   1     6.910324000000E-01  9.700412000000E-02  7.518656900000E-01
  23   1     3.089297200000E-01  9.034373100000E-01  2.522359400000E-01
  24   1     3.089297200000E-01  9.034373100000E-01  7.522359400000E-01
  25   1     4.058699900000E-01  9.704998000000E-02  2.522929500000E-01
  26   1     4.058699900000E-01  9.704998000000E-02  7.522929500000E-01
  27   1     5.943122100000E-01  9.033473200000E-01  2.522786500000E-01
  28   1     5.943122100000E-01  9.033473200000E-01  7.522786500000E-01
  29   1     6.910727400000E-01  5.940542100000E-01  2.481343500000E-01
  30   1     6.910727400000E-01  5.940542100000E-01  7.481343500000E-01
  31   1     3.089618300000E-01  4.056093300000E-01  2.477640800000E-01
  32   1     3.089618300000E-01  4.056093300000E-01  7.477640700000E-01
  33   1     4.058405700000E-01  3.088232500000E-01  2.477070700000E-01
  34   1     4.058405700000E-01  3.088232500000E-01  7.477070700000E-01
  35   1     5.942908800000E-01  6.909579300000E-01  2.477213700000E-01
  36   1     5.942908800000E-01  6.909579300000E-01  7.477213800000E-01
  37   6     8.918903100000E-01  4.459436900000E-01  2.493448900000E-01
  38   6     8.918903100000E-01  4.459436900000E-01  7.493449000000E-01
  39   6     9.464891100000E-01  3.927856300000E-01  2.481913100000E-01
  40   6     9.464891100000E-01  3.927856300000E-01  7.481913000000E-01
  41   6     5.338812000000E-02  6.071853000000E-01  2.480916500000E-01
  42   6     5.338812000000E-02  6.071853000000E-01  7.480916500000E-01
  43   6     9.464521100000E-01  5.536921900000E-01  2.483907200000E-01
  44   6     9.464521100000E-01  5.536921900000E-01  7.483907200000E-01
  45   6     5.342634000000E-02  4.462499700000E-01  2.476216400000E-01
  46   6     5.342634000000E-02  4.462499700000E-01  7.476216400000E-01
  47   6     1.080358900000E-01  5.540356300000E-01  2.484049500000E-01
  48   6     1.080358900000E-01  5.540356300000E-01  7.484049500000E-01
  49   6     5.540394200000E-01  1.081684600000E-01  2.506551300000E-01
  50   6     5.540394200000E-01  1.081684600000E-01  7.506551300000E-01
  51   6     6.071778500000E-01  5.355594000000E-02  2.518087100000E-01
  52   6     6.071778500000E-01  5.355594000000E-02  7.518087000000E-01
  53   6     3.927986700000E-01  9.466631600000E-01  2.519084000000E-01
  54   6     3.927986700000E-01  9.466631600000E-01  7.519084000000E-01
  55   6     4.462875800000E-01  5.360286000000E-02  2.516093300000E-01
  56   6     4.462875800000E-01  5.360286000000E-02  7.516093300000E-01
  57   6     5.537168500000E-01  9.466235600000E-01  2.523783600000E-01
  58   6     5.537168500000E-01  9.466235600000E-01  7.523783600000E-01
  59   6     4.459279100000E-01  8.919920600000E-01  2.515950800000E-01
  60   6     4.459279100000E-01  8.919920600000E-01  7.515950800000E-01
  61   6     5.540448700000E-01  4.458745500000E-01  2.493449000000E-01
  62   6     5.540448700000E-01  4.458745500000E-01  7.493448900000E-01
  63   6     6.072102200000E-01  5.536257800000E-01  2.481913200000E-01
  64   6     6.072102200000E-01  5.536257800000E-01  7.481913200000E-01
  65   6     3.928233700000E-01  4.461720300000E-01  2.480916200000E-01
  66   6     3.928233700000E-01  4.461720300000E-01  7.480916200000E-01
  67   6     4.462872600000E-01  3.926899900000E-01  2.483906900000E-01
  68   6     4.462872600000E-01  3.926899900000E-01  7.483906900000E-01
  69   6     5.537429600000E-01  6.070980000000E-01  2.476216700000E-01
  70   6     5.537429600000E-01  6.070980000000E-01  7.476216700000E-01
  71   6     4.459599800000E-01  5.539582300000E-01  2.484049500000E-01
  72   6     4.459599800000E-01  5.539582300000E-01  7.484049500000E-01
  73   8     5.607366800000E-01  2.803706300000E-01  2.497009400000E-01
  74   8     5.607366800000E-01  2.803706300000E-01  7.497009300000E-01
  75   8     7.196817000000E-01  2.803783300000E-01  2.521647400000E-01
  76   8     7.196817000000E-01  2.803783300000E-01  7.521647400000E-01
  77   8     7.196794200000E-01  4.393234600000E-01  2.484476900000E-01
  78   8     7.196794200000E-01  4.393234600000E-01  7.484476900000E-01
  79   8     2.803245100000E-01  7.196511100000E-01  2.497009500000E-01
  80   8     2.803245100000E-01  7.196511100000E-01  7.497009500000E-01
  81   8     2.803439700000E-01  5.606956100000E-01  2.521647300000E-01
  82   8     2.803439700000E-01  5.606956100000E-01  7.521647300000E-01
  83   8     4.392638400000E-01  7.196354200000E-01  2.484476800000E-01
  84   8     4.392638400000E-01  7.196354200000E-01  7.484476700000E-01

 *******************************************************************************

 << INFORMATION >>: FROM NOW ON, ALL COORDINATES REFER TO THE PRIMITIVE CELL

 *******************************************************************************

 LATTICE PARAMETERS  (ANGSTROMS AND DEGREES) - PRIMITIVE CELL
       A          B          C        ALPHA      BETA     GAMMA        VOLUME
   15.02361   15.02392    8.60000    90.00032  89.99994 119.99596   1681.141313

 COORDINATES OF THE EQUIVALENT ATOMS (FRACTIONAL UNITS)

 N. ATOM EQUIV AT. N.          X                  Y                  Z

   1   1   1    5 B    -3.86319460000E-01  2.27318220000E-01  2.50555430000E-01

   2   2   1    5 B    -3.86319460000E-01  2.27318220000E-01 -2.49444570000E-01

   3   3   1    5 B    -2.27263800000E-01  3.86377880000E-01  2.50555440000E-01

   4   4   1    5 B    -2.27263800000E-01  3.86377880000E-01 -2.49444560000E-01

   5   5   1    5 B    -3.86323730000E-01  3.86360670000E-01  2.49387620000E-01

   6   6   1    5 B    -3.86323730000E-01  3.86360670000E-01 -2.50612370000E-01

   7   7   1    5 B     2.27255250000E-01 -3.86366780000E-01  2.50555440000E-01

   8   8   1    5 B     2.27255250000E-01 -3.86366780000E-01 -2.49444560000E-01

   9   9   1    5 B     3.86363220000E-01 -3.86387550000E-01  2.50555430000E-01

  10  10   1    5 B     3.86363220000E-01 -3.86387550000E-01 -2.49444570000E-01

  11  11   1    5 B     3.86343500000E-01 -2.27248350000E-01  2.49387630000E-01

  12  12   1    5 B     3.86343500000E-01 -2.27248350000E-01 -2.50612370000E-01

  13  13   1    1 H    -9.69563800000E-02  3.08930050000E-01  2.48134330000E-01

  14  14   1    1 H    -9.69563800000E-02  3.08930050000E-01 -2.51865670000E-01

  15  15   1    1 H     9.66345300000E-02 -3.08946560000E-01  2.47764100000E-01

  16  16   1    1 H     9.66345300000E-02 -3.08946560000E-01 -2.52235900000E-01

  17  17   1    1 H    -9.70285800000E-02 -4.05927570000E-01  2.47707120000E-01

  18  18   1    1 H    -9.70285800000E-02 -4.05927570000E-01 -2.52292880000E-01

  19  19   1    1 H     9.67361800000E-02  4.05684940000E-01  2.47721330000E-01

  20  20   1    1 H     9.67361800000E-02  4.05684940000E-01 -2.52278670000E-01

  21  21   1    1 H    -3.08967600000E-01  9.70041200000E-02  2.51865690000E-01

  22  22   1    1 H    -3.08967600000E-01  9.70041200000E-02 -2.48134310000E-01

  23  23   1    1 H     3.08929720000E-01 -9.65626900000E-02  2.52235940000E-01

  24  24   1    1 H     3.08929720000E-01 -9.65626900000E-02 -2.47764060000E-01

  25  25   1    1 H     4.05869990000E-01  9.70499800000E-02  2.52292950000E-01

  26  26   1    1 H     4.05869990000E-01  9.70499800000E-02 -2.47707050000E-01

  27  27   1    1 H    -4.05687790000E-01 -9.66526800000E-02  2.52278650000E-01

  28  28   1    1 H    -4.05687790000E-01 -9.66526800000E-02 -2.47721350000E-01

  29  29   1    1 H    -3.08927260000E-01 -4.05945790000E-01  2.48134350000E-01

  30  30   1    1 H    -3.08927260000E-01 -4.05945790000E-01 -2.51865650000E-01

  31  31   1    1 H     3.08961830000E-01  4.05609330000E-01  2.47764080000E-01

  32  32   1    1 H     3.08961830000E-01  4.05609330000E-01 -2.52235930000E-01

  33  33   1    1 H     4.05840570000E-01  3.08823250000E-01  2.47707070000E-01

  34  34   1    1 H     4.05840570000E-01  3.08823250000E-01 -2.52292930000E-01

  35  35   1    1 H    -4.05709120000E-01 -3.09042070000E-01  2.47721370000E-01

  36  36   1    1 H    -4.05709120000E-01 -3.09042070000E-01 -2.52278620000E-01

  37  37   1    6 C    -1.08109690000E-01  4.45943690000E-01  2.49344890000E-01

  38  38   1    6 C    -1.08109690000E-01  4.45943690000E-01 -2.50655100000E-01

  39  39   1    6 C    -5.35108900000E-02  3.92785630000E-01  2.48191310000E-01

  40  40   1    6 C    -5.35108900000E-02  3.92785630000E-01 -2.51808700000E-01

  41  41   1    6 C     5.33881200000E-02 -3.92814700000E-01  2.48091650000E-01

  42  42   1    6 C     5.33881200000E-02 -3.92814700000E-01 -2.51908350000E-01

  43  43   1    6 C    -5.35478900000E-02 -4.46307810000E-01  2.48390720000E-01

  44  44   1    6 C    -5.35478900000E-02 -4.46307810000E-01 -2.51609280000E-01

  45  45   1    6 C     5.34263400000E-02  4.46249970000E-01  2.47621640000E-01

  46  46   1    6 C     5.34263400000E-02  4.46249970000E-01 -2.52378360000E-01

  47  47   1    6 C     1.08035890000E-01 -4.45964370000E-01  2.48404950000E-01

  48  48   1    6 C     1.08035890000E-01 -4.45964370000E-01 -2.51595050000E-01

  49  49   1    6 C    -4.45960580000E-01  1.08168460000E-01  2.50655130000E-01

  50  50   1    6 C    -4.45960580000E-01  1.08168460000E-01 -2.49344870000E-01

  51  51   1    6 C    -3.92822150000E-01  5.35559400000E-02  2.51808710000E-01

  52  52   1    6 C    -3.92822150000E-01  5.35559400000E-02 -2.48191300000E-01

  53  53   1    6 C     3.92798670000E-01 -5.33368400000E-02  2.51908400000E-01

  54  54   1    6 C     3.92798670000E-01 -5.33368400000E-02 -2.48091600000E-01

  55  55   1    6 C     4.46287580000E-01  5.36028600000E-02  2.51609330000E-01

  56  56   1    6 C     4.46287580000E-01  5.36028600000E-02 -2.48390670000E-01

  57  57   1    6 C    -4.46283150000E-01 -5.33764400000E-02  2.52378360000E-01

  58  58   1    6 C    -4.46283150000E-01 -5.33764400000E-02 -2.47621640000E-01

  59  59   1    6 C     4.45927910000E-01 -1.08007940000E-01  2.51595080000E-01

  60  60   1    6 C     4.45927910000E-01 -1.08007940000E-01 -2.48404920000E-01

  61  61   1    6 C    -4.45955130000E-01  4.45874550000E-01  2.49344900000E-01

  62  62   1    6 C    -4.45955130000E-01  4.45874550000E-01 -2.50655110000E-01

  63  63   1    6 C    -3.92789780000E-01 -4.46374220000E-01  2.48191320000E-01

  64  64   1    6 C    -3.92789780000E-01 -4.46374220000E-01 -2.51808680000E-01

  65  65   1    6 C     3.92823370000E-01  4.46172030000E-01  2.48091620000E-01

  66  66   1    6 C     3.92823370000E-01  4.46172030000E-01 -2.51908380000E-01

  67  67   1    6 C     4.46287260000E-01  3.92689990000E-01  2.48390690000E-01

  68  68   1    6 C     4.46287260000E-01  3.92689990000E-01 -2.51609310000E-01

  69  69   1    6 C    -4.46257040000E-01 -3.92902000000E-01  2.47621670000E-01

  70  70   1    6 C    -4.46257040000E-01 -3.92902000000E-01 -2.52378330000E-01

  71  71   1    6 C     4.45959980000E-01 -4.46041770000E-01  2.48404950000E-01

  72  72   1    6 C     4.45959980000E-01 -4.46041770000E-01 -2.51595050000E-01

  73  73   1    8 O    -4.39263320000E-01  2.80370630000E-01  2.49700940000E-01

  74  74   1    8 O    -4.39263320000E-01  2.80370630000E-01 -2.50299070000E-01

  75  75   1    8 O    -2.80318300000E-01  2.80378330000E-01  2.52164740000E-01

  76  76   1    8 O    -2.80318300000E-01  2.80378330000E-01 -2.47835260000E-01

  77  77   1    8 O    -2.80320580000E-01  4.39323460000E-01  2.48447690000E-01

  78  78   1    8 O    -2.80320580000E-01  4.39323460000E-01 -2.51552310000E-01

  79  79   1    8 O     2.80324510000E-01 -2.80348890000E-01  2.49700950000E-01

  80  80   1    8 O     2.80324510000E-01 -2.80348890000E-01 -2.50299050000E-01

  81  81   1    8 O     2.80343970000E-01 -4.39304390000E-01  2.52164730000E-01

  82  82   1    8 O     2.80343970000E-01 -4.39304390000E-01 -2.47835270000E-01

  83  83   1    8 O     4.39263840000E-01 -2.80364580000E-01  2.48447680000E-01

  84  84   1    8 O     4.39263840000E-01 -2.80364580000E-01 -2.51552330000E-01

 NUMBER OF SYMMETRY OPERATORS         :    1
 *******************************************************************************
 * GEOMETRY EDITING - INPUT COORDINATES ARE GIVEN IN ANGSTROM         
 *******************************************************************************

 GCALCO - MAX INDICES DIRECT LATTICE VECTOR    12    12    19
 NO.OF VECTORS CREATED 6999 STARS 3500 RMAX   266.29565 BOHR

 GEOMETRY FOR WAVE FUNCTION - DIMENSIONALITY OF THE SYSTEM    3
 (NON PERIODIC DIRECTION: LATTICE PARAMETER FORMALLY SET TO 500)
 *******************************************************************************
 LATTICE PARAMETERS (ANGSTROMS AND DEGREES) - BOHR = 0.5291772083 ANGSTROM
 PRIMITIVE CELL - CENTRING CODE 1/0 VOLUME=  1681.141313 - DENSITY  0.771 g/cm^3
         A              B              C           ALPHA      BETA       GAMMA 
    15.02361100    15.02391600     8.60000000    90.000323  89.999944 119.995964
 *******************************************************************************
 ATOMS IN THE ASYMMETRIC UNIT   84 - ATOMS IN THE UNIT CELL:   84
     ATOM                 X/A                 Y/B                 Z/C    
 *******************************************************************************
      1 T   5 B    -3.863194600000E-01  2.273182200000E-01  2.505554300000E-01
      2 T   5 B    -3.863194600000E-01  2.273182200000E-01 -2.494445700000E-01
      3 T   5 B    -2.272638000000E-01  3.863778800000E-01  2.505554400000E-01
      4 T   5 B    -2.272638000000E-01  3.863778800000E-01 -2.494445600000E-01
      5 T   5 B    -3.863237300000E-01  3.863606700000E-01  2.493876200000E-01
      6 T   5 B    -3.863237300000E-01  3.863606700000E-01 -2.506123700000E-01
      7 T   5 B     2.272552500000E-01 -3.863667800000E-01  2.505554400000E-01
      8 T   5 B     2.272552500000E-01 -3.863667800000E-01 -2.494445600000E-01
      9 T   5 B     3.863632200000E-01 -3.863875500000E-01  2.505554300000E-01
     10 T   5 B     3.863632200000E-01 -3.863875500000E-01 -2.494445700000E-01
     11 T   5 B     3.863435000000E-01 -2.272483500000E-01  2.493876300000E-01
     12 T   5 B     3.863435000000E-01 -2.272483500000E-01 -2.506123700000E-01
     13 T   1 H    -9.695638000000E-02  3.089300500000E-01  2.481343300000E-01
     14 T   1 H    -9.695638000000E-02  3.089300500000E-01 -2.518656700000E-01
     15 T   1 H     9.663453000000E-02 -3.089465600000E-01  2.477641000000E-01
     16 T   1 H     9.663453000000E-02 -3.089465600000E-01 -2.522359000000E-01
     17 T   1 H    -9.702858000000E-02 -4.059275700000E-01  2.477071200000E-01
     18 T   1 H    -9.702858000000E-02 -4.059275700000E-01 -2.522928800000E-01
     19 T   1 H     9.673618000000E-02  4.056849400000E-01  2.477213300000E-01
     20 T   1 H     9.673618000000E-02  4.056849400000E-01 -2.522786700000E-01
     21 T   1 H    -3.089676000000E-01  9.700412000000E-02  2.518656900000E-01
     22 T   1 H    -3.089676000000E-01  9.700412000000E-02 -2.481343100000E-01
     23 T   1 H     3.089297200000E-01 -9.656269000000E-02  2.522359400000E-01
     24 T   1 H     3.089297200000E-01 -9.656269000000E-02 -2.477640600000E-01
     25 T   1 H     4.058699900000E-01  9.704998000000E-02  2.522929500000E-01
     26 T   1 H     4.058699900000E-01  9.704998000000E-02 -2.477070500000E-01
     27 T   1 H    -4.056877900000E-01 -9.665268000000E-02  2.522786500000E-01
     28 T   1 H    -4.056877900000E-01 -9.665268000000E-02 -2.477213500000E-01
     29 T   1 H    -3.089272600000E-01 -4.059457900000E-01  2.481343500000E-01
     30 T   1 H    -3.089272600000E-01 -4.059457900000E-01 -2.518656500000E-01
     31 T   1 H     3.089618300000E-01  4.056093300000E-01  2.477640800000E-01
     32 T   1 H     3.089618300000E-01  4.056093300000E-01 -2.522359300000E-01
     33 T   1 H     4.058405700000E-01  3.088232500000E-01  2.477070700000E-01
     34 T   1 H     4.058405700000E-01  3.088232500000E-01 -2.522929300000E-01
     35 T   1 H    -4.057091200000E-01 -3.090420700000E-01  2.477213700000E-01
     36 T   1 H    -4.057091200000E-01 -3.090420700000E-01 -2.522786200000E-01
     37 T   6 C    -1.081096900000E-01  4.459436900000E-01  2.493448900000E-01
     38 T   6 C    -1.081096900000E-01  4.459436900000E-01 -2.506551000000E-01
     39 T   6 C    -5.351089000000E-02  3.927856300000E-01  2.481913100000E-01
     40 T   6 C    -5.351089000000E-02  3.927856300000E-01 -2.518087000000E-01
     41 T   6 C     5.338812000000E-02 -3.928147000000E-01  2.480916500000E-01
     42 T   6 C     5.338812000000E-02 -3.928147000000E-01 -2.519083500000E-01
     43 T   6 C    -5.354789000000E-02 -4.463078100000E-01  2.483907200000E-01
     44 T   6 C    -5.354789000000E-02 -4.463078100000E-01 -2.516092800000E-01
     45 T   6 C     5.342634000000E-02  4.462499700000E-01  2.476216400000E-01
     46 T   6 C     5.342634000000E-02  4.462499700000E-01 -2.523783600000E-01
     47 T   6 C     1.080358900000E-01 -4.459643700000E-01  2.484049500000E-01
     48 T   6 C     1.080358900000E-01 -4.459643700000E-01 -2.515950500000E-01
     49 T   6 C    -4.459605800000E-01  1.081684600000E-01  2.506551300000E-01
     50 T   6 C    -4.459605800000E-01  1.081684600000E-01 -2.493448700000E-01
     51 T   6 C    -3.928221500000E-01  5.355594000000E-02  2.518087100000E-01
     52 T   6 C    -3.928221500000E-01  5.355594000000E-02 -2.481913000000E-01
     53 T   6 C     3.927986700000E-01 -5.333684000000E-02  2.519084000000E-01
     54 T   6 C     3.927986700000E-01 -5.333684000000E-02 -2.480916000000E-01
     55 T   6 C     4.462875800000E-01  5.360286000000E-02  2.516093300000E-01
     56 T   6 C     4.462875800000E-01  5.360286000000E-02 -2.483906700000E-01
     57 T   6 C    -4.462831500000E-01 -5.337644000000E-02  2.523783600000E-01
     58 T   6 C    -4.462831500000E-01 -5.337644000000E-02 -2.476216400000E-01
     59 T   6 C     4.459279100000E-01 -1.080079400000E-01  2.515950800000E-01
     60 T   6 C     4.459279100000E-01 -1.080079400000E-01 -2.484049200000E-01
     61 T   6 C    -4.459551300000E-01  4.458745500000E-01  2.493449000000E-01
     62 T   6 C    -4.459551300000E-01  4.458745500000E-01 -2.506551100000E-01
     63 T   6 C    -3.927897800000E-01 -4.463742200000E-01  2.481913200000E-01
     64 T   6 C    -3.927897800000E-01 -4.463742200000E-01 -2.518086800000E-01
     65 T   6 C     3.928233700000E-01  4.461720300000E-01  2.480916200000E-01
     66 T   6 C     3.928233700000E-01  4.461720300000E-01 -2.519083800000E-01
     67 T   6 C     4.462872600000E-01  3.926899900000E-01  2.483906900000E-01
     68 T   6 C     4.462872600000E-01  3.926899900000E-01 -2.516093100000E-01
     69 T   6 C    -4.462570400000E-01 -3.929020000000E-01  2.476216700000E-01
     70 T   6 C    -4.462570400000E-01 -3.929020000000E-01 -2.523783300000E-01
     71 T   6 C     4.459599800000E-01 -4.460417700000E-01  2.484049500000E-01
     72 T   6 C     4.459599800000E-01 -4.460417700000E-01 -2.515950500000E-01
     73 T   8 O    -4.392633200000E-01  2.803706300000E-01  2.497009400000E-01
     74 T   8 O    -4.392633200000E-01  2.803706300000E-01 -2.502990700000E-01
     75 T   8 O    -2.803183000000E-01  2.803783300000E-01  2.521647400000E-01
     76 T   8 O    -2.803183000000E-01  2.803783300000E-01 -2.478352600000E-01
     77 T   8 O    -2.803205800000E-01  4.393234600000E-01  2.484476900000E-01
     78 T   8 O    -2.803205800000E-01  4.393234600000E-01 -2.515523100000E-01
     79 T   8 O     2.803245100000E-01 -2.803488900000E-01  2.497009500000E-01
     80 T   8 O     2.803245100000E-01 -2.803488900000E-01 -2.502990500000E-01
     81 T   8 O     2.803439700000E-01 -4.393043900000E-01  2.521647300000E-01
     82 T   8 O     2.803439700000E-01 -4.393043900000E-01 -2.478352700000E-01
     83 T   8 O     4.392638400000E-01 -2.803645800000E-01  2.484476800000E-01
     84 T   8 O     4.392638400000E-01 -2.803645800000E-01 -2.515523300000E-01

 T = ATOM BELONGING TO THE ASYMMETRIC UNIT

 ****    1 SYMMOPS - TRANSLATORS IN FRACTIONAL UNITS
 **** MATRICES AND TRANSLATORS IN THE CRYSTALLOGRAPHIC REFERENCE FRAME
   V INV                    ROTATION MATRICES                   TRANSLATORS
   1   1  1.00  0.00  0.00  0.00  1.00  0.00  0.00 -0.00  1.00  0.00  0.00  0.00

 DIRECT LATTICE VECTORS CARTESIAN COMPONENTS (ANGSTROM)
          X                    Y                    Z
   0.130113578931E+02  -0.751088897922E+01   0.000000000000E+00
   0.000000000000E+00   0.150239160000E+02   0.000000000000E+00
  -0.182809542969E-04  -0.484817559599E-04   0.859999999984E+01


 CARTESIAN COORDINATES - PRIMITIVE CELL
 *******************************************************************************
 *      ATOM          X(ANGSTROM)         Y(ANGSTROM)         Z(ANGSTROM)
 *******************************************************************************
    1     5 B    -5.026545335505E+00  6.316800269753E+00  2.154776697961E+00
    2     5 B    -5.026536195028E+00  6.316824510631E+00 -2.145223301961E+00
    3     5 B    -2.957015218329E+00  7.511849836805E+00  2.154776783961E+00
    4     5 B    -2.957006077851E+00  7.511874077683E+00 -2.145223215961E+00
    5     5 B    -5.026600872654E+00 -6.317643192899E+00  2.144733531961E+00
    6     5 B    -5.026591732177E+00 -6.317618952022E+00 -2.155266381961E+00
    7     5 B     2.956894810433E+00 -7.511643147972E+00  2.154776783961E+00
    8     5 B     2.956903950911E+00 -7.511618907094E+00 -2.145223215961E+00
    9     5 B     5.027105551741E+00  6.316918506914E+00  2.154776697961E+00
   10     5 B     5.027114692219E+00  6.316942747792E+00 -2.145223301961E+00
   11     5 B     5.026848989112E+00 -6.315955348631E+00  2.144733617961E+00
   12     5 B     5.026858129589E+00 -6.315931107753E+00 -2.155266381961E+00
   13     1 H    -1.261538696328E+00  5.369555697094E+00  2.133955237961E+00
   14     1 H    -1.261529555850E+00  5.369579937972E+00 -2.166044761961E+00
   15     1 H     1.257341925293E+00 -5.367410404356E+00  2.130771259961E+00
   16     1 H     1.257351065770E+00 -5.367386163478E+00 -2.169228739961E+00
   17     1 H    -1.262478108558E+00 -5.369862830849E+00  2.130281231961E+00
   18     1 H    -1.262468968080E+00 -5.369838589971E+00 -2.169718767961E+00
   19     1 H     1.258664530605E+00  5.368389742806E+00  2.130403437961E+00
   20     1 H     1.258673671082E+00  5.368413983684E+00 -2.169596561961E+00
   21     1 H    -4.020092625304E+00  3.777990881418E+00  2.166044933961E+00
   22     1 H    -4.020083484827E+00  3.778015122296E+00 -2.133955065961E+00
   23     1 H     4.019590539608E+00 -3.771098801436E+00  2.169229083961E+00
   24     1 H     4.019599680085E+00 -3.771074560558E+00 -2.130770915961E+00
   25     1 H     5.280915085785E+00 -1.590385919169E+00  2.169719369961E+00
   26     1 H     5.280924226263E+00 -1.590361678291E+00 -2.130280629961E+00
   27     1 H    -5.278553640428E+00  1.594961974507E+00  2.169596389961E+00
   28     1 H    -5.278544499951E+00  1.594986215385E+00 -2.130403609961E+00
   29     1 H    -4.019567678914E+00 -3.778589126989E+00  2.133955409961E+00
   30     1 H    -4.019558538437E+00 -3.778564886111E+00 -2.166044589961E+00
   31     1 H     4.020008416060E+00  3.773250486753E+00  2.130771087961E+00
   32     1 H     4.020017556537E+00  3.773274727632E+00 -2.169228997961E+00
   33     1 H     5.280532375470E+00  1.591499093041E+00  2.130280801961E+00
   34     1 H     5.280541515948E+00  1.591523333919E+00 -2.169719197961E+00
   35     1 H    -5.278831089380E+00 -1.595797951938E+00  2.130403781961E+00
   36     1 H    -5.278821948903E+00 -1.595773711060E+00 -2.169596131961E+00
   37     6 C    -1.406658426560E+00  7.511808329779E+00  2.144366053961E+00
   38     6 C    -1.406649286083E+00  7.511832570657E+00 -2.155633859961E+00
   39     6 C    -6.962538781400E-01  6.303080632346E+00  2.134445265961E+00
   40     6 C    -6.962447376626E-01  6.303104873224E+00 -2.165554819961E+00
   41     6 C     6.946474012053E-01 -6.302619326413E+00  2.133588189961E+00
   42     6 C     6.946565416825E-01 -6.302595085535E+00 -2.166411809961E+00
   43     6 C    -6.967353020274E-01 -6.303110833141E+00  2.136160191961E+00
   44     6 C    -6.967261615503E-01 -6.303086592263E+00 -2.163839807961E+00
   45     6 C     6.951447038962E-01  6.303130750845E+00  2.129546103961E+00
   46     6 C     6.951538443734E-01  6.303154991723E+00 -2.170453895961E+00
   47     6 C     1.405689089005E+00 -7.511588852542E+00  2.136282569961E+00
   48     6 C     1.405698229483E+00 -7.511564611664E+00 -2.163717429961E+00
   49     6 C     7.208800598267E+00 -2.536226869041E+00  2.155634117961E+00
   50     6 C     7.208809738744E+00 -2.536202628163E+00 -2.144365881961E+00
   51     6 C    -5.111154185273E+00  3.755051292960E+00  2.165554905961E+00
   52     6 C    -5.111145044796E+00  3.755075533838E+00 -2.134445179961E+00
   53     6 C     5.110839470161E+00 -3.751607618381E+00  2.166412239961E+00
   54     6 C     5.110848610638E+00 -3.751583377503E+00 -2.133587759961E+00
   55     6 C     5.806802826947E+00 -2.546703798646E+00  2.163840237961E+00
   56     6 C     5.806811967425E+00 -2.546679557768E+00 -2.136159761961E+00
   57     6 C    -5.806754400008E+00  2.550047806260E+00  2.170453895961E+00
   58     6 C    -5.806745259531E+00  2.550072047138E+00 -2.129546103961E+00
   59     6 C     5.802123032115E+00 -4.972029440408E+00  2.163717687961E+00
   60     6 C     5.802132172592E+00 -4.972005199530E+00 -2.136282311961E+00
   61     6 C     7.208871534119E+00  2.537400188985E+00  2.144366139961E+00
   62     6 C     7.208880674597E+00  2.537424429863E+00 -2.155633945961E+00
   63     6 C    -5.110732941489E+00 -3.756100388846E+00  2.134445351961E+00
   64     6 C    -5.110723801012E+00 -3.756076147968E+00 -2.165554647961E+00
   65     6 C     5.111160920475E+00  3.752786351840E+00  2.133587931961E+00
   66     6 C     5.111170060952E+00  3.752810592718E+00 -2.166412067961E+00
   67     6 C     5.806798722153E+00  2.547715318685E+00  2.136159933961E+00
   68     6 C     5.806807862630E+00  2.547739559563E+00 -2.163840065961E+00
   69     6 C    -5.806414586496E+00 -2.551151565732E+00  2.129546361961E+00
   70     6 C    -5.806405446019E+00 -2.551127324854E+00 -2.170453637961E+00
   71     6 C     5.802540364681E+00  4.973053972967E+00  2.136282569961E+00
   72     6 C     5.802549505158E+00  4.973078213845E+00 -2.163717429961E+00
   73     8 O     7.295941062473E+00  6.217379926190E-04  2.147428083961E+00
   74     8 O     7.295950202950E+00  6.459788710838E-04 -2.152572001961E+00
   75     8 O    -3.647326335085E+00  6.317807882894E+00  2.168616763961E+00
   76     8 O    -3.647317194608E+00  6.317832123772E+00 -2.131383235961E+00
   77     8 O    -3.647355933030E+00 -6.318112530341E+00  2.136650133961E+00
   78     8 O    -3.647346792553E+00 -6.318088289463E+00 -2.163349865961E+00
   79     8 O     3.647397961034E+00 -6.317436552757E+00  2.147428169961E+00
   80     8 O     3.647407101511E+00 -6.317412311879E+00 -2.152571829961E+00
   81     8 O     3.647651117018E+00  6.318199086157E+00  2.168616677961E+00
   82     8 O     3.647660257496E+00  6.318223327035E+00 -2.131383321961E+00
   83     8 O    -7.295943403199E+00 -5.589000829137E-04  2.136650047961E+00
   84     8 O    -7.295934262722E+00 -5.346592044489E-04 -2.163350037961E+00

 *******************************************************************************
 STARTING BASIS SET HANDLING 
 *******************************************************************************

 Loading internal basis set: SOLDEF2MSVP         

 Please cite in your publication:
 L. Dona', J. G. Brandenburg and B. Civalleri, J. Chem. Phys., 151, 121101 (2019
 )                                                                              
                                                                                
                    

 *******************************************************************************
 LOCAL ATOMIC FUNCTIONS BASIS SET
 *******************************************************************************
   ATOM   X(AU)   Y(AU)   Z(AU)  N. TYPE  EXPONENT  S COEF   P COEF   D/F/G COEF
 *******************************************************************************
   1 B   -9.499  11.937   4.072
                                  1 S  
                                         2.410E+03 1.755E-03 0.000E+00 0.000E+00
                                         3.619E+02 1.344E-02 0.000E+00 0.000E+00
                                         8.231E+01 6.637E-02 0.000E+00 0.000E+00
                                         2.311E+01 2.303E-01 0.000E+00 0.000E+00
                                         7.252E+00 5.150E-01 0.000E+00 0.000E+00
                                  2 S  
                                         2.367E+00 1.000E+00 0.000E+00 0.000E+00
                                  3 S  
                                         5.533E-01 1.000E+00 0.000E+00 0.000E+00
                                  4 S  
                                         1.716E-01 1.000E+00 0.000E+00 0.000E+00
                           5-     7 P  
                                         6.002E+00 0.000E+00-3.555E-02 0.000E+00
                                         1.240E+00 0.000E+00-1.983E-01 0.000E+00
                                         3.367E-01 0.000E+00-5.048E-01 0.000E+00
                           8-    10 P  
                                         1.256E-01 0.000E+00 1.000E+00 0.000E+00
                          11-    15 D  
                                         8.880E-01 0.000E+00 0.000E+00 1.000E+00
   2 B   -9.499  11.937  -4.054
   3 B   -5.588  14.195   4.072
   4 B   -5.588  14.195  -4.054
   5 B   -9.499 -11.939   4.053
   6 B   -9.499 -11.939  -4.073
   7 B    5.588 -14.195   4.072
   8 B    5.588 -14.195  -4.054
   9 B    9.500  11.937   4.072
  10 B    9.500  11.937  -4.054
  11 B    9.499 -11.935   4.053
  12 B    9.499 -11.935  -4.073
  13 H   -2.384  10.147   4.033
                                181 S  
                                         1.874E+01 1.968E-02 0.000E+00 0.000E+00
                                         2.826E+00 1.380E-01 0.000E+00 0.000E+00
                                         6.401E-01 4.783E-01 0.000E+00 0.000E+00
                                182 S  
                                         1.756E-01 1.000E+00 0.000E+00 0.000E+00
  14 H   -2.384  10.147  -4.093
  15 H    2.376 -10.143   4.027
  16 H    2.376 -10.143  -4.099
  17 H   -2.386 -10.148   4.026
  18 H   -2.386 -10.148  -4.100
  19 H    2.379  10.145   4.026
  20 H    2.379  10.145  -4.100
  21 H   -7.597   7.139   4.093
  22 H   -7.597   7.139  -4.033
  23 H    7.596  -7.126   4.099
  24 H    7.596  -7.126  -4.027
  25 H    9.979  -3.005   4.100
  26 H    9.980  -3.005  -4.026
  27 H   -9.975   3.014   4.100
  28 H   -9.975   3.014  -4.026
  29 H   -7.596  -7.140   4.033
  30 H   -7.596  -7.140  -4.093
  31 H    7.597   7.130   4.027
  32 H    7.597   7.130  -4.099
  33 H    9.979   3.007   4.026
  34 H    9.979   3.008  -4.100
  35 H   -9.976  -3.016   4.026
  36 H   -9.976  -3.016  -4.100
  37 C   -2.658  14.195   4.052
                                229 S  
                                         3.624E+03 1.634E-03 0.000E+00 0.000E+00
                                         5.440E+02 1.252E-02 0.000E+00 0.000E+00
                                         1.237E+02 6.211E-02 0.000E+00 0.000E+00
                                         3.476E+01 2.182E-01 0.000E+00 0.000E+00
                                         1.093E+01 4.980E-01 0.000E+00 0.000E+00
                                230 S  
                                         3.574E+00 1.000E+00 0.000E+00 0.000E+00
                                231 S  
                                         7.742E-01 1.000E+00 0.000E+00 0.000E+00
                                232 S  
                                         2.330E-01 1.000E+00 0.000E+00 0.000E+00
                         233-   235 P  
                                         9.443E+00 0.000E+00 3.790E-02 0.000E+00
                                         2.002E+00 0.000E+00 2.082E-01 0.000E+00
                                         5.463E-01 0.000E+00 5.047E-01 0.000E+00
                         236-   238 P  
                                         1.820E-01 0.000E+00 1.000E+00 0.000E+00
                         239-   243 D  
                                         8.880E-01 0.000E+00 0.000E+00 1.000E+00
  38 C   -2.658  14.195  -4.074
  39 C   -1.316  11.911   4.034
  40 C   -1.316  11.911  -4.092
  41 C    1.313 -11.910   4.032
  42 C    1.313 -11.910  -4.094
  43 C   -1.317 -11.911   4.037
  44 C   -1.317 -11.911  -4.089
  45 C    1.314  11.911   4.024
  46 C    1.314  11.911  -4.102
  47 C    2.656 -14.195   4.037
  48 C    2.656 -14.195  -4.089
  49 C   13.623  -4.793   4.074
  50 C   13.623  -4.793  -4.052
  51 C   -9.659   7.096   4.092
  52 C   -9.659   7.096  -4.034
  53 C    9.658  -7.090   4.094
  54 C    9.658  -7.089  -4.032
  55 C   10.973  -4.813   4.089
  56 C   10.973  -4.813  -4.037
  57 C  -10.973   4.819   4.102
  58 C  -10.973   4.819  -4.024
  59 C   10.964  -9.396   4.089
  60 C   10.964  -9.396  -4.037
  61 C   13.623   4.795   4.052
  62 C   13.623   4.795  -4.074
  63 C   -9.658  -7.098   4.034
  64 C   -9.658  -7.098  -4.092
  65 C    9.659   7.092   4.032
  66 C    9.659   7.092  -4.094
  67 C   10.973   4.814   4.037
  68 C   10.973   4.815  -4.089
  69 C  -10.973  -4.821   4.024
  70 C  -10.973  -4.821  -4.102
  71 C   10.965   9.398   4.037
  72 C   10.965   9.398  -4.089
  73 O   13.787   0.001   4.058
                                769 S  
                                         6.773E+03 1.727E-03 0.000E+00 0.000E+00
                                         1.017E+03 1.325E-02 0.000E+00 0.000E+00
                                         2.313E+02 6.603E-02 0.000E+00 0.000E+00
                                         6.501E+01 2.353E-01 0.000E+00 0.000E+00
                                         2.050E+01 5.498E-01 0.000E+00 0.000E+00
                                770 S  
                                         6.716E+00 1.000E+00 0.000E+00 0.000E+00
                                771 S  
                                         1.147E+00 1.000E+00 0.000E+00 0.000E+00
                                772 S  
                                         3.342E-01 1.000E+00 0.000E+00 0.000E+00
                         773-   775 P  
                                         1.769E+01 0.000E+00 4.359E-02 0.000E+00
                                         3.854E+00 0.000E+00 2.318E-01 0.000E+00
                                         1.047E+00 0.000E+00 5.146E-01 0.000E+00
                         776-   778 P  
                                         2.759E-01 0.000E+00 1.000E+00 0.000E+00
                         779-   783 D  
                                         8.000E-01 0.000E+00 0.000E+00 1.000E+00
  74 O   13.787   0.001  -4.068
  75 O   -6.892  11.939   4.098
  76 O   -6.892  11.939  -4.028
  77 O   -6.893 -11.940   4.038
  78 O   -6.892 -11.939  -4.088
  79 O    6.893 -11.938   4.058
  80 O    6.893 -11.938  -4.068
  81 O    6.893  11.940   4.098
  82 O    6.893  11.940  -4.028
  83 O  -13.787  -0.001   4.038
  84 O  -13.787  -0.001  -4.088

 *******************************************************************************
 FINISHED BASIS SET HANDLING 
 *******************************************************************************

 INFORMATION **** SET_MPP **** PCRYSTAL CALCULATION
 INFORMATION **** READM2 **** NEW DEFAULT: FOCK/KS MATRIX MIXING SET TO 30 %
 INFORMATION **** READM2 **** NEW DEFAULT: FULL DIRECT SCF MODE
 INFORMATION **** READM2 **** NEW DEFAULT: COULOMB BIPOLAR BUFFER SET TO 32 Mb
 INFORMATION **** READM2 **** NEW DEFAULT: EXCHANGE BIPOLAR BUFFER SET TO 32 Mb

 *******************************************************************************
 NEW DEFAULT: DFT INTEGRATION GRID INCREASED TO XLGRID
 NEW DEFAULT: DIIS ACCELERATOR ACTIVE
 USE KEYWORD NODIIS TO TURN IT OFF
 *******************************************************************************

 WARNING **** RDDFTP **** HSEsol-HJS ACTIVE
 RANGE SEPARATION - OMEGA:   0.110000000000000     
 WARNING **** RDDFTP **** HSEsol-3c has to be combined with sol-def2-mSVP basis set
 *******************************************************************************
 N. OF ATOMS PER CELL        84  COULOMB OVERLAP TOL         (T1) 10**   -6
 NUMBER OF SHELLS           468  COULOMB PENETRATION TOL     (T2) 10**   -6
 NUMBER OF AO               948  EXCHANGE OVERLAP TOL        (T3) 10**   -6
 N. OF ELECTRONS PER CELL   396  EXCHANGE PSEUDO OVP (F(G))  (T4) 10**   -6
 CORE ELECTRONS PER CELL    120  EXCHANGE PSEUDO OVP (P(G))  (T5) 10**  -12
 N. OF SYMMETRY OPERATORS     1  POLE ORDER IN MONO ZONE                  4
 *******************************************************************************
 TYPE OF CALCULATION :  RESTRICTED CLOSED SHELL
 KOHN-SHAM HAMILTONIAN

 (EXCHANGE)[CORRELATION] FUNCTIONAL:(HSEsol GGA)[PBEsol]

 RANGE-SEPARATED HYBRID FUNCTIONAL 
 OMEGA (SHORT-RANGE)[LONG-RANGE]:(    0.1100)[    0.0000]

 HYBRID EXCHANGE - PERCENTAGE OF FOCK EXCHANGE    25.0000

 CAPPA:IS1  2;IS2  2;IS3  8; K PTS MONK NET  20; SYMMOPS:K SPACE   2;G SPACE   1

 *******************************************************************************
 MAX NUMBER OF SCF CYCLES      50  CONVERGENCE ON DELTAP        10**-16
 WEIGHT OF F(I) IN F(I+1)      30% CONVERGENCE ON ENERGY        10**- 6
 SHRINK. FACT.(MONKH.)    2  2  8  NUMBER OF K POINTS IN THE IBZ     20
 SHRINKING FACTOR(GILAT NET)    8  NUMBER OF K POINTS(GILAT NET)   1028
 *******************************************************************************
 *** K POINTS COORDINATES (OBLIQUE COORDINATES IN UNITS OF IS =  2)
   1-R(  0  0  0)   2-R(  1  0  0)   3-R(  0  1  0)   4-R(  1  1  0)
   5-C(  0  0  1)   6-C(  1  0  1)   7-C(  0  1  1)   8-C(  1  1  1)
   9-C(  0  0  2)  10-C(  1  0  2)  11-C(  0  1  2)  12-C(  1  1  2)
  13-C(  0  0  3)  14-C(  1  0  3)  15-C(  0  1  3)  16-C(  1  1  3)
  17-R(  0  0  4)  18-R(  1  0  4)  19-R(  0  1  4)  20-R(  1  1  4)

 DIRECT LATTICE VECTORS COMPON. (A.U.)     RECIP. LATTICE VECTORS COMPON. (A.U.) 
        X            Y            Z              X            Y            Z
   24.5879030  -14.1935232    0.0000000      0.2555397    0.0000000    0.0000005
    0.0000000   28.3910867    0.0000000      0.1277517    0.2213084    0.0000015
   -0.0000345   -0.0000916   16.2516448      0.0000000    0.0000000    0.3866184

 DISK SPACE FOR EIGENVECTORS (FTN 10)    28758528 REALS

 SYMMETRY ADAPTION OF THE BLOCH FUNCTIONS DISABLED
 TTTTTTTTTTTTTTTTTTTTTTTTTTTTTT gordsh1     TELAPSE        0.05 TCPU        0.05

 MATRIX SIZE: P(G)  616072, F(G)  130932, P(G) IRR  309938, F(G) IRR  131892
 MAX G-VECTOR INDEX FOR 1- AND 2-ELECTRON INTEGRALS  47

 TTTTTTTTTTTTTTTTTTTTTTTTTTTTTT INPUT       TELAPSE        3.10 TCPU        3.09

 NEIGHBORS OF THE NON-EQUIVALENT ATOMS

 N = NUMBER OF NEIGHBORS AT DISTANCE R
    ATOM  N     R/ANG      R/AU   NEIGHBORS (ATOM LABELS AND CELL INDICES)
   1 B    1     1.3791     2.6061   73 O   -1 0 0
   1 B    1     1.3793     2.6065   75 O    0 0 0
   1 B    1     1.5503     2.9297   49 C   -1 0 0
   1 B    1     2.3895     4.5155    5 B    0 1 0
   1 B    1     2.3898     4.5160    3 B    0 0 0
   1 B    1     2.5632     4.8437   51 C    0 0 0

   2 B    1     1.3791     2.6061   74 O   -1 0 0
   2 B    1     1.3793     2.6065   76 O    0 0 0
   2 B    1     1.5503     2.9297   50 C   -1 0 0
   2 B    1     2.3895     4.5155    6 B    0 1 0
   2 B    1     2.3898     4.5160    4 B    0 0 0
   2 B    1     2.5632     4.8437   52 C    0 0 0

   3 B    1     1.3793     2.6065   77 O    0 1 0
   3 B    1     1.3793     2.6065   75 O    0 0 0
   3 B    1     1.5504     2.9298   37 C    0 0 0
   3 B    1     2.3895     4.5156    5 B    0 1 0
   3 B    1     2.3898     4.5160    1 B    0 0 0
   3 B    1     2.5634     4.8440   43 C    0 1 0

   4 B    1     1.3793     2.6065   78 O    0 1 0
   4 B    1     1.3793     2.6065   76 O    0 0 0
   4 B    1     1.5504     2.9298   38 C    0 0 0
   4 B    1     2.3895     4.5156    6 B    0 1 0
   4 B    1     2.3898     4.5160    2 B    0 0 0
   4 B    1     2.5634     4.8440   44 C    0 1 0

   5 B    1     1.3791     2.6061   73 O   -1-1 0
   5 B    1     1.3793     2.6064   77 O    0 0 0
   5 B    1     1.5502     2.9294   61 C   -1-1 0
   5 B    1     2.3895     4.5155    1 B    0-1 0
   5 B    1     2.3895     4.5156    3 B    0-1 0
   5 B    1     2.5629     4.8433   63 C    0 0 0

   6 B    1     1.3791     2.6061   74 O   -1-1 0
   6 B    1     1.3793     2.6064   78 O    0 0 0
   6 B    1     1.5502     2.9294   62 C   -1-1 0
   6 B    1     2.3895     4.5155    2 B    0-1 0
   6 B    1     2.3895     4.5156    4 B    0-1 0
   6 B    1     2.5629     4.8433   64 C    0 0 0

   7 B    1     1.3795     2.6068   79 O    0 0 0
   7 B    1     1.3795     2.6070   81 O    0-1 0
   7 B    1     1.5513     2.9316   47 C    0 0 0
   7 B    1     2.3905     4.5174   11 B    0 0 0
   7 B    1     2.3905     4.5175    9 B    0-1 0
   7 B    1     2.5648     4.8468   45 C    0-1 0

   8 B    1     1.3795     2.6068   80 O    0 0 0
   8 B    1     1.3795     2.6070   82 O    0-1 0
   8 B    1     1.5513     2.9316   48 C    0 0 0
   8 B    1     2.3905     4.5174   12 B    0 0 0
   8 B    1     2.3905     4.5175   10 B    0-1 0
   8 B    1     2.5648     4.8468   46 C    0-1 0

   9 B    1     1.3795     2.6069   81 O    0 0 0
   9 B    1     1.3797     2.6072   83 O    1 1 0
   9 B    1     1.5516     2.9322   71 C    0 0 0
   9 B    1     2.3905     4.5175    7 B    0 1 0
   9 B    1     2.3911     4.5185   11 B    0 1 0
   9 B    1     2.5651     4.8473   69 C    1 1 0

  10 B    1     1.3795     2.6069   82 O    0 0 0
  10 B    1     1.3797     2.6072   84 O    1 1 0
  10 B    1     1.5516     2.9322   72 C    0 0 0
  10 B    1     2.3905     4.5175    8 B    0 1 0
  10 B    1     2.3911     4.5185   12 B    0 1 0
  10 B    1     2.5651     4.8473   70 C    1 1 0

  11 B    1     1.3795     2.6068   79 O    0 0 0
  11 B    1     1.3796     2.6071   83 O    1 0 0
  11 B    1     1.5516     2.9322   59 C    0 0 0
  11 B    1     2.3905     4.5174    7 B    0 0 0
  11 B    1     2.3911     4.5185    9 B    0-1 0
  11 B    1     2.5651     4.8473   57 C    1 0 0

  12 B    1     1.3795     2.6068   80 O    0 0 0
  12 B    1     1.3796     2.6071   84 O    1 0 0
  12 B    1     1.5516     2.9322   60 C    0 0 0
  12 B    1     2.3905     4.5174    8 B    0 0 0
  12 B    1     2.3911     4.5185   10 B    0-1 0
  12 B    1     2.5651     4.8473   58 C    1 0 0

  13 H    1     1.0913     2.0623   39 C    0 0 0
  13 H    1     2.1472     4.0576   37 C    0 0 0
  13 H    1     2.1680     4.0969   45 C    0 0 0
  13 H    1     2.5202     4.7625   19 H    0 0 0
  13 H    1     2.5676     4.8520   75 O    0 0 0
  13 H    1     2.7321     5.1630    3 B    0 0 0

  14 H    1     1.0913     2.0623   40 C    0 0 0
  14 H    1     2.1472     4.0576   38 C    0 0 0
  14 H    1     2.1680     4.0969   46 C    0 0 0
  14 H    1     2.5202     4.7625   20 H    0 0 0
  14 H    1     2.5676     4.8520   76 O    0 0 0
  14 H    1     2.7321     5.1630    4 B    0 0 0

  15 H    1     1.0914     2.0625   41 C    0 0 0
  15 H    1     2.1493     4.0616   47 C    0 0 0
  15 H    1     2.1666     4.0942   43 C    0 0 0
  15 H    1     2.5198     4.7618   17 H    0 0 0
  15 H    1     2.5720     4.8604   79 O    0 0 0
  15 H    1     2.7362     5.1707    7 B    0 0 0

  16 H    1     1.0914     2.0625   42 C    0 0 0
  16 H    1     2.1493     4.0616   48 C    0 0 0
  16 H    1     2.1666     4.0942   44 C    0 0 0
  16 H    1     2.5198     4.7618   18 H    0 0 0
  16 H    1     2.5720     4.8604   80 O    0 0 0
  16 H    1     2.7362     5.1707    8 B    0 0 0

  17 H    1     1.0914     2.0624   43 C    0 0 0
  17 H    1     2.1471     4.0575   37 C    0-1 0
  17 H    1     2.1680     4.0970   41 C    0 0 0
  17 H    1     2.5198     4.7618   15 H    0 0 0
  17 H    1     2.5665     4.8500   77 O    0 0 0
  17 H    1     2.7315     5.1618    3 B    0-1 0

  18 H    1     1.0914     2.0624   44 C    0 0 0
  18 H    1     2.1471     4.0575   38 C    0-1 0
  18 H    1     2.1680     4.0970   42 C    0 0 0
  18 H    1     2.5198     4.7618   16 H    0 0 0
  18 H    1     2.5665     4.8500   78 O    0 0 0
  18 H    1     2.7315     5.1618    4 B    0-1 0

  19 H    1     1.0915     2.0626   45 C    0 0 0
  19 H    1     2.1490     4.0610   47 C    0 1 0
  19 H    1     2.1669     4.0948   39 C    0 0 0
  19 H    1     2.5202     4.7625   13 H    0 0 0
  19 H    1     2.5712     4.8588   81 O    0 0 0
  19 H    1     2.7351     5.1686    7 B    0 1 0

  20 H    1     1.0915     2.0626   46 C    0 0 0
  20 H    1     2.1490     4.0610   48 C    0 1 0
  20 H    1     2.1669     4.0948   40 C    0 0 0
  20 H    1     2.5202     4.7625   14 H    0 0 0
  20 H    1     2.5712     4.8588   82 O    0 0 0
  20 H    1     2.7351     5.1686    8 B    0 1 0

  21 H    1     1.0913     2.0623   51 C    0 0 0
  21 H    1     2.1469     4.0571   49 C   -1 0 0
  21 H    1     2.1680     4.0968   57 C    0 0 0
  21 H    1     2.5198     4.7617   27 H    0 0 0
  21 H    1     2.5670     4.8510   75 O    0 0 0
  21 H    1     2.7310     5.1609    1 B    0 0 0

  22 H    1     1.0913     2.0623   52 C    0 0 0
  22 H    1     2.1469     4.0571   50 C   -1 0 0
  22 H    1     2.1680     4.0968   58 C    0 0 0
  22 H    1     2.5198     4.7617   28 H    0 0 0
  22 H    1     2.5670     4.8510   76 O    0 0 0
  22 H    1     2.7310     5.1609    2 B    0 0 0

  23 H    1     1.0914     2.0625   53 C    0 0 0
  23 H    1     2.1493     4.0617   59 C    0 0 0
  23 H    1     2.1664     4.0939   55 C    0 0 0
  23 H    1     2.5192     4.7606   25 H    0 0 0
  23 H    1     2.5735     4.8632   79 O    0 0 0
  23 H    1     2.7371     5.1723   11 B    0 0 0

  24 H    1     1.0914     2.0625   54 C    0 0 0
  24 H    1     2.1493     4.0617   60 C    0 0 0
  24 H    1     2.1664     4.0939   56 C    0 0 0
  24 H    1     2.5192     4.7606   26 H    0 0 0
  24 H    1     2.5735     4.8632   80 O    0 0 0
  24 H    1     2.7371     5.1723   12 B    0 0 0

  25 H    1     1.0914     2.0624   55 C    0 0 0
  25 H    1     2.1475     4.0581   49 C    0 0 0
  25 H    1     2.1679     4.0967   53 C    0 0 0
  25 H    1     2.5192     4.7606   23 H    0 0 0
  25 H    1     2.5675     4.8519   73 O    0 0 0
  25 H    1     2.7328     5.1643    1 B    1 0 0

  26 H    1     1.0914     2.0624   56 C    0 0 0
  26 H    1     2.1475     4.0581   50 C    0 0 0
  26 H    1     2.1679     4.0967   54 C    0 0 0
  26 H    1     2.5192     4.7606   24 H    0 0 0
  26 H    1     2.5675     4.8519   74 O    0 0 0
  26 H    1     2.7328     5.1643    2 B    1 0 0

  27 H    1     1.0914     2.0625   57 C    0 0 0
  27 H    1     2.1491     4.0612   59 C   -1 0 0
  27 H    1     2.1666     4.0942   51 C    0 0 0
  27 H    1     2.5198     4.7617   21 H    0 0 0
  27 H    1     2.5723     4.8609   83 O    0 0 0
  27 H    1     2.7355     5.1693   11 B   -1 0 0

  28 H    1     1.0914     2.0625   58 C    0 0 0
  28 H    1     2.1491     4.0612   60 C   -1 0 0
  28 H    1     2.1666     4.0942   52 C    0 0 0
  28 H    1     2.5198     4.7617   22 H    0 0 0
  28 H    1     2.5723     4.8609   84 O    0 0 0
  28 H    1     2.7355     5.1693   12 B   -1 0 0

  29 H    1     1.0914     2.0624   63 C    0 0 0
  29 H    1     2.1475     4.0582   61 C   -1-1 0
  29 H    1     2.1678     4.0966   69 C    0 0 0
  29 H    1     2.5200     4.7621   35 H    0 0 0
  29 H    1     2.5667     4.8503   77 O    0 0 0
  29 H    1     2.7315     5.1618    5 B    0 0 0

  30 H    1     1.0914     2.0624   64 C    0 0 0
  30 H    1     2.1475     4.0582   62 C   -1-1 0
  30 H    1     2.1678     4.0966   70 C    0 0 0
  30 H    1     2.5200     4.7621   36 H    0 0 0
  30 H    1     2.5667     4.8503   78 O    0 0 0
  30 H    1     2.7315     5.1618    6 B    0 0 0

  31 H    1     1.0913     2.0623   65 C    0 0 0
  31 H    1     2.1487     4.0605   71 C    0 0 0
  31 H    1     2.1667     4.0945   67 C    0 0 0
  31 H    1     2.5197     4.7616   33 H    0 0 0
  31 H    1     2.5723     4.8610   81 O    0 0 0
  31 H    1     2.7359     5.1701    9 B    0 0 0

  32 H    1     1.0913     2.0623   66 C    0 0 0
  32 H    1     2.1487     4.0605   72 C    0 0 0
  32 H    1     2.1667     4.0945   68 C    0 0 0
  32 H    1     2.5197     4.7616   34 H    0 0 0
  32 H    1     2.5723     4.8610   82 O    0 0 0
  32 H    1     2.7359     5.1701   10 B    0 0 0

  33 H    1     1.0915     2.0626   67 C    0 0 0
  33 H    1     2.1479     4.0589   61 C    0 0 0
  33 H    1     2.1679     4.0968   65 C    0 0 0
  33 H    1     2.5197     4.7616   31 H    0 0 0
  33 H    1     2.5677     4.8522   73 O    0 0 0
  33 H    1     2.7331     5.1648    5 B    1 1 0

  34 H    1     1.0915     2.0626   68 C    0 0 0
  34 H    1     2.1479     4.0589   62 C    0 0 0
  34 H    1     2.1679     4.0968   66 C    0 0 0
  34 H    1     2.5197     4.7616   32 H    0 0 0
  34 H    1     2.5677     4.8522   74 O    0 0 0
  34 H    1     2.7331     5.1648    6 B    1 1 0

  35 H    1     1.0914     2.0624   69 C    0 0 0
  35 H    1     2.1486     4.0602   71 C   -1-1 0
  35 H    1     2.1668     4.0947   63 C    0 0 0
  35 H    1     2.5200     4.7621   29 H    0 0 0
  35 H    1     2.5717     4.8598   83 O    0 0 0
  35 H    1     2.7349     5.1682    9 B   -1-1 0

  36 H    1     1.0914     2.0624   70 C    0 0 0
  36 H    1     2.1486     4.0602   72 C   -1-1 0
  36 H    1     2.1668     4.0947   64 C    0 0 0
  36 H    1     2.5200     4.7621   30 H    0 0 0
  36 H    1     2.5717     4.8598   84 O    0 0 0
  36 H    1     2.7349     5.1682   10 B   -1-1 0

  37 C    1     1.4020     2.6495   43 C    0 1 0
  37 C    1     1.4021     2.6495   39 C    0 0 0
  37 C    1     1.5504     2.9298    3 B    0 0 0
  37 C    1     2.1471     4.0575   17 H    0 1 0
  37 C    1     2.1472     4.0576   13 H    0 0 0
  37 C    1     2.4246     4.5817   41 C    0 1 0

  38 C    1     1.4020     2.6495   44 C    0 1 0
  38 C    1     1.4021     2.6495   40 C    0 0 0
  38 C    1     1.5504     2.9298    4 B    0 0 0
  38 C    1     2.1471     4.0575   18 H    0 1 0
  38 C    1     2.1472     4.0576   14 H    0 0 0
  38 C    1     2.4246     4.5817   42 C    0 1 0

  39 C    1     1.0913     2.0623   13 H    0 0 0
  39 C    1     1.3914     2.6294   45 C    0 0 0
  39 C    1     1.4021     2.6495   37 C    0 0 0
  39 C    1     2.1669     4.0948   19 H    0 0 0
  39 C    1     2.4177     4.5688   43 C    0 1 0
  39 C    1     2.4250     4.5825   47 C    0 1 0

  40 C    1     1.0913     2.0623   14 H    0 0 0
  40 C    1     1.3914     2.6294   46 C    0 0 0
  40 C    1     1.4021     2.6495   38 C    0 0 0
  40 C    1     2.1669     4.0948   20 H    0 0 0
  40 C    1     2.4177     4.5688   44 C    0 1 0
  40 C    1     2.4250     4.5825   48 C    0 1 0

  41 C    1     1.0914     2.0625   15 H    0 0 0
  41 C    1     1.3914     2.6293   43 C    0 0 0
  41 C    1     1.4026     2.6505   47 C    0 0 0
  41 C    1     2.1680     4.0970   17 H    0 0 0
  41 C    1     2.4182     4.5697   45 C    0-1 0
  41 C    1     2.4246     4.5817   37 C    0-1 0

  42 C    1     1.0914     2.0625   16 H    0 0 0
  42 C    1     1.3914     2.6293   44 C    0 0 0
  42 C    1     1.4026     2.6505   48 C    0 0 0
  42 C    1     2.1680     4.0970   18 H    0 0 0
  42 C    1     2.4182     4.5697   46 C    0-1 0
  42 C    1     2.4246     4.5817   38 C    0-1 0

  43 C    1     1.0914     2.0624   17 H    0 0 0
  43 C    1     1.3914     2.6293   41 C    0 0 0
  43 C    1     1.4020     2.6495   37 C    0-1 0
  43 C    1     2.1666     4.0942   15 H    0 0 0
  43 C    1     2.4177     4.5688   39 C    0-1 0
  43 C    1     2.4250     4.5826   47 C    0 0 0

  44 C    1     1.0914     2.0624   18 H    0 0 0
  44 C    1     1.3914     2.6293   42 C    0 0 0
  44 C    1     1.4020     2.6495   38 C    0-1 0
  44 C    1     2.1666     4.0942   16 H    0 0 0
  44 C    1     2.4177     4.5688   40 C    0-1 0
  44 C    1     2.4250     4.5826   48 C    0 0 0

  45 C    1     1.0915     2.0626   19 H    0 0 0
  45 C    1     1.3914     2.6294   39 C    0 0 0
  45 C    1     1.4025     2.6504   47 C    0 1 0
  45 C    1     2.1680     4.0969   13 H    0 0 0
  45 C    1     2.4182     4.5697   41 C    0 1 0
  45 C    1     2.4246     4.5818   37 C    0 0 0

  46 C    1     1.0915     2.0626   20 H    0 0 0
  46 C    1     1.3914     2.6294   40 C    0 0 0
  46 C    1     1.4025     2.6504   48 C    0 1 0
  46 C    1     2.1680     4.0969   14 H    0 0 0
  46 C    1     2.4182     4.5697   42 C    0 1 0
  46 C    1     2.4246     4.5818   38 C    0 0 0

  47 C    1     1.4025     2.6504   45 C    0-1 0
  47 C    1     1.4026     2.6505   41 C    0 0 0
  47 C    1     1.5513     2.9316    7 B    0 0 0
  47 C    1     2.1490     4.0610   19 H    0-1 0
  47 C    1     2.1493     4.0616   15 H    0 0 0
  47 C    1     2.4250     4.5825   39 C    0-1 0

  48 C    1     1.4025     2.6504   46 C    0-1 0
  48 C    1     1.4026     2.6505   42 C    0 0 0
  48 C    1     1.5513     2.9316    8 B    0 0 0
  48 C    1     2.1490     4.0610   20 H    0-1 0
  48 C    1     2.1493     4.0616   16 H    0 0 0
  48 C    1     2.4250     4.5825   40 C    0-1 0

  49 C    1     1.4020     2.6494   51 C    1 0 0
  49 C    1     1.4021     2.6495   55 C    0 0 0
  49 C    1     1.5503     2.9297    1 B    1 0 0
  49 C    1     2.1469     4.0571   21 H    1 0 0
  49 C    1     2.1475     4.0581   25 H    0 0 0
  49 C    1     2.4246     4.5818   53 C    0 0 0

  50 C    1     1.4020     2.6494   52 C    1 0 0
  50 C    1     1.4021     2.6495   56 C    0 0 0
  50 C    1     1.5503     2.9297    2 B    1 0 0
  50 C    1     2.1469     4.0571   22 H    1 0 0
  50 C    1     2.1475     4.0581   26 H    0 0 0
  50 C    1     2.4246     4.5818   54 C    0 0 0

  51 C    1     1.0913     2.0623   21 H    0 0 0
  51 C    1     1.3914     2.6293   57 C    0 0 0
  51 C    1     1.4020     2.6494   49 C   -1 0 0
  51 C    1     2.1666     4.0942   27 H    0 0 0
  51 C    1     2.4175     4.5684   55 C   -1 0 0
  51 C    1     2.4251     4.5828   59 C   -1 0 0

  52 C    1     1.0913     2.0623   22 H    0 0 0
  52 C    1     1.3914     2.6293   58 C    0 0 0
  52 C    1     1.4020     2.6494   50 C   -1 0 0
  52 C    1     2.1666     4.0942   28 H    0 0 0
  52 C    1     2.4175     4.5684   56 C   -1 0 0
  52 C    1     2.4251     4.5828   60 C   -1 0 0

  53 C    1     1.0914     2.0625   23 H    0 0 0
  53 C    1     1.3915     2.6295   55 C    0 0 0
  53 C    1     1.4026     2.6505   59 C    0 0 0
  53 C    1     2.1679     4.0967   25 H    0 0 0
  53 C    1     2.4179     4.5691   57 C    1 0 0
  53 C    1     2.4246     4.5818   49 C    0 0 0

  54 C    1     1.0914     2.0625   24 H    0 0 0
  54 C    1     1.3915     2.6295   56 C    0 0 0
  54 C    1     1.4026     2.6505   60 C    0 0 0
  54 C    1     2.1679     4.0967   26 H    0 0 0
  54 C    1     2.4179     4.5691   58 C    1 0 0
  54 C    1     2.4246     4.5818   50 C    0 0 0

  55 C    1     1.0914     2.0624   25 H    0 0 0
  55 C    1     1.3915     2.6295   53 C    0 0 0
  55 C    1     1.4021     2.6495   49 C    0 0 0
  55 C    1     2.1664     4.0939   23 H    0 0 0
  55 C    1     2.4175     4.5684   51 C    1 0 0
  55 C    1     2.4253     4.5832   59 C    0 0 0

  56 C    1     1.0914     2.0624   26 H    0 0 0
  56 C    1     1.3915     2.6295   54 C    0 0 0
  56 C    1     1.4021     2.6495   50 C    0 0 0
  56 C    1     2.1664     4.0939   24 H    0 0 0
  56 C    1     2.4175     4.5684   52 C    1 0 0
  56 C    1     2.4253     4.5832   60 C    0 0 0

  57 C    1     1.0914     2.0625   27 H    0 0 0
  57 C    1     1.3914     2.6293   51 C    0 0 0
  57 C    1     1.4025     2.6504   59 C   -1 0 0
  57 C    1     2.1680     4.0968   21 H    0 0 0
  57 C    1     2.4179     4.5691   53 C   -1 0 0
  57 C    1     2.4247     4.5819   49 C   -1 0 0

  58 C    1     1.0914     2.0625   28 H    0 0 0
  58 C    1     1.3914     2.6293   52 C    0 0 0
  58 C    1     1.4025     2.6504   60 C   -1 0 0
  58 C    1     2.1680     4.0968   22 H    0 0 0
  58 C    1     2.4179     4.5691   54 C   -1 0 0
  58 C    1     2.4247     4.5819   50 C   -1 0 0

  59 C    1     1.4025     2.6504   57 C    1 0 0
  59 C    1     1.4026     2.6505   53 C    0 0 0
  59 C    1     1.5516     2.9322   11 B    0 0 0
  59 C    1     2.1491     4.0612   27 H    1 0 0
  59 C    1     2.1493     4.0617   23 H    0 0 0
  59 C    1     2.4251     4.5828   51 C    1 0 0

  60 C    1     1.4025     2.6504   58 C    1 0 0
  60 C    1     1.4026     2.6505   54 C    0 0 0
  60 C    1     1.5516     2.9322   12 B    0 0 0
  60 C    1     2.1491     4.0612   28 H    1 0 0
  60 C    1     2.1493     4.0617   24 H    0 0 0
  60 C    1     2.4251     4.5828   52 C    1 0 0

  61 C    1     1.4021     2.6496   63 C    1 1 0
  61 C    1     1.4021     2.6497   67 C    0 0 0
  61 C    1     1.5502     2.9294    5 B    1 1 0
  61 C    1     2.1475     4.0582   29 H    1 1 0
  61 C    1     2.1479     4.0589   33 H    0 0 0
  61 C    1     2.4244     4.5814   65 C    0 0 0

  62 C    1     1.4021     2.6496   64 C    1 1 0
  62 C    1     1.4021     2.6497   68 C    0 0 0
  62 C    1     1.5502     2.9294    6 B    1 1 0
  62 C    1     2.1475     4.0582   30 H    1 1 0
  62 C    1     2.1479     4.0589   34 H    0 0 0
  62 C    1     2.4244     4.5814   66 C    0 0 0

  63 C    1     1.0914     2.0624   29 H    0 0 0
  63 C    1     1.3914     2.6293   69 C    0 0 0
  63 C    1     1.4021     2.6496   61 C   -1-1 0
  63 C    1     2.1668     4.0947   35 H    0 0 0
  63 C    1     2.4179     4.5692   67 C   -1-1 0
  63 C    1     2.4251     4.5827   71 C   -1-1 0

  64 C    1     1.0914     2.0624   30 H    0 0 0
  64 C    1     1.3914     2.6293   70 C    0 0 0
  64 C    1     1.4021     2.6496   62 C   -1-1 0
  64 C    1     2.1668     4.0947   36 H    0 0 0
  64 C    1     2.4179     4.5692   68 C   -1-1 0
  64 C    1     2.4251     4.5827   72 C   -1-1 0

  65 C    1     1.0913     2.0623   31 H    0 0 0
  65 C    1     1.3914     2.6294   67 C    0 0 0
  65 C    1     1.4025     2.6504   71 C    0 0 0
  65 C    1     2.1679     4.0968   33 H    0 0 0
  65 C    1     2.4178     4.5690   69 C    1 1 0
  65 C    1     2.4244     4.5814   61 C    0 0 0

  66 C    1     1.0913     2.0623   32 H    0 0 0
  66 C    1     1.3914     2.6294   68 C    0 0 0
  66 C    1     1.4025     2.6504   72 C    0 0 0
  66 C    1     2.1679     4.0968   34 H    0 0 0
  66 C    1     2.4178     4.5690   70 C    1 1 0
  66 C    1     2.4244     4.5814   62 C    0 0 0

  67 C    1     1.0915     2.0626   33 H    0 0 0
  67 C    1     1.3914     2.6294   65 C    0 0 0
  67 C    1     1.4021     2.6497   61 C    0 0 0
  67 C    1     2.1667     4.0945   31 H    0 0 0
  67 C    1     2.4179     4.5692   63 C    1 1 0
  67 C    1     2.4253     4.5832   71 C    0 0 0

  68 C    1     1.0915     2.0626   34 H    0 0 0
  68 C    1     1.3914     2.6294   66 C    0 0 0
  68 C    1     1.4021     2.6497   62 C    0 0 0
  68 C    1     2.1667     4.0945   32 H    0 0 0
  68 C    1     2.4179     4.5692   64 C    1 1 0
  68 C    1     2.4253     4.5832   72 C    0 0 0

  69 C    1     1.0914     2.0624   35 H    0 0 0
  69 C    1     1.3914     2.6293   63 C    0 0 0
  69 C    1     1.4025     2.6503   71 C   -1-1 0
  69 C    1     2.1678     4.0966   29 H    0 0 0
  69 C    1     2.4178     4.5690   65 C   -1-1 0
  69 C    1     2.4245     4.5817   61 C   -1-1 0

  70 C    1     1.0914     2.0624   36 H    0 0 0
  70 C    1     1.3914     2.6293   64 C    0 0 0
  70 C    1     1.4025     2.6503   72 C   -1-1 0
  70 C    1     2.1678     4.0966   30 H    0 0 0
  70 C    1     2.4178     4.5690   66 C   -1-1 0
  70 C    1     2.4245     4.5817   62 C   -1-1 0

  71 C    1     1.4025     2.6503   69 C    1 1 0
  71 C    1     1.4025     2.6504   65 C    0 0 0
  71 C    1     1.5516     2.9322    9 B    0 0 0
  71 C    1     2.1486     4.0602   35 H    1 1 0
  71 C    1     2.1487     4.0605   31 H    0 0 0
  71 C    1     2.4251     4.5827   63 C    1 1 0

  72 C    1     1.4025     2.6503   70 C    1 1 0
  72 C    1     1.4025     2.6504   66 C    0 0 0
  72 C    1     1.5516     2.9322   10 B    0 0 0
  72 C    1     2.1486     4.0602   36 H    1 1 0
  72 C    1     2.1487     4.0605   32 H    0 0 0
  72 C    1     2.4251     4.5827   64 C    1 1 0

  73 O    1     1.3791     2.6061    1 B    1 0 0
  73 O    1     1.3791     2.6061    5 B    1 1 0
  73 O    1     2.3880     4.5126   75 O    1 0 0
  73 O    1     2.3882     4.5130   77 O    1 1 0
  73 O    1     2.5383     4.7966   61 C    0 0 0
  73 O    1     2.5384     4.7968   49 C    0 0 0

  74 O    1     1.3791     2.6061    2 B    1 0 0
  74 O    1     1.3791     2.6061    6 B    1 1 0
  74 O    1     2.3880     4.5126   76 O    1 0 0
  74 O    1     2.3882     4.5130   78 O    1 1 0
  74 O    1     2.5383     4.7966   62 C    0 0 0
  74 O    1     2.5384     4.7968   50 C    0 0 0

  75 O    1     1.3793     2.6065    1 B    0 0 0
  75 O    1     1.3793     2.6065    3 B    0 0 0
  75 O    1     2.3880     4.5126   73 O   -1 0 0
  75 O    1     2.3882     4.5131   77 O    0 1 0
  75 O    1     2.5391     4.7981   37 C    0 0 0
  75 O    1     2.5395     4.7990   49 C   -1 0 0

  76 O    1     1.3793     2.6065    2 B    0 0 0
  76 O    1     1.3793     2.6065    4 B    0 0 0
  76 O    1     2.3880     4.5126   74 O   -1 0 0
  76 O    1     2.3882     4.5131   78 O    0 1 0
  76 O    1     2.5391     4.7981   38 C    0 0 0
  76 O    1     2.5395     4.7990   50 C   -1 0 0

  77 O    1     1.3793     2.6064    5 B    0 0 0
  77 O    1     1.3793     2.6065    3 B    0-1 0
  77 O    1     2.3882     4.5130   73 O   -1-1 0
  77 O    1     2.3882     4.5131   75 O    0-1 0
  77 O    1     2.5390     4.7980   37 C    0-1 0
  77 O    1     2.5391     4.7982   61 C   -1-1 0

  78 O    1     1.3793     2.6064    6 B    0 0 0
  78 O    1     1.3793     2.6065    4 B    0-1 0
  78 O    1     2.3882     4.5130   74 O   -1-1 0
  78 O    1     2.3882     4.5131   76 O    0-1 0
  78 O    1     2.5390     4.7980   38 C    0-1 0
  78 O    1     2.5391     4.7982   62 C   -1-1 0

  79 O    1     1.3795     2.6068   11 B    0 0 0
  79 O    1     1.3795     2.6068    7 B    0 0 0
  79 O    1     2.3880     4.5126   83 O    1 0 0
  79 O    1     2.3884     4.5134   81 O    0-1 0
  79 O    1     2.5400     4.7998   47 C    0 0 0
  79 O    1     2.5403     4.8005   59 C    0 0 0

  80 O    1     1.3795     2.6068   12 B    0 0 0
  80 O    1     1.3795     2.6068    8 B    0 0 0
  80 O    1     2.3880     4.5126   84 O    1 0 0
  80 O    1     2.3884     4.5134   82 O    0-1 0
  80 O    1     2.5400     4.7998   48 C    0 0 0
  80 O    1     2.5403     4.8005   60 C    0 0 0

  81 O    1     1.3795     2.6069    9 B    0 0 0
  81 O    1     1.3795     2.6070    7 B    0 1 0
  81 O    1     2.3881     4.5128   83 O    1 1 0
  81 O    1     2.3884     4.5134   79 O    0 1 0
  81 O    1     2.5404     4.8006   47 C    0 1 0
  81 O    1     2.5405     4.8008   71 C    0 0 0

  82 O    1     1.3795     2.6069   10 B    0 0 0
  82 O    1     1.3795     2.6070    8 B    0 1 0
  82 O    1     2.3881     4.5128   84 O    1 1 0
  82 O    1     2.3884     4.5134   80 O    0 1 0
  82 O    1     2.5404     4.8006   48 C    0 1 0
  82 O    1     2.5405     4.8008   72 C    0 0 0

  83 O    1     1.3796     2.6071   11 B   -1 0 0
  83 O    1     1.3797     2.6072    9 B   -1-1 0
  83 O    1     2.3880     4.5126   79 O   -1 0 0
  83 O    1     2.3881     4.5128   81 O   -1-1 0
  83 O    1     2.5409     4.8016   71 C   -1-1 0
  83 O    1     2.5410     4.8019   59 C   -1 0 0

  84 O    1     1.3796     2.6071   12 B   -1 0 0
  84 O    1     1.3797     2.6072   10 B   -1-1 0
  84 O    1     2.3880     4.5126   80 O   -1 0 0
  84 O    1     2.3881     4.5128   82 O   -1-1 0
  84 O    1     2.5409     4.8016   72 C   -1-1 0
  84 O    1     2.5410     4.8019   60 C   -1 0 0


 SYMMETRY ALLOWED INTERNAL DEGREE(S) OF FREEDOM: 249
 TTTTTTTTTTTTTTTTTTTTTTTTTTTTTT SYMM        TELAPSE        3.10 TCPU        3.10
 TTTTTTTTTTTTTTTTTTTTTTTTTTTTTT INT_SCREEN  TELAPSE        3.29 TCPU        3.29

 DFT PARAMETERS

     ATOM       ELECTRONS   NET CHARGE   R(ANGSTROM)
   1   5  B       5.0000      0.0000     0.89000000
  13   1  H       1.0000      0.0000     1.11000000
  37   6  C       6.0000      0.0000     0.77000000
  73   8  O       8.0000      0.0000     0.74000000

 SIZE OF GRID=    2654052
 TTTTTTTTTTTTTTTTTTTTTTTTTTTTTT MAKE_GRID2  TELAPSE       22.31 TCPU       22.28
 BECKE WEIGHT FUNCTION
 RADSAFE =     2.00
 TOLERANCES - DENSITY:10**- 6; POTENTIAL:10**- 9; GRID WGT:10**-14

 RADIAL INTEGRATION  - INTERVALS (POINTS,UPPER LIMIT):            1( 75,  4.0*R)

 ANGULAR INTEGRATION - INTERVALS (ACCURACY LEVEL [N. POINTS] UPPER LIMIT):
  1(  4[  86]   0.2)  2(  8[ 194]   0.5)  3( 12[ 350]   0.9)  4( 16[ 974]   3.5)
  5( 12[ 350]9999.0)
 TTTTTTTTTTTTTTTTTTTTTTTTTTTTTT INT_CALC    TELAPSE       22.67 TCPU       22.64
 EEEEEEEEEE INT_CALC TERMINATION  DATE 19 02 2026 TIME 20:27:22.9

 *******************************************************************************
 cof-1_z43_L000_serr                                                             
 CRYSTAL - SCF - TYPE OF CALCULATION :  RESTRICTED CLOSED SHELL
 *******************************************************************************

 CAPPA:IS1  2;IS2  2;IS3  8; K PTS MONK NET  20; SYMMOPS:K SPACE   2;G SPACE   1

 TTTTTTTTTTTTTTTTTTTTTTTTTTTTTT SDIK        TELAPSE       24.95 TCPU       53.20

 AAAAAAAAAAAAAAAAAAAAAAAAAAAAAAAAAAAAAAAAAAAAAAAAAAAAAAAAAAAAAAAAAAAAAAAAAAAAAAA
         ATOMIC WAVEFUNCTION(S)


 NUCLEAR CHARGE  5.0  SYMMETRY SPECIES            S    P
 N. ELECTRONS    5.0  NUMBER OF PRIMITIVE GTOS    8    4
                      NUMBER OF CONTRACTED GTOS   4    2
                      NUMBER OF CLOSED SHELLS     2    0
                      OPEN SHELL OCCUPATION       0    1

  ZNUC  SCFIT    TOTAL HF ENERGY   KINETIC ENERGY   VIRIAL THEOREM ACCURACY
   5.0    11    -2.451164084E+01  2.462155050E+01 -1.995536038E+00  1.5E-06

 NUCLEAR CHARGE  1.0  SYMMETRY SPECIES            S
 N. ELECTRONS    1.0  NUMBER OF PRIMITIVE GTOS    4
                      NUMBER OF CONTRACTED GTOS   2
                      NUMBER OF CLOSED SHELLS     0
                      OPEN SHELL OCCUPATION       1

  ZNUC  SCFIT    TOTAL HF ENERGY   KINETIC ENERGY   VIRIAL THEOREM ACCURACY
   1.0     1    -4.977266687E-01  5.190767460E-01 -1.958869132E+00  0.0E+00

 NUCLEAR CHARGE  6.0  SYMMETRY SPECIES            S    P
 N. ELECTRONS    6.0  NUMBER OF PRIMITIVE GTOS    8    4
                      NUMBER OF CONTRACTED GTOS   4    2
                      NUMBER OF CLOSED SHELLS     2    0
                      OPEN SHELL OCCUPATION       0    2

  ZNUC  SCFIT    TOTAL HF ENERGY   KINETIC ENERGY   VIRIAL THEOREM ACCURACY
   6.0     9    -3.766704647E+01  3.775180683E+01 -1.997754800E+00  1.1E-06

 NUCLEAR CHARGE  8.0  SYMMETRY SPECIES            S    P
 N. ELECTRONS    8.0  NUMBER OF PRIMITIVE GTOS    8    4
                      NUMBER OF CONTRACTED GTOS   4    2
                      NUMBER OF CLOSED SHELLS     2    0
                      OPEN SHELL OCCUPATION       0    4

  ZNUC  SCFIT    TOTAL HF ENERGY   KINETIC ENERGY   VIRIAL THEOREM ACCURACY
   8.0    12    -7.477373220E+01  7.477365593E+01 -2.000001020E+00  3.8E-06

 AAAAAAAAAAAAAAAAAAAAAAAAAAAAAAAAAAAAAAAAAAAAAAAAAAAAAAAAAAAAAAAAAAAAAAAAAAAAAAA

 CHARGE NORMALIZATION FACTOR   1.00000000
 TOTAL ATOMIC CHARGES:
   5.0000000   5.0000000   5.0000000   5.0000000   5.0000000   5.0000000
   5.0000000   5.0000000   5.0000000   5.0000000   5.0000000   5.0000000
   1.0000000   1.0000000   1.0000000   1.0000000   1.0000000   1.0000000
   1.0000000   1.0000000   1.0000000   1.0000000   1.0000000   1.0000000
   1.0000000   1.0000000   1.0000000   1.0000000   1.0000000   1.0000000
   1.0000000   1.0000000   1.0000000   1.0000000   1.0000000   1.0000000
   6.0000000   6.0000000   6.0000000   6.0000000   6.0000000   6.0000000
   6.0000000   6.0000000   6.0000000   6.0000000   6.0000000   6.0000000
   6.0000000   6.0000000   6.0000000   6.0000000   6.0000000   6.0000000
   6.0000000   6.0000000   6.0000000   6.0000000   6.0000000   6.0000000
   6.0000000   6.0000000   6.0000000   6.0000000   6.0000000   6.0000000
   6.0000000   6.0000000   6.0000000   6.0000000   6.0000000   6.0000000
   8.0000000   8.0000000   8.0000000   8.0000000   8.0000000   8.0000000
   8.0000000   8.0000000   8.0000000   8.0000000   8.0000000   8.0000000
 TTTTTTTTTTTTTTTTTTTTTTTTTTTTTT MOQGAD      TELAPSE       25.07 TCPU       56.87
 TTTTTTTTTTTTTTTTTTTTTTTTTTTTTT SHELLXN     TELAPSE       43.05 TCPU      631.61
 TTTTTTTTTTTTTTTTTTTTTTTTTTTTTT MONMO3      TELAPSE       43.66 TCPU      651.01
 NUMERICALLY INTEGRATED DENSITY    395.9998286038
 TTTTTTTTTTTTTTTTTTTTTTTTTTTTTT NUMDFT      TELAPSE       45.28 TCPU      702.88
 CYC   0 ETOT(AU) -2.591910565366E+03 DETOT -2.59E+03 tst  0.00E+00 PX  1.00E+00
 TTTTTTTTTTTTTTTTTTTTTTTTTTTTTT DIIS        TELAPSE       45.39 TCPU      706.51
 TTTTTTTTTTTTTTTTTTTTTTTTTTTTTT FDIK        TELAPSE       47.41 TCPU      771.06
 INSULATING STATE
 TOP OF VALENCE BANDS -    BAND    198; K    1; EIG -3.1014240E-01 AU
 BOTTOM OF VIRTUAL BANDS - BAND    199; K    1; EIG -1.6316007E-01 AU
 DIRECT ENERGY BAND GAP:   3.9996 eV
 TTTTTTTTTTTTTTTTTTTTTTTTTTTTTT PDIG        TELAPSE       49.46 TCPU      778.40
 CHARGE NORMALIZATION FACTOR   1.00000000
 TOTAL ATOMIC CHARGES:
   4.1574195   4.1574194   4.1572488   4.1572488   4.1574962   4.1574963
   4.1571220   4.1571219   4.1569056   4.1569056   4.1570839   4.1570839
   0.7853542   0.7853542   0.7854675   0.7854676   0.7853119   0.7853119
   0.7854300   0.7854301   0.7853331   0.7853330   0.7854970   0.7854970
   0.7853224   0.7853224   0.7854602   0.7854602   0.7853138   0.7853138
   0.7854948   0.7854948   0.7853054   0.7853054   0.7854611   0.7854611
   6.0460577   6.0460577   6.2663936   6.2663936   6.2663531   6.2663531
   6.2663401   6.2663401   6.2662777   6.2662776   6.0453176   6.0453177
   6.0461094   6.0461094   6.2663731   6.2663731   6.2664466   6.2664466
   6.2662816   6.2662816   6.2664611   6.2664612   6.0448834   6.0448834
   6.0464170   6.0464170   6.2661067   6.2661068   6.2666501   6.2666500
   6.2660198   6.2660199   6.2666300   6.2666299   6.0448485   6.0448486
   8.6933943   8.6933943   8.6935045   8.6935045   8.6934483   8.6934483
   8.6938191   8.6938191   8.6938484   8.6938484   8.6939908   8.6939909
 TTTTTTTTTTTTTTTTTTTTTTTTTTTTTT MOQGAD      TELAPSE       49.58 TCPU      778.51
 TTTTTTTTTTTTTTTTTTTTTTTTTTTTTT SHELLXN     TELAPSE       68.42 TCPU     1379.29
 TTTTTTTTTTTTTTTTTTTTTTTTTTTTTT MONMO3      TELAPSE       69.03 TCPU     1398.99
 NUMERICALLY INTEGRATED DENSITY    395.9998619909
 TTTTTTTTTTTTTTTTTTTTTTTTTTTTTT NUMDFT      TELAPSE       70.79 TCPU     1454.91
 CYC   1 ETOT(AU) -2.577609973121E+03 DETOT  1.43E+01 tst  0.00E+00 PX  1.00E+00
 TTTTTTTTTTTTTTTTTTTTTTTTTTTTTT DIIS        TELAPSE       70.94 TCPU     1459.90
 DIIS TEST: 0.22799E+01 AT SCF   CYCLE   1 - MIX   30 %
 TTTTTTTTTTTTTTTTTTTTTTTTTTTTTT FDIK        TELAPSE       72.99 TCPU     1525.39
 INSULATING STATE
 TOP OF VALENCE BANDS -    BAND    198; K    1; EIG -2.1533449E-01 AU
 BOTTOM OF VIRTUAL BANDS - BAND    199; K    1; EIG -8.6080073E-02 AU
 DIRECT ENERGY BAND GAP:   3.5172 eV
 TTTTTTTTTTTTTTTTTTTTTTTTTTTTTT PDIG        TELAPSE       75.08 TCPU     1532.77
 CHARGE NORMALIZATION FACTOR   1.00000000
 TOTAL ATOMIC CHARGES:
   4.7155074   4.7155074   4.7154141   4.7154140   4.7154329   4.7154330
   4.7157760   4.7157760   4.7157717   4.7157717   4.7158367   4.7158367
   0.9176964   0.9176964   0.9177583   0.9177583   0.9176667   0.9176667
   0.9177007   0.9177008   0.9176963   0.9176963   0.9177615   0.9177616
   0.9176753   0.9176753   0.9177411   0.9177411   0.9176586   0.9176586
   0.9177760   0.9177760   0.9176349   0.9176349   0.9177596   0.9177596
   5.8619457   5.8619458   6.1247189   6.1247189   6.1252735   6.1252734
   6.1245876   6.1245876   6.1252581   6.1252580   5.8647400   5.8647400
   5.8617771   5.8617772   6.1244331   6.1244331   6.1252622   6.1252621
   6.1246823   6.1246823   6.1251217   6.1251218   5.8652122   5.8652122
   5.8618855   5.8618854   6.1246683   6.1246684   6.1250955   6.1250954
   6.1249331   6.1249331   6.1250050   6.1250050   5.8649521   5.8649522
   8.3355456   8.3355456   8.3359228   8.3359228   8.3358798   8.3358798
   8.3354187   8.3354187   8.3355978   8.3355977   8.3358192   8.3358193
 TTTTTTTTTTTTTTTTTTTTTTTTTTTTTT MOQGAD      TELAPSE       75.20 TCPU     1532.89
 TTTTTTTTTTTTTTTTTTTTTTTTTTTTTT SHELLXN     TELAPSE       94.38 TCPU     2144.62
 TTTTTTTTTTTTTTTTTTTTTTTTTTTTTT MONMO3      TELAPSE       94.99 TCPU     2164.00
 NUMERICALLY INTEGRATED DENSITY    395.9998289636
 TTTTTTTTTTTTTTTTTTTTTTTTTTTTTT NUMDFT      TELAPSE       96.60 TCPU     2215.65
 CYC   2 ETOT(AU) -2.578000924347E+03 DETOT -3.91E-01 tst  4.57E-03 PX  1.58E-01
 TTTTTTTTTTTTTTTTTTTTTTTTTTTTTT DIIS        TELAPSE       96.78 TCPU     2221.17
 DIIS TEST: 0.96676E+00 AT SCF   CYCLE   2 - DIIS ACTIVE - HISTORY:     2 CYCLES
 TTTTTTTTTTTTTTTTTTTTTTTTTTTTTT FDIK        TELAPSE       98.79 TCPU     2285.46
 INSULATING STATE
 TOP OF VALENCE BANDS -    BAND    198; K    1; EIG -2.3060172E-01 AU
 BOTTOM OF VIRTUAL BANDS - BAND    199; K    1; EIG -8.1802841E-02 AU
 DIRECT ENERGY BAND GAP:   4.0490 eV
 TTTTTTTTTTTTTTTTTTTTTTTTTTTTTT PDIG        TELAPSE      100.82 TCPU     2292.78
 CHARGE NORMALIZATION FACTOR   1.00000000
 TOTAL ATOMIC CHARGES:
   4.5026542   4.5026541   4.5024917   4.5024917   4.5026256   4.5026256
   4.5020387   4.5020387   4.5018827   4.5018827   4.5019437   4.5019437
   0.8912349   0.8912349   0.8913655   0.8913655   0.8911934   0.8911934
   0.8913154   0.8913154   0.8911826   0.8911825   0.8914067   0.8914067
   0.8912211   0.8912211   0.8913302   0.8913302   0.8911996   0.8911996
   0.8913733   0.8913733   0.8912317   0.8912317   0.8913167   0.8913168
   5.8895780   5.8895781   6.1596494   6.1596494   6.1589479   6.1589479
   6.1595750   6.1595750   6.1588591   6.1588590   5.8881487   5.8881487
   5.8897425   5.8897426   6.1596327   6.1596327   6.1589013   6.1589012
   6.1596622   6.1596622   6.1588491   6.1588491   5.8878916   5.8878916
   5.8898814   5.8898814   6.1595050   6.1595050   6.1590057   6.1590056
   6.1595512   6.1595512   6.1589481   6.1589481   5.8878442   5.8878442
   8.5076345   8.5076345   8.5078033   8.5078033   8.5077778   8.5077778
   8.5077853   8.5077853   8.5078520   8.5078520   8.5079660   8.5079660
 TTTTTTTTTTTTTTTTTTTTTTTTTTTTTT MOQGAD      TELAPSE      100.93 TCPU     2292.90
 TTTTTTTTTTTTTTTTTTTTTTTTTTTTTT SHELLXN     TELAPSE      119.80 TCPU     2894.33
 TTTTTTTTTTTTTTTTTTTTTTTTTTTTTT MONMO3      TELAPSE      120.40 TCPU     2913.67
 NUMERICALLY INTEGRATED DENSITY    395.9998306070
 TTTTTTTTTTTTTTTTTTTTTTTTTTTTTT NUMDFT      TELAPSE      122.06 TCPU     2966.61
 CYC   3 ETOT(AU) -2.578201235651E+03 DETOT -2.00E-01 tst  7.44E-04 PX  6.05E-02
 TTTTTTTTTTTTTTTTTTTTTTTTTTTTTT DIIS        TELAPSE      122.26 TCPU     2973.14
 DIIS TEST: 0.22078E-01 AT SCF   CYCLE   3 - DIIS ACTIVE - HISTORY:     3 CYCLES
 TTTTTTTTTTTTTTTTTTTTTTTTTTTTTT FDIK        TELAPSE      124.33 TCPU     3039.20
 INSULATING STATE
 TOP OF VALENCE BANDS -    BAND    198; K    1; EIG -2.4063086E-01 AU
 BOTTOM OF VIRTUAL BANDS - BAND    199; K    1; EIG -9.1050044E-02 AU
 DIRECT ENERGY BAND GAP:   4.0703 eV
 TTTTTTTTTTTTTTTTTTTTTTTTTTTTTT PDIG        TELAPSE      126.41 TCPU     3046.57
 CHARGE NORMALIZATION FACTOR   1.00000000
 TOTAL ATOMIC CHARGES:
   4.5093967   4.5093967   4.5092692   4.5092692   4.5093862   4.5093863
   4.5096494   4.5096494   4.5095133   4.5095133   4.5095995   4.5095995
   0.8746676   0.8746676   0.8747045   0.8747046   0.8746320   0.8746320
   0.8746431   0.8746431   0.8746613   0.8746613   0.8747097   0.8747097
   0.8746699   0.8746698   0.8746579   0.8746579   0.8746450   0.8746450
   0.8747022   0.8747022   0.8746498   0.8746498   0.8746654   0.8746654
   5.9391822   5.9391822   6.1603192   6.1603192   6.1615692   6.1615691
   6.1602183   6.1602184   6.1615683   6.1615682   5.9432942   5.9432942
   5.9389454   5.9389455   6.1600995   6.1600995   6.1616612   6.1616612
   6.1601500   6.1601500   6.1616283   6.1616283   5.9435773   5.9435773
   5.9391753   5.9391752   6.1601391   6.1601391   6.1616416   6.1616415
   6.1602032   6.1602032   6.1616158   6.1616158   5.9433526   5.9433526
   8.4779020   8.4779021   8.4781966   8.4781966   8.4781520   8.4781520
   8.4780436   8.4780436   8.4781564   8.4781564   8.4783862   8.4783863
 TTTTTTTTTTTTTTTTTTTTTTTTTTTTTT MOQGAD      TELAPSE      126.53 TCPU     3046.69
 TTTTTTTTTTTTTTTTTTTTTTTTTTTTTT SHELLXN     TELAPSE      145.51 TCPU     3651.96
 TTTTTTTTTTTTTTTTTTTTTTTTTTTTTT MONMO3      TELAPSE      146.11 TCPU     3671.31
 NUMERICALLY INTEGRATED DENSITY    395.9998341176
 TTTTTTTTTTTTTTTTTTTTTTTTTTTTTT NUMDFT      TELAPSE      147.86 TCPU     3727.24
 CYC   4 ETOT(AU) -2.578205675454E+03 DETOT -4.44E-03 tst  2.86E-05 PX  1.20E-02
 TTTTTTTTTTTTTTTTTTTTTTTTTTTTTT DIIS        TELAPSE      148.09 TCPU     3734.29
 DIIS TEST: 0.77919E-02 AT SCF   CYCLE   4 - DIIS ACTIVE - HISTORY:     4 CYCLES
 TTTTTTTTTTTTTTTTTTTTTTTTTTTTTT FDIK        TELAPSE      150.15 TCPU     3799.84
 INSULATING STATE
 TOP OF VALENCE BANDS -    BAND    198; K    1; EIG -2.3882984E-01 AU
 BOTTOM OF VIRTUAL BANDS - BAND    199; K    1; EIG -9.0141479E-02 AU
 DIRECT ENERGY BAND GAP:   4.0460 eV
 TTTTTTTTTTTTTTTTTTTTTTTTTTTTTT PDIG        TELAPSE      152.21 TCPU     3807.19
 CHARGE NORMALIZATION FACTOR   1.00000000
 TOTAL ATOMIC CHARGES:
   4.5112788   4.5112787   4.5111313   4.5111313   4.5112547   4.5112547
   4.5108279   4.5108279   4.5106926   4.5106926   4.5107605   4.5107605
   0.8780511   0.8780511   0.8782317   0.8782318   0.8780073   0.8780073
   0.8781818   0.8781819   0.8780108   0.8780108   0.8782675   0.8782675
   0.8780264   0.8780264   0.8782093   0.8782093   0.8780110   0.8780110
   0.8782468   0.8782468   0.8780233   0.8780233   0.8782030   0.8782030
   5.9194892   5.9194892   6.1637642   6.1637642   6.1626626   6.1626626
   6.1636898   6.1636898   6.1626006   6.1626005   5.9170884   5.9170885
   5.9196193   5.9196194   6.1636963   6.1636963   6.1626225   6.1626224
   6.1637922   6.1637922   6.1625305   6.1625305   5.9169525   5.9169525
   5.9197345   5.9197345   6.1636398   6.1636398   6.1626810   6.1626809
   6.1637552   6.1637552   6.1625909   6.1625909   5.9168726   5.9168726
   8.4880185   8.4880186   8.4882213   8.4882213   8.4881839   8.4881839
   8.4880210   8.4880210   8.4881128   8.4881127   8.4882447   8.4882448
 TTTTTTTTTTTTTTTTTTTTTTTTTTTTTT MOQGAD      TELAPSE      152.33 TCPU     3807.31
 TTTTTTTTTTTTTTTTTTTTTTTTTTTTTT SHELLXN     TELAPSE      171.14 TCPU     4407.22
 TTTTTTTTTTTTTTTTTTTTTTTTTTTTTT MONMO3      TELAPSE      171.77 TCPU     4427.21
 NUMERICALLY INTEGRATED DENSITY    395.9998336862
 TTTTTTTTTTTTTTTTTTTTTTTTTTTTTT NUMDFT      TELAPSE      173.50 TCPU     4482.64
 CYC   5 ETOT(AU) -2.578207407919E+03 DETOT -1.73E-03 tst  6.00E-06 PX  7.11E-03
 TTTTTTTTTTTTTTTTTTTTTTTTTTTTTT DIIS        TELAPSE      173.75 TCPU     4489.67
 DIIS TEST: 0.21386E-03 AT SCF   CYCLE   5 - DIIS ACTIVE - HISTORY:     5 CYCLES
 TTTTTTTTTTTTTTTTTTTTTTTTTTTTTT FDIK        TELAPSE      175.82 TCPU     4555.48
 INSULATING STATE
 TOP OF VALENCE BANDS -    BAND    198; K    1; EIG -2.3860760E-01 AU
 BOTTOM OF VIRTUAL BANDS - BAND    199; K    1; EIG -8.9540867E-02 AU
 DIRECT ENERGY BAND GAP:   4.0563 eV
 TTTTTTTTTTTTTTTTTTTTTTTTTTTTTT PDIG        TELAPSE      177.89 TCPU     4562.84
 CHARGE NORMALIZATION FACTOR   1.00000000
 TOTAL ATOMIC CHARGES:
   4.5105330   4.5105329   4.5103964   4.5103964   4.5105150   4.5105151
   4.5108294   4.5108294   4.5106949   4.5106949   4.5107722   4.5107722
   0.8791267   0.8791267   0.8791010   0.8791010   0.8790903   0.8790903
   0.8790436   0.8790437   0.8791087   0.8791087   0.8791144   0.8791144
   0.8791288   0.8791288   0.8790531   0.8790531   0.8791019   0.8791019
   0.8791015   0.8791015   0.8791176   0.8791176   0.8790556   0.8790556
   5.9160814   5.9160814   6.1614216   6.1614216   6.1634219   6.1634219
   6.1613256   6.1613256   6.1633849   6.1633848   5.9220381   5.9220381
   5.9158947   5.9158948   6.1612527   6.1612527   6.1634840   6.1634840
   6.1612478   6.1612478   6.1634885   6.1634885   5.9222207   5.9222207
   5.9161251   5.9161250   6.1612477   6.1612477   6.1634916   6.1634915
   6.1612507   6.1612507   6.1635070   6.1635070   5.9220268   5.9220269
   8.4870720   8.4870720   8.4873449   8.4873449   8.4873129   8.4873129
   8.4873597   8.4873597   8.4874495   8.4874494   8.4876663   8.4876663
 TTTTTTTTTTTTTTTTTTTTTTTTTTTTTT MOQGAD      TELAPSE      178.00 TCPU     4562.95
 TTTTTTTTTTTTTTTTTTTTTTTTTTTTTT SHELLXN     TELAPSE      197.16 TCPU     5173.97
 TTTTTTTTTTTTTTTTTTTTTTTTTTTTTT MONMO3      TELAPSE      197.76 TCPU     5193.09
 NUMERICALLY INTEGRATED DENSITY    395.9998335390
 TTTTTTTTTTTTTTTTTTTTTTTTTTTTTT NUMDFT      TELAPSE      199.36 TCPU     5244.37
 CYC   6 ETOT(AU) -2.578207412085E+03 DETOT -4.17E-06 tst  1.08E-06 PX  1.20E-03
 TTTTTTTTTTTTTTTTTTTTTTTTTTTTTT DIIS        TELAPSE      199.62 TCPU     5251.22
 DIIS TEST: 0.18262E-03 AT SCF   CYCLE   6 - DIIS ACTIVE - HISTORY:     6 CYCLES
 TTTTTTTTTTTTTTTTTTTTTTTTTTTTTT FDIK        TELAPSE      201.65 TCPU     5315.89
 INSULATING STATE
 TOP OF VALENCE BANDS -    BAND    198; K    1; EIG -2.3860345E-01 AU
 BOTTOM OF VIRTUAL BANDS - BAND    199; K    1; EIG -8.9576005E-02 AU
 DIRECT ENERGY BAND GAP:   4.0552 eV
 TTTTTTTTTTTTTTTTTTTTTTTTTTTTTT PDIG        TELAPSE      203.66 TCPU     5323.19
 CHARGE NORMALIZATION FACTOR   1.00000000
 TOTAL ATOMIC CHARGES:
   4.5109312   4.5109311   4.5107881   4.5107881   4.5109100   4.5109100
   4.5106737   4.5106737   4.5105376   4.5105375   4.5106104   4.5106104
   0.8790393   0.8790393   0.8791673   0.8791673   0.8789996   0.8789996
   0.8791130   0.8791130   0.8790109   0.8790108   0.8791912   0.8791912
   0.8790271   0.8790271   0.8791332   0.8791332   0.8790079   0.8790079
   0.8791737   0.8791737   0.8790199   0.8790199   0.8791312   0.8791312
   5.9193676   5.9193676   6.1624241   6.1624241   6.1621304   6.1621304
   6.1623354   6.1623354   6.1620868   6.1620867   5.9192169   5.9192169
   5.9193574   5.9193575   6.1623002   6.1623002   6.1621460   6.1621459
   6.1623709   6.1623709   6.1620791   6.1620791   5.9192236   5.9192236
   5.9195271   5.9195270   6.1622664   6.1622664   6.1621832   6.1621831
   6.1623546   6.1623547   6.1621180   6.1621179   5.9190892   5.9190892
   8.4871593   8.4871593   8.4873900   8.4873900   8.4873524   8.4873524
   8.4872337   8.4872337   8.4873284   8.4873284   8.4874943   8.4874943
 TTTTTTTTTTTTTTTTTTTTTTTTTTTTTT MOQGAD      TELAPSE      203.78 TCPU     5323.31
 TTTTTTTTTTTTTTTTTTTTTTTTTTTTTT SHELLXN     TELAPSE      222.60 TCPU     5923.76
 TTTTTTTTTTTTTTTTTTTTTTTTTTTTTT MONMO3      TELAPSE      223.20 TCPU     5942.82
 NUMERICALLY INTEGRATED DENSITY    395.9998335261
 TTTTTTTTTTTTTTTTTTTTTTTTTTTTTT NUMDFT      TELAPSE      224.79 TCPU     5993.69
 CYC   7 ETOT(AU) -2.578207459194E+03 DETOT -4.71E-05 tst  5.69E-07 PX  8.42E-04
 TTTTTTTTTTTTTTTTTTTTTTTTTTTTTT DIIS        TELAPSE      225.08 TCPU     6000.58
 DIIS TEST: 0.55434E-05 AT SCF   CYCLE   7 - DIIS ACTIVE - HISTORY:     7 CYCLES
 TTTTTTTTTTTTTTTTTTTTTTTTTTTTTT FDIK        TELAPSE      227.09 TCPU     6064.58
 INSULATING STATE
 TOP OF VALENCE BANDS -    BAND    198; K    1; EIG -2.3860960E-01 AU
 BOTTOM OF VIRTUAL BANDS - BAND    199; K    1; EIG -8.9640032E-02 AU
 DIRECT ENERGY BAND GAP:   4.0537 eV
 TTTTTTTTTTTTTTTTTTTTTTTTTTTTTT PDIG        TELAPSE      229.14 TCPU     6071.92
 CHARGE NORMALIZATION FACTOR   1.00000000
 TOTAL ATOMIC CHARGES:
   4.5110465   4.5110465   4.5109022   4.5109022   4.5110243   4.5110244
   4.5108688   4.5108688   4.5107330   4.5107330   4.5108042   4.5108042
   0.8789900   0.8789901   0.8790922   0.8790922   0.8789488   0.8789488
   0.8790394   0.8790395   0.8789574   0.8789573   0.8791203   0.8791203
   0.8789751   0.8789751   0.8790607   0.8790607   0.8789553   0.8789553
   0.8791020   0.8791021   0.8789692   0.8789693   0.8790574   0.8790574
   5.9188714   5.9188714   6.1622342   6.1622342   6.1622824   6.1622824
   6.1621531   6.1621531   6.1622304   6.1622303   5.9195814   5.9195814
   5.9188930   5.9188930   6.1621319   6.1621319   6.1622766   6.1622765
   6.1621946   6.1621946   6.1622168   6.1622168   5.9195569   5.9195569
   5.9190475   5.9190475   6.1620942   6.1620942   6.1623173   6.1623172
   6.1621722   6.1621723   6.1622624   6.1622623   5.9194369   5.9194370
   8.4872203   8.4872204   8.4874486   8.4874486   8.4874122   8.4874122
   8.4873240   8.4873240   8.4874165   8.4874165   8.4875783   8.4875784
 TTTTTTTTTTTTTTTTTTTTTTTTTTTTTT MOQGAD      TELAPSE      229.26 TCPU     6072.04
 TTTTTTTTTTTTTTTTTTTTTTTTTTTTTT SHELLXN     TELAPSE      247.71 TCPU     6660.71
 TTTTTTTTTTTTTTTTTTTTTTTTTTTTTT MONMO3      TELAPSE      248.31 TCPU     6679.78
 NUMERICALLY INTEGRATED DENSITY    395.9998335197
 TTTTTTTTTTTTTTTTTTTTTTTTTTTTTT NUMDFT      TELAPSE      249.90 TCPU     6730.78
 CYC   8 ETOT(AU) -2.578207460226E+03 DETOT -1.03E-06 tst  1.02E-08 PX  1.34E-04
 TTTTTTTTTTTTTTTTTTTTTTTTTTTTTT DIIS        TELAPSE      250.21 TCPU     6737.64
 DIIS TEST: 0.98666E-07 AT SCF   CYCLE   8 - DIIS ACTIVE - HISTORY:     8 CYCLES
 TTTTTTTTTTTTTTTTTTTTTTTTTTTTTT FDIK        TELAPSE      252.22 TCPU     6801.33
 INSULATING STATE
 TOP OF VALENCE BANDS -    BAND    198; K    1; EIG -2.3862205E-01 AU
 BOTTOM OF VIRTUAL BANDS - BAND    199; K    1; EIG -8.9629780E-02 AU
 DIRECT ENERGY BAND GAP:   4.0543 eV
 TTTTTTTTTTTTTTTTTTTTTTTTTTTTTT PDIG        TELAPSE      254.27 TCPU     6808.68
 CHARGE NORMALIZATION FACTOR   1.00000000
 TOTAL ATOMIC CHARGES:
   4.5110211   4.5110211   4.5108801   4.5108801   4.5110008   4.5110008
   4.5108397   4.5108397   4.5107046   4.5107046   4.5107780   4.5107780
   0.8789697   0.8789697   0.8790793   0.8790793   0.8789305   0.8789305
   0.8790245   0.8790245   0.8789431   0.8789431   0.8791013   0.8791013
   0.8789599   0.8789599   0.8790427   0.8790427   0.8789394   0.8789394
   0.8790847   0.8790847   0.8789519   0.8789520   0.8790415   0.8790415
   5.9188561   5.9188561   6.1623326   6.1623326   6.1623289   6.1623288
   6.1622427   6.1622427   6.1622861   6.1622860   5.9194705   5.9194706
   5.9188130   5.9188130   6.1622006   6.1622006   6.1623526   6.1623525
   6.1622559   6.1622560   6.1623007   6.1623007   5.9195103   5.9195103
   5.9189929   5.9189929   6.1621726   6.1621727   6.1623837   6.1623836
   6.1622437   6.1622438   6.1623355   6.1623355   5.9193655   5.9193656
   8.4871918   8.4871918   8.4874303   8.4874303   8.4873943   8.4873943
   8.4872951   8.4872951   8.4873881   8.4873881   8.4875635   8.4875635
 TTTTTTTTTTTTTTTTTTTTTTTTTTTTTT MOQGAD      TELAPSE      254.38 TCPU     6808.80
 TTTTTTTTTTTTTTTTTTTTTTTTTTTTTT SHELLXN     TELAPSE      272.84 TCPU     7397.56
 TTTTTTTTTTTTTTTTTTTTTTTTTTTTTT MONMO3      TELAPSE      273.44 TCPU     7416.61
 NUMERICALLY INTEGRATED DENSITY    395.9998335193
 TTTTTTTTTTTTTTTTTTTTTTTTTTTTTT NUMDFT      TELAPSE      275.03 TCPU     7467.51
 CYC   9 ETOT(AU) -2.578207460394E+03 DETOT -1.67E-07 tst  3.21E-10 PX  2.72E-05
 TTTTTTTTTTTTTTTTTTTTTTTTTTTTTT DIIS        TELAPSE      275.36 TCPU     7474.45
 DIIS TEST: 0.40344E-07 AT SCF   CYCLE   9 - DIIS ACTIVE - HISTORY:     9 CYCLES
 TTTTTTTTTTTTTTTTTTTTTTTTTTTTTT FDIK        TELAPSE      277.37 TCPU     7538.36
 INSULATING STATE
 TOP OF VALENCE BANDS -    BAND    198; K    1; EIG -2.3861605E-01 AU
 BOTTOM OF VIRTUAL BANDS - BAND    199; K    1; EIG -8.9630095E-02 AU
 DIRECT ENERGY BAND GAP:   4.0541 eV
 TTTTTTTTTTTTTTTTTTTTTTTTTTTTTT PDIG        TELAPSE      279.36 TCPU     7545.65
 CHARGE NORMALIZATION FACTOR   1.00000000
 TOTAL ATOMIC CHARGES:
   4.5110142   4.5110141   4.5108706   4.5108706   4.5109925   4.5109925
   4.5108326   4.5108326   4.5106967   4.5106967   4.5107687   4.5107687
   0.8789803   0.8789803   0.8790850   0.8790850   0.8789398   0.8789398
   0.8790315   0.8790316   0.8789497   0.8789496   0.8791111   0.8791111
   0.8789666   0.8789666   0.8790523   0.8790523   0.8789471   0.8789471
   0.8790933   0.8790933   0.8789602   0.8789602   0.8790496   0.8790496
   5.9188712   5.9188712   6.1622857   6.1622857   6.1623129   6.1623128
   6.1622011   6.1622011   6.1622646   6.1622645   5.9195425   5.9195425
   5.9188770   5.9188770   6.1621732   6.1621732   6.1623173   6.1623172
   6.1622388   6.1622388   6.1622547   6.1622547   5.9195335   5.9195335
   5.9190390   5.9190389   6.1621375   6.1621375   6.1623561   6.1623560
   6.1622193   6.1622193   6.1622971   6.1622971   5.9194064   5.9194065
   8.4872087   8.4872088   8.4874385   8.4874385   8.4874015   8.4874015
   8.4873102   8.4873102   8.4874038   8.4874037   8.4875678   8.4875679
 TTTTTTTTTTTTTTTTTTTTTTTTTTTTTT MOQGAD      TELAPSE      279.48 TCPU     7545.77
 TTTTTTTTTTTTTTTTTTTTTTTTTTTTTT SHELLXN     TELAPSE      297.94 TCPU     8134.54
 +++ ENERGIES IN A.U. +++
 ::: EXT EL-POLE                                  -2.2763282651803E+03
 ::: EXT EL-SPHEROPOLE                             2.6581503241204E+01
 ::: BIELET ZONE E-E                               4.1103306265055E+03
 ::: TOTAL E-E                                     1.8605838645664E+03
 ::: TOTAL E-N + N-E                              -7.3837104696358E+03
 ::: TOTAL N-N                                     6.5247197115316E+02
 ::: KINETIC ENERGY                                2.5598781859869E+03
 ::: PSEUDO TOTAL   ENERGY                        -2.3107764479293E+03
 ::: VIRIAL COEFFICIENT                            1.0511433794388E+00
 TTTTTTTTTTTTTTTTTTTTTTTTTTTTTT MONMO3      TELAPSE      298.54 TCPU     8153.61
 NUMERICALLY INTEGRATED DENSITY    395.9998335185
 EXCHANGE ENERGY: -0.252052564869E+03  CORRELATION ENERGY: -0.153784475595E+02
 TTTTTTTTTTTTTTTTTTTTTTTTTTTTTT NUMDFT      TELAPSE      300.13 TCPU     8204.53
 CYC  10 ETOT(AU) -2.578207460358E+03 DETOT  3.54E-08 tst  4.39E-11 PX  2.72E-05

 == SCF ENDED - CONVERGENCE ON ENERGY      E(AU) -2.5782074603582E+03 CYCLES  10


 ENERGY EXPRESSION=HARTREE+FOCK EXCH*0.00000+(HSESOL     EXCH)*1.00000+PBESOL     CORR


 TOTAL ENERGY(DFT)(AU)( 10) -2.5782074603582E+03 DE 3.5E-08 tester 4.4E-11
 TTTTTTTTTTTTTTTTTTTTTTTTTTTTTT EDFT        TELAPSE      300.13 TCPU     8204.54
 
 INFORMATION **** DFTD3 ENERGY **** CALCULATE DFTD3 ENERGY

           DFT-D V3(BJ)
 DF                                         hsesol3c  
 parameters
 s6       :    1.0000
 s8       :    0.0000
 a1       :    0.5196
 a2       :    4.9385
 k1 k3    :   16.0000   -4.0000
 Cutoff   :   50.2022
 CN-Cutoff:   21.1671
 ABC-Cutoff:   21.1671
 
 Edisp /kcal,au:   -48.1547 -0.07673936

 E6    /kcal :   -51.2314
 E8    /kcal :     0.0000
 E6(ABC) "   :   3.076732
 
 INFORMATION **** DFTD3 ENERGY **** NORMAL TERMINATION OF DFTD3 MODULE

 GCP ENERGY CALCULATION
  level        hsesol3c            basis:hsesol3c
  Nbf            948
  Atoms           84

  Parameters: 
  sigma     1.0000
  eta       1.4281
  alpha     0.2936
  beta      1.9467

  dmp_scal      4.0000
  dmp_exp       6.0000
 cutoffs: 
   distance [bohr] 60.0
   noise    [a.u.] 2.2E-16
 SR-damping   T
 ** gCP correction **
  Egcp:        0.1658652885 / (a.u.) ||     104.0821 / (kcal/mol)
 INFORMATION **** GCP **** NORMAL TERMINATION OF GCP MODULE

 *******************************************************************************

 DFT-D3-GCP DISPERSION AND COUNTERPOISE CORRECTION

 D3 DISPERSION ENERGY (AU)      -7.6739362190308E-02
 GCP ENERGY (AU)                 1.6586528850658E-01
 TOTAL ENERGY + DISP + GCP (AU) -2.5781183344319E+03

 *******************************************************************************

 EIGENVECTORS IN FORTRAN UNIT  8
 TTTTTTTTTTTTTTTTTTTTTTTTTTTTTT END         TELAPSE      302.83 TCPU     8213.15
 EEEEEEEEEE TERMINATION  DATE 19 02 2026 TIME 20:32:03.1
