 Default number of threads is:           32

         
 *******************************************************************************
 *                                                                             *
 *                               CRYSTAL23                                     *
 *                      public : 1.0.1 - October 2022                          *
 *                       HTTP://WWW.CRYSTAL.UNITO.IT                           *
 *                                                                             *
 *                              MAIN AUTHORS                                   *
 *                                                                             *
 *  R. DOVESI(1,11), V.R. SAUNDERS(2), C. ROETTI(1,11), R. ORLANDO(1,11),      *
 *  C.M. ZICOVICH-WILSON(1,3), F. PASCALE(4), B. CIVALLERI(1,11),              *
 *  K. DOLL(5), N.M. HARRISON(6), I.J. BUSH(7), Ph. D'ARCO(8),                 *
 *  M. LLUNELL(9), M. CAUSA'(10), Y. NOEL(8), L. MASCHIO(1,11), A. ERBA(1,11)  *
 *  M. RE'RAT(14), S. CASASSA(1,11), B.G. SEARLE(2), J.K. DESMARAIS(1)         *
 *                                                                             *
 *        CONTRIBUTIONS TO THE CODE HAVE ALSO BEEN GIVEN BY                    *
 *                                                                             *
 *  M. FERRABONE(1,11), M. DE LA PIERRE(1,11), M. FERRERO(1,11),               *
 *  J. BAIMA(1,11), E. ALBANESE(1,11), M.F. PEINTINGER(12), R. BAST(13),       *
 *  B. KIRTMAN(15), V. LACIVITA(1,11), R. DEMICHELIS(1,16)                     *
 *  G. BRANDEBURG(17), S. SALUSTRO(1,11), G. SANSONE(1,11)                     *
 *  M.T. RUGGIERO(18), L.E. DAGA(1), L. DONA'(1), A. COSSARD(1)                *
 *                                                                             *
 * (1) THEORETICAL CHEMISTRY GROUP - UNIVERSITA' DI TORINO - TORINO (ITALY)    *
 * (2) SCIENTIFIC COMPUTING DEPARTMENT - STFC DARESBURY (UK)                   *
 * (3) UNIVERSIDAD AUTONOMA DEL ESTADO DE MORELOS - CUERNAVACA (MEXICO)        *
 * (4) UNIVERSITE' DE LORRAINE - NANCY (FRANCE)                                *
 * (5) UNIVERSITAET STUTTGART- STUTTGART (GERMANY)                             *
 * (6) IMPERIAL COLLEGE - LONDON (UK)                                          *
 * (7) SCIENTIFIC COMPUTING DEPARTMENT - STFC RAL (UK)                         *
 * (8) UPMC - SORBONNE UNIVERSITES - PARIS (FRANCE)                            *
 * (9) UNIVERSIDAD DE BARCELONA - BARCELONA (SPAIN)                            *
 *(10) UNIVERSITA' DI NAPOLI "FEDERICO II" - NAPOLI (ITALY)                    *
 *(11) NIS - NANOSTRUCTURED INTERFACES AND SURFACES - TORINO (ITALY)           *
 *(12) MPI FUER CHEMISCHE ENERGIEKONVERSION - MUELHEIM AN DER RUHR (GERMANY)   *
 *(13) UNIVERSITY OF TROMSO - TROMSO (NORWAY)                                  *
 *(14) UNIVERSITE' DE PAU ET DES PAYS DE L'ADOUR - PAU (FRANCE)                *
 *(15) UNIVERSITY OF CALIFORNIA SANTA BARBARA - SANTA BARBARA (USA)            *
 *(16) CURTIN UNIVERSITY - PERTH (AUSTRALIA)                                   *
 *(17) UNIVERSITY COLLEGE LONDON - LONDON (UK)                                 *
 *(18) UNIVERSITY OF VERMONT - BURLINGTON (USA)                                *
 *                                                                             *
 *******************************************************************************
 EEEEEEEEEE STARTING  DATE 19 02 2026 TIME 19:35:07.5
 cof-1_z31_L010_serr                                                             

 CRYSTAL CALCULATION
 (INPUT ACCORDING TO THE INTERNATIONAL TABLES FOR X-RAY CRYSTALLOGRAPHY)
 CRYSTAL FAMILY                       :  TRICLINIC   
 CRYSTAL CLASS  (GROTH - 1921)        :  TRICLINIC PEDIAL                     

 SPACE GROUP (NONCENTROSYMMETRIC)     :  P 1             

 LATTICE PARAMETERS  (ANGSTROMS AND DEGREES) - CONVENTIONAL CELL
        A           B           C        ALPHA        BETA       GAMMA
    15.02361    15.02392     6.20000    90.00032    89.99994   119.99596


 NUMBER OF IRREDUCIBLE ATOMS IN THE CONVENTIONAL CELL:   84

 INPUT COORDINATES

 ATOM AT. N.              COORDINATES
   1   5     6.136805400000E-01  2.273182200000E-01  2.507704400000E-01
   2   5     6.521038200000E-01  3.041725900000E-01  7.507704400000E-01
   3   5     7.727362000000E-01  3.863778800000E-01  2.507704500000E-01
   4   5     8.111594800000E-01  4.632322500000E-01  7.507704500000E-01
   5   5     6.136762700000E-01  3.863606700000E-01  2.491505800000E-01
   6   5     6.520995500000E-01  4.632150400000E-01  7.491505800000E-01
   7   5     2.272552500000E-01  6.136332200000E-01  2.507704500000E-01
   8   5     2.656785300000E-01  6.904875900000E-01  7.507704500000E-01
   9   5     3.863632200000E-01  6.136124500000E-01  2.507704400000E-01
  10   5     4.247865000000E-01  6.904668200000E-01  7.507704400000E-01
  11   5     3.863435000000E-01  7.727516500000E-01  2.491505800000E-01
  12   5     4.247667800000E-01  8.496060200000E-01  7.491505800000E-01
  13   1     9.030436200000E-01  3.089300500000E-01  2.474121300000E-01
  14   1     9.414669000000E-01  3.857844200000E-01  7.474121300000E-01
  15   1     9.663453000000E-02  6.910534400000E-01  2.468985900000E-01
  16   1     1.350578100000E-01  7.679078100000E-01  7.468985900000E-01
  17   1     9.029714200000E-01  5.940724300000E-01  2.468195500000E-01
  18   1     9.413947000000E-01  6.709268000000E-01  7.468195500000E-01
  19   1     9.673618000000E-02  4.056849400000E-01  2.468392700000E-01
  20   1     1.351594600000E-01  4.825393100000E-01  7.468392700000E-01
  21   1     6.910324000000E-01  9.700412000000E-02  2.525878900000E-01
  22   1     7.294556800000E-01  1.738584900000E-01  7.525878900000E-01
  23   1     3.089297200000E-01  9.034373100000E-01  2.531014700000E-01
  24   1     3.473530000000E-01  9.802916800000E-01  7.531014700000E-01
  25   1     4.058699900000E-01  9.704998000000E-02  2.531805500000E-01
  26   1     4.442932700000E-01  1.739043500000E-01  7.531805600000E-01
  27   1     5.943122100000E-01  9.033473200000E-01  2.531607000000E-01
  28   1     6.327354900000E-01  9.802016900000E-01  7.531607000000E-01
  29   1     6.910727400000E-01  5.940542100000E-01  2.474121600000E-01
  30   1     7.294960200000E-01  6.709085800000E-01  7.474121600000E-01
  31   1     3.089618300000E-01  4.056093300000E-01  2.468985500000E-01
  32   1     3.473851100000E-01  4.824637000000E-01  7.468985500000E-01
  33   1     4.058405700000E-01  3.088232500000E-01  2.468194900000E-01
  34   1     4.442638500000E-01  3.856776200000E-01  7.468194900000E-01
  35   1     5.942908800000E-01  6.909579300000E-01  2.468393300000E-01
  36   1     6.327141600000E-01  7.678123000000E-01  7.468393300000E-01
  37   6     8.918903100000E-01  4.459436900000E-01  2.490913100000E-01
  38   6     9.303135900000E-01  5.227980600000E-01  7.490913000000E-01
  39   6     9.464891100000E-01  3.927856300000E-01  2.474911700000E-01
  40   6     9.849123900000E-01  4.696400000000E-01  7.474911700000E-01
  41   6     5.338812000000E-02  6.071853000000E-01  2.473529300000E-01
  42   6     9.181140000000E-02  6.840396700000E-01  7.473529300000E-01
  43   6     9.464521100000E-01  5.536921900000E-01  2.477677700000E-01
  44   6     9.848753900000E-01  6.305465600000E-01  7.477677700000E-01
  45   6     5.342634000000E-02  4.462499700000E-01  2.467009900000E-01
  46   6     9.184962000000E-02  5.231043400000E-01  7.467009900000E-01
  47   6     1.080358900000E-01  5.540356300000E-01  2.477875100000E-01
  48   6     1.464591700000E-01  6.308900000000E-01  7.477875100000E-01
  49   6     5.540394200000E-01  1.081684600000E-01  2.509087300000E-01
  50   6     5.924627000000E-01  1.850228300000E-01  7.509087300000E-01
  51   6     6.071778500000E-01  5.355594000000E-02  2.525088500000E-01
  52   6     6.456011300000E-01  1.304103100000E-01  7.525088500000E-01
  53   6     3.927986700000E-01  9.466631600000E-01  2.526471400000E-01
  54   6     4.312219500000E-01  2.351753000000E-02  7.526471400000E-01
  55   6     4.462875800000E-01  5.360286000000E-02  2.522323000000E-01
  56   6     4.847108600000E-01  1.304572300000E-01  7.522323000000E-01
  57   6     5.537168500000E-01  9.466235600000E-01  2.532990200000E-01
  58   6     5.921401300000E-01  2.347793000000E-02  7.532990100000E-01
  59   6     4.459279100000E-01  8.919920600000E-01  2.522125300000E-01
  60   6     4.843511900000E-01  9.688464300000E-01  7.522125300000E-01
  61   6     5.540448700000E-01  4.458745500000E-01  2.490913100000E-01
  62   6     5.924681500000E-01  5.227289200000E-01  7.490913000000E-01
  63   6     6.072102200000E-01  5.536257800000E-01  2.474911900000E-01
  64   6     6.456335000000E-01  6.304801500000E-01  7.474912000000E-01
  65   6     3.928233700000E-01  4.461720300000E-01  2.473529000000E-01
  66   6     4.312466500000E-01  5.230264000000E-01  7.473529000000E-01
  67   6     4.462872600000E-01  3.926899900000E-01  2.477677300000E-01
  68   6     4.847105400000E-01  4.695443600000E-01  7.477677300000E-01
  69   6     5.537429600000E-01  6.070980000000E-01  2.467010200000E-01
  70   6     5.921662400000E-01  6.839523700000E-01  7.467010300000E-01
  71   6     4.459599800000E-01  5.539582300000E-01  2.477875100000E-01
  72   6     4.843832600000E-01  6.308126000000E-01  7.477875100000E-01
  73   8     5.607366800000E-01  2.803706300000E-01  2.495851700000E-01
  74   8     5.991599600000E-01  3.572250000000E-01  7.495851700000E-01
  75   8     7.196817000000E-01  2.803783300000E-01  2.530027000000E-01
  76   8     7.581049800000E-01  3.572327000000E-01  7.530027000000E-01
  77   8     7.196794200000E-01  4.393234600000E-01  2.478467900000E-01
  78   8     7.581027000000E-01  5.161778300000E-01  7.478467900000E-01
  79   8     2.803245100000E-01  7.196511100000E-01  2.495851900000E-01
  80   8     3.187477900000E-01  7.965054800000E-01  7.495851900000E-01
  81   8     2.803439700000E-01  5.606956100000E-01  2.530027000000E-01
  82   8     3.187672500000E-01  6.375499800000E-01  7.530027000000E-01
  83   8     4.392638400000E-01  7.196354200000E-01  2.478467700000E-01
  84   8     4.776871200000E-01  7.964897900000E-01  7.478467800000E-01

 *******************************************************************************

 << INFORMATION >>: FROM NOW ON, ALL COORDINATES REFER TO THE PRIMITIVE CELL

 *******************************************************************************

 LATTICE PARAMETERS  (ANGSTROMS AND DEGREES) - PRIMITIVE CELL
       A          B          C        ALPHA      BETA     GAMMA        VOLUME
   15.02361   15.02392    6.20000    90.00032  89.99994 119.99596   1211.985598

 COORDINATES OF THE EQUIVALENT ATOMS (FRACTIONAL UNITS)

 N. ATOM EQUIV AT. N.          X                  Y                  Z

   1   1   1    5 B    -3.86319460000E-01  2.27318220000E-01  2.50770440000E-01

   2   2   1    5 B    -3.47896180000E-01  3.04172590000E-01 -2.49229560000E-01

   3   3   1    5 B    -2.27263800000E-01  3.86377880000E-01  2.50770450000E-01

   4   4   1    5 B    -1.88840520000E-01  4.63232250000E-01 -2.49229550000E-01

   5   5   1    5 B    -3.86323730000E-01  3.86360670000E-01  2.49150580000E-01

   6   6   1    5 B    -3.47900450000E-01  4.63215040000E-01 -2.50849420000E-01

   7   7   1    5 B     2.27255250000E-01 -3.86366780000E-01  2.50770450000E-01

   8   8   1    5 B     2.65678530000E-01 -3.09512410000E-01 -2.49229550000E-01

   9   9   1    5 B     3.86363220000E-01 -3.86387550000E-01  2.50770440000E-01

  10  10   1    5 B     4.24786500000E-01 -3.09533180000E-01 -2.49229560000E-01

  11  11   1    5 B     3.86343500000E-01 -2.27248350000E-01  2.49150580000E-01

  12  12   1    5 B     4.24766780000E-01 -1.50393980000E-01 -2.50849420000E-01

  13  13   1    1 H    -9.69563800000E-02  3.08930050000E-01  2.47412130000E-01

  14  14   1    1 H    -5.85331000000E-02  3.85784420000E-01 -2.52587870000E-01

  15  15   1    1 H     9.66345300000E-02 -3.08946560000E-01  2.46898590000E-01

  16  16   1    1 H     1.35057810000E-01 -2.32092190000E-01 -2.53101410000E-01

  17  17   1    1 H    -9.70285800000E-02 -4.05927570000E-01  2.46819550000E-01

  18  18   1    1 H    -5.86053000000E-02 -3.29073200000E-01 -2.53180450000E-01

  19  19   1    1 H     9.67361800000E-02  4.05684940000E-01  2.46839270000E-01

  20  20   1    1 H     1.35159460000E-01  4.82539310000E-01 -2.53160730000E-01

  21  21   1    1 H    -3.08967600000E-01  9.70041200000E-02  2.52587890000E-01

  22  22   1    1 H    -2.70544320000E-01  1.73858490000E-01 -2.47412110000E-01

  23  23   1    1 H     3.08929720000E-01 -9.65626900000E-02  2.53101470000E-01

  24  24   1    1 H     3.47353000000E-01 -1.97083200000E-02 -2.46898530000E-01

  25  25   1    1 H     4.05869990000E-01  9.70499800000E-02  2.53180550000E-01

  26  26   1    1 H     4.44293270000E-01  1.73904350000E-01 -2.46819440000E-01

  27  27   1    1 H    -4.05687790000E-01 -9.66526800000E-02  2.53160700000E-01

  28  28   1    1 H    -3.67264510000E-01 -1.97983100000E-02 -2.46839300000E-01

  29  29   1    1 H    -3.08927260000E-01 -4.05945790000E-01  2.47412160000E-01

  30  30   1    1 H    -2.70503980000E-01 -3.29091420000E-01 -2.52587840000E-01

  31  31   1    1 H     3.08961830000E-01  4.05609330000E-01  2.46898550000E-01

  32  32   1    1 H     3.47385110000E-01  4.82463700000E-01 -2.53101450000E-01

  33  33   1    1 H     4.05840570000E-01  3.08823250000E-01  2.46819490000E-01

  34  34   1    1 H     4.44263850000E-01  3.85677620000E-01 -2.53180510000E-01

  35  35   1    1 H    -4.05709120000E-01 -3.09042070000E-01  2.46839330000E-01

  36  36   1    1 H    -3.67285840000E-01 -2.32187700000E-01 -2.53160670000E-01

  37  37   1    6 C    -1.08109690000E-01  4.45943690000E-01  2.49091310000E-01

  38  38   1    6 C    -6.96864100000E-02 -4.77201940000E-01 -2.50908700000E-01

  39  39   1    6 C    -5.35108900000E-02  3.92785630000E-01  2.47491170000E-01

  40  40   1    6 C    -1.50876100000E-02  4.69640000000E-01 -2.52508830000E-01

  41  41   1    6 C     5.33881200000E-02 -3.92814700000E-01  2.47352930000E-01

  42  42   1    6 C     9.18114000000E-02 -3.15960330000E-01 -2.52647070000E-01

  43  43   1    6 C    -5.35478900000E-02 -4.46307810000E-01  2.47767770000E-01

  44  44   1    6 C    -1.51246100000E-02 -3.69453440000E-01 -2.52232230000E-01

  45  45   1    6 C     5.34263400000E-02  4.46249970000E-01  2.46700990000E-01

  46  46   1    6 C     9.18496200000E-02 -4.76895660000E-01 -2.53299010000E-01

  47  47   1    6 C     1.08035890000E-01 -4.45964370000E-01  2.47787510000E-01

  48  48   1    6 C     1.46459170000E-01 -3.69110000000E-01 -2.52212490000E-01

  49  49   1    6 C    -4.45960580000E-01  1.08168460000E-01  2.50908730000E-01

  50  50   1    6 C    -4.07537300000E-01  1.85022830000E-01 -2.49091270000E-01

  51  51   1    6 C    -3.92822150000E-01  5.35559400000E-02  2.52508850000E-01

  52  52   1    6 C    -3.54398870000E-01  1.30410310000E-01 -2.47491150000E-01

  53  53   1    6 C     3.92798670000E-01 -5.33368400000E-02  2.52647140000E-01

  54  54   1    6 C     4.31221950000E-01  2.35175300000E-02 -2.47352860000E-01

  55  55   1    6 C     4.46287580000E-01  5.36028600000E-02  2.52232300000E-01

  56  56   1    6 C     4.84710860000E-01  1.30457230000E-01 -2.47767700000E-01

  57  57   1    6 C    -4.46283150000E-01 -5.33764400000E-02  2.53299020000E-01

  58  58   1    6 C    -4.07859870000E-01  2.34779300000E-02 -2.46700990000E-01

  59  59   1    6 C     4.45927910000E-01 -1.08007940000E-01  2.52212530000E-01

  60  60   1    6 C     4.84351190000E-01 -3.11535700000E-02 -2.47787470000E-01

  61  61   1    6 C    -4.45955130000E-01  4.45874550000E-01  2.49091310000E-01

  62  62   1    6 C    -4.07531850000E-01 -4.77271080000E-01 -2.50908700000E-01

  63  63   1    6 C    -3.92789780000E-01 -4.46374220000E-01  2.47491190000E-01

  64  64   1    6 C    -3.54366500000E-01 -3.69519850000E-01 -2.52508800000E-01

  65  65   1    6 C     3.92823370000E-01  4.46172030000E-01  2.47352900000E-01

  66  66   1    6 C     4.31246650000E-01 -4.76973600000E-01 -2.52647100000E-01

  67  67   1    6 C     4.46287260000E-01  3.92689990000E-01  2.47767730000E-01

  68  68   1    6 C     4.84710540000E-01  4.69544360000E-01 -2.52232270000E-01

  69  69   1    6 C    -4.46257040000E-01 -3.92902000000E-01  2.46701020000E-01

  70  70   1    6 C    -4.07833760000E-01 -3.16047630000E-01 -2.53298970000E-01

  71  71   1    6 C     4.45959980000E-01 -4.46041770000E-01  2.47787510000E-01

  72  72   1    6 C     4.84383260000E-01 -3.69187400000E-01 -2.52212490000E-01

  73  73   1    8 O    -4.39263320000E-01  2.80370630000E-01  2.49585170000E-01

  74  74   1    8 O    -4.00840040000E-01  3.57225000000E-01 -2.50414830000E-01

  75  75   1    8 O    -2.80318300000E-01  2.80378330000E-01  2.53002700000E-01

  76  76   1    8 O    -2.41895020000E-01  3.57232700000E-01 -2.46997300000E-01

  77  77   1    8 O    -2.80320580000E-01  4.39323460000E-01  2.47846790000E-01

  78  78   1    8 O    -2.41897300000E-01 -4.83822170000E-01 -2.52153210000E-01

  79  79   1    8 O     2.80324510000E-01 -2.80348890000E-01  2.49585190000E-01

  80  80   1    8 O     3.18747790000E-01 -2.03494520000E-01 -2.50414810000E-01

  81  81   1    8 O     2.80343970000E-01 -4.39304390000E-01  2.53002700000E-01

  82  82   1    8 O     3.18767250000E-01 -3.62450020000E-01 -2.46997300000E-01

  83  83   1    8 O     4.39263840000E-01 -2.80364580000E-01  2.47846770000E-01

  84  84   1    8 O     4.77687120000E-01 -2.03510210000E-01 -2.52153220000E-01

 NUMBER OF SYMMETRY OPERATORS         :    1
 *******************************************************************************
 * GEOMETRY EDITING - INPUT COORDINATES ARE GIVEN IN ANGSTROM         
 *******************************************************************************

 GCALCO - MAX INDICES DIRECT LATTICE VECTOR    11    11    25
 NO.OF VECTORS CREATED 6999 STARS 3500 RMAX   238.87863 BOHR

 GEOMETRY FOR WAVE FUNCTION - DIMENSIONALITY OF THE SYSTEM    3
 (NON PERIODIC DIRECTION: LATTICE PARAMETER FORMALLY SET TO 500)
 *******************************************************************************
 LATTICE PARAMETERS (ANGSTROMS AND DEGREES) - BOHR = 0.5291772083 ANGSTROM
 PRIMITIVE CELL - CENTRING CODE 1/0 VOLUME=  1211.985598 - DENSITY  1.069 g/cm^3
         A              B              C           ALPHA      BETA       GAMMA 
    15.02361100    15.02391600     6.20000000    90.000323  89.999944 119.995964
 *******************************************************************************
 ATOMS IN THE ASYMMETRIC UNIT   84 - ATOMS IN THE UNIT CELL:   84
     ATOM                 X/A                 Y/B                 Z/C    
 *******************************************************************************
      1 T   5 B    -3.863194600000E-01  2.273182200000E-01  2.507704400000E-01
      2 T   5 B    -3.478961800000E-01  3.041725900000E-01 -2.492295600000E-01
      3 T   5 B    -2.272638000000E-01  3.863778800000E-01  2.507704500000E-01
      4 T   5 B    -1.888405200000E-01  4.632322500000E-01 -2.492295500000E-01
      5 T   5 B    -3.863237300000E-01  3.863606700000E-01  2.491505800000E-01
      6 T   5 B    -3.479004500000E-01  4.632150400000E-01 -2.508494200000E-01
      7 T   5 B     2.272552500000E-01 -3.863667800000E-01  2.507704500000E-01
      8 T   5 B     2.656785300000E-01 -3.095124100000E-01 -2.492295500000E-01
      9 T   5 B     3.863632200000E-01 -3.863875500000E-01  2.507704400000E-01
     10 T   5 B     4.247865000000E-01 -3.095331800000E-01 -2.492295600000E-01
     11 T   5 B     3.863435000000E-01 -2.272483500000E-01  2.491505800000E-01
     12 T   5 B     4.247667800000E-01 -1.503939800000E-01 -2.508494200000E-01
     13 T   1 H    -9.695638000000E-02  3.089300500000E-01  2.474121300000E-01
     14 T   1 H    -5.853310000000E-02  3.857844200000E-01 -2.525878700000E-01
     15 T   1 H     9.663453000000E-02 -3.089465600000E-01  2.468985900000E-01
     16 T   1 H     1.350578100000E-01 -2.320921900000E-01 -2.531014100000E-01
     17 T   1 H    -9.702858000000E-02 -4.059275700000E-01  2.468195500000E-01
     18 T   1 H    -5.860530000000E-02 -3.290732000000E-01 -2.531804500000E-01
     19 T   1 H     9.673618000000E-02  4.056849400000E-01  2.468392700000E-01
     20 T   1 H     1.351594600000E-01  4.825393100000E-01 -2.531607300000E-01
     21 T   1 H    -3.089676000000E-01  9.700412000000E-02  2.525878900000E-01
     22 T   1 H    -2.705443200000E-01  1.738584900000E-01 -2.474121100000E-01
     23 T   1 H     3.089297200000E-01 -9.656269000000E-02  2.531014700000E-01
     24 T   1 H     3.473530000000E-01 -1.970832000000E-02 -2.468985300000E-01
     25 T   1 H     4.058699900000E-01  9.704998000000E-02  2.531805500000E-01
     26 T   1 H     4.442932700000E-01  1.739043500000E-01 -2.468194400000E-01
     27 T   1 H    -4.056877900000E-01 -9.665268000000E-02  2.531607000000E-01
     28 T   1 H    -3.672645100000E-01 -1.979831000000E-02 -2.468393000000E-01
     29 T   1 H    -3.089272600000E-01 -4.059457900000E-01  2.474121600000E-01
     30 T   1 H    -2.705039800000E-01 -3.290914200000E-01 -2.525878400000E-01
     31 T   1 H     3.089618300000E-01  4.056093300000E-01  2.468985500000E-01
     32 T   1 H     3.473851100000E-01  4.824637000000E-01 -2.531014500000E-01
     33 T   1 H     4.058405700000E-01  3.088232500000E-01  2.468194900000E-01
     34 T   1 H     4.442638500000E-01  3.856776200000E-01 -2.531805100000E-01
     35 T   1 H    -4.057091200000E-01 -3.090420700000E-01  2.468393300000E-01
     36 T   1 H    -3.672858400000E-01 -2.321877000000E-01 -2.531606700000E-01
     37 T   6 C    -1.081096900000E-01  4.459436900000E-01  2.490913100000E-01
     38 T   6 C    -6.968641000000E-02 -4.772019400000E-01 -2.509087000000E-01
     39 T   6 C    -5.351089000000E-02  3.927856300000E-01  2.474911700000E-01
     40 T   6 C    -1.508761000000E-02  4.696400000000E-01 -2.525088300000E-01
     41 T   6 C     5.338812000000E-02 -3.928147000000E-01  2.473529300000E-01
     42 T   6 C     9.181140000000E-02 -3.159603300000E-01 -2.526470700000E-01
     43 T   6 C    -5.354789000000E-02 -4.463078100000E-01  2.477677700000E-01
     44 T   6 C    -1.512461000000E-02 -3.694534400000E-01 -2.522322300000E-01
     45 T   6 C     5.342634000000E-02  4.462499700000E-01  2.467009900000E-01
     46 T   6 C     9.184962000000E-02 -4.768956600000E-01 -2.532990100000E-01
     47 T   6 C     1.080358900000E-01 -4.459643700000E-01  2.477875100000E-01
     48 T   6 C     1.464591700000E-01 -3.691100000000E-01 -2.522124900000E-01
     49 T   6 C    -4.459605800000E-01  1.081684600000E-01  2.509087300000E-01
     50 T   6 C    -4.075373000000E-01  1.850228300000E-01 -2.490912700000E-01
     51 T   6 C    -3.928221500000E-01  5.355594000000E-02  2.525088500000E-01
     52 T   6 C    -3.543988700000E-01  1.304103100000E-01 -2.474911500000E-01
     53 T   6 C     3.927986700000E-01 -5.333684000000E-02  2.526471400000E-01
     54 T   6 C     4.312219500000E-01  2.351753000000E-02 -2.473528600000E-01
     55 T   6 C     4.462875800000E-01  5.360286000000E-02  2.522323000000E-01
     56 T   6 C     4.847108600000E-01  1.304572300000E-01 -2.477677000000E-01
     57 T   6 C    -4.462831500000E-01 -5.337644000000E-02  2.532990200000E-01
     58 T   6 C    -4.078598700000E-01  2.347793000000E-02 -2.467009900000E-01
     59 T   6 C     4.459279100000E-01 -1.080079400000E-01  2.522125300000E-01
     60 T   6 C     4.843511900000E-01 -3.115357000000E-02 -2.477874700000E-01
     61 T   6 C    -4.459551300000E-01  4.458745500000E-01  2.490913100000E-01
     62 T   6 C    -4.075318500000E-01 -4.772710800000E-01 -2.509087000000E-01
     63 T   6 C    -3.927897800000E-01 -4.463742200000E-01  2.474911900000E-01
     64 T   6 C    -3.543665000000E-01 -3.695198500000E-01 -2.525088000000E-01
     65 T   6 C     3.928233700000E-01  4.461720300000E-01  2.473529000000E-01
     66 T   6 C     4.312466500000E-01 -4.769736000000E-01 -2.526471000000E-01
     67 T   6 C     4.462872600000E-01  3.926899900000E-01  2.477677300000E-01
     68 T   6 C     4.847105400000E-01  4.695443600000E-01 -2.522322700000E-01
     69 T   6 C    -4.462570400000E-01 -3.929020000000E-01  2.467010200000E-01
     70 T   6 C    -4.078337600000E-01 -3.160476300000E-01 -2.532989700000E-01
     71 T   6 C     4.459599800000E-01 -4.460417700000E-01  2.477875100000E-01
     72 T   6 C     4.843832600000E-01 -3.691874000000E-01 -2.522124900000E-01
     73 T   8 O    -4.392633200000E-01  2.803706300000E-01  2.495851700000E-01
     74 T   8 O    -4.008400400000E-01  3.572250000000E-01 -2.504148300000E-01
     75 T   8 O    -2.803183000000E-01  2.803783300000E-01  2.530027000000E-01
     76 T   8 O    -2.418950200000E-01  3.572327000000E-01 -2.469973000000E-01
     77 T   8 O    -2.803205800000E-01  4.393234600000E-01  2.478467900000E-01
     78 T   8 O    -2.418973000000E-01 -4.838221700000E-01 -2.521532100000E-01
     79 T   8 O     2.803245100000E-01 -2.803488900000E-01  2.495851900000E-01
     80 T   8 O     3.187477900000E-01 -2.034945200000E-01 -2.504148100000E-01
     81 T   8 O     2.803439700000E-01 -4.393043900000E-01  2.530027000000E-01
     82 T   8 O     3.187672500000E-01 -3.624500200000E-01 -2.469973000000E-01
     83 T   8 O     4.392638400000E-01 -2.803645800000E-01  2.478467700000E-01
     84 T   8 O     4.776871200000E-01 -2.035102100000E-01 -2.521532200000E-01

 T = ATOM BELONGING TO THE ASYMMETRIC UNIT

 ****    1 SYMMOPS - TRANSLATORS IN FRACTIONAL UNITS
 **** MATRICES AND TRANSLATORS IN THE CRYSTALLOGRAPHIC REFERENCE FRAME
   V INV                    ROTATION MATRICES                   TRANSLATORS
   1   1  1.00 -0.00  0.00  0.00  1.00  0.00  0.00  0.00  1.00  0.00  0.00  0.00

 DIRECT LATTICE VECTORS CARTESIAN COMPONENTS (ANGSTROM)
          X                    Y                    Z
   0.130113578931E+02  -0.751088897922E+01   0.000000000000E+00
   0.000000000000E+00   0.150239160000E+02   0.000000000000E+00
  -0.131792926326E-04  -0.349519635990E-04   0.619999999989E+01


 CARTESIAN COORDINATES - PRIMITIVE CELL
 *******************************************************************************
 *      ATOM          X(ANGSTROM)         Y(ANGSTROM)         Z(ANGSTROM)
 *******************************************************************************
    1     5 B    -5.026544060089E+00  6.316803652201E+00  1.554776727972E+00
    2     5 B    -4.526598422938E+00  7.182881736998E+00 -1.545223271972E+00
    3     5 B    -2.957013942913E+00  7.511853219253E+00  1.554776789972E+00
    4     5 B    -2.457068305762E+00 -6.645984695949E+00 -1.545223209972E+00
    5     5 B    -5.026599597239E+00 -6.317639810451E+00  1.544733595972E+00
    6     5 B    -4.526653960088E+00 -5.451561725654E+00 -1.555266403972E+00
    7     5 B     2.956896085849E+00 -7.511639765524E+00  1.554776789972E+00
    8     5 B     3.456841723000E+00 -6.645561680727E+00 -1.545223209972E+00
    9     5 B     5.027106827157E+00  6.316921889362E+00  1.554776727972E+00
   10     5 B    -7.484305428748E+00 -3.300270466238E-01 -1.545223271972E+00
   11     5 B     5.026850264528E+00 -6.315951966183E+00  1.544733595972E+00
   12     5 B     5.526795901679E+00 -5.449873881385E+00 -1.555266403972E+00
   13     1 H    -1.261537420912E+00  5.369559079543E+00  1.533955205972E+00
   14     1 H    -7.615917837606E-01  6.235637164340E+00 -1.566044793972E+00
   15     1 H     1.257343200709E+00 -5.367407021908E+00  1.530771257972E+00
   16     1 H     1.757288837860E+00 -4.501328937111E+00 -1.569228741972E+00
   17     1 H    -1.262476833142E+00 -5.369859448401E+00  1.530281209972E+00
   18     1 H    -7.625311959907E-01 -4.503781363604E+00 -1.569718789972E+00
   19     1 H     1.258665806020E+00  5.368393125254E+00  1.530403473972E+00
   20     1 H     1.758611443172E+00  6.234471210052E+00 -1.569596525972E+00
   21     1 H    -4.020091349888E+00  3.777994263866E+00  1.566044917972E+00
   22     1 H    -3.520145712737E+00  4.644072348664E+00 -1.533955081972E+00
   23     1 H     4.019591815023E+00 -3.771095418988E+00  1.569229113972E+00
   24     1 H     4.519537452175E+00 -2.905017334190E+00 -1.530770885972E+00
   25     1 H     5.280916361201E+00 -1.590382536721E+00  1.569719409972E+00
   26     1 H     5.780861998352E+00 -7.243044519244E-01 -1.530280527972E+00
   27     1 H    -5.278552365012E+00  1.594965356955E+00  1.569596339972E+00
   28     1 H    -4.778606727861E+00  2.461043441753E+00 -1.530403659972E+00
   29     1 H    -4.019566403499E+00 -3.778585744541E+00  1.533955391972E+00
   30     1 H    -3.519620766347E+00 -2.912507659744E+00 -1.566044607972E+00
   31     1 H     4.020009691475E+00  3.773253869202E+00  1.530771009972E+00
   32     1 H     4.519955328627E+00  4.639331953999E+00 -1.569228989972E+00
   33     1 H     5.280533650886E+00  1.591502475489E+00  1.530280837972E+00
   34     1 H     5.780479288037E+00  2.457580560287E+00 -1.569719161972E+00
   35     1 H    -5.278829813965E+00 -1.595794569490E+00  1.530403845972E+00
   36     1 H    -4.778884176813E+00 -7.297164846924E-01 -1.569596153972E+00
   37     6 C    -1.406657151145E+00  7.511811712227E+00  1.544366121972E+00
   38     6 C    -9.067115139931E-01 -6.646026202975E+00 -1.555633939972E+00
   39     6 C    -6.962526027245E-01  6.303084014794E+00  1.534445253972E+00
   40     6 C    -1.963069655731E-01  7.169162099591E+00 -1.565554745972E+00
   41     6 C     6.946486766208E-01 -6.302615943965E+00  1.533588165972E+00
   42     6 C     1.194594313772E+00 -5.436537859168E+00 -1.566411833972E+00
   43     6 C    -6.967340266120E-01 -6.303107450693E+00  1.536160173972E+00
   44     6 C    -1.967883894605E-01 -5.437029365895E+00 -1.563839825972E+00
   45     6 C     6.951459793116E-01  6.303134133293E+00  1.529546137972E+00
   46     6 C     1.195091616463E+00  7.169212218090E+00 -1.570453861971E+00
   47     6 C     1.405690364421E+00 -7.511585470094E+00  1.536282561972E+00
   48     6 C     1.905636001572E+00 -6.645507385296E+00 -1.563717437972E+00
   49     6 C     7.208801873682E+00 -2.536223486593E+00  1.555634125972E+00
   50     6 C     7.708747510833E+00 -1.670145401796E+00 -1.544365873972E+00
   51     6 C    -5.111152909858E+00  3.755054675408E+00  1.565554869972E+00
   52     6 C    -4.611207272707E+00  4.621132760205E+00 -1.534445129972E+00
   53     6 C     5.110840745576E+00 -3.751604235933E+00  1.566412267972E+00
   54     6 C     5.610786382727E+00 -2.885526151136E+00 -1.533587731972E+00
   55     6 C     5.806804102363E+00 -2.546700416198E+00  1.563840259972E+00
   56     6 C     6.306749739514E+00 -1.680622331400E+00 -1.536159739972E+00
   57     6 C    -5.806753124593E+00  2.550051188708E+00  1.570453923971E+00
   58     6 C    -5.306807487441E+00  3.416129273506E+00 -1.529546137972E+00
   59     6 C     5.802124307530E+00 -4.972026057960E+00  1.563717685972E+00
   60     6 C     6.302069944681E+00 -4.105947973163E+00 -1.536282313972E+00
   61     6 C     7.208872809535E+00  2.537403571433E+00  1.544366121972E+00
   62     6 C    -5.302539446370E+00 -4.109545364553E+00 -1.555633939972E+00
   63     6 C    -5.110731666074E+00 -3.756097006398E+00  1.534445377972E+00
   64     6 C    -4.610786028922E+00 -2.890018921601E+00 -1.565554559972E+00
   65     6 C     5.111162195890E+00  3.752789734288E+00  1.533587979972E+00
   66     6 C     5.611107833042E+00  4.618867819086E+00 -1.566412019972E+00
   67     6 C     5.806799997568E+00  2.547718701133E+00  1.536159925972E+00
   68     6 C     6.306745634720E+00  3.413796785931E+00 -1.563840073972E+00
   69     6 C    -5.806413311081E+00 -2.551148183283E+00  1.529546323972E+00
   70     6 C    -5.306467673930E+00 -1.685070098486E+00 -1.570453613971E+00
   71     6 C     5.802541640096E+00  4.973057355415E+00  1.536282561972E+00
   72     6 C    -6.708870615809E+00 -1.673891580571E+00 -1.563717437972E+00
   73     8 O     7.295942337888E+00  6.251204408774E-04  1.547428053972E+00
   74     8 O     7.795887975040E+00  8.667032052382E-01 -1.552571945972E+00
   75     8 O    -3.647325059670E+00  6.317811265342E+00  1.568616739972E+00
   76     8 O    -3.147379422518E+00  7.183889350139E+00 -1.531383259972E+00
   77     8 O    -3.647354657615E+00 -6.318109147893E+00  1.536650097972E+00
   78     8 O    -3.147409020463E+00 -5.452031063096E+00 -1.563349901972E+00
   79     8 O     3.647399236449E+00 -6.317433170309E+00  1.547428177972E+00
   80     8 O     4.147344873601E+00 -5.451355085512E+00 -1.552571821972E+00
   81     8 O     3.647652392434E+00  6.318202468605E+00  1.568616739972E+00
   82     8 O     4.147598029585E+00  7.184280553402E+00 -1.531383259972E+00
   83     8 O    -7.295942127783E+00 -5.555176344062E-04  1.536649973972E+00
   84     8 O    -6.795996490632E+00  8.655225671626E-01 -1.563349963972E+00

 *******************************************************************************
 STARTING BASIS SET HANDLING 
 *******************************************************************************

 Loading internal basis set: SOLDEF2MSVP         

 Please cite in your publication:
 L. Dona', J. G. Brandenburg and B. Civalleri, J. Chem. Phys., 151, 121101 (2019
 )                                                                              
                                                                                
                    

 *******************************************************************************
 LOCAL ATOMIC FUNCTIONS BASIS SET
 *******************************************************************************
   ATOM   X(AU)   Y(AU)   Z(AU)  N. TYPE  EXPONENT  S COEF   P COEF   D/F/G COEF
 *******************************************************************************
   1 B   -9.499  11.937   2.938
                                  1 S  
                                         2.410E+03 1.755E-03 0.000E+00 0.000E+00
                                         3.619E+02 1.344E-02 0.000E+00 0.000E+00
                                         8.231E+01 6.637E-02 0.000E+00 0.000E+00
                                         2.311E+01 2.303E-01 0.000E+00 0.000E+00
                                         7.252E+00 5.150E-01 0.000E+00 0.000E+00
                                  2 S  
                                         2.367E+00 1.000E+00 0.000E+00 0.000E+00
                                  3 S  
                                         5.533E-01 1.000E+00 0.000E+00 0.000E+00
                                  4 S  
                                         1.716E-01 1.000E+00 0.000E+00 0.000E+00
                           5-     7 P  
                                         6.002E+00 0.000E+00-3.555E-02 0.000E+00
                                         1.240E+00 0.000E+00-1.983E-01 0.000E+00
                                         3.367E-01 0.000E+00-5.048E-01 0.000E+00
                           8-    10 P  
                                         1.256E-01 0.000E+00 1.000E+00 0.000E+00
                          11-    15 D  
                                         8.880E-01 0.000E+00 0.000E+00 1.000E+00
   2 B   -8.554  13.574  -2.920
   3 B   -5.588  14.195   2.938
   4 B   -4.643 -12.559  -2.920
   5 B   -9.499 -11.939   2.919
   6 B   -8.554 -10.302  -2.939
   7 B    5.588 -14.195   2.938
   8 B    6.532 -12.558  -2.920
   9 B    9.500  11.937   2.938
  10 B  -14.143  -0.624  -2.920
  11 B    9.499 -11.935   2.919
  12 B   10.444 -10.299  -2.939
  13 H   -2.384  10.147   2.899
                                181 S  
                                         1.874E+01 1.968E-02 0.000E+00 0.000E+00
                                         2.826E+00 1.380E-01 0.000E+00 0.000E+00
                                         6.401E-01 4.783E-01 0.000E+00 0.000E+00
                                182 S  
                                         1.756E-01 1.000E+00 0.000E+00 0.000E+00
  14 H   -1.439  11.784  -2.959
  15 H    2.376 -10.143   2.893
  16 H    3.321  -8.506  -2.965
  17 H   -2.386 -10.148   2.892
  18 H   -1.441  -8.511  -2.966
  19 H    2.379  10.145   2.892
  20 H    3.323  11.781  -2.966
  21 H   -7.597   7.139   2.959
  22 H   -6.652   8.776  -2.899
  23 H    7.596  -7.126   2.965
  24 H    8.541  -5.490  -2.893
  25 H    9.979  -3.005   2.966
  26 H   10.924  -1.369  -2.892
  27 H   -9.975   3.014   2.966
  28 H   -9.030   4.651  -2.892
  29 H   -7.596  -7.140   2.899
  30 H   -6.651  -5.504  -2.959
  31 H    7.597   7.130   2.893
  32 H    8.541   8.767  -2.965
  33 H    9.979   3.008   2.892
  34 H   10.924   4.644  -2.966
  35 H   -9.976  -3.016   2.892
  36 H   -9.031  -1.379  -2.966
  37 C   -2.658  14.195   2.918
                                229 S  
                                         3.624E+03 1.634E-03 0.000E+00 0.000E+00
                                         5.440E+02 1.252E-02 0.000E+00 0.000E+00
                                         1.237E+02 6.211E-02 0.000E+00 0.000E+00
                                         3.476E+01 2.182E-01 0.000E+00 0.000E+00
                                         1.093E+01 4.980E-01 0.000E+00 0.000E+00
                                230 S  
                                         3.574E+00 1.000E+00 0.000E+00 0.000E+00
                                231 S  
                                         7.742E-01 1.000E+00 0.000E+00 0.000E+00
                                232 S  
                                         2.330E-01 1.000E+00 0.000E+00 0.000E+00
                         233-   235 P  
                                         9.443E+00 0.000E+00 3.790E-02 0.000E+00
                                         2.002E+00 0.000E+00 2.082E-01 0.000E+00
                                         5.463E-01 0.000E+00 5.047E-01 0.000E+00
                         236-   238 P  
                                         1.820E-01 0.000E+00 1.000E+00 0.000E+00
                         239-   243 D  
                                         8.880E-01 0.000E+00 0.000E+00 1.000E+00
  38 C   -1.713 -12.559  -2.940
  39 C   -1.316  11.911   2.900
  40 C   -0.371  13.548  -2.958
  41 C    1.313 -11.910   2.898
  42 C    2.257 -10.274  -2.960
  43 C   -1.317 -11.911   2.903
  44 C   -0.372 -10.274  -2.955
  45 C    1.314  11.911   2.890
  46 C    2.258  13.548  -2.968
  47 C    2.656 -14.195   2.903
  48 C    3.601 -12.558  -2.955
  49 C   13.623  -4.793   2.940
  50 C   14.567  -3.156  -2.918
  51 C   -9.659   7.096   2.958
  52 C   -8.714   8.733  -2.900
  53 C    9.658  -7.090   2.960
  54 C   10.603  -5.453  -2.898
  55 C   10.973  -4.813   2.955
  56 C   11.918  -3.176  -2.903
  57 C  -10.973   4.819   2.968
  58 C  -10.028   6.456  -2.890
  59 C   10.964  -9.396   2.955
  60 C   11.909  -7.759  -2.903
  61 C   13.623   4.795   2.918
  62 C  -10.020  -7.766  -2.940
  63 C   -9.658  -7.098   2.900
  64 C   -8.713  -5.461  -2.958
  65 C    9.659   7.092   2.898
  66 C   10.603   8.728  -2.960
  67 C   10.973   4.814   2.903
  68 C   11.918   6.451  -2.955
  69 C  -10.973  -4.821   2.890
  70 C  -10.028  -3.184  -2.968
  71 C   10.965   9.398   2.903
  72 C  -12.678  -3.163  -2.955
  73 O   13.787   0.001   2.924
                                769 S  
                                         6.773E+03 1.727E-03 0.000E+00 0.000E+00
                                         1.017E+03 1.325E-02 0.000E+00 0.000E+00
                                         2.313E+02 6.603E-02 0.000E+00 0.000E+00
                                         6.501E+01 2.353E-01 0.000E+00 0.000E+00
                                         2.050E+01 5.498E-01 0.000E+00 0.000E+00
                                770 S  
                                         6.716E+00 1.000E+00 0.000E+00 0.000E+00
                                771 S  
                                         1.147E+00 1.000E+00 0.000E+00 0.000E+00
                                772 S  
                                         3.342E-01 1.000E+00 0.000E+00 0.000E+00
                         773-   775 P  
                                         1.769E+01 0.000E+00 4.359E-02 0.000E+00
                                         3.854E+00 0.000E+00 2.318E-01 0.000E+00
                                         1.047E+00 0.000E+00 5.146E-01 0.000E+00
                         776-   778 P  
                                         2.759E-01 0.000E+00 1.000E+00 0.000E+00
                         779-   783 D  
                                         8.000E-01 0.000E+00 0.000E+00 1.000E+00
  74 O   14.732   1.638  -2.934
  75 O   -6.892  11.939   2.964
  76 O   -5.948  13.576  -2.894
  77 O   -6.893 -11.939   2.904
  78 O   -5.948 -10.303  -2.954
  79 O    6.893 -11.938   2.924
  80 O    7.837 -10.302  -2.934
  81 O    6.893  11.940   2.964
  82 O    7.838  13.576  -2.894
  83 O  -13.787  -0.001   2.904
  84 O  -12.843   1.636  -2.954

 *******************************************************************************
 FINISHED BASIS SET HANDLING 
 *******************************************************************************

 INFORMATION **** SET_MPP **** PCRYSTAL CALCULATION
 INFORMATION **** READM2 **** NEW DEFAULT: FOCK/KS MATRIX MIXING SET TO 30 %
 INFORMATION **** READM2 **** NEW DEFAULT: FULL DIRECT SCF MODE
 INFORMATION **** READM2 **** NEW DEFAULT: COULOMB BIPOLAR BUFFER SET TO 32 Mb
 INFORMATION **** READM2 **** NEW DEFAULT: EXCHANGE BIPOLAR BUFFER SET TO 32 Mb

 *******************************************************************************
 NEW DEFAULT: DFT INTEGRATION GRID INCREASED TO XLGRID
 NEW DEFAULT: DIIS ACCELERATOR ACTIVE
 USE KEYWORD NODIIS TO TURN IT OFF
 *******************************************************************************

 WARNING **** RDDFTP **** HSEsol-HJS ACTIVE
 RANGE SEPARATION - OMEGA:   0.110000000000000     
 WARNING **** RDDFTP **** HSEsol-3c has to be combined with sol-def2-mSVP basis set
 *******************************************************************************
 N. OF ATOMS PER CELL        84  COULOMB OVERLAP TOL         (T1) 10**   -6
 NUMBER OF SHELLS           468  COULOMB PENETRATION TOL     (T2) 10**   -6
 NUMBER OF AO               948  EXCHANGE OVERLAP TOL        (T3) 10**   -6
 N. OF ELECTRONS PER CELL   396  EXCHANGE PSEUDO OVP (F(G))  (T4) 10**   -6
 CORE ELECTRONS PER CELL    120  EXCHANGE PSEUDO OVP (P(G))  (T5) 10**  -12
 N. OF SYMMETRY OPERATORS     1  POLE ORDER IN MONO ZONE                  4
 *******************************************************************************
 TYPE OF CALCULATION :  RESTRICTED CLOSED SHELL
 KOHN-SHAM HAMILTONIAN

 (EXCHANGE)[CORRELATION] FUNCTIONAL:(HSEsol GGA)[PBEsol]

 RANGE-SEPARATED HYBRID FUNCTIONAL 
 OMEGA (SHORT-RANGE)[LONG-RANGE]:(    0.1100)[    0.0000]

 HYBRID EXCHANGE - PERCENTAGE OF FOCK EXCHANGE    25.0000

 CAPPA:IS1  2;IS2  2;IS3  8; K PTS MONK NET  20; SYMMOPS:K SPACE   2;G SPACE   1

 *******************************************************************************
 MAX NUMBER OF SCF CYCLES      50  CONVERGENCE ON DELTAP        10**-16
 WEIGHT OF F(I) IN F(I+1)      30% CONVERGENCE ON ENERGY        10**- 6
 SHRINK. FACT.(MONKH.)    2  2  8  NUMBER OF K POINTS IN THE IBZ     20
 SHRINKING FACTOR(GILAT NET)    8  NUMBER OF K POINTS(GILAT NET)   1028
 *******************************************************************************
 *** K POINTS COORDINATES (OBLIQUE COORDINATES IN UNITS OF IS =  2)
   1-R(  0  0  0)   2-R(  1  0  0)   3-R(  0  1  0)   4-R(  1  1  0)
   5-C(  0  0  1)   6-C(  1  0  1)   7-C(  0  1  1)   8-C(  1  1  1)
   9-C(  0  0  2)  10-C(  1  0  2)  11-C(  0  1  2)  12-C(  1  1  2)
  13-C(  0  0  3)  14-C(  1  0  3)  15-C(  0  1  3)  16-C(  1  1  3)
  17-R(  0  0  4)  18-R(  1  0  4)  19-R(  0  1  4)  20-R(  1  1  4)

 DIRECT LATTICE VECTORS COMPON. (A.U.)     RECIP. LATTICE VECTORS COMPON. (A.U.) 
        X            Y            Z              X            Y            Z
   24.5879030  -14.1935232    0.0000000      0.2555397    0.0000000    0.0000005
    0.0000000   28.3910867    0.0000000      0.1277517    0.2213084    0.0000015
   -0.0000249   -0.0000660   11.7163020      0.0000000    0.0000000    0.5362772

 DISK SPACE FOR EIGENVECTORS (FTN 10)    28758528 REALS

 SYMMETRY ADAPTION OF THE BLOCH FUNCTIONS DISABLED
 TTTTTTTTTTTTTTTTTTTTTTTTTTTTTT gordsh1     TELAPSE        0.05 TCPU        0.05

 MATRIX SIZE: P(G)  877934, F(G)  177193, P(G) IRR  441133, F(G) IRR  178441
 MAX G-VECTOR INDEX FOR 1- AND 2-ELECTRON INTEGRALS  61

 TTTTTTTTTTTTTTTTTTTTTTTTTTTTTT INPUT       TELAPSE        3.16 TCPU        3.15

 NEIGHBORS OF THE NON-EQUIVALENT ATOMS

 N = NUMBER OF NEIGHBORS AT DISTANCE R
    ATOM  N     R/ANG      R/AU   NEIGHBORS (ATOM LABELS AND CELL INDICES)
   1 B    1     1.3791     2.6061   73 O   -1 0 0
   1 B    1     1.3793     2.6065   75 O    0 0 0
   1 B    1     1.5503     2.9297   49 C   -1 0 0
   1 B    1     2.3895     4.5155    5 B    0 1 0
   1 B    1     2.3898     4.5160    3 B    0 0 0
   1 B    1     2.5632     4.8437   51 C    0 0 0

   2 B    1     1.3791     2.6061   74 O   -1 0 0
   2 B    1     1.3793     2.6065   76 O    0 0 0
   2 B    1     1.5503     2.9297   50 C   -1 0 0
   2 B    1     2.3895     4.5155    6 B    0 1 0
   2 B    1     2.3898     4.5160    4 B    0 1 0
   2 B    1     2.5632     4.8437   52 C    0 0 0

   3 B    1     1.3793     2.6065   77 O    0 1 0
   3 B    1     1.3793     2.6065   75 O    0 0 0
   3 B    1     1.5504     2.9298   37 C    0 0 0
   3 B    1     2.3895     4.5156    5 B    0 1 0
   3 B    1     2.3898     4.5160    1 B    0 0 0
   3 B    1     2.5634     4.8440   43 C    0 1 0

   4 B    1     1.3793     2.6065   78 O    0 0 0
   4 B    1     1.3793     2.6065   76 O    0-1 0
   4 B    1     1.5504     2.9298   38 C    0 0 0
   4 B    1     2.3895     4.5156    6 B    0 0 0
   4 B    1     2.3898     4.5160    2 B    0-1 0
   4 B    1     2.5634     4.8440   44 C    0 0 0

   5 B    1     1.3791     2.6061   73 O   -1-1 0
   5 B    1     1.3793     2.6064   77 O    0 0 0
   5 B    1     1.5502     2.9294   61 C   -1-1 0
   5 B    1     2.3895     4.5155    1 B    0-1 0
   5 B    1     2.3895     4.5156    3 B    0-1 0
   5 B    1     2.5629     4.8433   63 C    0 0 0

   6 B    1     1.3791     2.6061   74 O   -1-1 0
   6 B    1     1.3793     2.6064   78 O    0 0 0
   6 B    1     1.5502     2.9294   62 C    0 0 0
   6 B    1     2.3895     4.5155    2 B    0-1 0
   6 B    1     2.3895     4.5156    4 B    0 0 0
   6 B    1     2.5629     4.8433   64 C    0 0 0

   7 B    1     1.3795     2.6068   79 O    0 0 0
   7 B    1     1.3795     2.6070   81 O    0-1 0
   7 B    1     1.5513     2.9316   47 C    0 0 0
   7 B    1     2.3905     4.5174   11 B    0 0 0
   7 B    1     2.3905     4.5175    9 B    0-1 0
   7 B    1     2.5648     4.8468   45 C    0-1 0

   8 B    1     1.3795     2.6068   80 O    0 0 0
   8 B    1     1.3795     2.6070   82 O    0-1 0
   8 B    1     1.5513     2.9316   48 C    0 0 0
   8 B    1     2.3905     4.5174   12 B    0 0 0
   8 B    1     2.3905     4.5175   10 B    1 0 0
   8 B    1     2.5648     4.8468   46 C    0-1 0

   9 B    1     1.3795     2.6069   81 O    0 0 0
   9 B    1     1.3797     2.6072   83 O    1 1 0
   9 B    1     1.5516     2.9322   71 C    0 0 0
   9 B    1     2.3905     4.5175    7 B    0 1 0
   9 B    1     2.3911     4.5185   11 B    0 1 0
   9 B    1     2.5651     4.8473   69 C    1 1 0

  10 B    1     1.3795     2.6069   82 O   -1-1 0
  10 B    1     1.3797     2.6072   84 O    0 0 0
  10 B    1     1.5516     2.9322   72 C    0 0 0
  10 B    1     2.3905     4.5175    8 B   -1 0 0
  10 B    1     2.3911     4.5185   12 B   -1 0 0
  10 B    1     2.5651     4.8473   70 C    0 0 0

  11 B    1     1.3795     2.6068   79 O    0 0 0
  11 B    1     1.3796     2.6071   83 O    1 0 0
  11 B    1     1.5516     2.9322   59 C    0 0 0
  11 B    1     2.3905     4.5174    7 B    0 0 0
  11 B    1     2.3911     4.5185    9 B    0-1 0
  11 B    1     2.5651     4.8473   57 C    1 0 0

  12 B    1     1.3795     2.6068   80 O    0 0 0
  12 B    1     1.3796     2.6071   84 O    1 0 0
  12 B    1     1.5516     2.9322   60 C    0 0 0
  12 B    1     2.3905     4.5174    8 B    0 0 0
  12 B    1     2.3911     4.5185   10 B    1 0 0
  12 B    1     2.5651     4.8473   58 C    1 0 0

  13 H    1     1.0913     2.0623   39 C    0 0 0
  13 H    1     2.1472     4.0576   37 C    0 0 0
  13 H    1     2.1680     4.0969   45 C    0 0 0
  13 H    1     2.5202     4.7625   19 H    0 0 0
  13 H    1     2.5676     4.8520   75 O    0 0 0
  13 H    1     2.7321     5.1630    3 B    0 0 0

  14 H    1     1.0913     2.0623   40 C    0 0 0
  14 H    1     2.1472     4.0576   38 C    0 1 0
  14 H    1     2.1680     4.0969   46 C    0 0 0
  14 H    1     2.5202     4.7625   20 H    0 0 0
  14 H    1     2.5676     4.8520   76 O    0 0 0
  14 H    1     2.7321     5.1630    4 B    0 1 0

  15 H    1     1.0914     2.0625   41 C    0 0 0
  15 H    1     2.1493     4.0616   47 C    0 0 0
  15 H    1     2.1666     4.0942   43 C    0 0 0
  15 H    1     2.5198     4.7618   17 H    0 0 0
  15 H    1     2.5720     4.8604   79 O    0 0 0
  15 H    1     2.7362     5.1707    7 B    0 0 0

  16 H    1     1.0914     2.0625   42 C    0 0 0
  16 H    1     2.1493     4.0616   48 C    0 0 0
  16 H    1     2.1666     4.0942   44 C    0 0 0
  16 H    1     2.5198     4.7618   18 H    0 0 0
  16 H    1     2.5720     4.8604   80 O    0 0 0
  16 H    1     2.7362     5.1707    8 B    0 0 0

  17 H    1     1.0914     2.0624   43 C    0 0 0
  17 H    1     2.1471     4.0575   37 C    0-1 0
  17 H    1     2.1680     4.0970   41 C    0 0 0
  17 H    1     2.5198     4.7618   15 H    0 0 0
  17 H    1     2.5665     4.8500   77 O    0 0 0
  17 H    1     2.7315     5.1618    3 B    0-1 0

  18 H    1     1.0914     2.0624   44 C    0 0 0
  18 H    1     2.1471     4.0575   38 C    0 0 0
  18 H    1     2.1680     4.0970   42 C    0 0 0
  18 H    1     2.5198     4.7618   16 H    0 0 0
  18 H    1     2.5665     4.8500   78 O    0 0 0
  18 H    1     2.7315     5.1618    4 B    0 0 0

  19 H    1     1.0915     2.0626   45 C    0 0 0
  19 H    1     2.1490     4.0610   47 C    0 1 0
  19 H    1     2.1669     4.0948   39 C    0 0 0
  19 H    1     2.5202     4.7625   13 H    0 0 0
  19 H    1     2.5712     4.8588   81 O    0 0 0
  19 H    1     2.7351     5.1686    7 B    0 1 0

  20 H    1     1.0915     2.0626   46 C    0 0 0
  20 H    1     2.1490     4.0610   48 C    0 1 0
  20 H    1     2.1669     4.0948   40 C    0 0 0
  20 H    1     2.5202     4.7625   14 H    0 0 0
  20 H    1     2.5712     4.8588   82 O    0 0 0
  20 H    1     2.7351     5.1686    8 B    0 1 0

  21 H    1     1.0913     2.0623   51 C    0 0 0
  21 H    1     2.1469     4.0571   49 C   -1 0 0
  21 H    1     2.1680     4.0968   57 C    0 0 0
  21 H    1     2.5198     4.7617   27 H    0 0 0
  21 H    1     2.5670     4.8510   75 O    0 0 0
  21 H    1     2.7310     5.1609    1 B    0 0 0

  22 H    1     1.0913     2.0623   52 C    0 0 0
  22 H    1     2.1469     4.0571   50 C   -1 0 0
  22 H    1     2.1680     4.0968   58 C    0 0 0
  22 H    1     2.5198     4.7617   28 H    0 0 0
  22 H    1     2.5670     4.8510   76 O    0 0 0
  22 H    1     2.7310     5.1609    2 B    0 0 0

  23 H    1     1.0914     2.0625   53 C    0 0 0
  23 H    1     2.1493     4.0617   59 C    0 0 0
  23 H    1     2.1664     4.0939   55 C    0 0 0
  23 H    1     2.5192     4.7606   25 H    0 0 0
  23 H    1     2.5735     4.8632   79 O    0 0 0
  23 H    1     2.7371     5.1723   11 B    0 0 0

  24 H    1     1.0914     2.0625   54 C    0 0 0
  24 H    1     2.1493     4.0617   60 C    0 0 0
  24 H    1     2.1664     4.0939   56 C    0 0 0
  24 H    1     2.5192     4.7606   26 H    0 0 0
  24 H    1     2.5735     4.8632   80 O    0 0 0
  24 H    1     2.7371     5.1723   12 B    0 0 0

  25 H    1     1.0914     2.0624   55 C    0 0 0
  25 H    1     2.1475     4.0581   49 C    0 0 0
  25 H    1     2.1679     4.0967   53 C    0 0 0
  25 H    1     2.5192     4.7606   23 H    0 0 0
  25 H    1     2.5675     4.8519   73 O    0 0 0
  25 H    1     2.7328     5.1643    1 B    1 0 0

  26 H    1     1.0914     2.0624   56 C    0 0 0
  26 H    1     2.1475     4.0581   50 C    0 0 0
  26 H    1     2.1679     4.0967   54 C    0 0 0
  26 H    1     2.5192     4.7606   24 H    0 0 0
  26 H    1     2.5675     4.8519   74 O    0 0 0
  26 H    1     2.7328     5.1643    2 B    1 0 0

  27 H    1     1.0914     2.0625   57 C    0 0 0
  27 H    1     2.1491     4.0612   59 C   -1 0 0
  27 H    1     2.1666     4.0942   51 C    0 0 0
  27 H    1     2.5198     4.7617   21 H    0 0 0
  27 H    1     2.5723     4.8609   83 O    0 0 0
  27 H    1     2.7355     5.1693   11 B   -1 0 0

  28 H    1     1.0914     2.0625   58 C    0 0 0
  28 H    1     2.1491     4.0612   60 C   -1 0 0
  28 H    1     2.1666     4.0942   52 C    0 0 0
  28 H    1     2.5198     4.7617   22 H    0 0 0
  28 H    1     2.5723     4.8609   84 O    0 0 0
  28 H    1     2.7355     5.1693   12 B   -1 0 0

  29 H    1     1.0914     2.0624   63 C    0 0 0
  29 H    1     2.1475     4.0582   61 C   -1-1 0
  29 H    1     2.1678     4.0966   69 C    0 0 0
  29 H    1     2.5200     4.7621   35 H    0 0 0
  29 H    1     2.5667     4.8503   77 O    0 0 0
  29 H    1     2.7315     5.1618    5 B    0 0 0

  30 H    1     1.0914     2.0624   64 C    0 0 0
  30 H    1     2.1475     4.0582   62 C    0 0 0
  30 H    1     2.1678     4.0966   70 C    0 0 0
  30 H    1     2.5200     4.7621   36 H    0 0 0
  30 H    1     2.5667     4.8503   78 O    0 0 0
  30 H    1     2.7315     5.1618    6 B    0 0 0

  31 H    1     1.0913     2.0623   65 C    0 0 0
  31 H    1     2.1487     4.0605   71 C    0 0 0
  31 H    1     2.1667     4.0945   67 C    0 0 0
  31 H    1     2.5197     4.7616   33 H    0 0 0
  31 H    1     2.5723     4.8610   81 O    0 0 0
  31 H    1     2.7359     5.1701    9 B    0 0 0

  32 H    1     1.0913     2.0623   66 C    0 0 0
  32 H    1     2.1487     4.0605   72 C    1 1 0
  32 H    1     2.1667     4.0945   68 C    0 0 0
  32 H    1     2.5197     4.7616   34 H    0 0 0
  32 H    1     2.5723     4.8610   82 O    0 0 0
  32 H    1     2.7359     5.1701   10 B    1 1 0

  33 H    1     1.0915     2.0626   67 C    0 0 0
  33 H    1     2.1479     4.0589   61 C    0 0 0
  33 H    1     2.1679     4.0968   65 C    0 0 0
  33 H    1     2.5197     4.7616   31 H    0 0 0
  33 H    1     2.5677     4.8522   73 O    0 0 0
  33 H    1     2.7331     5.1648    5 B    1 1 0

  34 H    1     1.0915     2.0626   68 C    0 0 0
  34 H    1     2.1479     4.0589   62 C    1 1 0
  34 H    1     2.1679     4.0968   66 C    0 0 0
  34 H    1     2.5197     4.7616   32 H    0 0 0
  34 H    1     2.5677     4.8522   74 O    0 0 0
  34 H    1     2.7331     5.1648    6 B    1 1 0

  35 H    1     1.0914     2.0624   69 C    0 0 0
  35 H    1     2.1486     4.0602   71 C   -1-1 0
  35 H    1     2.1668     4.0947   63 C    0 0 0
  35 H    1     2.5200     4.7621   29 H    0 0 0
  35 H    1     2.5717     4.8598   83 O    0 0 0
  35 H    1     2.7349     5.1682    9 B   -1-1 0

  36 H    1     1.0914     2.0624   70 C    0 0 0
  36 H    1     2.1486     4.0602   72 C    0 0 0
  36 H    1     2.1668     4.0947   64 C    0 0 0
  36 H    1     2.5200     4.7621   30 H    0 0 0
  36 H    1     2.5717     4.8598   84 O    0 0 0
  36 H    1     2.7349     5.1682   10 B    0 0 0

  37 C    1     1.4020     2.6495   43 C    0 1 0
  37 C    1     1.4021     2.6495   39 C    0 0 0
  37 C    1     1.5504     2.9298    3 B    0 0 0
  37 C    1     2.1471     4.0575   17 H    0 1 0
  37 C    1     2.1472     4.0576   13 H    0 0 0
  37 C    1     2.4246     4.5817   41 C    0 1 0

  38 C    1     1.4020     2.6495   44 C    0 0 0
  38 C    1     1.4021     2.6495   40 C    0-1 0
  38 C    1     1.5504     2.9298    4 B    0 0 0
  38 C    1     2.1471     4.0575   18 H    0 0 0
  38 C    1     2.1472     4.0576   14 H    0-1 0
  38 C    1     2.4246     4.5817   42 C    0 0 0

  39 C    1     1.0913     2.0623   13 H    0 0 0
  39 C    1     1.3914     2.6294   45 C    0 0 0
  39 C    1     1.4021     2.6495   37 C    0 0 0
  39 C    1     2.1669     4.0948   19 H    0 0 0
  39 C    1     2.4177     4.5688   43 C    0 1 0
  39 C    1     2.4250     4.5825   47 C    0 1 0

  40 C    1     1.0913     2.0623   14 H    0 0 0
  40 C    1     1.3914     2.6294   46 C    0 0 0
  40 C    1     1.4021     2.6495   38 C    0 1 0
  40 C    1     2.1669     4.0948   20 H    0 0 0
  40 C    1     2.4177     4.5688   44 C    0 1 0
  40 C    1     2.4250     4.5825   48 C    0 1 0

  41 C    1     1.0914     2.0625   15 H    0 0 0
  41 C    1     1.3914     2.6293   43 C    0 0 0
  41 C    1     1.4026     2.6505   47 C    0 0 0
  41 C    1     2.1680     4.0970   17 H    0 0 0
  41 C    1     2.4182     4.5697   45 C    0-1 0
  41 C    1     2.4246     4.5817   37 C    0-1 0

  42 C    1     1.0914     2.0625   16 H    0 0 0
  42 C    1     1.3914     2.6293   44 C    0 0 0
  42 C    1     1.4026     2.6505   48 C    0 0 0
  42 C    1     2.1680     4.0970   18 H    0 0 0
  42 C    1     2.4182     4.5697   46 C    0-1 0
  42 C    1     2.4246     4.5817   38 C    0 0 0

  43 C    1     1.0914     2.0624   17 H    0 0 0
  43 C    1     1.3914     2.6293   41 C    0 0 0
  43 C    1     1.4020     2.6495   37 C    0-1 0
  43 C    1     2.1666     4.0942   15 H    0 0 0
  43 C    1     2.4177     4.5688   39 C    0-1 0
  43 C    1     2.4250     4.5826   47 C    0 0 0

  44 C    1     1.0914     2.0624   18 H    0 0 0
  44 C    1     1.3914     2.6293   42 C    0 0 0
  44 C    1     1.4020     2.6495   38 C    0 0 0
  44 C    1     2.1666     4.0942   16 H    0 0 0
  44 C    1     2.4177     4.5688   40 C    0-1 0
  44 C    1     2.4250     4.5826   48 C    0 0 0

  45 C    1     1.0915     2.0626   19 H    0 0 0
  45 C    1     1.3914     2.6294   39 C    0 0 0
  45 C    1     1.4025     2.6504   47 C    0 1 0
  45 C    1     2.1680     4.0969   13 H    0 0 0
  45 C    1     2.4182     4.5697   41 C    0 1 0
  45 C    1     2.4246     4.5818   37 C    0 0 0

  46 C    1     1.0915     2.0626   20 H    0 0 0
  46 C    1     1.3914     2.6294   40 C    0 0 0
  46 C    1     1.4025     2.6504   48 C    0 1 0
  46 C    1     2.1680     4.0969   14 H    0 0 0
  46 C    1     2.4182     4.5697   42 C    0 1 0
  46 C    1     2.4246     4.5818   38 C    0 1 0

  47 C    1     1.4025     2.6504   45 C    0-1 0
  47 C    1     1.4026     2.6505   41 C    0 0 0
  47 C    1     1.5513     2.9316    7 B    0 0 0
  47 C    1     2.1490     4.0610   19 H    0-1 0
  47 C    1     2.1493     4.0616   15 H    0 0 0
  47 C    1     2.4250     4.5825   39 C    0-1 0

  48 C    1     1.4025     2.6504   46 C    0-1 0
  48 C    1     1.4026     2.6505   42 C    0 0 0
  48 C    1     1.5513     2.9316    8 B    0 0 0
  48 C    1     2.1490     4.0610   20 H    0-1 0
  48 C    1     2.1493     4.0616   16 H    0 0 0
  48 C    1     2.4250     4.5825   40 C    0-1 0

  49 C    1     1.4020     2.6494   51 C    1 0 0
  49 C    1     1.4021     2.6495   55 C    0 0 0
  49 C    1     1.5503     2.9297    1 B    1 0 0
  49 C    1     2.1469     4.0571   21 H    1 0 0
  49 C    1     2.1475     4.0581   25 H    0 0 0
  49 C    1     2.4246     4.5818   53 C    0 0 0

  50 C    1     1.4020     2.6494   52 C    1 0 0
  50 C    1     1.4021     2.6495   56 C    0 0 0
  50 C    1     1.5503     2.9297    2 B    1 0 0
  50 C    1     2.1469     4.0571   22 H    1 0 0
  50 C    1     2.1475     4.0581   26 H    0 0 0
  50 C    1     2.4246     4.5818   54 C    0 0 0

  51 C    1     1.0913     2.0623   21 H    0 0 0
  51 C    1     1.3914     2.6293   57 C    0 0 0
  51 C    1     1.4020     2.6494   49 C   -1 0 0
  51 C    1     2.1666     4.0942   27 H    0 0 0
  51 C    1     2.4175     4.5684   55 C   -1 0 0
  51 C    1     2.4251     4.5828   59 C   -1 0 0

  52 C    1     1.0913     2.0623   22 H    0 0 0
  52 C    1     1.3914     2.6293   58 C    0 0 0
  52 C    1     1.4020     2.6494   50 C   -1 0 0
  52 C    1     2.1666     4.0942   28 H    0 0 0
  52 C    1     2.4175     4.5684   56 C   -1 0 0
  52 C    1     2.4251     4.5828   60 C   -1 0 0

  53 C    1     1.0914     2.0625   23 H    0 0 0
  53 C    1     1.3915     2.6295   55 C    0 0 0
  53 C    1     1.4026     2.6505   59 C    0 0 0
  53 C    1     2.1679     4.0967   25 H    0 0 0
  53 C    1     2.4179     4.5691   57 C    1 0 0
  53 C    1     2.4246     4.5818   49 C    0 0 0

  54 C    1     1.0914     2.0625   24 H    0 0 0
  54 C    1     1.3915     2.6295   56 C    0 0 0
  54 C    1     1.4026     2.6505   60 C    0 0 0
  54 C    1     2.1679     4.0967   26 H    0 0 0
  54 C    1     2.4179     4.5691   58 C    1 0 0
  54 C    1     2.4246     4.5818   50 C    0 0 0

  55 C    1     1.0914     2.0624   25 H    0 0 0
  55 C    1     1.3915     2.6295   53 C    0 0 0
  55 C    1     1.4021     2.6495   49 C    0 0 0
  55 C    1     2.1664     4.0939   23 H    0 0 0
  55 C    1     2.4175     4.5684   51 C    1 0 0
  55 C    1     2.4253     4.5832   59 C    0 0 0

  56 C    1     1.0914     2.0624   26 H    0 0 0
  56 C    1     1.3915     2.6295   54 C    0 0 0
  56 C    1     1.4021     2.6495   50 C    0 0 0
  56 C    1     2.1664     4.0939   24 H    0 0 0
  56 C    1     2.4175     4.5684   52 C    1 0 0
  56 C    1     2.4253     4.5832   60 C    0 0 0

  57 C    1     1.0914     2.0625   27 H    0 0 0
  57 C    1     1.3914     2.6293   51 C    0 0 0
  57 C    1     1.4025     2.6504   59 C   -1 0 0
  57 C    1     2.1680     4.0968   21 H    0 0 0
  57 C    1     2.4179     4.5691   53 C   -1 0 0
  57 C    1     2.4247     4.5819   49 C   -1 0 0

  58 C    1     1.0914     2.0625   28 H    0 0 0
  58 C    1     1.3914     2.6293   52 C    0 0 0
  58 C    1     1.4025     2.6504   60 C   -1 0 0
  58 C    1     2.1680     4.0968   22 H    0 0 0
  58 C    1     2.4179     4.5691   54 C   -1 0 0
  58 C    1     2.4247     4.5819   50 C   -1 0 0

  59 C    1     1.4025     2.6504   57 C    1 0 0
  59 C    1     1.4026     2.6505   53 C    0 0 0
  59 C    1     1.5516     2.9322   11 B    0 0 0
  59 C    1     2.1491     4.0612   27 H    1 0 0
  59 C    1     2.1493     4.0617   23 H    0 0 0
  59 C    1     2.4251     4.5828   51 C    1 0 0

  60 C    1     1.4025     2.6504   58 C    1 0 0
  60 C    1     1.4026     2.6505   54 C    0 0 0
  60 C    1     1.5516     2.9322   12 B    0 0 0
  60 C    1     2.1491     4.0612   28 H    1 0 0
  60 C    1     2.1493     4.0617   24 H    0 0 0
  60 C    1     2.4251     4.5828   52 C    1 0 0

  61 C    1     1.4021     2.6496   63 C    1 1 0
  61 C    1     1.4021     2.6497   67 C    0 0 0
  61 C    1     1.5502     2.9294    5 B    1 1 0
  61 C    1     2.1475     4.0582   29 H    1 1 0
  61 C    1     2.1479     4.0589   33 H    0 0 0
  61 C    1     2.4244     4.5814   65 C    0 0 0

  62 C    1     1.4021     2.6496   64 C    0 0 0
  62 C    1     1.4021     2.6497   68 C   -1-1 0
  62 C    1     1.5502     2.9294    6 B    0 0 0
  62 C    1     2.1475     4.0582   30 H    0 0 0
  62 C    1     2.1479     4.0589   34 H   -1-1 0
  62 C    1     2.4244     4.5814   66 C   -1-1 0

  63 C    1     1.0914     2.0624   29 H    0 0 0
  63 C    1     1.3914     2.6293   69 C    0 0 0
  63 C    1     1.4021     2.6496   61 C   -1-1 0
  63 C    1     2.1668     4.0947   35 H    0 0 0
  63 C    1     2.4179     4.5692   67 C   -1-1 0
  63 C    1     2.4251     4.5827   71 C   -1-1 0

  64 C    1     1.0914     2.0624   30 H    0 0 0
  64 C    1     1.3914     2.6293   70 C    0 0 0
  64 C    1     1.4021     2.6496   62 C    0 0 0
  64 C    1     2.1668     4.0947   36 H    0 0 0
  64 C    1     2.4179     4.5692   68 C   -1-1 0
  64 C    1     2.4251     4.5827   72 C    0 0 0

  65 C    1     1.0913     2.0623   31 H    0 0 0
  65 C    1     1.3914     2.6294   67 C    0 0 0
  65 C    1     1.4025     2.6504   71 C    0 0 0
  65 C    1     2.1679     4.0968   33 H    0 0 0
  65 C    1     2.4178     4.5690   69 C    1 1 0
  65 C    1     2.4244     4.5814   61 C    0 0 0

  66 C    1     1.0913     2.0623   32 H    0 0 0
  66 C    1     1.3914     2.6294   68 C    0 0 0
  66 C    1     1.4025     2.6504   72 C    1 1 0
  66 C    1     2.1679     4.0968   34 H    0 0 0
  66 C    1     2.4178     4.5690   70 C    1 1 0
  66 C    1     2.4244     4.5814   62 C    1 1 0

  67 C    1     1.0915     2.0626   33 H    0 0 0
  67 C    1     1.3914     2.6294   65 C    0 0 0
  67 C    1     1.4021     2.6497   61 C    0 0 0
  67 C    1     2.1667     4.0945   31 H    0 0 0
  67 C    1     2.4179     4.5692   63 C    1 1 0
  67 C    1     2.4253     4.5832   71 C    0 0 0

  68 C    1     1.0915     2.0626   34 H    0 0 0
  68 C    1     1.3914     2.6294   66 C    0 0 0
  68 C    1     1.4021     2.6497   62 C    1 1 0
  68 C    1     2.1667     4.0945   32 H    0 0 0
  68 C    1     2.4179     4.5692   64 C    1 1 0
  68 C    1     2.4253     4.5832   72 C    1 1 0

  69 C    1     1.0914     2.0624   35 H    0 0 0
  69 C    1     1.3914     2.6293   63 C    0 0 0
  69 C    1     1.4025     2.6503   71 C   -1-1 0
  69 C    1     2.1678     4.0966   29 H    0 0 0
  69 C    1     2.4178     4.5690   65 C   -1-1 0
  69 C    1     2.4245     4.5817   61 C   -1-1 0

  70 C    1     1.0914     2.0624   36 H    0 0 0
  70 C    1     1.3914     2.6293   64 C    0 0 0
  70 C    1     1.4025     2.6503   72 C    0 0 0
  70 C    1     2.1678     4.0966   30 H    0 0 0
  70 C    1     2.4178     4.5690   66 C   -1-1 0
  70 C    1     2.4245     4.5817   62 C    0 0 0

  71 C    1     1.4025     2.6503   69 C    1 1 0
  71 C    1     1.4025     2.6504   65 C    0 0 0
  71 C    1     1.5516     2.9322    9 B    0 0 0
  71 C    1     2.1486     4.0602   35 H    1 1 0
  71 C    1     2.1487     4.0605   31 H    0 0 0
  71 C    1     2.4251     4.5827   63 C    1 1 0

  72 C    1     1.4025     2.6503   70 C    0 0 0
  72 C    1     1.4025     2.6504   66 C   -1-1 0
  72 C    1     1.5516     2.9322   10 B    0 0 0
  72 C    1     2.1486     4.0602   36 H    0 0 0
  72 C    1     2.1487     4.0605   32 H   -1-1 0
  72 C    1     2.4251     4.5827   64 C    0 0 0

  73 O    1     1.3791     2.6061    1 B    1 0 0
  73 O    1     1.3791     2.6061    5 B    1 1 0
  73 O    1     2.3880     4.5126   75 O    1 0 0
  73 O    1     2.3882     4.5130   77 O    1 1 0
  73 O    1     2.5383     4.7966   61 C    0 0 0
  73 O    1     2.5384     4.7968   49 C    0 0 0

  74 O    1     1.3791     2.6061    2 B    1 0 0
  74 O    1     1.3791     2.6061    6 B    1 1 0
  74 O    1     2.3880     4.5126   76 O    1 0 0
  74 O    1     2.3882     4.5130   78 O    1 1 0
  74 O    1     2.5383     4.7966   62 C    1 1 0
  74 O    1     2.5384     4.7968   50 C    0 0 0

  75 O    1     1.3793     2.6065    1 B    0 0 0
  75 O    1     1.3793     2.6065    3 B    0 0 0
  75 O    1     2.3880     4.5126   73 O   -1 0 0
  75 O    1     2.3882     4.5131   77 O    0 1 0
  75 O    1     2.5391     4.7981   37 C    0 0 0
  75 O    1     2.5395     4.7990   49 C   -1 0 0

  76 O    1     1.3793     2.6065    2 B    0 0 0
  76 O    1     1.3793     2.6065    4 B    0 1 0
  76 O    1     2.3880     4.5126   74 O   -1 0 0
  76 O    1     2.3882     4.5131   78 O    0 1 0
  76 O    1     2.5391     4.7981   38 C    0 1 0
  76 O    1     2.5395     4.7990   50 C   -1 0 0

  77 O    1     1.3793     2.6064    5 B    0 0 0
  77 O    1     1.3793     2.6065    3 B    0-1 0
  77 O    1     2.3882     4.5130   73 O   -1-1 0
  77 O    1     2.3882     4.5131   75 O    0-1 0
  77 O    1     2.5390     4.7980   37 C    0-1 0
  77 O    1     2.5391     4.7982   61 C   -1-1 0

  78 O    1     1.3793     2.6064    6 B    0 0 0
  78 O    1     1.3793     2.6065    4 B    0 0 0
  78 O    1     2.3882     4.5130   74 O   -1-1 0
  78 O    1     2.3882     4.5131   76 O    0-1 0
  78 O    1     2.5390     4.7980   38 C    0 0 0
  78 O    1     2.5391     4.7982   62 C    0 0 0

  79 O    1     1.3795     2.6068   11 B    0 0 0
  79 O    1     1.3795     2.6068    7 B    0 0 0
  79 O    1     2.3880     4.5126   83 O    1 0 0
  79 O    1     2.3884     4.5134   81 O    0-1 0
  79 O    1     2.5400     4.7998   47 C    0 0 0
  79 O    1     2.5403     4.8005   59 C    0 0 0

  80 O    1     1.3795     2.6068   12 B    0 0 0
  80 O    1     1.3795     2.6068    8 B    0 0 0
  80 O    1     2.3880     4.5126   84 O    1 0 0
  80 O    1     2.3884     4.5134   82 O    0-1 0
  80 O    1     2.5400     4.7998   48 C    0 0 0
  80 O    1     2.5403     4.8005   60 C    0 0 0

  81 O    1     1.3795     2.6069    9 B    0 0 0
  81 O    1     1.3795     2.6070    7 B    0 1 0
  81 O    1     2.3881     4.5128   83 O    1 1 0
  81 O    1     2.3884     4.5134   79 O    0 1 0
  81 O    1     2.5404     4.8006   47 C    0 1 0
  81 O    1     2.5405     4.8008   71 C    0 0 0

  82 O    1     1.3795     2.6069   10 B    1 1 0
  82 O    1     1.3795     2.6070    8 B    0 1 0
  82 O    1     2.3881     4.5128   84 O    1 1 0
  82 O    1     2.3884     4.5134   80 O    0 1 0
  82 O    1     2.5404     4.8006   48 C    0 1 0
  82 O    1     2.5405     4.8008   72 C    1 1 0

  83 O    1     1.3796     2.6071   11 B   -1 0 0
  83 O    1     1.3797     2.6072    9 B   -1-1 0
  83 O    1     2.3880     4.5126   79 O   -1 0 0
  83 O    1     2.3881     4.5128   81 O   -1-1 0
  83 O    1     2.5409     4.8016   71 C   -1-1 0
  83 O    1     2.5410     4.8019   59 C   -1 0 0

  84 O    1     1.3796     2.6071   12 B   -1 0 0
  84 O    1     1.3797     2.6072   10 B    0 0 0
  84 O    1     2.3880     4.5126   80 O   -1 0 0
  84 O    1     2.3881     4.5128   82 O   -1-1 0
  84 O    1     2.5409     4.8016   72 C    0 0 0
  84 O    1     2.5410     4.8019   60 C   -1 0 0


 SYMMETRY ALLOWED INTERNAL DEGREE(S) OF FREEDOM: 249
 TTTTTTTTTTTTTTTTTTTTTTTTTTTTTT SYMM        TELAPSE        3.16 TCPU        3.16
 TTTTTTTTTTTTTTTTTTTTTTTTTTTTTT INT_SCREEN  TELAPSE        3.37 TCPU        3.37

 DFT PARAMETERS

     ATOM       ELECTRONS   NET CHARGE   R(ANGSTROM)
   1   5  B       5.0000      0.0000     0.89000000
  13   1  H       1.0000      0.0000     1.11000000
  37   6  C       6.0000      0.0000     0.77000000
  73   8  O       8.0000      0.0000     0.74000000

 SIZE OF GRID=    2421493
 TTTTTTTTTTTTTTTTTTTTTTTTTTTTTT MAKE_GRID2  TELAPSE       31.84 TCPU       31.82
 BECKE WEIGHT FUNCTION
 RADSAFE =     2.00
 TOLERANCES - DENSITY:10**- 6; POTENTIAL:10**- 9; GRID WGT:10**-14

 RADIAL INTEGRATION  - INTERVALS (POINTS,UPPER LIMIT):            1( 75,  4.0*R)

 ANGULAR INTEGRATION - INTERVALS (ACCURACY LEVEL [N. POINTS] UPPER LIMIT):
  1(  4[  86]   0.2)  2(  8[ 194]   0.5)  3( 12[ 350]   0.9)  4( 16[ 974]   3.5)
  5( 12[ 350]9999.0)
 TTTTTTTTTTTTTTTTTTTTTTTTTTTTTT INT_CALC    TELAPSE       32.20 TCPU       32.17
 EEEEEEEEEE INT_CALC TERMINATION  DATE 19 02 2026 TIME 19:35:39.7

 *******************************************************************************
 cof-1_z31_L010_serr                                                             
 CRYSTAL - SCF - TYPE OF CALCULATION :  RESTRICTED CLOSED SHELL
 *******************************************************************************

 CAPPA:IS1  2;IS2  2;IS3  8; K PTS MONK NET  20; SYMMOPS:K SPACE   2;G SPACE   1

 TTTTTTTTTTTTTTTTTTTTTTTTTTTTTT SDIK        TELAPSE       34.08 TCPU       59.02

 AAAAAAAAAAAAAAAAAAAAAAAAAAAAAAAAAAAAAAAAAAAAAAAAAAAAAAAAAAAAAAAAAAAAAAAAAAAAAAA
         ATOMIC WAVEFUNCTION(S)


 NUCLEAR CHARGE  5.0  SYMMETRY SPECIES            S    P
 N. ELECTRONS    5.0  NUMBER OF PRIMITIVE GTOS    8    4
                      NUMBER OF CONTRACTED GTOS   4    2
                      NUMBER OF CLOSED SHELLS     2    0
                      OPEN SHELL OCCUPATION       0    1

  ZNUC  SCFIT    TOTAL HF ENERGY   KINETIC ENERGY   VIRIAL THEOREM ACCURACY
   5.0    11    -2.451164084E+01  2.462155050E+01 -1.995536038E+00  1.5E-06

 NUCLEAR CHARGE  1.0  SYMMETRY SPECIES            S
 N. ELECTRONS    1.0  NUMBER OF PRIMITIVE GTOS    4
                      NUMBER OF CONTRACTED GTOS   2
                      NUMBER OF CLOSED SHELLS     0
                      OPEN SHELL OCCUPATION       1

  ZNUC  SCFIT    TOTAL HF ENERGY   KINETIC ENERGY   VIRIAL THEOREM ACCURACY
   1.0     1    -4.977266687E-01  5.190767460E-01 -1.958869132E+00  0.0E+00

 NUCLEAR CHARGE  6.0  SYMMETRY SPECIES            S    P
 N. ELECTRONS    6.0  NUMBER OF PRIMITIVE GTOS    8    4
                      NUMBER OF CONTRACTED GTOS   4    2
                      NUMBER OF CLOSED SHELLS     2    0
                      OPEN SHELL OCCUPATION       0    2

  ZNUC  SCFIT    TOTAL HF ENERGY   KINETIC ENERGY   VIRIAL THEOREM ACCURACY
   6.0     9    -3.766704647E+01  3.775180683E+01 -1.997754800E+00  1.1E-06

 NUCLEAR CHARGE  8.0  SYMMETRY SPECIES            S    P
 N. ELECTRONS    8.0  NUMBER OF PRIMITIVE GTOS    8    4
                      NUMBER OF CONTRACTED GTOS   4    2
                      NUMBER OF CLOSED SHELLS     2    0
                      OPEN SHELL OCCUPATION       0    4

  ZNUC  SCFIT    TOTAL HF ENERGY   KINETIC ENERGY   VIRIAL THEOREM ACCURACY
   8.0    12    -7.477373220E+01  7.477365593E+01 -2.000001020E+00  3.8E-06

 AAAAAAAAAAAAAAAAAAAAAAAAAAAAAAAAAAAAAAAAAAAAAAAAAAAAAAAAAAAAAAAAAAAAAAAAAAAAAAA

 CHARGE NORMALIZATION FACTOR   1.00000000
 TOTAL ATOMIC CHARGES:
   5.0000000   5.0000000   5.0000000   5.0000000   5.0000000   5.0000000
   5.0000000   5.0000000   5.0000000   5.0000000   5.0000000   5.0000000
   1.0000000   1.0000000   1.0000000   1.0000000   1.0000000   1.0000000
   1.0000000   1.0000000   1.0000000   1.0000000   1.0000000   1.0000000
   1.0000000   1.0000000   1.0000000   1.0000000   1.0000000   1.0000000
   1.0000000   1.0000000   1.0000000   1.0000000   1.0000000   1.0000000
   6.0000000   6.0000000   6.0000000   6.0000000   6.0000000   6.0000000
   6.0000000   6.0000000   6.0000000   6.0000000   6.0000000   6.0000000
   6.0000000   6.0000000   6.0000000   6.0000000   6.0000000   6.0000000
   6.0000000   6.0000000   6.0000000   6.0000000   6.0000000   6.0000000
   6.0000000   6.0000000   6.0000000   6.0000000   6.0000000   6.0000000
   6.0000000   6.0000000   6.0000000   6.0000000   6.0000000   6.0000000
   8.0000000   8.0000000   8.0000000   8.0000000   8.0000000   8.0000000
   8.0000000   8.0000000   8.0000000   8.0000000   8.0000000   8.0000000
 TTTTTTTTTTTTTTTTTTTTTTTTTTTTTT MOQGAD      TELAPSE       34.20 TCPU       62.89
 TTTTTTTTTTTTTTTTTTTTTTTTTTTTTT SHELLXN     TELAPSE       68.31 TCPU     1153.21
 TTTTTTTTTTTTTTTTTTTTTTTTTTTTTT MONMO3      TELAPSE       69.07 TCPU     1177.45
 NUMERICALLY INTEGRATED DENSITY    396.0002805244
 TTTTTTTTTTTTTTTTTTTTTTTTTTTTTT NUMDFT      TELAPSE       70.84 TCPU     1234.05
 CYC   0 ETOT(AU) -2.592152571631E+03 DETOT -2.59E+03 tst  0.00E+00 PX  1.00E+00
 TTTTTTTTTTTTTTTTTTTTTTTTTTTTTT DIIS        TELAPSE       70.95 TCPU     1237.60
 TTTTTTTTTTTTTTTTTTTTTTTTTTTTTT FDIK        TELAPSE       72.70 TCPU     1293.38
 INSULATING STATE
 TOP OF VALENCE BANDS -    BAND    198; K    3; EIG -2.7835591E-01 AU
 TOP OF VALENCE BANDS -    BAND    198; K    1; EIG -2.7836436E-01 AU
 BOTTOM OF VIRTUAL BANDS - BAND    199; K    1; EIG -1.7996656E-01 AU
 INDIRECT ENERGY BAND GAP:   2.6773 eV
 TTTTTTTTTTTTTTTTTTTTTTTTTTTTTT PDIG        TELAPSE       74.38 TCPU     1300.45
 CHARGE NORMALIZATION FACTOR   1.00000000
 TOTAL ATOMIC CHARGES:
   4.1292894   4.1103559   4.1070630   4.1152773   4.1072638   4.1155051
   4.1152804   4.1071611   4.1151278   4.1069576   4.1102554   4.1289889
   0.7863186   0.7871651   0.7872776   0.7864339   0.7861246   0.7864898
   0.7866020   0.7862446   0.7866299   0.7858952   0.7860651   0.7867922
   0.7866191   0.7858877   0.7860253   0.7867533   0.7861317   0.7864903
   0.7866690   0.7863164   0.7862701   0.7871147   0.7872715   0.7864255
   6.0760078   6.0445721   6.2847518   6.2652319   6.2651756   6.2846915
   6.2549557   6.2856375   6.2855764   6.2548252   6.0437487   6.0751897
   6.0396900   6.0764804   6.2668930   6.2735046   6.2735249   6.2669708
   6.2667875   6.2734517   6.2735313   6.2669955   6.0752038   6.0383758
   6.0764009   6.0449550   6.2547232   6.2854079   6.2859645   6.2552178
   6.2843872   6.2648446   6.2654752   6.2849611   6.0432222   6.0746812
   8.7135557   8.7087181   8.7136445   8.7088272   8.7120197   8.7038069
   8.7090763   8.7139486   8.7041531   8.7123457   8.7092193   8.7141317
 TTTTTTTTTTTTTTTTTTTTTTTTTTTTTT MOQGAD      TELAPSE       74.50 TCPU     1300.57
 TTTTTTTTTTTTTTTTTTTTTTTTTTTTTT SHELLXN     TELAPSE      109.97 TCPU     2432.95
 TTTTTTTTTTTTTTTTTTTTTTTTTTTTTT MONMO3      TELAPSE      110.73 TCPU     2457.15
 NUMERICALLY INTEGRATED DENSITY    396.0001800381
 TTTTTTTTTTTTTTTTTTTTTTTTTTTTTT NUMDFT      TELAPSE      112.53 TCPU     2514.77
 CYC   1 ETOT(AU) -2.577600712848E+03 DETOT  1.46E+01 tst  0.00E+00 PX  1.00E+00
 TTTTTTTTTTTTTTTTTTTTTTTTTTTTTT DIIS        TELAPSE      112.67 TCPU     2519.25
 DIIS TEST: 0.23246E+01 AT SCF   CYCLE   1 - MIX   30 %
 TTTTTTTTTTTTTTTTTTTTTTTTTTTTTT FDIK        TELAPSE      114.44 TCPU     2575.72
 INSULATING STATE
 TOP OF VALENCE BANDS -    BAND    198; K    4; EIG -1.7591850E-01 AU
 TOP OF VALENCE BANDS -    BAND    198; K    1; EIG -1.7593465E-01 AU
 BOTTOM OF VIRTUAL BANDS - BAND    199; K    1; EIG -9.9177345E-02 AU
 INDIRECT ENERGY BAND GAP:   2.0882 eV
 TTTTTTTTTTTTTTTTTTTTTTTTTTTTTT PDIG        TELAPSE      116.12 TCPU     2582.79
 CHARGE NORMALIZATION FACTOR   1.00000000
 TOTAL ATOMIC CHARGES:
   4.6651429   4.7063884   4.6837762   4.6605782   4.6837992   4.6605210
   4.6612201   4.6845500   4.6612580   4.6845634   4.7070940   4.6659725
   0.9273982   0.9273435   0.9274658   0.9274634   0.9232538   0.9306176
   0.9306862   0.9232478   0.9278006   0.9207866   0.9208226   0.9279799
   0.9277938   0.9207885   0.9208014   0.9279546   0.9232470   0.9306025
   0.9307544   0.9233286   0.9273515   0.9272875   0.9274788   0.9274454
   5.8915655   5.8411263   6.1481110   6.0748148   6.0754143   6.1486584
   6.1110927   6.1448643   6.1455330   6.1120190   5.8442203   5.8946235
   5.8058865   5.9243817   6.1088151   6.1327963   6.1337557   6.1095907
   6.1090894   6.1330455   6.1336353   6.1094492   5.9281155   5.8096961
   5.8914132   5.8410803   6.1111731   6.1449050   6.1453623   6.1118740
   6.1483906   6.0750224   6.0751913   6.1483956   5.8444158   5.8948979
   8.3515227   8.3690288   8.3519453   8.3693779   8.3922178   8.3379270
   8.3688990   8.3513608   8.3375885   8.3919703   8.3693754   8.3518004
 TTTTTTTTTTTTTTTTTTTTTTTTTTTTTT MOQGAD      TELAPSE      116.25 TCPU     2582.92
 TTTTTTTTTTTTTTTTTTTTTTTTTTTTTT SHELLXN     TELAPSE      151.72 TCPU     3715.32
 TTTTTTTTTTTTTTTTTTTTTTTTTTTTTT MONMO3      TELAPSE      152.47 TCPU     3739.54
 NUMERICALLY INTEGRATED DENSITY    396.0001996800
 TTTTTTTTTTTTTTTTTTTTTTTTTTTTTT NUMDFT      TELAPSE      154.28 TCPU     3797.13
 CYC   2 ETOT(AU) -2.577970490739E+03 DETOT -3.70E-01 tst  3.85E-03 PX  1.56E-01
 TTTTTTTTTTTTTTTTTTTTTTTTTTTTTT DIIS        TELAPSE      154.44 TCPU     3802.31
 DIIS TEST: 0.10690E+01 AT SCF   CYCLE   2 - DIIS ACTIVE - HISTORY:     2 CYCLES
 TTTTTTTTTTTTTTTTTTTTTTTTTTTTTT FDIK        TELAPSE      156.21 TCPU     3858.90
 INSULATING STATE
 TOP OF VALENCE BANDS -    BAND    198; K    3; EIG -1.9465859E-01 AU
 TOP OF VALENCE BANDS -    BAND    198; K    1; EIG -1.9498683E-01 AU
 BOTTOM OF VIRTUAL BANDS - BAND    199; K    1; EIG -9.4558996E-02 AU
 INDIRECT ENERGY BAND GAP:   2.7238 eV
 TTTTTTTTTTTTTTTTTTTTTTTTTTTTTT PDIG        TELAPSE      157.88 TCPU     3865.96
 CHARGE NORMALIZATION FACTOR   1.00000000
 TOTAL ATOMIC CHARGES:
   4.4514748   4.4498801   4.4432141   4.4398204   4.4434315   4.4399160
   4.4388832   4.4425057   4.4387098   4.4423120   4.4488453   4.4501978
   0.9004306   0.8861174   0.8861086   0.9006459   0.8872886   0.8994723
   0.8995696   0.8873571   0.8903678   0.8915535   0.8919173   0.8904801
   0.8904242   0.8916301   0.8918292   0.8903957   0.8872861   0.8994711
   0.8996197   0.8874410   0.9004567   0.8861375   0.8860602   0.9005843
   5.9026969   5.9100012   6.1667742   6.1783811   6.1773596   6.1656817
   6.1693760   6.1772019   6.1760895   6.1677870   5.9073315   5.9001740
   5.9210689   5.9066245   6.1797437   6.1613674   6.1598160   6.1787999
   6.1798212   6.1614456   6.1596825   6.1787823   5.9037446   5.9177874
   5.9029725   5.9103827   6.1694088   6.1771157   6.1762127   6.1678999
   6.1667174   6.1783253   6.1773566   6.1656826   5.9069374   5.8997335
   8.5212695   8.5210672   8.5214321   8.5211308   8.5245191   8.5113853
   8.5210052   8.5213813   8.5116379   8.5243563   8.5211372   8.5215591
 TTTTTTTTTTTTTTTTTTTTTTTTTTTTTT MOQGAD      TELAPSE      158.00 TCPU     3866.09
 TTTTTTTTTTTTTTTTTTTTTTTTTTTTTT SHELLXN     TELAPSE      193.48 TCPU     4998.60
 TTTTTTTTTTTTTTTTTTTTTTTTTTTTTT MONMO3      TELAPSE      194.23 TCPU     5022.81
 NUMERICALLY INTEGRATED DENSITY    396.0002015189
 TTTTTTTTTTTTTTTTTTTTTTTTTTTTTT NUMDFT      TELAPSE      196.04 TCPU     5080.40
 CYC   3 ETOT(AU) -2.578185371474E+03 DETOT -2.15E-01 tst  6.13E-04 PX  5.98E-02
 TTTTTTTTTTTTTTTTTTTTTTTTTTTTTT DIIS        TELAPSE      196.22 TCPU     5086.18
 DIIS TEST: 0.35210E-01 AT SCF   CYCLE   3 - DIIS ACTIVE - HISTORY:     3 CYCLES
 TTTTTTTTTTTTTTTTTTTTTTTTTTTTTT FDIK        TELAPSE      197.98 TCPU     5142.63
 INSULATING STATE
 TOP OF VALENCE BANDS -    BAND    198; K    4; EIG -2.0127002E-01 AU
 TOP OF VALENCE BANDS -    BAND    198; K    1; EIG -2.0127488E-01 AU
 BOTTOM OF VIRTUAL BANDS - BAND    199; K    1; EIG -1.0434368E-01 AU
 INDIRECT ENERGY BAND GAP:   2.6375 eV
 TTTTTTTTTTTTTTTTTTTTTTTTTTTTTT PDIG        TELAPSE      199.67 TCPU     5149.70
 CHARGE NORMALIZATION FACTOR   1.00000000
 TOTAL ATOMIC CHARGES:
   4.4648824   4.4678240   4.4549607   4.4498475   4.4551134   4.4498584
   4.4513067   4.4564718   4.4512183   4.4563556   4.4691374   4.4665311
   0.8815629   0.8836020   0.8838442   0.8815176   0.8783463   0.8846636
   0.8847417   0.8782979   0.8848086   0.8768581   0.8767079   0.8851412
   0.8848393   0.8768876   0.8766518   0.8850936   0.8783733   0.8846692
   0.8847905   0.8783516   0.8815692   0.8835904   0.8838215   0.8814603
   5.9819958   5.9227086   6.1828156   6.1253261   6.1273636   6.1847029
   6.1462715   6.1721645   6.1743889   6.1495076   5.9297080   5.9888006
   5.8952449   6.0117668   6.1382500   6.1700764   6.1730411   6.1402153
   6.1382326   6.1701210   6.1730907   6.1402986   6.0189952   5.9029872
   5.9817835   5.9226067   6.1461573   6.1720355   6.1744353   6.1496546
   6.1826905   6.1251501   6.1275314   6.1848391   5.9298397   5.9889659
   8.5007758   8.5154241   8.5011254   8.5156891   8.5319802   8.4855862
   8.5157755   8.5008691   8.4854615   8.5323823   8.5162038   8.5012661
 TTTTTTTTTTTTTTTTTTTTTTTTTTTTTT MOQGAD      TELAPSE      199.79 TCPU     5149.82
 TTTTTTTTTTTTTTTTTTTTTTTTTTTTTT SHELLXN     TELAPSE      235.27 TCPU     6282.39
 TTTTTTTTTTTTTTTTTTTTTTTTTTTTTT MONMO3      TELAPSE      236.02 TCPU     6306.61
 NUMERICALLY INTEGRATED DENSITY    396.0001985992
 TTTTTTTTTTTTTTTTTTTTTTTTTTTTTT NUMDFT      TELAPSE      237.83 TCPU     6364.24
 CYC   4 ETOT(AU) -2.578190877469E+03 DETOT -5.51E-03 tst  1.10E-04 PX  2.69E-02
 TTTTTTTTTTTTTTTTTTTTTTTTTTTTTT DIIS        TELAPSE      238.03 TCPU     6370.69
 DIIS TEST: 0.13853E-01 AT SCF   CYCLE   4 - DIIS ACTIVE - HISTORY:     4 CYCLES
 TTTTTTTTTTTTTTTTTTTTTTTTTTTTTT FDIK        TELAPSE      239.80 TCPU     6427.21
 INSULATING STATE
 TOP OF VALENCE BANDS -    BAND    198; K    4; EIG -2.0269361E-01 AU
 TOP OF VALENCE BANDS -    BAND    198; K    1; EIG -2.0270338E-01 AU
 BOTTOM OF VIRTUAL BANDS - BAND    199; K    1; EIG -1.0368704E-01 AU
 INDIRECT ENERGY BAND GAP:   2.6941 eV
 TTTTTTTTTTTTTTTTTTTTTTTTTTTTTT PDIG        TELAPSE      241.47 TCPU     6434.27
 CHARGE NORMALIZATION FACTOR   1.00000000
 TOTAL ATOMIC CHARGES:
   4.4612766   4.4717212   4.4598275   4.4510710   4.4600219   4.4511508
   4.4495621   4.4586713   4.4494138   4.4585180   4.4703486   4.4594472
   0.8846060   0.8791434   0.8791036   0.8849479   0.8773080   0.8849900
   0.8851587   0.8774867   0.8803535   0.8779875   0.8784984   0.8804119
   0.8803821   0.8780300   0.8784383   0.8803570   0.8772999   0.8849870
   0.8852116   0.8775756   0.8845962   0.8791321   0.8790779   0.8849108
   5.9488889   5.9276123   6.1786977   6.1526924   6.1504961   6.1764434
   6.1629871   6.1862143   6.1836817   6.1593414   5.9211008   5.9427606
   5.9178022   5.9638071   6.1697248   6.1691935   6.1661064   6.1678259
   6.1699380   6.1693967   6.1658992   6.1676854   5.9578078   5.9109281
   5.9491124   5.9279472   6.1630300   6.1861320   6.1837352   6.1593808
   6.1787930   6.1527736   6.1503923   6.1763301   5.9207925   5.9424292
   8.5037413   8.5095476   8.5039427   8.5096486   8.5209708   8.4932366
   8.5091810   8.5037295   8.4933836   8.5203761   8.5093864   8.5039517
 TTTTTTTTTTTTTTTTTTTTTTTTTTTTTT MOQGAD      TELAPSE      241.59 TCPU     6434.39
 TTTTTTTTTTTTTTTTTTTTTTTTTTTTTT SHELLXN     TELAPSE      277.06 TCPU     7566.72
 TTTTTTTTTTTTTTTTTTTTTTTTTTTTTT MONMO3      TELAPSE      277.82 TCPU     7590.93
 NUMERICALLY INTEGRATED DENSITY    396.0001984244
 TTTTTTTTTTTTTTTTTTTTTTTTTTTTTT NUMDFT      TELAPSE      279.62 TCPU     7648.51
 CYC   5 ETOT(AU) -2.578194134367E+03 DETOT -3.26E-03 tst  4.15E-05 PX  1.35E-02
 TTTTTTTTTTTTTTTTTTTTTTTTTTTTTT DIIS        TELAPSE      279.84 TCPU     7655.32
 DIIS TEST: 0.10508E-02 AT SCF   CYCLE   5 - DIIS ACTIVE - HISTORY:     5 CYCLES
 TTTTTTTTTTTTTTTTTTTTTTTTTTTTTT FDIK        TELAPSE      281.61 TCPU     7711.59
 INSULATING STATE
 TOP OF VALENCE BANDS -    BAND    198; K    4; EIG -2.0162246E-01 AU
 TOP OF VALENCE BANDS -    BAND    198; K    1; EIG -2.0163200E-01 AU
 BOTTOM OF VIRTUAL BANDS - BAND    199; K    1; EIG -1.0299445E-01 AU
 INDIRECT ENERGY BAND GAP:   2.6838 eV
 TTTTTTTTTTTTTTTTTTTTTTTTTTTTTT PDIG        TELAPSE      283.30 TCPU     7718.67
 CHARGE NORMALIZATION FACTOR   1.00000000
 TOTAL ATOMIC CHARGES:
   4.4612201   4.4682712   4.4570447   4.4496645   4.4572086   4.4496919
   4.4517619   4.4590778   4.4516629   4.4589537   4.4700293   4.4634560
   0.8864486   0.8808773   0.8811669   0.8862969   0.8788588   0.8875934
   0.8876137   0.8787272   0.8833528   0.8799894   0.8797376   0.8837525
   0.8833969   0.8800399   0.8796663   0.8836871   0.8788771   0.8875925
   0.8876669   0.8787912   0.8864645   0.8808732   0.8811397   0.8862373
   5.9411305   5.9126364   6.1781482   6.1499643   6.1530580   6.1810486
   6.1570085   6.1777509   6.1813619   6.1622505   5.9232310   5.9513152
   5.9021505   5.9585768   6.1601553   6.1674730   6.1716920   6.1629579
   6.1600690   6.1674297   6.1717614   6.1631024   5.9684625   5.9128786
   5.9410281   5.9126640   6.1569586   6.1776542   6.1814281   6.1623858
   6.1779798   6.1497629   6.1532214   6.1811966   5.9232214   5.9513183
   8.5056438   8.5127472   8.5059545   8.5129680   8.5228088   8.4930270
   8.5133232   8.5057870   8.4930079   8.5236226   8.5136614   8.5061263
 TTTTTTTTTTTTTTTTTTTTTTTTTTTTTT MOQGAD      TELAPSE      283.42 TCPU     7718.79
 TTTTTTTTTTTTTTTTTTTTTTTTTTTTTT SHELLXN     TELAPSE      318.89 TCPU     8851.20
 TTTTTTTTTTTTTTTTTTTTTTTTTTTTTT MONMO3      TELAPSE      319.65 TCPU     8875.41
 NUMERICALLY INTEGRATED DENSITY    396.0001984905
 TTTTTTTTTTTTTTTTTTTTTTTTTTTTTT NUMDFT      TELAPSE      321.45 TCPU     8933.00
 CYC   6 ETOT(AU) -2.578194170821E+03 DETOT -3.65E-05 tst  7.65E-06 PX  3.92E-03
 TTTTTTTTTTTTTTTTTTTTTTTTTTTTTT DIIS        TELAPSE      321.70 TCPU     8939.92
 DIIS TEST: 0.98086E-03 AT SCF   CYCLE   6 - DIIS ACTIVE - HISTORY:     6 CYCLES
 TTTTTTTTTTTTTTTTTTTTTTTTTTTTTT FDIK        TELAPSE      323.48 TCPU     8996.30
 INSULATING STATE
 TOP OF VALENCE BANDS -    BAND    198; K    4; EIG -2.0155136E-01 AU
 TOP OF VALENCE BANDS -    BAND    198; K    1; EIG -2.0156033E-01 AU
 BOTTOM OF VIRTUAL BANDS - BAND    199; K    1; EIG -1.0292751E-01 AU
 INDIRECT ENERGY BAND GAP:   2.6837 eV
 TTTTTTTTTTTTTTTTTTTTTTTTTTTTTT PDIG        TELAPSE      325.15 TCPU     9003.36
 CHARGE NORMALIZATION FACTOR   1.00000000
 TOTAL ATOMIC CHARGES:
   4.4630442   4.4693345   4.4580879   4.4511711   4.4582681   4.4512207
   4.4505934   4.4577675   4.4504721   4.4576288   4.4688001   4.4623461
   0.8864103   0.8814437   0.8814982   0.8866166   0.8790448   0.8876913
   0.8878275   0.8791468   0.8837595   0.8798823   0.8801618   0.8839093
   0.8837942   0.8799248   0.8800984   0.8838523   0.8790535   0.8876931
   0.8878770   0.8792191   0.8864153   0.8814386   0.8814695   0.8865659
   5.9489086   5.9198596   6.1794909   6.1500354   6.1492898   6.1786623
   6.1595491   6.1798275   6.1788537   6.1581469   5.9178831   5.9471445
   5.9085552   5.9665359   6.1609431   6.1695945   6.1685971   6.1603648
   6.1610375   6.1697163   6.1685055   6.1603382   5.9651259   5.9067440
   5.9489575   5.9200208   6.1595183   6.1797176   6.1789282   6.1582586
   6.1794602   6.1499777   6.1493192   6.1786785   5.9177413   5.9469958
   8.5050785   8.5127499   8.5053296   8.5129085   8.5238339   8.4927346
   8.5126712   8.5051433   8.4927908   8.5235733   8.5129503   8.5054247
 TTTTTTTTTTTTTTTTTTTTTTTTTTTTTT MOQGAD      TELAPSE      325.27 TCPU     9003.48
 TTTTTTTTTTTTTTTTTTTTTTTTTTTTTT SHELLXN     TELAPSE      360.74 TCPU    10135.79
 TTTTTTTTTTTTTTTTTTTTTTTTTTTTTT MONMO3      TELAPSE      361.49 TCPU    10160.02
 NUMERICALLY INTEGRATED DENSITY    396.0001985570
 TTTTTTTTTTTTTTTTTTTTTTTTTTTTTT NUMDFT      TELAPSE      363.30 TCPU    10217.64
 CYC   7 ETOT(AU) -2.578194381597E+03 DETOT -2.11E-04 tst  2.87E-06 PX  1.91E-03
 TTTTTTTTTTTTTTTTTTTTTTTTTTTTTT DIIS        TELAPSE      363.57 TCPU    10224.48
 DIIS TEST: 0.91192E-04 AT SCF   CYCLE   7 - DIIS ACTIVE - HISTORY:     7 CYCLES
 TTTTTTTTTTTTTTTTTTTTTTTTTTTTTT FDIK        TELAPSE      365.33 TCPU    10280.71
 INSULATING STATE
 TOP OF VALENCE BANDS -    BAND    198; K    4; EIG -2.0173730E-01 AU
 TOP OF VALENCE BANDS -    BAND    198; K    1; EIG -2.0174619E-01 AU
 BOTTOM OF VIRTUAL BANDS - BAND    199; K    1; EIG -1.0301624E-01 AU
 INDIRECT ENERGY BAND GAP:   2.6863 eV
 TTTTTTTTTTTTTTTTTTTTTTTTTTTTTT PDIG        TELAPSE      367.02 TCPU    10287.78
 CHARGE NORMALIZATION FACTOR   1.00000000
 TOTAL ATOMIC CHARGES:
   4.4624385   4.4695521   4.4581382   4.4508944   4.4583213   4.4509500
   4.4509114   4.4583328   4.4507845   4.4581910   4.4695048   4.4623336
   0.8862737   0.8812357   0.8813378   0.8864060   0.8789613   0.8873208
   0.8874242   0.8790062   0.8832253   0.8797485   0.8799275   0.8834274
   0.8832603   0.8797932   0.8798632   0.8833692   0.8789659   0.8873203
   0.8874761   0.8790828   0.8862763   0.8812293   0.8813103   0.8863580
   5.9478638   5.9200713   6.1783843   6.1491524   6.1491860   6.1783163
   6.1588077   6.1803228   6.1804205   6.1589466   5.9208619   5.9486993
   5.9088369   5.9652698   6.1619261   6.1683598   6.1684027   6.1620449
   6.1620233   6.1684759   6.1683052   6.1620148   5.9660847   5.9094938
   5.9479420   5.9202663   6.1588008   6.1802270   6.1804819   6.1590345
   6.1783705   6.1491136   6.1491966   6.1783137   5.9206894   5.9485202
   8.5044822   8.5117656   8.5047312   8.5119190   8.5231506   8.4926612
   8.5117974   8.5045349   8.4927411   8.5231601   8.5120668   8.5048108
 TTTTTTTTTTTTTTTTTTTTTTTTTTTTTT MOQGAD      TELAPSE      367.14 TCPU    10287.90
 TTTTTTTTTTTTTTTTTTTTTTTTTTTTTT SHELLXN     TELAPSE      402.61 TCPU    11420.50
 TTTTTTTTTTTTTTTTTTTTTTTTTTTTTT MONMO3      TELAPSE      403.37 TCPU    11444.72
 NUMERICALLY INTEGRATED DENSITY    396.0001985907
 TTTTTTTTTTTTTTTTTTTTTTTTTTTTTT NUMDFT      TELAPSE      405.18 TCPU    11502.40
 CYC   8 ETOT(AU) -2.578194403180E+03 DETOT -2.16E-05 tst  1.56E-07 PX  6.66E-04
 TTTTTTTTTTTTTTTTTTTTTTTTTTTTTT DIIS        TELAPSE      405.47 TCPU    11509.26
 DIIS TEST: 0.16939E-05 AT SCF   CYCLE   8 - DIIS ACTIVE - HISTORY:     8 CYCLES
 TTTTTTTTTTTTTTTTTTTTTTTTTTTTTT FDIK        TELAPSE      407.24 TCPU    11565.53
 INSULATING STATE
 TOP OF VALENCE BANDS -    BAND    198; K    4; EIG -2.0174583E-01 AU
 TOP OF VALENCE BANDS -    BAND    198; K    1; EIG -2.0175477E-01 AU
 BOTTOM OF VIRTUAL BANDS - BAND    199; K    1; EIG -1.0304836E-01 AU
 INDIRECT ENERGY BAND GAP:   2.6857 eV
 TTTTTTTTTTTTTTTTTTTTTTTTTTTTTT PDIG        TELAPSE      408.91 TCPU    11572.58
 CHARGE NORMALIZATION FACTOR   1.00000000
 TOTAL ATOMIC CHARGES:
   4.4623964   4.4697582   4.4583278   4.4509352   4.4585048   4.4509823
   4.4509059   4.4584918   4.4507876   4.4583561   4.4696974   4.4622899
   0.8862123   0.8811730   0.8812732   0.8863454   0.8788965   0.8872769
   0.8873910   0.8789512   0.8832102   0.8797123   0.8798906   0.8834127
   0.8832469   0.8797579   0.8798250   0.8833532   0.8789052   0.8872767
   0.8874427   0.8790238   0.8862181   0.8811667   0.8812457   0.8862942
   5.9477904   5.9198653   6.1785934   6.1494606   6.1494951   6.1785149
   6.1589578   6.1803035   6.1802398   6.1588890   5.9204016   5.9484151
   5.9085611   5.9650884   6.1618864   6.1685054   6.1685257   6.1619665
   6.1619390   6.1685821   6.1684715   6.1619807   5.9659007   5.9092212
   5.9478158   5.9200108   6.1589363   6.1802049   6.1803039   6.1589913
   6.1785405   6.1493809   6.1495462   6.1785523   5.9202777   5.9482890
   8.5046286   8.5119145   8.5048938   8.5120861   8.5230304   8.4925868
   8.5119633   8.5047046   8.4926226   8.5229802   8.5122519   8.5049975
 TTTTTTTTTTTTTTTTTTTTTTTTTTTTTT MOQGAD      TELAPSE      409.03 TCPU    11572.70
 TTTTTTTTTTTTTTTTTTTTTTTTTTTTTT SHELLXN     TELAPSE      444.50 TCPU    12705.15
 TTTTTTTTTTTTTTTTTTTTTTTTTTTTTT MONMO3      TELAPSE      445.26 TCPU    12729.37
 NUMERICALLY INTEGRATED DENSITY    396.0001985884
 TTTTTTTTTTTTTTTTTTTTTTTTTTTTTT NUMDFT      TELAPSE      447.06 TCPU    12787.03
 CYC   9 ETOT(AU) -2.578194403275E+03 DETOT -9.51E-08 tst  1.53E-09 PX  1.10E-04
 TTTTTTTTTTTTTTTTTTTTTTTTTTTTTT DIIS        TELAPSE      447.38 TCPU    12793.92
 DIIS TEST: 0.16543E-06 AT SCF   CYCLE   9 - DIIS ACTIVE - HISTORY:     9 CYCLES
 TTTTTTTTTTTTTTTTTTTTTTTTTTTTTT FDIK        TELAPSE      449.15 TCPU    12850.21
 INSULATING STATE
 TOP OF VALENCE BANDS -    BAND    198; K    4; EIG -2.0174425E-01 AU
 TOP OF VALENCE BANDS -    BAND    198; K    1; EIG -2.0175317E-01 AU
 BOTTOM OF VIRTUAL BANDS - BAND    199; K    1; EIG -1.0304753E-01 AU
 INDIRECT ENERGY BAND GAP:   2.6857 eV
 TTTTTTTTTTTTTTTTTTTTTTTTTTTTTT PDIG        TELAPSE      450.84 TCPU    12857.29
 CHARGE NORMALIZATION FACTOR   1.00000000
 TOTAL ATOMIC CHARGES:
   4.4624365   4.4697111   4.4582725   4.4509181   4.4584557   4.4509740
   4.4509104   4.4584444   4.4507833   4.4583026   4.4696413   4.4623018
   0.8862125   0.8811784   0.8812795   0.8863506   0.8789073   0.8872868
   0.8873904   0.8789546   0.8832135   0.8797065   0.8798894   0.8834117
   0.8832475   0.8797498   0.8798263   0.8833547   0.8789124   0.8872873
   0.8874414   0.8790308   0.8862148   0.8811722   0.8812518   0.8863029
   5.9477281   5.9198439   6.1785823   6.1494168   6.1493999   6.1784684
   6.1589087   6.1802479   6.1803201   6.1590022   5.9205192   5.9484478
   5.9086919   5.9651398   6.1618545   6.1685390   6.1685396   6.1619512
   6.1619662   6.1686702   6.1684293   6.1619065   5.9658333   5.9092148
   5.9478110   5.9200410   6.1588973   6.1801473   6.1803863   6.1590947
   6.1785753   6.1493848   6.1494035   6.1784595   5.9203440   5.9482639
   8.5046111   8.5119144   8.5048553   8.5120637   8.5231363   8.4926518
   8.5119354   8.5046600   8.4927410   8.5231429   8.5122013   8.5049316
 TTTTTTTTTTTTTTTTTTTTTTTTTTTTTT MOQGAD      TELAPSE      450.96 TCPU    12857.41
 TTTTTTTTTTTTTTTTTTTTTTTTTTTTTT SHELLXN     TELAPSE      486.43 TCPU    13989.89
 +++ ENERGIES IN A.U. +++
 ::: EXT EL-POLE                                  -3.2540601319622E+03
 ::: EXT EL-SPHEROPOLE                             3.6853207347087E+01
 ::: BIELET ZONE E-E                               5.2396502745178E+03
 ::: TOTAL E-E                                     2.0224433499027E+03
 ::: TOTAL E-N + N-E                              -7.6864059056241E+03
 ::: TOTAL N-N                                     7.9309912890153E+02
 ::: KINETIC ENERGY                                2.5602169821622E+03
 ::: PSEUDO TOTAL   ENERGY                        -2.3106464446577E+03
 ::: VIRIAL COEFFICIENT                            1.0512374327989E+00
 TTTTTTTTTTTTTTTTTTTTTTTTTTTTTT MONMO3      TELAPSE      487.19 TCPU    14014.10
 NUMERICALLY INTEGRATED DENSITY    396.0001985891
 EXCHANGE ENERGY: -0.252077031168E+03  CORRELATION ENERGY: -0.154709274590E+02
 TTTTTTTTTTTTTTTTTTTTTTTTTTTTTT NUMDFT      TELAPSE      488.99 TCPU    14071.69
 CYC  10 ETOT(AU) -2.578194403284E+03 DETOT -9.33E-09 tst  2.39E-10 PX  1.10E-04

 == SCF ENDED - CONVERGENCE ON ENERGY      E(AU) -2.5781944032842E+03 CYCLES  10


 ENERGY EXPRESSION=HARTREE+FOCK EXCH*0.00000+(HSESOL     EXCH)*1.00000+PBESOL     CORR


 TOTAL ENERGY(DFT)(AU)( 10) -2.5781944032842E+03 DE-9.3E-09 tester 2.4E-10
 TTTTTTTTTTTTTTTTTTTTTTTTTTTTTT EDFT        TELAPSE      488.99 TCPU    14071.69
 
 INFORMATION **** DFTD3 ENERGY **** CALCULATE DFTD3 ENERGY

           DFT-D V3(BJ)
 DF                                         hsesol3c  
 parameters
 s6       :    1.0000
 s8       :    0.0000
 a1       :    0.5196
 a2       :    4.9385
 k1 k3    :   16.0000   -4.0000
 Cutoff   :   50.2022
 CN-Cutoff:   21.1671
 ABC-Cutoff:   21.1671
 
 Edisp /kcal,au:   -69.4404 -0.11066033

 E6    /kcal :   -74.7504
 E8    /kcal :     0.0000
 E6(ABC) "   :   5.310008
 
 INFORMATION **** DFTD3 ENERGY **** NORMAL TERMINATION OF DFTD3 MODULE

 GCP ENERGY CALCULATION
  level        hsesol3c            basis:hsesol3c
  Nbf            948
  Atoms           84

  Parameters: 
  sigma     1.0000
  eta       1.4281
  alpha     0.2936
  beta      1.9467

  dmp_scal      4.0000
  dmp_exp       6.0000
 cutoffs: 
   distance [bohr] 60.0
   noise    [a.u.] 2.2E-16
 SR-damping   T
 ** gCP correction **
  Egcp:        0.1735111877 / (a.u.) ||     108.8799 / (kcal/mol)
 INFORMATION **** GCP **** NORMAL TERMINATION OF GCP MODULE

 *******************************************************************************

 DFT-D3-GCP DISPERSION AND COUNTERPOISE CORRECTION

 D3 DISPERSION ENERGY (AU)      -1.1066032745521E-01
 GCP ENERGY (AU)                 1.7351118767324E-01
 TOTAL ENERGY + DISP + GCP (AU) -2.5781315524240E+03

 *******************************************************************************

 EIGENVECTORS IN FORTRAN UNIT  8
 TTTTTTTTTTTTTTTTTTTTTTTTTTTTTT END         TELAPSE      492.84 TCPU    14081.44
 EEEEEEEEEE TERMINATION  DATE 19 02 2026 TIME 19:43:20.4
