 Default number of threads is:           32

         
 *******************************************************************************
 *                                                                             *
 *                               CRYSTAL23                                     *
 *                      public : 1.0.1 - October 2022                          *
 *                       HTTP://WWW.CRYSTAL.UNITO.IT                           *
 *                                                                             *
 *                              MAIN AUTHORS                                   *
 *                                                                             *
 *  R. DOVESI(1,11), V.R. SAUNDERS(2), C. ROETTI(1,11), R. ORLANDO(1,11),      *
 *  C.M. ZICOVICH-WILSON(1,3), F. PASCALE(4), B. CIVALLERI(1,11),              *
 *  K. DOLL(5), N.M. HARRISON(6), I.J. BUSH(7), Ph. D'ARCO(8),                 *
 *  M. LLUNELL(9), M. CAUSA'(10), Y. NOEL(8), L. MASCHIO(1,11), A. ERBA(1,11)  *
 *  M. RE'RAT(14), S. CASASSA(1,11), B.G. SEARLE(2), J.K. DESMARAIS(1)         *
 *                                                                             *
 *        CONTRIBUTIONS TO THE CODE HAVE ALSO BEEN GIVEN BY                    *
 *                                                                             *
 *  M. FERRABONE(1,11), M. DE LA PIERRE(1,11), M. FERRERO(1,11),               *
 *  J. BAIMA(1,11), E. ALBANESE(1,11), M.F. PEINTINGER(12), R. BAST(13),       *
 *  B. KIRTMAN(15), V. LACIVITA(1,11), R. DEMICHELIS(1,16)                     *
 *  G. BRANDEBURG(17), S. SALUSTRO(1,11), G. SANSONE(1,11)                     *
 *  M.T. RUGGIERO(18), L.E. DAGA(1), L. DONA'(1), A. COSSARD(1)                *
 *                                                                             *
 * (1) THEORETICAL CHEMISTRY GROUP - UNIVERSITA' DI TORINO - TORINO (ITALY)    *
 * (2) SCIENTIFIC COMPUTING DEPARTMENT - STFC DARESBURY (UK)                   *
 * (3) UNIVERSIDAD AUTONOMA DEL ESTADO DE MORELOS - CUERNAVACA (MEXICO)        *
 * (4) UNIVERSITE' DE LORRAINE - NANCY (FRANCE)                                *
 * (5) UNIVERSITAET STUTTGART- STUTTGART (GERMANY)                             *
 * (6) IMPERIAL COLLEGE - LONDON (UK)                                          *
 * (7) SCIENTIFIC COMPUTING DEPARTMENT - STFC RAL (UK)                         *
 * (8) UPMC - SORBONNE UNIVERSITES - PARIS (FRANCE)                            *
 * (9) UNIVERSIDAD DE BARCELONA - BARCELONA (SPAIN)                            *
 *(10) UNIVERSITA' DI NAPOLI "FEDERICO II" - NAPOLI (ITALY)                    *
 *(11) NIS - NANOSTRUCTURED INTERFACES AND SURFACES - TORINO (ITALY)           *
 *(12) MPI FUER CHEMISCHE ENERGIEKONVERSION - MUELHEIM AN DER RUHR (GERMANY)   *
 *(13) UNIVERSITY OF TROMSO - TROMSO (NORWAY)                                  *
 *(14) UNIVERSITE' DE PAU ET DES PAYS DE L'ADOUR - PAU (FRANCE)                *
 *(15) UNIVERSITY OF CALIFORNIA SANTA BARBARA - SANTA BARBARA (USA)            *
 *(16) CURTIN UNIVERSITY - PERTH (AUSTRALIA)                                   *
 *(17) UNIVERSITY COLLEGE LONDON - LONDON (UK)                                 *
 *(18) UNIVERSITY OF VERMONT - BURLINGTON (USA)                                *
 *                                                                             *
 *******************************************************************************
 EEEEEEEEEE STARTING  DATE 02 12 2025 TIME 08:01:57.5
 COF-5_z38_inc_L010                                                              

 CRYSTAL CALCULATION
 (INPUT ACCORDING TO THE INTERNATIONAL TABLES FOR X-RAY CRYSTALLOGRAPHY)
 CRYSTAL FAMILY                       :  TRICLINIC   
 CRYSTAL CLASS  (GROTH - 1921)        :  TRICLINIC PEDIAL                     

 SPACE GROUP (NONCENTROSYMMETRIC)     :  P 1             

 LATTICE PARAMETERS  (ANGSTROMS AND DEGREES) - CONVENTIONAL CELL
        A           B           C        ALPHA        BETA       GAMMA
    15.02070    15.04439     3.92938    77.27782    89.99931   120.05310


 NUMBER OF IRREDUCIBLE ATOMS IN THE CONVENTIONAL CELL:   42

 INPUT COORDINATES

 ATOM AT. N.              COORDINATES
   1   5     5.963312700000E-01  1.896271900000E-01  5.006622900000E-01
   2   5     7.551102900000E-01  3.486531400000E-01  5.006722800000E-01
   3   5     5.959336600000E-01  3.484503500000E-01  4.992422800000E-01
   4   5     2.093200900000E-01  5.755428900000E-01  5.054573700000E-01
   5   5     3.677389100000E-01  5.747315100000E-01  5.095013400000E-01
   6   5     3.682412600000E-01  7.345281600000E-01  5.035355900000E-01
   7   1     8.849861100000E-01  2.708013400000E-01  5.045607600000E-01
   8   1     7.988049000000E-02  6.535828100000E-01  4.929702200000E-01
   9   1     8.855035300000E-01  5.562939500000E-01  4.928319200000E-01
  10   1     7.944211000000E-02  3.680482300000E-01  5.041293300000E-01
  11   1     5.749768600000E-01  8.645056200000E-01  5.042513900000E-01
  12   1     3.892088800000E-01  6.065348000000E-02  4.946024700000E-01
  13   1     2.908182500000E-01  8.668412800000E-01  4.959093400000E-01
  14   1     6.731501300000E-01  5.833858000000E-02  5.023900300000E-01
  15   1     5.748225800000E-01  6.523363700000E-01  4.978068500000E-01
  16   1     3.871932600000E-01  2.700871000000E-01  5.060901300000E-01
  17   1     2.898432600000E-01  3.660366000000E-01  5.057252500000E-01
  18   1     6.725780400000E-01  5.564054500000E-01  4.987403200000E-01
  19   6     8.744124300000E-01  4.081014300000E-01  5.004222800000E-01
  20   6     9.288686100000E-01  3.547893200000E-01  5.021884100000E-01
  21   6     3.613194000000E-02  5.696165800000E-01  4.957954000000E-01
  22   6     9.291404800000E-01  5.160657800000E-01  4.961325600000E-01
  23   6     3.592405000000E-02  4.084037100000E-01  5.015446900000E-01
  24   6     9.050944000000E-02  5.162434700000E-01  4.993613800000E-01
  25   6     4.272671800000E-01  8.540295400000E-01  5.019037700000E-01
  26   6     5.351254100000E-01  9.084816200000E-01  5.022939500000E-01
  27   6     4.288691800000E-01  1.643190000000E-02  4.970175000000E-01
  28   6     3.747077800000E-01  9.093907700000E-01  4.981361900000E-01
  29   6     5.892640800000E-01  1.545853000000E-02  5.008565300000E-01
  30   6     5.366471700000E-01  7.057651000000E-02  4.992322400000E-01
  31   6     4.269410200000E-01  5.151219800000E-01  5.000034700000E-01
  32   6     5.348114500000E-01  5.684193300000E-01  4.994519800000E-01
  33   6     4.277996400000E-01  3.540425000000E-01  5.039755900000E-01
  34   6     3.739216000000E-01  4.071347900000E-01  5.033676400000E-01
  35   6     5.885889500000E-01  5.152827300000E-01  5.003903500000E-01
  36   6     5.357865000000E-01  4.074640600000E-01  5.016322200000E-01
  37   8     5.432542200000E-01  2.425217400000E-01  4.996321600000E-01
  38   8     7.022985000000E-01  2.425893300000E-01  5.026222500000E-01
  39   8     7.020810300000E-01  4.016802100000E-01  4.981024600000E-01
  40   8     2.622622800000E-01  6.816110100000E-01  5.027689300000E-01
  41   8     2.617340700000E-01  5.219743600000E-01  5.102568000000E-01
  42   8     4.209755700000E-01  6.811315500000E-01  5.052407000000E-01

 *******************************************************************************

 << INFORMATION >>: FROM NOW ON, ALL COORDINATES REFER TO THE PRIMITIVE CELL

 *******************************************************************************

 LATTICE PARAMETERS  (ANGSTROMS AND DEGREES) - PRIMITIVE CELL
       A          B          C        ALPHA      BETA     GAMMA        VOLUME
   15.02070   15.04439    3.92938    77.27782  89.99931 120.05310    743.281159

 COORDINATES OF THE EQUIVALENT ATOMS (FRACTIONAL UNITS)

 N. ATOM EQUIV AT. N.          X                  Y                  Z

   1   1   1    5 B    -4.03668730000E-01  1.89627190000E-01 -4.99337710000E-01

   2   2   1    5 B    -2.44889710000E-01  3.48653140000E-01 -4.99327720000E-01

   3   3   1    5 B    -4.04066340000E-01  3.48450350000E-01  4.99242280000E-01

   4   4   1    5 B     2.09320090000E-01 -4.24457110000E-01 -4.94542630000E-01

   5   5   1    5 B     3.67738910000E-01 -4.25268490000E-01 -4.90498660000E-01

   6   6   1    5 B     3.68241260000E-01 -2.65471840000E-01 -4.96464410000E-01

   7   7   1    1 H    -1.15013890000E-01  2.70801340000E-01 -4.95439240000E-01

   8   8   1    1 H     7.98804900000E-02 -3.46417190000E-01  4.92970220000E-01

   9   9   1    1 H    -1.14496470000E-01 -4.43706050000E-01  4.92831920000E-01

  10  10   1    1 H     7.94421100000E-02  3.68048230000E-01 -4.95870670000E-01

  11  11   1    1 H    -4.25023140000E-01 -1.35494380000E-01 -4.95748610000E-01

  12  12   1    1 H     3.89208880000E-01  6.06534800000E-02  4.94602470000E-01

  13  13   1    1 H     2.90818250000E-01 -1.33158720000E-01  4.95909340000E-01

  14  14   1    1 H    -3.26849870000E-01  5.83385800000E-02 -4.97609970000E-01

  15  15   1    1 H    -4.25177420000E-01 -3.47663630000E-01  4.97806850000E-01

  16  16   1    1 H     3.87193260000E-01  2.70087100000E-01 -4.93909870000E-01

  17  17   1    1 H     2.89843260000E-01  3.66036600000E-01 -4.94274750000E-01

  18  18   1    1 H    -3.27421960000E-01 -4.43594550000E-01  4.98740320000E-01

  19  19   1    6 C    -1.25587570000E-01  4.08101430000E-01 -4.99577720000E-01

  20  20   1    6 C    -7.11313900000E-02  3.54789320000E-01 -4.97811590000E-01

  21  21   1    6 C     3.61319400000E-02 -4.30383420000E-01  4.95795400000E-01

  22  22   1    6 C    -7.08595200000E-02 -4.83934220000E-01  4.96132560000E-01

  23  23   1    6 C     3.59240500000E-02  4.08403710000E-01 -4.98455310000E-01

  24  24   1    6 C     9.05094400000E-02 -4.83756530000E-01  4.99361380000E-01

  25  25   1    6 C     4.27267180000E-01 -1.45970460000E-01 -4.98096230000E-01

  26  26   1    6 C    -4.64874590000E-01 -9.15183800000E-02 -4.97706050000E-01

  27  27   1    6 C     4.28869180000E-01  1.64319000000E-02  4.97017500000E-01

  28  28   1    6 C     3.74707780000E-01 -9.06092300000E-02  4.98136190000E-01

  29  29   1    6 C    -4.10735920000E-01  1.54585300000E-02 -4.99143470000E-01

  30  30   1    6 C    -4.63352830000E-01  7.05765100000E-02  4.99232240000E-01

  31  31   1    6 C     4.26941020000E-01 -4.84878020000E-01 -4.99996530000E-01

  32  32   1    6 C    -4.65188550000E-01 -4.31580670000E-01  4.99451980000E-01

  33  33   1    6 C     4.27799640000E-01  3.54042500000E-01 -4.96024410000E-01

  34  34   1    6 C     3.73921600000E-01  4.07134790000E-01 -4.96632360000E-01

  35  35   1    6 C    -4.11411050000E-01 -4.84717270000E-01 -4.99609650000E-01

  36  36   1    6 C    -4.64213500000E-01  4.07464060000E-01 -4.98367780000E-01

  37  37   1    8 O    -4.56745780000E-01  2.42521740000E-01  4.99632160000E-01

  38  38   1    8 O    -2.97701500000E-01  2.42589330000E-01 -4.97377750000E-01

  39  39   1    8 O    -2.97918970000E-01  4.01680210000E-01  4.98102460000E-01

  40  40   1    8 O     2.62262280000E-01 -3.18388990000E-01 -4.97231070000E-01

  41  41   1    8 O     2.61734070000E-01 -4.78025640000E-01 -4.89743200000E-01

  42  42   1    8 O     4.20975570000E-01 -3.18868450000E-01 -4.94759300000E-01

 NUMBER OF SYMMETRY OPERATORS         :    1
 *******************************************************************************
 * GEOMETRY EDITING - INPUT COORDINATES ARE GIVEN IN ANGSTROM         
 *******************************************************************************

 GCALCO - MAX INDICES DIRECT LATTICE VECTOR     9    10    33
 NO.OF VECTORS CREATED 6999 STARS 3500 RMAX   202.66708 BOHR

 GEOMETRY FOR WAVE FUNCTION - DIMENSIONALITY OF THE SYSTEM    3
 (NON PERIODIC DIRECTION: LATTICE PARAMETER FORMALLY SET TO 500)
 *******************************************************************************
 LATTICE PARAMETERS (ANGSTROMS AND DEGREES) - BOHR = 0.5291772083 ANGSTROM
 PRIMITIVE CELL - CENTRING CODE 1/0 VOLUME=   743.281159 - DENSITY  0.872 g/cm^3
         A              B              C           ALPHA      BETA       GAMMA 
    15.02070100    15.04438700     3.92937700    77.277819  89.999310 120.053104
 *******************************************************************************
 ATOMS IN THE ASYMMETRIC UNIT   42 - ATOMS IN THE UNIT CELL:   42
     ATOM                 X/A                 Y/B                 Z/C    
 *******************************************************************************
      1 T   5 B    -4.036687300000E-01  1.896271900000E-01 -4.993377100000E-01
      2 T   5 B    -2.448897100000E-01  3.486531400000E-01 -4.993277200000E-01
      3 T   5 B    -4.040663400000E-01  3.484503500000E-01  4.992422800000E-01
      4 T   5 B     2.093200900000E-01 -4.244571100000E-01 -4.945426300000E-01
      5 T   5 B     3.677389100000E-01 -4.252684900000E-01 -4.904986600000E-01
      6 T   5 B     3.682412600000E-01 -2.654718400000E-01 -4.964644100000E-01
      7 T   1 H    -1.150138900000E-01  2.708013400000E-01 -4.954392400000E-01
      8 T   1 H     7.988049000000E-02 -3.464171900000E-01  4.929702200000E-01
      9 T   1 H    -1.144964700000E-01 -4.437060500000E-01  4.928319200000E-01
     10 T   1 H     7.944211000000E-02  3.680482300000E-01 -4.958706700000E-01
     11 T   1 H    -4.250231400000E-01 -1.354943800000E-01 -4.957486100000E-01
     12 T   1 H     3.892088800000E-01  6.065348000000E-02  4.946024700000E-01
     13 T   1 H     2.908182500000E-01 -1.331587200000E-01  4.959093400000E-01
     14 T   1 H    -3.268498700000E-01  5.833858000000E-02 -4.976099700000E-01
     15 T   1 H    -4.251774200000E-01 -3.476636300000E-01  4.978068500000E-01
     16 T   1 H     3.871932600000E-01  2.700871000000E-01 -4.939098700000E-01
     17 T   1 H     2.898432600000E-01  3.660366000000E-01 -4.942747500000E-01
     18 T   1 H    -3.274219600000E-01 -4.435945500000E-01  4.987403200000E-01
     19 T   6 C    -1.255875700000E-01  4.081014300000E-01 -4.995777200000E-01
     20 T   6 C    -7.113139000000E-02  3.547893200000E-01 -4.978115900000E-01
     21 T   6 C     3.613194000000E-02 -4.303834200000E-01  4.957954000000E-01
     22 T   6 C    -7.085952000000E-02 -4.839342200000E-01  4.961325600000E-01
     23 T   6 C     3.592405000000E-02  4.084037100000E-01 -4.984553100000E-01
     24 T   6 C     9.050944000000E-02 -4.837565300000E-01  4.993613800000E-01
     25 T   6 C     4.272671800000E-01 -1.459704600000E-01 -4.980962300000E-01
     26 T   6 C    -4.648745900000E-01 -9.151838000000E-02 -4.977060500000E-01
     27 T   6 C     4.288691800000E-01  1.643190000000E-02  4.970175000000E-01
     28 T   6 C     3.747077800000E-01 -9.060923000000E-02  4.981361900000E-01
     29 T   6 C    -4.107359200000E-01  1.545853000000E-02 -4.991434700000E-01
     30 T   6 C    -4.633528300000E-01  7.057651000000E-02  4.992322400000E-01
     31 T   6 C     4.269410200000E-01 -4.848780200000E-01 -4.999965300000E-01
     32 T   6 C    -4.651885500000E-01 -4.315806700000E-01  4.994519800000E-01
     33 T   6 C     4.277996400000E-01  3.540425000000E-01 -4.960244100000E-01
     34 T   6 C     3.739216000000E-01  4.071347900000E-01 -4.966323600000E-01
     35 T   6 C    -4.114110500000E-01 -4.847172700000E-01 -4.996096500000E-01
     36 T   6 C    -4.642135000000E-01  4.074640600000E-01 -4.983677800000E-01
     37 T   8 O    -4.567457800000E-01  2.425217400000E-01  4.996321600000E-01
     38 T   8 O    -2.977015000000E-01  2.425893300000E-01 -4.973777500000E-01
     39 T   8 O    -2.979189700000E-01  4.016802100000E-01  4.981024600000E-01
     40 T   8 O     2.622622800000E-01 -3.183889900000E-01 -4.972310700000E-01
     41 T   8 O     2.617340700000E-01 -4.780256400000E-01 -4.897432000000E-01
     42 T   8 O     4.209755700000E-01 -3.188684500000E-01 -4.947593000000E-01

 T = ATOM BELONGING TO THE ASYMMETRIC UNIT

 ****    1 SYMMOPS - TRANSLATORS IN FRACTIONAL UNITS
 **** MATRICES AND TRANSLATORS IN THE CRYSTALLOGRAPHIC REFERENCE FRAME
   V INV                    ROTATION MATRICES                   TRANSLATORS
   1   1  1.00 -0.00  0.00  0.00  1.00  0.00 -0.00  0.00  1.00  0.00  0.00  0.00

 DIRECT LATTICE VECTORS CARTESIAN COMPONENTS (ANGSTROM)
          X                    Y                    Z
   0.130013421718E+02  -0.752240388864E+01   0.000000000000E+00
   0.000000000000E+00   0.150443870000E+02   0.000000000000E+00
   0.500730360289E+00   0.865342523192E+00   0.380005987216E+01


 CARTESIAN COORDINATES - PRIMITIVE CELL
 *******************************************************************************
 *      ATOM          X(ANGSTROM)         Y(ANGSTROM)         Z(ANGSTROM)
 *******************************************************************************
    1     5 B    -5.498268834209E+00  5.457285902462E+00 -1.897513194425E+00
    2     5 B    -3.433923463194E+00  6.655342564593E+00 -1.897475231827E+00
    3     5 B     7.497192831785E+00  3.260412853962E-01 -1.902909317444E+00
    4     5 B     2.473809604218E+00  6.656150946001E+00 -1.879291603334E+00
    5     5 B     4.535491828042E+00  5.455753302879E+00 -1.863924275212E+00
    6     5 B    -7.961575991350E+00  1.194214061865E+00  1.913465389761E+00
    7     1 H    -1.743416407543E+00  4.510496450433E+00 -1.882698775015E+00
    8     1 H     1.285398739211E+00 -5.385939484382E+00  1.873316351190E+00
    9     1 H    -1.241831879067E+00 -5.387528422115E+00  1.872790802910E+00
   10     1 H     7.845565557120E-01  4.510366392845E+00 -1.884338234846E+00
   11     1 H    -5.273377293871E+00  1.595116002199E+00  1.916185472618E+00
   12     1 H     4.807169937887E+00 -2.452633940214E+00 -1.920540873240E+00
   13     1 H     4.029344440535E+00 -3.761812211243E+00  1.884485183161E+00
   14     1 H    -4.498655418231E+00  2.905761840635E+00 -1.890947678982E+00
   15     1 H    -5.278610117777E+00 -1.601256482333E+00  1.891695834769E+00
   16     1 H     4.786716392709E+00  7.232695582926E-01 -1.876887077449E+00
   17     1 H     3.520853025793E+00  2.898761241129E+00 -1.878273643295E+00
   18     1 H    -4.007190516389E+00 -3.779026649234E+00  1.895243076658E+00
   19     6 C    -1.882960701819E+00  6.652050428351E+00 -1.898425246795E+00
   20     6 C    -1.174072917360E+00  5.441889340923E+00 -1.891713847053E+00
   21     6 C     7.180235245414E-01 -6.317620932401E+00  1.884052204340E+00
   22     6 C    -6.728402301279E-01 -6.318135158120E+00  1.885333432526E+00
   23     6 C     2.174691592818E-01  5.442613676406E+00 -1.894160021594E+00
   24     6 C     9.260592426486E-01  6.652494098850E+00 -1.902456730314E+00
   25     6 C    -7.194976910243E+00  2.546610176244E+00  1.907264376061E+00
   26     6 C    -5.792479780999E+00  2.554792811291E+00  1.908747083422E+00
   27     6 C     5.324016347664E+00 -3.414171470277E+00 -1.911363614647E+00
   28     6 C     5.121135976097E+00 -3.750805155721E+00  1.892947346488E+00
   29     6 C    -5.590054527727E+00  2.890355519820E+00 -1.896775070796E+00
   30     6 C    -6.274958309975E+00  4.113971822783E+00 -1.902947470045E+00
   31     6 C     5.300442845576E+00  4.105403371400E+00 -1.900016749870E+00
   32     6 C    -5.797984743049E+00 -2.561333427141E+00  1.897947427267E+00
   33     6 C     5.313595019070E+00  1.679039694438E+00 -1.884922456051E+00
   34     6 C     4.612803766463E+00  2.882546944535E+00 -1.887232702450E+00
   35     6 C    -5.098335194058E+00 -3.764465065063E+00  1.901513289449E+00
   36     6 C     6.716395739481E+00  1.668385723927E+00 -1.893827402353E+00
   37     8 O     6.812484631680E+00 -8.709763137654E-01 -1.901427750101E+00
   38     8 O    -4.119571206507E+00  5.458636566681E+00 -1.890065229078E+00
   39     8 O    -3.623931444176E+00 -6.329258412546E+00  1.892819170468E+00
   40     8 O     3.661513308490E+00 -6.327742642547E+00  1.910552035860E+00
   41     8 O     3.157664913096E+00  5.460119273555E+00 -1.861053481981E+00
   42     8 O    -7.275105382503E+00 -4.318477882265E-03  1.919944909850E+00

 *******************************************************************************
 STARTING BASIS SET HANDLING 
 *******************************************************************************

 Loading internal basis set: SOLDEF2MSVP         

 Please cite in your publication:
 L. Dona', J. G. Brandenburg and B. Civalleri, J. Chem. Phys., 151, 121101 (2019
 )                                                                              
                                                                                
                    

 *******************************************************************************
 LOCAL ATOMIC FUNCTIONS BASIS SET
 *******************************************************************************
   ATOM   X(AU)   Y(AU)   Z(AU)  N. TYPE  EXPONENT  S COEF   P COEF   D/F/G COEF
 *******************************************************************************
   1 B  -10.390  10.313  -3.586
                                  1 S  
                                         2.410E+03 1.755E-03 0.000E+00 0.000E+00
                                         3.619E+02 1.344E-02 0.000E+00 0.000E+00
                                         8.231E+01 6.637E-02 0.000E+00 0.000E+00
                                         2.311E+01 2.303E-01 0.000E+00 0.000E+00
                                         7.252E+00 5.150E-01 0.000E+00 0.000E+00
                                  2 S  
                                         2.367E+00 1.000E+00 0.000E+00 0.000E+00
                                  3 S  
                                         5.533E-01 1.000E+00 0.000E+00 0.000E+00
                                  4 S  
                                         1.716E-01 1.000E+00 0.000E+00 0.000E+00
                           5-     7 P  
                                         6.002E+00 0.000E+00-3.555E-02 0.000E+00
                                         1.240E+00 0.000E+00-1.983E-01 0.000E+00
                                         3.367E-01 0.000E+00-5.048E-01 0.000E+00
                           8-    10 P  
                                         1.256E-01 0.000E+00 1.000E+00 0.000E+00
                          11-    15 D  
                                         8.880E-01 0.000E+00 0.000E+00 1.000E+00
   2 B   -6.489  12.577  -3.586
   3 B   14.168   0.616  -3.596
   4 B    4.675  12.578  -3.551
   5 B    8.571  10.310  -3.522
   6 B  -15.045   2.257   3.616
   7 H   -3.295   8.524  -3.558
                                 91 S  
                                         1.874E+01 1.968E-02 0.000E+00 0.000E+00
                                         2.826E+00 1.380E-01 0.000E+00 0.000E+00
                                         6.401E-01 4.783E-01 0.000E+00 0.000E+00
                                 92 S  
                                         1.756E-01 1.000E+00 0.000E+00 0.000E+00
   8 H    2.429 -10.178   3.540
   9 H   -2.347 -10.181   3.539
  10 H    1.483   8.523  -3.561
  11 H   -9.965   3.014   3.621
  12 H    9.084  -4.635  -3.629
  13 H    7.614  -7.109   3.561
  14 H   -8.501   5.491  -3.573
  15 H   -9.975  -3.026   3.575
  16 H    9.046   1.367  -3.547
  17 H    6.653   5.478  -3.549
  18 H   -7.572  -7.141   3.581
  19 C   -3.558  12.571  -3.588
                                115 S  
                                         3.624E+03 1.634E-03 0.000E+00 0.000E+00
                                         5.440E+02 1.252E-02 0.000E+00 0.000E+00
                                         1.237E+02 6.211E-02 0.000E+00 0.000E+00
                                         3.476E+01 2.182E-01 0.000E+00 0.000E+00
                                         1.093E+01 4.980E-01 0.000E+00 0.000E+00
                                116 S  
                                         3.574E+00 1.000E+00 0.000E+00 0.000E+00
                                117 S  
                                         7.742E-01 1.000E+00 0.000E+00 0.000E+00
                                118 S  
                                         2.330E-01 1.000E+00 0.000E+00 0.000E+00
                         119-   121 P  
                                         9.443E+00 0.000E+00 3.790E-02 0.000E+00
                                         2.002E+00 0.000E+00 2.082E-01 0.000E+00
                                         5.463E-01 0.000E+00 5.047E-01 0.000E+00
                         122-   124 P  
                                         1.820E-01 0.000E+00 1.000E+00 0.000E+00
                         125-   129 D  
                                         8.880E-01 0.000E+00 0.000E+00 1.000E+00
  20 C   -2.219  10.284  -3.575
  21 C    1.357 -11.939   3.560
  22 C   -1.271 -11.940   3.563
  23 C    0.411  10.285  -3.579
  24 C    1.750  12.571  -3.595
  25 C  -13.597   4.812   3.604
  26 C  -10.946   4.828   3.607
  27 C   10.061  -6.452  -3.612
  28 C    9.678  -7.088   3.577
  29 C  -10.564   5.462  -3.584
  30 C  -11.858   7.774  -3.596
  31 C   10.016   7.758  -3.591
  32 C  -10.957  -4.840   3.587
  33 C   10.041   3.173  -3.562
  34 C    8.717   5.447  -3.566
  35 C   -9.634  -7.114   3.593
  36 C   12.692   3.153  -3.579
  37 O   12.874  -1.646  -3.593
                                385 S  
                                         6.773E+03 1.727E-03 0.000E+00 0.000E+00
                                         1.017E+03 1.325E-02 0.000E+00 0.000E+00
                                         2.313E+02 6.603E-02 0.000E+00 0.000E+00
                                         6.501E+01 2.353E-01 0.000E+00 0.000E+00
                                         2.050E+01 5.498E-01 0.000E+00 0.000E+00
                                386 S  
                                         6.716E+00 1.000E+00 0.000E+00 0.000E+00
                                387 S  
                                         1.147E+00 1.000E+00 0.000E+00 0.000E+00
                                388 S  
                                         3.342E-01 1.000E+00 0.000E+00 0.000E+00
                         389-   391 P  
                                         1.769E+01 0.000E+00 4.359E-02 0.000E+00
                                         3.854E+00 0.000E+00 2.318E-01 0.000E+00
                                         1.047E+00 0.000E+00 5.146E-01 0.000E+00
                         392-   394 P  
                                         2.759E-01 0.000E+00 1.000E+00 0.000E+00
                         395-   399 D  
                                         8.000E-01 0.000E+00 0.000E+00 1.000E+00
  38 O   -7.785  10.315  -3.572
  39 O   -6.848 -11.961   3.577
  40 O    6.919 -11.958   3.610
  41 O    5.967  10.318  -3.517
  42 O  -13.748  -0.008   3.628

 *******************************************************************************
 FINISHED BASIS SET HANDLING 
 *******************************************************************************

 INFORMATION **** SET_MPP **** PCRYSTAL CALCULATION
 INFORMATION **** READM2 **** NEW DEFAULT: FOCK/KS MATRIX MIXING SET TO 30 %
 INFORMATION **** READM2 **** NEW DEFAULT: FULL DIRECT SCF MODE
 INFORMATION **** READM2 **** NEW DEFAULT: COULOMB BIPOLAR BUFFER SET TO 32 Mb
 INFORMATION **** READM2 **** NEW DEFAULT: EXCHANGE BIPOLAR BUFFER SET TO 32 Mb

 *******************************************************************************
 NEW DEFAULT: DFT INTEGRATION GRID INCREASED TO XLGRID
 NEW DEFAULT: DIIS ACCELERATOR ACTIVE
 USE KEYWORD NODIIS TO TURN IT OFF
 *******************************************************************************

 WARNING **** RDDFTP **** HSEsol-HJS ACTIVE
 RANGE SEPARATION - OMEGA:   0.110000000000000     
 WARNING **** RDDFTP **** HSEsol-3c has to be combined with sol-def2-mSVP basis set
 *******************************************************************************
 N. OF ATOMS PER CELL        42  COULOMB OVERLAP TOL         (T1) 10**   -6
 NUMBER OF SHELLS           234  COULOMB PENETRATION TOL     (T2) 10**   -6
 NUMBER OF AO               474  EXCHANGE OVERLAP TOL        (T3) 10**   -6
 N. OF ELECTRONS PER CELL   198  EXCHANGE PSEUDO OVP (F(G))  (T4) 10**   -6
 CORE ELECTRONS PER CELL     60  EXCHANGE PSEUDO OVP (P(G))  (T5) 10**  -12
 N. OF SYMMETRY OPERATORS     1  POLE ORDER IN MONO ZONE                  4
 *******************************************************************************
 TYPE OF CALCULATION :  RESTRICTED CLOSED SHELL
 KOHN-SHAM HAMILTONIAN

 (EXCHANGE)[CORRELATION] FUNCTIONAL:(HSEsol GGA)[PBEsol]

 RANGE-SEPARATED HYBRID FUNCTIONAL 
 OMEGA (SHORT-RANGE)[LONG-RANGE]:(    0.1100)[    0.0000]

 HYBRID EXCHANGE - PERCENTAGE OF FOCK EXCHANGE    25.0000

 CAPPA:IS1  2;IS2  2;IS3  8; K PTS MONK NET  20; SYMMOPS:K SPACE   2;G SPACE   1

 *******************************************************************************
 MAX NUMBER OF SCF CYCLES      50  CONVERGENCE ON DELTAP        10**-16
 WEIGHT OF F(I) IN F(I+1)      30% CONVERGENCE ON ENERGY        10**- 6
 SHRINK. FACT.(MONKH.)    2  2  8  NUMBER OF K POINTS IN THE IBZ     20
 SHRINKING FACTOR(GILAT NET)    8  NUMBER OF K POINTS(GILAT NET)   1028
 *******************************************************************************
 *** K POINTS COORDINATES (OBLIQUE COORDINATES IN UNITS OF IS =  2)
   1-R(  0  0  0)   2-R(  1  0  0)   3-R(  0  1  0)   4-R(  1  1  0)
   5-C(  0  0  1)   6-C(  1  0  1)   7-C(  0  1  1)   8-C(  1  1  1)
   9-C(  0  0  2)  10-C(  1  0  2)  11-C(  0  1  2)  12-C(  1  1  2)
  13-C(  0  0  3)  14-C(  1  0  3)  15-C(  0  1  3)  16-C(  1  1  3)
  17-R(  0  0  4)  18-R(  1  0  4)  19-R(  0  1  4)  20-R(  1  1  4)

 DIRECT LATTICE VECTORS COMPON. (A.U.)     RECIP. LATTICE VECTORS COMPON. (A.U.) 
        X            Y            Z              X            Y            Z
   24.5689761  -14.2152832    0.0000000      0.2557366    0.0000000   -0.0336982
    0.0000000   28.4297713    0.0000000      0.1278719    0.2210072   -0.0671769
    0.9462432    1.6352604    7.1810725      0.0000000    0.0000000    0.8749648

 DISK SPACE FOR EIGENVECTORS (FTN 10)     7189632 REALS

 SYMMETRY ADAPTION OF THE BLOCH FUNCTIONS DISABLED
 TTTTTTTTTTTTTTTTTTTTTTTTTTTTTT gordsh1     TELAPSE        0.04 TCPU        0.04

 MATRIX SIZE: P(G)  350578, F(G)   73337, P(G) IRR  177572, F(G) IRR   74033
 MAX G-VECTOR INDEX FOR 1- AND 2-ELECTRON INTEGRALS  97

 TTTTTTTTTTTTTTTTTTTTTTTTTTTTTT INPUT       TELAPSE        0.29 TCPU        0.29

 NEIGHBORS OF THE NON-EQUIVALENT ATOMS

 N = NUMBER OF NEIGHBORS AT DISTANCE R
    ATOM  N     R/ANG      R/AU   NEIGHBORS (ATOM LABELS AND CELL INDICES)
   1 B    1     1.3787     2.6054   38 O    0 0 0
   1 B    1     1.3795     2.6068   37 O   -1 0 0
   1 B    1     1.5517     2.9323   30 C    0 0 0
   1 B    1     2.3868     4.5104    2 B    0 0 0
   1 B    1     2.3912     4.5187    3 B   -1 0 0
   1 B    1     2.5629     4.8432   27 C   -1 0 0

   2 B    1     1.3792     2.6064   38 O    0 0 0
   2 B    1     1.3798     2.6075   39 O    0 1-1
   2 B    1     1.5510     2.9309   19 C    0 0 0
   2 B    1     2.3868     4.5104    1 B    0 0 0
   2 B    1     2.3894     4.5154    3 B   -1 0 0
   2 B    1     2.5618     4.8411   22 C    0 1-1

   3 B    1     1.3790     2.6060   37 O    0 0 0
   3 B    1     1.3795     2.6069   39 O    1 1-1
   3 B    1     1.5529     2.9346   36 C    0 0 0
   3 B    1     2.3894     4.5154    2 B    1 0 0
   3 B    1     2.3912     4.5187    1 B    1 0 0
   3 B    1     2.5679     4.8526   35 C    1 1-1

   4 B    1     1.3779     2.6038   41 O    0 0 0
   4 B    1     1.3786     2.6051   40 O    0 1-1
   4 B    1     1.5479     2.9252   24 C    0 0 0
   4 B    1     2.3857     4.5084    5 B    0 0 0
   4 B    1     2.3859     4.5087    6 B    1 1-1
   4 B    1     2.5585     4.8349   21 C    0 1-1

   5 B    1     1.3778     2.6037   41 O    0 0 0
   5 B    1     1.3814     2.6104   42 O    1 1-1
   5 B    1     1.5524     2.9336   31 C    0 0 0
   5 B    1     2.3857     4.5084    4 B    0 0 0
   5 B    1     2.3952     4.5263    6 B    1 1-1
   5 B    1     2.5591     4.8359   32 C    1 1-1

   6 B    1     1.3783     2.6045   40 O   -1 0 0
   6 B    1     1.3812     2.6101   42 O    0 0 0
   6 B    1     1.5546     2.9377   25 C    0 0 0
   6 B    1     2.3859     4.5087    4 B   -1-1 1
   6 B    1     2.3952     4.5263    5 B   -1-1 1
   6 B    1     2.5605     4.8386   26 C    0 0 0

   7 H    1     1.0917     2.0629   20 C    0 0 0
   7 H    1     2.1462     4.0556   19 C    0 0 0
   7 H    1     2.1712     4.1029   23 C    0 0 0
   7 H    1     2.5280     4.7772   10 H    0 0 0
   7 H    1     2.5583     4.8346   38 O    0 0 0
   7 H    1     2.7310     5.1609    2 B    0 0 0

   8 H    1     1.0909     2.0615   21 C    0 0 0
   8 H    1     2.1454     4.0542   24 C    0-1 1
   8 H    1     2.1688     4.0985   22 C    0 0 0
   8 H    1     2.5272     4.7758    9 H    0 0 0
   8 H    1     2.5562     4.8306   40 O    0 0 0
   8 H    1     2.7243     5.1483    4 B    0-1 1

   9 H    1     1.0908     2.0614   22 C    0 0 0
   9 H    1     2.1443     4.0521   19 C    0-1 1
   9 H    1     2.1694     4.0995   21 C    0 0 0
   9 H    1     2.5272     4.7758    8 H    0 0 0
   9 H    1     2.5616     4.8407   39 O    0 0 0
   9 H    1     2.7249     5.1492    2 B    0-1 1

  10 H    1     1.0912     2.0621   23 C    0 0 0
  10 H    1     2.1469     4.0570   24 C    0 0 0
  10 H    1     2.1689     4.0986   20 C    0 0 0
  10 H    1     2.5280     4.7772    7 H    0 0 0
  10 H    1     2.5562     4.8305   41 O    0 0 0
  10 H    1     2.7309     5.1607    4 B    0 0 0

  11 H    1     1.0911     2.0619   26 C    0 0 0
  11 H    1     2.1443     4.0521   25 C    0 0 0
  11 H    1     2.1684     4.0978   29 C    0 0 1
  11 H    1     2.5223     4.7664   14 H    0 0 1
  11 H    1     2.5622     4.8419   42 O    0 0 0
  11 H    1     2.7179     5.1361    6 B    0 0 0

  12 H    1     1.0917     2.0630   27 C    0 0 0
  12 H    1     2.1441     4.0518   30 C    1 0 0
  12 H    1     2.1716     4.1037   28 C    0 0-1
  12 H    1     2.5226     4.7669   13 H    0 0-1
  12 H    1     2.5541     4.8265   37 O    0 0 0
  12 H    1     2.7237     5.1471    1 B    1 0 0

  13 H    1     1.0919     2.0634   28 C    0 0 0
  13 H    1     2.1522     4.0671   25 C    1 0 0
  13 H    1     2.1668     4.0946   27 C    0 0 1
  13 H    1     2.5226     4.7669   12 H    0 0 1
  13 H    1     2.5923     4.8987   40 O    0 0 0
  13 H    1     2.7583     5.2124    6 B    1 0 0

  14 H    1     1.0915     2.0627   29 C    0 0 0
  14 H    1     2.1483     4.0597   30 C    0 0 0
  14 H    1     2.1679     4.0968   26 C    0 0-1
  14 H    1     2.5223     4.7664   11 H    0 0-1
  14 H    1     2.5809     4.8771   38 O    0 0 0
  14 H    1     2.7404     5.1785    1 B    0 0 0

  15 H    1     1.0916     2.0628   32 C    0 0 0
  15 H    1     2.1436     4.0508   31 C   -1-1 1
  15 H    1     2.1707     4.1021   35 C    0 0 0
  15 H    1     2.5217     4.7654   18 H    0 0 0
  15 H    1     2.5568     4.8316   42 O    0 0 0
  15 H    1     2.7165     5.1335    5 B   -1-1 1

  16 H    1     1.0914     2.0625   33 C    0 0 0
  16 H    1     2.1488     4.0606   36 C    0 0 0
  16 H    1     2.1663     4.0937   34 C    0 0 0
  16 H    1     2.5170     4.7564   17 H    0 0 0
  16 H    1     2.5780     4.8717   37 O    0 0 0
  16 H    1     2.7396     5.1770    3 B    0 0 0

  17 H    1     1.0921     2.0638   34 C    0 0 0
  17 H    1     2.1502     4.0633   31 C    0 0 0
  17 H    1     2.1683     4.0976   33 C    0 0 0
  17 H    1     2.5170     4.7564   16 H    0 0 0
  17 H    1     2.5870     4.8888   41 O    0 0 0
  17 H    1     2.7510     5.1986    5 B    0 0 0

  18 H    1     1.0913     2.0622   35 C    0 0 0
  18 H    1     2.1495     4.0619   36 C   -1-1 1
  18 H    1     2.1656     4.0923   32 C    0 0 0
  18 H    1     2.5217     4.7654   15 H    0 0 0
  18 H    1     2.5789     4.8734   39 O    0 0 0
  18 H    1     2.7392     5.1763    3 B   -1-1 1

  19 C    1     1.4017     2.6489   22 C    0 1-1
  19 C    1     1.4025     2.6504   20 C    0 0 0
  19 C    1     1.5510     2.9309    2 B    0 0 0
  19 C    1     2.1443     4.0521    9 H    0 1-1
  19 C    1     2.1462     4.0556    7 H    0 0 0
  19 C    1     2.4236     4.5800   21 C    0 1-1

  20 C    1     1.0917     2.0629    7 H    0 0 0
  20 C    1     1.3915     2.6296   23 C    0 0 0
  20 C    1     1.4025     2.6504   19 C    0 0 0
  20 C    1     2.1689     4.0986   10 H    0 0 0
  20 C    1     2.4191     4.5715   22 C    0 1-1
  20 C    1     2.4241     4.5809   24 C    0 0 0

  21 C    1     1.0909     2.0615    8 H    0 0 0
  21 C    1     1.3909     2.6284   22 C    0 0 0
  21 C    1     1.4014     2.6483   24 C    0-1 1
  21 C    1     2.1694     4.0995    9 H    0 0 0
  21 C    1     2.4189     4.5711   23 C    0-1 1
  21 C    1     2.4236     4.5800   19 C    0-1 1

  22 C    1     1.0908     2.0614    9 H    0 0 0
  22 C    1     1.3909     2.6284   21 C    0 0 0
  22 C    1     1.4017     2.6489   19 C    0-1 1
  22 C    1     2.1688     4.0985    8 H    0 0 0
  22 C    1     2.4191     4.5715   20 C    0-1 1
  22 C    1     2.4226     4.5780   24 C    0-1 1

  23 C    1     1.0912     2.0621   10 H    0 0 0
  23 C    1     1.3915     2.6296   20 C    0 0 0
  23 C    1     1.4021     2.6496   24 C    0 0 0
  23 C    1     2.1712     4.1029    7 H    0 0 0
  23 C    1     2.4189     4.5711   21 C    0 1-1
  23 C    1     2.4237     4.5802   19 C    0 0 0

  24 C    1     1.4014     2.6483   21 C    0 1-1
  24 C    1     1.4021     2.6496   23 C    0 0 0
  24 C    1     1.5479     2.9252    4 B    0 0 0
  24 C    1     2.1454     4.0542    8 H    0 1-1
  24 C    1     2.1469     4.0570   10 H    0 0 0
  24 C    1     2.4226     4.5780   22 C    0 1-1

  25 C    1     1.4025     2.6504   26 C    0 0 0
  25 C    1     1.4037     2.6526   28 C   -1 0 0
  25 C    1     1.5546     2.9377    6 B    0 0 0
  25 C    1     2.1443     4.0521   11 H    0 0 0
  25 C    1     2.1522     4.0671   13 H   -1 0 0
  25 C    1     2.4271     4.5866   27 C   -1 0 1

  26 C    1     1.0911     2.0619   11 H    0 0 0
  26 C    1     1.3916     2.6298   29 C    0 0 1
  26 C    1     1.4025     2.6504   25 C    0 0 0
  26 C    1     2.1679     4.0968   14 H    0 0 1
  26 C    1     2.4165     4.5665   28 C   -1 0 0
  26 C    1     2.4246     4.5819   30 C    0 0 1

  27 C    1     1.0917     2.0630   12 H    0 0 0
  27 C    1     1.3928     2.6320   28 C    0 0-1
  27 C    1     1.4024     2.6502   30 C    1 0 0
  27 C    1     2.1668     4.0946   13 H    0 0-1
  27 C    1     2.4166     4.5668   29 C    1 0 0
  27 C    1     2.4271     4.5866   25 C    1 0-1

  28 C    1     1.0919     2.0634   13 H    0 0 0
  28 C    1     1.3928     2.6320   27 C    0 0 1
  28 C    1     1.4037     2.6526   25 C    1 0 0
  28 C    1     2.1716     4.1037   12 H    0 0 1
  28 C    1     2.4165     4.5665   26 C    1 0 0
  28 C    1     2.4277     4.5877   30 C    1 0 1

  29 C    1     1.0915     2.0627   14 H    0 0 0
  29 C    1     1.3916     2.6298   26 C    0 0-1
  29 C    1     1.4023     2.6499   30 C    0 0 0
  29 C    1     2.1684     4.0978   11 H    0 0-1
  29 C    1     2.4166     4.5668   27 C   -1 0 0
  29 C    1     2.4281     4.5884   25 C    0 0-1

  30 C    1     1.4023     2.6499   29 C    0 0 0
  30 C    1     1.4024     2.6502   27 C   -1 0 0
  30 C    1     1.5517     2.9323    1 B    0 0 0
  30 C    1     2.1441     4.0518   12 H   -1 0 0
  30 C    1     2.1483     4.0597   14 H    0 0 0
  30 C    1     2.4246     4.5819   26 C    0 0-1

  31 C    1     1.4022     2.6498   32 C    1 1-1
  31 C    1     1.4030     2.6513   34 C    0 0 0
  31 C    1     1.5524     2.9336    5 B    0 0 0
  31 C    1     2.1436     4.0508   15 H    1 1-1
  31 C    1     2.1502     4.0633   17 H    0 0 0
  31 C    1     2.4264     4.5853   33 C    0 0 0

  32 C    1     1.0916     2.0628   15 H    0 0 0
  32 C    1     1.3918     2.6301   35 C    0 0 0
  32 C    1     1.4022     2.6498   31 C   -1-1 1
  32 C    1     2.1656     4.0923   18 H    0 0 0
  32 C    1     2.4163     4.5661   34 C   -1-1 1
  32 C    1     2.4270     4.5863   36 C   -1-1 1

  33 C    1     1.0914     2.0625   16 H    0 0 0
  33 C    1     1.3927     2.6318   34 C    0 0 0
  33 C    1     1.4029     2.6510   36 C    0 0 0
  33 C    1     2.1683     4.0976   17 H    0 0 0
  33 C    1     2.4155     4.5646   35 C    1 1-1
  33 C    1     2.4264     4.5853   31 C    0 0 0

  34 C    1     1.0921     2.0638   17 H    0 0 0
  34 C    1     1.3927     2.6318   33 C    0 0 0
  34 C    1     1.4030     2.6513   31 C    0 0 0
  34 C    1     2.1663     4.0937   16 H    0 0 0
  34 C    1     2.4163     4.5661   32 C    1 1-1
  34 C    1     2.4289     4.5899   36 C    0 0 0

  35 C    1     1.0913     2.0622   18 H    0 0 0
  35 C    1     1.3918     2.6301   32 C    0 0 0
  35 C    1     1.4029     2.6511   36 C   -1-1 1
  35 C    1     2.1707     4.1021   15 H    0 0 0
  35 C    1     2.4155     4.5646   33 C   -1-1 1
  35 C    1     2.4269     4.5861   31 C   -1-1 1

  36 C    1     1.4029     2.6510   33 C    0 0 0
  36 C    1     1.4029     2.6511   35 C    1 1-1
  36 C    1     1.5529     2.9346    3 B    0 0 0
  36 C    1     2.1488     4.0606   16 H    0 0 0
  36 C    1     2.1495     4.0619   18 H    1 1-1
  36 C    1     2.4270     4.5863   32 C    1 1-1

  37 O    1     1.3790     2.6060    3 B    0 0 0
  37 O    1     1.3795     2.6068    1 B    1 0 0
  37 O    1     2.3868     4.5105   39 O    1 1-1
  37 O    1     2.3885     4.5136   38 O    1 0 0
  37 O    1     2.5389     4.7979   30 C    1 0 0
  37 O    1     2.5412     4.8022   36 C    0 0 0

  38 O    1     1.3787     2.6054    1 B    0 0 0
  38 O    1     1.3792     2.6064    2 B    0 0 0
  38 O    1     2.3885     4.5136   37 O   -1 0 0
  38 O    1     2.3912     4.5187   39 O    0 1-1
  38 O    1     2.5351     4.7906   19 C    0 0 0
  38 O    1     2.5405     4.8008   30 C    0 0 0

  39 O    1     1.3795     2.6069    3 B   -1-1 1
  39 O    1     1.3798     2.6075    2 B    0-1 1
  39 O    1     2.3868     4.5105   37 O   -1-1 1
  39 O    1     2.3912     4.5187   38 O    0-1 1
  39 O    1     2.5416     4.8030   19 C    0-1 1
  39 O    1     2.5427     4.8050   36 C   -1-1 1

  40 O    1     1.3783     2.6045    6 B    1 0 0
  40 O    1     1.3786     2.6051    4 B    0-1 1
  40 O    1     2.3876     4.5119   42 O    1 0 0
  40 O    1     2.3914     4.5190   41 O    0-1 1
  40 O    1     2.5354     4.7912   25 C    1 0 0
  40 O    1     2.5360     4.7923   24 C    0-1 1

  41 O    1     1.3778     2.6037    5 B    0 0 0
  41 O    1     1.3779     2.6038    4 B    0 0 0
  41 O    1     2.3870     4.5107   42 O    1 1-1
  41 O    1     2.3914     4.5190   40 O    0 1-1
  41 O    1     2.5305     4.7820   24 C    0 0 0
  41 O    1     2.5354     4.7912   31 C    0 0 0

  42 O    1     1.3812     2.6101    6 B    0 0 0
  42 O    1     1.3814     2.6104    5 B   -1-1 1
  42 O    1     2.3870     4.5107   41 O   -1-1 1
  42 O    1     2.3876     4.5119   40 O   -1 0 0
  42 O    1     2.5481     4.8152   31 C   -1-1 1
  42 O    1     2.5522     4.8230   25 C    0 0 0


 SYMMETRY ALLOWED INTERNAL DEGREE(S) OF FREEDOM: 123
 TTTTTTTTTTTTTTTTTTTTTTTTTTTTTT SYMM        TELAPSE        0.29 TCPU        0.29
 TTTTTTTTTTTTTTTTTTTTTTTTTTTTTT INT_SCREEN  TELAPSE        0.32 TCPU        0.32

 DFT PARAMETERS

     ATOM       ELECTRONS   NET CHARGE   R(ANGSTROM)
   1   5  B       5.0000      0.0000     0.89000000
   7   1  H       1.0000      0.0000     1.11000000
  19   6  C       6.0000      0.0000     0.77000000
  37   8  O       8.0000      0.0000     0.74000000

 SIZE OF GRID=    1289821
 TTTTTTTTTTTTTTTTTTTTTTTTTTTTTT MAKE_GRID2  TELAPSE       10.56 TCPU       10.55
 BECKE WEIGHT FUNCTION
 RADSAFE =     2.00
 TOLERANCES - DENSITY:10**- 6; POTENTIAL:10**- 9; GRID WGT:10**-14

 RADIAL INTEGRATION  - INTERVALS (POINTS,UPPER LIMIT):            1( 75,  4.0*R)

 ANGULAR INTEGRATION - INTERVALS (ACCURACY LEVEL [N. POINTS] UPPER LIMIT):
  1(  4[  86]   0.2)  2(  8[ 194]   0.5)  3( 12[ 350]   0.9)  4( 16[ 974]   3.5)
  5( 12[ 350]9999.0)
 TTTTTTTTTTTTTTTTTTTTTTTTTTTTTT INT_CALC    TELAPSE       10.66 TCPU       10.65
 EEEEEEEEEE INT_CALC TERMINATION  DATE 02 12 2025 TIME 08:02:08.1

 *******************************************************************************
 COF-5_z38_inc_L010                                                              
 CRYSTAL - SCF - TYPE OF CALCULATION :  RESTRICTED CLOSED SHELL
 *******************************************************************************

 CAPPA:IS1  2;IS2  2;IS3  8; K PTS MONK NET  20; SYMMOPS:K SPACE   2;G SPACE   1

 TTTTTTTTTTTTTTTTTTTTTTTTTTTTTT SDIK        TELAPSE       11.77 TCPU       21.24

 AAAAAAAAAAAAAAAAAAAAAAAAAAAAAAAAAAAAAAAAAAAAAAAAAAAAAAAAAAAAAAAAAAAAAAAAAAAAAAA
         ATOMIC WAVEFUNCTION(S)


 NUCLEAR CHARGE  5.0  SYMMETRY SPECIES            S    P
 N. ELECTRONS    5.0  NUMBER OF PRIMITIVE GTOS    8    4
                      NUMBER OF CONTRACTED GTOS   4    2
                      NUMBER OF CLOSED SHELLS     2    0
                      OPEN SHELL OCCUPATION       0    1

  ZNUC  SCFIT    TOTAL HF ENERGY   KINETIC ENERGY   VIRIAL THEOREM ACCURACY
   5.0    11    -2.451164084E+01  2.462155050E+01 -1.995536038E+00  1.5E-06

 NUCLEAR CHARGE  1.0  SYMMETRY SPECIES            S
 N. ELECTRONS    1.0  NUMBER OF PRIMITIVE GTOS    4
                      NUMBER OF CONTRACTED GTOS   2
                      NUMBER OF CLOSED SHELLS     0
                      OPEN SHELL OCCUPATION       1

  ZNUC  SCFIT    TOTAL HF ENERGY   KINETIC ENERGY   VIRIAL THEOREM ACCURACY
   1.0     1    -4.977266687E-01  5.190767460E-01 -1.958869132E+00  0.0E+00

 NUCLEAR CHARGE  6.0  SYMMETRY SPECIES            S    P
 N. ELECTRONS    6.0  NUMBER OF PRIMITIVE GTOS    8    4
                      NUMBER OF CONTRACTED GTOS   4    2
                      NUMBER OF CLOSED SHELLS     2    0
                      OPEN SHELL OCCUPATION       0    2

  ZNUC  SCFIT    TOTAL HF ENERGY   KINETIC ENERGY   VIRIAL THEOREM ACCURACY
   6.0     9    -3.766704647E+01  3.775180683E+01 -1.997754800E+00  1.1E-06

 NUCLEAR CHARGE  8.0  SYMMETRY SPECIES            S    P
 N. ELECTRONS    8.0  NUMBER OF PRIMITIVE GTOS    8    4
                      NUMBER OF CONTRACTED GTOS   4    2
                      NUMBER OF CLOSED SHELLS     2    0
                      OPEN SHELL OCCUPATION       0    4

  ZNUC  SCFIT    TOTAL HF ENERGY   KINETIC ENERGY   VIRIAL THEOREM ACCURACY
   8.0    12    -7.477373220E+01  7.477365593E+01 -2.000001020E+00  3.8E-06

 AAAAAAAAAAAAAAAAAAAAAAAAAAAAAAAAAAAAAAAAAAAAAAAAAAAAAAAAAAAAAAAAAAAAAAAAAAAAAAA

 CHARGE NORMALIZATION FACTOR   1.00000000
 TOTAL ATOMIC CHARGES:
   5.0000000   5.0000000   5.0000000   5.0000000   5.0000000   5.0000000
   1.0000000   1.0000000   1.0000000   1.0000000   1.0000000   1.0000000
   1.0000000   1.0000000   1.0000000   1.0000000   1.0000000   1.0000000
   6.0000000   6.0000000   6.0000000   6.0000000   6.0000000   6.0000000
   6.0000000   6.0000000   6.0000000   6.0000000   6.0000000   6.0000000
   6.0000000   6.0000000   6.0000000   6.0000000   6.0000000   6.0000000
   8.0000000   8.0000000   8.0000000   8.0000000   8.0000000   8.0000000
 TTTTTTTTTTTTTTTTTTTTTTTTTTTTTT MOQGAD      TELAPSE       11.87 TCPU       22.90
 TTTTTTTTTTTTTTTTTTTTTTTTTTTTTT SHELLXN     TELAPSE       20.61 TCPU      297.90
 TTTTTTTTTTTTTTTTTTTTTTTTTTTTTT MONMO3      TELAPSE       20.78 TCPU      303.21
 NUMERICALLY INTEGRATED DENSITY    198.0000005276
 TTTTTTTTTTTTTTTTTTTTTTTTTTTTTT NUMDFT      TELAPSE       21.36 TCPU      321.99
 CYC   0 ETOT(AU) -1.295954720668E+03 DETOT -1.30E+03 tst  0.00E+00 PX  1.00E+00
 TTTTTTTTTTTTTTTTTTTTTTTTTTTTTT DIIS        TELAPSE       21.40 TCPU      323.05
 TTTTTTTTTTTTTTTTTTTTTTTTTTTTTT FDIK        TELAPSE       21.89 TCPU      338.83
 INSULATING STATE
 TOP OF VALENCE BANDS -    BAND     99; K    1; EIG -3.0386071E-01 AU
 BOTTOM OF VIRTUAL BANDS - BAND    100; K   17; EIG -1.6586828E-01 AU
 INDIRECT ENERGY BAND GAP:   3.7550 eV
 BOTTOM OF VIRTUAL BANDS - BAND    100; K    1; EIG -1.4593514E-01 AU
 TTTTTTTTTTTTTTTTTTTTTTTTTTTTTT PDIG        TELAPSE       22.17 TCPU      344.84
 CHARGE NORMALIZATION FACTOR   1.00000000
 TOTAL ATOMIC CHARGES:
   4.1433560   4.1417752   4.1429818   4.1446655   4.1421960   4.1423778
   0.7858504   0.7858120   0.7858969   0.7859412   0.7856828   0.7855917
   0.7865562   0.7861319   0.7855700   0.7861538   0.7861111   0.7863478
   6.0504371   6.2680218   6.2680678   6.2689001   6.2675606   6.0527064
   6.0459154   6.2688999   6.2670389   6.2696492   6.2694188   6.0494240
   6.0492981   6.2680527   6.2690073   6.2684636   6.2700570   6.0469614
   8.6997463   8.6989738   8.6980562   8.6985865   8.6968653   8.7008934
 TTTTTTTTTTTTTTTTTTTTTTTTTTTTTT MOQGAD      TELAPSE       22.22 TCPU      344.89
 TTTTTTTTTTTTTTTTTTTTTTTTTTTTTT SHELLXN     TELAPSE       31.18 TCPU      630.55
 TTTTTTTTTTTTTTTTTTTTTTTTTTTTTT MONMO3      TELAPSE       31.35 TCPU      635.85
 NUMERICALLY INTEGRATED DENSITY    198.0000168121
 TTTTTTTTTTTTTTTTTTTTTTTTTTTTTT NUMDFT      TELAPSE       31.95 TCPU      654.96
 CYC   1 ETOT(AU) -1.288812001611E+03 DETOT  7.14E+00 tst  0.00E+00 PX  1.00E+00
 TTTTTTTTTTTTTTTTTTTTTTTTTTTTTT DIIS        TELAPSE       31.99 TCPU      656.33
 DIIS TEST: 0.11098E+01 AT SCF   CYCLE   1 - MIX   30 %
 TTTTTTTTTTTTTTTTTTTTTTTTTTTTTT FDIK        TELAPSE       32.49 TCPU      672.30
 INSULATING STATE
 TOP OF VALENCE BANDS -    BAND     99; K    1; EIG -2.0736535E-01 AU
 BOTTOM OF VIRTUAL BANDS - BAND    100; K   17; EIG -8.8849909E-02 AU
 INDIRECT ENERGY BAND GAP:   3.2250 eV
 BOTTOM OF VIRTUAL BANDS - BAND    100; K    1; EIG -6.5156877E-02 AU
 TTTTTTTTTTTTTTTTTTTTTTTTTTTTTT PDIG        TELAPSE       32.77 TCPU      678.32
 CHARGE NORMALIZATION FACTOR   1.00000000
 TOTAL ATOMIC CHARGES:
   4.7027593   4.7005717   4.7005565   4.7008201   4.6998542   4.7029483
   0.9190854   0.9194494   0.9204538   0.9202920   0.9183385   0.9179114
   0.9189062   0.9191640   0.9186378   0.9191489   0.9200557   0.9203041
   5.8661527   6.1223851   6.1202557   6.1288787   6.1309919   5.8621883
   5.8706753   6.1221914   6.1244376   6.1277447   6.1251805   5.8655340
   5.8682749   6.1168663   6.1199722   6.1310565   6.1284935   5.8686282
   8.3429715   8.3415637   8.3462029   8.3402253   8.3432179   8.3466536
 TTTTTTTTTTTTTTTTTTTTTTTTTTTTTT MOQGAD      TELAPSE       32.82 TCPU      678.38
 TTTTTTTTTTTTTTTTTTTTTTTTTTTTTT SHELLXN     TELAPSE       41.78 TCPU      964.00
 TTTTTTTTTTTTTTTTTTTTTTTTTTTTTT MONMO3      TELAPSE       41.95 TCPU      969.31
 NUMERICALLY INTEGRATED DENSITY    198.0000221359
 TTTTTTTTTTTTTTTTTTTTTTTTTTTTTT NUMDFT      TELAPSE       42.55 TCPU      988.47
 CYC   2 ETOT(AU) -1.289006000530E+03 DETOT -1.94E-01 tst  4.64E-03 PX  1.57E-01
 TTTTTTTTTTTTTTTTTTTTTTTTTTTTTT DIIS        TELAPSE       42.60 TCPU      990.04
 DIIS TEST: 0.48080E+00 AT SCF   CYCLE   2 - DIIS ACTIVE - HISTORY:     2 CYCLES
 TTTTTTTTTTTTTTTTTTTTTTTTTTTTTT FDIK        TELAPSE       43.09 TCPU     1005.77
 INSULATING STATE
 TOP OF VALENCE BANDS -    BAND     99; K    1; EIG -2.2399146E-01 AU
 BOTTOM OF VIRTUAL BANDS - BAND    100; K   17; EIG -8.4355019E-02 AU
 INDIRECT ENERGY BAND GAP:   3.7997 eV
 BOTTOM OF VIRTUAL BANDS - BAND    100; K    1; EIG -5.9156101E-02 AU
 TTTTTTTTTTTTTTTTTTTTTTTTTTTTTT PDIG        TELAPSE       43.37 TCPU     1011.78
 CHARGE NORMALIZATION FACTOR   1.00000000
 TOTAL ATOMIC CHARGES:
   4.4884257   4.4854064   4.4858563   4.4874878   4.4854365   4.4874189
   0.8918781   0.8916411   0.8924917   0.8926305   0.8908056   0.8906392
   0.8923835   0.8916972   0.8906528   0.8918585   0.8928793   0.8924829
   5.8914621   6.1618023   6.1630701   6.1613419   6.1615191   5.8943648
   5.8930912   6.1597839   6.1602823   6.1627245   6.1630755   5.8951522
   5.8929430   6.1616749   6.1623092   6.1625095   6.1630823   5.8916377
   8.5137585   8.5131625   8.5113907   8.5126554   8.5096161   8.5155181
 TTTTTTTTTTTTTTTTTTTTTTTTTTTTTT MOQGAD      TELAPSE       43.42 TCPU     1011.83
 TTTTTTTTTTTTTTTTTTTTTTTTTTTTTT SHELLXN     TELAPSE       52.38 TCPU     1297.43
 TTTTTTTTTTTTTTTTTTTTTTTTTTTTTT MONMO3      TELAPSE       52.55 TCPU     1302.75
 NUMERICALLY INTEGRATED DENSITY    198.0000219491
 TTTTTTTTTTTTTTTTTTTTTTTTTTTTTT NUMDFT      TELAPSE       53.15 TCPU     1321.90
 CYC   3 ETOT(AU) -1.289107170298E+03 DETOT -1.01E-01 tst  7.41E-04 PX  6.01E-02
 TTTTTTTTTTTTTTTTTTTTTTTTTTTTTT DIIS        TELAPSE       53.20 TCPU     1323.66
 DIIS TEST: 0.10237E-01 AT SCF   CYCLE   3 - DIIS ACTIVE - HISTORY:     3 CYCLES
 TTTTTTTTTTTTTTTTTTTTTTTTTTTTTT FDIK        TELAPSE       53.70 TCPU     1339.59
 INSULATING STATE
 TOP OF VALENCE BANDS -    BAND     99; K    1; EIG -2.3318698E-01 AU
 BOTTOM OF VIRTUAL BANDS - BAND    100; K   17; EIG -9.4080445E-02 AU
 INDIRECT ENERGY BAND GAP:   3.7853 eV
 BOTTOM OF VIRTUAL BANDS - BAND    100; K    1; EIG -6.9588328E-02 AU
 TTTTTTTTTTTTTTTTTTTTTTTTTTTTTT PDIG        TELAPSE       53.98 TCPU     1345.61
 CHARGE NORMALIZATION FACTOR   1.00000000
 TOTAL ATOMIC CHARGES:
   4.4960234   4.4926690   4.4927392   4.4939019   4.4920285   4.4956947
   0.8754684   0.8759575   0.8760510   0.8761261   0.8743173   0.8742003
   0.8755046   0.8755248   0.8750018   0.8757297   0.8762116   0.8762942
   5.9478996   6.1598356   6.1569218   6.1650534   6.1650626   5.9439420
   5.9491542   6.1608279   6.1607874   6.1632812   6.1612520   5.9459107
   5.9474734   6.1561282   6.1583520   6.1655199   6.1646247   5.9469607
   8.4849341   8.4835996   8.4875832   8.4825360   8.4851292   8.4877869
 TTTTTTTTTTTTTTTTTTTTTTTTTTTTTT MOQGAD      TELAPSE       54.03 TCPU     1345.66
 TTTTTTTTTTTTTTTTTTTTTTTTTTTTTT SHELLXN     TELAPSE       63.00 TCPU     1631.29
 TTTTTTTTTTTTTTTTTTTTTTTTTTTTTT MONMO3      TELAPSE       63.17 TCPU     1636.66
 NUMERICALLY INTEGRATED DENSITY    198.0000214732
 TTTTTTTTTTTTTTTTTTTTTTTTTTTTTT NUMDFT      TELAPSE       63.77 TCPU     1655.80
 CYC   4 ETOT(AU) -1.289109253711E+03 DETOT -2.08E-03 tst  2.86E-05 PX  1.21E-02
 TTTTTTTTTTTTTTTTTTTTTTTTTTTTTT DIIS        TELAPSE       63.83 TCPU     1657.69
 DIIS TEST: 0.37164E-02 AT SCF   CYCLE   4 - DIIS ACTIVE - HISTORY:     4 CYCLES
 TTTTTTTTTTTTTTTTTTTTTTTTTTTTTT FDIK        TELAPSE       64.32 TCPU     1673.45
 INSULATING STATE
 TOP OF VALENCE BANDS -    BAND     99; K    1; EIG -2.3152079E-01 AU
 BOTTOM OF VIRTUAL BANDS - BAND    100; K   17; EIG -9.2918647E-02 AU
 INDIRECT ENERGY BAND GAP:   3.7716 eV
 BOTTOM OF VIRTUAL BANDS - BAND    100; K    1; EIG -6.8243398E-02 AU
 TTTTTTTTTTTTTTTTTTTTTTTTTTTTTT PDIG        TELAPSE       64.60 TCPU     1679.46
 CHARGE NORMALIZATION FACTOR   1.00000000
 TOTAL ATOMIC CHARGES:
   4.4968300   4.4938599   4.4942280   4.4955577   4.4936555   4.4961613
   0.8789373   0.8787757   0.8795403   0.8795431   0.8778968   0.8776187
   0.8792199   0.8787080   0.8779522   0.8789785   0.8797382   0.8795628
   5.9205312   6.1633386   6.1642586   6.1661052   6.1669765   5.9228433
   5.9223389   6.1631739   6.1641955   6.1662464   6.1659998   5.9231478
   5.9228040   6.1622492   6.1634622   6.1674832   6.1671733   5.9214657
   8.4955795   8.4946197   8.4947703   8.4939975   8.4928920   8.4975838
 TTTTTTTTTTTTTTTTTTTTTTTTTTTTTT MOQGAD      TELAPSE       64.65 TCPU     1679.52
 TTTTTTTTTTTTTTTTTTTTTTTTTTTTTT SHELLXN     TELAPSE       73.62 TCPU     1965.35
 TTTTTTTTTTTTTTTTTTTTTTTTTTTTTT MONMO3      TELAPSE       73.78 TCPU     1970.65
 NUMERICALLY INTEGRATED DENSITY    198.0000215738
 TTTTTTTTTTTTTTTTTTTTTTTTTTTTTT NUMDFT      TELAPSE       74.38 TCPU     1989.70
 CYC   5 ETOT(AU) -1.289110091452E+03 DETOT -8.38E-04 tst  6.05E-06 PX  7.25E-03
 TTTTTTTTTTTTTTTTTTTTTTTTTTTTTT DIIS        TELAPSE       74.44 TCPU     1991.84
 DIIS TEST: 0.95072E-04 AT SCF   CYCLE   5 - DIIS ACTIVE - HISTORY:     5 CYCLES
 TTTTTTTTTTTTTTTTTTTTTTTTTTTTTT FDIK        TELAPSE       74.94 TCPU     2007.72
 INSULATING STATE
 TOP OF VALENCE BANDS -    BAND     99; K    1; EIG -2.3128837E-01 AU
 BOTTOM OF VIRTUAL BANDS - BAND    100; K   17; EIG -9.2340336E-02 AU
 INDIRECT ENERGY BAND GAP:   3.7810 eV
 BOTTOM OF VIRTUAL BANDS - BAND    100; K    1; EIG -6.7654233E-02 AU
 TTTTTTTTTTTTTTTTTTTTTTTTTTTTTT PDIG        TELAPSE       75.22 TCPU     2013.73
 CHARGE NORMALIZATION FACTOR   1.00000000
 TOTAL ATOMIC CHARGES:
   4.4965168   4.4934596   4.4936163   4.4947828   4.4929405   4.4959603
   0.8797068   0.8800692   0.8804427   0.8805920   0.8787536   0.8786651
   0.8800222   0.8798710   0.8790809   0.8799343   0.8806898   0.8806205
   5.9248652   6.1635361   6.1610602   6.1662584   6.1656009   5.9213996
   5.9254194   6.1629572   6.1625778   6.1654568   6.1642712   5.9236175
   5.9238453   6.1605749   6.1622059   6.1664483   6.1664966   5.9235541
   8.4940519   8.4931583   8.4951953   8.4921539   8.4927823   8.4967886
 TTTTTTTTTTTTTTTTTTTTTTTTTTTTTT MOQGAD      TELAPSE       75.27 TCPU     2013.79
 TTTTTTTTTTTTTTTTTTTTTTTTTTTTTT SHELLXN     TELAPSE       84.24 TCPU     2299.49
 TTTTTTTTTTTTTTTTTTTTTTTTTTTTTT MONMO3      TELAPSE       84.40 TCPU     2304.80
 NUMERICALLY INTEGRATED DENSITY    198.0000216056
 TTTTTTTTTTTTTTTTTTTTTTTTTTTTTT NUMDFT      TELAPSE       85.00 TCPU     2323.94
 CYC   6 ETOT(AU) -1.289110110743E+03 DETOT -1.93E-05 tst  2.36E-07 PX  1.08E-03
 TTTTTTTTTTTTTTTTTTTTTTTTTTTTTT DIIS        TELAPSE       85.08 TCPU     2326.21
 DIIS TEST: 0.17532E-04 AT SCF   CYCLE   6 - DIIS ACTIVE - HISTORY:     6 CYCLES
 TTTTTTTTTTTTTTTTTTTTTTTTTTTTTT FDIK        TELAPSE       85.57 TCPU     2342.12
 INSULATING STATE
 TOP OF VALENCE BANDS -    BAND     99; K    1; EIG -2.3130749E-01 AU
 BOTTOM OF VIRTUAL BANDS - BAND    100; K   17; EIG -9.2432706E-02 AU
 INDIRECT ENERGY BAND GAP:   3.7790 eV
 BOTTOM OF VIRTUAL BANDS - BAND    100; K    1; EIG -6.7745755E-02 AU
 TTTTTTTTTTTTTTTTTTTTTTTTTTTTTT PDIG        TELAPSE       85.85 TCPU     2348.13
 CHARGE NORMALIZATION FACTOR   1.00000000
 TOTAL ATOMIC CHARGES:
   4.4966359   4.4935294   4.4938616   4.4952571   4.4933334   4.4960350
   0.8798408   0.8797922   0.8804430   0.8804506   0.8787736   0.8785216
   0.8800785   0.8796787   0.8789418   0.8799168   0.8806366   0.8805113
   5.9223434   6.1621753   6.1625891   6.1651108   6.1661240   5.9241460
   5.9245745   6.1621208   6.1630580   6.1652862   6.1644099   5.9244162
   5.9245303   6.1606804   6.1621980   6.1666433   6.1659037   5.9230329
   8.4946074   8.4934790   8.4943687   8.4928385   8.4924739   8.4966515
 TTTTTTTTTTTTTTTTTTTTTTTTTTTTTT MOQGAD      TELAPSE       85.90 TCPU     2348.18
 TTTTTTTTTTTTTTTTTTTTTTTTTTTTTT SHELLXN     TELAPSE       94.86 TCPU     2633.57
 TTTTTTTTTTTTTTTTTTTTTTTTTTTTTT MONMO3      TELAPSE       95.03 TCPU     2638.86
 NUMERICALLY INTEGRATED DENSITY    198.0000216030
 TTTTTTTTTTTTTTTTTTTTTTTTTTTTTT NUMDFT      TELAPSE       95.63 TCPU     2658.03
 CYC   7 ETOT(AU) -1.289110113656E+03 DETOT -2.91E-06 tst  2.09E-07 PX  6.35E-04
 TTTTTTTTTTTTTTTTTTTTTTTTTTTTTT DIIS        TELAPSE       95.70 TCPU     2660.53
 DIIS TEST: 0.44083E-05 AT SCF   CYCLE   7 - DIIS ACTIVE - HISTORY:     7 CYCLES
 TTTTTTTTTTTTTTTTTTTTTTTTTTTTTT FDIK        TELAPSE       96.20 TCPU     2676.43
 INSULATING STATE
 TOP OF VALENCE BANDS -    BAND     99; K    1; EIG -2.3131892E-01 AU
 BOTTOM OF VIRTUAL BANDS - BAND    100; K   17; EIG -9.2466281E-02 AU
 INDIRECT ENERGY BAND GAP:   3.7784 eV
 BOTTOM OF VIRTUAL BANDS - BAND    100; K    1; EIG -6.7778495E-02 AU
 TTTTTTTTTTTTTTTTTTTTTTTTTTTTTT PDIG        TELAPSE       96.48 TCPU     2682.45
 CHARGE NORMALIZATION FACTOR   1.00000000
 TOTAL ATOMIC CHARGES:
   4.4967586   4.4937117   4.4939934   4.4952499   4.4933615   4.4961120
   0.8797376   0.8797925   0.8803648   0.8804318   0.8786993   0.8785002
   0.8800171   0.8796420   0.8788964   0.8798572   0.8805956   0.8804521
   5.9232615   6.1626683   6.1621590   6.1655870   6.1657636   5.9230052
   5.9244332   6.1624121   6.1628788   6.1651583   6.1646355   5.9242923
   5.9240472   6.1607897   6.1621630   6.1663589   6.1663027   5.9232892
   8.4944845   8.4935532   8.4945678   8.4927555   8.4924401   8.4968194
 TTTTTTTTTTTTTTTTTTTTTTTTTTTTTT MOQGAD      TELAPSE       96.53 TCPU     2682.50
 TTTTTTTTTTTTTTTTTTTTTTTTTTTTTT SHELLXN     TELAPSE      105.50 TCPU     2968.13
 TTTTTTTTTTTTTTTTTTTTTTTTTTTTTT MONMO3      TELAPSE      105.66 TCPU     2973.44
 NUMERICALLY INTEGRATED DENSITY    198.0000216024
 TTTTTTTTTTTTTTTTTTTTTTTTTTTTTT NUMDFT      TELAPSE      106.26 TCPU     2992.51
 CYC   8 ETOT(AU) -1.289110114638E+03 DETOT -9.82E-07 tst  3.99E-08 PX  2.80E-04
 TTTTTTTTTTTTTTTTTTTTTTTTTTTTTT DIIS        TELAPSE      106.34 TCPU     2995.09
 DIIS TEST: 0.30775E-06 AT SCF   CYCLE   8 - DIIS ACTIVE - HISTORY:     8 CYCLES
 TTTTTTTTTTTTTTTTTTTTTTTTTTTTTT FDIK        TELAPSE      106.83 TCPU     3010.93
 INSULATING STATE
 TOP OF VALENCE BANDS -    BAND     99; K    1; EIG -2.3132259E-01 AU
 BOTTOM OF VIRTUAL BANDS - BAND    100; K   17; EIG -9.2462889E-02 AU
 INDIRECT ENERGY BAND GAP:   3.7786 eV
 BOTTOM OF VIRTUAL BANDS - BAND    100; K    1; EIG -6.7774588E-02 AU
 TTTTTTTTTTTTTTTTTTTTTTTTTTTTTT PDIG        TELAPSE      107.11 TCPU     3016.94
 CHARGE NORMALIZATION FACTOR   1.00000000
 TOTAL ATOMIC CHARGES:
   4.4967337   4.4936759   4.4939441   4.4952447   4.4933559   4.4961495
   0.8797111   0.8797992   0.8803596   0.8804188   0.8786859   0.8784929
   0.8799813   0.8796585   0.8788990   0.8798376   0.8805715   0.8804615
   5.9231287   6.1627096   6.1621279   6.1655520   6.1659281   5.9230666
   5.9246922   6.1624732   6.1629011   6.1653665   6.1644623   5.9240122
   5.9241755   6.1607445   6.1622295   6.1665748   6.1661791   5.9230998
   8.4944695   8.4934682   8.4946390   8.4926926   8.4925509   8.4967755
 TTTTTTTTTTTTTTTTTTTTTTTTTTTTTT MOQGAD      TELAPSE      107.16 TCPU     3016.99
 TTTTTTTTTTTTTTTTTTTTTTTTTTTTTT SHELLXN     TELAPSE      116.14 TCPU     3302.94
 +++ ENERGIES IN A.U. +++
 ::: EXT EL-POLE                                  -1.3161566980302E+03
 ::: EXT EL-SPHEROPOLE                             1.5058715963459E+01
 ::: BIELET ZONE E-E                               2.2370477195384E+03
 ::: TOTAL E-E                                     9.3594973747166E+02
 ::: TOTAL E-N + N-E                              -3.6996588303659E+03
 ::: TOTAL N-N                                     3.2840216812158E+02
 ::: KINETIC ENERGY                                1.2799055669295E+03
 ::: PSEUDO TOTAL   ENERGY                        -1.1554013578431E+03
 ::: VIRIAL COEFFICIENT                            1.0511246479119E+00
 TTTTTTTTTTTTTTTTTTTTTTTTTTTTTT MONMO3      TELAPSE      116.30 TCPU     3308.24
 NUMERICALLY INTEGRATED DENSITY    198.0000216024
 EXCHANGE ENERGY: -0.126015628836E+03  CORRELATION ENERGY: -0.769312806028E+01
 TTTTTTTTTTTTTTTTTTTTTTTTTTTTTT NUMDFT      TELAPSE      116.90 TCPU     3327.34
 CYC   9 ETOT(AU) -1.289110114740E+03 DETOT -1.02E-07 tst  3.01E-09 PX  2.80E-04

 == SCF ENDED - CONVERGENCE ON ENERGY      E(AU) -1.2891101147398E+03 CYCLES   9


 ENERGY EXPRESSION=HARTREE+FOCK EXCH*0.00000+(HSESOL     EXCH)*1.00000+PBESOL     CORR


 TOTAL ENERGY(DFT)(AU)(  9) -1.2891101147398E+03 DE-1.0E-07 tester 3.0E-09
 TTTTTTTTTTTTTTTTTTTTTTTTTTTTTT EDFT        TELAPSE      116.90 TCPU     3327.35
 
 INFORMATION **** DFTD3 ENERGY **** CALCULATE DFTD3 ENERGY

           DFT-D V3(BJ)
 DF                                         hsesol3c  
 parameters
 s6       :    1.0000
 s8       :    0.0000
 a1       :    0.5196
 a2       :    4.9385
 k1 k3    :   16.0000   -4.0000
 Cutoff   :   50.2022
 CN-Cutoff:   21.1671
 ABC-Cutoff:   21.1671
 
 Edisp /kcal,au:   -27.6588 -0.04407705

 E6    /kcal :   -29.5487
 E8    /kcal :     0.0000
 E6(ABC) "   :   1.889959
 
 INFORMATION **** DFTD3 ENERGY **** NORMAL TERMINATION OF DFTD3 MODULE

 GCP ENERGY CALCULATION
  level        hsesol3c            basis:hsesol3c
  Nbf            474
  Atoms           42

  Parameters: 
  sigma     1.0000
  eta       1.4281
  alpha     0.2936
  beta      1.9467

  dmp_scal      4.0000
  dmp_exp       6.0000
 cutoffs: 
   distance [bohr] 60.0
   noise    [a.u.] 2.2E-16
 SR-damping   T
 ** gCP correction **
  Egcp:        0.0831103913 / (a.u.) ||      52.1526 / (kcal/mol)
 INFORMATION **** GCP **** NORMAL TERMINATION OF GCP MODULE

 *******************************************************************************

 DFT-D3-GCP DISPERSION AND COUNTERPOISE CORRECTION

 D3 DISPERSION ENERGY (AU)      -4.4077051679952E-02
 GCP ENERGY (AU)                 8.3110391339732E-02
 TOTAL ENERGY + DISP + GCP (AU) -1.2890710814001E+03

 *******************************************************************************

 EIGENVECTORS IN FORTRAN UNIT 10
 TTTTTTTTTTTTTTTTTTTTTTTTTTTTTT END         TELAPSE      118.17 TCPU     3334.48
 EEEEEEEEEE TERMINATION  DATE 02 12 2025 TIME 08:03:55.7
