 Default number of threads is:           32

         
 *******************************************************************************
 *                                                                             *
 *                               CRYSTAL23                                     *
 *                      public : 1.0.1 - October 2022                          *
 *                       HTTP://WWW.CRYSTAL.UNITO.IT                           *
 *                                                                             *
 *                              MAIN AUTHORS                                   *
 *                                                                             *
 *  R. DOVESI(1,11), V.R. SAUNDERS(2), C. ROETTI(1,11), R. ORLANDO(1,11),      *
 *  C.M. ZICOVICH-WILSON(1,3), F. PASCALE(4), B. CIVALLERI(1,11),              *
 *  K. DOLL(5), N.M. HARRISON(6), I.J. BUSH(7), Ph. D'ARCO(8),                 *
 *  M. LLUNELL(9), M. CAUSA'(10), Y. NOEL(8), L. MASCHIO(1,11), A. ERBA(1,11)  *
 *  M. RE'RAT(14), S. CASASSA(1,11), B.G. SEARLE(2), J.K. DESMARAIS(1)         *
 *                                                                             *
 *        CONTRIBUTIONS TO THE CODE HAVE ALSO BEEN GIVEN BY                    *
 *                                                                             *
 *  M. FERRABONE(1,11), M. DE LA PIERRE(1,11), M. FERRERO(1,11),               *
 *  J. BAIMA(1,11), E. ALBANESE(1,11), M.F. PEINTINGER(12), R. BAST(13),       *
 *  B. KIRTMAN(15), V. LACIVITA(1,11), R. DEMICHELIS(1,16)                     *
 *  G. BRANDEBURG(17), S. SALUSTRO(1,11), G. SANSONE(1,11)                     *
 *  M.T. RUGGIERO(18), L.E. DAGA(1), L. DONA'(1), A. COSSARD(1)                *
 *                                                                             *
 * (1) THEORETICAL CHEMISTRY GROUP - UNIVERSITA' DI TORINO - TORINO (ITALY)    *
 * (2) SCIENTIFIC COMPUTING DEPARTMENT - STFC DARESBURY (UK)                   *
 * (3) UNIVERSIDAD AUTONOMA DEL ESTADO DE MORELOS - CUERNAVACA (MEXICO)        *
 * (4) UNIVERSITE' DE LORRAINE - NANCY (FRANCE)                                *
 * (5) UNIVERSITAET STUTTGART- STUTTGART (GERMANY)                             *
 * (6) IMPERIAL COLLEGE - LONDON (UK)                                          *
 * (7) SCIENTIFIC COMPUTING DEPARTMENT - STFC RAL (UK)                         *
 * (8) UPMC - SORBONNE UNIVERSITES - PARIS (FRANCE)                            *
 * (9) UNIVERSIDAD DE BARCELONA - BARCELONA (SPAIN)                            *
 *(10) UNIVERSITA' DI NAPOLI "FEDERICO II" - NAPOLI (ITALY)                    *
 *(11) NIS - NANOSTRUCTURED INTERFACES AND SURFACES - TORINO (ITALY)           *
 *(12) MPI FUER CHEMISCHE ENERGIEKONVERSION - MUELHEIM AN DER RUHR (GERMANY)   *
 *(13) UNIVERSITY OF TROMSO - TROMSO (NORWAY)                                  *
 *(14) UNIVERSITE' DE PAU ET DES PAYS DE L'ADOUR - PAU (FRANCE)                *
 *(15) UNIVERSITY OF CALIFORNIA SANTA BARBARA - SANTA BARBARA (USA)            *
 *(16) CURTIN UNIVERSITY - PERTH (AUSTRALIA)                                   *
 *(17) UNIVERSITY COLLEGE LONDON - LONDON (UK)                                 *
 *(18) UNIVERSITY OF VERMONT - BURLINGTON (USA)                                *
 *                                                                             *
 *******************************************************************************
 EEEEEEEEEE STARTING  DATE 19 02 2026 TIME 20:25:01.5
 cof-1_z40_L070_serr                                                             

 CRYSTAL CALCULATION
 (INPUT ACCORDING TO THE INTERNATIONAL TABLES FOR X-RAY CRYSTALLOGRAPHY)
 CRYSTAL FAMILY                       :  TRICLINIC   
 CRYSTAL CLASS  (GROTH - 1921)        :  TRICLINIC PEDIAL                     

 SPACE GROUP (NONCENTROSYMMETRIC)     :  P 1             

 LATTICE PARAMETERS  (ANGSTROMS AND DEGREES) - CONVENTIONAL CELL
        A           B           C        ALPHA        BETA       GAMMA
    15.02361    15.02392     8.00000    90.00032    89.99994   119.99596


 NUMBER OF IRREDUCIBLE ATOMS IN THE CONVENTIONAL CELL:   84

 INPUT COORDINATES

 ATOM AT. N.              COORDINATES
   1   5     6.136805400000E-01  2.273182200000E-01  2.505970900000E-01
   2   5     8.826434800000E-01  7.652987900000E-01  7.505970900000E-01
   3   5     7.727362000000E-01  3.863778800000E-01  2.505971000000E-01
   4   5     4.169914000000E-02  9.243584500000E-01  7.505971000000E-01
   5   5     6.136762700000E-01  3.863606700000E-01  2.493417000000E-01
   6   5     8.826392100000E-01  9.243412400000E-01  7.493417000000E-01
   7   5     2.272552500000E-01  6.136332200000E-01  2.505970900000E-01
   8   5     4.962181900000E-01  1.516137900000E-01  7.505970900000E-01
   9   5     3.863632200000E-01  6.136124500000E-01  2.505970900000E-01
  10   5     6.553261600000E-01  1.515930200000E-01  7.505970900000E-01
  11   5     3.863435000000E-01  7.727516500000E-01  2.493417000000E-01
  12   5     6.553064400000E-01  3.107322200000E-01  7.493417000000E-01
  13   1     9.030436200000E-01  3.089300500000E-01  2.479944000000E-01
  14   1     1.720065600000E-01  8.469106200000E-01  7.479944000000E-01
  15   1     9.663453000000E-02  6.910534400000E-01  2.475964000000E-01
  16   1     3.655974700000E-01  2.290340100000E-01  7.475964100000E-01
  17   1     9.029714200000E-01  5.940724300000E-01  2.475351600000E-01
  18   1     1.719343600000E-01  1.320530000000E-01  7.475351600000E-01
  19   1     9.673618000000E-02  4.056849400000E-01  2.475504300000E-01
  20   1     3.656991200000E-01  9.436655100000E-01  7.475504300000E-01
  21   1     6.910324000000E-01  9.700412000000E-02  2.520056200000E-01
  22   1     9.599953400000E-01  6.349846900000E-01  7.520056100000E-01
  23   1     3.089297200000E-01  9.034373100000E-01  2.524036400000E-01
  24   1     5.778926600000E-01  4.414178800000E-01  7.524036400000E-01
  25   1     4.058699900000E-01  9.704998000000E-02  2.524649300000E-01
  26   1     6.748329300000E-01  6.350305500000E-01  7.524649300000E-01
  27   1     5.943122100000E-01  9.033473200000E-01  2.524495500000E-01
  28   1     8.632751500000E-01  4.413278900000E-01  7.524495500000E-01
  29   1     6.910727400000E-01  5.940542100000E-01  2.479944200000E-01
  30   1     9.600356800000E-01  1.320347800000E-01  7.479944300000E-01
  31   1     3.089618300000E-01  4.056093300000E-01  2.475963800000E-01
  32   1     5.779247700000E-01  9.435899000000E-01  7.475963800000E-01
  33   1     4.058405700000E-01  3.088232500000E-01  2.475351100000E-01
  34   1     6.748035100000E-01  8.468038200000E-01  7.475351000000E-01
  35   1     5.942908800000E-01  6.909579300000E-01  2.475504800000E-01
  36   1     8.632538200000E-01  2.289385000000E-01  7.475504800000E-01
  37   6     8.918903100000E-01  4.459436900000E-01  2.492957700000E-01
  38   6     1.608532500000E-01  9.839242600000E-01  7.492957700000E-01
  39   6     9.464891100000E-01  3.927856300000E-01  2.480556500000E-01
  40   6     2.154520500000E-01  9.307662000000E-01  7.480556500000E-01
  41   6     5.338812000000E-02  6.071853000000E-01  2.479485200000E-01
  42   6     3.223510600000E-01  1.451658700000E-01  7.479485200000E-01
  43   6     9.464521100000E-01  5.536921900000E-01  2.482700300000E-01
  44   6     2.154150500000E-01  9.167276000000E-02  7.482700300000E-01
  45   6     5.342634000000E-02  4.462499700000E-01  2.474432600000E-01
  46   6     3.223892800000E-01  9.842305400000E-01  7.474432600000E-01
  47   6     1.080358900000E-01  5.540356300000E-01  2.482853200000E-01
  48   6     3.769988300000E-01  9.201620000000E-02  7.482853200000E-01
  49   6     5.540394200000E-01  1.081684600000E-01  2.507042700000E-01
  50   6     8.230023600000E-01  6.461490300000E-01  7.507042700000E-01
  51   6     6.071778500000E-01  5.355594000000E-02  2.519443600000E-01
  52   6     8.761407900000E-01  5.915365100000E-01  7.519443600000E-01
  53   6     3.927986700000E-01  9.466631600000E-01  2.520515300000E-01
  54   6     6.617616100000E-01  4.846437300000E-01  7.520515300000E-01
  55   6     4.462875800000E-01  5.360286000000E-02  2.517300400000E-01
  56   6     7.152505200000E-01  5.915834300000E-01  7.517300400000E-01
  57   6     5.537168500000E-01  9.466235600000E-01  2.525567400000E-01
  58   6     8.226797900000E-01  4.846041300000E-01  7.525567400000E-01
  59   6     4.459279100000E-01  8.919920600000E-01  2.517147100000E-01
  60   6     7.148908500000E-01  4.299726300000E-01  7.517147100000E-01
  61   6     5.540448700000E-01  4.458745500000E-01  2.492957600000E-01
  62   6     8.230078100000E-01  9.838551200000E-01  7.492957600000E-01
  63   6     6.072102200000E-01  5.536257800000E-01  2.480556800000E-01
  64   6     8.761731600000E-01  9.160635000000E-02  7.480556800000E-01
  65   6     3.928233700000E-01  4.461720300000E-01  2.479484900000E-01
  66   6     6.617863100000E-01  9.841526000000E-01  7.479484900000E-01
  67   6     4.462872600000E-01  3.926899900000E-01  2.482699900000E-01
  68   6     7.152502000000E-01  9.306705600000E-01  7.482699900000E-01
  69   6     5.537429600000E-01  6.070980000000E-01  2.474433000000E-01
  70   6     8.227059000000E-01  1.450785700000E-01  7.474433000000E-01
  71   6     4.459599800000E-01  5.539582300000E-01  2.482853200000E-01
  72   6     7.149229200000E-01  9.193880000000E-02  7.482853200000E-01
  73   8     5.607366800000E-01  2.803706300000E-01  2.496785000000E-01
  74   8     8.296996200000E-01  8.183512000000E-01  7.496785000000E-01
  75   8     7.196817000000E-01  2.803783300000E-01  2.523271000000E-01
  76   8     9.886446400000E-01  8.183589000000E-01  7.523270900000E-01
  77   8     7.196794200000E-01  4.393234600000E-01  2.483312600000E-01
  78   8     9.886423600000E-01  9.773040300000E-01  7.483312600000E-01
  79   8     2.803245100000E-01  7.196511100000E-01  2.496785200000E-01
  80   8     5.492874500000E-01  2.576316800000E-01  7.496785200000E-01
  81   8     2.803439700000E-01  5.606956100000E-01  2.523270900000E-01
  82   8     5.493069100000E-01  9.867618000000E-02  7.523270900000E-01
  83   8     4.392638400000E-01  7.196354200000E-01  2.483312500000E-01
  84   8     7.082267800000E-01  2.576159900000E-01  7.483312500000E-01

 *******************************************************************************

 << INFORMATION >>: FROM NOW ON, ALL COORDINATES REFER TO THE PRIMITIVE CELL

 *******************************************************************************

 LATTICE PARAMETERS  (ANGSTROMS AND DEGREES) - PRIMITIVE CELL
       A          B          C        ALPHA      BETA     GAMMA        VOLUME
   15.02361   15.02392    8.00000    90.00032  89.99994 119.99596   1563.852384

 COORDINATES OF THE EQUIVALENT ATOMS (FRACTIONAL UNITS)

 N. ATOM EQUIV AT. N.          X                  Y                  Z

   1   1   1    5 B    -3.86319460000E-01  2.27318220000E-01  2.50597090000E-01

   2   2   1    5 B    -1.17356520000E-01 -2.34701210000E-01 -2.49402910000E-01

   3   3   1    5 B    -2.27263800000E-01  3.86377880000E-01  2.50597100000E-01

   4   4   1    5 B     4.16991400000E-02 -7.56415500000E-02 -2.49402900000E-01

   5   5   1    5 B    -3.86323730000E-01  3.86360670000E-01  2.49341700000E-01

   6   6   1    5 B    -1.17360790000E-01 -7.56587600000E-02 -2.50658300000E-01

   7   7   1    5 B     2.27255250000E-01 -3.86366780000E-01  2.50597090000E-01

   8   8   1    5 B     4.96218190000E-01  1.51613790000E-01 -2.49402910000E-01

   9   9   1    5 B     3.86363220000E-01 -3.86387550000E-01  2.50597090000E-01

  10  10   1    5 B    -3.44673840000E-01  1.51593020000E-01 -2.49402910000E-01

  11  11   1    5 B     3.86343500000E-01 -2.27248350000E-01  2.49341700000E-01

  12  12   1    5 B    -3.44693560000E-01  3.10732220000E-01 -2.50658300000E-01

  13  13   1    1 H    -9.69563800000E-02  3.08930050000E-01  2.47994400000E-01

  14  14   1    1 H     1.72006560000E-01 -1.53089380000E-01 -2.52005600000E-01

  15  15   1    1 H     9.66345300000E-02 -3.08946560000E-01  2.47596400000E-01

  16  16   1    1 H     3.65597470000E-01  2.29034010000E-01 -2.52403590000E-01

  17  17   1    1 H    -9.70285800000E-02 -4.05927570000E-01  2.47535160000E-01

  18  18   1    1 H     1.71934360000E-01  1.32053000000E-01 -2.52464840000E-01

  19  19   1    1 H     9.67361800000E-02  4.05684940000E-01  2.47550430000E-01

  20  20   1    1 H     3.65699120000E-01 -5.63344900000E-02 -2.52449570000E-01

  21  21   1    1 H    -3.08967600000E-01  9.70041200000E-02  2.52005620000E-01

  22  22   1    1 H    -4.00046600000E-02 -3.65015310000E-01 -2.47994390000E-01

  23  23   1    1 H     3.08929720000E-01 -9.65626900000E-02  2.52403640000E-01

  24  24   1    1 H    -4.22107340000E-01  4.41417880000E-01 -2.47596360000E-01

  25  25   1    1 H     4.05869990000E-01  9.70499800000E-02  2.52464930000E-01

  26  26   1    1 H    -3.25167070000E-01 -3.64969450000E-01 -2.47535070000E-01

  27  27   1    1 H    -4.05687790000E-01 -9.66526800000E-02  2.52449550000E-01

  28  28   1    1 H    -1.36724850000E-01  4.41327890000E-01 -2.47550450000E-01

  29  29   1    1 H    -3.08927260000E-01 -4.05945790000E-01  2.47994420000E-01

  30  30   1    1 H    -3.99643200000E-02  1.32034780000E-01 -2.52005570000E-01

  31  31   1    1 H     3.08961830000E-01  4.05609330000E-01  2.47596380000E-01

  32  32   1    1 H    -4.22075230000E-01 -5.64101000000E-02 -2.52403620000E-01

  33  33   1    1 H     4.05840570000E-01  3.08823250000E-01  2.47535110000E-01

  34  34   1    1 H    -3.25196490000E-01 -1.53196180000E-01 -2.52464900000E-01

  35  35   1    1 H    -4.05709120000E-01 -3.09042070000E-01  2.47550480000E-01

  36  36   1    1 H    -1.36746180000E-01  2.28938500000E-01 -2.52449520000E-01

  37  37   1    6 C    -1.08109690000E-01  4.45943690000E-01  2.49295770000E-01

  38  38   1    6 C     1.60853250000E-01 -1.60757400000E-02 -2.50704230000E-01

  39  39   1    6 C    -5.35108900000E-02  3.92785630000E-01  2.48055650000E-01

  40  40   1    6 C     2.15452050000E-01 -6.92338000000E-02 -2.51944350000E-01

  41  41   1    6 C     5.33881200000E-02 -3.92814700000E-01  2.47948520000E-01

  42  42   1    6 C     3.22351060000E-01  1.45165870000E-01 -2.52051480000E-01

  43  43   1    6 C    -5.35478900000E-02 -4.46307810000E-01  2.48270030000E-01

  44  44   1    6 C     2.15415050000E-01  9.16727600000E-02 -2.51729970000E-01

  45  45   1    6 C     5.34263400000E-02  4.46249970000E-01  2.47443260000E-01

  46  46   1    6 C     3.22389280000E-01 -1.57694600000E-02 -2.52556740000E-01

  47  47   1    6 C     1.08035890000E-01 -4.45964370000E-01  2.48285320000E-01

  48  48   1    6 C     3.76998830000E-01  9.20162000000E-02 -2.51714680000E-01

  49  49   1    6 C    -4.45960580000E-01  1.08168460000E-01  2.50704270000E-01

  50  50   1    6 C    -1.76997640000E-01 -3.53850970000E-01 -2.49295730000E-01

  51  51   1    6 C    -3.92822150000E-01  5.35559400000E-02  2.51944360000E-01

  52  52   1    6 C    -1.23859210000E-01 -4.08463490000E-01 -2.48055640000E-01

  53  53   1    6 C     3.92798670000E-01 -5.33368400000E-02  2.52051530000E-01

  54  54   1    6 C    -3.38238390000E-01  4.84643730000E-01 -2.47948470000E-01

  55  55   1    6 C     4.46287580000E-01  5.36028600000E-02  2.51730040000E-01

  56  56   1    6 C    -2.84749480000E-01 -4.08416570000E-01 -2.48269960000E-01

  57  57   1    6 C    -4.46283150000E-01 -5.33764400000E-02  2.52556740000E-01

  58  58   1    6 C    -1.77320210000E-01  4.84604130000E-01 -2.47443260000E-01

  59  59   1    6 C     4.45927910000E-01 -1.08007940000E-01  2.51714710000E-01

  60  60   1    6 C    -2.85109150000E-01  4.29972630000E-01 -2.48285290000E-01

  61  61   1    6 C    -4.45955130000E-01  4.45874550000E-01  2.49295760000E-01

  62  62   1    6 C    -1.76992190000E-01 -1.61448800000E-02 -2.50704240000E-01

  63  63   1    6 C    -3.92789780000E-01 -4.46374220000E-01  2.48055680000E-01

  64  64   1    6 C    -1.23826840000E-01  9.16063500000E-02 -2.51944320000E-01

  65  65   1    6 C     3.92823370000E-01  4.46172030000E-01  2.47948490000E-01

  66  66   1    6 C    -3.38213690000E-01 -1.58474000000E-02 -2.52051510000E-01

  67  67   1    6 C     4.46287260000E-01  3.92689990000E-01  2.48269990000E-01

  68  68   1    6 C    -2.84749800000E-01 -6.93294400000E-02 -2.51730010000E-01

  69  69   1    6 C    -4.46257040000E-01 -3.92902000000E-01  2.47443300000E-01

  70  70   1    6 C    -1.77294100000E-01  1.45078570000E-01 -2.52556700000E-01

  71  71   1    6 C     4.45959980000E-01 -4.46041770000E-01  2.48285320000E-01

  72  72   1    6 C    -2.85077080000E-01  9.19388000000E-02 -2.51714680000E-01

  73  73   1    8 O    -4.39263320000E-01  2.80370630000E-01  2.49678500000E-01

  74  74   1    8 O    -1.70300380000E-01 -1.81648800000E-01 -2.50321500000E-01

  75  75   1    8 O    -2.80318300000E-01  2.80378330000E-01  2.52327100000E-01

  76  76   1    8 O    -1.13553600000E-02 -1.81641100000E-01 -2.47672910000E-01

  77  77   1    8 O    -2.80320580000E-01  4.39323460000E-01  2.48331260000E-01

  78  78   1    8 O    -1.13576400000E-02 -2.26959700000E-02 -2.51668740000E-01

  79  79   1    8 O     2.80324510000E-01 -2.80348890000E-01  2.49678520000E-01

  80  80   1    8 O    -4.50712550000E-01  2.57631680000E-01 -2.50321480000E-01

  81  81   1    8 O     2.80343970000E-01 -4.39304390000E-01  2.52327090000E-01

  82  82   1    8 O    -4.50693090000E-01  9.86761800000E-02 -2.47672910000E-01

  83  83   1    8 O     4.39263840000E-01 -2.80364580000E-01  2.48331250000E-01

  84  84   1    8 O    -2.91773220000E-01  2.57615990000E-01 -2.51668750000E-01

 NUMBER OF SYMMETRY OPERATORS         :    1
 *******************************************************************************
 * GEOMETRY EDITING - INPUT COORDINATES ARE GIVEN IN ANGSTROM         
 *******************************************************************************

 GCALCO - MAX INDICES DIRECT LATTICE VECTOR    12    12    21
 NO.OF VECTORS CREATED 6999 STARS 3500 RMAX   260.07972 BOHR

 GEOMETRY FOR WAVE FUNCTION - DIMENSIONALITY OF THE SYSTEM    3
 (NON PERIODIC DIRECTION: LATTICE PARAMETER FORMALLY SET TO 500)
 *******************************************************************************
 LATTICE PARAMETERS (ANGSTROMS AND DEGREES) - BOHR = 0.5291772083 ANGSTROM
 PRIMITIVE CELL - CENTRING CODE 1/0 VOLUME=  1563.852384 - DENSITY  0.828 g/cm^3
         A              B              C           ALPHA      BETA       GAMMA 
    15.02361100    15.02391600     8.00000000    90.000323  89.999944 119.995964
 *******************************************************************************
 ATOMS IN THE ASYMMETRIC UNIT   84 - ATOMS IN THE UNIT CELL:   84
     ATOM                 X/A                 Y/B                 Z/C    
 *******************************************************************************
      1 T   5 B    -3.863194600000E-01  2.273182200000E-01  2.505970900000E-01
      2 T   5 B    -1.173565200000E-01 -2.347012100000E-01 -2.494029100000E-01
      3 T   5 B    -2.272638000000E-01  3.863778800000E-01  2.505971000000E-01
      4 T   5 B     4.169914000000E-02 -7.564155000000E-02 -2.494029000000E-01
      5 T   5 B    -3.863237300000E-01  3.863606700000E-01  2.493417000000E-01
      6 T   5 B    -1.173607900000E-01 -7.565876000000E-02 -2.506583000000E-01
      7 T   5 B     2.272552500000E-01 -3.863667800000E-01  2.505970900000E-01
      8 T   5 B     4.962181900000E-01  1.516137900000E-01 -2.494029100000E-01
      9 T   5 B     3.863632200000E-01 -3.863875500000E-01  2.505970900000E-01
     10 T   5 B    -3.446738400000E-01  1.515930200000E-01 -2.494029100000E-01
     11 T   5 B     3.863435000000E-01 -2.272483500000E-01  2.493417000000E-01
     12 T   5 B    -3.446935600000E-01  3.107322200000E-01 -2.506583000000E-01
     13 T   1 H    -9.695638000000E-02  3.089300500000E-01  2.479944000000E-01
     14 T   1 H     1.720065600000E-01 -1.530893800000E-01 -2.520056000000E-01
     15 T   1 H     9.663453000000E-02 -3.089465600000E-01  2.475964000000E-01
     16 T   1 H     3.655974700000E-01  2.290340100000E-01 -2.524035900000E-01
     17 T   1 H    -9.702858000000E-02 -4.059275700000E-01  2.475351600000E-01
     18 T   1 H     1.719343600000E-01  1.320530000000E-01 -2.524648400000E-01
     19 T   1 H     9.673618000000E-02  4.056849400000E-01  2.475504300000E-01
     20 T   1 H     3.656991200000E-01 -5.633449000000E-02 -2.524495700000E-01
     21 T   1 H    -3.089676000000E-01  9.700412000000E-02  2.520056200000E-01
     22 T   1 H    -4.000466000000E-02 -3.650153100000E-01 -2.479943900000E-01
     23 T   1 H     3.089297200000E-01 -9.656269000000E-02  2.524036400000E-01
     24 T   1 H    -4.221073400000E-01  4.414178800000E-01 -2.475963600000E-01
     25 T   1 H     4.058699900000E-01  9.704998000000E-02  2.524649300000E-01
     26 T   1 H    -3.251670700000E-01 -3.649694500000E-01 -2.475350700000E-01
     27 T   1 H    -4.056877900000E-01 -9.665268000000E-02  2.524495500000E-01
     28 T   1 H    -1.367248500000E-01  4.413278900000E-01 -2.475504500000E-01
     29 T   1 H    -3.089272600000E-01 -4.059457900000E-01  2.479944200000E-01
     30 T   1 H    -3.996432000000E-02  1.320347800000E-01 -2.520055700000E-01
     31 T   1 H     3.089618300000E-01  4.056093300000E-01  2.475963800000E-01
     32 T   1 H    -4.220752300000E-01 -5.641010000000E-02 -2.524036200000E-01
     33 T   1 H     4.058405700000E-01  3.088232500000E-01  2.475351100000E-01
     34 T   1 H    -3.251964900000E-01 -1.531961800000E-01 -2.524649000000E-01
     35 T   1 H    -4.057091200000E-01 -3.090420700000E-01  2.475504800000E-01
     36 T   1 H    -1.367461800000E-01  2.289385000000E-01 -2.524495200000E-01
     37 T   6 C    -1.081096900000E-01  4.459436900000E-01  2.492957700000E-01
     38 T   6 C     1.608532500000E-01 -1.607574000000E-02 -2.507042300000E-01
     39 T   6 C    -5.351089000000E-02  3.927856300000E-01  2.480556500000E-01
     40 T   6 C     2.154520500000E-01 -6.923380000000E-02 -2.519443500000E-01
     41 T   6 C     5.338812000000E-02 -3.928147000000E-01  2.479485200000E-01
     42 T   6 C     3.223510600000E-01  1.451658700000E-01 -2.520514800000E-01
     43 T   6 C    -5.354789000000E-02 -4.463078100000E-01  2.482700300000E-01
     44 T   6 C     2.154150500000E-01  9.167276000000E-02 -2.517299700000E-01
     45 T   6 C     5.342634000000E-02  4.462499700000E-01  2.474432600000E-01
     46 T   6 C     3.223892800000E-01 -1.576946000000E-02 -2.525567400000E-01
     47 T   6 C     1.080358900000E-01 -4.459643700000E-01  2.482853200000E-01
     48 T   6 C     3.769988300000E-01  9.201620000000E-02 -2.517146800000E-01
     49 T   6 C    -4.459605800000E-01  1.081684600000E-01  2.507042700000E-01
     50 T   6 C    -1.769976400000E-01 -3.538509700000E-01 -2.492957300000E-01
     51 T   6 C    -3.928221500000E-01  5.355594000000E-02  2.519443600000E-01
     52 T   6 C    -1.238592100000E-01 -4.084634900000E-01 -2.480556400000E-01
     53 T   6 C     3.927986700000E-01 -5.333684000000E-02  2.520515300000E-01
     54 T   6 C    -3.382383900000E-01  4.846437300000E-01 -2.479484700000E-01
     55 T   6 C     4.462875800000E-01  5.360286000000E-02  2.517300400000E-01
     56 T   6 C    -2.847494800000E-01 -4.084165700000E-01 -2.482699600000E-01
     57 T   6 C    -4.462831500000E-01 -5.337644000000E-02  2.525567400000E-01
     58 T   6 C    -1.773202100000E-01  4.846041300000E-01 -2.474432600000E-01
     59 T   6 C     4.459279100000E-01 -1.080079400000E-01  2.517147100000E-01
     60 T   6 C    -2.851091500000E-01  4.299726300000E-01 -2.482852900000E-01
     61 T   6 C    -4.459551300000E-01  4.458745500000E-01  2.492957600000E-01
     62 T   6 C    -1.769921900000E-01 -1.614488000000E-02 -2.507042400000E-01
     63 T   6 C    -3.927897800000E-01 -4.463742200000E-01  2.480556800000E-01
     64 T   6 C    -1.238268400000E-01  9.160635000000E-02 -2.519443200000E-01
     65 T   6 C     3.928233700000E-01  4.461720300000E-01  2.479484900000E-01
     66 T   6 C    -3.382136900000E-01 -1.584740000000E-02 -2.520515100000E-01
     67 T   6 C     4.462872600000E-01  3.926899900000E-01  2.482699900000E-01
     68 T   6 C    -2.847498000000E-01 -6.932944000000E-02 -2.517300100000E-01
     69 T   6 C    -4.462570400000E-01 -3.929020000000E-01  2.474433000000E-01
     70 T   6 C    -1.772941000000E-01  1.450785700000E-01 -2.525567000000E-01
     71 T   6 C     4.459599800000E-01 -4.460417700000E-01  2.482853200000E-01
     72 T   6 C    -2.850770800000E-01  9.193880000000E-02 -2.517146800000E-01
     73 T   8 O    -4.392633200000E-01  2.803706300000E-01  2.496785000000E-01
     74 T   8 O    -1.703003800000E-01 -1.816488000000E-01 -2.503215000000E-01
     75 T   8 O    -2.803183000000E-01  2.803783300000E-01  2.523271000000E-01
     76 T   8 O    -1.135536000000E-02 -1.816411000000E-01 -2.476729100000E-01
     77 T   8 O    -2.803205800000E-01  4.393234600000E-01  2.483312600000E-01
     78 T   8 O    -1.135764000000E-02 -2.269597000000E-02 -2.516687400000E-01
     79 T   8 O     2.803245100000E-01 -2.803488900000E-01  2.496785200000E-01
     80 T   8 O    -4.507125500000E-01  2.576316800000E-01 -2.503214800000E-01
     81 T   8 O     2.803439700000E-01 -4.393043900000E-01  2.523270900000E-01
     82 T   8 O    -4.506930900000E-01  9.867618000000E-02 -2.476729100000E-01
     83 T   8 O     4.392638400000E-01 -2.803645800000E-01  2.483312500000E-01
     84 T   8 O    -2.917732200000E-01  2.576159900000E-01 -2.516687500000E-01

 T = ATOM BELONGING TO THE ASYMMETRIC UNIT

 ****    1 SYMMOPS - TRANSLATORS IN FRACTIONAL UNITS
 **** MATRICES AND TRANSLATORS IN THE CRYSTALLOGRAPHIC REFERENCE FRAME
   V INV                    ROTATION MATRICES                   TRANSLATORS
   1   1  1.00  0.00  0.00  0.00  1.00  0.00 -0.00 -0.00  1.00  0.00  0.00  0.00

 DIRECT LATTICE VECTORS CARTESIAN COMPONENTS (ANGSTROM)
          X                    Y                    Z
   0.130113578931E+02  -0.751088897922E+01   0.000000000000E+00
   0.000000000000E+00   0.150239160000E+02   0.000000000000E+00
  -0.170055388808E-04  -0.450993078697E-04   0.799999999985E+01


 CARTESIAN COORDINATES - PRIMITIVE CELL
 *******************************************************************************
 *      ATOM          X(ANGSTROM)         Y(ANGSTROM)         Z(ANGSTROM)
 *******************************************************************************
    1     5 B    -5.026545016651E+00  6.316801115365E+00  2.004776719964E+00
    2     5 B    -1.526963441573E+00 -2.644668223533E+00 -1.995223279964E+00
    3     5 B    -2.957014899475E+00  7.511850682417E+00  2.004776799964E+00
    4     5 B     5.425666756034E-01 -1.449618656480E+00 -1.995223199964E+00
    5     5 B    -5.026600553801E+00 -6.317642347288E+00  1.994733599964E+00
    6     5 B    -1.527018978722E+00 -2.551956861852E-01 -2.005266399964E+00
    7     5 B     2.956895129287E+00 -7.511642302360E+00  2.004776719964E+00
    8     5 B     6.456476704366E+00 -1.449195641257E+00 -1.995223279964E+00
    9     5 B     5.027105870595E+00  6.316919352526E+00  2.004776719964E+00
   10     5 B    -4.484670447383E+00  4.866338992845E+00 -1.995223279964E+00
   11     5 B     5.026849307966E+00 -6.315954503019E+00  1.994733599964E+00
   12     5 B     8.526430883044E+00 -2.535078419162E-01 -2.005266399964E+00
   13     1 H    -1.261538377474E+00  5.369556542707E+00  1.983955199964E+00
   14     1 H     2.238043197605E+00 -3.591912796191E+00 -2.016044799963E+00
   15     1 H     1.257342244147E+00 -5.367409558744E+00  1.980771199964E+00
   16     1 H     4.756923819225E+00  6.950371023580E-01 -2.019228719963E+00
   17     1 H    -1.262477789704E+00 -5.369861985237E+00  1.980281279964E+00
   18     1 H     2.237103785374E+00  6.925846758649E-01 -2.019718719963E+00
   19     1 H     1.258664849459E+00  5.368390588418E+00  1.980403439964E+00
   20     1 H     4.758246424537E+00 -3.593078750479E+00 -2.019596559963E+00
   21     1 H    -4.020092306450E+00  3.777991727030E+00  2.016044959963E+00
   22     1 H    -5.205107313718E-01 -5.183477611867E+00 -1.983955119964E+00
   23     1 H     4.019590858462E+00 -3.771097955824E+00  2.019229119963E+00
   24     1 H    -5.492185459517E+00 -5.221678315505E+00 -1.980770879964E+00
   25     1 H     5.280915404639E+00 -1.590385073558E+00  2.019719439963E+00
   26     1 H    -4.230860913339E+00 -3.040965433239E+00 -1.980280559964E+00
   27     1 H    -5.278553321574E+00  1.594962820119E+00  2.019596399963E+00
   28     1 H    -1.778971746496E+00 -7.366506518779E+00 -1.980403599964E+00
   29     1 H    -4.019567360060E+00 -3.778588281377E+00  1.983955359964E+00
   30     1 H    -5.199857849821E-01  2.283858379725E+00 -2.016044559963E+00
   31     1 H     4.020008734914E+00  3.773251332365E+00  1.980771039964E+00
   32     1 H    -5.491767583065E+00  2.322670972684E+00 -2.019228959963E+00
   33     1 H     5.280532694324E+00  1.591499938653E+00  1.980280879964E+00
   34     1 H    -4.231243623654E+00  1.409195789722E-01 -2.019719199963E+00
   35     1 H    -5.278830770526E+00 -1.595797106326E+00  1.980403839964E+00
   36     1 H    -1.779249195448E+00  4.466649554777E+00 -2.019596159963E+00
   37     6 C    -1.406658107706E+00  7.511809175391E+00  1.994366159964E+00
   38     6 C     2.092923467372E+00 -1.449660163507E+00 -2.005633839964E+00
   39     6 C    -6.962535592860E-01  6.303081477958E+00  1.984445199964E+00
   40     6 C     2.803328015792E+00 -2.658387860940E+00 -2.015554799963E+00
   41     6 C     6.946477200593E-01 -6.302618480801E+00  1.983588159964E+00
   42     6 C     4.194229295137E+00 -2.401718196985E-01 -2.016411839963E+00
   43     6 C    -6.967349831737E-01 -6.303109987529E+00  1.986160239964E+00
   44     6 C     2.802846591904E+00 -2.406633264268E-01 -2.013839759963E+00
   45     6 C     6.951450227501E-01  6.303131596457E+00  1.979546079964E+00
   46     6 C     4.194726597828E+00 -2.658337742441E+00 -2.020453919963E+00
   47     6 C     1.405689407859E+00 -7.511588006930E+00  1.986282559964E+00
   48     6 C     4.905270982937E+00 -1.449141345827E+00 -2.013717439963E+00
   49     6 C     7.208800917120E+00 -2.536226023429E+00  2.005634159964E+00
   50     6 C    -2.302975400858E+00 -3.986806383110E+00 -1.994365839964E+00
   51     6 C    -5.111153866420E+00  3.755052138572E+00  2.015554879963E+00
   52     6 C    -1.611572291341E+00 -5.206417200326E+00 -1.984445119964E+00
   53     6 C     5.110839789015E+00 -3.751606772769E+00  2.016412239963E+00
   54     6 C    -4.400936528964E+00 -5.202187132450E+00 -1.983587759964E+00
   55     6 C     5.806803145801E+00 -2.546702953034E+00  2.013840319963E+00
   56     6 C    -3.704973172177E+00 -3.997283312715E+00 -1.986159679964E+00
   57     6 C    -5.806754081154E+00  2.550048651872E+00  2.020453919963E+00
   58     6 C    -2.307172506076E+00 -6.411420687026E+00 -1.979546079964E+00
   59     6 C     5.802123350968E+00 -4.972028594796E+00  2.013717679963E+00
   60     6 C    -3.709652967010E+00 -6.422608954477E+00 -1.986282319964E+00
   61     6 C     7.208871852973E+00  2.537401034597E+00  1.994366079964E+00
   62     6 C    -2.302904465005E+00  1.086820674916E+00 -2.005633919964E+00
   63     6 C    -5.110732622635E+00 -3.756099543234E+00  1.984445439964E+00
   64     6 C    -1.611151047557E+00  2.306347117868E+00 -2.015554559963E+00
   65     6 C     5.111161239329E+00  3.752787197453E+00  1.983587919964E+00
   66     6 C    -4.400615078650E+00  2.302206837771E+00 -2.016412079963E+00
   67     6 C     5.806799041007E+00  2.547716164297E+00  1.986159919964E+00
   68     6 C    -3.704977276972E+00  1.097135804616E+00 -2.013840079963E+00
   69     6 C    -5.806414267643E+00 -2.551150720120E+00  1.979546399964E+00
   70     6 C    -2.306832692565E+00  3.511295940983E+00 -2.020453599963E+00
   71     6 C     5.802540683535E+00  4.973054818579E+00  1.986282559964E+00
   72     6 C    -3.709235634444E+00  3.522474458898E+00 -2.013717439963E+00
   73     8 O     7.295941381327E+00  6.225836051150E-04  1.997427999964E+00
   74     8 O    -2.215834936652E+00 -1.449957776076E+00 -2.002571999964E+00
   75     8 O    -3.647326016232E+00  6.317808728505E+00  2.018616799963E+00
   76     8 O    -1.477444411532E-01 -2.643660610392E+00 -1.981383279964E+00
   77     8 O    -3.647355614176E+00 -6.318111684729E+00  1.986650079964E+00
   78     8 O    -1.477740390980E-01 -2.556650236266E-01 -2.013349919963E+00
   79     8 O     3.647398279888E+00 -6.317435707145E+00  1.997428159964E+00
   80     8 O     7.146979854966E+00 -2.549890460425E-01 -2.002571839964E+00
   81     8 O     3.647651435872E+00  6.318199931769E+00  2.018616719963E+00
   82     8 O     7.147233010950E+00 -2.643269407129E+00 -1.981383279964E+00
   83     8 O    -7.295943084345E+00 -5.580544706205E-04  1.986649999964E+00
   84     8 O    -3.796361509267E+00  6.061888606632E+00 -2.013349999963E+00

 *******************************************************************************
 STARTING BASIS SET HANDLING 
 *******************************************************************************

 Loading internal basis set: SOLDEF2MSVP         

 Please cite in your publication:
 L. Dona', J. G. Brandenburg and B. Civalleri, J. Chem. Phys., 151, 121101 (2019
 )                                                                              
                                                                                
                    

 *******************************************************************************
 LOCAL ATOMIC FUNCTIONS BASIS SET
 *******************************************************************************
   ATOM   X(AU)   Y(AU)   Z(AU)  N. TYPE  EXPONENT  S COEF   P COEF   D/F/G COEF
 *******************************************************************************
   1 B   -9.499  11.937   3.788
                                  1 S  
                                         2.410E+03 1.755E-03 0.000E+00 0.000E+00
                                         3.619E+02 1.344E-02 0.000E+00 0.000E+00
                                         8.231E+01 6.637E-02 0.000E+00 0.000E+00
                                         2.311E+01 2.303E-01 0.000E+00 0.000E+00
                                         7.252E+00 5.150E-01 0.000E+00 0.000E+00
                                  2 S  
                                         2.367E+00 1.000E+00 0.000E+00 0.000E+00
                                  3 S  
                                         5.533E-01 1.000E+00 0.000E+00 0.000E+00
                                  4 S  
                                         1.716E-01 1.000E+00 0.000E+00 0.000E+00
                           5-     7 P  
                                         6.002E+00 0.000E+00-3.555E-02 0.000E+00
                                         1.240E+00 0.000E+00-1.983E-01 0.000E+00
                                         3.367E-01 0.000E+00-5.048E-01 0.000E+00
                           8-    10 P  
                                         1.256E-01 0.000E+00 1.000E+00 0.000E+00
                          11-    15 D  
                                         8.880E-01 0.000E+00 0.000E+00 1.000E+00
   2 B   -2.886  -4.998  -3.770
   3 B   -5.588  14.195   3.788
   4 B    1.025  -2.739  -3.770
   5 B   -9.499 -11.939   3.770
   6 B   -2.886  -0.482  -3.789
   7 B    5.588 -14.195   3.788
   8 B   12.201  -2.739  -3.770
   9 B    9.500  11.937   3.788
  10 B   -8.475   9.196  -3.770
  11 B    9.499 -11.935   3.770
  12 B   16.113  -0.479  -3.789
  13 H   -2.384  10.147   3.749
                                181 S  
                                         1.874E+01 1.968E-02 0.000E+00 0.000E+00
                                         2.826E+00 1.380E-01 0.000E+00 0.000E+00
                                         6.401E-01 4.783E-01 0.000E+00 0.000E+00
                                182 S  
                                         1.756E-01 1.000E+00 0.000E+00 0.000E+00
  14 H    4.229  -6.788  -3.810
  15 H    2.376 -10.143   3.743
  16 H    8.989   1.313  -3.816
  17 H   -2.386 -10.148   3.742
  18 H    4.228   1.309  -3.817
  19 H    2.379  10.145   3.742
  20 H    8.992  -6.790  -3.816
  21 H   -7.597   7.139   3.810
  22 H   -0.984  -9.795  -3.749
  23 H    7.596  -7.126   3.816
  24 H  -10.379  -9.868  -3.743
  25 H    9.979  -3.005   3.817
  26 H   -7.995  -5.747  -3.742
  27 H   -9.975   3.014   3.816
  28 H   -3.362 -13.921  -3.742
  29 H   -7.596  -7.140   3.749
  30 H   -0.983   4.316  -3.810
  31 H    7.597   7.130   3.743
  32 H  -10.378   4.389  -3.816
  33 H    9.979   3.007   3.742
  34 H   -7.996   0.266  -3.817
  35 H   -9.976  -3.016   3.742
  36 H   -3.362   8.441  -3.816
  37 C   -2.658  14.195   3.769
                                229 S  
                                         3.624E+03 1.634E-03 0.000E+00 0.000E+00
                                         5.440E+02 1.252E-02 0.000E+00 0.000E+00
                                         1.237E+02 6.211E-02 0.000E+00 0.000E+00
                                         3.476E+01 2.182E-01 0.000E+00 0.000E+00
                                         1.093E+01 4.980E-01 0.000E+00 0.000E+00
                                230 S  
                                         3.574E+00 1.000E+00 0.000E+00 0.000E+00
                                231 S  
                                         7.742E-01 1.000E+00 0.000E+00 0.000E+00
                                232 S  
                                         2.330E-01 1.000E+00 0.000E+00 0.000E+00
                         233-   235 P  
                                         9.443E+00 0.000E+00 3.790E-02 0.000E+00
                                         2.002E+00 0.000E+00 2.082E-01 0.000E+00
                                         5.463E-01 0.000E+00 5.047E-01 0.000E+00
                         236-   238 P  
                                         1.820E-01 0.000E+00 1.000E+00 0.000E+00
                         239-   243 D  
                                         8.880E-01 0.000E+00 0.000E+00 1.000E+00
  38 C    3.955  -2.739  -3.790
  39 C   -1.316  11.911   3.750
  40 C    5.298  -5.024  -3.809
  41 C    1.313 -11.910   3.748
  42 C    7.926  -0.454  -3.810
  43 C   -1.317 -11.911   3.753
  44 C    5.297  -0.455  -3.806
  45 C    1.314  11.911   3.741
  46 C    7.927  -5.024  -3.818
  47 C    2.656 -14.195   3.754
  48 C    9.270  -2.738  -3.805
  49 C   13.623  -4.793   3.790
  50 C   -4.352  -7.534  -3.769
  51 C   -9.659   7.096   3.809
  52 C   -3.045  -9.839  -3.750
  53 C    9.658  -7.090   3.810
  54 C   -8.317  -9.831  -3.748
  55 C   10.973  -4.813   3.806
  56 C   -7.001  -7.554  -3.753
  57 C  -10.973   4.819   3.818
  58 C   -4.360 -12.116  -3.741
  59 C   10.964  -9.396   3.805
  60 C   -7.010 -12.137  -3.754
  61 C   13.623   4.795   3.769
  62 C   -4.352   2.054  -3.790
  63 C   -9.658  -7.098   3.750
  64 C   -3.045   4.358  -3.809
  65 C    9.659   7.092   3.748
  66 C   -8.316   4.351  -3.810
  67 C   10.973   4.814   3.753
  68 C   -7.001   2.073  -3.806
  69 C  -10.973  -4.821   3.741
  70 C   -4.359   6.635  -3.818
  71 C   10.965   9.398   3.754
  72 C   -7.009   6.657  -3.805
  73 O   13.787   0.001   3.775
                                769 S  
                                         6.773E+03 1.727E-03 0.000E+00 0.000E+00
                                         1.017E+03 1.325E-02 0.000E+00 0.000E+00
                                         2.313E+02 6.603E-02 0.000E+00 0.000E+00
                                         6.501E+01 2.353E-01 0.000E+00 0.000E+00
                                         2.050E+01 5.498E-01 0.000E+00 0.000E+00
                                770 S  
                                         6.716E+00 1.000E+00 0.000E+00 0.000E+00
                                771 S  
                                         1.147E+00 1.000E+00 0.000E+00 0.000E+00
                                772 S  
                                         3.342E-01 1.000E+00 0.000E+00 0.000E+00
                         773-   775 P  
                                         1.769E+01 0.000E+00 4.359E-02 0.000E+00
                                         3.854E+00 0.000E+00 2.318E-01 0.000E+00
                                         1.047E+00 0.000E+00 5.146E-01 0.000E+00
                         776-   778 P  
                                         2.759E-01 0.000E+00 1.000E+00 0.000E+00
                         779-   783 D  
                                         8.000E-01 0.000E+00 0.000E+00 1.000E+00
  74 O   -4.187  -2.740  -3.784
  75 O   -6.892  11.939   3.815
  76 O   -0.279  -4.996  -3.744
  77 O   -6.893 -11.940   3.754
  78 O   -0.279  -0.483  -3.805
  79 O    6.893 -11.938   3.775
  80 O   13.506  -0.482  -3.784
  81 O    6.893  11.940   3.815
  82 O   13.506  -4.995  -3.744
  83 O  -13.787  -0.001   3.754
  84 O   -7.174  11.455  -3.805

 *******************************************************************************
 FINISHED BASIS SET HANDLING 
 *******************************************************************************

 INFORMATION **** SET_MPP **** PCRYSTAL CALCULATION
 INFORMATION **** READM2 **** NEW DEFAULT: FOCK/KS MATRIX MIXING SET TO 30 %
 INFORMATION **** READM2 **** NEW DEFAULT: FULL DIRECT SCF MODE
 INFORMATION **** READM2 **** NEW DEFAULT: COULOMB BIPOLAR BUFFER SET TO 32 Mb
 INFORMATION **** READM2 **** NEW DEFAULT: EXCHANGE BIPOLAR BUFFER SET TO 32 Mb

 *******************************************************************************
 NEW DEFAULT: DFT INTEGRATION GRID INCREASED TO XLGRID
 NEW DEFAULT: DIIS ACCELERATOR ACTIVE
 USE KEYWORD NODIIS TO TURN IT OFF
 *******************************************************************************

 WARNING **** RDDFTP **** HSEsol-HJS ACTIVE
 RANGE SEPARATION - OMEGA:   0.110000000000000     
 WARNING **** RDDFTP **** HSEsol-3c has to be combined with sol-def2-mSVP basis set
 *******************************************************************************
 N. OF ATOMS PER CELL        84  COULOMB OVERLAP TOL         (T1) 10**   -6
 NUMBER OF SHELLS           468  COULOMB PENETRATION TOL     (T2) 10**   -6
 NUMBER OF AO               948  EXCHANGE OVERLAP TOL        (T3) 10**   -6
 N. OF ELECTRONS PER CELL   396  EXCHANGE PSEUDO OVP (F(G))  (T4) 10**   -6
 CORE ELECTRONS PER CELL    120  EXCHANGE PSEUDO OVP (P(G))  (T5) 10**  -12
 N. OF SYMMETRY OPERATORS     1  POLE ORDER IN MONO ZONE                  4
 *******************************************************************************
 TYPE OF CALCULATION :  RESTRICTED CLOSED SHELL
 KOHN-SHAM HAMILTONIAN

 (EXCHANGE)[CORRELATION] FUNCTIONAL:(HSEsol GGA)[PBEsol]

 RANGE-SEPARATED HYBRID FUNCTIONAL 
 OMEGA (SHORT-RANGE)[LONG-RANGE]:(    0.1100)[    0.0000]

 HYBRID EXCHANGE - PERCENTAGE OF FOCK EXCHANGE    25.0000

 CAPPA:IS1  2;IS2  2;IS3  8; K PTS MONK NET  20; SYMMOPS:K SPACE   2;G SPACE   1

 *******************************************************************************
 MAX NUMBER OF SCF CYCLES      50  CONVERGENCE ON DELTAP        10**-16
 WEIGHT OF F(I) IN F(I+1)      30% CONVERGENCE ON ENERGY        10**- 6
 SHRINK. FACT.(MONKH.)    2  2  8  NUMBER OF K POINTS IN THE IBZ     20
 SHRINKING FACTOR(GILAT NET)    8  NUMBER OF K POINTS(GILAT NET)   1028
 *******************************************************************************
 *** K POINTS COORDINATES (OBLIQUE COORDINATES IN UNITS OF IS =  2)
   1-R(  0  0  0)   2-R(  1  0  0)   3-R(  0  1  0)   4-R(  1  1  0)
   5-C(  0  0  1)   6-C(  1  0  1)   7-C(  0  1  1)   8-C(  1  1  1)
   9-C(  0  0  2)  10-C(  1  0  2)  11-C(  0  1  2)  12-C(  1  1  2)
  13-C(  0  0  3)  14-C(  1  0  3)  15-C(  0  1  3)  16-C(  1  1  3)
  17-R(  0  0  4)  18-R(  1  0  4)  19-R(  0  1  4)  20-R(  1  1  4)

 DIRECT LATTICE VECTORS COMPON. (A.U.)     RECIP. LATTICE VECTORS COMPON. (A.U.) 
        X            Y            Z              X            Y            Z
   24.5879030  -14.1935232    0.0000000      0.2555397    0.0000000    0.0000005
    0.0000000   28.3910867    0.0000000      0.1277517    0.2213084    0.0000015
   -0.0000321   -0.0000852   15.1178091      0.0000000    0.0000000    0.4156148

 DISK SPACE FOR EIGENVECTORS (FTN 10)    28758528 REALS

 SYMMETRY ADAPTION OF THE BLOCH FUNCTIONS DISABLED
 TTTTTTTTTTTTTTTTTTTTTTTTTTTTTT gordsh1     TELAPSE        0.05 TCPU        0.04

 MATRIX SIZE: P(G)  597496, F(G)  117686, P(G) IRR  300686, F(G) IRR  118646
 MAX G-VECTOR INDEX FOR 1- AND 2-ELECTRON INTEGRALS  43

 TTTTTTTTTTTTTTTTTTTTTTTTTTTTTT INPUT       TELAPSE        2.35 TCPU        2.35

 NEIGHBORS OF THE NON-EQUIVALENT ATOMS

 N = NUMBER OF NEIGHBORS AT DISTANCE R
    ATOM  N     R/ANG      R/AU   NEIGHBORS (ATOM LABELS AND CELL INDICES)
   1 B    1     1.3791     2.6061   73 O   -1 0 0
   1 B    1     1.3793     2.6065   75 O    0 0 0
   1 B    1     1.5503     2.9297   49 C   -1 0 0
   1 B    1     2.3895     4.5155    5 B    0 1 0
   1 B    1     2.3898     4.5160    3 B    0 0 0
   1 B    1     2.5632     4.8437   51 C    0 0 0

   2 B    1     1.3791     2.6061   74 O    0 0 0
   2 B    1     1.3793     2.6065   76 O    0 0 0
   2 B    1     1.5503     2.9297   50 C    0 0 0
   2 B    1     2.3895     4.5155    6 B    0 0 0
   2 B    1     2.3898     4.5160    4 B    0 0 0
   2 B    1     2.5632     4.8437   52 C    0 0 0

   3 B    1     1.3793     2.6065   77 O    0 1 0
   3 B    1     1.3793     2.6065   75 O    0 0 0
   3 B    1     1.5504     2.9298   37 C    0 0 0
   3 B    1     2.3895     4.5156    5 B    0 1 0
   3 B    1     2.3898     4.5160    1 B    0 0 0
   3 B    1     2.5634     4.8440   43 C    0 1 0

   4 B    1     1.3793     2.6065   78 O    0 0 0
   4 B    1     1.3793     2.6065   76 O    0 0 0
   4 B    1     1.5504     2.9298   38 C    0 0 0
   4 B    1     2.3895     4.5156    6 B    0 0 0
   4 B    1     2.3898     4.5160    2 B    0 0 0
   4 B    1     2.5634     4.8440   44 C    0 0 0

   5 B    1     1.3791     2.6061   73 O   -1-1 0
   5 B    1     1.3793     2.6064   77 O    0 0 0
   5 B    1     1.5502     2.9294   61 C   -1-1 0
   5 B    1     2.3895     4.5155    1 B    0-1 0
   5 B    1     2.3895     4.5156    3 B    0-1 0
   5 B    1     2.5629     4.8433   63 C    0 0 0

   6 B    1     1.3791     2.6061   74 O    0 0 0
   6 B    1     1.3793     2.6064   78 O    0 0 0
   6 B    1     1.5502     2.9294   62 C    0 0 0
   6 B    1     2.3895     4.5155    2 B    0 0 0
   6 B    1     2.3895     4.5156    4 B    0 0 0
   6 B    1     2.5629     4.8433   64 C    0 0 0

   7 B    1     1.3795     2.6068   79 O    0 0 0
   7 B    1     1.3795     2.6070   81 O    0-1 0
   7 B    1     1.5513     2.9316   47 C    0 0 0
   7 B    1     2.3905     4.5174   11 B    0 0 0
   7 B    1     2.3905     4.5175    9 B    0-1 0
   7 B    1     2.5648     4.8468   45 C    0-1 0

   8 B    1     1.3795     2.6068   80 O    0 0 0
   8 B    1     1.3795     2.6070   82 O    0 0 0
   8 B    1     1.5513     2.9316   48 C    0 0 0
   8 B    1     2.3905     4.5174   12 B    0 0 0
   8 B    1     2.3905     4.5175   10 B    1 0 0
   8 B    1     2.5648     4.8468   46 C    0 0 0

   9 B    1     1.3795     2.6069   81 O    0 0 0
   9 B    1     1.3797     2.6072   83 O    1 1 0
   9 B    1     1.5516     2.9322   71 C    0 0 0
   9 B    1     2.3905     4.5175    7 B    0 1 0
   9 B    1     2.3911     4.5185   11 B    0 1 0
   9 B    1     2.5651     4.8473   69 C    1 1 0

  10 B    1     1.3795     2.6069   82 O   -1 0 0
  10 B    1     1.3797     2.6072   84 O    0 0 0
  10 B    1     1.5516     2.9322   72 C    0 0 0
  10 B    1     2.3905     4.5175    8 B   -1 0 0
  10 B    1     2.3911     4.5185   12 B   -1 0 0
  10 B    1     2.5651     4.8473   70 C    0 0 0

  11 B    1     1.3795     2.6068   79 O    0 0 0
  11 B    1     1.3796     2.6071   83 O    1 0 0
  11 B    1     1.5516     2.9322   59 C    0 0 0
  11 B    1     2.3905     4.5174    7 B    0 0 0
  11 B    1     2.3911     4.5185    9 B    0-1 0
  11 B    1     2.5651     4.8473   57 C    1 0 0

  12 B    1     1.3795     2.6068   80 O    0 0 0
  12 B    1     1.3796     2.6071   84 O    1 0 0
  12 B    1     1.5516     2.9322   60 C    1 1 0
  12 B    1     2.3905     4.5174    8 B    0 0 0
  12 B    1     2.3911     4.5185   10 B    1 0 0
  12 B    1     2.5651     4.8473   58 C    1 1 0

  13 H    1     1.0913     2.0623   39 C    0 0 0
  13 H    1     2.1472     4.0576   37 C    0 0 0
  13 H    1     2.1680     4.0969   45 C    0 0 0
  13 H    1     2.5202     4.7625   19 H    0 0 0
  13 H    1     2.5676     4.8520   75 O    0 0 0
  13 H    1     2.7321     5.1630    3 B    0 0 0

  14 H    1     1.0913     2.0623   40 C    0 0 0
  14 H    1     2.1472     4.0576   38 C    0 0 0
  14 H    1     2.1680     4.0969   46 C    0 0 0
  14 H    1     2.5202     4.7625   20 H    0 0 0
  14 H    1     2.5676     4.8520   76 O    0 0 0
  14 H    1     2.7321     5.1630    4 B    0 0 0

  15 H    1     1.0914     2.0625   41 C    0 0 0
  15 H    1     2.1493     4.0616   47 C    0 0 0
  15 H    1     2.1666     4.0942   43 C    0 0 0
  15 H    1     2.5198     4.7618   17 H    0 0 0
  15 H    1     2.5720     4.8604   79 O    0 0 0
  15 H    1     2.7362     5.1707    7 B    0 0 0

  16 H    1     1.0914     2.0625   42 C    0 0 0
  16 H    1     2.1493     4.0616   48 C    0 0 0
  16 H    1     2.1666     4.0942   44 C    0 0 0
  16 H    1     2.5198     4.7618   18 H    0 0 0
  16 H    1     2.5720     4.8604   80 O    0 0 0
  16 H    1     2.7362     5.1707    8 B    0 0 0

  17 H    1     1.0914     2.0624   43 C    0 0 0
  17 H    1     2.1471     4.0575   37 C    0-1 0
  17 H    1     2.1680     4.0970   41 C    0 0 0
  17 H    1     2.5198     4.7618   15 H    0 0 0
  17 H    1     2.5665     4.8500   77 O    0 0 0
  17 H    1     2.7315     5.1618    3 B    0-1 0

  18 H    1     1.0914     2.0624   44 C    0 0 0
  18 H    1     2.1471     4.0575   38 C    0 0 0
  18 H    1     2.1680     4.0970   42 C    0 0 0
  18 H    1     2.5198     4.7618   16 H    0 0 0
  18 H    1     2.5665     4.8500   78 O    0 0 0
  18 H    1     2.7315     5.1618    4 B    0 0 0

  19 H    1     1.0915     2.0626   45 C    0 0 0
  19 H    1     2.1490     4.0610   47 C    0 1 0
  19 H    1     2.1669     4.0948   39 C    0 0 0
  19 H    1     2.5202     4.7625   13 H    0 0 0
  19 H    1     2.5712     4.8588   81 O    0 0 0
  19 H    1     2.7351     5.1686    7 B    0 1 0

  20 H    1     1.0915     2.0626   46 C    0 0 0
  20 H    1     2.1490     4.0610   48 C    0 0 0
  20 H    1     2.1669     4.0948   40 C    0 0 0
  20 H    1     2.5202     4.7625   14 H    0 0 0
  20 H    1     2.5712     4.8588   82 O    0 0 0
  20 H    1     2.7351     5.1686    8 B    0 0 0

  21 H    1     1.0913     2.0623   51 C    0 0 0
  21 H    1     2.1469     4.0571   49 C   -1 0 0
  21 H    1     2.1680     4.0968   57 C    0 0 0
  21 H    1     2.5198     4.7617   27 H    0 0 0
  21 H    1     2.5670     4.8510   75 O    0 0 0
  21 H    1     2.7310     5.1609    1 B    0 0 0

  22 H    1     1.0913     2.0623   52 C    0 0 0
  22 H    1     2.1469     4.0571   50 C    0 0 0
  22 H    1     2.1680     4.0968   58 C    0 0 0
  22 H    1     2.5198     4.7617   28 H    0 0 0
  22 H    1     2.5670     4.8510   76 O    0 0 0
  22 H    1     2.7310     5.1609    2 B    0 0 0

  23 H    1     1.0914     2.0625   53 C    0 0 0
  23 H    1     2.1493     4.0617   59 C    0 0 0
  23 H    1     2.1664     4.0939   55 C    0 0 0
  23 H    1     2.5192     4.7606   25 H    0 0 0
  23 H    1     2.5735     4.8632   79 O    0 0 0
  23 H    1     2.7371     5.1723   11 B    0 0 0

  24 H    1     1.0914     2.0625   54 C    0 0 0
  24 H    1     2.1493     4.0617   60 C    0 0 0
  24 H    1     2.1664     4.0939   56 C    0 0 0
  24 H    1     2.5192     4.7606   26 H    0 0 0
  24 H    1     2.5735     4.8632   80 O   -1-1 0
  24 H    1     2.7371     5.1723   12 B   -1-1 0

  25 H    1     1.0914     2.0624   55 C    0 0 0
  25 H    1     2.1475     4.0581   49 C    0 0 0
  25 H    1     2.1679     4.0967   53 C    0 0 0
  25 H    1     2.5192     4.7606   23 H    0 0 0
  25 H    1     2.5675     4.8519   73 O    0 0 0
  25 H    1     2.7328     5.1643    1 B    1 0 0

  26 H    1     1.0914     2.0624   56 C    0 0 0
  26 H    1     2.1475     4.0581   50 C    0 0 0
  26 H    1     2.1679     4.0967   54 C    0 0 0
  26 H    1     2.5192     4.7606   24 H    0 0 0
  26 H    1     2.5675     4.8519   74 O    0 0 0
  26 H    1     2.7328     5.1643    2 B    0 0 0

  27 H    1     1.0914     2.0625   57 C    0 0 0
  27 H    1     2.1491     4.0612   59 C   -1 0 0
  27 H    1     2.1666     4.0942   51 C    0 0 0
  27 H    1     2.5198     4.7617   21 H    0 0 0
  27 H    1     2.5723     4.8609   83 O    0 0 0
  27 H    1     2.7355     5.1693   11 B   -1 0 0

  28 H    1     1.0914     2.0625   58 C    0 0 0
  28 H    1     2.1491     4.0612   60 C    0 0 0
  28 H    1     2.1666     4.0942   52 C    0 0 0
  28 H    1     2.5198     4.7617   22 H    0 0 0
  28 H    1     2.5723     4.8609   84 O    0-1 0
  28 H    1     2.7355     5.1693   12 B   -1-1 0

  29 H    1     1.0914     2.0624   63 C    0 0 0
  29 H    1     2.1475     4.0582   61 C   -1-1 0
  29 H    1     2.1678     4.0966   69 C    0 0 0
  29 H    1     2.5200     4.7621   35 H    0 0 0
  29 H    1     2.5667     4.8503   77 O    0 0 0
  29 H    1     2.7315     5.1618    5 B    0 0 0

  30 H    1     1.0914     2.0624   64 C    0 0 0
  30 H    1     2.1475     4.0582   62 C    0 0 0
  30 H    1     2.1678     4.0966   70 C    0 0 0
  30 H    1     2.5200     4.7621   36 H    0 0 0
  30 H    1     2.5667     4.8503   78 O    0 0 0
  30 H    1     2.7315     5.1618    6 B    0 0 0

  31 H    1     1.0913     2.0623   65 C    0 0 0
  31 H    1     2.1487     4.0605   71 C    0 0 0
  31 H    1     2.1667     4.0945   67 C    0 0 0
  31 H    1     2.5197     4.7616   33 H    0 0 0
  31 H    1     2.5723     4.8610   81 O    0 0 0
  31 H    1     2.7359     5.1701    9 B    0 0 0

  32 H    1     1.0913     2.0623   66 C    0 0 0
  32 H    1     2.1487     4.0605   72 C    0 0 0
  32 H    1     2.1667     4.0945   68 C    0 0 0
  32 H    1     2.5197     4.7616   34 H    0 0 0
  32 H    1     2.5723     4.8610   82 O   -1 0 0
  32 H    1     2.7359     5.1701   10 B    0 0 0

  33 H    1     1.0915     2.0626   67 C    0 0 0
  33 H    1     2.1479     4.0589   61 C    0 0 0
  33 H    1     2.1679     4.0968   65 C    0 0 0
  33 H    1     2.5197     4.7616   31 H    0 0 0
  33 H    1     2.5677     4.8522   73 O    0 0 0
  33 H    1     2.7331     5.1648    5 B    1 1 0

  34 H    1     1.0915     2.0626   68 C    0 0 0
  34 H    1     2.1479     4.0589   62 C    0 0 0
  34 H    1     2.1679     4.0968   66 C    0 0 0
  34 H    1     2.5197     4.7616   32 H    0 0 0
  34 H    1     2.5677     4.8522   74 O    0 0 0
  34 H    1     2.7331     5.1648    6 B    0 0 0

  35 H    1     1.0914     2.0624   69 C    0 0 0
  35 H    1     2.1486     4.0602   71 C   -1-1 0
  35 H    1     2.1668     4.0947   63 C    0 0 0
  35 H    1     2.5200     4.7621   29 H    0 0 0
  35 H    1     2.5717     4.8598   83 O    0 0 0
  35 H    1     2.7349     5.1682    9 B   -1-1 0

  36 H    1     1.0914     2.0624   70 C    0 0 0
  36 H    1     2.1486     4.0602   72 C    0 0 0
  36 H    1     2.1668     4.0947   64 C    0 0 0
  36 H    1     2.5200     4.7621   30 H    0 0 0
  36 H    1     2.5717     4.8598   84 O    0 0 0
  36 H    1     2.7349     5.1682   10 B    0 0 0

  37 C    1     1.4020     2.6495   43 C    0 1 0
  37 C    1     1.4021     2.6495   39 C    0 0 0
  37 C    1     1.5504     2.9298    3 B    0 0 0
  37 C    1     2.1471     4.0575   17 H    0 1 0
  37 C    1     2.1472     4.0576   13 H    0 0 0
  37 C    1     2.4246     4.5817   41 C    0 1 0

  38 C    1     1.4020     2.6495   44 C    0 0 0
  38 C    1     1.4021     2.6495   40 C    0 0 0
  38 C    1     1.5504     2.9298    4 B    0 0 0
  38 C    1     2.1471     4.0575   18 H    0 0 0
  38 C    1     2.1472     4.0576   14 H    0 0 0
  38 C    1     2.4246     4.5817   42 C    0 0 0

  39 C    1     1.0913     2.0623   13 H    0 0 0
  39 C    1     1.3914     2.6294   45 C    0 0 0
  39 C    1     1.4021     2.6495   37 C    0 0 0
  39 C    1     2.1669     4.0948   19 H    0 0 0
  39 C    1     2.4177     4.5688   43 C    0 1 0
  39 C    1     2.4250     4.5825   47 C    0 1 0

  40 C    1     1.0913     2.0623   14 H    0 0 0
  40 C    1     1.3914     2.6294   46 C    0 0 0
  40 C    1     1.4021     2.6495   38 C    0 0 0
  40 C    1     2.1669     4.0948   20 H    0 0 0
  40 C    1     2.4177     4.5688   44 C    0 0 0
  40 C    1     2.4250     4.5825   48 C    0 0 0

  41 C    1     1.0914     2.0625   15 H    0 0 0
  41 C    1     1.3914     2.6293   43 C    0 0 0
  41 C    1     1.4026     2.6505   47 C    0 0 0
  41 C    1     2.1680     4.0970   17 H    0 0 0
  41 C    1     2.4182     4.5697   45 C    0-1 0
  41 C    1     2.4246     4.5817   37 C    0-1 0

  42 C    1     1.0914     2.0625   16 H    0 0 0
  42 C    1     1.3914     2.6293   44 C    0 0 0
  42 C    1     1.4026     2.6505   48 C    0 0 0
  42 C    1     2.1680     4.0970   18 H    0 0 0
  42 C    1     2.4182     4.5697   46 C    0 0 0
  42 C    1     2.4246     4.5817   38 C    0 0 0

  43 C    1     1.0914     2.0624   17 H    0 0 0
  43 C    1     1.3914     2.6293   41 C    0 0 0
  43 C    1     1.4020     2.6495   37 C    0-1 0
  43 C    1     2.1666     4.0942   15 H    0 0 0
  43 C    1     2.4177     4.5688   39 C    0-1 0
  43 C    1     2.4250     4.5826   47 C    0 0 0

  44 C    1     1.0914     2.0624   18 H    0 0 0
  44 C    1     1.3914     2.6293   42 C    0 0 0
  44 C    1     1.4020     2.6495   38 C    0 0 0
  44 C    1     2.1666     4.0942   16 H    0 0 0
  44 C    1     2.4177     4.5688   40 C    0 0 0
  44 C    1     2.4250     4.5826   48 C    0 0 0

  45 C    1     1.0915     2.0626   19 H    0 0 0
  45 C    1     1.3914     2.6294   39 C    0 0 0
  45 C    1     1.4025     2.6504   47 C    0 1 0
  45 C    1     2.1680     4.0969   13 H    0 0 0
  45 C    1     2.4182     4.5697   41 C    0 1 0
  45 C    1     2.4246     4.5818   37 C    0 0 0

  46 C    1     1.0915     2.0626   20 H    0 0 0
  46 C    1     1.3914     2.6294   40 C    0 0 0
  46 C    1     1.4025     2.6504   48 C    0 0 0
  46 C    1     2.1680     4.0969   14 H    0 0 0
  46 C    1     2.4182     4.5697   42 C    0 0 0
  46 C    1     2.4246     4.5818   38 C    0 0 0

  47 C    1     1.4025     2.6504   45 C    0-1 0
  47 C    1     1.4026     2.6505   41 C    0 0 0
  47 C    1     1.5513     2.9316    7 B    0 0 0
  47 C    1     2.1490     4.0610   19 H    0-1 0
  47 C    1     2.1493     4.0616   15 H    0 0 0
  47 C    1     2.4250     4.5825   39 C    0-1 0

  48 C    1     1.4025     2.6504   46 C    0 0 0
  48 C    1     1.4026     2.6505   42 C    0 0 0
  48 C    1     1.5513     2.9316    8 B    0 0 0
  48 C    1     2.1490     4.0610   20 H    0 0 0
  48 C    1     2.1493     4.0616   16 H    0 0 0
  48 C    1     2.4250     4.5825   40 C    0 0 0

  49 C    1     1.4020     2.6494   51 C    1 0 0
  49 C    1     1.4021     2.6495   55 C    0 0 0
  49 C    1     1.5503     2.9297    1 B    1 0 0
  49 C    1     2.1469     4.0571   21 H    1 0 0
  49 C    1     2.1475     4.0581   25 H    0 0 0
  49 C    1     2.4246     4.5818   53 C    0 0 0

  50 C    1     1.4020     2.6494   52 C    0 0 0
  50 C    1     1.4021     2.6495   56 C    0 0 0
  50 C    1     1.5503     2.9297    2 B    0 0 0
  50 C    1     2.1469     4.0571   22 H    0 0 0
  50 C    1     2.1475     4.0581   26 H    0 0 0
  50 C    1     2.4246     4.5818   54 C    0 0 0

  51 C    1     1.0913     2.0623   21 H    0 0 0
  51 C    1     1.3914     2.6293   57 C    0 0 0
  51 C    1     1.4020     2.6494   49 C   -1 0 0
  51 C    1     2.1666     4.0942   27 H    0 0 0
  51 C    1     2.4175     4.5684   55 C   -1 0 0
  51 C    1     2.4251     4.5828   59 C   -1 0 0

  52 C    1     1.0913     2.0623   22 H    0 0 0
  52 C    1     1.3914     2.6293   58 C    0 0 0
  52 C    1     1.4020     2.6494   50 C    0 0 0
  52 C    1     2.1666     4.0942   28 H    0 0 0
  52 C    1     2.4175     4.5684   56 C    0 0 0
  52 C    1     2.4251     4.5828   60 C    0 0 0

  53 C    1     1.0914     2.0625   23 H    0 0 0
  53 C    1     1.3915     2.6295   55 C    0 0 0
  53 C    1     1.4026     2.6505   59 C    0 0 0
  53 C    1     2.1679     4.0967   25 H    0 0 0
  53 C    1     2.4179     4.5691   57 C    1 0 0
  53 C    1     2.4246     4.5818   49 C    0 0 0

  54 C    1     1.0914     2.0625   24 H    0 0 0
  54 C    1     1.3915     2.6295   56 C    0 0 0
  54 C    1     1.4026     2.6505   60 C    0 0 0
  54 C    1     2.1679     4.0967   26 H    0 0 0
  54 C    1     2.4179     4.5691   58 C    0 0 0
  54 C    1     2.4246     4.5818   50 C    0 0 0

  55 C    1     1.0914     2.0624   25 H    0 0 0
  55 C    1     1.3915     2.6295   53 C    0 0 0
  55 C    1     1.4021     2.6495   49 C    0 0 0
  55 C    1     2.1664     4.0939   23 H    0 0 0
  55 C    1     2.4175     4.5684   51 C    1 0 0
  55 C    1     2.4253     4.5832   59 C    0 0 0

  56 C    1     1.0914     2.0624   26 H    0 0 0
  56 C    1     1.3915     2.6295   54 C    0 0 0
  56 C    1     1.4021     2.6495   50 C    0 0 0
  56 C    1     2.1664     4.0939   24 H    0 0 0
  56 C    1     2.4175     4.5684   52 C    0 0 0
  56 C    1     2.4253     4.5832   60 C    0 0 0

  57 C    1     1.0914     2.0625   27 H    0 0 0
  57 C    1     1.3914     2.6293   51 C    0 0 0
  57 C    1     1.4025     2.6504   59 C   -1 0 0
  57 C    1     2.1680     4.0968   21 H    0 0 0
  57 C    1     2.4179     4.5691   53 C   -1 0 0
  57 C    1     2.4247     4.5819   49 C   -1 0 0

  58 C    1     1.0914     2.0625   28 H    0 0 0
  58 C    1     1.3914     2.6293   52 C    0 0 0
  58 C    1     1.4025     2.6504   60 C    0 0 0
  58 C    1     2.1680     4.0968   22 H    0 0 0
  58 C    1     2.4179     4.5691   54 C    0 0 0
  58 C    1     2.4247     4.5819   50 C    0 0 0

  59 C    1     1.4025     2.6504   57 C    1 0 0
  59 C    1     1.4026     2.6505   53 C    0 0 0
  59 C    1     1.5516     2.9322   11 B    0 0 0
  59 C    1     2.1491     4.0612   27 H    1 0 0
  59 C    1     2.1493     4.0617   23 H    0 0 0
  59 C    1     2.4251     4.5828   51 C    1 0 0

  60 C    1     1.4025     2.6504   58 C    0 0 0
  60 C    1     1.4026     2.6505   54 C    0 0 0
  60 C    1     1.5516     2.9322   12 B   -1-1 0
  60 C    1     2.1491     4.0612   28 H    0 0 0
  60 C    1     2.1493     4.0617   24 H    0 0 0
  60 C    1     2.4251     4.5828   52 C    0 0 0

  61 C    1     1.4021     2.6496   63 C    1 1 0
  61 C    1     1.4021     2.6497   67 C    0 0 0
  61 C    1     1.5502     2.9294    5 B    1 1 0
  61 C    1     2.1475     4.0582   29 H    1 1 0
  61 C    1     2.1479     4.0589   33 H    0 0 0
  61 C    1     2.4244     4.5814   65 C    0 0 0

  62 C    1     1.4021     2.6496   64 C    0 0 0
  62 C    1     1.4021     2.6497   68 C    0 0 0
  62 C    1     1.5502     2.9294    6 B    0 0 0
  62 C    1     2.1475     4.0582   30 H    0 0 0
  62 C    1     2.1479     4.0589   34 H    0 0 0
  62 C    1     2.4244     4.5814   66 C    0 0 0

  63 C    1     1.0914     2.0624   29 H    0 0 0
  63 C    1     1.3914     2.6293   69 C    0 0 0
  63 C    1     1.4021     2.6496   61 C   -1-1 0
  63 C    1     2.1668     4.0947   35 H    0 0 0
  63 C    1     2.4179     4.5692   67 C   -1-1 0
  63 C    1     2.4251     4.5827   71 C   -1-1 0

  64 C    1     1.0914     2.0624   30 H    0 0 0
  64 C    1     1.3914     2.6293   70 C    0 0 0
  64 C    1     1.4021     2.6496   62 C    0 0 0
  64 C    1     2.1668     4.0947   36 H    0 0 0
  64 C    1     2.4179     4.5692   68 C    0 0 0
  64 C    1     2.4251     4.5827   72 C    0 0 0

  65 C    1     1.0913     2.0623   31 H    0 0 0
  65 C    1     1.3914     2.6294   67 C    0 0 0
  65 C    1     1.4025     2.6504   71 C    0 0 0
  65 C    1     2.1679     4.0968   33 H    0 0 0
  65 C    1     2.4178     4.5690   69 C    1 1 0
  65 C    1     2.4244     4.5814   61 C    0 0 0

  66 C    1     1.0913     2.0623   32 H    0 0 0
  66 C    1     1.3914     2.6294   68 C    0 0 0
  66 C    1     1.4025     2.6504   72 C    0 0 0
  66 C    1     2.1679     4.0968   34 H    0 0 0
  66 C    1     2.4178     4.5690   70 C    0 0 0
  66 C    1     2.4244     4.5814   62 C    0 0 0

  67 C    1     1.0915     2.0626   33 H    0 0 0
  67 C    1     1.3914     2.6294   65 C    0 0 0
  67 C    1     1.4021     2.6497   61 C    0 0 0
  67 C    1     2.1667     4.0945   31 H    0 0 0
  67 C    1     2.4179     4.5692   63 C    1 1 0
  67 C    1     2.4253     4.5832   71 C    0 0 0

  68 C    1     1.0915     2.0626   34 H    0 0 0
  68 C    1     1.3914     2.6294   66 C    0 0 0
  68 C    1     1.4021     2.6497   62 C    0 0 0
  68 C    1     2.1667     4.0945   32 H    0 0 0
  68 C    1     2.4179     4.5692   64 C    0 0 0
  68 C    1     2.4253     4.5832   72 C    0 0 0

  69 C    1     1.0914     2.0624   35 H    0 0 0
  69 C    1     1.3914     2.6293   63 C    0 0 0
  69 C    1     1.4025     2.6503   71 C   -1-1 0
  69 C    1     2.1678     4.0966   29 H    0 0 0
  69 C    1     2.4178     4.5690   65 C   -1-1 0
  69 C    1     2.4245     4.5817   61 C   -1-1 0

  70 C    1     1.0914     2.0624   36 H    0 0 0
  70 C    1     1.3914     2.6293   64 C    0 0 0
  70 C    1     1.4025     2.6503   72 C    0 0 0
  70 C    1     2.1678     4.0966   30 H    0 0 0
  70 C    1     2.4178     4.5690   66 C    0 0 0
  70 C    1     2.4245     4.5817   62 C    0 0 0

  71 C    1     1.4025     2.6503   69 C    1 1 0
  71 C    1     1.4025     2.6504   65 C    0 0 0
  71 C    1     1.5516     2.9322    9 B    0 0 0
  71 C    1     2.1486     4.0602   35 H    1 1 0
  71 C    1     2.1487     4.0605   31 H    0 0 0
  71 C    1     2.4251     4.5827   63 C    1 1 0

  72 C    1     1.4025     2.6503   70 C    0 0 0
  72 C    1     1.4025     2.6504   66 C    0 0 0
  72 C    1     1.5516     2.9322   10 B    0 0 0
  72 C    1     2.1486     4.0602   36 H    0 0 0
  72 C    1     2.1487     4.0605   32 H    0 0 0
  72 C    1     2.4251     4.5827   64 C    0 0 0

  73 O    1     1.3791     2.6061    1 B    1 0 0
  73 O    1     1.3791     2.6061    5 B    1 1 0
  73 O    1     2.3880     4.5126   75 O    1 0 0
  73 O    1     2.3882     4.5130   77 O    1 1 0
  73 O    1     2.5383     4.7966   61 C    0 0 0
  73 O    1     2.5384     4.7968   49 C    0 0 0

  74 O    1     1.3791     2.6061    2 B    0 0 0
  74 O    1     1.3791     2.6061    6 B    0 0 0
  74 O    1     2.3880     4.5126   76 O    0 0 0
  74 O    1     2.3882     4.5130   78 O    0 0 0
  74 O    1     2.5383     4.7966   62 C    0 0 0
  74 O    1     2.5384     4.7968   50 C    0 0 0

  75 O    1     1.3793     2.6065    1 B    0 0 0
  75 O    1     1.3793     2.6065    3 B    0 0 0
  75 O    1     2.3880     4.5126   73 O   -1 0 0
  75 O    1     2.3882     4.5131   77 O    0 1 0
  75 O    1     2.5391     4.7981   37 C    0 0 0
  75 O    1     2.5395     4.7990   49 C   -1 0 0

  76 O    1     1.3793     2.6065    2 B    0 0 0
  76 O    1     1.3793     2.6065    4 B    0 0 0
  76 O    1     2.3880     4.5126   74 O    0 0 0
  76 O    1     2.3882     4.5131   78 O    0 0 0
  76 O    1     2.5391     4.7981   38 C    0 0 0
  76 O    1     2.5395     4.7990   50 C    0 0 0

  77 O    1     1.3793     2.6064    5 B    0 0 0
  77 O    1     1.3793     2.6065    3 B    0-1 0
  77 O    1     2.3882     4.5130   73 O   -1-1 0
  77 O    1     2.3882     4.5131   75 O    0-1 0
  77 O    1     2.5390     4.7980   37 C    0-1 0
  77 O    1     2.5391     4.7982   61 C   -1-1 0

  78 O    1     1.3793     2.6064    6 B    0 0 0
  78 O    1     1.3793     2.6065    4 B    0 0 0
  78 O    1     2.3882     4.5130   74 O    0 0 0
  78 O    1     2.3882     4.5131   76 O    0 0 0
  78 O    1     2.5390     4.7980   38 C    0 0 0
  78 O    1     2.5391     4.7982   62 C    0 0 0

  79 O    1     1.3795     2.6068   11 B    0 0 0
  79 O    1     1.3795     2.6068    7 B    0 0 0
  79 O    1     2.3880     4.5126   83 O    1 0 0
  79 O    1     2.3884     4.5134   81 O    0-1 0
  79 O    1     2.5400     4.7998   47 C    0 0 0
  79 O    1     2.5403     4.8005   59 C    0 0 0

  80 O    1     1.3795     2.6068   12 B    0 0 0
  80 O    1     1.3795     2.6068    8 B    0 0 0
  80 O    1     2.3880     4.5126   84 O    1 0 0
  80 O    1     2.3884     4.5134   82 O    0 0 0
  80 O    1     2.5400     4.7998   48 C    0 0 0
  80 O    1     2.5403     4.8005   60 C    1 1 0

  81 O    1     1.3795     2.6069    9 B    0 0 0
  81 O    1     1.3795     2.6070    7 B    0 1 0
  81 O    1     2.3881     4.5128   83 O    1 1 0
  81 O    1     2.3884     4.5134   79 O    0 1 0
  81 O    1     2.5404     4.8006   47 C    0 1 0
  81 O    1     2.5405     4.8008   71 C    0 0 0

  82 O    1     1.3795     2.6069   10 B    1 0 0
  82 O    1     1.3795     2.6070    8 B    0 0 0
  82 O    1     2.3881     4.5128   84 O    1 0 0
  82 O    1     2.3884     4.5134   80 O    0 0 0
  82 O    1     2.5404     4.8006   48 C    0 0 0
  82 O    1     2.5405     4.8008   72 C    1 0 0

  83 O    1     1.3796     2.6071   11 B   -1 0 0
  83 O    1     1.3797     2.6072    9 B   -1-1 0
  83 O    1     2.3880     4.5126   79 O   -1 0 0
  83 O    1     2.3881     4.5128   81 O   -1-1 0
  83 O    1     2.5409     4.8016   71 C   -1-1 0
  83 O    1     2.5410     4.8019   59 C   -1 0 0

  84 O    1     1.3796     2.6071   12 B   -1 0 0
  84 O    1     1.3797     2.6072   10 B    0 0 0
  84 O    1     2.3880     4.5126   80 O   -1 0 0
  84 O    1     2.3881     4.5128   82 O   -1 0 0
  84 O    1     2.5409     4.8016   72 C    0 0 0
  84 O    1     2.5410     4.8019   60 C    0 1 0


 SYMMETRY ALLOWED INTERNAL DEGREE(S) OF FREEDOM: 249
 TTTTTTTTTTTTTTTTTTTTTTTTTTTTTT SYMM        TELAPSE        2.36 TCPU        2.35
 TTTTTTTTTTTTTTTTTTTTTTTTTTTTTT INT_SCREEN  TELAPSE        2.55 TCPU        2.54

 DFT PARAMETERS

     ATOM       ELECTRONS   NET CHARGE   R(ANGSTROM)
   1   5  B       5.0000      0.0000     0.89000000
  13   1  H       1.0000      0.0000     1.11000000
  37   6  C       6.0000      0.0000     0.77000000
  73   8  O       8.0000      0.0000     0.74000000

 SIZE OF GRID=    2650090
 TTTTTTTTTTTTTTTTTTTTTTTTTTTTTT MAKE_GRID2  TELAPSE       19.35 TCPU       19.33
 BECKE WEIGHT FUNCTION
 RADSAFE =     2.00
 TOLERANCES - DENSITY:10**- 6; POTENTIAL:10**- 9; GRID WGT:10**-14

 RADIAL INTEGRATION  - INTERVALS (POINTS,UPPER LIMIT):            1( 75,  4.0*R)

 ANGULAR INTEGRATION - INTERVALS (ACCURACY LEVEL [N. POINTS] UPPER LIMIT):
  1(  4[  86]   0.2)  2(  8[ 194]   0.5)  3( 12[ 350]   0.9)  4( 16[ 974]   3.5)
  5( 12[ 350]9999.0)
 TTTTTTTTTTTTTTTTTTTTTTTTTTTTTT INT_CALC    TELAPSE       19.56 TCPU       19.54
 EEEEEEEEEE INT_CALC TERMINATION  DATE 19 02 2026 TIME 20:25:21.0

 *******************************************************************************
 cof-1_z40_L070_serr                                                             
 CRYSTAL - SCF - TYPE OF CALCULATION :  RESTRICTED CLOSED SHELL
 *******************************************************************************

 CAPPA:IS1  2;IS2  2;IS3  8; K PTS MONK NET  20; SYMMOPS:K SPACE   2;G SPACE   1

 TTTTTTTTTTTTTTTTTTTTTTTTTTTTTT SDIK        TELAPSE       21.46 TCPU       46.63

 AAAAAAAAAAAAAAAAAAAAAAAAAAAAAAAAAAAAAAAAAAAAAAAAAAAAAAAAAAAAAAAAAAAAAAAAAAAAAAA
         ATOMIC WAVEFUNCTION(S)


 NUCLEAR CHARGE  5.0  SYMMETRY SPECIES            S    P
 N. ELECTRONS    5.0  NUMBER OF PRIMITIVE GTOS    8    4
                      NUMBER OF CONTRACTED GTOS   4    2
                      NUMBER OF CLOSED SHELLS     2    0
                      OPEN SHELL OCCUPATION       0    1

  ZNUC  SCFIT    TOTAL HF ENERGY   KINETIC ENERGY   VIRIAL THEOREM ACCURACY
   5.0    11    -2.451164084E+01  2.462155050E+01 -1.995536038E+00  1.5E-06

 NUCLEAR CHARGE  1.0  SYMMETRY SPECIES            S
 N. ELECTRONS    1.0  NUMBER OF PRIMITIVE GTOS    4
                      NUMBER OF CONTRACTED GTOS   2
                      NUMBER OF CLOSED SHELLS     0
                      OPEN SHELL OCCUPATION       1

  ZNUC  SCFIT    TOTAL HF ENERGY   KINETIC ENERGY   VIRIAL THEOREM ACCURACY
   1.0     1    -4.977266687E-01  5.190767460E-01 -1.958869132E+00  0.0E+00

 NUCLEAR CHARGE  6.0  SYMMETRY SPECIES            S    P
 N. ELECTRONS    6.0  NUMBER OF PRIMITIVE GTOS    8    4
                      NUMBER OF CONTRACTED GTOS   4    2
                      NUMBER OF CLOSED SHELLS     2    0
                      OPEN SHELL OCCUPATION       0    2

  ZNUC  SCFIT    TOTAL HF ENERGY   KINETIC ENERGY   VIRIAL THEOREM ACCURACY
   6.0     9    -3.766704647E+01  3.775180683E+01 -1.997754800E+00  1.1E-06

 NUCLEAR CHARGE  8.0  SYMMETRY SPECIES            S    P
 N. ELECTRONS    8.0  NUMBER OF PRIMITIVE GTOS    8    4
                      NUMBER OF CONTRACTED GTOS   4    2
                      NUMBER OF CLOSED SHELLS     2    0
                      OPEN SHELL OCCUPATION       0    4

  ZNUC  SCFIT    TOTAL HF ENERGY   KINETIC ENERGY   VIRIAL THEOREM ACCURACY
   8.0    12    -7.477373220E+01  7.477365593E+01 -2.000001020E+00  3.8E-06

 AAAAAAAAAAAAAAAAAAAAAAAAAAAAAAAAAAAAAAAAAAAAAAAAAAAAAAAAAAAAAAAAAAAAAAAAAAAAAAA

 CHARGE NORMALIZATION FACTOR   1.00000000
 TOTAL ATOMIC CHARGES:
   5.0000000   5.0000000   5.0000000   5.0000000   5.0000000   5.0000000
   5.0000000   5.0000000   5.0000000   5.0000000   5.0000000   5.0000000
   1.0000000   1.0000000   1.0000000   1.0000000   1.0000000   1.0000000
   1.0000000   1.0000000   1.0000000   1.0000000   1.0000000   1.0000000
   1.0000000   1.0000000   1.0000000   1.0000000   1.0000000   1.0000000
   1.0000000   1.0000000   1.0000000   1.0000000   1.0000000   1.0000000
   6.0000000   6.0000000   6.0000000   6.0000000   6.0000000   6.0000000
   6.0000000   6.0000000   6.0000000   6.0000000   6.0000000   6.0000000
   6.0000000   6.0000000   6.0000000   6.0000000   6.0000000   6.0000000
   6.0000000   6.0000000   6.0000000   6.0000000   6.0000000   6.0000000
   6.0000000   6.0000000   6.0000000   6.0000000   6.0000000   6.0000000
   6.0000000   6.0000000   6.0000000   6.0000000   6.0000000   6.0000000
   8.0000000   8.0000000   8.0000000   8.0000000   8.0000000   8.0000000
   8.0000000   8.0000000   8.0000000   8.0000000   8.0000000   8.0000000
 TTTTTTTTTTTTTTTTTTTTTTTTTTTTTT MOQGAD      TELAPSE       21.55 TCPU       49.29
 TTTTTTTTTTTTTTTTTTTTTTTTTTTTTT SHELLXN     TELAPSE       33.86 TCPU      442.88
 TTTTTTTTTTTTTTTTTTTTTTTTTTTTTT MONMO3      TELAPSE       34.37 TCPU      459.21
 NUMERICALLY INTEGRATED DENSITY    395.9999621475
 TTTTTTTTTTTTTTTTTTTTTTTTTTTTTT NUMDFT      TELAPSE       35.67 TCPU      500.55
 CYC   0 ETOT(AU) -2.591910960507E+03 DETOT -2.59E+03 tst  0.00E+00 PX  1.00E+00
 TTTTTTTTTTTTTTTTTTTTTTTTTTTTTT DIIS        TELAPSE       35.77 TCPU      503.80
 TTTTTTTTTTTTTTTTTTTTTTTTTTTTTT FDIK        TELAPSE       37.56 TCPU      560.93
 INSULATING STATE
 TOP OF VALENCE BANDS -    BAND    198; K    4; EIG -3.1206613E-01 AU
 TOP OF VALENCE BANDS -    BAND    198; K    1; EIG -3.1226600E-01 AU
 BOTTOM OF VIRTUAL BANDS - BAND    199; K    1; EIG -1.5678121E-01 AU
 INDIRECT ENERGY BAND GAP:   4.2255 eV
 TTTTTTTTTTTTTTTTTTTTTTTTTTTTTT PDIG        TELAPSE       39.01 TCPU      567.74
 CHARGE NORMALIZATION FACTOR   1.00000000
 TOTAL ATOMIC CHARGES:
   4.1421477   4.1660793   4.1635471   4.1659926   4.1637895   4.1662354
   4.1658249   4.1633867   4.1655969   4.1631556   4.1656893   4.1417826
   0.7852750   0.7850762   0.7851924   0.7853910   0.7852591   0.7849982
   0.7851176   0.7853804   0.7858260   0.7851653   0.7853339   0.7859907
   0.7858155   0.7851559   0.7852969   0.7859534   0.7852621   0.7850005
   0.7851823   0.7854447   0.7852275   0.7850281   0.7851851   0.7853838
   6.0436540   6.0429843   6.2660972   6.2651619   6.2651272   6.2660613
   6.2657765   6.2647674   6.2647111   6.2657219   6.0422620   6.0429268
   6.0496634   6.0420279   6.2662604   6.2645021   6.2645780   6.2663406
   6.2661752   6.2644053   6.2645944   6.2663518   6.0408342   6.0484268
   6.0440185   6.0433429   6.2655468   6.2645360   6.2650815   6.2660961
   6.2657275   6.2647892   6.2654052   6.2663392   6.0418012   6.0424632
   8.6962880   8.6907542   8.6963912   8.6908633   8.6956856   8.6908286
   8.6911824   8.6967091   8.6912336   8.6960847   8.6913584   8.6968929
 TTTTTTTTTTTTTTTTTTTTTTTTTTTTTT MOQGAD      TELAPSE       39.10 TCPU      567.83
 TTTTTTTTTTTTTTTTTTTTTTTTTTTTTT SHELLXN     TELAPSE       51.59 TCPU      965.93
 TTTTTTTTTTTTTTTTTTTTTTTTTTTTTT MONMO3      TELAPSE       52.11 TCPU      982.63
 NUMERICALLY INTEGRATED DENSITY    395.9999888402
 TTTTTTTTTTTTTTTTTTTTTTTTTTTTTT NUMDFT      TELAPSE       53.44 TCPU     1025.10
 CYC   1 ETOT(AU) -2.577625341585E+03 DETOT  1.43E+01 tst  0.00E+00 PX  1.00E+00
 TTTTTTTTTTTTTTTTTTTTTTTTTTTTTT DIIS        TELAPSE       53.57 TCPU     1029.23
 DIIS TEST: 0.22301E+01 AT SCF   CYCLE   1 - MIX   30 %
 TTTTTTTTTTTTTTTTTTTTTTTTTTTTTT FDIK        TELAPSE       55.41 TCPU     1088.04
 INSULATING STATE
 TOP OF VALENCE BANDS -    BAND    198; K    4; EIG -2.2251730E-01 AU
 TOP OF VALENCE BANDS -    BAND    198; K    1; EIG -2.2291993E-01 AU
 BOTTOM OF VIRTUAL BANDS - BAND    199; K    1; EIG -8.0872717E-02 AU
 INDIRECT ENERGY BAND GAP:   3.8543 eV
 TTTTTTTTTTTTTTTTTTTTTTTTTTTTTT PDIG        TELAPSE       56.85 TCPU     1094.87
 CHARGE NORMALIZATION FACTOR   1.00000000
 TOTAL ATOMIC CHARGES:
   4.7121316   4.7150505   4.6982466   4.7158375   4.6982348   4.7158491
   4.7159573   4.6981872   4.7159311   4.6981586   4.7150629   4.7120897
   0.9072962   0.9101067   0.9101069   0.9073084   0.9069973   0.9126896
   0.9126891   0.9071290   0.9050980   0.9089371   0.9088570   0.9051353
   0.9050710   0.9089230   0.9088411   0.9051290   0.9069878   0.9126904
   0.9127673   0.9072093   0.9072261   0.9100576   0.9101160   0.9073182
   5.8580128   5.8777799   6.1405045   6.1406796   6.1410317   6.1409408
   6.1171586   6.1438732   6.1444822   6.1178106   5.8803469   5.8604871
   5.8961167   5.8726587   6.1281328   6.1228945   6.1235680   6.1287025
   6.1283544   6.1231168   6.1234631   6.1285961   5.8757752   5.8990807
   5.8579551   5.8777340   6.1172274   6.1439392   6.1443228   6.1176790
   6.1407046   6.1408885   6.1407947   6.1406325   5.8805616   5.8606881
   8.3403144   8.3318258   8.3406610   8.3321848   8.3234607   8.3360096
   8.3316572   8.3401385   8.3357417   8.3232896   8.3320405   8.3405570
 TTTTTTTTTTTTTTTTTTTTTTTTTTTTTT MOQGAD      TELAPSE       56.93 TCPU     1094.95
 TTTTTTTTTTTTTTTTTTTTTTTTTTTTTT SHELLXN     TELAPSE       69.61 TCPU     1498.98
 TTTTTTTTTTTTTTTTTTTTTTTTTTTTTT MONMO3      TELAPSE       70.14 TCPU     1515.85
 NUMERICALLY INTEGRATED DENSITY    395.9999869830
 TTTTTTTTTTTTTTTTTTTTTTTTTTTTTT NUMDFT      TELAPSE       71.47 TCPU     1558.52
 CYC   2 ETOT(AU) -2.578013816940E+03 DETOT -3.88E-01 tst  2.90E-03 PX  1.61E-01
 TTTTTTTTTTTTTTTTTTTTTTTTTTTTTT DIIS        TELAPSE       71.62 TCPU     1563.35
 DIIS TEST: 0.93054E+00 AT SCF   CYCLE   2 - DIIS ACTIVE - HISTORY:     2 CYCLES
 TTTTTTTTTTTTTTTTTTTTTTTTTTTTTT FDIK        TELAPSE       73.48 TCPU     1622.59
 INSULATING STATE
 TOP OF VALENCE BANDS -    BAND    198; K    4; EIG -2.3696212E-01 AU
 TOP OF VALENCE BANDS -    BAND    198; K    1; EIG -2.3751248E-01 AU
 BOTTOM OF VIRTUAL BANDS - BAND    199; K    1; EIG -7.6303530E-02 AU
 INDIRECT ENERGY BAND GAP:   4.3717 eV
 TTTTTTTTTTTTTTTTTTTTTTTTTTTTTT PDIG        TELAPSE       74.93 TCPU     1629.42
 CHARGE NORMALIZATION FACTOR   1.00000000
 TOTAL ATOMIC CHARGES:
   4.4946105   4.5099953   4.4949894   4.5094528   4.4950850   4.5095644
   4.5093070   4.4949733   4.5091448   4.4947818   4.5096284   4.4943931
   0.8861195   0.8887263   0.8888976   0.8862655   0.8846075   0.8912494
   0.8914344   0.8846934   0.8822669   0.8843026   0.8846117   0.8823865
   0.8822966   0.8843232   0.8845568   0.8823332   0.8845929   0.8912662
   0.8914880   0.8847584   0.8861012   0.8887333   0.8888552   0.8862174
   5.9043565   5.8792294   6.1597457   6.1620077   6.1617924   6.1595575
   6.1691855   6.1515973   6.1511345   6.1684388   5.8787269   5.9040549
   5.8937395   5.8907304   6.1634199   6.1626216   6.1623249   6.1632906
   6.1635054   6.1626442   6.1622788   6.1631770   5.8900158   5.8932244
   5.9046351   5.8795189   6.1691220   6.1515260   6.1512588   6.1685780
   6.1596854   6.1618636   6.1618440   6.1595383   5.8784426   5.9038456
   8.5113326   8.5089889   8.5114606   8.5091752   8.5192060   8.5053631
   8.5092564   8.5115896   8.5055018   8.5191941   8.5094601   8.5118037
 TTTTTTTTTTTTTTTTTTTTTTTTTTTTTT MOQGAD      TELAPSE       75.01 TCPU     1629.50
 TTTTTTTTTTTTTTTTTTTTTTTTTTTTTT SHELLXN     TELAPSE       87.65 TCPU     2032.37
 TTTTTTTTTTTTTTTTTTTTTTTTTTTTTT MONMO3      TELAPSE       88.17 TCPU     2049.01
 NUMERICALLY INTEGRATED DENSITY    395.9999877417
 TTTTTTTTTTTTTTTTTTTTTTTTTTTTTT NUMDFT      TELAPSE       89.49 TCPU     2091.16
 CYC   3 ETOT(AU) -2.578205294740E+03 DETOT -1.91E-01 tst  6.20E-04 PX  6.87E-02
 TTTTTTTTTTTTTTTTTTTTTTTTTTTTTT DIIS        TELAPSE       89.66 TCPU     2096.63
 DIIS TEST: 0.29014E-01 AT SCF   CYCLE   3 - DIIS ACTIVE - HISTORY:     3 CYCLES
 TTTTTTTTTTTTTTTTTTTTTTTTTTTTTT FDIK        TELAPSE       91.52 TCPU     2155.90
 INSULATING STATE
 TOP OF VALENCE BANDS -    BAND    198; K    4; EIG -2.4531029E-01 AU
 TOP OF VALENCE BANDS -    BAND    198; K    1; EIG -2.4566443E-01 AU
 BOTTOM OF VIRTUAL BANDS - BAND    199; K    1; EIG -8.3744941E-02 AU
 INDIRECT ENERGY BAND GAP:   4.3964 eV
 TTTTTTTTTTTTTTTTTTTTTTTTTTTTTT PDIG        TELAPSE       92.95 TCPU     2162.71
 CHARGE NORMALIZATION FACTOR   1.00000000
 TOTAL ATOMIC CHARGES:
   4.5031891   4.5116858   4.5017666   4.5111269   4.5018540   4.5112407
   4.5110781   4.5016107   4.5109141   4.5014329   4.5114046   4.5029373
   0.8691563   0.8712918   0.8713716   0.8692111   0.8712207   0.8715804
   0.8715867   0.8712868   0.8674837   0.8703782   0.8703590   0.8676051
   0.8674959   0.8703913   0.8703063   0.8675605   0.8712220   0.8715982
   0.8716505   0.8713447   0.8691337   0.8712802   0.8713396   0.8691727
   5.9248262   5.9504449   6.1725398   6.1687280   6.1688539   6.1727591
   6.1486739   6.1801649   6.1808626   6.1495571   5.9523697   5.9265238
   5.9601283   5.9346028   6.1665404   6.1574883   6.1580482   6.1670028
   6.1665716   6.1575239   6.1580403   6.1669785   5.9366312   5.9618647
   5.9248500   5.9504968   6.1486019   6.1800734   6.1809298   6.1496573
   6.1724453   6.1686455   6.1689100   6.1727374   5.9523908   5.9265692
   8.4858120   8.4755489   8.4860663   8.4758086   8.4704610   8.4815455
   8.4755382   8.4857584   8.4815393   8.4706495   8.4758494   8.4861232
 TTTTTTTTTTTTTTTTTTTTTTTTTTTTTT MOQGAD      TELAPSE       93.03 TCPU     2162.80
 TTTTTTTTTTTTTTTTTTTTTTTTTTTTTT SHELLXN     TELAPSE      105.69 TCPU     2566.16
 TTTTTTTTTTTTTTTTTTTTTTTTTTTTTT MONMO3      TELAPSE      106.21 TCPU     2582.82
 NUMERICALLY INTEGRATED DENSITY    395.9999878618
 TTTTTTTTTTTTTTTTTTTTTTTTTTTTTT NUMDFT      TELAPSE      107.54 TCPU     2625.39
 CYC   4 ETOT(AU) -2.578210952910E+03 DETOT -5.66E-03 tst  2.96E-05 PX  1.69E-02
 TTTTTTTTTTTTTTTTTTTTTTTTTTTTTT DIIS        TELAPSE      107.73 TCPU     2631.53
 DIIS TEST: 0.10116E-01 AT SCF   CYCLE   4 - DIIS ACTIVE - HISTORY:     4 CYCLES
 TTTTTTTTTTTTTTTTTTTTTTTTTTTTTT FDIK        TELAPSE      109.57 TCPU     2690.12
 INSULATING STATE
 TOP OF VALENCE BANDS -    BAND    198; K    4; EIG -2.4466446E-01 AU
 TOP OF VALENCE BANDS -    BAND    198; K    1; EIG -2.4510732E-01 AU
 BOTTOM OF VIRTUAL BANDS - BAND    199; K    1; EIG -8.4383047E-02 AU
 INDIRECT ENERGY BAND GAP:   4.3615 eV
 TTTTTTTTTTTTTTTTTTTTTTTTTTTTTT PDIG        TELAPSE      111.02 TCPU     2696.95
 CHARGE NORMALIZATION FACTOR   1.00000000
 TOTAL ATOMIC CHARGES:
   4.5067390   4.5154751   4.5014241   4.5158574   4.5015066   4.5159643
   4.5158290   4.5014201   4.5156796   4.5012478   4.5152333   4.5065739
   0.8718856   0.8741212   0.8742444   0.8719862   0.8711589   0.8763543
   0.8765203   0.8713012   0.8687164   0.8709683   0.8711726   0.8688292
   0.8687260   0.8709743   0.8711277   0.8687890   0.8711477   0.8763672
   0.8765845   0.8713716   0.8718498   0.8741087   0.8742188   0.8719563
   5.9279566   5.9177508   6.1679685   6.1713752   6.1713321   6.1679926
   6.1686787   6.1620438   6.1617425   6.1681826   5.9178412   5.9281576
   5.9334892   5.9264078   6.1661817   6.1645774   6.1645292   6.1662243
   6.1662942   6.1646446   6.1644662   6.1661184   5.9265689   5.9337250
   5.9281507   5.9179589   6.1686311   6.1619944   6.1618038   6.1682630
   6.1679628   6.1713085   6.1713261   6.1679168   5.9176716   5.9280440
   8.4892981   8.4859287   8.4894689   8.4861521   8.4892707   8.4832215
   8.4860753   8.4894404   8.4832270   8.4891731   8.4863232   8.4897096
 TTTTTTTTTTTTTTTTTTTTTTTTTTTTTT MOQGAD      TELAPSE      111.10 TCPU     2697.03
 TTTTTTTTTTTTTTTTTTTTTTTTTTTTTT SHELLXN     TELAPSE      123.85 TCPU     3103.44
 TTTTTTTTTTTTTTTTTTTTTTTTTTTTTT MONMO3      TELAPSE      124.35 TCPU     3119.55
 NUMERICALLY INTEGRATED DENSITY    395.9999878645
 TTTTTTTTTTTTTTTTTTTTTTTTTTTTTT NUMDFT      TELAPSE      125.66 TCPU     3161.25
 CYC   5 ETOT(AU) -2.578213190319E+03 DETOT -2.24E-03 tst  1.28E-05 PX  8.74E-03
 TTTTTTTTTTTTTTTTTTTTTTTTTTTTTT DIIS        TELAPSE      125.88 TCPU     3168.13
 DIIS TEST: 0.82431E-03 AT SCF   CYCLE   5 - DIIS ACTIVE - HISTORY:     5 CYCLES
 TTTTTTTTTTTTTTTTTTTTTTTTTTTTTT FDIK        TELAPSE      127.72 TCPU     3226.72
 INSULATING STATE
 TOP OF VALENCE BANDS -    BAND    198; K    4; EIG -2.4384244E-01 AU
 TOP OF VALENCE BANDS -    BAND    198; K    1; EIG -2.4424911E-01 AU
 BOTTOM OF VIRTUAL BANDS - BAND    199; K    1; EIG -8.3467272E-02 AU
 INDIRECT ENERGY BAND GAP:   4.3640 eV
 TTTTTTTTTTTTTTTTTTTTTTTTTTTTTT PDIG        TELAPSE      129.18 TCPU     3233.54
 CHARGE NORMALIZATION FACTOR   1.00000000
 TOTAL ATOMIC CHARGES:
   4.5053458   4.5158117   4.5022071   4.5152414   4.5022913   4.5153509
   4.5151637   4.5020963   4.5150086   4.5019227   4.5155173   4.5051132
   0.8726700   0.8754130   0.8755292   0.8727628   0.8733283   0.8764850
   0.8765504   0.8734115   0.8702624   0.8729489   0.8730472   0.8703894
   0.8702779   0.8729633   0.8729949   0.8703450   0.8733228   0.8765006
   0.8766124   0.8734728   0.8726447   0.8754053   0.8754962   0.8727247
   5.9169018   5.9227604   6.1707966   6.1675355   6.1675102   6.1708371
   6.1577674   6.1724086   6.1727267   6.1580813   5.9237987   5.9178839
   5.9332939   5.9178331   6.1673199   6.1616900   6.1619202   6.1675379
   6.1673693   6.1617191   6.1619046   6.1674829   5.9187895   5.9341449
   5.9170214   5.9229006   6.1577018   6.1723293   6.1728102   6.1581956
   6.1707164   6.1674317   6.1675624   6.1708121   5.9237066   5.9178340
   8.4928084   8.4853897   8.4930177   8.4856232   8.4864991   8.4885007
   8.4854836   8.4928692   8.4885671   8.4866463   8.4857535   8.4931771
 TTTTTTTTTTTTTTTTTTTTTTTTTTTTTT MOQGAD      TELAPSE      129.27 TCPU     3233.62
 TTTTTTTTTTTTTTTTTTTTTTTTTTTTTT SHELLXN     TELAPSE      142.08 TCPU     3642.09
 TTTTTTTTTTTTTTTTTTTTTTTTTTTTTT MONMO3      TELAPSE      142.59 TCPU     3658.21
 NUMERICALLY INTEGRATED DENSITY    395.9999878323
 TTTTTTTTTTTTTTTTTTTTTTTTTTTTTT NUMDFT      TELAPSE      143.88 TCPU     3699.56
 CYC   6 ETOT(AU) -2.578213323806E+03 DETOT -1.33E-04 tst  3.40E-06 PX  2.99E-03
 TTTTTTTTTTTTTTTTTTTTTTTTTTTTTT DIIS        TELAPSE      144.12 TCPU     3706.42
 DIIS TEST: 0.37571E-03 AT SCF   CYCLE   6 - DIIS ACTIVE - HISTORY:     6 CYCLES
 TTTTTTTTTTTTTTTTTTTTTTTTTTTTTT FDIK        TELAPSE      145.93 TCPU     3764.11
 INSULATING STATE
 TOP OF VALENCE BANDS -    BAND    198; K    4; EIG -2.4408370E-01 AU
 TOP OF VALENCE BANDS -    BAND    198; K    1; EIG -2.4450721E-01 AU
 BOTTOM OF VIRTUAL BANDS - BAND    199; K    1; EIG -8.3548963E-02 AU
 INDIRECT ENERGY BAND GAP:   4.3684 eV
 TTTTTTTTTTTTTTTTTTTTTTTTTTTTTT PDIG        TELAPSE      147.38 TCPU     3770.95
 CHARGE NORMALIZATION FACTOR   1.00000000
 TOTAL ATOMIC CHARGES:
   4.5054836   4.5155988   4.5021046   4.5153667   4.5021894   4.5154757
   4.5153053   4.5020336   4.5151514   4.5018585   4.5153173   4.5052699
   0.8729670   0.8752923   0.8754056   0.8730573   0.8729249   0.8769797
   0.8770874   0.8730323   0.8700941   0.8727339   0.8728681   0.8702077
   0.8701073   0.8727447   0.8728196   0.8701649   0.8729174   0.8769951
   0.8771492   0.8730971   0.8729383   0.8752836   0.8753749   0.8730218
   5.9211118   5.9212087   6.1686654   6.1693305   6.1693258   6.1687329
   6.1620011   6.1675162   6.1675678   6.1619829   5.9219044   5.9218036
   5.9340449   5.9208432   6.1665857   6.1622574   6.1624091   6.1667722
   6.1666656   6.1623057   6.1623680   6.1666928   5.9215790   5.9347411
   5.9212587   5.9213743   6.1619409   6.1674459   6.1676460   6.1620842
   6.1686150   6.1692419   6.1693539   6.1686874   5.9217841   5.9217304
   8.4912557   8.4854517   8.4914499   8.4856822   8.4870203   8.4858385
   8.4855661   8.4913499   8.4858650   8.4870487   8.4858296   8.4916451
 TTTTTTTTTTTTTTTTTTTTTTTTTTTTTT MOQGAD      TELAPSE      147.46 TCPU     3771.03
 TTTTTTTTTTTTTTTTTTTTTTTTTTTTTT SHELLXN     TELAPSE      159.62 TCPU     4158.40
 TTTTTTTTTTTTTTTTTTTTTTTTTTTTTT MONMO3      TELAPSE      160.12 TCPU     4174.51
 NUMERICALLY INTEGRATED DENSITY    395.9999878402
 TTTTTTTTTTTTTTTTTTTTTTTTTTTTTT NUMDFT      TELAPSE      161.41 TCPU     4215.85
 CYC   7 ETOT(AU) -2.578213419447E+03 DETOT -9.56E-05 tst  6.75E-07 PX  1.32E-03
 TTTTTTTTTTTTTTTTTTTTTTTTTTTTTT DIIS        TELAPSE      161.68 TCPU     4222.75
 DIIS TEST: 0.29297E-05 AT SCF   CYCLE   7 - DIIS ACTIVE - HISTORY:     7 CYCLES
 TTTTTTTTTTTTTTTTTTTTTTTTTTTTTT FDIK        TELAPSE      163.49 TCPU     4280.52
 INSULATING STATE
 TOP OF VALENCE BANDS -    BAND    198; K    4; EIG -2.4408134E-01 AU
 TOP OF VALENCE BANDS -    BAND    198; K    1; EIG -2.4450257E-01 AU
 BOTTOM OF VIRTUAL BANDS - BAND    199; K    1; EIG -8.3589466E-02 AU
 INDIRECT ENERGY BAND GAP:   4.3672 eV
 TTTTTTTTTTTTTTTTTTTTTTTTTTTTTT PDIG        TELAPSE      164.92 TCPU     4287.33
 CHARGE NORMALIZATION FACTOR   1.00000000
 TOTAL ATOMIC CHARGES:
   4.5058132   4.5156767   4.5020720   4.5154197   4.5021561   4.5155283
   4.5153604   4.5020063   4.5152071   4.5018325   4.5154008   4.5056080
   0.8728391   0.8753490   0.8754677   0.8729341   0.8729544   0.8769005
   0.8770063   0.8730588   0.8701111   0.8726342   0.8727754   0.8702318
   0.8701250   0.8726456   0.8727259   0.8701885   0.8729466   0.8769153
   0.8770690   0.8731236   0.8728102   0.8753399   0.8754372   0.8728986
   5.9213944   5.9209317   6.1692691   6.1686734   6.1686425   6.1693062
   6.1616786   6.1678123   6.1678779   6.1616639   5.9215953   5.9220673
   5.9338379   5.9213384   6.1664213   6.1623235   6.1624400   6.1665677
   6.1664958   6.1623683   6.1624051   6.1664929   5.9219850   5.9344500
   5.9215431   5.9210984   6.1616206   6.1677450   6.1679518   6.1617636
   6.1692195   6.1685852   6.1686710   6.1692605   5.9214732   5.9219933
   8.4912047   8.4853653   8.4913994   8.4855956   8.4872355   8.4861223
   8.4854780   8.4912956   8.4861617   8.4872791   8.4857403   8.4915893
 TTTTTTTTTTTTTTTTTTTTTTTTTTTTTT MOQGAD      TELAPSE      165.01 TCPU     4287.42
 TTTTTTTTTTTTTTTTTTTTTTTTTTTTTT SHELLXN     TELAPSE      177.17 TCPU     4675.30
 TTTTTTTTTTTTTTTTTTTTTTTTTTTTTT MONMO3      TELAPSE      177.73 TCPU     4693.01
 NUMERICALLY INTEGRATED DENSITY    395.9999878408
 TTTTTTTTTTTTTTTTTTTTTTTTTTTTTT NUMDFT      TELAPSE      179.07 TCPU     4735.81
 CYC   8 ETOT(AU) -2.578213419326E+03 DETOT  1.21E-07 tst  9.93E-09 PX  1.73E-04
 TTTTTTTTTTTTTTTTTTTTTTTTTTTTTT DIIS        TELAPSE      179.35 TCPU     4742.72
 DIIS TEST: 0.10269E-05 AT SCF   CYCLE   8 - DIIS ACTIVE - HISTORY:     8 CYCLES
 TTTTTTTTTTTTTTTTTTTTTTTTTTTTTT FDIK        TELAPSE      181.20 TCPU     4801.35
 INSULATING STATE
 TOP OF VALENCE BANDS -    BAND    198; K    4; EIG -2.4408187E-01 AU
 TOP OF VALENCE BANDS -    BAND    198; K    1; EIG -2.4450401E-01 AU
 BOTTOM OF VIRTUAL BANDS - BAND    199; K    1; EIG -8.3587367E-02 AU
 INDIRECT ENERGY BAND GAP:   4.3673 eV
 TTTTTTTTTTTTTTTTTTTTTTTTTTTTTT PDIG        TELAPSE      182.64 TCPU     4808.17
 CHARGE NORMALIZATION FACTOR   1.00000000
 TOTAL ATOMIC CHARGES:
   4.5057805   4.5156744   4.5020860   4.5154458   4.5021701   4.5155544
   4.5153856   4.5020162   4.5152321   4.5018422   4.5153964   4.5055709
   0.8728739   0.8752984   0.8754147   0.8729668   0.8729313   0.8769012
   0.8770069   0.8730370   0.8700818   0.8726538   0.8727903   0.8701993
   0.8700952   0.8726649   0.8727413   0.8701563   0.8729237   0.8769163
   0.8770693   0.8731017   0.8728451   0.8752894   0.8753842   0.8729313
   5.9211384   5.9211157   6.1689747   6.1690025   6.1689834   6.1690255
   6.1617794   6.1677272   6.1677932   6.1617719   5.9218013   5.9218258
   5.9338140   5.9211411   6.1664833   6.1623104   6.1624478   6.1666515
   6.1665601   6.1623568   6.1624104   6.1665749   5.9218362   5.9344702
   5.9212858   5.9212815   6.1617203   6.1676585   6.1678690   6.1618723
   6.1689243   6.1689141   6.1690120   6.1689803   5.9216805   5.9217525
   8.4912434   8.4854272   8.4914380   8.4856576   8.4871938   8.4860437
   8.4855408   8.4913357   8.4860776   8.4872334   8.4858035   8.4916301
 TTTTTTTTTTTTTTTTTTTTTTTTTTTTTT MOQGAD      TELAPSE      182.72 TCPU     4808.26
 TTTTTTTTTTTTTTTTTTTTTTTTTTTTTT SHELLXN     TELAPSE      195.44 TCPU     5213.72
 +++ ENERGIES IN A.U. +++
 ::: EXT EL-POLE                                  -2.5829255432909E+03
 ::: EXT EL-SPHEROPOLE                             2.8589368349559E+01
 ::: BIELET ZONE E-E                               4.0193599756498E+03
 ::: TOTAL E-E                                     1.4650238007084E+03
 ::: TOTAL E-N + N-E                              -6.5894189634495E+03
 ::: TOTAL N-N                                     2.5372966546113E+02
 ::: KINETIC ENERGY                                2.5598898930224E+03
 ::: PSEUDO TOTAL   ENERGY                        -2.3107756042576E+03
 ::: VIRIAL COEFFICIENT                            1.0511458421655E+00
 TTTTTTTTTTTTTTTTTTTTTTTTTTTTTT MONMO3      TELAPSE      195.96 TCPU     5230.30
 NUMERICALLY INTEGRATED DENSITY    395.9999878412
 EXCHANGE ENERGY: -0.252057769573E+03  CORRELATION ENERGY: -0.153800457672E+02
 TTTTTTTTTTTTTTTTTTTTTTTTTTTTTT NUMDFT      TELAPSE      197.26 TCPU     5271.75
 CYC   9 ETOT(AU) -2.578213419598E+03 DETOT -2.71E-07 tst  2.46E-09 PX  1.73E-04

 == SCF ENDED - CONVERGENCE ON ENERGY      E(AU) -2.5782134195975E+03 CYCLES   9


 ENERGY EXPRESSION=HARTREE+FOCK EXCH*0.00000+(HSESOL     EXCH)*1.00000+PBESOL     CORR


 TOTAL ENERGY(DFT)(AU)(  9) -2.5782134195975E+03 DE-2.7E-07 tester 2.5E-09
 TTTTTTTTTTTTTTTTTTTTTTTTTTTTTT EDFT        TELAPSE      197.26 TCPU     5271.76
 
 INFORMATION **** DFTD3 ENERGY **** CALCULATE DFTD3 ENERGY

           DFT-D V3(BJ)
 DF                                         hsesol3c  
 parameters
 s6       :    1.0000
 s8       :    0.0000
 a1       :    0.5196
 a2       :    4.9385
 k1 k3    :   16.0000   -4.0000
 Cutoff   :   50.2022
 CN-Cutoff:   21.1671
 ABC-Cutoff:   21.1671
 
 Edisp /kcal,au:   -46.3663 -0.07388939

 E6    /kcal :   -48.9121
 E8    /kcal :     0.0000
 E6(ABC) "   :   2.545831
 
 INFORMATION **** DFTD3 ENERGY **** NORMAL TERMINATION OF DFTD3 MODULE

 GCP ENERGY CALCULATION
  level        hsesol3c            basis:hsesol3c
  Nbf            948
  Atoms           84

  Parameters: 
  sigma     1.0000
  eta       1.4281
  alpha     0.2936
  beta      1.9467

  dmp_scal      4.0000
  dmp_exp       6.0000
 cutoffs: 
   distance [bohr] 60.0
   noise    [a.u.] 2.2E-16
 SR-damping   T
 ** gCP correction **
  Egcp:        0.1659003482 / (a.u.) ||     104.1041 / (kcal/mol)
 INFORMATION **** GCP **** NORMAL TERMINATION OF GCP MODULE

 *******************************************************************************

 DFT-D3-GCP DISPERSION AND COUNTERPOISE CORRECTION

 D3 DISPERSION ENERGY (AU)      -7.3889387222168E-02
 GCP ENERGY (AU)                 1.6590034822883E-01
 TOTAL ENERGY + DISP + GCP (AU) -2.5781214086365E+03

 *******************************************************************************

 EIGENVECTORS IN FORTRAN UNIT 10
 TTTTTTTTTTTTTTTTTTTTTTTTTTTTTT END         TELAPSE      200.04 TCPU     5280.49
 EEEEEEEEEE TERMINATION  DATE 19 02 2026 TIME 20:28:21.5
