 Default number of threads is:           32

         
 *******************************************************************************
 *                                                                             *
 *                               CRYSTAL23                                     *
 *                      public : 1.0.1 - October 2022                          *
 *                       HTTP://WWW.CRYSTAL.UNITO.IT                           *
 *                                                                             *
 *                              MAIN AUTHORS                                   *
 *                                                                             *
 *  R. DOVESI(1,11), V.R. SAUNDERS(2), C. ROETTI(1,11), R. ORLANDO(1,11),      *
 *  C.M. ZICOVICH-WILSON(1,3), F. PASCALE(4), B. CIVALLERI(1,11),              *
 *  K. DOLL(5), N.M. HARRISON(6), I.J. BUSH(7), Ph. D'ARCO(8),                 *
 *  M. LLUNELL(9), M. CAUSA'(10), Y. NOEL(8), L. MASCHIO(1,11), A. ERBA(1,11)  *
 *  M. RE'RAT(14), S. CASASSA(1,11), B.G. SEARLE(2), J.K. DESMARAIS(1)         *
 *                                                                             *
 *        CONTRIBUTIONS TO THE CODE HAVE ALSO BEEN GIVEN BY                    *
 *                                                                             *
 *  M. FERRABONE(1,11), M. DE LA PIERRE(1,11), M. FERRERO(1,11),               *
 *  J. BAIMA(1,11), E. ALBANESE(1,11), M.F. PEINTINGER(12), R. BAST(13),       *
 *  B. KIRTMAN(15), V. LACIVITA(1,11), R. DEMICHELIS(1,16)                     *
 *  G. BRANDEBURG(17), S. SALUSTRO(1,11), G. SANSONE(1,11)                     *
 *  M.T. RUGGIERO(18), L.E. DAGA(1), L. DONA'(1), A. COSSARD(1)                *
 *                                                                             *
 * (1) THEORETICAL CHEMISTRY GROUP - UNIVERSITA' DI TORINO - TORINO (ITALY)    *
 * (2) SCIENTIFIC COMPUTING DEPARTMENT - STFC DARESBURY (UK)                   *
 * (3) UNIVERSIDAD AUTONOMA DEL ESTADO DE MORELOS - CUERNAVACA (MEXICO)        *
 * (4) UNIVERSITE' DE LORRAINE - NANCY (FRANCE)                                *
 * (5) UNIVERSITAET STUTTGART- STUTTGART (GERMANY)                             *
 * (6) IMPERIAL COLLEGE - LONDON (UK)                                          *
 * (7) SCIENTIFIC COMPUTING DEPARTMENT - STFC RAL (UK)                         *
 * (8) UPMC - SORBONNE UNIVERSITES - PARIS (FRANCE)                            *
 * (9) UNIVERSIDAD DE BARCELONA - BARCELONA (SPAIN)                            *
 *(10) UNIVERSITA' DI NAPOLI "FEDERICO II" - NAPOLI (ITALY)                    *
 *(11) NIS - NANOSTRUCTURED INTERFACES AND SURFACES - TORINO (ITALY)           *
 *(12) MPI FUER CHEMISCHE ENERGIEKONVERSION - MUELHEIM AN DER RUHR (GERMANY)   *
 *(13) UNIVERSITY OF TROMSO - TROMSO (NORWAY)                                  *
 *(14) UNIVERSITE' DE PAU ET DES PAYS DE L'ADOUR - PAU (FRANCE)                *
 *(15) UNIVERSITY OF CALIFORNIA SANTA BARBARA - SANTA BARBARA (USA)            *
 *(16) CURTIN UNIVERSITY - PERTH (AUSTRALIA)                                   *
 *(17) UNIVERSITY COLLEGE LONDON - LONDON (UK)                                 *
 *(18) UNIVERSITY OF VERMONT - BURLINGTON (USA)                                *
 *                                                                             *
 *******************************************************************************
 EEEEEEEEEE STARTING  DATE 19 02 2026 TIME 19:03:40.2
 cof-1_z39_L060_incl                                                             

 CRYSTAL CALCULATION
 (INPUT ACCORDING TO THE INTERNATIONAL TABLES FOR X-RAY CRYSTALLOGRAPHY)
 CRYSTAL FAMILY                       :  TRICLINIC   
 CRYSTAL CLASS  (GROTH - 1921)        :  TRICLINIC PEDIAL                     

 SPACE GROUP (NONCENTROSYMMETRIC)     :  P 1             

 LATTICE PARAMETERS  (ANGSTROMS AND DEGREES) - CONVENTIONAL CELL
        A           B           C        ALPHA        BETA       GAMMA
    15.02361    15.02392     7.15612    43.43624    89.99997   119.99596


 NUMBER OF IRREDUCIBLE ATOMS IN THE CONVENTIONAL CELL:   42

 INPUT COORDINATES

 ATOM AT. N.              COORDINATES
   1   5     4.981294000000E-01 -3.807560000000E-03  5.012202300000E-01
   2   5     6.571850500000E-01  1.552520900000E-01  5.012202500000E-01
   3   5     4.987188000000E-01  1.564223500000E-01  4.986450900000E-01
   4   5     1.117041000000E-01  3.825074400000E-01  5.012202400000E-01
   5   5     2.708120700000E-01  3.824866700000E-01  5.012202400000E-01
   6   5     2.713860300000E-01  5.428133300000E-01  4.986450900000E-01
   7   1     7.887232800000E-01  8.026613000000E-02  4.958814300000E-01
   8   1    -1.749760000000E-02  4.627659800000E-01  4.950650300000E-01
   9   1     7.888682600000E-01  3.658429100000E-01  4.949393800000E-01
  10   1    -1.737420000000E-02  1.774409700000E-01  4.949707200000E-01
  11   1     5.748151700000E-01 -1.354539700000E-01  5.041094800000E-01
  12   1     1.925242600000E-01  6.706027300000E-01  5.049259300000E-01
  13   1     2.894355500000E-01 -1.358425700000E-01  5.050516500000E-01
  14   1     4.778850400000E-01  6.704693200000E-01  5.050201000000E-01
  15   1     5.767523900000E-01  3.653902700000E-01  4.958814800000E-01
  16   1     1.948297100000E-01  1.773219000000E-01  4.950649800000E-01
  17   1     2.917374300000E-01  8.059378000000E-02  4.949392800000E-01
  18   1     4.801804700000E-01  4.627139100000E-01  4.949708200000E-01
  19   6     7.769545600000E-01  2.160488300000E-01  4.985508600000E-01
  20   6     8.321398100000E-01  1.640637800000E-01  4.960070600000E-01
  21   6    -6.091052000000E-02  3.785647800000E-01  4.957873200000E-01
  22   6     8.320014300000E-01  3.247675600000E-01  4.964468000000E-01
  23   6    -6.063337000000E-02  2.181073700000E-01  4.947509000000E-01
  24   6    -6.422020000000E-03  3.250965300000E-01  4.964781800000E-01
  25   6     4.384375900000E-01 -1.230587000000E-01  5.014400800000E-01
  26   6     4.909895900000E-01 -1.788442100000E-01  5.039838300000E-01
  27   6     2.765597300000E-01  7.141616400000E-01  5.042036600000E-01
  28   6     3.302006700000E-01 -1.785945600000E-01  5.035442000000E-01
  29   6     4.372389900000E-01  7.136441700000E-01  5.052399800000E-01
  30   6     3.298482500000E-01  6.598091400000E-01  5.035127600000E-01
  31   6     4.391091200000E-01  2.159796900000E-01  4.985508600000E-01
  32   6     4.928609100000E-01  3.249039000000E-01  4.960071100000E-01
  33   6     2.785247400000E-01  2.175515300000E-01  4.957872700000E-01
  34   6     3.318366000000E-01  1.637654000000E-01  4.964467300000E-01
  35   6     4.396832400000E-01  3.789553700000E-01  4.947509700000E-01
  36   6     3.315020700000E-01  3.250191300000E-01  4.964781800000E-01
  37   8     4.456199300000E-01  5.011373000000E-02  4.993359700000E-01
  38   8     6.033124400000E-01  4.761615000000E-02  5.047689200000E-01
  39   8     6.051997800000E-01  2.103409100000E-01  4.965724100000E-01
  40   8     1.652077600000E-01  4.893942000000E-01  4.993359900000E-01
  41   8     1.639747100000E-01  3.279334400000E-01  5.047689100000E-01
  42   8     3.247842100000E-01  4.906528800000E-01  4.965723900000E-01

 *******************************************************************************

 << INFORMATION >>: FROM NOW ON, ALL COORDINATES REFER TO THE PRIMITIVE CELL

 *******************************************************************************

 LATTICE PARAMETERS  (ANGSTROMS AND DEGREES) - PRIMITIVE CELL
       A          B          C        ALPHA      BETA     GAMMA        VOLUME
   15.02361   15.02392    7.15612    43.43624  89.99997 119.99596    762.384977

 COORDINATES OF THE EQUIVALENT ATOMS (FRACTIONAL UNITS)

 N. ATOM EQUIV AT. N.          X                  Y                  Z

   1   1   1    5 B     4.98129400000E-01 -3.80756000000E-03 -4.98779770000E-01

   2   2   1    5 B    -3.42814950000E-01  1.55252090000E-01 -4.98779750000E-01

   3   3   1    5 B     4.98718800000E-01  1.56422350000E-01  4.98645090000E-01

   4   4   1    5 B     1.11704100000E-01  3.82507440000E-01 -4.98779760000E-01

   5   5   1    5 B     2.70812070000E-01  3.82486670000E-01 -4.98779760000E-01

   6   6   1    5 B     2.71386030000E-01 -4.57186670000E-01  4.98645090000E-01

   7   7   1    1 H    -2.11276720000E-01  8.02661300000E-02  4.95881430000E-01

   8   8   1    1 H    -1.74976000000E-02  4.62765980000E-01  4.95065030000E-01

   9   9   1    1 H    -2.11131740000E-01  3.65842910000E-01  4.94939380000E-01

  10  10   1    1 H    -1.73742000000E-02  1.77440970000E-01  4.94970720000E-01

  11  11   1    1 H    -4.25184830000E-01 -1.35453970000E-01 -4.95890520000E-01

  12  12   1    1 H     1.92524260000E-01 -3.29397270000E-01 -4.95074070000E-01

  13  13   1    1 H     2.89435550000E-01 -1.35842570000E-01 -4.94948350000E-01

  14  14   1    1 H     4.77885040000E-01 -3.29530680000E-01 -4.94979900000E-01

  15  15   1    1 H    -4.23247610000E-01  3.65390270000E-01  4.95881480000E-01

  16  16   1    1 H     1.94829710000E-01  1.77321900000E-01  4.95064980000E-01

  17  17   1    1 H     2.91737430000E-01  8.05937800000E-02  4.94939280000E-01

  18  18   1    1 H     4.80180470000E-01  4.62713910000E-01  4.94970820000E-01

  19  19   1    6 C    -2.23045440000E-01  2.16048830000E-01  4.98550860000E-01

  20  20   1    6 C    -1.67860190000E-01  1.64063780000E-01  4.96007060000E-01

  21  21   1    6 C    -6.09105200000E-02  3.78564780000E-01  4.95787320000E-01

  22  22   1    6 C    -1.67998570000E-01  3.24767560000E-01  4.96446800000E-01

  23  23   1    6 C    -6.06333700000E-02  2.18107370000E-01  4.94750900000E-01

  24  24   1    6 C    -6.42202000000E-03  3.25096530000E-01  4.96478180000E-01

  25  25   1    6 C     4.38437590000E-01 -1.23058700000E-01 -4.98559920000E-01

  26  26   1    6 C     4.90989590000E-01 -1.78844210000E-01 -4.96016170000E-01

  27  27   1    6 C     2.76559730000E-01 -2.85838360000E-01 -4.95796340000E-01

  28  28   1    6 C     3.30200670000E-01 -1.78594560000E-01 -4.96455800000E-01

  29  29   1    6 C     4.37238990000E-01 -2.86355830000E-01 -4.94760020000E-01

  30  30   1    6 C     3.29848250000E-01 -3.40190860000E-01 -4.96487240000E-01

  31  31   1    6 C     4.39109120000E-01  2.15979690000E-01  4.98550860000E-01

  32  32   1    6 C     4.92860910000E-01  3.24903900000E-01  4.96007110000E-01

  33  33   1    6 C     2.78524740000E-01  2.17551530000E-01  4.95787270000E-01

  34  34   1    6 C     3.31836600000E-01  1.63765400000E-01  4.96446730000E-01

  35  35   1    6 C     4.39683240000E-01  3.78955370000E-01  4.94750970000E-01

  36  36   1    6 C     3.31502070000E-01  3.25019130000E-01  4.96478180000E-01

  37  37   1    8 O     4.45619930000E-01  5.01137300000E-02  4.99335970000E-01

  38  38   1    8 O    -3.96687560000E-01  4.76161500000E-02 -4.95231080000E-01

  39  39   1    8 O    -3.94800220000E-01  2.10340910000E-01  4.96572410000E-01

  40  40   1    8 O     1.65207760000E-01  4.89394200000E-01  4.99335990000E-01

  41  41   1    8 O     1.63974710000E-01  3.27933440000E-01 -4.95231090000E-01

  42  42   1    8 O     3.24784210000E-01  4.90652880000E-01  4.96572390000E-01

 NUMBER OF SYMMETRY OPERATORS         :    1
 *******************************************************************************
 * GEOMETRY EDITING - INPUT COORDINATES ARE GIVEN IN ANGSTROM         
 *******************************************************************************

 GCALCO - MAX INDICES DIRECT LATTICE VECTOR     9    13    25
 NO.OF VECTORS CREATED 6999 STARS 3500 RMAX   208.52836 BOHR

 GEOMETRY FOR WAVE FUNCTION - DIMENSIONALITY OF THE SYSTEM    3
 (NON PERIODIC DIRECTION: LATTICE PARAMETER FORMALLY SET TO 500)
 *******************************************************************************
 LATTICE PARAMETERS (ANGSTROMS AND DEGREES) - BOHR = 0.5291772083 ANGSTROM
 PRIMITIVE CELL - CENTRING CODE 1/0 VOLUME=   762.384977 - DENSITY  0.850 g/cm^3
         A              B              C           ALPHA      BETA       GAMMA 
    15.02361100    15.02391600     7.15611600    43.436241  89.999969 119.995964
 *******************************************************************************
 ATOMS IN THE ASYMMETRIC UNIT   42 - ATOMS IN THE UNIT CELL:   42
     ATOM                 X/A                 Y/B                 Z/C    
 *******************************************************************************
      1 T   5 B     4.981294000000E-01 -3.807560000000E-03 -4.987797700000E-01
      2 T   5 B    -3.428149500000E-01  1.552520900000E-01 -4.987797500000E-01
      3 T   5 B     4.987188000000E-01  1.564223500000E-01  4.986450900000E-01
      4 T   5 B     1.117041000000E-01  3.825074400000E-01 -4.987797600000E-01
      5 T   5 B     2.708120700000E-01  3.824866700000E-01 -4.987797600000E-01
      6 T   5 B     2.713860300000E-01 -4.571866700000E-01  4.986450900000E-01
      7 T   1 H    -2.112767200000E-01  8.026613000000E-02  4.958814300000E-01
      8 T   1 H    -1.749760000000E-02  4.627659800000E-01  4.950650300000E-01
      9 T   1 H    -2.111317400000E-01  3.658429100000E-01  4.949393800000E-01
     10 T   1 H    -1.737420000000E-02  1.774409700000E-01  4.949707200000E-01
     11 T   1 H    -4.251848300000E-01 -1.354539700000E-01 -4.958905200000E-01
     12 T   1 H     1.925242600000E-01 -3.293972700000E-01 -4.950740700000E-01
     13 T   1 H     2.894355500000E-01 -1.358425700000E-01 -4.949483500000E-01
     14 T   1 H     4.778850400000E-01 -3.295306800000E-01 -4.949799000000E-01
     15 T   1 H    -4.232476100000E-01  3.653902700000E-01  4.958814800000E-01
     16 T   1 H     1.948297100000E-01  1.773219000000E-01  4.950649800000E-01
     17 T   1 H     2.917374300000E-01  8.059378000000E-02  4.949392800000E-01
     18 T   1 H     4.801804700000E-01  4.627139100000E-01  4.949708200000E-01
     19 T   6 C    -2.230454400000E-01  2.160488300000E-01  4.985508600000E-01
     20 T   6 C    -1.678601900000E-01  1.640637800000E-01  4.960070600000E-01
     21 T   6 C    -6.091052000000E-02  3.785647800000E-01  4.957873200000E-01
     22 T   6 C    -1.679985700000E-01  3.247675600000E-01  4.964468000000E-01
     23 T   6 C    -6.063337000000E-02  2.181073700000E-01  4.947509000000E-01
     24 T   6 C    -6.422020000000E-03  3.250965300000E-01  4.964781800000E-01
     25 T   6 C     4.384375900000E-01 -1.230587000000E-01 -4.985599200000E-01
     26 T   6 C     4.909895900000E-01 -1.788442100000E-01 -4.960161700000E-01
     27 T   6 C     2.765597300000E-01 -2.858383600000E-01 -4.957963400000E-01
     28 T   6 C     3.302006700000E-01 -1.785945600000E-01 -4.964558000000E-01
     29 T   6 C     4.372389900000E-01 -2.863558300000E-01 -4.947600200000E-01
     30 T   6 C     3.298482500000E-01 -3.401908600000E-01 -4.964872400000E-01
     31 T   6 C     4.391091200000E-01  2.159796900000E-01  4.985508600000E-01
     32 T   6 C     4.928609100000E-01  3.249039000000E-01  4.960071100000E-01
     33 T   6 C     2.785247400000E-01  2.175515300000E-01  4.957872700000E-01
     34 T   6 C     3.318366000000E-01  1.637654000000E-01  4.964467300000E-01
     35 T   6 C     4.396832400000E-01  3.789553700000E-01  4.947509700000E-01
     36 T   6 C     3.315020700000E-01  3.250191300000E-01  4.964781800000E-01
     37 T   8 O     4.456199300000E-01  5.011373000000E-02  4.993359700000E-01
     38 T   8 O    -3.966875600000E-01  4.761615000000E-02 -4.952310800000E-01
     39 T   8 O    -3.948002200000E-01  2.103409100000E-01  4.965724100000E-01
     40 T   8 O     1.652077600000E-01  4.893942000000E-01  4.993359900000E-01
     41 T   8 O     1.639747100000E-01  3.279334400000E-01 -4.952310900000E-01
     42 T   8 O     3.247842100000E-01  4.906528800000E-01  4.965723900000E-01

 T = ATOM BELONGING TO THE ASYMMETRIC UNIT

 ****    1 SYMMOPS - TRANSLATORS IN FRACTIONAL UNITS
 **** MATRICES AND TRANSLATORS IN THE CRYSTALLOGRAPHIC REFERENCE FRAME
   V INV                    ROTATION MATRICES                   TRANSLATORS
   1   1  1.00 -0.00  0.00  0.00  1.00  0.00 -0.00  0.00  1.00  0.00  0.00  0.00

 DIRECT LATTICE VECTORS CARTESIAN COMPONENTS (ANGSTROM)
          X                    Y                    Z
   0.130113578931E+02  -0.751088897922E+01   0.000000000000E+00
   0.000000000000E+00   0.150239160000E+02   0.000000000000E+00
   0.299962562732E+01   0.519634154112E+01   0.390003549848E+01


 CARTESIAN COORDINATES - PRIMITIVE CELL
 *******************************************************************************
 *      ATOM          X(ANGSTROM)         Y(ANGSTROM)         Z(ANGSTROM)
 *******************************************************************************
    1     5 B     1.985561692645E+00  3.437145337874E+00 -5.845294307405E+00
    2     5 B    -5.956640526031E+00  2.315509454057E+00 -1.945258730923E+00
    3     5 B    -2.026974880032E+00 -1.121300575951E+00  5.844769050624E+00
    4     5 B    -4.273052726522E-02  2.315932567555E+00 -1.945258769924E+00
    5     5 B     2.027480214042E+00  1.120578222441E+00 -1.945258769924E+00
    6     5 B     2.027223727085E+00  3.511620186084E+00 -1.955301946338E+00
    7     1 H    -4.261164000174E+00  1.732153156385E-01 -1.966080318443E+00
    8     1 H    -1.742283412014E+00  4.460165182007E+00 -1.969264307424E+00
    9     1 H    -1.262477783503E+00 -5.369861731207E+00  1.930281151596E+00
   10     1 H    -1.740960705143E+00  1.720492883967E-01 -1.969632119772E+00
   11     1 H    -4.020092278643E+00  3.777992018825E+00  1.966044867121E+00
   12     1 H     4.019590809485E+00 -3.771097672529E+00  1.969229051104E+00
   13     1 H     5.280915400486E+00 -1.590384774288E+00  1.969719363566E+00
   14     1 H    -5.278553371605E+00  1.594963167934E+00  1.969596317446E+00
   15     1 H    -4.019567335567E+00 -3.778587932879E+00  1.933955375039E+00
   16     1 H     1.020383058885E+00 -1.423089811093E+00 -1.969264502426E+00
   17     1 H     2.280907033463E+00 -3.604841267092E+00 -1.969754736888E+00
   18     1 H     4.732901477551E+00  7.208886082033E-01 -1.969631729769E+00
   19     6 C    -4.406283737398E+00  2.315468014039E+00 -1.955669446683E+00
   20     6 C    -3.695879146901E+00  1.106740249931E+00 -1.965590356984E+00
   21     6 C    -2.304977851722E+00  3.524956314023E+00 -1.966447350784E+00
   22     6 C    -3.696360603233E+00  3.524464737580E+00 -1.963875355374E+00
   23     6 C    -2.304480625875E+00  1.106790429425E+00 -1.970489425576E+00
   24     6 C    -1.593936155806E+00  2.315986687729E+00 -1.963752972260E+00
   25     6 C     1.209549657145E+00  2.095007201176E+00 -5.844436884601E+00
   26     6 C     1.900952834831E+00  8.753963410787E-01 -5.834516169302E+00
   27     6 C    -8.884114088858E-01  8.796264030372E-01 -5.833658824498E+00
   28     6 C    -1.924480739420E-01  2.084530321284E+00 -5.836230741908E+00
   29     6 C     1.205352520996E+00 -3.296070332321E-01 -5.829617139710E+00
   30     6 C    -1.971278449204E-01 -3.407953013103E-01 -5.836353359024E+00
   31     6 C     4.209246223281E+00 -2.658940126755E+00 -1.955669446683E+00
   32     6 C     4.900999702674E+00 -1.439413866268E+00 -1.965590161982E+00
   33     6 C     2.111535647679E+00 -1.443554042173E+00 -1.966447545786E+00
   34     6 C     2.807173471200E+00 -2.648625023601E+00 -1.963875628376E+00
   35     6 C     4.205318056650E+00 -2.344648782314E-01 -1.970489152573E+00
   36     6 C     2.802915119870E+00 -2.232864867623E-01 -1.963752972260E+00
   37     8 O    -2.715790899966E+00 -2.316062586971E+00  5.847463507149E+00
   38     8 O    -6.646951653899E+00  1.121467426983E+00 -1.931418791951E+00
   39     8 O    -6.477300044940E-01 -1.121769832033E+00  5.836685525047E+00
   40     8 O     6.477726969949E-01  3.510139014517E+00 -1.952607411812E+00
   41     8 O     6.480257682081E-01  1.121858728522E+00 -1.931418830951E+00
   42     8 O     2.715789233865E+00  2.316127707977E+00 -1.963385549915E+00

 *******************************************************************************
 STARTING BASIS SET HANDLING 
 *******************************************************************************

 Loading internal basis set: SOLDEF2MSVP         

 Please cite in your publication:
 L. Dona', J. G. Brandenburg and B. Civalleri, J. Chem. Phys., 151, 121101 (2019
 )                                                                              
                                                                                
                    

 *******************************************************************************
 LOCAL ATOMIC FUNCTIONS BASIS SET
 *******************************************************************************
   ATOM   X(AU)   Y(AU)   Z(AU)  N. TYPE  EXPONENT  S COEF   P COEF   D/F/G COEF
 *******************************************************************************
   1 B    3.752   6.495 -11.046
                                  1 S  
                                         2.410E+03 1.755E-03 0.000E+00 0.000E+00
                                         3.619E+02 1.344E-02 0.000E+00 0.000E+00
                                         8.231E+01 6.637E-02 0.000E+00 0.000E+00
                                         2.311E+01 2.303E-01 0.000E+00 0.000E+00
                                         7.252E+00 5.150E-01 0.000E+00 0.000E+00
                                  2 S  
                                         2.367E+00 1.000E+00 0.000E+00 0.000E+00
                                  3 S  
                                         5.533E-01 1.000E+00 0.000E+00 0.000E+00
                                  4 S  
                                         1.716E-01 1.000E+00 0.000E+00 0.000E+00
                           5-     7 P  
                                         6.002E+00 0.000E+00-3.555E-02 0.000E+00
                                         1.240E+00 0.000E+00-1.983E-01 0.000E+00
                                         3.367E-01 0.000E+00-5.048E-01 0.000E+00
                           8-    10 P  
                                         1.256E-01 0.000E+00 1.000E+00 0.000E+00
                          11-    15 D  
                                         8.880E-01 0.000E+00 0.000E+00 1.000E+00
   2 B  -11.256   4.376  -3.676
   3 B   -3.830  -2.119  11.045
   4 B   -0.081   4.376  -3.676
   5 B    3.831   2.118  -3.676
   6 B    3.831   6.636  -3.695
   7 H   -8.052   0.327  -3.715
                                 91 S  
                                         1.874E+01 1.968E-02 0.000E+00 0.000E+00
                                         2.826E+00 1.380E-01 0.000E+00 0.000E+00
                                         6.401E-01 4.783E-01 0.000E+00 0.000E+00
                                 92 S  
                                         1.756E-01 1.000E+00 0.000E+00 0.000E+00
   8 H   -3.292   8.428  -3.721
   9 H   -2.386 -10.148   3.648
  10 H   -3.290   0.325  -3.722
  11 H   -7.597   7.139   3.715
  12 H    7.596  -7.126   3.721
  13 H    9.979  -3.005   3.722
  14 H   -9.975   3.014   3.722
  15 H   -7.596  -7.140   3.655
  16 H    1.928  -2.689  -3.721
  17 H    4.310  -6.812  -3.722
  18 H    8.944   1.362  -3.722
  19 C   -8.327   4.376  -3.696
                                115 S  
                                         3.624E+03 1.634E-03 0.000E+00 0.000E+00
                                         5.440E+02 1.252E-02 0.000E+00 0.000E+00
                                         1.237E+02 6.211E-02 0.000E+00 0.000E+00
                                         3.476E+01 2.182E-01 0.000E+00 0.000E+00
                                         1.093E+01 4.980E-01 0.000E+00 0.000E+00
                                116 S  
                                         3.574E+00 1.000E+00 0.000E+00 0.000E+00
                                117 S  
                                         7.742E-01 1.000E+00 0.000E+00 0.000E+00
                                118 S  
                                         2.330E-01 1.000E+00 0.000E+00 0.000E+00
                         119-   121 P  
                                         9.443E+00 0.000E+00 3.790E-02 0.000E+00
                                         2.002E+00 0.000E+00 2.082E-01 0.000E+00
                                         5.463E-01 0.000E+00 5.047E-01 0.000E+00
                         122-   124 P  
                                         1.820E-01 0.000E+00 1.000E+00 0.000E+00
                         125-   129 D  
                                         8.880E-01 0.000E+00 0.000E+00 1.000E+00
  20 C   -6.984   2.091  -3.714
  21 C   -4.356   6.661  -3.716
  22 C   -6.985   6.660  -3.711
  23 C   -4.355   2.092  -3.724
  24 C   -3.012   4.377  -3.711
  25 C    2.286   3.959 -11.044
  26 C    3.592   1.654 -11.026
  27 C   -1.679   1.662 -11.024
  28 C   -0.364   3.939 -11.029
  29 C    2.278  -0.623 -11.016
  30 C   -0.373  -0.644 -11.029
  31 C    7.954  -5.025  -3.696
  32 C    9.262  -2.720  -3.714
  33 C    3.990  -2.728  -3.716
  34 C    5.305  -5.005  -3.711
  35 C    7.947  -0.443  -3.724
  36 C    5.297  -0.422  -3.711
  37 O   -5.132  -4.377  11.050
                                385 S  
                                         6.773E+03 1.727E-03 0.000E+00 0.000E+00
                                         1.017E+03 1.325E-02 0.000E+00 0.000E+00
                                         2.313E+02 6.603E-02 0.000E+00 0.000E+00
                                         6.501E+01 2.353E-01 0.000E+00 0.000E+00
                                         2.050E+01 5.498E-01 0.000E+00 0.000E+00
                                386 S  
                                         6.716E+00 1.000E+00 0.000E+00 0.000E+00
                                387 S  
                                         1.147E+00 1.000E+00 0.000E+00 0.000E+00
                                388 S  
                                         3.342E-01 1.000E+00 0.000E+00 0.000E+00
                         389-   391 P  
                                         1.769E+01 0.000E+00 4.359E-02 0.000E+00
                                         3.854E+00 0.000E+00 2.318E-01 0.000E+00
                                         1.047E+00 0.000E+00 5.146E-01 0.000E+00
                         392-   394 P  
                                         2.759E-01 0.000E+00 1.000E+00 0.000E+00
                         395-   399 D  
                                         8.000E-01 0.000E+00 0.000E+00 1.000E+00
  38 O  -12.561   2.119  -3.650
  39 O   -1.224  -2.120  11.030
  40 O    1.224   6.633  -3.690
  41 O    1.225   2.120  -3.650
  42 O    5.132   4.377  -3.710

 *******************************************************************************
 FINISHED BASIS SET HANDLING 
 *******************************************************************************

 INFORMATION **** SET_MPP **** PCRYSTAL CALCULATION
 INFORMATION **** READM2 **** NEW DEFAULT: FOCK/KS MATRIX MIXING SET TO 30 %
 INFORMATION **** READM2 **** NEW DEFAULT: FULL DIRECT SCF MODE
 INFORMATION **** READM2 **** NEW DEFAULT: COULOMB BIPOLAR BUFFER SET TO 32 Mb
 INFORMATION **** READM2 **** NEW DEFAULT: EXCHANGE BIPOLAR BUFFER SET TO 32 Mb

 *******************************************************************************
 NEW DEFAULT: DFT INTEGRATION GRID INCREASED TO XLGRID
 NEW DEFAULT: DIIS ACCELERATOR ACTIVE
 USE KEYWORD NODIIS TO TURN IT OFF
 *******************************************************************************

 WARNING **** RDDFTP **** HSEsol-HJS ACTIVE
 RANGE SEPARATION - OMEGA:   0.110000000000000     
 WARNING **** RDDFTP **** HSEsol-3c has to be combined with sol-def2-mSVP basis set
 *******************************************************************************
 N. OF ATOMS PER CELL        42  COULOMB OVERLAP TOL         (T1) 10**   -6
 NUMBER OF SHELLS           234  COULOMB PENETRATION TOL     (T2) 10**   -6
 NUMBER OF AO               474  EXCHANGE OVERLAP TOL        (T3) 10**   -6
 N. OF ELECTRONS PER CELL   198  EXCHANGE PSEUDO OVP (F(G))  (T4) 10**   -6
 CORE ELECTRONS PER CELL     60  EXCHANGE PSEUDO OVP (P(G))  (T5) 10**  -12
 N. OF SYMMETRY OPERATORS     1  POLE ORDER IN MONO ZONE                  4
 *******************************************************************************
 TYPE OF CALCULATION :  RESTRICTED CLOSED SHELL
 KOHN-SHAM HAMILTONIAN

 (EXCHANGE)[CORRELATION] FUNCTIONAL:(HSEsol GGA)[PBEsol]

 RANGE-SEPARATED HYBRID FUNCTIONAL 
 OMEGA (SHORT-RANGE)[LONG-RANGE]:(    0.1100)[    0.0000]

 HYBRID EXCHANGE - PERCENTAGE OF FOCK EXCHANGE    25.0000

 CAPPA:IS1  2;IS2  2;IS3  8; K PTS MONK NET  20; SYMMOPS:K SPACE   2;G SPACE   1

 *******************************************************************************
 MAX NUMBER OF SCF CYCLES      50  CONVERGENCE ON DELTAP        10**-16
 WEIGHT OF F(I) IN F(I+1)      30% CONVERGENCE ON ENERGY        10**- 6
 SHRINK. FACT.(MONKH.)    2  2  8  NUMBER OF K POINTS IN THE IBZ     20
 SHRINKING FACTOR(GILAT NET)    8  NUMBER OF K POINTS(GILAT NET)   1028
 *******************************************************************************
 *** K POINTS COORDINATES (OBLIQUE COORDINATES IN UNITS OF IS =  2)
   1-R(  0  0  0)   2-R(  1  0  0)   3-R(  0  1  0)   4-R(  1  1  0)
   5-C(  0  0  1)   6-C(  1  0  1)   7-C(  0  1  1)   8-C(  1  1  1)
   9-C(  0  0  2)  10-C(  1  0  2)  11-C(  0  1  2)  12-C(  1  1  2)
  13-C(  0  0  3)  14-C(  1  0  3)  15-C(  0  1  3)  16-C(  1  1  3)
  17-R(  0  0  4)  18-R(  1  0  4)  19-R(  0  1  4)  20-R(  1  1  4)

 DIRECT LATTICE VECTORS COMPON. (A.U.)     RECIP. LATTICE VECTORS COMPON. (A.U.) 
        X            Y            Z              X            Y            Z
   24.5879030  -14.1935232    0.0000000      0.2555397    0.0000000   -0.1965427
    0.0000000   28.3910867    0.0000000      0.1277517    0.2213084   -0.3931249
    5.6684709    9.8196624    7.3699990      0.0000000    0.0000000    0.8525354

 DISK SPACE FOR EIGENVECTORS (FTN 10)     7189632 REALS

 SYMMETRY ADAPTION OF THE BLOCH FUNCTIONS DISABLED
 TTTTTTTTTTTTTTTTTTTTTTTTTTTTTT gordsh1     TELAPSE        0.04 TCPU        0.04

 MATRIX SIZE: P(G)  304014, F(G)   61464, P(G) IRR  153246, F(G) IRR   61980
 MAX G-VECTOR INDEX FOR 1- AND 2-ELECTRON INTEGRALS  67

 TTTTTTTTTTTTTTTTTTTTTTTTTTTTTT INPUT       TELAPSE        0.39 TCPU        0.39

 NEIGHBORS OF THE NON-EQUIVALENT ATOMS

 N = NUMBER OF NEIGHBORS AT DISTANCE R
    ATOM  N     R/ANG      R/AU   NEIGHBORS (ATOM LABELS AND CELL INDICES)
   1 B    1     1.3791     2.6061   37 O    1 2-3
   1 B    1     1.3793     2.6065   38 O    1 1-1
   1 B    1     1.5503     2.9297   25 C    0 0 0
   1 B    1     2.3895     4.5155    3 B    1 2-3
   1 B    1     2.3898     4.5160    2 B    1 1-1
   1 B    1     2.5632     4.8437   26 C    0 0 0

   2 B    1     1.3793     2.6065   39 O    0 1-2
   2 B    1     1.3793     2.6065   38 O    0 0 0
   2 B    1     1.5504     2.9298   19 C    0 0 0
   2 B    1     2.3895     4.5156    3 B    0 1-2
   2 B    1     2.3898     4.5160    1 B   -1-1 1
   2 B    1     2.5634     4.8440   22 C    0 0 0

   3 B    1     1.3791     2.6061   37 O    0 0 0
   3 B    1     1.3793     2.6064   39 O    0 0 0
   3 B    1     1.5502     2.9294   31 C   -1-1 2
   3 B    1     2.3895     4.5155    1 B   -1-2 3
   3 B    1     2.3895     4.5156    2 B    0-1 2
   3 B    1     2.5629     4.8433   32 C   -1-1 2

   4 B    1     1.3795     2.6068   40 O    0 0 0
   4 B    1     1.3795     2.6070   41 O    0 0 0
   4 B    1     1.5513     2.9316   24 C    0 0 0
   4 B    1     2.3905     4.5174    6 B    0 0 0
   4 B    1     2.3905     4.5175    5 B    0 0 0
   4 B    1     2.5648     4.8468   23 C    0 0 0

   5 B    1     1.3795     2.6069   41 O    0 0 0
   5 B    1     1.3797     2.6072   42 O    0 0 0
   5 B    1     1.5516     2.9322   36 C    0 0 0
   5 B    1     2.3905     4.5175    4 B    0 0 0
   5 B    1     2.3911     4.5185    6 B    0 0 0
   5 B    1     2.5651     4.8473   35 C    0 0 0

   6 B    1     1.3795     2.6068   40 O    0 0 0
   6 B    1     1.3796     2.6071   42 O    0 0 0
   6 B    1     1.5516     2.9322   30 C    0 0 1
   6 B    1     2.3905     4.5174    4 B    0 0 0
   6 B    1     2.3911     4.5185    5 B    0 0 0
   6 B    1     2.5651     4.8473   29 C    0 0 1

   7 H    1     1.0913     2.0623   20 C    0 0 0
   7 H    1     2.1472     4.0576   19 C    0 0 0
   7 H    1     2.1680     4.0969   23 C    0 0 0
   7 H    1     2.5202     4.7625   10 H    0 0 0
   7 H    1     2.5676     4.8520   38 O    0 0 0
   7 H    1     2.7321     5.1630    2 B    0 0 0

   8 H    1     1.0914     2.0625   21 C    0 0 0
   8 H    1     2.1493     4.0616   24 C    0 0 0
   8 H    1     2.1666     4.0942   22 C    0 0 0
   8 H    1     2.5198     4.7618    9 H    0 1-1
   8 H    1     2.5720     4.8604   40 O    0 0 0
   8 H    1     2.7362     5.1707    4 B    0 0 0

   9 H    1     1.0914     2.0624   22 C    0-1 1
   9 H    1     2.1471     4.0575   19 C    0-1 1
   9 H    1     2.1680     4.0970   21 C    0-1 1
   9 H    1     2.5198     4.7618    8 H    0-1 1
   9 H    1     2.5665     4.8500   39 O    0 0-1
   9 H    1     2.7315     5.1618    2 B    0-1 1

  10 H    1     1.0915     2.0626   23 C    0 0 0
  10 H    1     2.1490     4.0610   24 C    0 0 0
  10 H    1     2.1669     4.0948   20 C    0 0 0
  10 H    1     2.5202     4.7625    7 H    0 0 0
  10 H    1     2.5712     4.8588   41 O    0 0 0
  10 H    1     2.7351     5.1686    4 B    0 0 0

  11 H    1     1.0913     2.0623   26 C   -1-1 2
  11 H    1     2.1469     4.0571   25 C   -1-1 2
  11 H    1     2.1680     4.0968   29 C   -1-1 2
  11 H    1     2.5198     4.7617   14 H    0 0 0
  11 H    1     2.5670     4.8510   38 O    0 0 1
  11 H    1     2.7310     5.1609    1 B   -1-1 2

  12 H    1     1.0914     2.0625   27 C    0-1 2
  12 H    1     2.1493     4.0617   30 C    0-1 2
  12 H    1     2.1664     4.0939   28 C    0-1 2
  12 H    1     2.5192     4.7606   13 H    0 0 0
  12 H    1     2.5735     4.8632   40 O    0-1 1
  12 H    1     2.7371     5.1723    6 B    0-1 1

  13 H    1     1.0914     2.0624   28 C    0-1 2
  13 H    1     2.1475     4.0581   25 C    0-1 2
  13 H    1     2.1679     4.0967   27 C    0-1 2
  13 H    1     2.5192     4.7606   12 H    0 0 0
  13 H    1     2.5675     4.8519   37 O    1 1-1
  13 H    1     2.7328     5.1643    1 B    0-1 2

  14 H    1     1.0914     2.0625   29 C   -1-1 2
  14 H    1     2.1491     4.0612   30 C   -1-1 2
  14 H    1     2.1666     4.0942   26 C   -1-1 2
  14 H    1     2.5198     4.7617   11 H    0 0 0
  14 H    1     2.5723     4.8609   42 O   -1-1 1
  14 H    1     2.7355     5.1693    6 B   -1-1 1

  15 H    1     1.0914     2.0624   32 C   -1-1 1
  15 H    1     2.1475     4.0582   31 C   -1-1 1
  15 H    1     2.1678     4.0966   35 C   -1-1 1
  15 H    1     2.5200     4.7621   18 H   -1-1 1
  15 H    1     2.5667     4.8503   39 O    0 0-1
  15 H    1     2.7315     5.1618    3 B    0 0-1

  16 H    1     1.0913     2.0623   33 C    0 0 0
  16 H    1     2.1487     4.0605   36 C    0 0 0
  16 H    1     2.1667     4.0945   34 C    0 0 0
  16 H    1     2.5197     4.7616   17 H    0 0 0
  16 H    1     2.5723     4.8610   41 O    0 0 0
  16 H    1     2.7359     5.1701    5 B    0 0 0

  17 H    1     1.0915     2.0626   34 C    0 0 0
  17 H    1     2.1479     4.0589   31 C    0 0 0
  17 H    1     2.1679     4.0968   33 C    0 0 0
  17 H    1     2.5197     4.7616   16 H    0 0 0
  17 H    1     2.5677     4.8522   37 O    1 1-2
  17 H    1     2.7331     5.1648    3 B    1 1-2

  18 H    1     1.0914     2.0624   35 C    0 0 0
  18 H    1     2.1486     4.0602   36 C    0 0 0
  18 H    1     2.1668     4.0947   32 C    0 0 0
  18 H    1     2.5200     4.7621   15 H    1 1-1
  18 H    1     2.5717     4.8598   42 O    0 0 0
  18 H    1     2.7349     5.1682    5 B    0 0 0

  19 C    1     1.4020     2.6495   22 C    0 0 0
  19 C    1     1.4021     2.6495   20 C    0 0 0
  19 C    1     1.5504     2.9298    2 B    0 0 0
  19 C    1     2.1471     4.0575    9 H    0 1-1
  19 C    1     2.1472     4.0576    7 H    0 0 0
  19 C    1     2.4246     4.5817   21 C    0 0 0

  20 C    1     1.0913     2.0623    7 H    0 0 0
  20 C    1     1.3914     2.6294   23 C    0 0 0
  20 C    1     1.4021     2.6495   19 C    0 0 0
  20 C    1     2.1669     4.0948   10 H    0 0 0
  20 C    1     2.4177     4.5688   22 C    0 0 0
  20 C    1     2.4250     4.5825   24 C    0 0 0

  21 C    1     1.0914     2.0625    8 H    0 0 0
  21 C    1     1.3914     2.6293   22 C    0 0 0
  21 C    1     1.4026     2.6505   24 C    0 0 0
  21 C    1     2.1680     4.0970    9 H    0 1-1
  21 C    1     2.4182     4.5697   23 C    0 0 0
  21 C    1     2.4246     4.5817   19 C    0 0 0

  22 C    1     1.0914     2.0624    9 H    0 1-1
  22 C    1     1.3914     2.6293   21 C    0 0 0
  22 C    1     1.4020     2.6495   19 C    0 0 0
  22 C    1     2.1666     4.0942    8 H    0 0 0
  22 C    1     2.4177     4.5688   20 C    0 0 0
  22 C    1     2.4250     4.5826   24 C    0 0 0

  23 C    1     1.0915     2.0626   10 H    0 0 0
  23 C    1     1.3914     2.6294   20 C    0 0 0
  23 C    1     1.4025     2.6504   24 C    0 0 0
  23 C    1     2.1680     4.0969    7 H    0 0 0
  23 C    1     2.4182     4.5697   21 C    0 0 0
  23 C    1     2.4246     4.5818   19 C    0 0 0

  24 C    1     1.4025     2.6504   23 C    0 0 0
  24 C    1     1.4026     2.6505   21 C    0 0 0
  24 C    1     1.5513     2.9316    4 B    0 0 0
  24 C    1     2.1490     4.0610   10 H    0 0 0
  24 C    1     2.1493     4.0616    8 H    0 0 0
  24 C    1     2.4250     4.5825   20 C    0 0 0

  25 C    1     1.4020     2.6494   26 C    0 0 0
  25 C    1     1.4021     2.6495   28 C    0 0 0
  25 C    1     1.5503     2.9297    1 B    0 0 0
  25 C    1     2.1469     4.0571   11 H    1 1-2
  25 C    1     2.1475     4.0581   13 H    0 1-2
  25 C    1     2.4246     4.5818   27 C    0 0 0

  26 C    1     1.0913     2.0623   11 H    1 1-2
  26 C    1     1.3914     2.6293   29 C    0 0 0
  26 C    1     1.4020     2.6494   25 C    0 0 0
  26 C    1     2.1666     4.0942   14 H    1 1-2
  26 C    1     2.4175     4.5684   28 C    0 0 0
  26 C    1     2.4251     4.5828   30 C    0 0 0

  27 C    1     1.0914     2.0625   12 H    0 1-2
  27 C    1     1.3915     2.6295   28 C    0 0 0
  27 C    1     1.4026     2.6505   30 C    0 0 0
  27 C    1     2.1679     4.0967   13 H    0 1-2
  27 C    1     2.4179     4.5691   29 C    0 0 0
  27 C    1     2.4246     4.5818   25 C    0 0 0

  28 C    1     1.0914     2.0624   13 H    0 1-2
  28 C    1     1.3915     2.6295   27 C    0 0 0
  28 C    1     1.4021     2.6495   25 C    0 0 0
  28 C    1     2.1664     4.0939   12 H    0 1-2
  28 C    1     2.4175     4.5684   26 C    0 0 0
  28 C    1     2.4253     4.5832   30 C    0 0 0

  29 C    1     1.0914     2.0625   14 H    1 1-2
  29 C    1     1.3914     2.6293   26 C    0 0 0
  29 C    1     1.4025     2.6504   30 C    0 0 0
  29 C    1     2.1680     4.0968   11 H    1 1-2
  29 C    1     2.4179     4.5691   27 C    0 0 0
  29 C    1     2.4247     4.5819   25 C    0 0 0

  30 C    1     1.4025     2.6504   29 C    0 0 0
  30 C    1     1.4026     2.6505   27 C    0 0 0
  30 C    1     1.5516     2.9322    6 B    0 0-1
  30 C    1     2.1491     4.0612   14 H    1 1-2
  30 C    1     2.1493     4.0617   12 H    0 1-2
  30 C    1     2.4251     4.5828   26 C    0 0 0

  31 C    1     1.4021     2.6496   32 C    0 0 0
  31 C    1     1.4021     2.6497   34 C    0 0 0
  31 C    1     1.5502     2.9294    3 B    1 1-2
  31 C    1     2.1475     4.0582   15 H    1 1-1
  31 C    1     2.1479     4.0589   17 H    0 0 0
  31 C    1     2.4244     4.5814   33 C    0 0 0

  32 C    1     1.0914     2.0624   15 H    1 1-1
  32 C    1     1.3914     2.6293   35 C    0 0 0
  32 C    1     1.4021     2.6496   31 C    0 0 0
  32 C    1     2.1668     4.0947   18 H    0 0 0
  32 C    1     2.4179     4.5692   34 C    0 0 0
  32 C    1     2.4251     4.5827   36 C    0 0 0

  33 C    1     1.0913     2.0623   16 H    0 0 0
  33 C    1     1.3914     2.6294   34 C    0 0 0
  33 C    1     1.4025     2.6504   36 C    0 0 0
  33 C    1     2.1679     4.0968   17 H    0 0 0
  33 C    1     2.4178     4.5690   35 C    0 0 0
  33 C    1     2.4244     4.5814   31 C    0 0 0

  34 C    1     1.0915     2.0626   17 H    0 0 0
  34 C    1     1.3914     2.6294   33 C    0 0 0
  34 C    1     1.4021     2.6497   31 C    0 0 0
  34 C    1     2.1667     4.0945   16 H    0 0 0
  34 C    1     2.4179     4.5692   32 C    0 0 0
  34 C    1     2.4253     4.5832   36 C    0 0 0

  35 C    1     1.0914     2.0624   18 H    0 0 0
  35 C    1     1.3914     2.6293   32 C    0 0 0
  35 C    1     1.4025     2.6503   36 C    0 0 0
  35 C    1     2.1678     4.0966   15 H    1 1-1
  35 C    1     2.4178     4.5690   33 C    0 0 0
  35 C    1     2.4245     4.5817   31 C    0 0 0

  36 C    1     1.4025     2.6503   35 C    0 0 0
  36 C    1     1.4025     2.6504   33 C    0 0 0
  36 C    1     1.5516     2.9322    5 B    0 0 0
  36 C    1     2.1486     4.0602   18 H    0 0 0
  36 C    1     2.1487     4.0605   16 H    0 0 0
  36 C    1     2.4251     4.5827   32 C    0 0 0

  37 O    1     1.3791     2.6061    3 B    0 0 0
  37 O    1     1.3791     2.6061    1 B   -1-2 3
  37 O    1     2.3880     4.5126   38 O    0-1 2
  37 O    1     2.3882     4.5130   39 O    0 0 0
  37 O    1     2.5383     4.7966   31 C   -1-1 2
  37 O    1     2.5384     4.7968   25 C   -1-2 3

  38 O    1     1.3793     2.6065    1 B   -1-1 1
  38 O    1     1.3793     2.6065    2 B    0 0 0
  38 O    1     2.3880     4.5126   37 O    0 1-2
  38 O    1     2.3882     4.5131   39 O    0 1-2
  38 O    1     2.5391     4.7981   19 C    0 0 0
  38 O    1     2.5395     4.7990   25 C   -1-1 1

  39 O    1     1.3793     2.6064    3 B    0 0 0
  39 O    1     1.3793     2.6065    2 B    0-1 2
  39 O    1     2.3882     4.5130   37 O    0 0 0
  39 O    1     2.3882     4.5131   38 O    0-1 2
  39 O    1     2.5390     4.7980   19 C    0-1 2
  39 O    1     2.5391     4.7982   31 C   -1-1 2

  40 O    1     1.3795     2.6068    6 B    0 0 0
  40 O    1     1.3795     2.6068    4 B    0 0 0
  40 O    1     2.3880     4.5126   42 O    0 0 0
  40 O    1     2.3884     4.5134   41 O    0 0 0
  40 O    1     2.5400     4.7998   24 C    0 0 0
  40 O    1     2.5403     4.8005   30 C    0 0 1

  41 O    1     1.3795     2.6069    5 B    0 0 0
  41 O    1     1.3795     2.6070    4 B    0 0 0
  41 O    1     2.3881     4.5128   42 O    0 0 0
  41 O    1     2.3884     4.5134   40 O    0 0 0
  41 O    1     2.5404     4.8006   24 C    0 0 0
  41 O    1     2.5405     4.8008   36 C    0 0 0

  42 O    1     1.3796     2.6071    6 B    0 0 0
  42 O    1     1.3797     2.6072    5 B    0 0 0
  42 O    1     2.3880     4.5126   40 O    0 0 0
  42 O    1     2.3881     4.5128   41 O    0 0 0
  42 O    1     2.5409     4.8016   36 C    0 0 0
  42 O    1     2.5410     4.8019   30 C    0 0 1


 SYMMETRY ALLOWED INTERNAL DEGREE(S) OF FREEDOM: 123
 TTTTTTTTTTTTTTTTTTTTTTTTTTTTTT SYMM        TELAPSE        0.39 TCPU        0.39
 TTTTTTTTTTTTTTTTTTTTTTTTTTTTTT INT_SCREEN  TELAPSE        0.43 TCPU        0.42

 DFT PARAMETERS

     ATOM       ELECTRONS   NET CHARGE   R(ANGSTROM)
   1   5  B       5.0000      0.0000     0.89000000
   7   1  H       1.0000      0.0000     1.11000000
  19   6  C       6.0000      0.0000     0.77000000
  37   8  O       8.0000      0.0000     0.74000000

 SIZE OF GRID=    1317240
 TTTTTTTTTTTTTTTTTTTTTTTTTTTTTT MAKE_GRID2  TELAPSE        8.56 TCPU        8.55
 BECKE WEIGHT FUNCTION
 RADSAFE =     2.00
 TOLERANCES - DENSITY:10**- 6; POTENTIAL:10**- 9; GRID WGT:10**-14

 RADIAL INTEGRATION  - INTERVALS (POINTS,UPPER LIMIT):            1( 75,  4.0*R)

 ANGULAR INTEGRATION - INTERVALS (ACCURACY LEVEL [N. POINTS] UPPER LIMIT):
  1(  4[  86]   0.2)  2(  8[ 194]   0.5)  3( 12[ 350]   0.9)  4( 16[ 974]   3.5)
  5( 12[ 350]9999.0)
 TTTTTTTTTTTTTTTTTTTTTTTTTTTTTT INT_CALC    TELAPSE        8.64 TCPU        8.63
 EEEEEEEEEE INT_CALC TERMINATION  DATE 19 02 2026 TIME 19:03:48.9

 *******************************************************************************
 cof-1_z39_L060_incl                                                             
 CRYSTAL - SCF - TYPE OF CALCULATION :  RESTRICTED CLOSED SHELL
 *******************************************************************************

 CAPPA:IS1  2;IS2  2;IS3  8; K PTS MONK NET  20; SYMMOPS:K SPACE   2;G SPACE   1

 TTTTTTTTTTTTTTTTTTTTTTTTTTTTTT SDIK        TELAPSE        9.48 TCPU       17.23

 AAAAAAAAAAAAAAAAAAAAAAAAAAAAAAAAAAAAAAAAAAAAAAAAAAAAAAAAAAAAAAAAAAAAAAAAAAAAAAA
         ATOMIC WAVEFUNCTION(S)


 NUCLEAR CHARGE  5.0  SYMMETRY SPECIES            S    P
 N. ELECTRONS    5.0  NUMBER OF PRIMITIVE GTOS    8    4
                      NUMBER OF CONTRACTED GTOS   4    2
                      NUMBER OF CLOSED SHELLS     2    0
                      OPEN SHELL OCCUPATION       0    1

  ZNUC  SCFIT    TOTAL HF ENERGY   KINETIC ENERGY   VIRIAL THEOREM ACCURACY
   5.0    11    -2.451164084E+01  2.462155050E+01 -1.995536038E+00  1.5E-06

 NUCLEAR CHARGE  1.0  SYMMETRY SPECIES            S
 N. ELECTRONS    1.0  NUMBER OF PRIMITIVE GTOS    4
                      NUMBER OF CONTRACTED GTOS   2
                      NUMBER OF CLOSED SHELLS     0
                      OPEN SHELL OCCUPATION       1

  ZNUC  SCFIT    TOTAL HF ENERGY   KINETIC ENERGY   VIRIAL THEOREM ACCURACY
   1.0     1    -4.977266687E-01  5.190767460E-01 -1.958869132E+00  0.0E+00

 NUCLEAR CHARGE  6.0  SYMMETRY SPECIES            S    P
 N. ELECTRONS    6.0  NUMBER OF PRIMITIVE GTOS    8    4
                      NUMBER OF CONTRACTED GTOS   4    2
                      NUMBER OF CLOSED SHELLS     2    0
                      OPEN SHELL OCCUPATION       0    2

  ZNUC  SCFIT    TOTAL HF ENERGY   KINETIC ENERGY   VIRIAL THEOREM ACCURACY
   6.0     9    -3.766704647E+01  3.775180683E+01 -1.997754800E+00  1.1E-06

 NUCLEAR CHARGE  8.0  SYMMETRY SPECIES            S    P
 N. ELECTRONS    8.0  NUMBER OF PRIMITIVE GTOS    8    4
                      NUMBER OF CONTRACTED GTOS   4    2
                      NUMBER OF CLOSED SHELLS     2    0
                      OPEN SHELL OCCUPATION       0    4

  ZNUC  SCFIT    TOTAL HF ENERGY   KINETIC ENERGY   VIRIAL THEOREM ACCURACY
   8.0    12    -7.477373220E+01  7.477365593E+01 -2.000001020E+00  3.8E-06

 AAAAAAAAAAAAAAAAAAAAAAAAAAAAAAAAAAAAAAAAAAAAAAAAAAAAAAAAAAAAAAAAAAAAAAAAAAAAAAA

 CHARGE NORMALIZATION FACTOR   1.00000000
 TOTAL ATOMIC CHARGES:
   5.0000000   5.0000000   5.0000000   5.0000000   5.0000000   5.0000000
   1.0000000   1.0000000   1.0000000   1.0000000   1.0000000   1.0000000
   1.0000000   1.0000000   1.0000000   1.0000000   1.0000000   1.0000000
   6.0000000   6.0000000   6.0000000   6.0000000   6.0000000   6.0000000
   6.0000000   6.0000000   6.0000000   6.0000000   6.0000000   6.0000000
   6.0000000   6.0000000   6.0000000   6.0000000   6.0000000   6.0000000
   8.0000000   8.0000000   8.0000000   8.0000000   8.0000000   8.0000000
 TTTTTTTTTTTTTTTTTTTTTTTTTTTTTT MOQGAD      TELAPSE        9.57 TCPU       18.69
 TTTTTTTTTTTTTTTTTTTTTTTTTTTTTT SHELLXN     TELAPSE       16.06 TCPU      215.37
 TTTTTTTTTTTTTTTTTTTTTTTTTTTTTT MONMO3      TELAPSE       16.20 TCPU      219.79
 NUMERICALLY INTEGRATED DENSITY    197.9999574186
 TTTTTTTTTTTTTTTTTTTTTTTTTTTTTT NUMDFT      TELAPSE       16.78 TCPU      238.23
 CYC   0 ETOT(AU) -1.295956772953E+03 DETOT -1.30E+03 tst  0.00E+00 PX  1.00E+00
 TTTTTTTTTTTTTTTTTTTTTTTTTTTTTT DIIS        TELAPSE       16.82 TCPU      239.37
 TTTTTTTTTTTTTTTTTTTTTTTTTTTTTT FDIK        TELAPSE       17.31 TCPU      255.07
 INSULATING STATE
 TOP OF VALENCE BANDS -    BAND     99; K    1; EIG -3.1257500E-01 AU
 BOTTOM OF VIRTUAL BANDS - BAND    100; K   17; EIG -1.6045693E-01 AU
 INDIRECT ENERGY BAND GAP:   4.1393 eV
 BOTTOM OF VIRTUAL BANDS - BAND    100; K    1; EIG -1.5552002E-01 AU
 TTTTTTTTTTTTTTTTTTTTTTTTTTTTTT PDIG        TELAPSE       17.63 TCPU      261.25
 CHARGE NORMALIZATION FACTOR   1.00000000
 TOTAL ATOMIC CHARGES:
   4.1537089   4.1663912   4.1666894   4.1660494   4.1657772   4.1532598
   0.7852219   0.7853480   0.7849729   0.7850862   0.7854940   0.7856934
   0.7854814   0.7856417   0.7849666   0.7851534   0.7851740   0.7853447
   6.0436498   6.2657820   6.2658021   6.2653604   6.2654234   6.0430728
   6.0448662   6.2640034   6.2641796   6.2639319   6.2641601   6.0436519
   6.0440350   6.2651284   6.2657910   6.2653979   6.2660822   6.0426322
   8.6935932   8.6938448   8.6925919   8.6941202   8.6930738   8.6943715
 TTTTTTTTTTTTTTTTTTTTTTTTTTTTTT MOQGAD      TELAPSE       17.68 TCPU      261.30
 TTTTTTTTTTTTTTTTTTTTTTTTTTTTTT SHELLXN     TELAPSE       24.09 TCPU      465.61
 TTTTTTTTTTTTTTTTTTTTTTTTTTTTTT MONMO3      TELAPSE       24.23 TCPU      470.01
 NUMERICALLY INTEGRATED DENSITY    197.9999752043
 TTTTTTTTTTTTTTTTTTTTTTTTTTTTTT NUMDFT      TELAPSE       24.81 TCPU      488.64
 CYC   1 ETOT(AU) -1.288816559116E+03 DETOT  7.14E+00 tst  0.00E+00 PX  1.00E+00
 TTTTTTTTTTTTTTTTTTTTTTTTTTTTTT DIIS        TELAPSE       24.86 TCPU      490.15
 DIIS TEST: 0.11057E+01 AT SCF   CYCLE   1 - MIX   30 %
 TTTTTTTTTTTTTTTTTTTTTTTTTTTTTT FDIK        TELAPSE       25.35 TCPU      506.05
 INSULATING STATE
 TOP OF VALENCE BANDS -    BAND     99; K    1; EIG -2.2539945E-01 AU
 BOTTOM OF VIRTUAL BANDS - BAND    100; K   17; EIG -8.5967408E-02 AU
 INDIRECT ENERGY BAND GAP:   3.7941 eV
 BOTTOM OF VIRTUAL BANDS - BAND    100; K    1; EIG -7.7320789E-02 AU
 TTTTTTTTTTTTTTTTTTTTTTTTTTTTTT PDIG        TELAPSE       25.67 TCPU      512.22
 CHARGE NORMALIZATION FACTOR   1.00000000
 TOTAL ATOMIC CHARGES:
   4.7054708   4.7028534   4.7032674   4.7029596   4.7028277   4.7059450
   0.9085227   0.9086072   0.9124239   0.9123452   0.9023922   0.9024167
   0.9025003   0.9023312   0.9123529   0.9124401   0.9085746   0.9085683
   5.8665790   6.1417333   6.1425067   6.1336851   6.1339081   5.8689528
   5.8879617   6.1307198   6.1313599   6.1310928   6.1309998   5.8913177
   5.8664242   6.1335799   6.1340800   6.1421840   6.1418823   5.8689880
   8.3357357   8.3360443   8.3311737   8.3357141   8.3306899   8.3358879
 TTTTTTTTTTTTTTTTTTTTTTTTTTTTTT MOQGAD      TELAPSE       25.72 TCPU      512.27
 TTTTTTTTTTTTTTTTTTTTTTTTTTTTTT SHELLXN     TELAPSE       32.13 TCPU      716.61
 TTTTTTTTTTTTTTTTTTTTTTTTTTTTTT MONMO3      TELAPSE       32.27 TCPU      721.02
 NUMERICALLY INTEGRATED DENSITY    197.9999717238
 TTTTTTTTTTTTTTTTTTTTTTTTTTTTTT NUMDFT      TELAPSE       32.85 TCPU      739.63
 CYC   2 ETOT(AU) -1.289011070719E+03 DETOT -1.95E-01 tst  3.71E-03 PX  1.59E-01
 TTTTTTTTTTTTTTTTTTTTTTTTTTTTTT DIIS        TELAPSE       32.90 TCPU      741.25
 DIIS TEST: 0.45638E+00 AT SCF   CYCLE   2 - DIIS ACTIVE - HISTORY:     2 CYCLES
 TTTTTTTTTTTTTTTTTTTTTTTTTTTTTT FDIK        TELAPSE       33.40 TCPU      757.13
 INSULATING STATE
 TOP OF VALENCE BANDS -    BAND     99; K    1; EIG -2.3766885E-01 AU
 BOTTOM OF VIRTUAL BANDS - BAND    100; K   17; EIG -8.1009587E-02 AU
 INDIRECT ENERGY BAND GAP:   4.2629 eV
 BOTTOM OF VIRTUAL BANDS - BAND    100; K    1; EIG -7.3158068E-02 AU
 TTTTTTTTTTTTTTTTTTTTTTTTTTTTTT PDIG        TELAPSE       33.73 TCPU      763.31
 CHARGE NORMALIZATION FACTOR   1.00000000
 TOTAL ATOMIC CHARGES:
   4.4948230   4.5013769   4.5016600   4.5012814   4.5010042   4.4949791
   0.8874271   0.8876806   0.8903504   0.8902373   0.8817530   0.8820341
   0.8818958   0.8818967   0.8902282   0.8903666   0.8875468   0.8875449
   5.8931361   6.1611931   6.1609898   6.1588863   6.1587968   5.8930421
   5.8938943   6.1632446   6.1627683   6.1630843   6.1628638   5.8931987
   5.8931935   6.1589287   6.1588700   6.1608817   6.1611573   5.8929566
   8.5116844   8.5120906   8.5132696   8.5120030   8.5134261   8.5123537
 TTTTTTTTTTTTTTTTTTTTTTTTTTTTTT MOQGAD      TELAPSE       33.77 TCPU      763.35
 TTTTTTTTTTTTTTTTTTTTTTTTTTTTTT SHELLXN     TELAPSE       40.18 TCPU      967.66
 TTTTTTTTTTTTTTTTTTTTTTTTTTTTTT MONMO3      TELAPSE       40.32 TCPU      972.06
 NUMERICALLY INTEGRATED DENSITY    197.9999714062
 TTTTTTTTTTTTTTTTTTTTTTTTTTTTTT NUMDFT      TELAPSE       40.90 TCPU      990.70
 CYC   3 ETOT(AU) -1.289105315113E+03 DETOT -9.42E-02 tst  7.07E-04 PX  6.48E-02
 TTTTTTTTTTTTTTTTTTTTTTTTTTTTTT DIIS        TELAPSE       40.96 TCPU      992.54
 DIIS TEST: 0.13803E-01 AT SCF   CYCLE   3 - DIIS ACTIVE - HISTORY:     3 CYCLES
 TTTTTTTTTTTTTTTTTTTTTTTTTTTTTT FDIK        TELAPSE       41.46 TCPU     1008.41
 INSULATING STATE
 TOP OF VALENCE BANDS -    BAND     99; K    1; EIG -2.4799963E-01 AU
 BOTTOM OF VIRTUAL BANDS - BAND    100; K   17; EIG -8.9605679E-02 AU
 INDIRECT ENERGY BAND GAP:   4.3101 eV
 BOTTOM OF VIRTUAL BANDS - BAND    100; K    1; EIG -8.0993194E-02 AU
 TTTTTTTTTTTTTTTTTTTTTTTTTTTTTT PDIG        TELAPSE       41.77 TCPU     1014.58
 CHARGE NORMALIZATION FACTOR   1.00000000
 TOTAL ATOMIC CHARGES:
   4.5009981   4.5057461   4.5060524   4.5056458   4.5053827   4.5011996
   0.8701226   0.8702312   0.8731854   0.8731020   0.8645685   0.8646316
   0.8646498   0.8645582   0.8731330   0.8731916   0.8701710   0.8701828
   5.9374124   6.1711031   6.1717346   6.1658111   6.1662288   5.9390060
   5.9513275   6.1661234   6.1667718   6.1664151   6.1664019   5.9533587
   5.9375593   6.1655796   6.1665394   6.1713054   6.1713586   5.9388225
   8.4797033   8.4799226   8.4755686   8.4798148   8.4754237   8.4799553
 TTTTTTTTTTTTTTTTTTTTTTTTTTTTTT MOQGAD      TELAPSE       41.82 TCPU     1014.62
 TTTTTTTTTTTTTTTTTTTTTTTTTTTTTT SHELLXN     TELAPSE       48.23 TCPU     1219.00
 TTTTTTTTTTTTTTTTTTTTTTTTTTTTTT MONMO3      TELAPSE       48.37 TCPU     1223.43
 NUMERICALLY INTEGRATED DENSITY    197.9999720144
 TTTTTTTTTTTTTTTTTTTTTTTTTTTTTT NUMDFT      TELAPSE       48.95 TCPU     1242.05
 CYC   4 ETOT(AU) -1.289108243824E+03 DETOT -2.93E-03 tst  2.76E-05 PX  1.38E-02
 TTTTTTTTTTTTTTTTTTTTTTTTTTTTTT DIIS        TELAPSE       49.01 TCPU     1244.00
 DIIS TEST: 0.40521E-02 AT SCF   CYCLE   4 - DIIS ACTIVE - HISTORY:     4 CYCLES
 TTTTTTTTTTTTTTTTTTTTTTTTTTTTTT FDIK        TELAPSE       49.51 TCPU     1259.87
 INSULATING STATE
 TOP OF VALENCE BANDS -    BAND     99; K    1; EIG -2.4597495E-01 AU
 BOTTOM OF VIRTUAL BANDS - BAND    100; K   17; EIG -8.9250424E-02 AU
 INDIRECT ENERGY BAND GAP:   4.2647 eV
 BOTTOM OF VIRTUAL BANDS - BAND    100; K    1; EIG -8.0882055E-02 AU
 TTTTTTTTTTTTTTTTTTTTTTTTTTTTTT PDIG        TELAPSE       49.83 TCPU     1266.04
 CHARGE NORMALIZATION FACTOR   1.00000000
 TOTAL ATOMIC CHARGES:
   4.5039277   4.5073831   4.5077205   4.5073787   4.5071140   4.5041957
   0.8733094   0.8735087   0.8764326   0.8763743   0.8675404   0.8677645
   0.8676700   0.8676465   0.8763328   0.8764984   0.8734059   0.8734105
   5.9214455   6.1701091   6.1701439   6.1657508   6.1656021   5.9216511
   5.9307282   6.1675378   6.1671910   6.1674411   6.1672253   5.9309028
   5.9214152   6.1657325   6.1657238   6.1699353   6.1701481   5.9216203
   8.4887646   8.4891464   8.4879778   8.4889845   8.4879083   8.4893005
 TTTTTTTTTTTTTTTTTTTTTTTTTTTTTT MOQGAD      TELAPSE       49.88 TCPU     1266.09
 TTTTTTTTTTTTTTTTTTTTTTTTTTTTTT SHELLXN     TELAPSE       56.28 TCPU     1470.41
 TTTTTTTTTTTTTTTTTTTTTTTTTTTTTT MONMO3      TELAPSE       56.42 TCPU     1474.81
 NUMERICALLY INTEGRATED DENSITY    197.9999719401
 TTTTTTTTTTTTTTTTTTTTTTTTTTTTTT NUMDFT      TELAPSE       57.01 TCPU     1493.43
 CYC   5 ETOT(AU) -1.289109173142E+03 DETOT -9.29E-04 tst  6.95E-06 PX  6.61E-03
 TTTTTTTTTTTTTTTTTTTTTTTTTTTTTT DIIS        TELAPSE       57.07 TCPU     1495.66
 DIIS TEST: 0.59122E-04 AT SCF   CYCLE   5 - DIIS ACTIVE - HISTORY:     5 CYCLES
 TTTTTTTTTTTTTTTTTTTTTTTTTTTTTT FDIK        TELAPSE       57.57 TCPU     1511.51
 INSULATING STATE
 TOP OF VALENCE BANDS -    BAND     99; K    1; EIG -2.4578226E-01 AU
 BOTTOM OF VIRTUAL BANDS - BAND    100; K   17; EIG -8.8676328E-02 AU
 INDIRECT ENERGY BAND GAP:   4.2751 eV
 BOTTOM OF VIRTUAL BANDS - BAND    100; K    1; EIG -8.0444122E-02 AU
 TTTTTTTTTTTTTTTTTTTTTTTTTTTTTT PDIG        TELAPSE       57.89 TCPU     1517.69
 CHARGE NORMALIZATION FACTOR   1.00000000
 TOTAL ATOMIC CHARGES:
   4.5031424   4.5076574   4.5079697   4.5075346   4.5072796   4.5033069
   0.8741935   0.8743294   0.8772557   0.8771309   0.8685500   0.8686238
   0.8686309   0.8685557   0.8771812   0.8772279   0.8742490   0.8742702
   5.9208418   6.1693930   6.1698717   6.1648941   6.1654290   5.9223310
   5.9293412   6.1667316   6.1673403   6.1670187   6.1669804   5.9308524
   5.9210413   6.1647361   6.1656861   6.1695221   6.1695754   5.9220875
   8.4888792   8.4891114   8.4864940   8.4890435   8.4865073   8.4892020
 TTTTTTTTTTTTTTTTTTTTTTTTTTTTTT MOQGAD      TELAPSE       57.93 TCPU     1517.73
 TTTTTTTTTTTTTTTTTTTTTTTTTTTTTT SHELLXN     TELAPSE       64.34 TCPU     1722.00
 TTTTTTTTTTTTTTTTTTTTTTTTTTTTTT MONMO3      TELAPSE       64.48 TCPU     1726.40
 NUMERICALLY INTEGRATED DENSITY    197.9999719161
 TTTTTTTTTTTTTTTTTTTTTTTTTTTTTT NUMDFT      TELAPSE       65.06 TCPU     1745.05
 CYC   6 ETOT(AU) -1.289109189890E+03 DETOT -1.67E-05 tst  1.37E-07 PX  9.35E-04
 TTTTTTTTTTTTTTTTTTTTTTTTTTTTTT DIIS        TELAPSE       65.14 TCPU     1747.35
 DIIS TEST: 0.51908E-05 AT SCF   CYCLE   6 - DIIS ACTIVE - HISTORY:     6 CYCLES
 TTTTTTTTTTTTTTTTTTTTTTTTTTTTTT FDIK        TELAPSE       65.63 TCPU     1763.19
 INSULATING STATE
 TOP OF VALENCE BANDS -    BAND     99; K    1; EIG -2.4578164E-01 AU
 BOTTOM OF VIRTUAL BANDS - BAND    100; K   17; EIG -8.8777623E-02 AU
 INDIRECT ENERGY BAND GAP:   4.2723 eV
 BOTTOM OF VIRTUAL BANDS - BAND    100; K    1; EIG -8.0466708E-02 AU
 TTTTTTTTTTTTTTTTTTTTTTTTTTTTTT PDIG        TELAPSE       65.96 TCPU     1769.37
 CHARGE NORMALIZATION FACTOR   1.00000000
 TOTAL ATOMIC CHARGES:
   4.5036000   4.5075279   4.5078539   4.5075292   4.5072631   4.5038629
   0.8741501   0.8743460   0.8772351   0.8771881   0.8683942   0.8686242
   0.8685307   0.8684995   0.8771395   0.8773069   0.8742483   0.8742450
   5.9215055   6.1694471   6.1695059   6.1651813   6.1649316   5.9216263
   5.9307392   6.1669007   6.1665192   6.1667661   6.1665863   5.9309493
   5.9214473   6.1651372   6.1650775   6.1692647   6.1695203   5.9216330
   8.4884733   8.4888630   8.4873848   8.4886998   8.4872720   8.4890239
 TTTTTTTTTTTTTTTTTTTTTTTTTTTTTT MOQGAD      TELAPSE       66.00 TCPU     1769.41
 TTTTTTTTTTTTTTTTTTTTTTTTTTTTTT SHELLXN     TELAPSE       72.41 TCPU     1973.66
 TTTTTTTTTTTTTTTTTTTTTTTTTTTTTT MONMO3      TELAPSE       72.54 TCPU     1978.07
 NUMERICALLY INTEGRATED DENSITY    197.9999719156
 TTTTTTTTTTTTTTTTTTTTTTTTTTTTTT NUMDFT      TELAPSE       73.13 TCPU     1996.70
 CYC   7 ETOT(AU) -1.289109190309E+03 DETOT -4.19E-07 tst  1.45E-08 PX  3.55E-04
 TTTTTTTTTTTTTTTTTTTTTTTTTTTTTT DIIS        TELAPSE       73.21 TCPU     1999.29
 DIIS TEST: 0.12398E-05 AT SCF   CYCLE   7 - DIIS ACTIVE - HISTORY:     7 CYCLES
 TTTTTTTTTTTTTTTTTTTTTTTTTTTTTT FDIK        TELAPSE       73.71 TCPU     2015.23
 INSULATING STATE
 TOP OF VALENCE BANDS -    BAND     99; K    1; EIG -2.4579185E-01 AU
 BOTTOM OF VIRTUAL BANDS - BAND    100; K   17; EIG -8.8782472E-02 AU
 INDIRECT ENERGY BAND GAP:   4.2724 eV
 BOTTOM OF VIRTUAL BANDS - BAND    100; K    1; EIG -8.0477151E-02 AU
 TTTTTTTTTTTTTTTTTTTTTTTTTTTTTT PDIG        TELAPSE       74.02 TCPU     2021.40
 CHARGE NORMALIZATION FACTOR   1.00000000
 TOTAL ATOMIC CHARGES:
   4.5035891   4.5076171   4.5079399   4.5075489   4.5072883   4.5038069
   0.8741339   0.8743028   0.8772302   0.8771300   0.8684117   0.8685572
   0.8685148   0.8684662   0.8771418   0.8772417   0.8742096   0.8742243
   5.9210900   6.1694186   6.1696776   6.1649423   6.1651841   5.9219986
   5.9301809   6.1667290   6.1668881   6.1668457   6.1667036   5.9310476
   5.9211939   6.1648599   6.1653674   6.1694066   6.1695212   5.9218441
   8.4886714   8.4889720   8.4870882   8.4888569   8.4870702   8.4890875
 TTTTTTTTTTTTTTTTTTTTTTTTTTTTTT MOQGAD      TELAPSE       74.07 TCPU     2021.44
 TTTTTTTTTTTTTTTTTTTTTTTTTTTTTT SHELLXN     TELAPSE       80.48 TCPU     2225.70
 +++ ENERGIES IN A.U. +++
 ::: EXT EL-POLE                                  -1.3489124092955E+03
 ::: EXT EL-SPHEROPOLE                             1.4672157244729E+01
 ::: BIELET ZONE E-E                               2.0526801813894E+03
 ::: TOTAL E-E                                     7.1843992933868E+02
 ::: TOTAL E-N + N-E                              -3.2658076755255E+03
 ::: TOTAL N-N                                     1.1203983380591E+02
 ::: KINETIC ENERGY                                1.2799358896891E+03
 ::: PSEUDO TOTAL   ENERGY                        -1.1553920226918E+03
 ::: VIRIAL COEFFICIENT                            1.0511404917441E+00
 TTTTTTTTTTTTTTTTTTTTTTTTTTTTTT MONMO3      TELAPSE       80.61 TCPU     2230.11
 NUMERICALLY INTEGRATED DENSITY    197.9999719148
 EXCHANGE ENERGY: -0.126026693223E+03  CORRELATION ENERGY: -0.769047463934E+01
 TTTTTTTTTTTTTTTTTTTTTTTTTTTTTT NUMDFT      TELAPSE       81.20 TCPU     2248.78
 CYC   8 ETOT(AU) -1.289109190554E+03 DETOT -2.45E-07 tst  4.84E-09 PX  3.55E-04

 == SCF ENDED - CONVERGENCE ON ENERGY      E(AU) -1.2891091905542E+03 CYCLES   8


 ENERGY EXPRESSION=HARTREE+FOCK EXCH*0.00000+(HSESOL     EXCH)*1.00000+PBESOL     CORR


 TOTAL ENERGY(DFT)(AU)(  8) -1.2891091905542E+03 DE-2.5E-07 tester 4.8E-09
 TTTTTTTTTTTTTTTTTTTTTTTTTTTTTT EDFT        TELAPSE       81.20 TCPU     2248.79
 
 INFORMATION **** DFTD3 ENERGY **** CALCULATE DFTD3 ENERGY

           DFT-D V3(BJ)
 DF                                         hsesol3c  
 parameters
 s6       :    1.0000
 s8       :    0.0000
 a1       :    0.5196
 a2       :    4.9385
 k1 k3    :   16.0000   -4.0000
 Cutoff   :   50.2022
 CN-Cutoff:   21.1671
 ABC-Cutoff:   21.1671
 
 Edisp /kcal,au:   -24.0496 -0.03832547

 E6    /kcal :   -25.3529
 E8    /kcal :     0.0000
 E6(ABC) "   :   1.303288
 
 INFORMATION **** DFTD3 ENERGY **** NORMAL TERMINATION OF DFTD3 MODULE

 GCP ENERGY CALCULATION
  level        hsesol3c            basis:hsesol3c
  Nbf            474
  Atoms           42

  Parameters: 
  sigma     1.0000
  eta       1.4281
  alpha     0.2936
  beta      1.9467

  dmp_scal      4.0000
  dmp_exp       6.0000
 cutoffs: 
   distance [bohr] 60.0
   noise    [a.u.] 2.2E-16
 SR-damping   T
 ** gCP correction **
  Egcp:        0.0829621883 / (a.u.) ||      52.0596 / (kcal/mol)
 INFORMATION **** GCP **** NORMAL TERMINATION OF GCP MODULE

 *******************************************************************************

 DFT-D3-GCP DISPERSION AND COUNTERPOISE CORRECTION

 D3 DISPERSION ENERGY (AU)      -3.8325470892433E-02
 GCP ENERGY (AU)                 8.2962188322140E-02
 TOTAL ENERGY + DISP + GCP (AU) -1.2890645538368E+03

 *******************************************************************************

 EIGENVECTORS IN FORTRAN UNIT  8
 TTTTTTTTTTTTTTTTTTTTTTTTTTTTTT END         TELAPSE       82.57 TCPU     2256.10
 EEEEEEEEEE TERMINATION  DATE 19 02 2026 TIME 19:05:02.8
