 Default number of threads is:           32

         
 *******************************************************************************
 *                                                                             *
 *                               CRYSTAL23                                     *
 *                      public : 1.0.1 - October 2022                          *
 *                       HTTP://WWW.CRYSTAL.UNITO.IT                           *
 *                                                                             *
 *                              MAIN AUTHORS                                   *
 *                                                                             *
 *  R. DOVESI(1,11), V.R. SAUNDERS(2), C. ROETTI(1,11), R. ORLANDO(1,11),      *
 *  C.M. ZICOVICH-WILSON(1,3), F. PASCALE(4), B. CIVALLERI(1,11),              *
 *  K. DOLL(5), N.M. HARRISON(6), I.J. BUSH(7), Ph. D'ARCO(8),                 *
 *  M. LLUNELL(9), M. CAUSA'(10), Y. NOEL(8), L. MASCHIO(1,11), A. ERBA(1,11)  *
 *  M. RE'RAT(14), S. CASASSA(1,11), B.G. SEARLE(2), J.K. DESMARAIS(1)         *
 *                                                                             *
 *        CONTRIBUTIONS TO THE CODE HAVE ALSO BEEN GIVEN BY                    *
 *                                                                             *
 *  M. FERRABONE(1,11), M. DE LA PIERRE(1,11), M. FERRERO(1,11),               *
 *  J. BAIMA(1,11), E. ALBANESE(1,11), M.F. PEINTINGER(12), R. BAST(13),       *
 *  B. KIRTMAN(15), V. LACIVITA(1,11), R. DEMICHELIS(1,16)                     *
 *  G. BRANDEBURG(17), S. SALUSTRO(1,11), G. SANSONE(1,11)                     *
 *  M.T. RUGGIERO(18), L.E. DAGA(1), L. DONA'(1), A. COSSARD(1)                *
 *                                                                             *
 * (1) THEORETICAL CHEMISTRY GROUP - UNIVERSITA' DI TORINO - TORINO (ITALY)    *
 * (2) SCIENTIFIC COMPUTING DEPARTMENT - STFC DARESBURY (UK)                   *
 * (3) UNIVERSIDAD AUTONOMA DEL ESTADO DE MORELOS - CUERNAVACA (MEXICO)        *
 * (4) UNIVERSITE' DE LORRAINE - NANCY (FRANCE)                                *
 * (5) UNIVERSITAET STUTTGART- STUTTGART (GERMANY)                             *
 * (6) IMPERIAL COLLEGE - LONDON (UK)                                          *
 * (7) SCIENTIFIC COMPUTING DEPARTMENT - STFC RAL (UK)                         *
 * (8) UPMC - SORBONNE UNIVERSITES - PARIS (FRANCE)                            *
 * (9) UNIVERSIDAD DE BARCELONA - BARCELONA (SPAIN)                            *
 *(10) UNIVERSITA' DI NAPOLI "FEDERICO II" - NAPOLI (ITALY)                    *
 *(11) NIS - NANOSTRUCTURED INTERFACES AND SURFACES - TORINO (ITALY)           *
 *(12) MPI FUER CHEMISCHE ENERGIEKONVERSION - MUELHEIM AN DER RUHR (GERMANY)   *
 *(13) UNIVERSITY OF TROMSO - TROMSO (NORWAY)                                  *
 *(14) UNIVERSITE' DE PAU ET DES PAYS DE L'ADOUR - PAU (FRANCE)                *
 *(15) UNIVERSITY OF CALIFORNIA SANTA BARBARA - SANTA BARBARA (USA)            *
 *(16) CURTIN UNIVERSITY - PERTH (AUSTRALIA)                                   *
 *(17) UNIVERSITY COLLEGE LONDON - LONDON (UK)                                 *
 *(18) UNIVERSITY OF VERMONT - BURLINGTON (USA)                                *
 *                                                                             *
 *******************************************************************************
 EEEEEEEEEE STARTING  DATE 19 02 2026 TIME 18:31:17.3
 cof-1_z35_L070_incl                                                             

 CRYSTAL CALCULATION
 (INPUT ACCORDING TO THE INTERNATIONAL TABLES FOR X-RAY CRYSTALLOGRAPHY)
 CRYSTAL FAMILY                       :  TRICLINIC   
 CRYSTAL CLASS  (GROTH - 1921)        :  TRICLINIC PEDIAL                     

 SPACE GROUP (NONCENTROSYMMETRIC)     :  P 1             

 LATTICE PARAMETERS  (ANGSTROMS AND DEGREES) - CONVENTIONAL CELL
        A           B           C        ALPHA        BETA       GAMMA
    15.02361    15.02392     7.82624    39.22890    89.99998   119.99596


 NUMBER OF IRREDUCIBLE ATOMS IN THE CONVENTIONAL CELL:   42

 INPUT COORDINATES

 ATOM AT. N.              COORDINATES
   1   5     4.788335900000E-01 -4.240309000000E-02  5.013588300000E-01
   2   5     6.378892500000E-01  1.166565600000E-01  5.013588500000E-01
   3   5     4.796010900000E-01  1.181830600000E-01  4.984894000000E-01
   4   5     9.240830000000E-02  3.439119100000E-01  5.013588400000E-01
   5   5     2.515162700000E-01  3.438911400000E-01  5.013588300000E-01
   6   5     2.522683200000E-01  5.045740400000E-01  4.984894000000E-01
   7   1     7.697967100000E-01  4.240915000000E-02  4.954099000000E-01
   8   1    -3.636770000000E-02  4.250219400000E-01  4.945002000000E-01
   9   1     7.700068400000E-01  3.281162500000E-01  4.943602100000E-01
  10   1    -3.623779000000E-02  1.397099700000E-01  4.943951300000E-01
  11   1     5.553195400000E-01 -1.744491900000E-01  5.045782700000E-01
  12   1     1.729721700000E-01  6.314945700000E-01  5.054880300000E-01
  13   1     2.698747600000E-01 -1.749681200000E-01  5.056281200000E-01
  14   1     4.583264400000E-01  6.313481300000E-01  5.055929700000E-01
  15   1     5.578258200000E-01  3.275332800000E-01  4.954099500000E-01
  16   1     1.759596100000E-01  1.395778600000E-01  4.945001500000E-01
  17   1     2.728760300000E-01  4.286713000000E-02  4.943600900000E-01
  18   1     4.613168800000E-01  4.249829000000E-01  4.943952400000E-01
  19   6     7.578433700000E-01  1.778225600000E-01  4.983844100000E-01
  20   6     8.132045500000E-01  1.261894200000E-01  4.955498900000E-01
  21   6    -7.983058000000E-02  3.407208200000E-01  4.953050300000E-01
  22   6     8.130357600000E-01  2.868323700000E-01  4.960398900000E-01
  23   6    -7.948174000000E-02  1.804067800000E-01  4.941501700000E-01
  24   6    -2.538986000000E-02  2.871570000000E-01  4.960748500000E-01
  25   6     4.191265800000E-01 -1.616846400000E-01  5.016038100000E-01
  26   6     4.715026500000E-01 -2.178220400000E-01  5.044382700000E-01
  27   6     2.570575900000E-01  6.751533900000E-01  5.046832200000E-01
  28   6     3.107441400000E-01 -2.175115800000E-01  5.039483900000E-01
  29   6     4.176651800000E-01  6.744925600000E-01  5.058379700000E-01
  30   6     3.103938900000E-01  6.208964700000E-01  5.039133500000E-01
  31   6     4.199979400000E-01  1.777534300000E-01  4.983844000000E-01
  32   6     4.739256500000E-01  2.870295400000E-01  4.955499500000E-01
  33   6     2.596046900000E-01  1.797075800000E-01  4.953049700000E-01
  34   6     3.128709300000E-01  1.258302100000E-01  4.960398100000E-01
  35   6     4.208348600000E-01  3.412547700000E-01  4.941502400000E-01
  36   6     3.125342300000E-01  2.870796000000E-01  4.960748500000E-01
  37   8     4.264544500000E-01  1.177886000000E-02  4.992592400000E-01
  38   8     5.837712100000E-01  8.529710000000E-03  5.053130800000E-01
  39   8     5.862254300000E-01  1.723883400000E-01  4.961798500000E-01
  40   8     1.460422700000E-01  4.510593300000E-01  4.992592700000E-01
  41   8     1.444334800000E-01  2.888469900000E-01  5.053130800000E-01
  42   8     3.058098500000E-01  4.527003200000E-01  4.961798200000E-01

 *******************************************************************************

 << INFORMATION >>: FROM NOW ON, ALL COORDINATES REFER TO THE PRIMITIVE CELL

 *******************************************************************************

 LATTICE PARAMETERS  (ANGSTROMS AND DEGREES) - PRIMITIVE CELL
       A          B          C        ALPHA      BETA     GAMMA        VOLUME
   15.02361   15.02392    7.82624    39.22890  89.99998 119.99596    684.193558

 COORDINATES OF THE EQUIVALENT ATOMS (FRACTIONAL UNITS)

 N. ATOM EQUIV AT. N.          X                  Y                  Z

   1   1   1    5 B     4.78833590000E-01 -4.24030900000E-02 -4.98641170000E-01

   2   2   1    5 B    -3.62110750000E-01  1.16656560000E-01 -4.98641150000E-01

   3   3   1    5 B     4.79601090000E-01  1.18183060000E-01  4.98489400000E-01

   4   4   1    5 B     9.24083000000E-02  3.43911910000E-01 -4.98641160000E-01

   5   5   1    5 B     2.51516270000E-01  3.43891140000E-01 -4.98641170000E-01

   6   6   1    5 B     2.52268320000E-01 -4.95425960000E-01  4.98489400000E-01

   7   7   1    1 H    -2.30203290000E-01  4.24091500000E-02  4.95409900000E-01

   8   8   1    1 H    -3.63677000000E-02  4.25021940000E-01  4.94500200000E-01

   9   9   1    1 H    -2.29993160000E-01  3.28116250000E-01  4.94360210000E-01

  10  10   1    1 H    -3.62377900000E-02  1.39709970000E-01  4.94395130000E-01

  11  11   1    1 H    -4.44680460000E-01 -1.74449190000E-01 -4.95421730000E-01

  12  12   1    1 H     1.72972170000E-01 -3.68505430000E-01 -4.94511970000E-01

  13  13   1    1 H     2.69874760000E-01 -1.74968120000E-01 -4.94371880000E-01

  14  14   1    1 H     4.58326440000E-01 -3.68651870000E-01 -4.94407030000E-01

  15  15   1    1 H    -4.42174180000E-01  3.27533280000E-01  4.95409950000E-01

  16  16   1    1 H     1.75959610000E-01  1.39577860000E-01  4.94500150000E-01

  17  17   1    1 H     2.72876030000E-01  4.28671300000E-02  4.94360090000E-01

  18  18   1    1 H     4.61316880000E-01  4.24982900000E-01  4.94395240000E-01

  19  19   1    6 C    -2.42156630000E-01  1.77822560000E-01  4.98384410000E-01

  20  20   1    6 C    -1.86795450000E-01  1.26189420000E-01  4.95549890000E-01

  21  21   1    6 C    -7.98305800000E-02  3.40720820000E-01  4.95305030000E-01

  22  22   1    6 C    -1.86964240000E-01  2.86832370000E-01  4.96039890000E-01

  23  23   1    6 C    -7.94817400000E-02  1.80406780000E-01  4.94150170000E-01

  24  24   1    6 C    -2.53898600000E-02  2.87157000000E-01  4.96074850000E-01

  25  25   1    6 C     4.19126580000E-01 -1.61684640000E-01 -4.98396190000E-01

  26  26   1    6 C     4.71502650000E-01 -2.17822040000E-01 -4.95561730000E-01

  27  27   1    6 C     2.57057590000E-01 -3.24846610000E-01 -4.95316780000E-01

  28  28   1    6 C     3.10744140000E-01 -2.17511580000E-01 -4.96051610000E-01

  29  29   1    6 C     4.17665180000E-01 -3.25507440000E-01 -4.94162030000E-01

  30  30   1    6 C     3.10393890000E-01 -3.79103530000E-01 -4.96086650000E-01

  31  31   1    6 C     4.19997940000E-01  1.77753430000E-01  4.98384400000E-01

  32  32   1    6 C     4.73925650000E-01  2.87029540000E-01  4.95549950000E-01

  33  33   1    6 C     2.59604690000E-01  1.79707580000E-01  4.95304970000E-01

  34  34   1    6 C     3.12870930000E-01  1.25830210000E-01  4.96039810000E-01

  35  35   1    6 C     4.20834860000E-01  3.41254770000E-01  4.94150240000E-01

  36  36   1    6 C     3.12534230000E-01  2.87079600000E-01  4.96074850000E-01

  37  37   1    8 O     4.26454450000E-01  1.17788600000E-02  4.99259240000E-01

  38  38   1    8 O    -4.16228790000E-01  8.52971000000E-03 -4.94686920000E-01

  39  39   1    8 O    -4.13774570000E-01  1.72388340000E-01  4.96179850000E-01

  40  40   1    8 O     1.46042270000E-01  4.51059330000E-01  4.99259270000E-01

  41  41   1    8 O     1.44433480000E-01  2.88846990000E-01 -4.94686920000E-01

  42  42   1    8 O     3.05809850000E-01  4.52700320000E-01  4.96179820000E-01

 NUMBER OF SYMMETRY OPERATORS         :    1
 *******************************************************************************
 * GEOMETRY EDITING - INPUT COORDINATES ARE GIVEN IN ANGSTROM         
 *******************************************************************************

 GCALCO - MAX INDICES DIRECT LATTICE VECTOR     9    14    24
 NO.OF VECTORS CREATED 6999 STARS 3500 RMAX   208.40344 BOHR

 GEOMETRY FOR WAVE FUNCTION - DIMENSIONALITY OF THE SYSTEM    3
 (NON PERIODIC DIRECTION: LATTICE PARAMETER FORMALLY SET TO 500)
 *******************************************************************************
 LATTICE PARAMETERS (ANGSTROMS AND DEGREES) - BOHR = 0.5291772083 ANGSTROM
 PRIMITIVE CELL - CENTRING CODE 1/0 VOLUME=   684.193558 - DENSITY  0.947 g/cm^3
         A              B              C           ALPHA      BETA       GAMMA 
    15.02361100    15.02391600     7.82623800    39.228895  89.999975 119.995964
 *******************************************************************************
 ATOMS IN THE ASYMMETRIC UNIT   42 - ATOMS IN THE UNIT CELL:   42
     ATOM                 X/A                 Y/B                 Z/C    
 *******************************************************************************
      1 T   5 B     4.788335900000E-01 -4.240309000000E-02 -4.986411700000E-01
      2 T   5 B    -3.621107500000E-01  1.166565600000E-01 -4.986411500000E-01
      3 T   5 B     4.796010900000E-01  1.181830600000E-01  4.984894000000E-01
      4 T   5 B     9.240830000000E-02  3.439119100000E-01 -4.986411600000E-01
      5 T   5 B     2.515162700000E-01  3.438911400000E-01 -4.986411700000E-01
      6 T   5 B     2.522683200000E-01 -4.954259600000E-01  4.984894000000E-01
      7 T   1 H    -2.302032900000E-01  4.240915000000E-02  4.954099000000E-01
      8 T   1 H    -3.636770000000E-02  4.250219400000E-01  4.945002000000E-01
      9 T   1 H    -2.299931600000E-01  3.281162500000E-01  4.943602100000E-01
     10 T   1 H    -3.623779000000E-02  1.397099700000E-01  4.943951300000E-01
     11 T   1 H    -4.446804600000E-01 -1.744491900000E-01 -4.954217300000E-01
     12 T   1 H     1.729721700000E-01 -3.685054300000E-01 -4.945119700000E-01
     13 T   1 H     2.698747600000E-01 -1.749681200000E-01 -4.943718800000E-01
     14 T   1 H     4.583264400000E-01 -3.686518700000E-01 -4.944070300000E-01
     15 T   1 H    -4.421741800000E-01  3.275332800000E-01  4.954099500000E-01
     16 T   1 H     1.759596100000E-01  1.395778600000E-01  4.945001500000E-01
     17 T   1 H     2.728760300000E-01  4.286713000000E-02  4.943600900000E-01
     18 T   1 H     4.613168800000E-01  4.249829000000E-01  4.943952400000E-01
     19 T   6 C    -2.421566300000E-01  1.778225600000E-01  4.983844100000E-01
     20 T   6 C    -1.867954500000E-01  1.261894200000E-01  4.955498900000E-01
     21 T   6 C    -7.983058000000E-02  3.407208200000E-01  4.953050300000E-01
     22 T   6 C    -1.869642400000E-01  2.868323700000E-01  4.960398900000E-01
     23 T   6 C    -7.948174000000E-02  1.804067800000E-01  4.941501700000E-01
     24 T   6 C    -2.538986000000E-02  2.871570000000E-01  4.960748500000E-01
     25 T   6 C     4.191265800000E-01 -1.616846400000E-01 -4.983961900000E-01
     26 T   6 C     4.715026500000E-01 -2.178220400000E-01 -4.955617300000E-01
     27 T   6 C     2.570575900000E-01 -3.248466100000E-01 -4.953167800000E-01
     28 T   6 C     3.107441400000E-01 -2.175115800000E-01 -4.960516100000E-01
     29 T   6 C     4.176651800000E-01 -3.255074400000E-01 -4.941620300000E-01
     30 T   6 C     3.103938900000E-01 -3.791035300000E-01 -4.960866500000E-01
     31 T   6 C     4.199979400000E-01  1.777534300000E-01  4.983844000000E-01
     32 T   6 C     4.739256500000E-01  2.870295400000E-01  4.955499500000E-01
     33 T   6 C     2.596046900000E-01  1.797075800000E-01  4.953049700000E-01
     34 T   6 C     3.128709300000E-01  1.258302100000E-01  4.960398100000E-01
     35 T   6 C     4.208348600000E-01  3.412547700000E-01  4.941502400000E-01
     36 T   6 C     3.125342300000E-01  2.870796000000E-01  4.960748500000E-01
     37 T   8 O     4.264544500000E-01  1.177886000000E-02  4.992592400000E-01
     38 T   8 O    -4.162287900000E-01  8.529710000000E-03 -4.946869200000E-01
     39 T   8 O    -4.137745700000E-01  1.723883400000E-01  4.961798500000E-01
     40 T   8 O     1.460422700000E-01  4.510593300000E-01  4.992592700000E-01
     41 T   8 O     1.444334800000E-01  2.888469900000E-01 -4.946869200000E-01
     42 T   8 O     3.058098500000E-01  4.527003200000E-01  4.961798200000E-01

 T = ATOM BELONGING TO THE ASYMMETRIC UNIT

 ****    1 SYMMOPS - TRANSLATORS IN FRACTIONAL UNITS
 **** MATRICES AND TRANSLATORS IN THE CRYSTALLOGRAPHIC REFERENCE FRAME
   V INV                    ROTATION MATRICES                   TRANSLATORS
   1   1  1.00 -0.00  0.00  0.00  1.00  0.00  0.00 -0.00  1.00  0.00  0.00  0.00

 DIRECT LATTICE VECTORS CARTESIAN COMPONENTS (ANGSTROM)
          X                    Y                    Z
   0.130113578931E+02  -0.751088897922E+01   0.000000000000E+00
   0.000000000000E+00   0.150239160000E+02   0.000000000000E+00
   0.349956555566E+01   0.606240469506E+01   0.350004163799E+01


 CARTESIAN COORDINATES - PRIMITIVE CELL
 *******************************************************************************
 *      ATOM          X(ANGSTROM)         Y(ANGSTROM)         Z(ANGSTROM)
 *******************************************************************************
    1     5 B     9.856821918839E-01  1.705020338478E+00 -5.245306495405E+00
    2     5 B     3.055212379052E+00  2.900069876539E+00 -5.245306425404E+00
    3     5 B    -1.527034575408E+00 -2.552360219702E-01  5.244775294086E+00
    4     5 B    -5.426699645805E-01  1.449870655649E+00 -1.745264822415E+00
    5     5 B     1.527540741732E+00  2.545162499114E-01 -1.745264857416E+00
    6     5 B     1.527284175043E+00  2.645558432187E+00 -1.755307981893E+00
    7     1 H    -4.761103528035E+00 -6.928465302470E-01 -1.766086360117E+00
    8     1 H    -2.242222848919E+00  3.594103320977E+00 -1.769270347995E+00
    9     1 H     2.237088200947E+00  6.925444221829E-01  5.230322957154E+00
   10     1 H    -2.240900242768E+00 -6.940124665465E-01 -1.769638097370E+00
   11     1 H     1.992134902457E+00 -8.337891067982E-01 -5.234038321354E+00
   12     1 H     5.200257523360E-01  5.190414920083E+00 -1.730812485484E+00
   13     1 H    -1.718215269929E+00  1.308723200318E+00 -5.230363802640E+00
   14     1 H     4.233239530027E+00  3.045586764857E+00 -1.730445191115E+00
   15     1 H    -5.200013544404E-01  2.283817963294E+00  5.233997090864E+00
   16     1 H     5.204435969823E-01 -2.289151715427E+00 -1.769270522997E+00
   17     1 H     1.780967674164E+00 -4.470903170530E+00 -1.769760738829E+00
   18     1 H     4.232962024915E+00 -1.451731497487E-01 -1.769637712366E+00
   19     6 C    -4.906223220052E+00  1.449406059927E+00 -1.755675451265E+00
   20     6 C    -4.195818682249E+00  2.406784176560E-01 -1.765596389288E+00
   21     6 C    -2.804917380316E+00  2.658894446958E+00 -1.766453409484E+00
   22     6 C    -4.196300082225E+00  2.658402945700E+00 -1.763881368886E+00
   23     6 C    -2.804420006506E+00  2.407284491802E-01 -1.770495467570E+00
   24     6 C    -2.093875652884E+00  1.449924871153E+00 -1.763759007430E+00
   25     6 C     2.096702396194E-01  3.628822422212E-01 -5.244449055205E+00
   26     6 C     9.010734100061E-01 -8.567285431630E-01 -5.234528327183E+00
   27     6 C    -1.888290795469E+00 -8.524986689476E-01 -5.233670991984E+00
   28     6 C    -1.192327465133E+00  3.524052520606E-01 -5.236242927581E+00
   29     6 C     2.054731616877E-01 -2.061732139246E+00 -5.229629318903E+00
   30     6 C     2.302558237646E+00  3.989484326245E+00 -1.736323931051E+00
   31     6 C     3.709306835746E+00 -3.525002066361E+00 -1.755675486265E+00
   32     6 C     4.401060227319E+00 -2.305475594616E+00 -1.765596179286E+00
   33     6 C     1.611596189206E+00 -2.309615938034E+00 -1.766453619486E+00
   34     6 C     2.307233922217E+00 -3.514686936729E+00 -1.763881648889E+00
   35     6 C     3.705378580900E+00 -1.100526872982E+00 -1.770495222567E+00
   36     6 C     2.302975622791E+00 -1.089348303338E+00 -1.763759007430E+00
   37     8 O    -2.215850423714E+00 -1.449998190529E+00  5.247469766140E+00
   38     8 O     2.364901279248E+00  1.706027897525E+00 -5.231466455758E+00
   39     8 O    -1.477895491858E-01 -2.557054554795E-01  5.236691772921E+00
   40     8 O     1.478332314613E-01  2.644077256136E+00 -1.752613404837E+00
   41     8 O     1.480863939530E-01  2.557967750602E-01 -1.731424817769E+00
   42     8 O     2.215849657398E+00  1.450065924056E+00 -1.763391608059E+00

 *******************************************************************************
 STARTING BASIS SET HANDLING 
 *******************************************************************************

 Loading internal basis set: SOLDEF2MSVP         

 Please cite in your publication:
 L. Dona', J. G. Brandenburg and B. Civalleri, J. Chem. Phys., 151, 121101 (2019
 )                                                                              
                                                                                
                    

 *******************************************************************************
 LOCAL ATOMIC FUNCTIONS BASIS SET
 *******************************************************************************
   ATOM   X(AU)   Y(AU)   Z(AU)  N. TYPE  EXPONENT  S COEF   P COEF   D/F/G COEF
 *******************************************************************************
   1 B    1.863   3.222  -9.912
                                  1 S  
                                         2.410E+03 1.755E-03 0.000E+00 0.000E+00
                                         3.619E+02 1.344E-02 0.000E+00 0.000E+00
                                         8.231E+01 6.637E-02 0.000E+00 0.000E+00
                                         2.311E+01 2.303E-01 0.000E+00 0.000E+00
                                         7.252E+00 5.150E-01 0.000E+00 0.000E+00
                                  2 S  
                                         2.367E+00 1.000E+00 0.000E+00 0.000E+00
                                  3 S  
                                         5.533E-01 1.000E+00 0.000E+00 0.000E+00
                                  4 S  
                                         1.716E-01 1.000E+00 0.000E+00 0.000E+00
                           5-     7 P  
                                         6.002E+00 0.000E+00-3.555E-02 0.000E+00
                                         1.240E+00 0.000E+00-1.983E-01 0.000E+00
                                         3.367E-01 0.000E+00-5.048E-01 0.000E+00
                           8-    10 P  
                                         1.256E-01 0.000E+00 1.000E+00 0.000E+00
                          11-    15 D  
                                         8.880E-01 0.000E+00 0.000E+00 1.000E+00
   2 B    5.774   5.480  -9.912
   3 B   -2.886  -0.482   9.911
   4 B   -1.025   2.740  -3.298
   5 B    2.887   0.481  -3.298
   6 B    2.886   4.999  -3.317
   7 H   -8.997  -1.309  -3.337
                                 91 S  
                                         1.874E+01 1.968E-02 0.000E+00 0.000E+00
                                         2.826E+00 1.380E-01 0.000E+00 0.000E+00
                                         6.401E-01 4.783E-01 0.000E+00 0.000E+00
                                 92 S  
                                         1.756E-01 1.000E+00 0.000E+00 0.000E+00
   8 H   -4.237   6.792  -3.343
   9 H    4.227   1.309   9.884
  10 H   -4.235  -1.311  -3.344
  11 H    3.765  -1.576  -9.891
  12 H    0.983   9.808  -3.271
  13 H   -3.247   2.473  -9.884
  14 H    8.000   5.755  -3.270
  15 H   -0.983   4.316   9.891
  16 H    0.983  -4.326  -3.343
  17 H    3.366  -8.449  -3.344
  18 H    7.999  -0.274  -3.344
  19 C   -9.271   2.739  -3.318
                                115 S  
                                         3.624E+03 1.634E-03 0.000E+00 0.000E+00
                                         5.440E+02 1.252E-02 0.000E+00 0.000E+00
                                         1.237E+02 6.211E-02 0.000E+00 0.000E+00
                                         3.476E+01 2.182E-01 0.000E+00 0.000E+00
                                         1.093E+01 4.980E-01 0.000E+00 0.000E+00
                                116 S  
                                         3.574E+00 1.000E+00 0.000E+00 0.000E+00
                                117 S  
                                         7.742E-01 1.000E+00 0.000E+00 0.000E+00
                                118 S  
                                         2.330E-01 1.000E+00 0.000E+00 0.000E+00
                         119-   121 P  
                                         9.443E+00 0.000E+00 3.790E-02 0.000E+00
                                         2.002E+00 0.000E+00 2.082E-01 0.000E+00
                                         5.463E-01 0.000E+00 5.047E-01 0.000E+00
                         122-   124 P  
                                         1.820E-01 0.000E+00 1.000E+00 0.000E+00
                         125-   129 D  
                                         8.880E-01 0.000E+00 0.000E+00 1.000E+00
  20 C   -7.929   0.455  -3.336
  21 C   -5.301   5.025  -3.338
  22 C   -7.930   5.024  -3.333
  23 C   -5.300   0.455  -3.346
  24 C   -3.957   2.740  -3.333
  25 C    0.396   0.686  -9.911
  26 C    1.703  -1.619  -9.892
  27 C   -3.568  -1.611  -9.890
  28 C   -2.253   0.666  -9.895
  29 C    0.388  -3.896  -9.883
  30 C    4.351   7.539  -3.281
  31 C    7.010  -6.661  -3.318
  32 C    8.317  -4.357  -3.336
  33 C    3.045  -4.365  -3.338
  34 C    4.360  -6.642  -3.333
  35 C    7.002  -2.080  -3.346
  36 C    4.352  -2.059  -3.333
  37 O   -4.187  -2.740   9.916
                                385 S  
                                         6.773E+03 1.727E-03 0.000E+00 0.000E+00
                                         1.017E+03 1.325E-02 0.000E+00 0.000E+00
                                         2.313E+02 6.603E-02 0.000E+00 0.000E+00
                                         6.501E+01 2.353E-01 0.000E+00 0.000E+00
                                         2.050E+01 5.498E-01 0.000E+00 0.000E+00
                                386 S  
                                         6.716E+00 1.000E+00 0.000E+00 0.000E+00
                                387 S  
                                         1.147E+00 1.000E+00 0.000E+00 0.000E+00
                                388 S  
                                         3.342E-01 1.000E+00 0.000E+00 0.000E+00
                         389-   391 P  
                                         1.769E+01 0.000E+00 4.359E-02 0.000E+00
                                         3.854E+00 0.000E+00 2.318E-01 0.000E+00
                                         1.047E+00 0.000E+00 5.146E-01 0.000E+00
                         392-   394 P  
                                         2.759E-01 0.000E+00 1.000E+00 0.000E+00
                         395-   399 D  
                                         8.000E-01 0.000E+00 0.000E+00 1.000E+00
  38 O    4.469   3.224  -9.886
  39 O   -0.279  -0.483   9.896
  40 O    0.279   4.997  -3.312
  41 O    0.280   0.483  -3.272
  42 O    4.187   2.740  -3.332

 *******************************************************************************
 FINISHED BASIS SET HANDLING 
 *******************************************************************************

 INFORMATION **** SET_MPP **** PCRYSTAL CALCULATION
 INFORMATION **** READM2 **** NEW DEFAULT: FOCK/KS MATRIX MIXING SET TO 30 %
 INFORMATION **** READM2 **** NEW DEFAULT: FULL DIRECT SCF MODE
 INFORMATION **** READM2 **** NEW DEFAULT: COULOMB BIPOLAR BUFFER SET TO 32 Mb
 INFORMATION **** READM2 **** NEW DEFAULT: EXCHANGE BIPOLAR BUFFER SET TO 32 Mb

 *******************************************************************************
 NEW DEFAULT: DFT INTEGRATION GRID INCREASED TO XLGRID
 NEW DEFAULT: DIIS ACCELERATOR ACTIVE
 USE KEYWORD NODIIS TO TURN IT OFF
 *******************************************************************************

 WARNING **** RDDFTP **** HSEsol-HJS ACTIVE
 RANGE SEPARATION - OMEGA:   0.110000000000000     
 WARNING **** RDDFTP **** HSEsol-3c has to be combined with sol-def2-mSVP basis set
 *******************************************************************************
 N. OF ATOMS PER CELL        42  COULOMB OVERLAP TOL         (T1) 10**   -6
 NUMBER OF SHELLS           234  COULOMB PENETRATION TOL     (T2) 10**   -6
 NUMBER OF AO               474  EXCHANGE OVERLAP TOL        (T3) 10**   -6
 N. OF ELECTRONS PER CELL   198  EXCHANGE PSEUDO OVP (F(G))  (T4) 10**   -6
 CORE ELECTRONS PER CELL     60  EXCHANGE PSEUDO OVP (P(G))  (T5) 10**  -12
 N. OF SYMMETRY OPERATORS     1  POLE ORDER IN MONO ZONE                  4
 *******************************************************************************
 TYPE OF CALCULATION :  RESTRICTED CLOSED SHELL
 KOHN-SHAM HAMILTONIAN

 (EXCHANGE)[CORRELATION] FUNCTIONAL:(HSEsol GGA)[PBEsol]

 RANGE-SEPARATED HYBRID FUNCTIONAL 
 OMEGA (SHORT-RANGE)[LONG-RANGE]:(    0.1100)[    0.0000]

 HYBRID EXCHANGE - PERCENTAGE OF FOCK EXCHANGE    25.0000

 CAPPA:IS1  2;IS2  2;IS3  8; K PTS MONK NET  20; SYMMOPS:K SPACE   2;G SPACE   1

 *******************************************************************************
 MAX NUMBER OF SCF CYCLES      50  CONVERGENCE ON DELTAP        10**-16
 WEIGHT OF F(I) IN F(I+1)      30% CONVERGENCE ON ENERGY        10**- 6
 SHRINK. FACT.(MONKH.)    2  2  8  NUMBER OF K POINTS IN THE IBZ     20
 SHRINKING FACTOR(GILAT NET)    8  NUMBER OF K POINTS(GILAT NET)   1028
 *******************************************************************************
 *** K POINTS COORDINATES (OBLIQUE COORDINATES IN UNITS OF IS =  2)
   1-R(  0  0  0)   2-R(  1  0  0)   3-R(  0  1  0)   4-R(  1  1  0)
   5-C(  0  0  1)   6-C(  1  0  1)   7-C(  0  1  1)   8-C(  1  1  1)
   9-C(  0  0  2)  10-C(  1  0  2)  11-C(  0  1  2)  12-C(  1  1  2)
  13-C(  0  0  3)  14-C(  1  0  3)  15-C(  0  1  3)  16-C(  1  1  3)
  17-R(  0  0  4)  18-R(  1  0  4)  19-R(  0  1  4)  20-R(  1  1  4)

 DIRECT LATTICE VECTORS COMPON. (A.U.)     RECIP. LATTICE VECTORS COMPON. (A.U.) 
        X            Y            Z              X            Y            Z
   24.5879030  -14.1935232    0.0000000      0.2555397    0.0000000   -0.2555049
    0.0000000   28.3910867    0.0000000      0.1277517    0.2213084   -0.5110614
    6.6132205   11.4562846    6.6141202      0.0000000    0.0000000    0.9499654

 DISK SPACE FOR EIGENVECTORS (FTN 10)     7189632 REALS

 SYMMETRY ADAPTION OF THE BLOCH FUNCTIONS DISABLED
 TTTTTTTTTTTTTTTTTTTTTTTTTTTTTT gordsh1     TELAPSE        0.04 TCPU        0.04

 MATRIX SIZE: P(G)  335670, F(G)   64674, P(G) IRR  169020, F(G) IRR   65190
 MAX G-VECTOR INDEX FOR 1- AND 2-ELECTRON INTEGRALS  49

 TTTTTTTTTTTTTTTTTTTTTTTTTTTTTT INPUT       TELAPSE        0.42 TCPU        0.42

 NEIGHBORS OF THE NON-EQUIVALENT ATOMS

 N = NUMBER OF NEIGHBORS AT DISTANCE R
    ATOM  N     R/ANG      R/AU   NEIGHBORS (ATOM LABELS AND CELL INDICES)
   1 B    1     1.3791     2.6061   37 O    1 2-3
   1 B    1     1.3793     2.6065   38 O    0 0 0
   1 B    1     1.5503     2.9297   25 C    0 0 0
   1 B    1     2.3895     4.5155    3 B    1 2-3
   1 B    1     2.3898     4.5160    2 B    0 0 0
   1 B    1     2.5632     4.8437   26 C    0 0 0

   2 B    1     1.3793     2.6065   39 O    1 2-3
   2 B    1     1.3793     2.6065   38 O    0 0 0
   2 B    1     1.5504     2.9298   19 C    1 1-1
   2 B    1     2.3895     4.5156    3 B    1 2-3
   2 B    1     2.3898     4.5160    1 B    0 0 0
   2 B    1     2.5634     4.8440   22 C    1 1-1

   3 B    1     1.3791     2.6061   37 O    0 0 0
   3 B    1     1.3793     2.6064   39 O    0 0 0
   3 B    1     1.5502     2.9294   31 C   -1-1 2
   3 B    1     2.3895     4.5155    1 B   -1-2 3
   3 B    1     2.3895     4.5156    2 B   -1-2 3
   3 B    1     2.5629     4.8433   32 C   -1-1 2

   4 B    1     1.3795     2.6068   40 O    0 0 0
   4 B    1     1.3795     2.6070   41 O    0 0 0
   4 B    1     1.5513     2.9316   24 C    0 0 0
   4 B    1     2.3905     4.5174    6 B    0 0 0
   4 B    1     2.3905     4.5175    5 B    0 0 0
   4 B    1     2.5648     4.8468   23 C    0 0 0

   5 B    1     1.3795     2.6069   41 O    0 0 0
   5 B    1     1.3797     2.6072   42 O    0 0 0
   5 B    1     1.5516     2.9322   36 C    0 0 0
   5 B    1     2.3905     4.5175    4 B    0 0 0
   5 B    1     2.3911     4.5185    6 B    0 0 0
   5 B    1     2.5651     4.8473   35 C    0 0 0

   6 B    1     1.3795     2.6068   40 O    0 0 0
   6 B    1     1.3796     2.6071   42 O    0 0 0
   6 B    1     1.5516     2.9322   30 C    0 0 0
   6 B    1     2.3905     4.5174    4 B    0 0 0
   6 B    1     2.3911     4.5185    5 B    0 0 0
   6 B    1     2.5651     4.8473   29 C    0 0 1

   7 H    1     1.0913     2.0623   20 C    0 0 0
   7 H    1     2.1472     4.0576   19 C    0 0 0
   7 H    1     2.1680     4.0969   23 C    0 0 0
   7 H    1     2.5202     4.7625   10 H    0 0 0
   7 H    1     2.5676     4.8520   38 O   -1-1 1
   7 H    1     2.7321     5.1630    2 B   -1-1 1

   8 H    1     1.0914     2.0625   21 C    0 0 0
   8 H    1     2.1493     4.0616   24 C    0 0 0
   8 H    1     2.1666     4.0942   22 C    0 0 0
   8 H    1     2.5198     4.7618    9 H    0 1-2
   8 H    1     2.5720     4.8604   40 O    0 0 0
   8 H    1     2.7362     5.1707    4 B    0 0 0

   9 H    1     1.0914     2.0624   22 C    0-1 2
   9 H    1     2.1471     4.0575   19 C    0-1 2
   9 H    1     2.1680     4.0970   21 C    0-1 2
   9 H    1     2.5198     4.7618    8 H    0-1 2
   9 H    1     2.5665     4.8500   39 O    0 0 0
   9 H    1     2.7315     5.1618    2 B   -1-2 3

  10 H    1     1.0915     2.0626   23 C    0 0 0
  10 H    1     2.1490     4.0610   24 C    0 0 0
  10 H    1     2.1669     4.0948   20 C    0 0 0
  10 H    1     2.5202     4.7625    7 H    0 0 0
  10 H    1     2.5712     4.8588   41 O    0 0 0
  10 H    1     2.7351     5.1686    4 B    0 0 0

  11 H    1     1.0913     2.0623   26 C    0 0 0
  11 H    1     2.1469     4.0571   25 C    0 0 0
  11 H    1     2.1680     4.0968   29 C    0 0 0
  11 H    1     2.5198     4.7617   14 H    0 0-1
  11 H    1     2.5670     4.8510   38 O    0 0 0
  11 H    1     2.7310     5.1609    1 B    0 0 0

  12 H    1     1.0914     2.0625   27 C    0 0 1
  12 H    1     2.1493     4.0617   30 C    0 0 0
  12 H    1     2.1664     4.0939   28 C    0 0 1
  12 H    1     2.5192     4.7606   13 H    0 0 1
  12 H    1     2.5735     4.8632   40 O    0 0 0
  12 H    1     2.7371     5.1723    6 B    0 0 0

  13 H    1     1.0914     2.0624   28 C    0 0 0
  13 H    1     2.1475     4.0581   25 C    0 0 0
  13 H    1     2.1679     4.0967   27 C    0 0 0
  13 H    1     2.5192     4.7606   12 H    0 0-1
  13 H    1     2.5675     4.8519   37 O    1 2-3
  13 H    1     2.7328     5.1643    1 B    0 0 0

  14 H    1     1.0914     2.0625   29 C    0 0 1
  14 H    1     2.1491     4.0612   30 C    0 0 0
  14 H    1     2.1666     4.0942   26 C    0 0 1
  14 H    1     2.5198     4.7617   11 H    0 0 1
  14 H    1     2.5723     4.8609   42 O    0 0 0
  14 H    1     2.7355     5.1693    6 B    0 0 0

  15 H    1     1.0914     2.0624   32 C   -1-1 2
  15 H    1     2.1475     4.0582   31 C   -1-1 2
  15 H    1     2.1678     4.0966   35 C   -1-1 2
  15 H    1     2.5200     4.7621   18 H   -1-1 2
  15 H    1     2.5667     4.8503   39 O    0 0 0
  15 H    1     2.7315     5.1618    3 B    0 0 0

  16 H    1     1.0913     2.0623   33 C    0 0 0
  16 H    1     2.1487     4.0605   36 C    0 0 0
  16 H    1     2.1667     4.0945   34 C    0 0 0
  16 H    1     2.5197     4.7616   17 H    0 0 0
  16 H    1     2.5723     4.8610   41 O    0 0 0
  16 H    1     2.7359     5.1701    5 B    0 0 0

  17 H    1     1.0915     2.0626   34 C    0 0 0
  17 H    1     2.1479     4.0589   31 C    0 0 0
  17 H    1     2.1679     4.0968   33 C    0 0 0
  17 H    1     2.5197     4.7616   16 H    0 0 0
  17 H    1     2.5677     4.8522   37 O    1 1-2
  17 H    1     2.7331     5.1648    3 B    1 1-2

  18 H    1     1.0914     2.0624   35 C    0 0 0
  18 H    1     2.1486     4.0602   36 C    0 0 0
  18 H    1     2.1668     4.0947   32 C    0 0 0
  18 H    1     2.5200     4.7621   15 H    1 1-2
  18 H    1     2.5717     4.8598   42 O    0 0 0
  18 H    1     2.7349     5.1682    5 B    0 0 0

  19 C    1     1.4020     2.6495   22 C    0 0 0
  19 C    1     1.4021     2.6495   20 C    0 0 0
  19 C    1     1.5504     2.9298    2 B   -1-1 1
  19 C    1     2.1471     4.0575    9 H    0 1-2
  19 C    1     2.1472     4.0576    7 H    0 0 0
  19 C    1     2.4246     4.5817   21 C    0 0 0

  20 C    1     1.0913     2.0623    7 H    0 0 0
  20 C    1     1.3914     2.6294   23 C    0 0 0
  20 C    1     1.4021     2.6495   19 C    0 0 0
  20 C    1     2.1669     4.0948   10 H    0 0 0
  20 C    1     2.4177     4.5688   22 C    0 0 0
  20 C    1     2.4250     4.5825   24 C    0 0 0

  21 C    1     1.0914     2.0625    8 H    0 0 0
  21 C    1     1.3914     2.6293   22 C    0 0 0
  21 C    1     1.4026     2.6505   24 C    0 0 0
  21 C    1     2.1680     4.0970    9 H    0 1-2
  21 C    1     2.4182     4.5697   23 C    0 0 0
  21 C    1     2.4246     4.5817   19 C    0 0 0

  22 C    1     1.0914     2.0624    9 H    0 1-2
  22 C    1     1.3914     2.6293   21 C    0 0 0
  22 C    1     1.4020     2.6495   19 C    0 0 0
  22 C    1     2.1666     4.0942    8 H    0 0 0
  22 C    1     2.4177     4.5688   20 C    0 0 0
  22 C    1     2.4250     4.5826   24 C    0 0 0

  23 C    1     1.0915     2.0626   10 H    0 0 0
  23 C    1     1.3914     2.6294   20 C    0 0 0
  23 C    1     1.4025     2.6504   24 C    0 0 0
  23 C    1     2.1680     4.0969    7 H    0 0 0
  23 C    1     2.4182     4.5697   21 C    0 0 0
  23 C    1     2.4246     4.5818   19 C    0 0 0

  24 C    1     1.4025     2.6504   23 C    0 0 0
  24 C    1     1.4026     2.6505   21 C    0 0 0
  24 C    1     1.5513     2.9316    4 B    0 0 0
  24 C    1     2.1490     4.0610   10 H    0 0 0
  24 C    1     2.1493     4.0616    8 H    0 0 0
  24 C    1     2.4250     4.5825   20 C    0 0 0

  25 C    1     1.4020     2.6494   26 C    0 0 0
  25 C    1     1.4021     2.6495   28 C    0 0 0
  25 C    1     1.5503     2.9297    1 B    0 0 0
  25 C    1     2.1469     4.0571   11 H    0 0 0
  25 C    1     2.1475     4.0581   13 H    0 0 0
  25 C    1     2.4246     4.5818   27 C    0 0 0

  26 C    1     1.0913     2.0623   11 H    0 0 0
  26 C    1     1.3914     2.6293   29 C    0 0 0
  26 C    1     1.4020     2.6494   25 C    0 0 0
  26 C    1     2.1666     4.0942   14 H    0 0-1
  26 C    1     2.4175     4.5684   28 C    0 0 0
  26 C    1     2.4251     4.5828   30 C    0 0-1

  27 C    1     1.0914     2.0625   12 H    0 0-1
  27 C    1     1.3915     2.6295   28 C    0 0 0
  27 C    1     1.4026     2.6505   30 C    0 0-1
  27 C    1     2.1679     4.0967   13 H    0 0 0
  27 C    1     2.4179     4.5691   29 C    0 0 0
  27 C    1     2.4246     4.5818   25 C    0 0 0

  28 C    1     1.0914     2.0624   13 H    0 0 0
  28 C    1     1.3915     2.6295   27 C    0 0 0
  28 C    1     1.4021     2.6495   25 C    0 0 0
  28 C    1     2.1664     4.0939   12 H    0 0-1
  28 C    1     2.4175     4.5684   26 C    0 0 0
  28 C    1     2.4253     4.5832   30 C    0 0-1

  29 C    1     1.0914     2.0625   14 H    0 0-1
  29 C    1     1.3914     2.6293   26 C    0 0 0
  29 C    1     1.4025     2.6504   30 C    0 0-1
  29 C    1     2.1680     4.0968   11 H    0 0 0
  29 C    1     2.4179     4.5691   27 C    0 0 0
  29 C    1     2.4247     4.5819   25 C    0 0 0

  30 C    1     1.4025     2.6504   29 C    0 0 1
  30 C    1     1.4026     2.6505   27 C    0 0 1
  30 C    1     1.5516     2.9322    6 B    0 0 0
  30 C    1     2.1491     4.0612   14 H    0 0 0
  30 C    1     2.1493     4.0617   12 H    0 0 0
  30 C    1     2.4251     4.5828   26 C    0 0 1

  31 C    1     1.4021     2.6496   32 C    0 0 0
  31 C    1     1.4021     2.6497   34 C    0 0 0
  31 C    1     1.5502     2.9294    3 B    1 1-2
  31 C    1     2.1475     4.0582   15 H    1 1-2
  31 C    1     2.1479     4.0589   17 H    0 0 0
  31 C    1     2.4244     4.5814   33 C    0 0 0

  32 C    1     1.0914     2.0624   15 H    1 1-2
  32 C    1     1.3914     2.6293   35 C    0 0 0
  32 C    1     1.4021     2.6496   31 C    0 0 0
  32 C    1     2.1668     4.0947   18 H    0 0 0
  32 C    1     2.4179     4.5692   34 C    0 0 0
  32 C    1     2.4251     4.5827   36 C    0 0 0

  33 C    1     1.0913     2.0623   16 H    0 0 0
  33 C    1     1.3914     2.6294   34 C    0 0 0
  33 C    1     1.4025     2.6504   36 C    0 0 0
  33 C    1     2.1679     4.0968   17 H    0 0 0
  33 C    1     2.4178     4.5690   35 C    0 0 0
  33 C    1     2.4244     4.5814   31 C    0 0 0

  34 C    1     1.0915     2.0626   17 H    0 0 0
  34 C    1     1.3914     2.6294   33 C    0 0 0
  34 C    1     1.4021     2.6497   31 C    0 0 0
  34 C    1     2.1667     4.0945   16 H    0 0 0
  34 C    1     2.4179     4.5692   32 C    0 0 0
  34 C    1     2.4253     4.5832   36 C    0 0 0

  35 C    1     1.0914     2.0624   18 H    0 0 0
  35 C    1     1.3914     2.6293   32 C    0 0 0
  35 C    1     1.4025     2.6503   36 C    0 0 0
  35 C    1     2.1678     4.0966   15 H    1 1-2
  35 C    1     2.4178     4.5690   33 C    0 0 0
  35 C    1     2.4245     4.5817   31 C    0 0 0

  36 C    1     1.4025     2.6503   35 C    0 0 0
  36 C    1     1.4025     2.6504   33 C    0 0 0
  36 C    1     1.5516     2.9322    5 B    0 0 0
  36 C    1     2.1486     4.0602   18 H    0 0 0
  36 C    1     2.1487     4.0605   16 H    0 0 0
  36 C    1     2.4251     4.5827   32 C    0 0 0

  37 O    1     1.3791     2.6061    1 B   -1-2 3
  37 O    1     1.3791     2.6061    3 B    0 0 0
  37 O    1     2.3880     4.5126   38 O   -1-2 3
  37 O    1     2.3882     4.5130   39 O    0 0 0
  37 O    1     2.5383     4.7966   31 C   -1-1 2
  37 O    1     2.5384     4.7968   25 C   -1-2 3

  38 O    1     1.3793     2.6065    1 B    0 0 0
  38 O    1     1.3793     2.6065    2 B    0 0 0
  38 O    1     2.3880     4.5126   37 O    1 2-3
  38 O    1     2.3882     4.5131   39 O    1 2-3
  38 O    1     2.5391     4.7981   19 C    1 1-1
  38 O    1     2.5395     4.7990   25 C    0 0 0

  39 O    1     1.3793     2.6064    3 B    0 0 0
  39 O    1     1.3793     2.6065    2 B   -1-2 3
  39 O    1     2.3882     4.5130   37 O    0 0 0
  39 O    1     2.3882     4.5131   38 O   -1-2 3
  39 O    1     2.5390     4.7980   19 C    0-1 2
  39 O    1     2.5391     4.7982   31 C   -1-1 2

  40 O    1     1.3795     2.6068    6 B    0 0 0
  40 O    1     1.3795     2.6068    4 B    0 0 0
  40 O    1     2.3880     4.5126   42 O    0 0 0
  40 O    1     2.3884     4.5134   41 O    0 0 0
  40 O    1     2.5400     4.7998   24 C    0 0 0
  40 O    1     2.5403     4.8005   30 C    0 0 0

  41 O    1     1.3795     2.6069    5 B    0 0 0
  41 O    1     1.3795     2.6070    4 B    0 0 0
  41 O    1     2.3881     4.5128   42 O    0 0 0
  41 O    1     2.3884     4.5134   40 O    0 0 0
  41 O    1     2.5404     4.8006   24 C    0 0 0
  41 O    1     2.5405     4.8008   36 C    0 0 0

  42 O    1     1.3796     2.6071    6 B    0 0 0
  42 O    1     1.3797     2.6072    5 B    0 0 0
  42 O    1     2.3880     4.5126   40 O    0 0 0
  42 O    1     2.3881     4.5128   41 O    0 0 0
  42 O    1     2.5409     4.8016   36 C    0 0 0
  42 O    1     2.5410     4.8019   30 C    0 0 0


 SYMMETRY ALLOWED INTERNAL DEGREE(S) OF FREEDOM: 123
 TTTTTTTTTTTTTTTTTTTTTTTTTTTTTT SYMM        TELAPSE        0.42 TCPU        0.42
 TTTTTTTTTTTTTTTTTTTTTTTTTTTTTT INT_SCREEN  TELAPSE        0.46 TCPU        0.46

 DFT PARAMETERS

     ATOM       ELECTRONS   NET CHARGE   R(ANGSTROM)
   1   5  B       5.0000      0.0000     0.89000000
   7   1  H       1.0000      0.0000     1.11000000
  19   6  C       6.0000      0.0000     0.77000000
  37   8  O       8.0000      0.0000     0.74000000

 SIZE OF GRID=    1291700
 TTTTTTTTTTTTTTTTTTTTTTTTTTTTTT MAKE_GRID2  TELAPSE        9.51 TCPU        9.50
 BECKE WEIGHT FUNCTION
 RADSAFE =     2.00
 TOLERANCES - DENSITY:10**- 6; POTENTIAL:10**- 9; GRID WGT:10**-14

 RADIAL INTEGRATION  - INTERVALS (POINTS,UPPER LIMIT):            1( 75,  4.0*R)

 ANGULAR INTEGRATION - INTERVALS (ACCURACY LEVEL [N. POINTS] UPPER LIMIT):
  1(  4[  86]   0.2)  2(  8[ 194]   0.5)  3( 12[ 350]   0.9)  4( 16[ 974]   3.5)
  5( 12[ 350]9999.0)
 TTTTTTTTTTTTTTTTTTTTTTTTTTTTTT INT_CALC    TELAPSE        9.59 TCPU        9.58
 EEEEEEEEEE INT_CALC TERMINATION  DATE 19 02 2026 TIME 18:31:26.9

 *******************************************************************************
 cof-1_z35_L070_incl                                                             
 CRYSTAL - SCF - TYPE OF CALCULATION :  RESTRICTED CLOSED SHELL
 *******************************************************************************

 CAPPA:IS1  2;IS2  2;IS3  8; K PTS MONK NET  20; SYMMOPS:K SPACE   2;G SPACE   1

 TTTTTTTTTTTTTTTTTTTTTTTTTTTTTT SDIK        TELAPSE       10.15 TCPU       17.61

 AAAAAAAAAAAAAAAAAAAAAAAAAAAAAAAAAAAAAAAAAAAAAAAAAAAAAAAAAAAAAAAAAAAAAAAAAAAAAAA
         ATOMIC WAVEFUNCTION(S)


 NUCLEAR CHARGE  5.0  SYMMETRY SPECIES            S    P
 N. ELECTRONS    5.0  NUMBER OF PRIMITIVE GTOS    8    4
                      NUMBER OF CONTRACTED GTOS   4    2
                      NUMBER OF CLOSED SHELLS     2    0
                      OPEN SHELL OCCUPATION       0    1

  ZNUC  SCFIT    TOTAL HF ENERGY   KINETIC ENERGY   VIRIAL THEOREM ACCURACY
   5.0    11    -2.451164084E+01  2.462155050E+01 -1.995536038E+00  1.5E-06

 NUCLEAR CHARGE  1.0  SYMMETRY SPECIES            S
 N. ELECTRONS    1.0  NUMBER OF PRIMITIVE GTOS    4
                      NUMBER OF CONTRACTED GTOS   2
                      NUMBER OF CLOSED SHELLS     0
                      OPEN SHELL OCCUPATION       1

  ZNUC  SCFIT    TOTAL HF ENERGY   KINETIC ENERGY   VIRIAL THEOREM ACCURACY
   1.0     1    -4.977266687E-01  5.190767460E-01 -1.958869132E+00  0.0E+00

 NUCLEAR CHARGE  6.0  SYMMETRY SPECIES            S    P
 N. ELECTRONS    6.0  NUMBER OF PRIMITIVE GTOS    8    4
                      NUMBER OF CONTRACTED GTOS   4    2
                      NUMBER OF CLOSED SHELLS     2    0
                      OPEN SHELL OCCUPATION       0    2

  ZNUC  SCFIT    TOTAL HF ENERGY   KINETIC ENERGY   VIRIAL THEOREM ACCURACY
   6.0     9    -3.766704647E+01  3.775180683E+01 -1.997754800E+00  1.1E-06

 NUCLEAR CHARGE  8.0  SYMMETRY SPECIES            S    P
 N. ELECTRONS    8.0  NUMBER OF PRIMITIVE GTOS    8    4
                      NUMBER OF CONTRACTED GTOS   4    2
                      NUMBER OF CLOSED SHELLS     2    0
                      OPEN SHELL OCCUPATION       0    4

  ZNUC  SCFIT    TOTAL HF ENERGY   KINETIC ENERGY   VIRIAL THEOREM ACCURACY
   8.0    12    -7.477373220E+01  7.477365593E+01 -2.000001020E+00  3.8E-06

 AAAAAAAAAAAAAAAAAAAAAAAAAAAAAAAAAAAAAAAAAAAAAAAAAAAAAAAAAAAAAAAAAAAAAAAAAAAAAAA

 CHARGE NORMALIZATION FACTOR   1.00000000
 TOTAL ATOMIC CHARGES:
   5.0000000   5.0000000   5.0000000   5.0000000   5.0000000   5.0000000
   1.0000000   1.0000000   1.0000000   1.0000000   1.0000000   1.0000000
   1.0000000   1.0000000   1.0000000   1.0000000   1.0000000   1.0000000
   6.0000000   6.0000000   6.0000000   6.0000000   6.0000000   6.0000000
   6.0000000   6.0000000   6.0000000   6.0000000   6.0000000   6.0000000
   6.0000000   6.0000000   6.0000000   6.0000000   6.0000000   6.0000000
   8.0000000   8.0000000   8.0000000   8.0000000   8.0000000   8.0000000
 TTTTTTTTTTTTTTTTTTTTTTTTTTTTTT MOQGAD      TELAPSE       10.19 TCPU       19.07
 TTTTTTTTTTTTTTTTTTTTTTTTTTTTTT SHELLXN     TELAPSE       17.63 TCPU      256.62
 TTTTTTTTTTTTTTTTTTTTTTTTTTTTTT MONMO3      TELAPSE       17.77 TCPU      261.13
 NUMERICALLY INTEGRATED DENSITY    197.9999622574
 TTTTTTTTTTTTTTTTTTTTTTTTTTTTTT NUMDFT      TELAPSE       18.41 TCPU      281.74
 CYC   0 ETOT(AU) -1.295965582504E+03 DETOT -1.30E+03 tst  0.00E+00 PX  1.00E+00
 TTTTTTTTTTTTTTTTTTTTTTTTTTTTTT DIIS        TELAPSE       18.45 TCPU      282.93
 TTTTTTTTTTTTTTTTTTTTTTTTTTTTTT FDIK        TELAPSE       18.94 TCPU      298.68
 INSULATING STATE
 TOP OF VALENCE BANDS -    BAND     99; K    1; EIG -3.0717854E-01 AU
 BOTTOM OF VIRTUAL BANDS - BAND    100; K   17; EIG -1.5961010E-01 AU
 INDIRECT ENERGY BAND GAP:   4.0155 eV
 BOTTOM OF VIRTUAL BANDS - BAND    100; K    1; EIG -1.5842003E-01 AU
 TTTTTTTTTTTTTTTTTTTTTTTTTTTTTT PDIG        TELAPSE       19.28 TCPU      304.87
 CHARGE NORMALIZATION FACTOR   1.00000000
 TOTAL ATOMIC CHARGES:
   4.1402633   4.1596224   4.1601912   4.1594810   4.1591511   4.1387379
   0.7854147   0.7855515   0.7852584   0.7854063   0.7859497   0.7861704
   0.7859310   0.7861012   0.7852582   0.7854785   0.7853606   0.7855419
   6.0441981   6.2673429   6.2673303   6.2660565   6.2660939   6.0437310
   6.0478333   6.2658674   6.2661616   6.2658016   6.2661147   6.0465994
   6.0446423   6.2657677   6.2664559   6.2669227   6.2676271   6.0433026
   8.6972035   8.6975082   8.6981660   8.6977491   8.6986280   8.6980269
 TTTTTTTTTTTTTTTTTTTTTTTTTTTTTT MOQGAD      TELAPSE       19.33 TCPU      304.92
 TTTTTTTTTTTTTTTTTTTTTTTTTTTTTT SHELLXN     TELAPSE       27.07 TCPU      551.61
 TTTTTTTTTTTTTTTTTTTTTTTTTTTTTT MONMO3      TELAPSE       27.21 TCPU      556.11
 NUMERICALLY INTEGRATED DENSITY    197.9999765967
 TTTTTTTTTTTTTTTTTTTTTTTTTTTTTT NUMDFT      TELAPSE       27.86 TCPU      577.03
 CYC   1 ETOT(AU) -1.288818643025E+03 DETOT  7.15E+00 tst  0.00E+00 PX  1.00E+00
 TTTTTTTTTTTTTTTTTTTTTTTTTTTTTT DIIS        TELAPSE       27.91 TCPU      578.62
 DIIS TEST: 0.11112E+01 AT SCF   CYCLE   1 - MIX   30 %
 TTTTTTTTTTTTTTTTTTTTTTTTTTTTTT FDIK        TELAPSE       28.41 TCPU      594.58
 INSULATING STATE
 TOP OF VALENCE BANDS -    BAND     99; K    1; EIG -2.1788110E-01 AU
 BOTTOM OF VIRTUAL BANDS - BAND    100; K    1; EIG -8.5265294E-02 AU
 DIRECT ENERGY BAND GAP:   3.6087 eV
 TTTTTTTTTTTTTTTTTTTTTTTTTTTTTT PDIG        TELAPSE       28.75 TCPU      600.78
 CHARGE NORMALIZATION FACTOR   1.00000000
 TOTAL ATOMIC CHARGES:
   4.7049812   4.6995780   4.7003131   4.6996881   4.6991246   4.7047055
   0.9075623   0.9076936   0.9089907   0.9087488   0.9024874   0.9028056
   0.9025648   0.9026457   0.9088869   0.9088112   0.9076510   0.9076664
   5.8686929   6.1470848   6.1475804   6.1299814   6.1299301   5.8715343
   5.8977028   6.1246874   6.1263780   6.1251913   6.1264882   5.9015455
   5.8687421   6.1299590   6.1301412   6.1475027   6.1469439   5.8713474
   8.3407197   8.3410783   8.3303106   8.3408866   8.3295382   8.3411282
 TTTTTTTTTTTTTTTTTTTTTTTTTTTTTT MOQGAD      TELAPSE       28.79 TCPU      600.83
 TTTTTTTTTTTTTTTTTTTTTTTTTTTTTT SHELLXN     TELAPSE       36.53 TCPU      847.51
 TTTTTTTTTTTTTTTTTTTTTTTTTTTTTT MONMO3      TELAPSE       36.67 TCPU      852.00
 NUMERICALLY INTEGRATED DENSITY    197.9999718877
 TTTTTTTTTTTTTTTTTTTTTTTTTTTTTT NUMDFT      TELAPSE       37.33 TCPU      872.88
 CYC   2 ETOT(AU) -1.289011656908E+03 DETOT -1.93E-01 tst  3.37E-03 PX  1.60E-01
 TTTTTTTTTTTTTTTTTTTTTTTTTTTTTT DIIS        TELAPSE       37.38 TCPU      874.57
 DIIS TEST: 0.46465E+00 AT SCF   CYCLE   2 - DIIS ACTIVE - HISTORY:     2 CYCLES
 TTTTTTTTTTTTTTTTTTTTTTTTTTTTTT FDIK        TELAPSE       37.88 TCPU      890.50
 INSULATING STATE
 TOP OF VALENCE BANDS -    BAND     99; K    1; EIG -2.3102857E-01 AU
 BOTTOM OF VIRTUAL BANDS - BAND    100; K   17; EIG -7.9644123E-02 AU
 INDIRECT ENERGY BAND GAP:   4.1194 eV
 BOTTOM OF VIRTUAL BANDS - BAND    100; K    1; EIG -7.8768942E-02 AU
 TTTTTTTTTTTTTTTTTTTTTTTTTTTTTT PDIG        TELAPSE       38.21 TCPU      896.69
 CHARGE NORMALIZATION FACTOR   1.00000000
 TOTAL ATOMIC CHARGES:
   4.4883549   4.4955797   4.4960995   4.4956630   4.4951162   4.4875172
   0.8864723   0.8867479   0.8876332   0.8874391   0.8809873   0.8816210
   0.8810884   0.8814570   0.8875221   0.8875179   0.8866284   0.8866073
   5.8936054   6.1637219   6.1632419   6.1622382   6.1622787   5.8940499
   5.8943326   6.1661412   6.1657388   6.1660440   6.1659338   5.8931358
   5.8936070   6.1622320   6.1624372   6.1633243   6.1634730   5.8940655
   8.5131660   8.5136041   8.5179657   8.5134682   8.5183130   8.5138292
 TTTTTTTTTTTTTTTTTTTTTTTTTTTTTT MOQGAD      TELAPSE       38.26 TCPU      896.74
 TTTTTTTTTTTTTTTTTTTTTTTTTTTTTT SHELLXN     TELAPSE       46.00 TCPU     1143.56
 TTTTTTTTTTTTTTTTTTTTTTTTTTTTTT MONMO3      TELAPSE       46.14 TCPU     1148.05
 NUMERICALLY INTEGRATED DENSITY    197.9999719325
 TTTTTTTTTTTTTTTTTTTTTTTTTTTTTT NUMDFT      TELAPSE       46.79 TCPU     1168.93
 CYC   3 ETOT(AU) -1.289107145648E+03 DETOT -9.55E-02 tst  7.26E-04 PX  6.62E-02
 TTTTTTTTTTTTTTTTTTTTTTTTTTTTTT DIIS        TELAPSE       46.85 TCPU     1170.86
 DIIS TEST: 0.13777E-01 AT SCF   CYCLE   3 - DIIS ACTIVE - HISTORY:     3 CYCLES
 TTTTTTTTTTTTTTTTTTTTTTTTTTTTTT FDIK        TELAPSE       47.35 TCPU     1186.77
 INSULATING STATE
 TOP OF VALENCE BANDS -    BAND     99; K    1; EIG -2.4041992E-01 AU
 BOTTOM OF VIRTUAL BANDS - BAND    100; K    1; EIG -8.7629274E-02 AU
 DIRECT ENERGY BAND GAP:   4.1576 eV
 TTTTTTTTTTTTTTTTTTTTTTTTTTTTTT PDIG        TELAPSE       47.69 TCPU     1192.97
 CHARGE NORMALIZATION FACTOR   1.00000000
 TOTAL ATOMIC CHARGES:
   4.4950377   4.5002341   4.5007949   4.5001893   4.4995799   4.4942549
   0.8692593   0.8693949   0.8711071   0.8710102   0.8651816   0.8654667
   0.8652425   0.8653364   0.8710453   0.8710694   0.8693247   0.8693593
   5.9395218   6.1752463   6.1756807   6.1642515   6.1641927   5.9412003
   5.9577480   6.1628016   6.1641778   6.1631253   6.1641358   5.9603526
   5.9398890   6.1640800   6.1644945   6.1754652   6.1752982   5.9407938
   8.4851320   8.4853849   8.4767594   8.4854359   8.4763232   8.4856214
 TTTTTTTTTTTTTTTTTTTTTTTTTTTTTT MOQGAD      TELAPSE       47.74 TCPU     1193.01
 TTTTTTTTTTTTTTTTTTTTTTTTTTTTTT SHELLXN     TELAPSE       55.48 TCPU     1439.90
 TTTTTTTTTTTTTTTTTTTTTTTTTTTTTT MONMO3      TELAPSE       55.62 TCPU     1444.39
 NUMERICALLY INTEGRATED DENSITY    197.9999723878
 TTTTTTTTTTTTTTTTTTTTTTTTTTTTTT NUMDFT      TELAPSE       56.28 TCPU     1465.34
 CYC   4 ETOT(AU) -1.289110045068E+03 DETOT -2.90E-03 tst  3.74E-05 PX  1.44E-02
 TTTTTTTTTTTTTTTTTTTTTTTTTTTTTT DIIS        TELAPSE       56.34 TCPU     1467.33
 DIIS TEST: 0.39237E-02 AT SCF   CYCLE   4 - DIIS ACTIVE - HISTORY:     4 CYCLES
 TTTTTTTTTTTTTTTTTTTTTTTTTTTTTT FDIK        TELAPSE       56.84 TCPU     1483.31
 INSULATING STATE
 TOP OF VALENCE BANDS -    BAND     99; K    1; EIG -2.3884109E-01 AU
 BOTTOM OF VIRTUAL BANDS - BAND    100; K   17; EIG -8.7407873E-02 AU
 INDIRECT ENERGY BAND GAP:   4.1207 eV
 BOTTOM OF VIRTUAL BANDS - BAND    100; K    1; EIG -8.7334202E-02 AU
 TTTTTTTTTTTTTTTTTTTTTTTTTTTTTT PDIG        TELAPSE       57.18 TCPU     1489.51
 CHARGE NORMALIZATION FACTOR   1.00000000
 TOTAL ATOMIC CHARGES:
   4.4991799   4.5021704   4.5027524   4.5022757   4.5016872   4.4984849
   0.8723805   0.8726112   0.8738135   0.8736563   0.8672991   0.8678372
   0.8673926   0.8676793   0.8737197   0.8737305   0.8725132   0.8725088
   5.9223982   6.1734809   6.1732206   6.1662721   6.1662112   5.9232752
   5.9341067   6.1671199   6.1671529   6.1671168   6.1673844   5.9340119
   5.9223699   6.1662207   6.1664153   6.1732340   6.1732921   5.9232620
   8.4919247   8.4923492   8.4913735   8.4921750   8.4914144   8.4925258
 TTTTTTTTTTTTTTTTTTTTTTTTTTTTTT MOQGAD      TELAPSE       57.22 TCPU     1489.55
 TTTTTTTTTTTTTTTTTTTTTTTTTTTTTT SHELLXN     TELAPSE       64.96 TCPU     1736.31
 TTTTTTTTTTTTTTTTTTTTTTTTTTTTTT MONMO3      TELAPSE       65.10 TCPU     1740.80
 NUMERICALLY INTEGRATED DENSITY    197.9999723784
 TTTTTTTTTTTTTTTTTTTTTTTTTTTTTT NUMDFT      TELAPSE       65.76 TCPU     1761.76
 CYC   5 ETOT(AU) -1.289110942562E+03 DETOT -8.97E-04 tst  7.15E-06 PX  7.00E-03
 TTTTTTTTTTTTTTTTTTTTTTTTTTTTTT DIIS        TELAPSE       65.83 TCPU     1764.06
 DIIS TEST: 0.75109E-04 AT SCF   CYCLE   5 - DIIS ACTIVE - HISTORY:     5 CYCLES
 TTTTTTTTTTTTTTTTTTTTTTTTTTTTTT FDIK        TELAPSE       66.33 TCPU     1780.05
 INSULATING STATE
 TOP OF VALENCE BANDS -    BAND     99; K    1; EIG -2.3864725E-01 AU
 BOTTOM OF VIRTUAL BANDS - BAND    100; K   17; EIG -8.6980851E-02 AU
 INDIRECT ENERGY BAND GAP:   4.1271 eV
 BOTTOM OF VIRTUAL BANDS - BAND    100; K    1; EIG -8.6741678E-02 AU
 TTTTTTTTTTTTTTTTTTTTTTTTTTTTTT PDIG        TELAPSE       66.67 TCPU     1786.24
 CHARGE NORMALIZATION FACTOR   1.00000000
 TOTAL ATOMIC CHARGES:
   4.4976683   4.5025014   4.5030605   4.5024800   4.5019023   4.4968492
   0.8732509   0.8734124   0.8746495   0.8745068   0.8684233   0.8687754
   0.8684791   0.8686552   0.8745648   0.8745710   0.8733289   0.8733630
   5.9223111   6.1731383   6.1733869   6.1653681   6.1654118   5.9236998
   5.9330323   6.1658996   6.1670481   6.1662028   6.1669665   5.9348486
   5.9226738   6.1652674   6.1656581   6.1732573   6.1730999   5.9233056
   8.4927905   8.4930525   8.4884651   8.4931224   8.4882375   8.4933138
 TTTTTTTTTTTTTTTTTTTTTTTTTTTTTT MOQGAD      TELAPSE       66.71 TCPU     1786.28
 TTTTTTTTTTTTTTTTTTTTTTTTTTTTTT SHELLXN     TELAPSE       74.45 TCPU     2032.98
 TTTTTTTTTTTTTTTTTTTTTTTTTTTTTT MONMO3      TELAPSE       74.59 TCPU     2037.47
 NUMERICALLY INTEGRATED DENSITY    197.9999723466
 TTTTTTTTTTTTTTTTTTTTTTTTTTTTTT NUMDFT      TELAPSE       75.25 TCPU     2058.44
 CYC   6 ETOT(AU) -1.289110960819E+03 DETOT -1.83E-05 tst  1.98E-07 PX  1.57E-03
 TTTTTTTTTTTTTTTTTTTTTTTTTTTTTT DIIS        TELAPSE       75.32 TCPU     2060.74
 DIIS TEST: 0.14868E-04 AT SCF   CYCLE   6 - DIIS ACTIVE - HISTORY:     6 CYCLES
 TTTTTTTTTTTTTTTTTTTTTTTTTTTTTT FDIK        TELAPSE       75.82 TCPU     2076.70
 INSULATING STATE
 TOP OF VALENCE BANDS -    BAND     99; K    1; EIG -2.3866549E-01 AU
 BOTTOM OF VIRTUAL BANDS - BAND    100; K   17; EIG -8.7005506E-02 AU
 INDIRECT ENERGY BAND GAP:   4.1269 eV
 BOTTOM OF VIRTUAL BANDS - BAND    100; K    1; EIG -8.6842553E-02 AU
 TTTTTTTTTTTTTTTTTTTTTTTTTTTTTT PDIG        TELAPSE       76.15 TCPU     2082.90
 CHARGE NORMALIZATION FACTOR   1.00000000
 TOTAL ATOMIC CHARGES:
   4.4983919   4.5022819   4.5028502   4.5023646   4.5017789   4.4976586
   0.8732229   0.8734308   0.8746693   0.8745186   0.8682318   0.8687399
   0.8683243   0.8685820   0.8745816   0.8745860   0.8733462   0.8733370
   5.9225988   6.1729158   6.1727871   6.1654763   6.1654116   5.9235988
   5.9344081   6.1661971   6.1663998   6.1662149   6.1666082   5.9347453
   5.9226196   6.1653895   6.1656480   6.1727330   6.1727983   5.9235437
   8.4919327   8.4923356   8.4900270   8.4921946   8.4899938   8.4925259
 TTTTTTTTTTTTTTTTTTTTTTTTTTTTTT MOQGAD      TELAPSE       76.20 TCPU     2082.94
 TTTTTTTTTTTTTTTTTTTTTTTTTTTTTT SHELLXN     TELAPSE       83.94 TCPU     2329.75
 TTTTTTTTTTTTTTTTTTTTTTTTTTTTTT MONMO3      TELAPSE       84.08 TCPU     2334.25
 NUMERICALLY INTEGRATED DENSITY    197.9999723493
 TTTTTTTTTTTTTTTTTTTTTTTTTTTTTT NUMDFT      TELAPSE       84.74 TCPU     2355.16
 CYC   7 ETOT(AU) -1.289110963682E+03 DETOT -2.86E-06 tst  3.77E-08 PX  6.61E-04
 TTTTTTTTTTTTTTTTTTTTTTTTTTTTTT DIIS        TELAPSE       84.82 TCPU     2357.81
 DIIS TEST: 0.13120E-05 AT SCF   CYCLE   7 - DIIS ACTIVE - HISTORY:     7 CYCLES
 TTTTTTTTTTTTTTTTTTTTTTTTTTTTTT FDIK        TELAPSE       85.32 TCPU     2373.73
 INSULATING STATE
 TOP OF VALENCE BANDS -    BAND     99; K    1; EIG -2.3866690E-01 AU
 BOTTOM OF VIRTUAL BANDS - BAND    100; K   17; EIG -8.7023100E-02 AU
 INDIRECT ENERGY BAND GAP:   4.1264 eV
 BOTTOM OF VIRTUAL BANDS - BAND    100; K    1; EIG -8.6860502E-02 AU
 TTTTTTTTTTTTTTTTTTTTTTTTTTTTTT PDIG        TELAPSE       85.66 TCPU     2379.93
 CHARGE NORMALIZATION FACTOR   1.00000000
 TOTAL ATOMIC CHARGES:
   4.4984226   4.5023854   4.5029532   4.5024249   4.5018407   4.4976659
   0.8731918   0.8733880   0.8746350   0.8744828   0.8682451   0.8686851
   0.8683171   0.8685481   0.8745444   0.8745535   0.8732966   0.8733128
   5.9224497   6.1729800   6.1729790   6.1653998   6.1653989   5.9235975
   5.9339197   6.1660210   6.1666468   6.1661939   6.1667004   5.9348184
   5.9226408   6.1653314   6.1656158   6.1729277   6.1728598   5.9233720
   8.4921840   8.4925196   8.4897187   8.4924751   8.4896185   8.4927387
 TTTTTTTTTTTTTTTTTTTTTTTTTTTTTT MOQGAD      TELAPSE       85.70 TCPU     2379.98
 TTTTTTTTTTTTTTTTTTTTTTTTTTTTTT SHELLXN     TELAPSE       93.44 TCPU     2626.70
 TTTTTTTTTTTTTTTTTTTTTTTTTTTTTT MONMO3      TELAPSE       93.58 TCPU     2631.19
 NUMERICALLY INTEGRATED DENSITY    197.9999723463
 TTTTTTTTTTTTTTTTTTTTTTTTTTTTTT NUMDFT      TELAPSE       94.24 TCPU     2652.23
 CYC   8 ETOT(AU) -1.289110963811E+03 DETOT -1.28E-07 tst  2.33E-09 PX  1.31E-04
 TTTTTTTTTTTTTTTTTTTTTTTTTTTTTT DIIS        TELAPSE       94.32 TCPU     2654.83
 DIIS TEST: 0.50860E-07 AT SCF   CYCLE   8 - DIIS ACTIVE - HISTORY:     8 CYCLES
 TTTTTTTTTTTTTTTTTTTTTTTTTTTTTT FDIK        TELAPSE       94.82 TCPU     2670.83
 INSULATING STATE
 TOP OF VALENCE BANDS -    BAND     99; K    1; EIG -2.3867114E-01 AU
 BOTTOM OF VIRTUAL BANDS - BAND    100; K   17; EIG -8.7020822E-02 AU
 INDIRECT ENERGY BAND GAP:   4.1266 eV
 BOTTOM OF VIRTUAL BANDS - BAND    100; K    1; EIG -8.6852415E-02 AU
 TTTTTTTTTTTTTTTTTTTTTTTTTTTTTT PDIG        TELAPSE       95.15 TCPU     2677.02
 CHARGE NORMALIZATION FACTOR   1.00000000
 TOTAL ATOMIC CHARGES:
   4.4983675   4.5023748   4.5029420   4.5024312   4.5018473   4.4976165
   0.8731884   0.8733852   0.8746246   0.8744767   0.8682222   0.8686952
   0.8683082   0.8685442   0.8745390   0.8745422   0.8733016   0.8733014
   5.9224900   6.1729866   6.1729463   6.1654607   6.1654176   5.9235754
   5.9339942   6.1661701   6.1665816   6.1662403   6.1667368   5.9346730
   5.9225773   6.1653642   6.1656632   6.1728704   6.1728914   5.9234538
   8.4921578   8.4925321   8.4897054   8.4924362   8.4896284   8.4927389
 TTTTTTTTTTTTTTTTTTTTTTTTTTTTTT MOQGAD      TELAPSE       95.20 TCPU     2677.07
 TTTTTTTTTTTTTTTTTTTTTTTTTTTTTT SHELLXN     TELAPSE      102.94 TCPU     2923.79
 +++ ENERGIES IN A.U. +++
 ::: EXT EL-POLE                                  -1.4889473073995E+03
 ::: EXT EL-SPHEROPOLE                             1.6357714366176E+01
 ::: BIELET ZONE E-E                               2.1348274916381E+03
 ::: TOTAL E-E                                     6.6223789860474E+02
 ::: TOTAL E-N + N-E                              -3.1501601289807E+03
 ::: TOTAL N-N                                     5.2586551192126E+01
 ::: KINETIC ENERGY                                1.2799436238785E+03
 ::: PSEUDO TOTAL   ENERGY                        -1.1553920553053E+03
 ::: VIRIAL COEFFICIENT                            1.0511434910751E+00
 TTTTTTTTTTTTTTTTTTTTTTTTTTTTTT MONMO3      TELAPSE      103.08 TCPU     2928.29
 NUMERICALLY INTEGRATED DENSITY    197.9999723464
 EXCHANGE ENERGY: -0.126024350041E+03  CORRELATION ENERGY: -0.769455852144E+01
 TTTTTTTTTTTTTTTTTTTTTTTTTTTTTT NUMDFT      TELAPSE      103.73 TCPU     2949.15
 CYC   9 ETOT(AU) -1.289110963868E+03 DETOT -5.69E-08 tst  2.91E-10 PX  1.31E-04

 == SCF ENDED - CONVERGENCE ON ENERGY      E(AU) -1.2891109638677E+03 CYCLES   9


 ENERGY EXPRESSION=HARTREE+FOCK EXCH*0.00000+(HSESOL     EXCH)*1.00000+PBESOL     CORR


 TOTAL ENERGY(DFT)(AU)(  9) -1.2891109638677E+03 DE-5.7E-08 tester 2.9E-10
 TTTTTTTTTTTTTTTTTTTTTTTTTTTTTT EDFT        TELAPSE      103.73 TCPU     2949.16
 
 INFORMATION **** DFTD3 ENERGY **** CALCULATE DFTD3 ENERGY

           DFT-D V3(BJ)
 DF                                         hsesol3c  
 parameters
 s6       :    1.0000
 s8       :    0.0000
 a1       :    0.5196
 a2       :    4.9385
 k1 k3    :   16.0000   -4.0000
 Cutoff   :   50.2022
 CN-Cutoff:   21.1671
 ABC-Cutoff:   21.1671
 
 Edisp /kcal,au:   -26.1512 -0.04167456

 E6    /kcal :   -27.7073
 E8    /kcal :     0.0000
 E6(ABC) "   :   1.556120
 
 INFORMATION **** DFTD3 ENERGY **** NORMAL TERMINATION OF DFTD3 MODULE

 GCP ENERGY CALCULATION
  level        hsesol3c            basis:hsesol3c
  Nbf            474
  Atoms           42

  Parameters: 
  sigma     1.0000
  eta       1.4281
  alpha     0.2936
  beta      1.9467

  dmp_scal      4.0000
  dmp_exp       6.0000
 cutoffs: 
   distance [bohr] 60.0
   noise    [a.u.] 2.2E-16
 SR-damping   T
 ** gCP correction **
  Egcp:        0.0833063822 / (a.u.) ||      52.2755 / (kcal/mol)
 INFORMATION **** GCP **** NORMAL TERMINATION OF GCP MODULE

 *******************************************************************************

 DFT-D3-GCP DISPERSION AND COUNTERPOISE CORRECTION

 D3 DISPERSION ENERGY (AU)      -4.1674558571671E-02
 GCP ENERGY (AU)                 8.3306382170492E-02
 TOTAL ENERGY + DISP + GCP (AU) -1.2890693320441E+03

 *******************************************************************************

 EIGENVECTORS IN FORTRAN UNIT 10
 TTTTTTTTTTTTTTTTTTTTTTTTTTTTTT END         TELAPSE      105.62 TCPU     2957.02
 EEEEEEEEEE TERMINATION  DATE 19 02 2026 TIME 18:33:02.9
