 Default number of threads is:           32

         
 *******************************************************************************
 *                                                                             *
 *                               CRYSTAL23                                     *
 *                      public : 1.0.1 - October 2022                          *
 *                       HTTP://WWW.CRYSTAL.UNITO.IT                           *
 *                                                                             *
 *                              MAIN AUTHORS                                   *
 *                                                                             *
 *  R. DOVESI(1,11), V.R. SAUNDERS(2), C. ROETTI(1,11), R. ORLANDO(1,11),      *
 *  C.M. ZICOVICH-WILSON(1,3), F. PASCALE(4), B. CIVALLERI(1,11),              *
 *  K. DOLL(5), N.M. HARRISON(6), I.J. BUSH(7), Ph. D'ARCO(8),                 *
 *  M. LLUNELL(9), M. CAUSA'(10), Y. NOEL(8), L. MASCHIO(1,11), A. ERBA(1,11)  *
 *  M. RE'RAT(14), S. CASASSA(1,11), B.G. SEARLE(2), J.K. DESMARAIS(1)         *
 *                                                                             *
 *        CONTRIBUTIONS TO THE CODE HAVE ALSO BEEN GIVEN BY                    *
 *                                                                             *
 *  M. FERRABONE(1,11), M. DE LA PIERRE(1,11), M. FERRERO(1,11),               *
 *  J. BAIMA(1,11), E. ALBANESE(1,11), M.F. PEINTINGER(12), R. BAST(13),       *
 *  B. KIRTMAN(15), V. LACIVITA(1,11), R. DEMICHELIS(1,16)                     *
 *  G. BRANDEBURG(17), S. SALUSTRO(1,11), G. SANSONE(1,11)                     *
 *  M.T. RUGGIERO(18), L.E. DAGA(1), L. DONA'(1), A. COSSARD(1)                *
 *                                                                             *
 * (1) THEORETICAL CHEMISTRY GROUP - UNIVERSITA' DI TORINO - TORINO (ITALY)    *
 * (2) SCIENTIFIC COMPUTING DEPARTMENT - STFC DARESBURY (UK)                   *
 * (3) UNIVERSIDAD AUTONOMA DEL ESTADO DE MORELOS - CUERNAVACA (MEXICO)        *
 * (4) UNIVERSITE' DE LORRAINE - NANCY (FRANCE)                                *
 * (5) UNIVERSITAET STUTTGART- STUTTGART (GERMANY)                             *
 * (6) IMPERIAL COLLEGE - LONDON (UK)                                          *
 * (7) SCIENTIFIC COMPUTING DEPARTMENT - STFC RAL (UK)                         *
 * (8) UPMC - SORBONNE UNIVERSITES - PARIS (FRANCE)                            *
 * (9) UNIVERSIDAD DE BARCELONA - BARCELONA (SPAIN)                            *
 *(10) UNIVERSITA' DI NAPOLI "FEDERICO II" - NAPOLI (ITALY)                    *
 *(11) NIS - NANOSTRUCTURED INTERFACES AND SURFACES - TORINO (ITALY)           *
 *(12) MPI FUER CHEMISCHE ENERGIEKONVERSION - MUELHEIM AN DER RUHR (GERMANY)   *
 *(13) UNIVERSITY OF TROMSO - TROMSO (NORWAY)                                  *
 *(14) UNIVERSITE' DE PAU ET DES PAYS DE L'ADOUR - PAU (FRANCE)                *
 *(15) UNIVERSITY OF CALIFORNIA SANTA BARBARA - SANTA BARBARA (USA)            *
 *(16) CURTIN UNIVERSITY - PERTH (AUSTRALIA)                                   *
 *(17) UNIVERSITY COLLEGE LONDON - LONDON (UK)                                 *
 *(18) UNIVERSITY OF VERMONT - BURLINGTON (USA)                                *
 *                                                                             *
 *******************************************************************************
 EEEEEEEEEE STARTING  DATE 02 12 2025 TIME 08:03:53.2
 COF-5_z39_inc_L070                                                              

 CRYSTAL CALCULATION
 (INPUT ACCORDING TO THE INTERNATIONAL TABLES FOR X-RAY CRYSTALLOGRAPHY)
 CRYSTAL FAMILY                       :  TRICLINIC   
 CRYSTAL CLASS  (GROTH - 1921)        :  TRICLINIC PEDIAL                     

 SPACE GROUP (NONCENTROSYMMETRIC)     :  P 1             

 LATTICE PARAMETERS  (ANGSTROMS AND DEGREES) - CONVENTIONAL CELL
        A           B           C        ALPHA        BETA       GAMMA
    15.02070    15.04439     8.01311    40.87852    89.99965   120.05310


 NUMBER OF IRREDUCIBLE ATOMS IN THE CONVENTIONAL CELL:   42

 INPUT COORDINATES

 ATOM AT. N.              COORDINATES
   1   5     4.806326300000E-01 -4.103559000000E-02  5.006167200000E-01
   2   5     6.394093300000E-01  1.179857600000E-01  5.006267100000E-01
   3   5     4.805631700000E-01  1.184417900000E-01  4.991968400000E-01
   4   5     9.251334000000E-02  3.426709400000E-01  5.054113600000E-01
   5   5     2.499976400000E-01  3.399964500000E-01  5.094549600000E-01
   6   5     2.518786200000E-01  5.025416000000E-01  5.034897600000E-01
   7   1     7.683865600000E-01  3.834248000000E-02  5.045148300000E-01
   8   1    -3.404059000000E-02  4.264638800000E-01  4.929253500000E-01
   9   1     7.716144200000E-01  3.292387400000E-01  4.927870600000E-01
  10   1    -3.705774000000E-02  1.357881400000E-01  5.040834400000E-01
  11   1     4.584488100000E-01  6.321892900000E-01  5.042054900000E-01
  12   1     2.749106100000E-01 -1.672174500000E-01  4.945574500000E-01
  13   1     1.762179700000E-01  6.383682600000E-01  4.958642000000E-01
  14   1     5.570522200000E-01 -1.731202000000E-01  5.023443000000E-01
  15   1     4.597838000000E-01  4.229891400000E-01  4.977615400000E-01
  16   1     2.702402800000E-01  3.692364000000E-02  5.060440700000E-01
  17   1     1.729746100000E-01  1.330412300000E-01  5.056792200000E-01
  18   1     5.573235400000E-01  3.266281500000E-01  4.986949200000E-01
  19   6     7.587692500000E-01  1.775492300000E-01  5.003767300000E-01
  20   6     8.128172900000E-01  1.234234400000E-01  5.021426900000E-01
  21   6    -7.844201000000E-02  3.411960500000E-01  4.957502700000E-01
  22   6     8.144886100000E-01  2.874899100000E-01  4.960874000000E-01
  23   6    -7.997852000000E-02  1.773344000000E-01  5.014990300000E-01
  24   6    -2.488857000000E-02  2.861800400000E-01  4.993159200000E-01
  25   6     3.112816400000E-01  6.227948000000E-01  5.018580800000E-01
  26   6     4.190497000000E-01  6.770671100000E-01  5.022482300000E-01
  27   6     3.140128100000E-01 -2.125516700000E-01  4.969722500000E-01
  28   6     2.595928900000E-01  6.798918100000E-01  4.980908500000E-01
  29   6     4.735205500000E-01 -2.152937300000E-01  5.008109400000E-01
  30   6     4.212789900000E-01 -1.594274200000E-01  4.991868000000E-01
  31   6     3.113946200000E-01  2.847627300000E-01  4.999579600000E-01
  32   6     4.193925000000E-01  3.383141600000E-01  4.994065200000E-01
  33   6     3.113353200000E-01  1.218532300000E-01  5.039297100000E-01
  34   6     2.575977700000E-01  1.752256100000E-01  5.033218200000E-01
  35   6     4.729531400000E-01  2.847452400000E-01  5.003448100000E-01
  36   6     4.198637100000E-01  1.763544100000E-01  5.015865600000E-01
  37   8     4.277936300000E-01  1.233356000000E-02  4.995866800000E-01
  38   8     5.861469200000E-01  1.102357000000E-02  5.025765000000E-01
  39   8     5.869739400000E-01  1.721967900000E-01  4.980571200000E-01
  40   8     1.460768100000E-01  4.499776800000E-01  5.027231600000E-01
  41   8     1.438182200000E-01  2.868912400000E-01  5.102103500000E-01
  42   8     3.042188900000E-01  4.483594300000E-01  5.051947100000E-01

 *******************************************************************************

 << INFORMATION >>: FROM NOW ON, ALL COORDINATES REFER TO THE PRIMITIVE CELL

 *******************************************************************************

 LATTICE PARAMETERS  (ANGSTROMS AND DEGREES) - PRIMITIVE CELL
       A          B          C        ALPHA      BETA     GAMMA        VOLUME
   15.02070   15.04439    8.01311    40.87852  89.99965 120.05310    762.910531

 COORDINATES OF THE EQUIVALENT ATOMS (FRACTIONAL UNITS)

 N. ATOM EQUIV AT. N.          X                  Y                  Z

   1   1   1    5 B     4.80632630000E-01 -4.10355900000E-02 -4.99383280000E-01

   2   2   1    5 B    -3.60590670000E-01  1.17985760000E-01 -4.99373290000E-01

   3   3   1    5 B     4.80563170000E-01  1.18441790000E-01  4.99196840000E-01

   4   4   1    5 B     9.25133400000E-02  3.42670940000E-01 -4.94588640000E-01

   5   5   1    5 B     2.49997640000E-01  3.39996450000E-01 -4.90545040000E-01

   6   6   1    5 B     2.51878620000E-01 -4.97458400000E-01 -4.96510240000E-01

   7   7   1    1 H    -2.31613440000E-01  3.83424800000E-02 -4.95485170000E-01

   8   8   1    1 H    -3.40405900000E-02  4.26463880000E-01  4.92925350000E-01

   9   9   1    1 H    -2.28385580000E-01  3.29238740000E-01  4.92787060000E-01

  10  10   1    1 H    -3.70577400000E-02  1.35788140000E-01 -4.95916560000E-01

  11  11   1    1 H     4.58448810000E-01 -3.67810710000E-01 -4.95794510000E-01

  12  12   1    1 H     2.74910610000E-01 -1.67217450000E-01  4.94557450000E-01

  13  13   1    1 H     1.76217970000E-01 -3.61631740000E-01  4.95864200000E-01

  14  14   1    1 H    -4.42947780000E-01 -1.73120200000E-01 -4.97655700000E-01

  15  15   1    1 H     4.59783800000E-01  4.22989140000E-01  4.97761540000E-01

  16  16   1    1 H     2.70240280000E-01  3.69236400000E-02 -4.93955930000E-01

  17  17   1    1 H     1.72974610000E-01  1.33041230000E-01 -4.94320780000E-01

  18  18   1    1 H    -4.42676460000E-01  3.26628150000E-01  4.98694920000E-01

  19  19   1    6 C    -2.41230750000E-01  1.77549230000E-01 -4.99623270000E-01

  20  20   1    6 C    -1.87182710000E-01  1.23423440000E-01 -4.97857310000E-01

  21  21   1    6 C    -7.84420100000E-02  3.41196050000E-01  4.95750270000E-01

  22  22   1    6 C    -1.85511390000E-01  2.87489910000E-01  4.96087400000E-01

  23  23   1    6 C    -7.99785200000E-02  1.77334400000E-01 -4.98500970000E-01

  24  24   1    6 C    -2.48885700000E-02  2.86180040000E-01  4.99315920000E-01

  25  25   1    6 C     3.11281640000E-01 -3.77205200000E-01 -4.98141920000E-01

  26  26   1    6 C     4.19049700000E-01 -3.22932890000E-01 -4.97751770000E-01

  27  27   1    6 C     3.14012810000E-01 -2.12551670000E-01  4.96972250000E-01

  28  28   1    6 C     2.59592890000E-01 -3.20108190000E-01  4.98090850000E-01

  29  29   1    6 C     4.73520550000E-01 -2.15293730000E-01 -4.99189060000E-01

  30  30   1    6 C     4.21278990000E-01 -1.59427420000E-01  4.99186800000E-01

  31  31   1    6 C     3.11394620000E-01  2.84762730000E-01  4.99957960000E-01

  32  32   1    6 C     4.19392500000E-01  3.38314160000E-01  4.99406520000E-01

  33  33   1    6 C     3.11335320000E-01  1.21853230000E-01 -4.96070290000E-01

  34  34   1    6 C     2.57597770000E-01  1.75225610000E-01 -4.96678180000E-01

  35  35   1    6 C     4.72953140000E-01  2.84745240000E-01 -4.99655190000E-01

  36  36   1    6 C     4.19863710000E-01  1.76354410000E-01 -4.98413440000E-01

  37  37   1    8 O     4.27793630000E-01  1.23335600000E-02  4.99586680000E-01

  38  38   1    8 O    -4.13853080000E-01  1.10235700000E-02 -4.97423500000E-01

  39  39   1    8 O    -4.13026060000E-01  1.72196790000E-01  4.98057120000E-01

  40  40   1    8 O     1.46076810000E-01  4.49977680000E-01 -4.97276840000E-01

  41  41   1    8 O     1.43818220000E-01  2.86891240000E-01 -4.89789650000E-01

  42  42   1    8 O     3.04218890000E-01  4.48359430000E-01 -4.94805290000E-01

 NUMBER OF SYMMETRY OPERATORS         :    1
 *******************************************************************************
 * GEOMETRY EDITING - INPUT COORDINATES ARE GIVEN IN ANGSTROM         
 *******************************************************************************

 GCALCO - MAX INDICES DIRECT LATTICE VECTOR     9    14    24
 NO.OF VECTORS CREATED 6999 STARS 3500 RMAX   212.63114 BOHR

 GEOMETRY FOR WAVE FUNCTION - DIMENSIONALITY OF THE SYSTEM    3
 (NON PERIODIC DIRECTION: LATTICE PARAMETER FORMALLY SET TO 500)
 *******************************************************************************
 LATTICE PARAMETERS (ANGSTROMS AND DEGREES) - BOHR = 0.5291772083 ANGSTROM
 PRIMITIVE CELL - CENTRING CODE 1/0 VOLUME=   762.910531 - DENSITY  0.849 g/cm^3
         A              B              C           ALPHA      BETA       GAMMA 
    15.02070100    15.04438700     8.01311400    40.878524  89.999653 120.053104
 *******************************************************************************
 ATOMS IN THE ASYMMETRIC UNIT   42 - ATOMS IN THE UNIT CELL:   42
     ATOM                 X/A                 Y/B                 Z/C    
 *******************************************************************************
      1 T   5 B     4.806326300000E-01 -4.103559000000E-02 -4.993832800000E-01
      2 T   5 B    -3.605906700000E-01  1.179857600000E-01 -4.993732900000E-01
      3 T   5 B     4.805631700000E-01  1.184417900000E-01  4.991968400000E-01
      4 T   5 B     9.251334000000E-02  3.426709400000E-01 -4.945886400000E-01
      5 T   5 B     2.499976400000E-01  3.399964500000E-01 -4.905450400000E-01
      6 T   5 B     2.518786200000E-01 -4.974584000000E-01 -4.965102400000E-01
      7 T   1 H    -2.316134400000E-01  3.834248000000E-02 -4.954851700000E-01
      8 T   1 H    -3.404059000000E-02  4.264638800000E-01  4.929253500000E-01
      9 T   1 H    -2.283855800000E-01  3.292387400000E-01  4.927870600000E-01
     10 T   1 H    -3.705774000000E-02  1.357881400000E-01 -4.959165600000E-01
     11 T   1 H     4.584488100000E-01 -3.678107100000E-01 -4.957945100000E-01
     12 T   1 H     2.749106100000E-01 -1.672174500000E-01  4.945574500000E-01
     13 T   1 H     1.762179700000E-01 -3.616317400000E-01  4.958642000000E-01
     14 T   1 H    -4.429477800000E-01 -1.731202000000E-01 -4.976557000000E-01
     15 T   1 H     4.597838000000E-01  4.229891400000E-01  4.977615400000E-01
     16 T   1 H     2.702402800000E-01  3.692364000000E-02 -4.939559300000E-01
     17 T   1 H     1.729746100000E-01  1.330412300000E-01 -4.943207800000E-01
     18 T   1 H    -4.426764600000E-01  3.266281500000E-01  4.986949200000E-01
     19 T   6 C    -2.412307500000E-01  1.775492300000E-01 -4.996232700000E-01
     20 T   6 C    -1.871827100000E-01  1.234234400000E-01 -4.978573100000E-01
     21 T   6 C    -7.844201000000E-02  3.411960500000E-01  4.957502700000E-01
     22 T   6 C    -1.855113900000E-01  2.874899100000E-01  4.960874000000E-01
     23 T   6 C    -7.997852000000E-02  1.773344000000E-01 -4.985009700000E-01
     24 T   6 C    -2.488857000000E-02  2.861800400000E-01  4.993159200000E-01
     25 T   6 C     3.112816400000E-01 -3.772052000000E-01 -4.981419200000E-01
     26 T   6 C     4.190497000000E-01 -3.229328900000E-01 -4.977517700000E-01
     27 T   6 C     3.140128100000E-01 -2.125516700000E-01  4.969722500000E-01
     28 T   6 C     2.595928900000E-01 -3.201081900000E-01  4.980908500000E-01
     29 T   6 C     4.735205500000E-01 -2.152937300000E-01 -4.991890600000E-01
     30 T   6 C     4.212789900000E-01 -1.594274200000E-01  4.991868000000E-01
     31 T   6 C     3.113946200000E-01  2.847627300000E-01  4.999579600000E-01
     32 T   6 C     4.193925000000E-01  3.383141600000E-01  4.994065200000E-01
     33 T   6 C     3.113353200000E-01  1.218532300000E-01 -4.960702900000E-01
     34 T   6 C     2.575977700000E-01  1.752256100000E-01 -4.966781800000E-01
     35 T   6 C     4.729531400000E-01  2.847452400000E-01 -4.996551900000E-01
     36 T   6 C     4.198637100000E-01  1.763544100000E-01 -4.984134400000E-01
     37 T   8 O     4.277936300000E-01  1.233356000000E-02  4.995866800000E-01
     38 T   8 O    -4.138530800000E-01  1.102357000000E-02 -4.974235000000E-01
     39 T   8 O    -4.130260600000E-01  1.721967900000E-01  4.980571200000E-01
     40 T   8 O     1.460768100000E-01  4.499776800000E-01 -4.972768400000E-01
     41 T   8 O     1.438182200000E-01  2.868912400000E-01 -4.897896500000E-01
     42 T   8 O     3.042188900000E-01  4.483594300000E-01 -4.948052900000E-01

 T = ATOM BELONGING TO THE ASYMMETRIC UNIT

 ****    1 SYMMOPS - TRANSLATORS IN FRACTIONAL UNITS
 **** MATRICES AND TRANSLATORS IN THE CRYSTALLOGRAPHIC REFERENCE FRAME
   V INV                    ROTATION MATRICES                   TRANSLATORS
   1   1  1.00 -0.00  0.00  0.00  1.00  0.00 -0.00  0.00  1.00  0.00  0.00  0.00

 DIRECT LATTICE VECTORS CARTESIAN COMPONENTS (ANGSTROM)
          X                    Y                    Z
   0.130013421718E+02  -0.752240388864E+01   0.000000000000E+00
   0.000000000000E+00   0.150443870000E+02   0.000000000000E+00
   0.350554295542E+01   0.605870612439E+01   0.390041596024E+01


 CARTESIAN COORDINATES - PRIMITIVE CELL
 *******************************************************************************
 *      ATOM          X(ANGSTROM)         Y(ANGSTROM)         Z(ANGSTROM)
 *******************************************************************************
    1     5 B     9.927167868647E-01  1.727196276998E+00 -5.848218475833E+00
    2     5 B    -6.438737203506E+00  1.461976081664E+00 -1.947763550435E+00
    3     5 B    -1.497877042195E+00 -2.718961681928E-01  5.847491282281E+00
    4     5 B    -5.310041339912E-01  1.462784304223E+00 -1.929101425211E+00
    5     5 B     1.530678150486E+00  2.623867150002E-01 -1.913329703234E+00
    6     5 B     1.534222150246E+00  2.657487971534E+00 -1.936596464520E+00
    7     1 H    -4.748230132232E+00 -6.828700846474E-01 -1.932598265131E+00
    8     1 H    -2.220145325501E+00  3.599738431350E+00 -1.977802057894E+00
    9     1 H    -1.241832865972E+00 -5.387531426502E+00  1.922074513825E+00
   10     1 H    -2.220257161239E+00 -6.830000836094E-01 -1.934280865573E+00
   11     1 H     4.222420895184E+00  3.058389990750E+00 -1.933804819805E+00
   12     1 H     5.307899292161E+00 -1.587294421467E+00  1.928979771237E+00
   13     1 H     5.238004225182E-01  5.223865750194E+00 -1.966339320450E+00
   14     1 H    -3.997926129945E+00  3.771101303384E+00  1.959351725257E+00
   15     1 H     4.217188013442E+00 -1.379823596051E-01 -1.958938905232E+00
   16     1 H     1.781902618174E+00 -4.470096821802E+00 -1.926633593028E+00
   17     1 H     5.160393635903E-01 -2.294605465025E+00 -1.928056659792E+00
   18     1 H    -4.007191664138E+00 -3.779029616184E+00  1.945117625260E+00
   19     6 C    -4.887774357618E+00  1.458683893694E+00 -1.948738576417E+00
   20     6 C    -4.178886647227E+00  2.485228086510E-01 -1.941850597847E+00
   21     6 C    -2.787520501428E+00  2.668056972754E+00 -1.966783694840E+00
   22     6 C    -4.178384323231E+00  2.667542710380E+00 -1.965468747607E+00
   23     6 C    -2.787344668568E+00  2.492471919138E-01 -1.944361139584E+00
   24     6 C    -2.078754364273E+00  1.459127447304E+00 -1.952876176671E+00
   25     6 C     2.300821214973E+00  4.009884272068E+00 -1.942960695234E+00
   26     6 C     3.703318325806E+00  4.018066837671E+00 -1.941438947947E+00
   27     6 C     5.824745559159E+00 -2.548831949275E+00  1.938398495698E+00
   28     6 C     1.615591903204E+00  5.234872901577E+00 -1.957654459252E+00
   29     6 C     9.009310477844E-01 -8.397339589104E-01 -5.847460937045E+00
   30     6 C    -2.268686147400E+00 -4.006369382060E+00  5.847452122105E+00
   31     6 C     2.295629154332E+00 -1.087963157296E+00 -1.950371953608E+00
   32     6 C     3.697813449430E+00 -1.098059405355E+00 -1.952522798985E+00
   33     6 C     2.308781314974E+00 -3.514326976672E+00 -1.934880476518E+00
   34     6 C     1.607990055444E+00 -2.310819708621E+00 -1.937251500376E+00
   35     6 C     4.397462872909E+00 -2.301190912251E+00 -1.948863077694E+00
   36     6 C     3.711582035740E+00 -3.524980973015E+00 -1.944019736175E+00
   37     8 O    -2.182585287117E+00 -1.468913725304E+00  5.849011820439E+00
   38     8 O     2.371414268140E+00  1.728547052618E+00 -5.840574518642E+00
   39     8 O    -1.183895480805E-01 -2.705551635933E-01  5.843045900203E+00
   40     8 O     1.559692668136E-01  2.657935359671E+00 -1.939586523395E+00
   41     8 O     1.528512315582E-01  2.667525519650E-01 -1.910383368022E+00
   42     8 O     2.220692685341E+00  1.458955577980E+00 -1.929946450328E+00

 *******************************************************************************
 STARTING BASIS SET HANDLING 
 *******************************************************************************

 Loading internal basis set: SOLDEF2MSVP         

 Please cite in your publication:
 L. Dona', J. G. Brandenburg and B. Civalleri, J. Chem. Phys., 151, 121101 (2019
 )                                                                              
                                                                                
                    

 *******************************************************************************
 LOCAL ATOMIC FUNCTIONS BASIS SET
 *******************************************************************************
   ATOM   X(AU)   Y(AU)   Z(AU)  N. TYPE  EXPONENT  S COEF   P COEF   D/F/G COEF
 *******************************************************************************
   1 B    1.876   3.264 -11.052
                                  1 S  
                                         2.410E+03 1.755E-03 0.000E+00 0.000E+00
                                         3.619E+02 1.344E-02 0.000E+00 0.000E+00
                                         8.231E+01 6.637E-02 0.000E+00 0.000E+00
                                         2.311E+01 2.303E-01 0.000E+00 0.000E+00
                                         7.252E+00 5.150E-01 0.000E+00 0.000E+00
                                  2 S  
                                         2.367E+00 1.000E+00 0.000E+00 0.000E+00
                                  3 S  
                                         5.533E-01 1.000E+00 0.000E+00 0.000E+00
                                  4 S  
                                         1.716E-01 1.000E+00 0.000E+00 0.000E+00
                           5-     7 P  
                                         6.002E+00 0.000E+00-3.555E-02 0.000E+00
                                         1.240E+00 0.000E+00-1.983E-01 0.000E+00
                                         3.367E-01 0.000E+00-5.048E-01 0.000E+00
                           8-    10 P  
                                         1.256E-01 0.000E+00 1.000E+00 0.000E+00
                          11-    15 D  
                                         8.880E-01 0.000E+00 0.000E+00 1.000E+00
   2 B  -12.167   2.763  -3.681
   3 B   -2.831  -0.514  11.050
   4 B   -1.003   2.764  -3.645
   5 B    2.893   0.496  -3.616
   6 B    2.899   5.022  -3.660
   7 H   -8.973  -1.290  -3.652
                                 91 S  
                                         1.874E+01 1.968E-02 0.000E+00 0.000E+00
                                         2.826E+00 1.380E-01 0.000E+00 0.000E+00
                                         6.401E-01 4.783E-01 0.000E+00 0.000E+00
                                 92 S  
                                         1.756E-01 1.000E+00 0.000E+00 0.000E+00
   8 H   -4.195   6.803  -3.738
   9 H   -2.347 -10.181   3.632
  10 H   -4.196  -1.291  -3.655
  11 H    7.979   5.780  -3.654
  12 H   10.030  -3.000   3.645
  13 H    0.990   9.872  -3.716
  14 H   -7.555   7.126   3.703
  15 H    7.969  -0.261  -3.702
  16 H    3.367  -8.447  -3.641
  17 H    0.975  -4.336  -3.643
  18 H   -7.572  -7.141   3.676
  19 C   -9.237   2.757  -3.683
                                115 S  
                                         3.624E+03 1.634E-03 0.000E+00 0.000E+00
                                         5.440E+02 1.252E-02 0.000E+00 0.000E+00
                                         1.237E+02 6.211E-02 0.000E+00 0.000E+00
                                         3.476E+01 2.182E-01 0.000E+00 0.000E+00
                                         1.093E+01 4.980E-01 0.000E+00 0.000E+00
                                116 S  
                                         3.574E+00 1.000E+00 0.000E+00 0.000E+00
                                117 S  
                                         7.742E-01 1.000E+00 0.000E+00 0.000E+00
                                118 S  
                                         2.330E-01 1.000E+00 0.000E+00 0.000E+00
                         119-   121 P  
                                         9.443E+00 0.000E+00 3.790E-02 0.000E+00
                                         2.002E+00 0.000E+00 2.082E-01 0.000E+00
                                         5.463E-01 0.000E+00 5.047E-01 0.000E+00
                         122-   124 P  
                                         1.820E-01 0.000E+00 1.000E+00 0.000E+00
                         125-   129 D  
                                         8.880E-01 0.000E+00 0.000E+00 1.000E+00
  20 C   -7.897   0.470  -3.670
  21 C   -5.268   5.042  -3.717
  22 C   -7.896   5.041  -3.714
  23 C   -5.267   0.471  -3.674
  24 C   -3.928   2.757  -3.690
  25 C    4.348   7.578  -3.672
  26 C    6.998   7.593  -3.669
  27 C   11.007  -4.817   3.663
  28 C    3.053   9.892  -3.699
  29 C    1.703  -1.587 -11.050
  30 C   -4.287  -7.571  11.050
  31 C    4.338  -2.056  -3.686
  32 C    6.988  -2.075  -3.690
  33 C    4.363  -6.641  -3.656
  34 C    3.039  -4.367  -3.661
  35 C    8.310  -4.349  -3.683
  36 C    7.014  -6.661  -3.674
  37 O   -4.124  -2.776  11.053
                                385 S  
                                         6.773E+03 1.727E-03 0.000E+00 0.000E+00
                                         1.017E+03 1.325E-02 0.000E+00 0.000E+00
                                         2.313E+02 6.603E-02 0.000E+00 0.000E+00
                                         6.501E+01 2.353E-01 0.000E+00 0.000E+00
                                         2.050E+01 5.498E-01 0.000E+00 0.000E+00
                                386 S  
                                         6.716E+00 1.000E+00 0.000E+00 0.000E+00
                                387 S  
                                         1.147E+00 1.000E+00 0.000E+00 0.000E+00
                                388 S  
                                         3.342E-01 1.000E+00 0.000E+00 0.000E+00
                         389-   391 P  
                                         1.769E+01 0.000E+00 4.359E-02 0.000E+00
                                         3.854E+00 0.000E+00 2.318E-01 0.000E+00
                                         1.047E+00 0.000E+00 5.146E-01 0.000E+00
                         392-   394 P  
                                         2.759E-01 0.000E+00 1.000E+00 0.000E+00
                         395-   399 D  
                                         8.000E-01 0.000E+00 0.000E+00 1.000E+00
  38 O    4.481   3.266 -11.037
  39 O   -0.224  -0.511  11.042
  40 O    0.295   5.023  -3.665
  41 O    0.289   0.504  -3.610
  42 O    4.197   2.757  -3.647

 *******************************************************************************
 FINISHED BASIS SET HANDLING 
 *******************************************************************************

 INFORMATION **** SET_MPP **** PCRYSTAL CALCULATION
 INFORMATION **** READM2 **** NEW DEFAULT: FOCK/KS MATRIX MIXING SET TO 30 %
 INFORMATION **** READM2 **** NEW DEFAULT: FULL DIRECT SCF MODE
 INFORMATION **** READM2 **** NEW DEFAULT: COULOMB BIPOLAR BUFFER SET TO 32 Mb
 INFORMATION **** READM2 **** NEW DEFAULT: EXCHANGE BIPOLAR BUFFER SET TO 32 Mb

 *******************************************************************************
 NEW DEFAULT: DFT INTEGRATION GRID INCREASED TO XLGRID
 NEW DEFAULT: DIIS ACCELERATOR ACTIVE
 USE KEYWORD NODIIS TO TURN IT OFF
 *******************************************************************************

 WARNING **** RDDFTP **** HSEsol-HJS ACTIVE
 RANGE SEPARATION - OMEGA:   0.110000000000000     
 WARNING **** RDDFTP **** HSEsol-3c has to be combined with sol-def2-mSVP basis set
 *******************************************************************************
 N. OF ATOMS PER CELL        42  COULOMB OVERLAP TOL         (T1) 10**   -6
 NUMBER OF SHELLS           234  COULOMB PENETRATION TOL     (T2) 10**   -6
 NUMBER OF AO               474  EXCHANGE OVERLAP TOL        (T3) 10**   -6
 N. OF ELECTRONS PER CELL   198  EXCHANGE PSEUDO OVP (F(G))  (T4) 10**   -6
 CORE ELECTRONS PER CELL     60  EXCHANGE PSEUDO OVP (P(G))  (T5) 10**  -12
 N. OF SYMMETRY OPERATORS     1  POLE ORDER IN MONO ZONE                  4
 *******************************************************************************
 TYPE OF CALCULATION :  RESTRICTED CLOSED SHELL
 KOHN-SHAM HAMILTONIAN

 (EXCHANGE)[CORRELATION] FUNCTIONAL:(HSEsol GGA)[PBEsol]

 RANGE-SEPARATED HYBRID FUNCTIONAL 
 OMEGA (SHORT-RANGE)[LONG-RANGE]:(    0.1100)[    0.0000]

 HYBRID EXCHANGE - PERCENTAGE OF FOCK EXCHANGE    25.0000

 CAPPA:IS1  2;IS2  2;IS3  8; K PTS MONK NET  20; SYMMOPS:K SPACE   2;G SPACE   1

 *******************************************************************************
 MAX NUMBER OF SCF CYCLES      50  CONVERGENCE ON DELTAP        10**-16
 WEIGHT OF F(I) IN F(I+1)      30% CONVERGENCE ON ENERGY        10**- 6
 SHRINK. FACT.(MONKH.)    2  2  8  NUMBER OF K POINTS IN THE IBZ     20
 SHRINKING FACTOR(GILAT NET)    8  NUMBER OF K POINTS(GILAT NET)   1028
 *******************************************************************************
 *** K POINTS COORDINATES (OBLIQUE COORDINATES IN UNITS OF IS =  2)
   1-R(  0  0  0)   2-R(  1  0  0)   3-R(  0  1  0)   4-R(  1  1  0)
   5-C(  0  0  1)   6-C(  1  0  1)   7-C(  0  1  1)   8-C(  1  1  1)
   9-C(  0  0  2)  10-C(  1  0  2)  11-C(  0  1  2)  12-C(  1  1  2)
  13-C(  0  0  3)  14-C(  1  0  3)  15-C(  0  1  3)  16-C(  1  1  3)
  17-R(  0  0  4)  18-R(  1  0  4)  19-R(  0  1  4)  20-R(  1  1  4)

 DIRECT LATTICE VECTORS COMPON. (A.U.)     RECIP. LATTICE VECTORS COMPON. (A.U.) 
        X            Y            Z              X            Y            Z
   24.5689761  -14.2152832    0.0000000      0.2557366    0.0000000   -0.2298461
    0.0000000   28.4297713    0.0000000      0.1278719    0.2210072   -0.4582276
    6.6245161   11.4492953    7.3707180      0.0000000    0.0000000    0.8524523

 DISK SPACE FOR EIGENVECTORS (FTN 10)     7189632 REALS

 SYMMETRY ADAPTION OF THE BLOCH FUNCTIONS DISABLED
 TTTTTTTTTTTTTTTTTTTTTTTTTTTTTT gordsh1     TELAPSE        0.04 TCPU        0.04

 MATRIX SIZE: P(G)  300156, F(G)   59642, P(G) IRR  151263, F(G) IRR   60122
 MAX G-VECTOR INDEX FOR 1- AND 2-ELECTRON INTEGRALS  49

 TTTTTTTTTTTTTTTTTTTTTTTTTTTTTT INPUT       TELAPSE        0.39 TCPU        0.39

 NEIGHBORS OF THE NON-EQUIVALENT ATOMS

 N = NUMBER OF NEIGHBORS AT DISTANCE R
    ATOM  N     R/ANG      R/AU   NEIGHBORS (ATOM LABELS AND CELL INDICES)
   1 B    1     1.3787     2.6054   38 O    0 0 0
   1 B    1     1.3795     2.6068   37 O    1 2-3
   1 B    1     1.5517     2.9323   30 C    1 2-3
   1 B    1     2.3868     4.5104    2 B    1 1-1
   1 B    1     2.3912     4.5187    3 B    1 2-3
   1 B    1     2.5629     4.8432   27 C    0 1-2

   2 B    1     1.3792     2.6064   38 O   -1-1 1
   2 B    1     1.3798     2.6075   39 O    0 1-2
   2 B    1     1.5510     2.9309   19 C    0 0 0
   2 B    1     2.3868     4.5104    1 B   -1-1 1
   2 B    1     2.3894     4.5154    3 B    0 1-2
   2 B    1     2.5618     4.8411   22 C    0 0 0

   3 B    1     1.3790     2.6060   37 O    0 0 0
   3 B    1     1.3795     2.6069   39 O    0 0 0
   3 B    1     1.5529     2.9346   36 C   -1-1 2
   3 B    1     2.3894     4.5154    2 B    0-1 2
   3 B    1     2.3912     4.5187    1 B   -1-2 3
   3 B    1     2.5679     4.8526   35 C   -1-1 2

   4 B    1     1.3779     2.6038   41 O    0 0 0
   4 B    1     1.3786     2.6051   40 O    0 0 0
   4 B    1     1.5479     2.9252   24 C    0 0 0
   4 B    1     2.3857     4.5084    5 B    0 0 0
   4 B    1     2.3859     4.5087    6 B    0 0 0
   4 B    1     2.5585     4.8349   21 C    0 0 0

   5 B    1     1.3778     2.6037   41 O    0 0 0
   5 B    1     1.3814     2.6104   42 O    0 0 0
   5 B    1     1.5524     2.9336   31 C    0 0 0
   5 B    1     2.3857     4.5084    4 B    0 0 0
   5 B    1     2.3952     4.5263    6 B    0 0 0
   5 B    1     2.5591     4.8359   32 C    0 0 0

   6 B    1     1.3783     2.6045   40 O    0 0 0
   6 B    1     1.3812     2.6101   42 O    0 0 0
   6 B    1     1.5546     2.9377   25 C    0 0 0
   6 B    1     2.3859     4.5087    4 B    0 0 0
   6 B    1     2.3952     4.5263    5 B    0 0 0
   6 B    1     2.5605     4.8386   26 C    0 0 0

   7 H    1     1.0917     2.0629   20 C    0 0 0
   7 H    1     2.1462     4.0556   19 C    0 0 0
   7 H    1     2.1712     4.1029   23 C    0 0 0
   7 H    1     2.5280     4.7772   10 H    0 0 0
   7 H    1     2.5583     4.8346   38 O   -1-1 1
   7 H    1     2.7310     5.1609    2 B    0 0 0

   8 H    1     1.0909     2.0615   21 C    0 0 0
   8 H    1     2.1454     4.0543   24 C    0 0 0
   8 H    1     2.1688     4.0985   22 C    0 0 0
   8 H    1     2.5272     4.7758    9 H    0 1-1
   8 H    1     2.5562     4.8306   40 O    0 0 0
   8 H    1     2.7244     5.1483    4 B    0 0 0

   9 H    1     1.0908     2.0614   22 C    0-1 1
   9 H    1     2.1443     4.0521   19 C    0-1 1
   9 H    1     2.1694     4.0995   21 C    0-1 1
   9 H    1     2.5272     4.7758    8 H    0-1 1
   9 H    1     2.5616     4.8407   39 O    0 0-1
   9 H    1     2.7249     5.1492    2 B    0-1 1

  10 H    1     1.0912     2.0621   23 C    0 0 0
  10 H    1     2.1469     4.0570   24 C    0 0 0
  10 H    1     2.1689     4.0986   20 C    0 0 0
  10 H    1     2.5280     4.7772    7 H    0 0 0
  10 H    1     2.5562     4.8305   41 O    0 0 0
  10 H    1     2.7309     5.1607    4 B    0 0 0

  11 H    1     1.0911     2.0619   26 C    0 0 0
  11 H    1     2.1443     4.0521   25 C    0 0 0
  11 H    1     2.1684     4.0978   29 C    0 0 1
  11 H    1     2.5223     4.7664   14 H    1 1-1
  11 H    1     2.5622     4.8419   42 O    0 0 0
  11 H    1     2.7179     5.1361    6 B    0 0 0

  12 H    1     1.0917     2.0630   27 C    0 0 0
  12 H    1     2.1441     4.0518   30 C    1 1-1
  12 H    1     2.1716     4.1037   28 C    0-1 1
  12 H    1     2.5226     4.7669   13 H    0-1 1
  12 H    1     2.5541     4.8265   37 O    1 1-1
  12 H    1     2.7237     5.1471    1 B    0-1 2

  13 H    1     1.0919     2.0634   28 C    0 0 0
  13 H    1     2.1522     4.0671   25 C    0 0 0
  13 H    1     2.1668     4.0946   27 C    0 1-1
  13 H    1     2.5226     4.7669   12 H    0 1-1
  13 H    1     2.5923     4.8987   40 O    0 0 0
  13 H    1     2.7583     5.2124    6 B    0 0 0

  14 H    1     1.0915     2.0627   29 C   -1-1 2
  14 H    1     2.1483     4.0597   30 C    0 1-1
  14 H    1     2.1679     4.0968   26 C   -1-1 1
  14 H    1     2.5223     4.7664   11 H   -1-1 1
  14 H    1     2.5809     4.8771   38 O   -1-1 2
  14 H    1     2.7404     5.1785    1 B   -1-1 2

  15 H    1     1.0916     2.0628   32 C    0 0 0
  15 H    1     2.1436     4.0508   31 C    0 0 0
  15 H    1     2.1707     4.1021   35 C    0 0 0
  15 H    1     2.5217     4.7654   18 H    1 1-1
  15 H    1     2.5568     4.8316   42 O    0 0 0
  15 H    1     2.7166     5.1336    5 B    0 0 0

  16 H    1     1.0914     2.0625   33 C    0 0 0
  16 H    1     2.1488     4.0606   36 C    0 0 0
  16 H    1     2.1663     4.0937   34 C    0 0 0
  16 H    1     2.5170     4.7564   17 H    0 0 0
  16 H    1     2.5780     4.8717   37 O    1 1-2
  16 H    1     2.7396     5.1770    3 B    1 1-2

  17 H    1     1.0921     2.0638   34 C    0 0 0
  17 H    1     2.1502     4.0633   31 C    0 0 0
  17 H    1     2.1683     4.0976   33 C    0 0 0
  17 H    1     2.5170     4.7564   16 H    0 0 0
  17 H    1     2.5870     4.8888   41 O    0 0 0
  17 H    1     2.7510     5.1986    5 B    0 0 0

  18 H    1     1.0913     2.0622   35 C   -1-1 1
  18 H    1     2.1495     4.0619   36 C   -1-1 1
  18 H    1     2.1656     4.0923   32 C   -1-1 1
  18 H    1     2.5217     4.7654   15 H   -1-1 1
  18 H    1     2.5789     4.8734   39 O    0 0-1
  18 H    1     2.7392     5.1763    3 B    0 0-1

  19 C    1     1.4017     2.6489   22 C    0 0 0
  19 C    1     1.4025     2.6504   20 C    0 0 0
  19 C    1     1.5510     2.9309    2 B    0 0 0
  19 C    1     2.1443     4.0521    9 H    0 1-1
  19 C    1     2.1462     4.0556    7 H    0 0 0
  19 C    1     2.4236     4.5800   21 C    0 0 0

  20 C    1     1.0917     2.0629    7 H    0 0 0
  20 C    1     1.3915     2.6296   23 C    0 0 0
  20 C    1     1.4025     2.6504   19 C    0 0 0
  20 C    1     2.1689     4.0986   10 H    0 0 0
  20 C    1     2.4191     4.5715   22 C    0 0 0
  20 C    1     2.4241     4.5809   24 C    0 0 0

  21 C    1     1.0909     2.0615    8 H    0 0 0
  21 C    1     1.3909     2.6284   22 C    0 0 0
  21 C    1     1.4014     2.6484   24 C    0 0 0
  21 C    1     2.1694     4.0995    9 H    0 1-1
  21 C    1     2.4189     4.5711   23 C    0 0 0
  21 C    1     2.4236     4.5800   19 C    0 0 0

  22 C    1     1.0908     2.0614    9 H    0 1-1
  22 C    1     1.3909     2.6284   21 C    0 0 0
  22 C    1     1.4017     2.6489   19 C    0 0 0
  22 C    1     2.1688     4.0985    8 H    0 0 0
  22 C    1     2.4191     4.5715   20 C    0 0 0
  22 C    1     2.4226     4.5780   24 C    0 0 0

  23 C    1     1.0912     2.0621   10 H    0 0 0
  23 C    1     1.3915     2.6296   20 C    0 0 0
  23 C    1     1.4021     2.6497   24 C    0 0 0
  23 C    1     2.1712     4.1029    7 H    0 0 0
  23 C    1     2.4189     4.5711   21 C    0 0 0
  23 C    1     2.4237     4.5802   19 C    0 0 0

  24 C    1     1.4014     2.6484   21 C    0 0 0
  24 C    1     1.4021     2.6497   23 C    0 0 0
  24 C    1     1.5479     2.9252    4 B    0 0 0
  24 C    1     2.1454     4.0543    8 H    0 0 0
  24 C    1     2.1469     4.0570   10 H    0 0 0
  24 C    1     2.4226     4.5780   22 C    0 0 0

  25 C    1     1.4025     2.6504   26 C    0 0 0
  25 C    1     1.4037     2.6526   28 C    0 0 0
  25 C    1     1.5546     2.9377    6 B    0 0 0
  25 C    1     2.1443     4.0521   11 H    0 0 0
  25 C    1     2.1522     4.0671   13 H    0 0 0
  25 C    1     2.4271     4.5866   27 C    0 1-1

  26 C    1     1.0911     2.0619   11 H    0 0 0
  26 C    1     1.3916     2.6298   29 C    0 0 1
  26 C    1     1.4025     2.6504   25 C    0 0 0
  26 C    1     2.1679     4.0968   14 H    1 1-1
  26 C    1     2.4165     4.5665   28 C    0 0 0
  26 C    1     2.4246     4.5819   30 C    1 2-2

  27 C    1     1.0917     2.0630   12 H    0 0 0
  27 C    1     1.3928     2.6320   28 C    0-1 1
  27 C    1     1.4024     2.6502   30 C    1 1-1
  27 C    1     2.1668     4.0946   13 H    0-1 1
  27 C    1     2.4166     4.5668   29 C    0-1 2
  27 C    1     2.4271     4.5866   25 C    0-1 1

  28 C    1     1.0919     2.0634   13 H    0 0 0
  28 C    1     1.3928     2.6320   27 C    0 1-1
  28 C    1     1.4037     2.6526   25 C    0 0 0
  28 C    1     2.1716     4.1037   12 H    0 1-1
  28 C    1     2.4165     4.5665   26 C    0 0 0
  28 C    1     2.4277     4.5877   30 C    1 2-2

  29 C    1     1.0915     2.0627   14 H    1 1-2
  29 C    1     1.3916     2.6298   26 C    0 0-1
  29 C    1     1.4023     2.6499   30 C    1 2-3
  29 C    1     2.1684     4.0978   11 H    0 0-1
  29 C    1     2.4166     4.5668   27 C    0 1-2
  29 C    1     2.4281     4.5884   25 C    0 0-1

  30 C    1     1.4023     2.6499   29 C   -1-2 3
  30 C    1     1.4024     2.6502   27 C   -1-1 1
  30 C    1     1.5517     2.9323    1 B   -1-2 3
  30 C    1     2.1441     4.0518   12 H   -1-1 1
  30 C    1     2.1483     4.0597   14 H    0-1 1
  30 C    1     2.4246     4.5819   26 C   -1-2 2

  31 C    1     1.4022     2.6498   32 C    0 0 0
  31 C    1     1.4030     2.6513   34 C    0 0 0
  31 C    1     1.5524     2.9336    5 B    0 0 0
  31 C    1     2.1436     4.0508   15 H    0 0 0
  31 C    1     2.1502     4.0633   17 H    0 0 0
  31 C    1     2.4264     4.5853   33 C    0 0 0

  32 C    1     1.0916     2.0628   15 H    0 0 0
  32 C    1     1.3918     2.6301   35 C    0 0 0
  32 C    1     1.4022     2.6498   31 C    0 0 0
  32 C    1     2.1656     4.0923   18 H    1 1-1
  32 C    1     2.4163     4.5661   34 C    0 0 0
  32 C    1     2.4270     4.5863   36 C    0 0 0

  33 C    1     1.0914     2.0625   16 H    0 0 0
  33 C    1     1.3927     2.6318   34 C    0 0 0
  33 C    1     1.4029     2.6510   36 C    0 0 0
  33 C    1     2.1683     4.0976   17 H    0 0 0
  33 C    1     2.4155     4.5646   35 C    0 0 0
  33 C    1     2.4264     4.5853   31 C    0 0 0

  34 C    1     1.0921     2.0638   17 H    0 0 0
  34 C    1     1.3927     2.6318   33 C    0 0 0
  34 C    1     1.4030     2.6513   31 C    0 0 0
  34 C    1     2.1663     4.0937   16 H    0 0 0
  34 C    1     2.4163     4.5661   32 C    0 0 0
  34 C    1     2.4289     4.5899   36 C    0 0 0

  35 C    1     1.0913     2.0622   18 H    1 1-1
  35 C    1     1.3918     2.6301   32 C    0 0 0
  35 C    1     1.4029     2.6511   36 C    0 0 0
  35 C    1     2.1707     4.1021   15 H    0 0 0
  35 C    1     2.4155     4.5646   33 C    0 0 0
  35 C    1     2.4269     4.5861   31 C    0 0 0

  36 C    1     1.4029     2.6510   33 C    0 0 0
  36 C    1     1.4029     2.6511   35 C    0 0 0
  36 C    1     1.5529     2.9346    3 B    1 1-2
  36 C    1     2.1488     4.0606   16 H    0 0 0
  36 C    1     2.1495     4.0619   18 H    1 1-1
  36 C    1     2.4270     4.5863   32 C    0 0 0

  37 O    1     1.3790     2.6060    3 B    0 0 0
  37 O    1     1.3795     2.6068    1 B   -1-2 3
  37 O    1     2.3868     4.5105   39 O    0 0 0
  37 O    1     2.3885     4.5136   38 O   -1-2 3
  37 O    1     2.5389     4.7979   30 C    0 0 0
  37 O    1     2.5412     4.8022   36 C   -1-1 2

  38 O    1     1.3787     2.6054    1 B    0 0 0
  38 O    1     1.3792     2.6064    2 B    1 1-1
  38 O    1     2.3885     4.5136   37 O    1 2-3
  38 O    1     2.3912     4.5188   39 O    1 2-3
  38 O    1     2.5351     4.7906   19 C    1 1-1
  38 O    1     2.5405     4.8008   30 C    1 2-3

  39 O    1     1.3795     2.6069    3 B    0 0 0
  39 O    1     1.3798     2.6075    2 B    0-1 2
  39 O    1     2.3868     4.5105   37 O    0 0 0
  39 O    1     2.3912     4.5188   38 O   -1-2 3
  39 O    1     2.5416     4.8030   19 C    0-1 2
  39 O    1     2.5427     4.8050   36 C   -1-1 2

  40 O    1     1.3783     2.6045    6 B    0 0 0
  40 O    1     1.3786     2.6051    4 B    0 0 0
  40 O    1     2.3876     4.5119   42 O    0 0 0
  40 O    1     2.3914     4.5190   41 O    0 0 0
  40 O    1     2.5354     4.7912   25 C    0 0 0
  40 O    1     2.5360     4.7923   24 C    0 0 0

  41 O    1     1.3778     2.6037    5 B    0 0 0
  41 O    1     1.3779     2.6038    4 B    0 0 0
  41 O    1     2.3870     4.5107   42 O    0 0 0
  41 O    1     2.3914     4.5190   40 O    0 0 0
  41 O    1     2.5305     4.7820   24 C    0 0 0
  41 O    1     2.5354     4.7912   31 C    0 0 0

  42 O    1     1.3812     2.6101    6 B    0 0 0
  42 O    1     1.3814     2.6104    5 B    0 0 0
  42 O    1     2.3870     4.5107   41 O    0 0 0
  42 O    1     2.3876     4.5119   40 O    0 0 0
  42 O    1     2.5481     4.8152   31 C    0 0 0
  42 O    1     2.5522     4.8230   25 C    0 0 0


 SYMMETRY ALLOWED INTERNAL DEGREE(S) OF FREEDOM: 123
 TTTTTTTTTTTTTTTTTTTTTTTTTTTTTT SYMM        TELAPSE        0.40 TCPU        0.39
 TTTTTTTTTTTTTTTTTTTTTTTTTTTTTT INT_SCREEN  TELAPSE        0.43 TCPU        0.43

 DFT PARAMETERS

     ATOM       ELECTRONS   NET CHARGE   R(ANGSTROM)
   1   5  B       5.0000      0.0000     0.89000000
   7   1  H       1.0000      0.0000     1.11000000
  19   6  C       6.0000      0.0000     0.77000000
  37   8  O       8.0000      0.0000     0.74000000

 SIZE OF GRID=    1320371
 TTTTTTTTTTTTTTTTTTTTTTTTTTTTTT MAKE_GRID2  TELAPSE        8.42 TCPU        8.42
 BECKE WEIGHT FUNCTION
 RADSAFE =     2.00
 TOLERANCES - DENSITY:10**- 6; POTENTIAL:10**- 9; GRID WGT:10**-14

 RADIAL INTEGRATION  - INTERVALS (POINTS,UPPER LIMIT):            1( 75,  4.0*R)

 ANGULAR INTEGRATION - INTERVALS (ACCURACY LEVEL [N. POINTS] UPPER LIMIT):
  1(  4[  86]   0.2)  2(  8[ 194]   0.5)  3( 12[ 350]   0.9)  4( 16[ 974]   3.5)
  5( 12[ 350]9999.0)
 TTTTTTTTTTTTTTTTTTTTTTTTTTTTTT INT_CALC    TELAPSE        8.50 TCPU        8.49
 EEEEEEEEEE INT_CALC TERMINATION  DATE 02 12 2025 TIME 08:04:01.7

 *******************************************************************************
 COF-5_z39_inc_L070                                                              
 CRYSTAL - SCF - TYPE OF CALCULATION :  RESTRICTED CLOSED SHELL
 *******************************************************************************

 CAPPA:IS1  2;IS2  2;IS3  8; K PTS MONK NET  20; SYMMOPS:K SPACE   2;G SPACE   1

 TTTTTTTTTTTTTTTTTTTTTTTTTTTTTT SDIK        TELAPSE        9.31 TCPU       19.27

 AAAAAAAAAAAAAAAAAAAAAAAAAAAAAAAAAAAAAAAAAAAAAAAAAAAAAAAAAAAAAAAAAAAAAAAAAAAAAAA
         ATOMIC WAVEFUNCTION(S)


 NUCLEAR CHARGE  5.0  SYMMETRY SPECIES            S    P
 N. ELECTRONS    5.0  NUMBER OF PRIMITIVE GTOS    8    4
                      NUMBER OF CONTRACTED GTOS   4    2
                      NUMBER OF CLOSED SHELLS     2    0
                      OPEN SHELL OCCUPATION       0    1

  ZNUC  SCFIT    TOTAL HF ENERGY   KINETIC ENERGY   VIRIAL THEOREM ACCURACY
   5.0    11    -2.451164084E+01  2.462155050E+01 -1.995536038E+00  1.5E-06

 NUCLEAR CHARGE  1.0  SYMMETRY SPECIES            S
 N. ELECTRONS    1.0  NUMBER OF PRIMITIVE GTOS    4
                      NUMBER OF CONTRACTED GTOS   2
                      NUMBER OF CLOSED SHELLS     0
                      OPEN SHELL OCCUPATION       1

  ZNUC  SCFIT    TOTAL HF ENERGY   KINETIC ENERGY   VIRIAL THEOREM ACCURACY
   1.0     1    -4.977266687E-01  5.190767460E-01 -1.958869132E+00  0.0E+00

 NUCLEAR CHARGE  6.0  SYMMETRY SPECIES            S    P
 N. ELECTRONS    6.0  NUMBER OF PRIMITIVE GTOS    8    4
                      NUMBER OF CONTRACTED GTOS   4    2
                      NUMBER OF CLOSED SHELLS     2    0
                      OPEN SHELL OCCUPATION       0    2

  ZNUC  SCFIT    TOTAL HF ENERGY   KINETIC ENERGY   VIRIAL THEOREM ACCURACY
   6.0     9    -3.766704647E+01  3.775180683E+01 -1.997754800E+00  1.1E-06

 NUCLEAR CHARGE  8.0  SYMMETRY SPECIES            S    P
 N. ELECTRONS    8.0  NUMBER OF PRIMITIVE GTOS    8    4
                      NUMBER OF CONTRACTED GTOS   4    2
                      NUMBER OF CLOSED SHELLS     2    0
                      OPEN SHELL OCCUPATION       0    4

  ZNUC  SCFIT    TOTAL HF ENERGY   KINETIC ENERGY   VIRIAL THEOREM ACCURACY
   8.0    12    -7.477373220E+01  7.477365593E+01 -2.000001020E+00  3.8E-06

 AAAAAAAAAAAAAAAAAAAAAAAAAAAAAAAAAAAAAAAAAAAAAAAAAAAAAAAAAAAAAAAAAAAAAAAAAAAAAAA

 CHARGE NORMALIZATION FACTOR   1.00000000
 TOTAL ATOMIC CHARGES:
   5.0000000   5.0000000   5.0000000   5.0000000   5.0000000   5.0000000
   1.0000000   1.0000000   1.0000000   1.0000000   1.0000000   1.0000000
   1.0000000   1.0000000   1.0000000   1.0000000   1.0000000   1.0000000
   6.0000000   6.0000000   6.0000000   6.0000000   6.0000000   6.0000000
   6.0000000   6.0000000   6.0000000   6.0000000   6.0000000   6.0000000
   6.0000000   6.0000000   6.0000000   6.0000000   6.0000000   6.0000000
   8.0000000   8.0000000   8.0000000   8.0000000   8.0000000   8.0000000
 TTTTTTTTTTTTTTTTTTTTTTTTTTTTTT MOQGAD      TELAPSE        9.40 TCPU       21.22
 TTTTTTTTTTTTTTTTTTTTTTTTTTTTTT SHELLXN     TELAPSE       15.71 TCPU      207.70
 TTTTTTTTTTTTTTTTTTTTTTTTTTTTTT MONMO3      TELAPSE       15.84 TCPU      211.90
 NUMERICALLY INTEGRATED DENSITY    197.9999775659
 TTTTTTTTTTTTTTTTTTTTTTTTTTTTTT NUMDFT      TELAPSE       16.42 TCPU      230.61
 CYC   0 ETOT(AU) -1.295947931588E+03 DETOT -1.30E+03 tst  0.00E+00 PX  1.00E+00
 TTTTTTTTTTTTTTTTTTTTTTTTTTTTTT DIIS        TELAPSE       16.46 TCPU      231.74
 TTTTTTTTTTTTTTTTTTTTTTTTTTTTTT FDIK        TELAPSE       16.95 TCPU      247.41
 INSULATING STATE
 TOP OF VALENCE BANDS -    BAND     99; K    1; EIG -3.1138421E-01 AU
 BOTTOM OF VIRTUAL BANDS - BAND    100; K   17; EIG -1.5707315E-01 AU
 INDIRECT ENERGY BAND GAP:   4.1990 eV
 BOTTOM OF VIRTUAL BANDS - BAND    100; K    1; EIG -1.5670009E-01 AU
 TTTTTTTTTTTTTTTTTTTTTTTTTTTTTT PDIG        TELAPSE       17.28 TCPU      253.59
 CHARGE NORMALIZATION FACTOR   1.00000000
 TOTAL ATOMIC CHARGES:
   4.1522966   4.1631790   4.1642244   4.1660555   4.1632286   4.1506551
   0.7851962   0.7851605   0.7852742   0.7853109   0.7855204   0.7854121
   0.7863906   0.7859443   0.7849167   0.7854971   0.7854876   0.7857274
   6.0435770   6.2654153   6.2654622   6.2660632   6.2647706   6.0458176
   6.0425561   6.2664515   6.2645786   6.2671330   6.2668842   6.0458259
   6.0427508   6.2654981   6.2663855   6.2655804   6.2671871   6.0403418
   8.6941558   8.6934063   8.6937551   8.6930629   8.6923598   8.6955039
 TTTTTTTTTTTTTTTTTTTTTTTTTTTTTT MOQGAD      TELAPSE       17.32 TCPU      253.63
 TTTTTTTTTTTTTTTTTTTTTTTTTTTTTT SHELLXN     TELAPSE       23.38 TCPU      446.91
 TTTTTTTTTTTTTTTTTTTTTTTTTTTTTT MONMO3      TELAPSE       23.51 TCPU      451.09
 NUMERICALLY INTEGRATED DENSITY    197.9999967175
 TTTTTTTTTTTTTTTTTTTTTTTTTTTTTT NUMDFT      TELAPSE       24.10 TCPU      470.02
 CYC   1 ETOT(AU) -1.288813439657E+03 DETOT  7.13E+00 tst  0.00E+00 PX  1.00E+00
 TTTTTTTTTTTTTTTTTTTTTTTTTTTTTT DIIS        TELAPSE       24.15 TCPU      471.53
 DIIS TEST: 0.11134E+01 AT SCF   CYCLE   1 - MIX   30 %
 TTTTTTTTTTTTTTTTTTTTTTTTTTTTTT FDIK        TELAPSE       24.65 TCPU      487.45
 INSULATING STATE
 TOP OF VALENCE BANDS -    BAND     99; K    1; EIG -2.2264736E-01 AU
 BOTTOM OF VIRTUAL BANDS - BAND    100; K    1; EIG -8.2157147E-02 AU
 DIRECT ENERGY BAND GAP:   3.8229 eV
 TTTTTTTTTTTTTTTTTTTTTTTTTTTTTT PDIG        TELAPSE       24.97 TCPU      493.63
 CHARGE NORMALIZATION FACTOR   1.00000000
 TOTAL ATOMIC CHARGES:
   4.7128077   4.7058901   4.7061755   4.7069549   4.7059434   4.7127904
   0.9082471   0.9087222   0.9100611   0.9100261   0.9056129   0.9052873
   0.9060027   0.9063017   0.9079533   0.9083128   0.9099437   0.9099740
   5.8688942   6.1436275   6.1420895   6.1307740   6.1320823   5.8646150
   5.8927766   6.1237678   6.1247923   6.1295578   6.1258816   5.8861344
   5.8692970   6.1389559   6.1414138   6.1325174   6.1300891   5.8714186
   8.3367260   8.3356687   8.3298486   8.3347558   8.3266094   8.3406997
 TTTTTTTTTTTTTTTTTTTTTTTTTTTTTT MOQGAD      TELAPSE       25.01 TCPU      493.67
 TTTTTTTTTTTTTTTTTTTTTTTTTTTTTT SHELLXN     TELAPSE       31.08 TCPU      687.06
 TTTTTTTTTTTTTTTTTTTTTTTTTTTTTT MONMO3      TELAPSE       31.21 TCPU      691.24
 NUMERICALLY INTEGRATED DENSITY    197.9999946262
 TTTTTTTTTTTTTTTTTTTTTTTTTTTTTT NUMDFT      TELAPSE       31.81 TCPU      710.28
 CYC   2 ETOT(AU) -1.289007735077E+03 DETOT -1.94E-01 tst  3.30E-03 PX  1.59E-01
 TTTTTTTTTTTTTTTTTTTTTTTTTTTTTT DIIS        TELAPSE       31.85 TCPU      711.74
 DIIS TEST: 0.46320E+00 AT SCF   CYCLE   2 - DIIS ACTIVE - HISTORY:     2 CYCLES
 TTTTTTTTTTTTTTTTTTTTTTTTTTTTTT FDIK        TELAPSE       32.35 TCPU      727.52
 INSULATING STATE
 TOP OF VALENCE BANDS -    BAND     99; K    1; EIG -2.3607707E-01 AU
 BOTTOM OF VIRTUAL BANDS - BAND    100; K    1; EIG -7.6284431E-02 AU
 DIRECT ENERGY BAND GAP:   4.3482 eV
 TTTTTTTTTTTTTTTTTTTTTTTTTTTTTT PDIG        TELAPSE       32.67 TCPU      733.71
 CHARGE NORMALIZATION FACTOR   1.00000000
 TOTAL ATOMIC CHARGES:
   4.5003921   4.5007416   4.5011508   4.5029065   4.5009768   4.4993187
   0.8873755   0.8871997   0.8884034   0.8884673   0.8833453   0.8830923
   0.8845793   0.8839858   0.8861435   0.8872433   0.8885899   0.8882212
   5.8905550   6.1609407   6.1615668   6.1607340   6.1608192   5.8924142
   5.8893123   6.1614412   6.1622905   6.1641221   6.1646764   5.8920762
   5.8917866   6.1607065   6.1611656   6.1619216   6.1621016   5.8907985
   8.5107771   8.5101325   8.5136048   8.5093915   8.5117216   8.5128105
 TTTTTTTTTTTTTTTTTTTTTTTTTTTTTT MOQGAD      TELAPSE       32.72 TCPU      733.75
 TTTTTTTTTTTTTTTTTTTTTTTTTTTTTT SHELLXN     TELAPSE       38.78 TCPU      927.16
 TTTTTTTTTTTTTTTTTTTTTTTTTTTTTT MONMO3      TELAPSE       38.91 TCPU      931.35
 NUMERICALLY INTEGRATED DENSITY    197.9999954183
 TTTTTTTTTTTTTTTTTTTTTTTTTTTTTT NUMDFT      TELAPSE       39.51 TCPU      950.30
 CYC   3 ETOT(AU) -1.289103229688E+03 DETOT -9.55E-02 tst  6.79E-04 PX  6.51E-02
 TTTTTTTTTTTTTTTTTTTTTTTTTTTTTT DIIS        TELAPSE       39.57 TCPU      952.21
 DIIS TEST: 0.13414E-01 AT SCF   CYCLE   3 - DIIS ACTIVE - HISTORY:     3 CYCLES
 TTTTTTTTTTTTTTTTTTTTTTTTTTTTTT FDIK        TELAPSE       40.07 TCPU      968.20
 INSULATING STATE
 TOP OF VALENCE BANDS -    BAND     99; K    1; EIG -2.4548435E-01 AU
 BOTTOM OF VIRTUAL BANDS - BAND    100; K    1; EIG -8.4972956E-02 AU
 DIRECT ENERGY BAND GAP:   4.3677 eV
 TTTTTTTTTTTTTTTTTTTTTTTTTTTTTT PDIG        TELAPSE       40.39 TCPU      974.38
 CHARGE NORMALIZATION FACTOR   1.00000000
 TOTAL ATOMIC CHARGES:
   4.5063105   4.5055682   4.5059510   4.5072566   4.5052426   4.5053700
   0.8697520   0.8701380   0.8714437   0.8716354   0.8669821   0.8669977
   0.8680259   0.8681246   0.8692305   0.8699134   0.8718182   0.8716359
   5.9399803   6.1727369   6.1711944   6.1648911   6.1646053   5.9371626
   5.9536993   6.1628301   6.1617601   6.1657853   6.1627081   5.9491743
   5.9390756   6.1701344   6.1718186   6.1653394   6.1646099   5.9398368
   8.4808252   8.4798134   8.4750950   8.4792233   8.4725060   8.4837985
 TTTTTTTTTTTTTTTTTTTTTTTTTTTTTT MOQGAD      TELAPSE       40.43 TCPU      974.42
 TTTTTTTTTTTTTTTTTTTTTTTTTTTTTT SHELLXN     TELAPSE       46.51 TCPU     1168.18
 TTTTTTTTTTTTTTTTTTTTTTTTTTTTTT MONMO3      TELAPSE       46.64 TCPU     1172.39
 NUMERICALLY INTEGRATED DENSITY    197.9999953423
 TTTTTTTTTTTTTTTTTTTTTTTTTTTTTT NUMDFT      TELAPSE       47.24 TCPU     1191.55
 CYC   4 ETOT(AU) -1.289106049958E+03 DETOT -2.82E-03 tst  3.21E-05 PX  1.37E-02
 TTTTTTTTTTTTTTTTTTTTTTTTTTTTTT DIIS        TELAPSE       47.31 TCPU     1193.61
 DIIS TEST: 0.39545E-02 AT SCF   CYCLE   4 - DIIS ACTIVE - HISTORY:     4 CYCLES
 TTTTTTTTTTTTTTTTTTTTTTTTTTTTTT FDIK        TELAPSE       47.83 TCPU     1210.27
 INSULATING STATE
 TOP OF VALENCE BANDS -    BAND     99; K    1; EIG -2.4378402E-01 AU
 BOTTOM OF VIRTUAL BANDS - BAND    100; K    1; EIG -8.4649768E-02 AU
 DIRECT ENERGY BAND GAP:   4.3303 eV
 TTTTTTTTTTTTTTTTTTTTTTTTTTTTTT PDIG        TELAPSE       48.15 TCPU     1216.45
 CHARGE NORMALIZATION FACTOR   1.00000000
 TOTAL ATOMIC CHARGES:
   4.5097813   4.5073942   4.5078036   4.5093107   4.5074695   4.5089198
   0.8731906   0.8731541   0.8744795   0.8745172   0.8697880   0.8694938
   0.8708645   0.8704541   0.8722712   0.8732141   0.8747038   0.8744744
   5.9204741   6.1702838   6.1704591   6.1656856   6.1659381   5.9211923
   5.9279723   6.1640460   6.1648544   6.1669787   6.1666288   5.9288299
   5.9216100   6.1691456   6.1699219   6.1667020   6.1662838   5.9210607
   8.4890187   8.4882149   8.4882918   8.4874602   8.4862393   8.4914236
 TTTTTTTTTTTTTTTTTTTTTTTTTTTTTT MOQGAD      TELAPSE       48.19 TCPU     1216.49
 TTTTTTTTTTTTTTTTTTTTTTTTTTTTTT SHELLXN     TELAPSE       54.40 TCPU     1414.11
 TTTTTTTTTTTTTTTTTTTTTTTTTTTTTT MONMO3      TELAPSE       54.53 TCPU     1418.32
 NUMERICALLY INTEGRATED DENSITY    197.9999953991
 TTTTTTTTTTTTTTTTTTTTTTTTTTTTTT NUMDFT      TELAPSE       55.13 TCPU     1437.40
 CYC   5 ETOT(AU) -1.289106955832E+03 DETOT -9.06E-04 tst  6.90E-06 PX  7.08E-03
 TTTTTTTTTTTTTTTTTTTTTTTTTTTTTT DIIS        TELAPSE       55.20 TCPU     1439.66
 DIIS TEST: 0.69994E-04 AT SCF   CYCLE   5 - DIIS ACTIVE - HISTORY:     5 CYCLES
 TTTTTTTTTTTTTTTTTTTTTTTTTTTTTT FDIK        TELAPSE       55.70 TCPU     1455.81
 INSULATING STATE
 TOP OF VALENCE BANDS -    BAND     99; K    1; EIG -2.4361245E-01 AU
 BOTTOM OF VIRTUAL BANDS - BAND    100; K    1; EIG -8.4072496E-02 AU
 DIRECT ENERGY BAND GAP:   4.3413 eV
 TTTTTTTTTTTTTTTTTTTTTTTTTTTTTT PDIG        TELAPSE       56.03 TCPU     1461.99
 CHARGE NORMALIZATION FACTOR   1.00000000
 TOTAL ATOMIC CHARGES:
   4.5087428   4.5076275   4.5080265   4.5094254   4.5075215   4.5077857
   0.8738728   0.8741531   0.8752617   0.8754386   0.8705783   0.8705763
   0.8716211   0.8715883   0.8732069   0.8739581   0.8755788   0.8753257
   5.9218805   6.1707173   6.1695163   6.1653655   6.1649996   5.9198620
   5.9296981   6.1644944   6.1635411   6.1674711   6.1650760   5.9265587
   5.9210790   6.1685872   6.1700490   6.1659528   6.1656032   5.9217043
   8.4892404   8.4883692   8.4863397   8.4877610   8.4838318   8.4920125
 TTTTTTTTTTTTTTTTTTTTTTTTTTTTTT MOQGAD      TELAPSE       56.07 TCPU     1462.03
 TTTTTTTTTTTTTTTTTTTTTTTTTTTTTT SHELLXN     TELAPSE       62.13 TCPU     1655.37
 TTTTTTTTTTTTTTTTTTTTTTTTTTTTTT MONMO3      TELAPSE       62.27 TCPU     1659.56
 NUMERICALLY INTEGRATED DENSITY    197.9999953895
 TTTTTTTTTTTTTTTTTTTTTTTTTTTTTT NUMDFT      TELAPSE       62.86 TCPU     1678.47
 CYC   6 ETOT(AU) -1.289106973567E+03 DETOT -1.77E-05 tst  1.77E-07 PX  1.31E-03
 TTTTTTTTTTTTTTTTTTTTTTTTTTTTTT DIIS        TELAPSE       62.93 TCPU     1680.70
 DIIS TEST: 0.12885E-04 AT SCF   CYCLE   6 - DIIS ACTIVE - HISTORY:     6 CYCLES
 TTTTTTTTTTTTTTTTTTTTTTTTTTTTTT FDIK        TELAPSE       63.42 TCPU     1696.58
 INSULATING STATE
 TOP OF VALENCE BANDS -    BAND     99; K    1; EIG -2.4360905E-01 AU
 BOTTOM OF VIRTUAL BANDS - BAND    100; K    1; EIG -8.4153284E-02 AU
 DIRECT ENERGY BAND GAP:   4.3390 eV
 TTTTTTTTTTTTTTTTTTTTTTTTTTTTTT PDIG        TELAPSE       63.74 TCPU     1702.75
 CHARGE NORMALIZATION FACTOR   1.00000000
 TOTAL ATOMIC CHARGES:
   4.5092656   4.5074772   4.5078912   4.5093780   4.5074994   4.5083580
   0.8739958   0.8740210   0.8753303   0.8753894   0.8706383   0.8703936
   0.8717054   0.8713803   0.8731235   0.8740310   0.8755699   0.8753440
   5.9208865   6.1698638   6.1697798   6.1650058   6.1652125   5.9211233
   5.9286581   6.1634934   6.1640386   6.1664594   6.1656639   5.9287152
   5.9217351   6.1685315   6.1694659   6.1659870   6.1654994   5.9213279
   8.4888381   8.4879847   8.4872452   8.4872575   8.4851325   8.4913028
 TTTTTTTTTTTTTTTTTTTTTTTTTTTTTT MOQGAD      TELAPSE       63.79 TCPU     1702.79
 TTTTTTTTTTTTTTTTTTTTTTTTTTTTTT SHELLXN     TELAPSE       69.85 TCPU     1896.15
 TTTTTTTTTTTTTTTTTTTTTTTTTTTTTT MONMO3      TELAPSE       69.98 TCPU     1900.33
 NUMERICALLY INTEGRATED DENSITY    197.9999953914
 TTTTTTTTTTTTTTTTTTTTTTTTTTTTTT NUMDFT      TELAPSE       70.58 TCPU     1919.25
 CYC   7 ETOT(AU) -1.289106975870E+03 DETOT -2.30E-06 tst  7.06E-08 PX  5.08E-04
 TTTTTTTTTTTTTTTTTTTTTTTTTTTTTT DIIS        TELAPSE       70.65 TCPU     1921.80
 DIIS TEST: 0.16645E-05 AT SCF   CYCLE   7 - DIIS ACTIVE - HISTORY:     7 CYCLES
 TTTTTTTTTTTTTTTTTTTTTTTTTTTTTT FDIK        TELAPSE       71.15 TCPU     1937.70
 INSULATING STATE
 TOP OF VALENCE BANDS -    BAND     99; K    1; EIG -2.4361315E-01 AU
 BOTTOM OF VIRTUAL BANDS - BAND    100; K    1; EIG -8.4173325E-02 AU
 DIRECT ENERGY BAND GAP:   4.3386 eV
 TTTTTTTTTTTTTTTTTTTTTTTTTTTTTT PDIG        TELAPSE       71.48 TCPU     1943.88
 CHARGE NORMALIZATION FACTOR   1.00000000
 TOTAL ATOMIC CHARGES:
   4.5093117   4.5075611   4.5079677   4.5094249   4.5075416   4.5083980
   0.8739183   0.8740328   0.8752727   0.8753811   0.8705632   0.8704127
   0.8716303   0.8713995   0.8731170   0.8739721   0.8755479   0.8753015
   5.9212533   6.1701332   6.1696543   6.1651227   6.1650652   5.9206395
   5.9290864   6.1638163   6.1637761   6.1667469   6.1654342   5.9280247
   5.9214586   6.1685258   6.1696205   6.1659103   6.1655415   5.9214801
   8.4889158   8.4880850   8.4871624   8.4873997   8.4848833   8.4915099
 TTTTTTTTTTTTTTTTTTTTTTTTTTTTTT MOQGAD      TELAPSE       71.52 TCPU     1943.92
 TTTTTTTTTTTTTTTTTTTTTTTTTTTTTT SHELLXN     TELAPSE       77.59 TCPU     2137.35
 TTTTTTTTTTTTTTTTTTTTTTTTTTTTTT MONMO3      TELAPSE       77.72 TCPU     2141.54
 NUMERICALLY INTEGRATED DENSITY    197.9999953911
 TTTTTTTTTTTTTTTTTTTTTTTTTTTTTT NUMDFT      TELAPSE       78.31 TCPU     2160.50
 CYC   8 ETOT(AU) -1.289106976134E+03 DETOT -2.64E-07 tst  8.89E-09 PX  1.62E-04
 TTTTTTTTTTTTTTTTTTTTTTTTTTTTTT DIIS        TELAPSE       78.40 TCPU     2163.12
 DIIS TEST: 0.74311E-07 AT SCF   CYCLE   8 - DIIS ACTIVE - HISTORY:     8 CYCLES
 TTTTTTTTTTTTTTTTTTTTTTTTTTTTTT FDIK        TELAPSE       78.90 TCPU     2179.18
 INSULATING STATE
 TOP OF VALENCE BANDS -    BAND     99; K    1; EIG -2.4361741E-01 AU
 BOTTOM OF VIRTUAL BANDS - BAND    100; K    1; EIG -8.4165137E-02 AU
 DIRECT ENERGY BAND GAP:   4.3389 eV
 TTTTTTTTTTTTTTTTTTTTTTTTTTTTTT PDIG        TELAPSE       79.22 TCPU     2185.36
 CHARGE NORMALIZATION FACTOR   1.00000000
 TOTAL ATOMIC CHARGES:
   4.5092566   4.5075675   4.5079731   4.5094337   4.5075503   4.5083424
   0.8739200   0.8740183   0.8752708   0.8753623   0.8705703   0.8703945
   0.8716307   0.8713886   0.8731067   0.8739695   0.8755316   0.8752984
   5.9211333   6.1701138   6.1697104   6.1651043   6.1651508   5.9207395
   5.9289093   6.1637880   6.1639052   6.1667614   6.1655085   5.9280630
   5.9215152   6.1685526   6.1696367   6.1659798   6.1655292   5.9214035
   8.4889682   8.4881115   8.4870597   8.4874182   8.4848349   8.4915178
 TTTTTTTTTTTTTTTTTTTTTTTTTTTTTT MOQGAD      TELAPSE       79.26 TCPU     2185.40
 TTTTTTTTTTTTTTTTTTTTTTTTTTTTTT SHELLXN     TELAPSE       85.44 TCPU     2381.90
 +++ ENERGIES IN A.U. +++
 ::: EXT EL-POLE                                  -1.3457338042243E+03
 ::: EXT EL-SPHEROPOLE                             1.4655375229504E+01
 ::: BIELET ZONE E-E                               2.0272769177069E+03
 ::: TOTAL E-E                                     6.9619848871206E+02
 ::: TOTAL E-N + N-E                              -3.2213801482768E+03
 ::: TOTAL N-N                                     8.9862991737868E+01
 ::: KINETIC ENERGY                                1.2799270022453E+03
 ::: PSEUDO TOTAL   ENERGY                        -1.1553916655816E+03
 ::: VIRIAL COEFFICIENT                            1.0511371831165E+00
 TTTTTTTTTTTTTTTTTTTTTTTTTTTTTT MONMO3      TELAPSE       85.57 TCPU     2386.15
 NUMERICALLY INTEGRATED DENSITY    197.9999953909
 EXCHANGE ENERGY: -0.126025234162E+03  CORRELATION ENERGY: -0.769007644854E+01
 TTTTTTTTTTTTTTTTTTTTTTTTTTTTTT NUMDFT      TELAPSE       86.19 TCPU     2405.85
 CYC   9 ETOT(AU) -1.289106976192E+03 DETOT -5.78E-08 tst  3.42E-10 PX  1.62E-04

 == SCF ENDED - CONVERGENCE ON ENERGY      E(AU) -1.2891069761922E+03 CYCLES   9


 ENERGY EXPRESSION=HARTREE+FOCK EXCH*0.00000+(HSESOL     EXCH)*1.00000+PBESOL     CORR


 TOTAL ENERGY(DFT)(AU)(  9) -1.2891069761922E+03 DE-5.8E-08 tester 3.4E-10
 TTTTTTTTTTTTTTTTTTTTTTTTTTTTTT EDFT        TELAPSE       86.19 TCPU     2405.86
 
 INFORMATION **** DFTD3 ENERGY **** CALCULATE DFTD3 ENERGY

           DFT-D V3(BJ)
 DF                                         hsesol3c  
 parameters
 s6       :    1.0000
 s8       :    0.0000
 a1       :    0.5196
 a2       :    4.9385
 k1 k3    :   16.0000   -4.0000
 Cutoff   :   50.2022
 CN-Cutoff:   21.1671
 ABC-Cutoff:   21.1671
 
 Edisp /kcal,au:   -23.6654 -0.03771317

 E6    /kcal :   -24.9157
 E8    /kcal :     0.0000
 E6(ABC) "   :   1.250347
 
 INFORMATION **** DFTD3 ENERGY **** NORMAL TERMINATION OF DFTD3 MODULE

 GCP ENERGY CALCULATION
  level        hsesol3c            basis:hsesol3c
  Nbf            474
  Atoms           42

  Parameters: 
  sigma     1.0000
  eta       1.4281
  alpha     0.2936
  beta      1.9467

  dmp_scal      4.0000
  dmp_exp       6.0000
 cutoffs: 
   distance [bohr] 60.0
   noise    [a.u.] 2.2E-16
 SR-damping   T
 ** gCP correction **
  Egcp:        0.0829928584 / (a.u.) ||      52.0788 / (kcal/mol)
 INFORMATION **** GCP **** NORMAL TERMINATION OF GCP MODULE

 *******************************************************************************

 DFT-D3-GCP DISPERSION AND COUNTERPOISE CORRECTION

 D3 DISPERSION ENERGY (AU)      -3.7713174364835E-02
 GCP ENERGY (AU)                 8.2992858391027E-02
 TOTAL ENERGY + DISP + GCP (AU) -1.2890616965082E+03

 *******************************************************************************

 EIGENVECTORS IN FORTRAN UNIT 10
 TTTTTTTTTTTTTTTTTTTTTTTTTTTTTT END         TELAPSE       87.57 TCPU     2413.22
 EEEEEEEEEE TERMINATION  DATE 02 12 2025 TIME 08:05:20.8
