 Default number of threads is:           32

         
 *******************************************************************************
 *                                                                             *
 *                               CRYSTAL23                                     *
 *                      public : 1.0.1 - October 2022                          *
 *                       HTTP://WWW.CRYSTAL.UNITO.IT                           *
 *                                                                             *
 *                              MAIN AUTHORS                                   *
 *                                                                             *
 *  R. DOVESI(1,11), V.R. SAUNDERS(2), C. ROETTI(1,11), R. ORLANDO(1,11),      *
 *  C.M. ZICOVICH-WILSON(1,3), F. PASCALE(4), B. CIVALLERI(1,11),              *
 *  K. DOLL(5), N.M. HARRISON(6), I.J. BUSH(7), Ph. D'ARCO(8),                 *
 *  M. LLUNELL(9), M. CAUSA'(10), Y. NOEL(8), L. MASCHIO(1,11), A. ERBA(1,11)  *
 *  M. RE'RAT(14), S. CASASSA(1,11), B.G. SEARLE(2), J.K. DESMARAIS(1)         *
 *                                                                             *
 *        CONTRIBUTIONS TO THE CODE HAVE ALSO BEEN GIVEN BY                    *
 *                                                                             *
 *  M. FERRABONE(1,11), M. DE LA PIERRE(1,11), M. FERRERO(1,11),               *
 *  J. BAIMA(1,11), E. ALBANESE(1,11), M.F. PEINTINGER(12), R. BAST(13),       *
 *  B. KIRTMAN(15), V. LACIVITA(1,11), R. DEMICHELIS(1,16)                     *
 *  G. BRANDEBURG(17), S. SALUSTRO(1,11), G. SANSONE(1,11)                     *
 *  M.T. RUGGIERO(18), L.E. DAGA(1), L. DONA'(1), A. COSSARD(1)                *
 *                                                                             *
 * (1) THEORETICAL CHEMISTRY GROUP - UNIVERSITA' DI TORINO - TORINO (ITALY)    *
 * (2) SCIENTIFIC COMPUTING DEPARTMENT - STFC DARESBURY (UK)                   *
 * (3) UNIVERSIDAD AUTONOMA DEL ESTADO DE MORELOS - CUERNAVACA (MEXICO)        *
 * (4) UNIVERSITE' DE LORRAINE - NANCY (FRANCE)                                *
 * (5) UNIVERSITAET STUTTGART- STUTTGART (GERMANY)                             *
 * (6) IMPERIAL COLLEGE - LONDON (UK)                                          *
 * (7) SCIENTIFIC COMPUTING DEPARTMENT - STFC RAL (UK)                         *
 * (8) UPMC - SORBONNE UNIVERSITES - PARIS (FRANCE)                            *
 * (9) UNIVERSIDAD DE BARCELONA - BARCELONA (SPAIN)                            *
 *(10) UNIVERSITA' DI NAPOLI "FEDERICO II" - NAPOLI (ITALY)                    *
 *(11) NIS - NANOSTRUCTURED INTERFACES AND SURFACES - TORINO (ITALY)           *
 *(12) MPI FUER CHEMISCHE ENERGIEKONVERSION - MUELHEIM AN DER RUHR (GERMANY)   *
 *(13) UNIVERSITY OF TROMSO - TROMSO (NORWAY)                                  *
 *(14) UNIVERSITE' DE PAU ET DES PAYS DE L'ADOUR - PAU (FRANCE)                *
 *(15) UNIVERSITY OF CALIFORNIA SANTA BARBARA - SANTA BARBARA (USA)            *
 *(16) CURTIN UNIVERSITY - PERTH (AUSTRALIA)                                   *
 *(17) UNIVERSITY COLLEGE LONDON - LONDON (UK)                                 *
 *(18) UNIVERSITY OF VERMONT - BURLINGTON (USA)                                *
 *                                                                             *
 *******************************************************************************
 EEEEEEEEEE STARTING  DATE 19 02 2026 TIME 18:47:26.8
 cof-1_z37_L020_incl                                                             

 CRYSTAL CALCULATION
 (INPUT ACCORDING TO THE INTERNATIONAL TABLES FOR X-RAY CRYSTALLOGRAPHY)
 CRYSTAL FAMILY                       :  TRICLINIC   
 CRYSTAL CLASS  (GROTH - 1921)        :  TRICLINIC PEDIAL                     

 SPACE GROUP (NONCENTROSYMMETRIC)     :  P 1             

 LATTICE PARAMETERS  (ANGSTROMS AND DEGREES) - CONVENTIONAL CELL
        A           B           C        ALPHA        BETA       GAMMA
    15.02361    15.02392     4.20595    65.68068    89.99995   119.99596


 NUMBER OF IRREDUCIBLE ATOMS IN THE CONVENTIONAL CELL:   42

 INPUT COORDINATES

 ATOM AT. N.              COORDINATES
   1   5     5.751581800000E-01  1.502656600000E-01  5.012894000000E-01
   2   5     7.342138400000E-01  3.093253200000E-01  5.012894100000E-01
   3   5     5.753625000000E-01  3.097253300000E-01  4.985750400000E-01
   4   5     1.887328900000E-01  5.365806600000E-01  5.012894100000E-01
   5   5     3.478408600000E-01  5.365598900000E-01  5.012894000000E-01
   6   5     3.480297200000E-01  6.961163100000E-01  4.985750500000E-01
   7   1     8.649537000000E-01  2.327424700000E-01  4.956619800000E-01
   8   1     5.861074000000E-02  6.149981400000E-01  4.948014500000E-01
   9   1     8.649578100000E-01  5.180374800000E-01  4.946690100000E-01
  10   1     5.872003000000E-02  3.296449200000E-01  4.947020400000E-01
  11   1     6.522760000000E-01  1.948345000000E-02  5.043348500000E-01
  12   1     2.701071900000E-01  8.257843600000E-01  5.051954300000E-01
  13   1     3.670372800000E-01  1.937666000000E-02  5.053279600000E-01
  14   1     5.554820500000E-01  8.256791100000E-01  5.052947000000E-01
  15   1     6.529828200000E-01  5.178666300000E-01  4.956620300000E-01
  16   1     2.709380500000E-01  3.295540300000E-01  4.948014000000E-01
  17   1     3.678269700000E-01  2.327883200000E-01  4.946689100000E-01
  18   1     5.562747200000E-01  6.149178900000E-01  4.947021500000E-01
  19   6     8.535841700000E-01  3.693236200000E-01  4.984757300000E-01
  20   6     9.083890200000E-01  3.165777000000E-01  4.957944100000E-01
  21   6     1.530583000000E-02  5.310129700000E-01  4.955627800000E-01
  22   6     9.083164000000E-01  4.774130100000E-01  4.962579200000E-01
  23   6     1.542800000000E-02  3.702455600000E-01  4.944703300000E-01
  24   6     6.989764000000E-02  4.777513700000E-01  4.962909900000E-01
  25   6     5.154992500000E-01  3.108028000000E-02  5.015211400000E-01
  26   6     5.684316300000E-01 -2.394437000000E-02  5.042024000000E-01
  27   6     3.540346500000E-01  8.691272300000E-01  5.044341200000E-01
  28   6     4.075769700000E-01 -2.382622000000E-02  5.037390000000E-01
  29   6     5.148688800000E-01  8.689197300000E-01  5.055264600000E-01
  30   6     4.072198500000E-01  8.145680700000E-01  5.037058700000E-01
  31   6     5.157387300000E-01  3.692544800000E-01  4.984757200000E-01
  32   6     5.691101200000E-01  4.774178400000E-01  4.957944700000E-01
  33   6     3.547410800000E-01  3.699997100000E-01  4.955627300000E-01
  34   6     4.081515500000E-01  3.164108200000E-01  4.962578500000E-01
  35   6     5.157446100000E-01  5.310935800000E-01  4.944704000000E-01
  36   6     4.078217300000E-01  4.776739700000E-01  4.962909900000E-01
  37   8     5.223669400000E-01  2.036233600000E-01  4.993032800000E-01
  38   8     6.808718900000E-01  2.027508200000E-01  5.050299300000E-01
  39   8     6.815335300000E-01  3.630239300000E-01  4.963903200000E-01
  40   8     2.419547700000E-01  6.429038300000E-01  4.993033100000E-01
  41   8     2.415341600000E-01  4.830681000000E-01  5.050299300000E-01
  42   8     4.011179600000E-01  6.433359000000E-01  4.963903000000E-01

 *******************************************************************************

 << INFORMATION >>: FROM NOW ON, ALL COORDINATES REFER TO THE PRIMITIVE CELL

 *******************************************************************************

 LATTICE PARAMETERS  (ANGSTROMS AND DEGREES) - PRIMITIVE CELL
       A          B          C        ALPHA      BETA     GAMMA        VOLUME
   15.02361   15.02392    4.20595    65.68068  89.99995 119.99596    723.284016

 COORDINATES OF THE EQUIVALENT ATOMS (FRACTIONAL UNITS)

 N. ATOM EQUIV AT. N.          X                  Y                  Z

   1   1   1    5 B    -4.24841820000E-01  1.50265660000E-01 -4.98710600000E-01

   2   2   1    5 B    -2.65786160000E-01  3.09325320000E-01 -4.98710590000E-01

   3   3   1    5 B    -4.24637500000E-01  3.09725330000E-01  4.98575040000E-01

   4   4   1    5 B     1.88732890000E-01 -4.63419340000E-01 -4.98710590000E-01

   5   5   1    5 B     3.47840860000E-01 -4.63440110000E-01 -4.98710600000E-01

   6   6   1    5 B     3.48029720000E-01 -3.03883690000E-01  4.98575050000E-01

   7   7   1    1 H    -1.35046300000E-01  2.32742470000E-01  4.95661980000E-01

   8   8   1    1 H     5.86107400000E-02 -3.85001860000E-01  4.94801450000E-01

   9   9   1    1 H    -1.35042190000E-01 -4.81962520000E-01  4.94669010000E-01

  10  10   1    1 H     5.87200300000E-02  3.29644920000E-01  4.94702040000E-01

  11  11   1    1 H    -3.47724000000E-01  1.94834500000E-02 -4.95665150000E-01

  12  12   1    1 H     2.70107190000E-01 -1.74215640000E-01 -4.94804570000E-01

  13  13   1    1 H     3.67037280000E-01  1.93766600000E-02 -4.94672040000E-01

  14  14   1    1 H    -4.44517950000E-01 -1.74320890000E-01 -4.94705300000E-01

  15  15   1    1 H    -3.47017180000E-01 -4.82133370000E-01  4.95662030000E-01

  16  16   1    1 H     2.70938050000E-01  3.29554030000E-01  4.94801400000E-01

  17  17   1    1 H     3.67826970000E-01  2.32788320000E-01  4.94668910000E-01

  18  18   1    1 H    -4.43725280000E-01 -3.85082110000E-01  4.94702150000E-01

  19  19   1    6 C    -1.46415830000E-01  3.69323620000E-01  4.98475730000E-01

  20  20   1    6 C    -9.16109800000E-02  3.16577700000E-01  4.95794410000E-01

  21  21   1    6 C     1.53058300000E-02 -4.68987030000E-01  4.95562780000E-01

  22  22   1    6 C    -9.16836000000E-02  4.77413010000E-01  4.96257920000E-01

  23  23   1    6 C     1.54280000000E-02  3.70245560000E-01  4.94470330000E-01

  24  24   1    6 C     6.98976400000E-02  4.77751370000E-01  4.96290990000E-01

  25  25   1    6 C    -4.84500750000E-01  3.10802800000E-02 -4.98478860000E-01

  26  26   1    6 C    -4.31568370000E-01 -2.39443700000E-02 -4.95797600000E-01

  27  27   1    6 C     3.54034650000E-01 -1.30872770000E-01 -4.95565880000E-01

  28  28   1    6 C     4.07576970000E-01 -2.38262200000E-02 -4.96261000000E-01

  29  29   1    6 C    -4.85131120000E-01 -1.31080270000E-01 -4.94473540000E-01

  30  30   1    6 C     4.07219850000E-01 -1.85431930000E-01 -4.96294130000E-01

  31  31   1    6 C    -4.84261270000E-01  3.69254480000E-01  4.98475720000E-01

  32  32   1    6 C    -4.30889880000E-01  4.77417840000E-01  4.95794470000E-01

  33  33   1    6 C     3.54741080000E-01  3.69999710000E-01  4.95562730000E-01

  34  34   1    6 C     4.08151550000E-01  3.16410820000E-01  4.96257850000E-01

  35  35   1    6 C    -4.84255390000E-01 -4.68906420000E-01  4.94470400000E-01

  36  36   1    6 C     4.07821730000E-01  4.77673970000E-01  4.96290990000E-01

  37  37   1    8 O    -4.77633060000E-01  2.03623360000E-01  4.99303280000E-01

  38  38   1    8 O    -3.19128110000E-01  2.02750820000E-01 -4.94970070000E-01

  39  39   1    8 O    -3.18466470000E-01  3.63023930000E-01  4.96390320000E-01

  40  40   1    8 O     2.41954770000E-01 -3.57096170000E-01  4.99303310000E-01

  41  41   1    8 O     2.41534160000E-01  4.83068100000E-01 -4.94970070000E-01

  42  42   1    8 O     4.01117960000E-01 -3.56664100000E-01  4.96390300000E-01

 NUMBER OF SYMMETRY OPERATORS         :    1
 *******************************************************************************
 * GEOMETRY EDITING - INPUT COORDINATES ARE GIVEN IN ANGSTROM         
 *******************************************************************************

 GCALCO - MAX INDICES DIRECT LATTICE VECTOR     9    10    33
 NO.OF VECTORS CREATED 6999 STARS 3500 RMAX   200.76520 BOHR

 GEOMETRY FOR WAVE FUNCTION - DIMENSIONALITY OF THE SYSTEM    3
 (NON PERIODIC DIRECTION: LATTICE PARAMETER FORMALLY SET TO 500)
 *******************************************************************************
 LATTICE PARAMETERS (ANGSTROMS AND DEGREES) - BOHR = 0.5291772083 ANGSTROM
 PRIMITIVE CELL - CENTRING CODE 1/0 VOLUME=   723.284016 - DENSITY  0.896 g/cm^3
         A              B              C           ALPHA      BETA       GAMMA 
    15.02361100    15.02391600     4.20594800    65.680682  89.999950 119.995964
 *******************************************************************************
 ATOMS IN THE ASYMMETRIC UNIT   42 - ATOMS IN THE UNIT CELL:   42
     ATOM                 X/A                 Y/B                 Z/C    
 *******************************************************************************
      1 T   5 B    -4.248418200000E-01  1.502656600000E-01 -4.987106000000E-01
      2 T   5 B    -2.657861600000E-01  3.093253200000E-01 -4.987105900000E-01
      3 T   5 B    -4.246375000000E-01  3.097253300000E-01  4.985750400000E-01
      4 T   5 B     1.887328900000E-01 -4.634193400000E-01 -4.987105900000E-01
      5 T   5 B     3.478408600000E-01 -4.634401100000E-01 -4.987106000000E-01
      6 T   5 B     3.480297200000E-01 -3.038836900000E-01  4.985750500000E-01
      7 T   1 H    -1.350463000000E-01  2.327424700000E-01  4.956619800000E-01
      8 T   1 H     5.861074000000E-02 -3.850018600000E-01  4.948014500000E-01
      9 T   1 H    -1.350421900000E-01 -4.819625200000E-01  4.946690100000E-01
     10 T   1 H     5.872003000000E-02  3.296449200000E-01  4.947020400000E-01
     11 T   1 H    -3.477240000000E-01  1.948345000000E-02 -4.956651500000E-01
     12 T   1 H     2.701071900000E-01 -1.742156400000E-01 -4.948045700000E-01
     13 T   1 H     3.670372800000E-01  1.937666000000E-02 -4.946720400000E-01
     14 T   1 H    -4.445179500000E-01 -1.743208900000E-01 -4.947053000000E-01
     15 T   1 H    -3.470171800000E-01 -4.821333700000E-01  4.956620300000E-01
     16 T   1 H     2.709380500000E-01  3.295540300000E-01  4.948014000000E-01
     17 T   1 H     3.678269700000E-01  2.327883200000E-01  4.946689100000E-01
     18 T   1 H    -4.437252800000E-01 -3.850821100000E-01  4.947021500000E-01
     19 T   6 C    -1.464158300000E-01  3.693236200000E-01  4.984757300000E-01
     20 T   6 C    -9.161098000000E-02  3.165777000000E-01  4.957944100000E-01
     21 T   6 C     1.530583000000E-02 -4.689870300000E-01  4.955627800000E-01
     22 T   6 C    -9.168360000000E-02  4.774130100000E-01  4.962579200000E-01
     23 T   6 C     1.542800000000E-02  3.702455600000E-01  4.944703300000E-01
     24 T   6 C     6.989764000000E-02  4.777513700000E-01  4.962909900000E-01
     25 T   6 C    -4.845007500000E-01  3.108028000000E-02 -4.984788600000E-01
     26 T   6 C    -4.315683700000E-01 -2.394437000000E-02 -4.957976000000E-01
     27 T   6 C     3.540346500000E-01 -1.308727700000E-01 -4.955658800000E-01
     28 T   6 C     4.075769700000E-01 -2.382622000000E-02 -4.962610000000E-01
     29 T   6 C    -4.851311200000E-01 -1.310802700000E-01 -4.944735400000E-01
     30 T   6 C     4.072198500000E-01 -1.854319300000E-01 -4.962941300000E-01
     31 T   6 C    -4.842612700000E-01  3.692544800000E-01  4.984757200000E-01
     32 T   6 C    -4.308898800000E-01  4.774178400000E-01  4.957944700000E-01
     33 T   6 C     3.547410800000E-01  3.699997100000E-01  4.955627300000E-01
     34 T   6 C     4.081515500000E-01  3.164108200000E-01  4.962578500000E-01
     35 T   6 C    -4.842553900000E-01 -4.689064200000E-01  4.944704000000E-01
     36 T   6 C     4.078217300000E-01  4.776739700000E-01  4.962909900000E-01
     37 T   8 O    -4.776330600000E-01  2.036233600000E-01  4.993032800000E-01
     38 T   8 O    -3.191281100000E-01  2.027508200000E-01 -4.949700700000E-01
     39 T   8 O    -3.184664700000E-01  3.630239300000E-01  4.963903200000E-01
     40 T   8 O     2.419547700000E-01 -3.570961700000E-01  4.993033100000E-01
     41 T   8 O     2.415341600000E-01  4.830681000000E-01 -4.949700700000E-01
     42 T   8 O     4.011179600000E-01 -3.566641000000E-01  4.963903000000E-01

 T = ATOM BELONGING TO THE ASYMMETRIC UNIT

 ****    1 SYMMOPS - TRANSLATORS IN FRACTIONAL UNITS
 **** MATRICES AND TRANSLATORS IN THE CRYSTALLOGRAPHIC REFERENCE FRAME
   V INV                    ROTATION MATRICES                   TRANSLATORS
   1   1  1.00  0.00  0.00  0.00  1.00  0.00 -0.00 -0.00  1.00  0.00  0.00  0.00

 DIRECT LATTICE VECTORS CARTESIAN COMPONENTS (ANGSTROM)
          X                    Y                    Z
   0.130113578931E+02  -0.751088897922E+01   0.000000000000E+00
   0.000000000000E+00   0.150239160000E+02   0.000000000000E+00
   0.999870163317E+00   0.173210034593E+01   0.370001170631E+01


 CARTESIAN COORDINATES - PRIMITIVE CELL
 *******************************************************************************
 *      ATOM          X(ANGSTROM)         Y(ANGSTROM)         Z(ANGSTROM)
 *******************************************************************************
    1     5 B    -6.026414817028E+00  4.584701594495E+00 -1.845235058062E+00
    2     5 B    -3.956884689853E+00  5.779751178869E+00 -1.845235021062E+00
    3     5 B     6.984887549097E+00 -5.367148659845E-01 -1.855278221837E+00
    4     5 B     1.957025338910E+00  5.780174194092E+00 -1.845235021062E+00
    5     5 B     4.027236070219E+00  4.584819831657E+00 -1.845235058062E+00
    6     5 B     4.026979397692E+00  6.975862049931E+00 -1.855278184837E+00
    7     1 H    -2.261408279858E+00  3.637457026360E+00 -1.866056577939E+00
    8     1 H     1.257342521138E+00 -5.367408602903E+00  1.830771157301E+00
    9     1 H    -1.262477480935E+00 -5.369861155688E+00  1.830281127750E+00
   10     1 H     2.587949720319E-01  3.636291190408E+00 -1.869608367176E+00
   11     1 H    -5.019962206486E+00  2.045892297820E+00 -1.833966857411E+00
   12     1 H     4.019591155679E+00 -3.771097078761E+00  1.869229004976E+00
   13     1 H     4.281045596751E+00 -3.322484560717E+00 -1.830292338786E+00
   14     1 H    -5.278553043125E+00  1.594963687979E+00  1.869596305138E+00
   15     1 H    -4.019567049133E+00 -3.778587365190E+00  1.833955313375E+00
   16     1 H     3.020138928707E+00  2.041151780564E+00 -1.869240734013E+00
   17     1 H     4.280662869901E+00 -1.405995255670E-01 -1.869730948564E+00
   18     1 H    -5.278830504763E+00 -1.595796193245E+00  1.830403746138E+00
   19     6 C    -2.406527919091E+00  5.779709726068E+00 -1.855645670000E+00
   20     6 C    -1.696123373332E+00  4.570981995473E+00 -1.865566585388E+00
   21     6 C     6.946480697529E-01 -6.302617671008E+00  1.833588087213E+00
   22     6 C    -6.967346450059E-01 -6.303109184737E+00  1.836160113350E+00
   23     6 C    -3.047248041306E-01  4.571032081358E+00 -1.870465696888E+00
   24     6 C     4.058195998269E-01  5.780228487348E+00 -1.863729233575E+00
   25     6 C     6.208931096194E+00 -4.268325525486E+00 -1.844377617349E+00
   26     6 C    -5.111153581360E+00  3.755053061916E+00  1.865554782351E+00
   27     6 C     5.110840163640E+00 -3.751605940364E+00  1.866412149064E+00
   28     6 C     5.806803421837E+00 -2.546702003876E+00  1.863840196926E+00
   29     6 C    -5.806753803258E+00  2.550049573187E+00  1.870453819851E+00
   30     6 C     5.802123680008E+00 -4.972027711849E+00  1.863717615538E+00
   31     6 C     6.209002031589E+00  8.053015679529E-01 -1.855645707000E+00
   32     6 C    -5.110732343485E+00 -3.756098650995E+00  1.834445342925E+00
   33     6 C     4.111291375711E+00  2.020687724952E+00 -1.866423804100E+00
   34     6 C     4.806929145865E+00  8.156166501531E-01 -1.863851851963E+00
   35     6 C    -5.806413991328E+00 -2.551149843173E+00  1.829546268425E+00
   36     6 C     4.802670875502E+00  3.240955312857E+00 -1.863729233575E+00
   37     8 O     6.296071496642E+00 -1.731476798392E+00 -1.852583725312E+00
   38     8 O    -4.647195857673E+00  4.585709263498E+00 -1.831395053274E+00
   39     8 O    -3.647355347781E+00 -6.318110824930E+00  1.836649994900E+00
   40     8 O     3.647398588517E+00 -6.317434841490E+00  1.847428092001E+00
   41     8 O     2.647781594431E+00  4.586100466761E+00 -1.831395053274E+00
   42     8 O    -7.295942707834E+00 -5.571541842216E-04  1.836649920900E+00

 *******************************************************************************
 STARTING BASIS SET HANDLING 
 *******************************************************************************

 Loading internal basis set: SOLDEF2MSVP         

 Please cite in your publication:
 L. Dona', J. G. Brandenburg and B. Civalleri, J. Chem. Phys., 151, 121101 (2019
 )                                                                              
                                                                                
                    

 *******************************************************************************
 LOCAL ATOMIC FUNCTIONS BASIS SET
 *******************************************************************************
   ATOM   X(AU)   Y(AU)   Z(AU)  N. TYPE  EXPONENT  S COEF   P COEF   D/F/G COEF
 *******************************************************************************
   1 B  -11.388   8.664  -3.487
                                  1 S  
                                         2.410E+03 1.755E-03 0.000E+00 0.000E+00
                                         3.619E+02 1.344E-02 0.000E+00 0.000E+00
                                         8.231E+01 6.637E-02 0.000E+00 0.000E+00
                                         2.311E+01 2.303E-01 0.000E+00 0.000E+00
                                         7.252E+00 5.150E-01 0.000E+00 0.000E+00
                                  2 S  
                                         2.367E+00 1.000E+00 0.000E+00 0.000E+00
                                  3 S  
                                         5.533E-01 1.000E+00 0.000E+00 0.000E+00
                                  4 S  
                                         1.716E-01 1.000E+00 0.000E+00 0.000E+00
                           5-     7 P  
                                         6.002E+00 0.000E+00-3.555E-02 0.000E+00
                                         1.240E+00 0.000E+00-1.983E-01 0.000E+00
                                         3.367E-01 0.000E+00-5.048E-01 0.000E+00
                           8-    10 P  
                                         1.256E-01 0.000E+00 1.000E+00 0.000E+00
                          11-    15 D  
                                         8.880E-01 0.000E+00 0.000E+00 1.000E+00
   2 B   -7.477  10.922  -3.487
   3 B   13.200  -1.014  -3.506
   4 B    3.698  10.923  -3.487
   5 B    7.610   8.664  -3.487
   6 B    7.610  13.182  -3.506
   7 H   -4.273   6.874  -3.526
                                 91 S  
                                         1.874E+01 1.968E-02 0.000E+00 0.000E+00
                                         2.826E+00 1.380E-01 0.000E+00 0.000E+00
                                         6.401E-01 4.783E-01 0.000E+00 0.000E+00
                                 92 S  
                                         1.756E-01 1.000E+00 0.000E+00 0.000E+00
   8 H    2.376 -10.143   3.460
   9 H   -2.386 -10.148   3.459
  10 H    0.489   6.872  -3.533
  11 H   -9.486   3.866  -3.466
  12 H    7.596  -7.126   3.532
  13 H    8.090  -6.279  -3.459
  14 H   -9.975   3.014   3.533
  15 H   -7.596  -7.140   3.466
  16 H    5.707   3.857  -3.532
  17 H    8.089  -0.266  -3.533
  18 H   -9.976  -3.016   3.459
  19 C   -4.548  10.922  -3.507
                                115 S  
                                         3.624E+03 1.634E-03 0.000E+00 0.000E+00
                                         5.440E+02 1.252E-02 0.000E+00 0.000E+00
                                         1.237E+02 6.211E-02 0.000E+00 0.000E+00
                                         3.476E+01 2.182E-01 0.000E+00 0.000E+00
                                         1.093E+01 4.980E-01 0.000E+00 0.000E+00
                                116 S  
                                         3.574E+00 1.000E+00 0.000E+00 0.000E+00
                                117 S  
                                         7.742E-01 1.000E+00 0.000E+00 0.000E+00
                                118 S  
                                         2.330E-01 1.000E+00 0.000E+00 0.000E+00
                         119-   121 P  
                                         9.443E+00 0.000E+00 3.790E-02 0.000E+00
                                         2.002E+00 0.000E+00 2.082E-01 0.000E+00
                                         5.463E-01 0.000E+00 5.047E-01 0.000E+00
                         122-   124 P  
                                         1.820E-01 0.000E+00 1.000E+00 0.000E+00
                         125-   129 D  
                                         8.880E-01 0.000E+00 0.000E+00 1.000E+00
  20 C   -3.205   8.638  -3.525
  21 C    1.313 -11.910   3.465
  22 C   -1.317 -11.911   3.470
  23 C   -0.576   8.638  -3.535
  24 C    0.767  10.923  -3.522
  25 C   11.733  -8.066  -3.485
  26 C   -9.659   7.096   3.525
  27 C    9.658  -7.090   3.527
  28 C   10.973  -4.813   3.522
  29 C  -10.973   4.819   3.535
  30 C   10.964  -9.396   3.522
  31 C   11.733   1.522  -3.507
  32 C   -9.658  -7.098   3.467
  33 C    7.769   3.819  -3.527
  34 C    9.084   1.541  -3.522
  35 C  -10.973  -4.821   3.457
  36 C    9.076   6.125  -3.522
  37 O   11.898  -3.272  -3.501
                                385 S  
                                         6.773E+03 1.727E-03 0.000E+00 0.000E+00
                                         1.017E+03 1.325E-02 0.000E+00 0.000E+00
                                         2.313E+02 6.603E-02 0.000E+00 0.000E+00
                                         6.501E+01 2.353E-01 0.000E+00 0.000E+00
                                         2.050E+01 5.498E-01 0.000E+00 0.000E+00
                                386 S  
                                         6.716E+00 1.000E+00 0.000E+00 0.000E+00
                                387 S  
                                         1.147E+00 1.000E+00 0.000E+00 0.000E+00
                                388 S  
                                         3.342E-01 1.000E+00 0.000E+00 0.000E+00
                         389-   391 P  
                                         1.769E+01 0.000E+00 4.359E-02 0.000E+00
                                         3.854E+00 0.000E+00 2.318E-01 0.000E+00
                                         1.047E+00 0.000E+00 5.146E-01 0.000E+00
                         392-   394 P  
                                         2.759E-01 0.000E+00 1.000E+00 0.000E+00
                         395-   399 D  
                                         8.000E-01 0.000E+00 0.000E+00 1.000E+00
  38 O   -8.782   8.666  -3.461
  39 O   -6.893 -11.939   3.471
  40 O    6.893 -11.938   3.491
  41 O    5.004   8.666  -3.461
  42 O  -13.787  -0.001   3.471

 *******************************************************************************
 FINISHED BASIS SET HANDLING 
 *******************************************************************************

 INFORMATION **** SET_MPP **** PCRYSTAL CALCULATION
 INFORMATION **** READM2 **** NEW DEFAULT: FOCK/KS MATRIX MIXING SET TO 30 %
 INFORMATION **** READM2 **** NEW DEFAULT: FULL DIRECT SCF MODE
 INFORMATION **** READM2 **** NEW DEFAULT: COULOMB BIPOLAR BUFFER SET TO 32 Mb
 INFORMATION **** READM2 **** NEW DEFAULT: EXCHANGE BIPOLAR BUFFER SET TO 32 Mb

 *******************************************************************************
 NEW DEFAULT: DFT INTEGRATION GRID INCREASED TO XLGRID
 NEW DEFAULT: DIIS ACCELERATOR ACTIVE
 USE KEYWORD NODIIS TO TURN IT OFF
 *******************************************************************************

 WARNING **** RDDFTP **** HSEsol-HJS ACTIVE
 RANGE SEPARATION - OMEGA:   0.110000000000000     
 WARNING **** RDDFTP **** HSEsol-3c has to be combined with sol-def2-mSVP basis set
 *******************************************************************************
 N. OF ATOMS PER CELL        42  COULOMB OVERLAP TOL         (T1) 10**   -6
 NUMBER OF SHELLS           234  COULOMB PENETRATION TOL     (T2) 10**   -6
 NUMBER OF AO               474  EXCHANGE OVERLAP TOL        (T3) 10**   -6
 N. OF ELECTRONS PER CELL   198  EXCHANGE PSEUDO OVP (F(G))  (T4) 10**   -6
 CORE ELECTRONS PER CELL     60  EXCHANGE PSEUDO OVP (P(G))  (T5) 10**  -12
 N. OF SYMMETRY OPERATORS     1  POLE ORDER IN MONO ZONE                  4
 *******************************************************************************
 TYPE OF CALCULATION :  RESTRICTED CLOSED SHELL
 KOHN-SHAM HAMILTONIAN

 (EXCHANGE)[CORRELATION] FUNCTIONAL:(HSEsol GGA)[PBEsol]

 RANGE-SEPARATED HYBRID FUNCTIONAL 
 OMEGA (SHORT-RANGE)[LONG-RANGE]:(    0.1100)[    0.0000]

 HYBRID EXCHANGE - PERCENTAGE OF FOCK EXCHANGE    25.0000

 CAPPA:IS1  2;IS2  2;IS3  8; K PTS MONK NET  20; SYMMOPS:K SPACE   2;G SPACE   1

 *******************************************************************************
 MAX NUMBER OF SCF CYCLES      50  CONVERGENCE ON DELTAP        10**-16
 WEIGHT OF F(I) IN F(I+1)      30% CONVERGENCE ON ENERGY        10**- 6
 SHRINK. FACT.(MONKH.)    2  2  8  NUMBER OF K POINTS IN THE IBZ     20
 SHRINKING FACTOR(GILAT NET)    8  NUMBER OF K POINTS(GILAT NET)   1028
 *******************************************************************************
 *** K POINTS COORDINATES (OBLIQUE COORDINATES IN UNITS OF IS =  2)
   1-R(  0  0  0)   2-R(  1  0  0)   3-R(  0  1  0)   4-R(  1  1  0)
   5-C(  0  0  1)   6-C(  1  0  1)   7-C(  0  1  1)   8-C(  1  1  1)
   9-C(  0  0  2)  10-C(  1  0  2)  11-C(  0  1  2)  12-C(  1  1  2)
  13-C(  0  0  3)  14-C(  1  0  3)  15-C(  0  1  3)  16-C(  1  1  3)
  17-R(  0  0  4)  18-R(  1  0  4)  19-R(  0  1  4)  20-R(  1  1  4)

 DIRECT LATTICE VECTORS COMPON. (A.U.)     RECIP. LATTICE VECTORS COMPON. (A.U.) 
        X            Y            Z              X            Y            Z
   24.5879030  -14.1935232    0.0000000      0.2555397    0.0000000   -0.0690556
    0.0000000   28.3910867    0.0000000      0.1277517    0.2213084   -0.1381248
    1.8894808    3.2731953    6.9920088      0.0000000    0.0000000    0.8986238

 DISK SPACE FOR EIGENVECTORS (FTN 10)     7189632 REALS

 SYMMETRY ADAPTION OF THE BLOCH FUNCTIONS DISABLED
 TTTTTTTTTTTTTTTTTTTTTTTTTTTTTT gordsh1     TELAPSE        0.04 TCPU        0.04

 MATRIX SIZE: P(G)  351928, F(G)   74196, P(G) IRR  177629, F(G) IRR   74892
 MAX G-VECTOR INDEX FOR 1- AND 2-ELECTRON INTEGRALS  77

 TTTTTTTTTTTTTTTTTTTTTTTTTTTTTT INPUT       TELAPSE        0.31 TCPU        0.31

 NEIGHBORS OF THE NON-EQUIVALENT ATOMS

 N = NUMBER OF NEIGHBORS AT DISTANCE R
    ATOM  N     R/ANG      R/AU   NEIGHBORS (ATOM LABELS AND CELL INDICES)
   1 B    1     1.3791     2.6061   37 O   -1 0 0
   1 B    1     1.3793     2.6065   38 O    0 0 0
   1 B    1     1.5503     2.9297   25 C   -1 0 0
   1 B    1     2.3895     4.5155    3 B   -1 0 0
   1 B    1     2.3898     4.5160    2 B    0 0 0
   1 B    1     2.5632     4.8437   26 C    0 0-1

   2 B    1     1.3793     2.6065   39 O    0 1-1
   2 B    1     1.3793     2.6065   38 O    0 0 0
   2 B    1     1.5504     2.9298   19 C    0 0 0
   2 B    1     2.3895     4.5156    3 B   -1 0 0
   2 B    1     2.3898     4.5160    1 B    0 0 0
   2 B    1     2.5634     4.8440   22 C    0 1-1

   3 B    1     1.3791     2.6061   37 O    0 0 0
   3 B    1     1.3793     2.6064   39 O    1 1-1
   3 B    1     1.5502     2.9294   31 C    0 0 0
   3 B    1     2.3895     4.5155    1 B    1 0 0
   3 B    1     2.3895     4.5156    2 B    1 0 0
   3 B    1     2.5629     4.8433   32 C    1 1-1

   4 B    1     1.3795     2.6068   40 O    0 1-1
   4 B    1     1.3795     2.6070   41 O    0 0 0
   4 B    1     1.5513     2.9316   24 C    0 0 0
   4 B    1     2.3905     4.5174    6 B    0 0 0
   4 B    1     2.3905     4.5175    5 B    0 0 0
   4 B    1     2.5648     4.8468   23 C    0 0 0

   5 B    1     1.3795     2.6069   41 O    0 0 0
   5 B    1     1.3797     2.6072   42 O    1 1-1
   5 B    1     1.5516     2.9322   36 C    0 0 0
   5 B    1     2.3905     4.5175    4 B    0 0 0
   5 B    1     2.3911     4.5185    6 B    0 0 0
   5 B    1     2.5651     4.8473   35 C    1 1-1

   6 B    1     1.3795     2.6068   40 O    0 1-1
   6 B    1     1.3796     2.6071   42 O    1 1-1
   6 B    1     1.5516     2.9322   30 C    0 1-1
   6 B    1     2.3905     4.5174    4 B    0 0 0
   6 B    1     2.3911     4.5185    5 B    0 0 0
   6 B    1     2.5651     4.8473   29 C    1 1-1

   7 H    1     1.0913     2.0623   20 C    0 0 0
   7 H    1     2.1472     4.0576   19 C    0 0 0
   7 H    1     2.1680     4.0969   23 C    0 0 0
   7 H    1     2.5202     4.7625   10 H    0 0 0
   7 H    1     2.5676     4.8520   38 O    0 0 0
   7 H    1     2.7321     5.1630    2 B    0 0 0

   8 H    1     1.0914     2.0625   21 C    0 0 0
   8 H    1     2.1493     4.0616   24 C    0-1 1
   8 H    1     2.1666     4.0942   22 C    0 0 0
   8 H    1     2.5198     4.7618    9 H    0 0 0
   8 H    1     2.5720     4.8604   40 O    0 0 0
   8 H    1     2.7362     5.1707    4 B    0-1 1

   9 H    1     1.0914     2.0624   22 C    0 0 0
   9 H    1     2.1471     4.0575   19 C    0-1 1
   9 H    1     2.1680     4.0970   21 C    0 0 0
   9 H    1     2.5198     4.7618    8 H    0 0 0
   9 H    1     2.5665     4.8500   39 O    0 0 0
   9 H    1     2.7315     5.1618    2 B    0-1 1

  10 H    1     1.0915     2.0626   23 C    0 0 0
  10 H    1     2.1490     4.0610   24 C    0 0 0
  10 H    1     2.1669     4.0948   20 C    0 0 0
  10 H    1     2.5202     4.7625    7 H    0 0 0
  10 H    1     2.5712     4.8588   41 O    0 0 0
  10 H    1     2.7351     5.1686    4 B    0 0 0

  11 H    1     1.0913     2.0623   26 C    0 0-1
  11 H    1     2.1469     4.0571   25 C   -1 0 0
  11 H    1     2.1680     4.0968   29 C    0 0-1
  11 H    1     2.5198     4.7617   14 H    0 0-1
  11 H    1     2.5670     4.8510   38 O    0 0 0
  11 H    1     2.7310     5.1609    1 B    0 0 0

  12 H    1     1.0914     2.0625   27 C    0 0 0
  12 H    1     2.1493     4.0617   30 C    0 0 0
  12 H    1     2.1664     4.0939   28 C    0 0 0
  12 H    1     2.5192     4.7606   13 H    0 0 1
  12 H    1     2.5735     4.8632   40 O    0 0 0
  12 H    1     2.7371     5.1723    6 B    0-1 1

  13 H    1     1.0914     2.0624   28 C    0 0-1
  13 H    1     2.1475     4.0581   25 C    0 0 0
  13 H    1     2.1679     4.0967   27 C    0 0-1
  13 H    1     2.5192     4.7606   12 H    0 0-1
  13 H    1     2.5675     4.8519   37 O    0 0 0
  13 H    1     2.7328     5.1643    1 B    1 0 0

  14 H    1     1.0914     2.0625   29 C    0 0 0
  14 H    1     2.1491     4.0612   30 C   -1 0 0
  14 H    1     2.1666     4.0942   26 C    0 0 0
  14 H    1     2.5198     4.7617   11 H    0 0 1
  14 H    1     2.5723     4.8609   42 O    0 0 0
  14 H    1     2.7355     5.1693    6 B   -1-1 1

  15 H    1     1.0914     2.0624   32 C    0 0 0
  15 H    1     2.1475     4.0582   31 C   -1-1 1
  15 H    1     2.1678     4.0966   35 C    0 0 0
  15 H    1     2.5200     4.7621   18 H    0 0 0
  15 H    1     2.5667     4.8503   39 O    0 0 0
  15 H    1     2.7315     5.1618    3 B   -1-1 1

  16 H    1     1.0913     2.0623   33 C    0 0 0
  16 H    1     2.1487     4.0605   36 C    0 0 0
  16 H    1     2.1667     4.0945   34 C    0 0 0
  16 H    1     2.5197     4.7616   17 H    0 0 0
  16 H    1     2.5723     4.8610   41 O    0 0 0
  16 H    1     2.7359     5.1701    5 B    0 0 0

  17 H    1     1.0915     2.0626   34 C    0 0 0
  17 H    1     2.1479     4.0589   31 C    0 0 0
  17 H    1     2.1679     4.0968   33 C    0 0 0
  17 H    1     2.5197     4.7616   16 H    0 0 0
  17 H    1     2.5677     4.8522   37 O    0 0 0
  17 H    1     2.7331     5.1648    3 B    0 0 0

  18 H    1     1.0914     2.0624   35 C    0 0 0
  18 H    1     2.1486     4.0602   36 C   -1-1 1
  18 H    1     2.1668     4.0947   32 C    0 0 0
  18 H    1     2.5200     4.7621   15 H    0 0 0
  18 H    1     2.5717     4.8598   42 O    0 0 0
  18 H    1     2.7349     5.1682    5 B   -1-1 1

  19 C    1     1.4020     2.6495   22 C    0 1-1
  19 C    1     1.4021     2.6495   20 C    0 0 0
  19 C    1     1.5504     2.9298    2 B    0 0 0
  19 C    1     2.1471     4.0575    9 H    0 1-1
  19 C    1     2.1472     4.0576    7 H    0 0 0
  19 C    1     2.4246     4.5817   21 C    0 1-1

  20 C    1     1.0913     2.0623    7 H    0 0 0
  20 C    1     1.3914     2.6294   23 C    0 0 0
  20 C    1     1.4021     2.6495   19 C    0 0 0
  20 C    1     2.1669     4.0948   10 H    0 0 0
  20 C    1     2.4177     4.5688   22 C    0 1-1
  20 C    1     2.4250     4.5825   24 C    0 0 0

  21 C    1     1.0914     2.0625    8 H    0 0 0
  21 C    1     1.3914     2.6293   22 C    0 0 0
  21 C    1     1.4026     2.6505   24 C    0-1 1
  21 C    1     2.1680     4.0970    9 H    0 0 0
  21 C    1     2.4182     4.5697   23 C    0-1 1
  21 C    1     2.4246     4.5817   19 C    0-1 1

  22 C    1     1.0914     2.0624    9 H    0 0 0
  22 C    1     1.3914     2.6293   21 C    0 0 0
  22 C    1     1.4020     2.6495   19 C    0-1 1
  22 C    1     2.1666     4.0942    8 H    0 0 0
  22 C    1     2.4177     4.5688   20 C    0-1 1
  22 C    1     2.4250     4.5826   24 C    0-1 1

  23 C    1     1.0915     2.0626   10 H    0 0 0
  23 C    1     1.3914     2.6294   20 C    0 0 0
  23 C    1     1.4025     2.6504   24 C    0 0 0
  23 C    1     2.1680     4.0969    7 H    0 0 0
  23 C    1     2.4182     4.5697   21 C    0 1-1
  23 C    1     2.4246     4.5818   19 C    0 0 0

  24 C    1     1.4025     2.6504   23 C    0 0 0
  24 C    1     1.4026     2.6505   21 C    0 1-1
  24 C    1     1.5513     2.9316    4 B    0 0 0
  24 C    1     2.1490     4.0610   10 H    0 0 0
  24 C    1     2.1493     4.0616    8 H    0 1-1
  24 C    1     2.4250     4.5825   20 C    0 0 0

  25 C    1     1.4020     2.6494   26 C    1 0-1
  25 C    1     1.4021     2.6495   28 C    0 0-1
  25 C    1     1.5503     2.9297    1 B    1 0 0
  25 C    1     2.1469     4.0571   11 H    1 0 0
  25 C    1     2.1475     4.0581   13 H    0 0 0
  25 C    1     2.4246     4.5818   27 C    0 0-1

  26 C    1     1.0913     2.0623   11 H    0 0 1
  26 C    1     1.3914     2.6293   29 C    0 0 0
  26 C    1     1.4020     2.6494   25 C   -1 0 1
  26 C    1     2.1666     4.0942   14 H    0 0 0
  26 C    1     2.4175     4.5684   28 C   -1 0 0
  26 C    1     2.4251     4.5828   30 C   -1 0 0

  27 C    1     1.0914     2.0625   12 H    0 0 0
  27 C    1     1.3915     2.6295   28 C    0 0 0
  27 C    1     1.4026     2.6505   30 C    0 0 0
  27 C    1     2.1679     4.0967   13 H    0 0 1
  27 C    1     2.4179     4.5691   29 C    1 0 0
  27 C    1     2.4246     4.5818   25 C    0 0 1

  28 C    1     1.0914     2.0624   13 H    0 0 1
  28 C    1     1.3915     2.6295   27 C    0 0 0
  28 C    1     1.4021     2.6495   25 C    0 0 1
  28 C    1     2.1664     4.0939   12 H    0 0 0
  28 C    1     2.4175     4.5684   26 C    1 0 0
  28 C    1     2.4253     4.5832   30 C    0 0 0

  29 C    1     1.0914     2.0625   14 H    0 0 0
  29 C    1     1.3914     2.6293   26 C    0 0 0
  29 C    1     1.4025     2.6504   30 C   -1 0 0
  29 C    1     2.1680     4.0968   11 H    0 0 1
  29 C    1     2.4179     4.5691   27 C   -1 0 0
  29 C    1     2.4247     4.5819   25 C   -1 0 1

  30 C    1     1.4025     2.6504   29 C    1 0 0
  30 C    1     1.4026     2.6505   27 C    0 0 0
  30 C    1     1.5516     2.9322    6 B    0-1 1
  30 C    1     2.1491     4.0612   14 H    1 0 0
  30 C    1     2.1493     4.0617   12 H    0 0 0
  30 C    1     2.4251     4.5828   26 C    1 0 0

  31 C    1     1.4021     2.6496   32 C    1 1-1
  31 C    1     1.4021     2.6497   34 C    0 0 0
  31 C    1     1.5502     2.9294    3 B    0 0 0
  31 C    1     2.1475     4.0582   15 H    1 1-1
  31 C    1     2.1479     4.0589   17 H    0 0 0
  31 C    1     2.4244     4.5814   33 C    0 0 0

  32 C    1     1.0914     2.0624   15 H    0 0 0
  32 C    1     1.3914     2.6293   35 C    0 0 0
  32 C    1     1.4021     2.6496   31 C   -1-1 1
  32 C    1     2.1668     4.0947   18 H    0 0 0
  32 C    1     2.4179     4.5692   34 C   -1-1 1
  32 C    1     2.4251     4.5827   36 C   -1-1 1

  33 C    1     1.0913     2.0623   16 H    0 0 0
  33 C    1     1.3914     2.6294   34 C    0 0 0
  33 C    1     1.4025     2.6504   36 C    0 0 0
  33 C    1     2.1679     4.0968   17 H    0 0 0
  33 C    1     2.4178     4.5690   35 C    1 1-1
  33 C    1     2.4244     4.5814   31 C    0 0 0

  34 C    1     1.0915     2.0626   17 H    0 0 0
  34 C    1     1.3914     2.6294   33 C    0 0 0
  34 C    1     1.4021     2.6497   31 C    0 0 0
  34 C    1     2.1667     4.0945   16 H    0 0 0
  34 C    1     2.4179     4.5692   32 C    1 1-1
  34 C    1     2.4253     4.5832   36 C    0 0 0

  35 C    1     1.0914     2.0624   18 H    0 0 0
  35 C    1     1.3914     2.6293   32 C    0 0 0
  35 C    1     1.4025     2.6503   36 C   -1-1 1
  35 C    1     2.1678     4.0966   15 H    0 0 0
  35 C    1     2.4178     4.5690   33 C   -1-1 1
  35 C    1     2.4245     4.5817   31 C   -1-1 1

  36 C    1     1.4025     2.6503   35 C    1 1-1
  36 C    1     1.4025     2.6504   33 C    0 0 0
  36 C    1     1.5516     2.9322    5 B    0 0 0
  36 C    1     2.1486     4.0602   18 H    1 1-1
  36 C    1     2.1487     4.0605   16 H    0 0 0
  36 C    1     2.4251     4.5827   32 C    1 1-1

  37 O    1     1.3791     2.6061    3 B    0 0 0
  37 O    1     1.3791     2.6061    1 B    1 0 0
  37 O    1     2.3880     4.5126   38 O    1 0 0
  37 O    1     2.3882     4.5130   39 O    1 1-1
  37 O    1     2.5383     4.7966   31 C    0 0 0
  37 O    1     2.5384     4.7968   25 C    0 0 0

  38 O    1     1.3793     2.6065    1 B    0 0 0
  38 O    1     1.3793     2.6065    2 B    0 0 0
  38 O    1     2.3880     4.5126   37 O   -1 0 0
  38 O    1     2.3882     4.5131   39 O    0 1-1
  38 O    1     2.5391     4.7981   19 C    0 0 0
  38 O    1     2.5395     4.7990   25 C   -1 0 0

  39 O    1     1.3793     2.6064    3 B   -1-1 1
  39 O    1     1.3793     2.6065    2 B    0-1 1
  39 O    1     2.3882     4.5130   37 O   -1-1 1
  39 O    1     2.3882     4.5131   38 O    0-1 1
  39 O    1     2.5390     4.7980   19 C    0-1 1
  39 O    1     2.5391     4.7982   31 C   -1-1 1

  40 O    1     1.3795     2.6068    6 B    0-1 1
  40 O    1     1.3795     2.6068    4 B    0-1 1
  40 O    1     2.3880     4.5126   42 O    1 0 0
  40 O    1     2.3884     4.5134   41 O    0-1 1
  40 O    1     2.5400     4.7998   24 C    0-1 1
  40 O    1     2.5403     4.8005   30 C    0 0 0

  41 O    1     1.3795     2.6069    5 B    0 0 0
  41 O    1     1.3795     2.6070    4 B    0 0 0
  41 O    1     2.3881     4.5128   42 O    1 1-1
  41 O    1     2.3884     4.5134   40 O    0 1-1
  41 O    1     2.5404     4.8006   24 C    0 0 0
  41 O    1     2.5405     4.8008   36 C    0 0 0

  42 O    1     1.3796     2.6071    6 B   -1-1 1
  42 O    1     1.3797     2.6072    5 B   -1-1 1
  42 O    1     2.3880     4.5126   40 O   -1 0 0
  42 O    1     2.3881     4.5128   41 O   -1-1 1
  42 O    1     2.5409     4.8016   36 C   -1-1 1
  42 O    1     2.5410     4.8019   30 C   -1 0 0


 SYMMETRY ALLOWED INTERNAL DEGREE(S) OF FREEDOM: 123
 TTTTTTTTTTTTTTTTTTTTTTTTTTTTTT SYMM        TELAPSE        0.31 TCPU        0.31
 TTTTTTTTTTTTTTTTTTTTTTTTTTTTTT INT_SCREEN  TELAPSE        0.34 TCPU        0.34

 DFT PARAMETERS

     ATOM       ELECTRONS   NET CHARGE   R(ANGSTROM)
   1   5  B       5.0000      0.0000     0.89000000
   7   1  H       1.0000      0.0000     1.11000000
  19   6  C       6.0000      0.0000     0.77000000
  37   8  O       8.0000      0.0000     0.74000000

 SIZE OF GRID=    1283089
 TTTTTTTTTTTTTTTTTTTTTTTTTTTTTT MAKE_GRID2  TELAPSE       10.57 TCPU       10.56
 BECKE WEIGHT FUNCTION
 RADSAFE =     2.00
 TOLERANCES - DENSITY:10**- 6; POTENTIAL:10**- 9; GRID WGT:10**-14

 RADIAL INTEGRATION  - INTERVALS (POINTS,UPPER LIMIT):            1( 75,  4.0*R)

 ANGULAR INTEGRATION - INTERVALS (ACCURACY LEVEL [N. POINTS] UPPER LIMIT):
  1(  4[  86]   0.2)  2(  8[ 194]   0.5)  3( 12[ 350]   0.9)  4( 16[ 974]   3.5)
  5( 12[ 350]9999.0)
 TTTTTTTTTTTTTTTTTTTTTTTTTTTTTT INT_CALC    TELAPSE       10.67 TCPU       10.66
 EEEEEEEEEE INT_CALC TERMINATION  DATE 19 02 2026 TIME 18:47:37.4

 *******************************************************************************
 cof-1_z37_L020_incl                                                             
 CRYSTAL - SCF - TYPE OF CALCULATION :  RESTRICTED CLOSED SHELL
 *******************************************************************************

 CAPPA:IS1  2;IS2  2;IS3  8; K PTS MONK NET  20; SYMMOPS:K SPACE   2;G SPACE   1

 TTTTTTTTTTTTTTTTTTTTTTTTTTTTTT SDIK        TELAPSE       11.36 TCPU       18.63

 AAAAAAAAAAAAAAAAAAAAAAAAAAAAAAAAAAAAAAAAAAAAAAAAAAAAAAAAAAAAAAAAAAAAAAAAAAAAAAA
         ATOMIC WAVEFUNCTION(S)


 NUCLEAR CHARGE  5.0  SYMMETRY SPECIES            S    P
 N. ELECTRONS    5.0  NUMBER OF PRIMITIVE GTOS    8    4
                      NUMBER OF CONTRACTED GTOS   4    2
                      NUMBER OF CLOSED SHELLS     2    0
                      OPEN SHELL OCCUPATION       0    1

  ZNUC  SCFIT    TOTAL HF ENERGY   KINETIC ENERGY   VIRIAL THEOREM ACCURACY
   5.0    11    -2.451164084E+01  2.462155050E+01 -1.995536038E+00  1.5E-06

 NUCLEAR CHARGE  1.0  SYMMETRY SPECIES            S
 N. ELECTRONS    1.0  NUMBER OF PRIMITIVE GTOS    4
                      NUMBER OF CONTRACTED GTOS   2
                      NUMBER OF CLOSED SHELLS     0
                      OPEN SHELL OCCUPATION       1

  ZNUC  SCFIT    TOTAL HF ENERGY   KINETIC ENERGY   VIRIAL THEOREM ACCURACY
   1.0     1    -4.977266687E-01  5.190767460E-01 -1.958869132E+00  0.0E+00

 NUCLEAR CHARGE  6.0  SYMMETRY SPECIES            S    P
 N. ELECTRONS    6.0  NUMBER OF PRIMITIVE GTOS    8    4
                      NUMBER OF CONTRACTED GTOS   4    2
                      NUMBER OF CLOSED SHELLS     2    0
                      OPEN SHELL OCCUPATION       0    2

  ZNUC  SCFIT    TOTAL HF ENERGY   KINETIC ENERGY   VIRIAL THEOREM ACCURACY
   6.0     9    -3.766704647E+01  3.775180683E+01 -1.997754800E+00  1.1E-06

 NUCLEAR CHARGE  8.0  SYMMETRY SPECIES            S    P
 N. ELECTRONS    8.0  NUMBER OF PRIMITIVE GTOS    8    4
                      NUMBER OF CONTRACTED GTOS   4    2
                      NUMBER OF CLOSED SHELLS     2    0
                      OPEN SHELL OCCUPATION       0    4

  ZNUC  SCFIT    TOTAL HF ENERGY   KINETIC ENERGY   VIRIAL THEOREM ACCURACY
   8.0    12    -7.477373220E+01  7.477365593E+01 -2.000001020E+00  3.8E-06

 AAAAAAAAAAAAAAAAAAAAAAAAAAAAAAAAAAAAAAAAAAAAAAAAAAAAAAAAAAAAAAAAAAAAAAAAAAAAAAA

 CHARGE NORMALIZATION FACTOR   1.00000000
 TOTAL ATOMIC CHARGES:
   5.0000000   5.0000000   5.0000000   5.0000000   5.0000000   5.0000000
   1.0000000   1.0000000   1.0000000   1.0000000   1.0000000   1.0000000
   1.0000000   1.0000000   1.0000000   1.0000000   1.0000000   1.0000000
   6.0000000   6.0000000   6.0000000   6.0000000   6.0000000   6.0000000
   6.0000000   6.0000000   6.0000000   6.0000000   6.0000000   6.0000000
   6.0000000   6.0000000   6.0000000   6.0000000   6.0000000   6.0000000
   8.0000000   8.0000000   8.0000000   8.0000000   8.0000000   8.0000000
 TTTTTTTTTTTTTTTTTTTTTTTTTTTTTT MOQGAD      TELAPSE       11.41 TCPU       20.24
 TTTTTTTTTTTTTTTTTTTTTTTTTTTTTT SHELLXN     TELAPSE       20.23 TCPU      302.34
 TTTTTTTTTTTTTTTTTTTTTTTTTTTTTT MONMO3      TELAPSE       20.39 TCPU      307.53
 NUMERICALLY INTEGRATED DENSITY    198.0000150094
 TTTTTTTTTTTTTTTTTTTTTTTTTTTTTT NUMDFT      TELAPSE       20.99 TCPU      326.50
 CYC   0 ETOT(AU) -1.295964722354E+03 DETOT -1.30E+03 tst  0.00E+00 PX  1.00E+00
 TTTTTTTTTTTTTTTTTTTTTTTTTTTTTT DIIS        TELAPSE       21.02 TCPU      327.59
 TTTTTTTTTTTTTTTTTTTTTTTTTTTTTT FDIK        TELAPSE       21.50 TCPU      342.74
 INSULATING STATE
 TOP OF VALENCE BANDS -    BAND     99; K    1; EIG -3.0786941E-01 AU
 BOTTOM OF VIRTUAL BANDS - BAND    100; K    1; EIG -1.5873291E-01 AU
 DIRECT ENERGY BAND GAP:   4.0582 eV
 TTTTTTTTTTTTTTTTTTTTTTTTTTTTTT PDIG        TELAPSE       21.79 TCPU      348.88
 CHARGE NORMALIZATION FACTOR   1.00000000
 TOTAL ATOMIC CHARGES:
   4.1447751   4.1504220   4.1508715   4.1504040   4.1501884   4.1443703
   0.7857557   0.7858739   0.7853735   0.7854495   0.7858287   0.7860074
   0.7858267   0.7859765   0.7853496   0.7855035   0.7857074   0.7858697
   6.0472083   6.2679419   6.2680447   6.2662687   6.2661621   6.0465531
   6.0472052   6.2665585   6.2665929   6.2664351   6.2666001   6.0459900
   6.0475978   6.2659948   6.2665316   6.2675485   6.2682933   6.0460828
   8.7000083   8.7002108   8.6974578   8.7005379   8.6978834   8.7007390
 TTTTTTTTTTTTTTTTTTTTTTTTTTTTTT MOQGAD      TELAPSE       21.84 TCPU      348.94
 TTTTTTTTTTTTTTTTTTTTTTTTTTTTTT SHELLXN     TELAPSE       31.00 TCPU      641.24
 TTTTTTTTTTTTTTTTTTTTTTTTTTTTTT MONMO3      TELAPSE       31.16 TCPU      646.42
 NUMERICALLY INTEGRATED DENSITY    198.0000031869
 TTTTTTTTTTTTTTTTTTTTTTTTTTTTTT NUMDFT      TELAPSE       31.76 TCPU      665.67
 CYC   1 ETOT(AU) -1.288821470176E+03 DETOT  7.14E+00 tst  0.00E+00 PX  1.00E+00
 TTTTTTTTTTTTTTTTTTTTTTTTTTTTTT DIIS        TELAPSE       31.81 TCPU      667.05
 DIIS TEST: 0.10950E+01 AT SCF   CYCLE   1 - MIX   30 %
 TTTTTTTTTTTTTTTTTTTTTTTTTTTTTT FDIK        TELAPSE       32.29 TCPU      682.45
 INSULATING STATE
 TOP OF VALENCE BANDS -    BAND     99; K    1; EIG -2.1687894E-01 AU
 BOTTOM OF VIRTUAL BANDS - BAND    100; K    1; EIG -8.0951217E-02 AU
 DIRECT ENERGY BAND GAP:   3.6988 eV
 TTTTTTTTTTTTTTTTTTTTTTTTTTTTTT PDIG        TELAPSE       32.58 TCPU      688.59
 CHARGE NORMALIZATION FACTOR   1.00000000
 TOTAL ATOMIC CHARGES:
   4.6884567   4.6956750   4.6947066   4.6948721   4.6953400   4.6869595
   0.9140322   0.9141921   0.9180475   0.9181225   0.9126653   0.9125230
   0.9125733   0.9124661   0.9180004   0.9181071   0.9139098   0.9139641
   5.8660024   6.1175804   6.1180783   6.1417506   6.1438757   5.8684161
   5.8733107   6.1319536   6.1338536   6.1331612   6.1330342   5.8764749
   5.8656672   6.1418712   6.1440434   6.1178591   6.1181490   5.8689014
   8.3408795   8.3411713   8.3538598   8.3405388   8.3543126   8.3406420
 TTTTTTTTTTTTTTTTTTTTTTTTTTTTTT MOQGAD      TELAPSE       32.63 TCPU      688.65
 TTTTTTTTTTTTTTTTTTTTTTTTTTTTTT SHELLXN     TELAPSE       41.79 TCPU      980.93
 TTTTTTTTTTTTTTTTTTTTTTTTTTTTTT MONMO3      TELAPSE       41.96 TCPU      986.11
 NUMERICALLY INTEGRATED DENSITY    198.0000052450
 TTTTTTTTTTTTTTTTTTTTTTTTTTTTTT NUMDFT      TELAPSE       42.56 TCPU     1005.33
 CYC   2 ETOT(AU) -1.289015440528E+03 DETOT -1.94E-01 tst  4.12E-03 PX  1.58E-01
 TTTTTTTTTTTTTTTTTTTTTTTTTTTTTT DIIS        TELAPSE       42.60 TCPU     1006.84
 DIIS TEST: 0.46275E+00 AT SCF   CYCLE   2 - DIIS ACTIVE - HISTORY:     2 CYCLES
 TTTTTTTTTTTTTTTTTTTTTTTTTTTTTT FDIK        TELAPSE       43.09 TCPU     1022.24
 INSULATING STATE
 TOP OF VALENCE BANDS -    BAND     99; K    1; EIG -2.2989774E-01 AU
 BOTTOM OF VIRTUAL BANDS - BAND    100; K    1; EIG -7.6685958E-02 AU
 DIRECT ENERGY BAND GAP:   4.1691 eV
 TTTTTTTTTTTTTTTTTTTTTTTTTTTTTT PDIG        TELAPSE       43.38 TCPU     1028.38
 CHARGE NORMALIZATION FACTOR   1.00000000
 TOTAL ATOMIC CHARGES:
   4.4821528   4.4866942   4.4863299   4.4856864   4.4857616   4.4807857
   0.8891291   0.8893199   0.8922825   0.8923852   0.8889518   0.8892343
   0.8890881   0.8890219   0.8922229   0.8924229   0.8890416   0.8891794
   5.8913018   6.1635503   6.1638749   6.1617677   6.1606325   5.8902767
   5.9003215   6.1604854   6.1596844   6.1603154   6.1599337   5.9002332
   5.8919920   6.1619489   6.1606154   6.1635376   6.1639558   5.8898063
   8.5189945   8.5192545   8.5144471   8.5194669   8.5141984   8.5197147
 TTTTTTTTTTTTTTTTTTTTTTTTTTTTTT MOQGAD      TELAPSE       43.43 TCPU     1028.44
 TTTTTTTTTTTTTTTTTTTTTTTTTTTTTT SHELLXN     TELAPSE       52.59 TCPU     1320.84
 TTTTTTTTTTTTTTTTTTTTTTTTTTTTTT MONMO3      TELAPSE       52.75 TCPU     1326.02
 NUMERICALLY INTEGRATED DENSITY    198.0000051784
 TTTTTTTTTTTTTTTTTTTTTTTTTTTTTT NUMDFT      TELAPSE       53.36 TCPU     1345.25
 CYC   3 ETOT(AU) -1.289112316980E+03 DETOT -9.69E-02 tst  7.19E-04 PX  6.29E-02
 TTTTTTTTTTTTTTTTTTTTTTTTTTTTTT DIIS        TELAPSE       53.41 TCPU     1346.99
 DIIS TEST: 0.11683E-01 AT SCF   CYCLE   3 - DIIS ACTIVE - HISTORY:     3 CYCLES
 TTTTTTTTTTTTTTTTTTTTTTTTTTTTTT FDIK        TELAPSE       53.89 TCPU     1362.38
 INSULATING STATE
 TOP OF VALENCE BANDS -    BAND     99; K    1; EIG -2.4150238E-01 AU
 BOTTOM OF VIRTUAL BANDS - BAND    100; K    1; EIG -8.5886028E-02 AU
 DIRECT ENERGY BAND GAP:   4.2345 eV
 TTTTTTTTTTTTTTTTTTTTTTTTTTTTTT PDIG        TELAPSE       54.18 TCPU     1368.53
 CHARGE NORMALIZATION FACTOR   1.00000000
 TOTAL ATOMIC CHARGES:
   4.4896301   4.4915865   4.4909628   4.4911498   4.4914031   4.4888972
   0.8730850   0.8733586   0.8750730   0.8749870   0.8711987   0.8711044
   0.8711167   0.8710798   0.8750963   0.8749419   0.8730324   0.8731572
   5.9403629   6.1565619   6.1567378   6.1724215   6.1758102   5.9438089
   5.9485529   6.1652388   6.1671512   6.1663128   6.1662707   5.9516705
   5.9400447   6.1722321   6.1762092   6.1565591   6.1569181   5.9442584
   8.4834860   8.4836770   8.4936967   8.4832351   8.4946344   8.4832887
 TTTTTTTTTTTTTTTTTTTTTTTTTTTTTT MOQGAD      TELAPSE       54.23 TCPU     1368.58
 TTTTTTTTTTTTTTTTTTTTTTTTTTTTTT SHELLXN     TELAPSE       63.40 TCPU     1660.94
 TTTTTTTTTTTTTTTTTTTTTTTTTTTTTT MONMO3      TELAPSE       63.56 TCPU     1666.12
 NUMERICALLY INTEGRATED DENSITY    198.0000048810
 TTTTTTTTTTTTTTTTTTTTTTTTTTTTTT NUMDFT      TELAPSE       64.16 TCPU     1685.34
 CYC   4 ETOT(AU) -1.289114703481E+03 DETOT -2.39E-03 tst  3.08E-05 PX  1.21E-02
 TTTTTTTTTTTTTTTTTTTTTTTTTTTTTT DIIS        TELAPSE       64.22 TCPU     1687.18
 DIIS TEST: 0.40722E-02 AT SCF   CYCLE   4 - DIIS ACTIVE - HISTORY:     4 CYCLES
 TTTTTTTTTTTTTTTTTTTTTTTTTTTTTT FDIK        TELAPSE       64.70 TCPU     1702.65
 INSULATING STATE
 TOP OF VALENCE BANDS -    BAND     99; K    1; EIG -2.3928381E-01 AU
 BOTTOM OF VIRTUAL BANDS - BAND    100; K    1; EIG -8.5053818E-02 AU
 DIRECT ENERGY BAND GAP:   4.1968 eV
 TTTTTTTTTTTTTTTTTTTTTTTTTTTTTT PDIG        TELAPSE       64.99 TCPU     1708.80
 CHARGE NORMALIZATION FACTOR   1.00000000
 TOTAL ATOMIC CHARGES:
   4.4897052   4.4944024   4.4938491   4.4933562   4.4935308   4.4882074
   0.8758415   0.8760045   0.8785879   0.8787701   0.8749281   0.8751400
   0.8749969   0.8749676   0.8785289   0.8788046   0.8757346   0.8758518
   5.9224654   6.1625734   6.1628831   6.1719191   6.1704791   5.9202590
   5.9291610   6.1669913   6.1664640   6.1670642   6.1665683   5.9283578
   5.9229008   6.1721350   6.1704489   6.1625925   6.1630247   5.9200074
   8.4964677   8.4967384   8.4979562   8.4967475   8.4976200   8.4969677
 TTTTTTTTTTTTTTTTTTTTTTTTTTTTTT MOQGAD      TELAPSE       65.05 TCPU     1708.85
 TTTTTTTTTTTTTTTTTTTTTTTTTTTTTT SHELLXN     TELAPSE       74.21 TCPU     2001.18
 TTTTTTTTTTTTTTTTTTTTTTTTTTTTTT MONMO3      TELAPSE       74.37 TCPU     2006.35
 NUMERICALLY INTEGRATED DENSITY    198.0000049329
 TTTTTTTTTTTTTTTTTTTTTTTTTTTTTT NUMDFT      TELAPSE       74.97 TCPU     2025.56
 CYC   5 ETOT(AU) -1.289115633002E+03 DETOT -9.30E-04 tst  5.93E-06 PX  6.96E-03
 TTTTTTTTTTTTTTTTTTTTTTTTTTTTTT DIIS        TELAPSE       75.04 TCPU     2027.70
 DIIS TEST: 0.10661E-03 AT SCF   CYCLE   5 - DIIS ACTIVE - HISTORY:     5 CYCLES
 TTTTTTTTTTTTTTTTTTTTTTTTTTTTTT FDIK        TELAPSE       75.52 TCPU     2043.14
 INSULATING STATE
 TOP OF VALENCE BANDS -    BAND     99; K    1; EIG -2.3904686E-01 AU
 BOTTOM OF VIRTUAL BANDS - BAND    100; K    1; EIG -8.4497075E-02 AU
 DIRECT ENERGY BAND GAP:   4.2055 eV
 TTTTTTTTTTTTTTTTTTTTTTTTTTTTTT PDIG        TELAPSE       75.81 TCPU     2049.29
 CHARGE NORMALIZATION FACTOR   1.00000000
 TOTAL ATOMIC CHARGES:
   4.4898097   4.4932199   4.4926643   4.4928952   4.4931086   4.4891647
   0.8768582   0.8771294   0.8797199   0.8795633   0.8760054   0.8759355
   0.8759656   0.8758766   0.8797350   0.8795242   0.8767900   0.8769430
   5.9183527   6.1613138   6.1617851   6.1689900   6.1733722   5.9239484
   5.9272780   6.1649483   6.1669777   6.1658256   6.1662505   5.9318352
   5.9183464   6.1688036   6.1737558   6.1613658   6.1618764   5.9241264
   8.4949207   8.4950875   8.4995476   8.4948176   8.5006811   8.4948852
 TTTTTTTTTTTTTTTTTTTTTTTTTTTTTT MOQGAD      TELAPSE       75.86 TCPU     2049.34
 TTTTTTTTTTTTTTTTTTTTTTTTTTTTTT SHELLXN     TELAPSE       85.03 TCPU     2341.70
 TTTTTTTTTTTTTTTTTTTTTTTTTTTTTT MONMO3      TELAPSE       85.19 TCPU     2346.88
 NUMERICALLY INTEGRATED DENSITY    198.0000049387
 TTTTTTTTTTTTTTTTTTTTTTTTTTTTTT NUMDFT      TELAPSE       85.79 TCPU     2366.13
 CYC   6 ETOT(AU) -1.289115638235E+03 DETOT -5.23E-06 tst  1.04E-06 PX  1.22E-03
 TTTTTTTTTTTTTTTTTTTTTTTTTTTTTT DIIS        TELAPSE       85.86 TCPU     2368.32
 DIIS TEST: 0.92075E-04 AT SCF   CYCLE   6 - DIIS ACTIVE - HISTORY:     6 CYCLES
 TTTTTTTTTTTTTTTTTTTTTTTTTTTTTT FDIK        TELAPSE       86.34 TCPU     2383.79
 INSULATING STATE
 TOP OF VALENCE BANDS -    BAND     99; K    1; EIG -2.3906050E-01 AU
 BOTTOM OF VIRTUAL BANDS - BAND    100; K    1; EIG -8.4528051E-02 AU
 DIRECT ENERGY BAND GAP:   4.2050 eV
 TTTTTTTTTTTTTTTTTTTTTTTTTTTTTT PDIG        TELAPSE       86.63 TCPU     2389.94
 CHARGE NORMALIZATION FACTOR   1.00000000
 TOTAL ATOMIC CHARGES:
   4.4899340   4.4937371   4.4931906   4.4928620   4.4930514   4.4886812
   0.8768705   0.8770927   0.8795563   0.8796494   0.8758825   0.8760052
   0.8759049   0.8758831   0.8795293   0.8796513   0.8767867   0.8769196
   5.9218620   6.1614433   6.1615994   6.1708606   6.1708664   5.9213695
   5.9295155   6.1657918   6.1659539   6.1661956   6.1657100   5.9298675
   5.9220495   6.1709054   6.1710152   6.1614354   6.1617600   5.9213548
   8.4951786   8.4954208   8.4988934   8.4953077   8.4989805   8.4954751
 TTTTTTTTTTTTTTTTTTTTTTTTTTTTTT MOQGAD      TELAPSE       86.69 TCPU     2389.99
 TTTTTTTTTTTTTTTTTTTTTTTTTTTTTT SHELLXN     TELAPSE       95.85 TCPU     2682.39
 TTTTTTTTTTTTTTTTTTTTTTTTTTTTTT MONMO3      TELAPSE       96.01 TCPU     2687.56
 NUMERICALLY INTEGRATED DENSITY    198.0000049427
 TTTTTTTTTTTTTTTTTTTTTTTTTTTTTT NUMDFT      TELAPSE       96.61 TCPU     2706.77
 CYC   7 ETOT(AU) -1.289115660839E+03 DETOT -2.26E-05 tst  6.04E-07 PX  8.89E-04
 TTTTTTTTTTTTTTTTTTTTTTTTTTTTTT DIIS        TELAPSE       96.69 TCPU     2709.27
 DIIS TEST: 0.41574E-05 AT SCF   CYCLE   7 - DIIS ACTIVE - HISTORY:     7 CYCLES
 TTTTTTTTTTTTTTTTTTTTTTTTTTTTTT FDIK        TELAPSE       97.18 TCPU     2724.75
 INSULATING STATE
 TOP OF VALENCE BANDS -    BAND     99; K    1; EIG -2.3907694E-01 AU
 BOTTOM OF VIRTUAL BANDS - BAND    100; K    1; EIG -8.4575954E-02 AU
 DIRECT ENERGY BAND GAP:   4.2042 eV
 TTTTTTTTTTTTTTTTTTTTTTTTTTTTTT PDIG        TELAPSE       97.47 TCPU     2730.89
 CHARGE NORMALIZATION FACTOR   1.00000000
 TOTAL ATOMIC CHARGES:
   4.4898554   4.4938670   4.4933176   4.4931037   4.4932907   4.4887020
   0.8768197   0.8770247   0.8795233   0.8795688   0.8758413   0.8759430
   0.8758712   0.8758127   0.8794904   0.8795766   0.8767295   0.8768575
   5.9212928   6.1613487   6.1617378   6.1703601   6.1711607   5.9220970
   5.9289186   6.1656522   6.1661176   6.1660231   6.1659129   5.9302136
   5.9215522   6.1704349   6.1712777   6.1613748   6.1618670   5.9220127
   8.4954366   8.4956724   8.4984137   8.4955654   8.4986324   8.4957298
 TTTTTTTTTTTTTTTTTTTTTTTTTTTTTT MOQGAD      TELAPSE       97.52 TCPU     2730.94
 TTTTTTTTTTTTTTTTTTTTTTTTTTTTTT SHELLXN     TELAPSE      106.68 TCPU     3023.32
 TTTTTTTTTTTTTTTTTTTTTTTTTTTTTT MONMO3      TELAPSE      106.84 TCPU     3028.50
 NUMERICALLY INTEGRATED DENSITY    198.0000049437
 TTTTTTTTTTTTTTTTTTTTTTTTTTTTTT NUMDFT      TELAPSE      107.45 TCPU     3047.76
 CYC   8 ETOT(AU) -1.289115661545E+03 DETOT -7.06E-07 tst  2.22E-08 PX  1.69E-04
 TTTTTTTTTTTTTTTTTTTTTTTTTTTTTT DIIS        TELAPSE      107.53 TCPU     3050.30
 DIIS TEST: 0.48280E-06 AT SCF   CYCLE   8 - DIIS ACTIVE - HISTORY:     8 CYCLES
 TTTTTTTTTTTTTTTTTTTTTTTTTTTTTT FDIK        TELAPSE      108.01 TCPU     3065.73
 INSULATING STATE
 TOP OF VALENCE BANDS -    BAND     99; K    1; EIG -2.3908467E-01 AU
 BOTTOM OF VIRTUAL BANDS - BAND    100; K    1; EIG -8.4579376E-02 AU
 DIRECT ENERGY BAND GAP:   4.2043 eV
 TTTTTTTTTTTTTTTTTTTTTTTTTTTTTT PDIG        TELAPSE      108.30 TCPU     3071.88
 CHARGE NORMALIZATION FACTOR   1.00000000
 TOTAL ATOMIC CHARGES:
   4.4899351   4.4938543   4.4933012   4.4930689   4.4932613   4.4887688
   0.8767947   0.8770148   0.8795107   0.8795632   0.8758315   0.8759284
   0.8758501   0.8758095   0.8794863   0.8795627   0.8767087   0.8768437
   5.9213178   6.1614132   6.1616796   6.1704841   6.1712038   5.9218754
   5.9290116   6.1656835   6.1661320   6.1661261   6.1658526   5.9300805
   5.9215203   6.1705135   6.1713671   6.1614315   6.1618147   5.9218482
   8.4953356   8.4955650   8.4986856   8.4954419   8.4989253   8.4955968
 TTTTTTTTTTTTTTTTTTTTTTTTTTTTTT MOQGAD      TELAPSE      108.35 TCPU     3071.93
 TTTTTTTTTTTTTTTTTTTTTTTTTTTTTT SHELLXN     TELAPSE      117.51 TCPU     3364.31
 +++ ENERGIES IN A.U. +++
 ::: EXT EL-POLE                                  -1.3755927421847E+03
 ::: EXT EL-SPHEROPOLE                             1.5490985072145E+01
 ::: BIELET ZONE E-E                               2.2515568272912E+03
 ::: TOTAL E-E                                     8.9145507017862E+02
 ::: TOTAL E-N + N-E                              -3.6099277430188E+03
 ::: TOTAL N-N                                     2.8315670443034E+02
 ::: KINETIC ENERGY                                1.2799123140907E+03
 ::: PSEUDO TOTAL   ENERGY                        -1.1554036543192E+03
 ::: VIRIAL COEFFICIENT                            1.0511262856182E+00
 TTTTTTTTTTTTTTTTTTTTTTTTTTTTTT MONMO3      TELAPSE      117.68 TCPU     3369.49
 NUMERICALLY INTEGRATED DENSITY    198.0000049429
 EXCHANGE ENERGY: -0.126017693837E+03  CORRELATION ENERGY: -0.769431351141E+01
 TTTTTTTTTTTTTTTTTTTTTTTTTTTTTT NUMDFT      TELAPSE      118.28 TCPU     3388.71
 CYC   9 ETOT(AU) -1.289115661667E+03 DETOT -1.22E-07 tst  1.37E-09 PX  1.69E-04

 == SCF ENDED - CONVERGENCE ON ENERGY      E(AU) -1.2891156616672E+03 CYCLES   9


 ENERGY EXPRESSION=HARTREE+FOCK EXCH*0.00000+(HSESOL     EXCH)*1.00000+PBESOL     CORR


 TOTAL ENERGY(DFT)(AU)(  9) -1.2891156616672E+03 DE-1.2E-07 tester 1.4E-09
 TTTTTTTTTTTTTTTTTTTTTTTTTTTTTT EDFT        TELAPSE      118.28 TCPU     3388.72
 
 INFORMATION **** DFTD3 ENERGY **** CALCULATE DFTD3 ENERGY

           DFT-D V3(BJ)
 DF                                         hsesol3c  
 parameters
 s6       :    1.0000
 s8       :    0.0000
 a1       :    0.5196
 a2       :    4.9385
 k1 k3    :   16.0000   -4.0000
 Cutoff   :   50.2022
 CN-Cutoff:   21.1671
 ABC-Cutoff:   21.1671
 
 Edisp /kcal,au:   -27.9947 -0.04461247

 E6    /kcal :   -29.8647
 E8    /kcal :     0.0000
 E6(ABC) "   :   1.869978
 
 INFORMATION **** DFTD3 ENERGY **** NORMAL TERMINATION OF DFTD3 MODULE

 GCP ENERGY CALCULATION
  level        hsesol3c            basis:hsesol3c
  Nbf            474
  Atoms           42

  Parameters: 
  sigma     1.0000
  eta       1.4281
  alpha     0.2936
  beta      1.9467

  dmp_scal      4.0000
  dmp_exp       6.0000
 cutoffs: 
   distance [bohr] 60.0
   noise    [a.u.] 2.2E-16
 SR-damping   T
 ** gCP correction **
  Egcp:        0.0831500461 / (a.u.) ||      52.1774 / (kcal/mol)
 INFORMATION **** GCP **** NORMAL TERMINATION OF GCP MODULE

 *******************************************************************************

 DFT-D3-GCP DISPERSION AND COUNTERPOISE CORRECTION

 D3 DISPERSION ENERGY (AU)      -4.4612468763085E-02
 GCP ENERGY (AU)                 8.3150046138655E-02
 TOTAL ENERGY + DISP + GCP (AU) -1.2890771240899E+03

 *******************************************************************************

 EIGENVECTORS IN FORTRAN UNIT 10
 TTTTTTTTTTTTTTTTTTTTTTTTTTTTTT END         TELAPSE      119.60 TCPU     3396.02
 EEEEEEEEEE TERMINATION  DATE 19 02 2026 TIME 18:49:26.4
