 Default number of threads is:           32

         
 *******************************************************************************
 *                                                                             *
 *                               CRYSTAL23                                     *
 *                      public : 1.0.1 - October 2022                          *
 *                       HTTP://WWW.CRYSTAL.UNITO.IT                           *
 *                                                                             *
 *                              MAIN AUTHORS                                   *
 *                                                                             *
 *  R. DOVESI(1,11), V.R. SAUNDERS(2), C. ROETTI(1,11), R. ORLANDO(1,11),      *
 *  C.M. ZICOVICH-WILSON(1,3), F. PASCALE(4), B. CIVALLERI(1,11),              *
 *  K. DOLL(5), N.M. HARRISON(6), I.J. BUSH(7), Ph. D'ARCO(8),                 *
 *  M. LLUNELL(9), M. CAUSA'(10), Y. NOEL(8), L. MASCHIO(1,11), A. ERBA(1,11)  *
 *  M. RE'RAT(14), S. CASASSA(1,11), B.G. SEARLE(2), J.K. DESMARAIS(1)         *
 *                                                                             *
 *        CONTRIBUTIONS TO THE CODE HAVE ALSO BEEN GIVEN BY                    *
 *                                                                             *
 *  M. FERRABONE(1,11), M. DE LA PIERRE(1,11), M. FERRERO(1,11),               *
 *  J. BAIMA(1,11), E. ALBANESE(1,11), M.F. PEINTINGER(12), R. BAST(13),       *
 *  B. KIRTMAN(15), V. LACIVITA(1,11), R. DEMICHELIS(1,16)                     *
 *  G. BRANDEBURG(17), S. SALUSTRO(1,11), G. SANSONE(1,11)                     *
 *  M.T. RUGGIERO(18), L.E. DAGA(1), L. DONA'(1), A. COSSARD(1)                *
 *                                                                             *
 * (1) THEORETICAL CHEMISTRY GROUP - UNIVERSITA' DI TORINO - TORINO (ITALY)    *
 * (2) SCIENTIFIC COMPUTING DEPARTMENT - STFC DARESBURY (UK)                   *
 * (3) UNIVERSIDAD AUTONOMA DEL ESTADO DE MORELOS - CUERNAVACA (MEXICO)        *
 * (4) UNIVERSITE' DE LORRAINE - NANCY (FRANCE)                                *
 * (5) UNIVERSITAET STUTTGART- STUTTGART (GERMANY)                             *
 * (6) IMPERIAL COLLEGE - LONDON (UK)                                          *
 * (7) SCIENTIFIC COMPUTING DEPARTMENT - STFC RAL (UK)                         *
 * (8) UPMC - SORBONNE UNIVERSITES - PARIS (FRANCE)                            *
 * (9) UNIVERSIDAD DE BARCELONA - BARCELONA (SPAIN)                            *
 *(10) UNIVERSITA' DI NAPOLI "FEDERICO II" - NAPOLI (ITALY)                    *
 *(11) NIS - NANOSTRUCTURED INTERFACES AND SURFACES - TORINO (ITALY)           *
 *(12) MPI FUER CHEMISCHE ENERGIEKONVERSION - MUELHEIM AN DER RUHR (GERMANY)   *
 *(13) UNIVERSITY OF TROMSO - TROMSO (NORWAY)                                  *
 *(14) UNIVERSITE' DE PAU ET DES PAYS DE L'ADOUR - PAU (FRANCE)                *
 *(15) UNIVERSITY OF CALIFORNIA SANTA BARBARA - SANTA BARBARA (USA)            *
 *(16) CURTIN UNIVERSITY - PERTH (AUSTRALIA)                                   *
 *(17) UNIVERSITY COLLEGE LONDON - LONDON (UK)                                 *
 *(18) UNIVERSITY OF VERMONT - BURLINGTON (USA)                                *
 *                                                                             *
 *******************************************************************************
 EEEEEEEEEE STARTING  DATE 19 02 2026 TIME 20:20:17.2
 cof-1_z38_L087_serr                                                             

 CRYSTAL CALCULATION
 (INPUT ACCORDING TO THE INTERNATIONAL TABLES FOR X-RAY CRYSTALLOGRAPHY)
 CRYSTAL FAMILY                       :  TRICLINIC   
 CRYSTAL CLASS  (GROTH - 1921)        :  TRICLINIC PEDIAL                     

 SPACE GROUP (NONCENTROSYMMETRIC)     :  P 1             

 LATTICE PARAMETERS  (ANGSTROMS AND DEGREES) - CONVENTIONAL CELL
        A           B           C        ALPHA        BETA       GAMMA
    15.02361    15.02392     7.60000    90.00032    89.99994   119.99596


 NUMBER OF IRREDUCIBLE ATOMS IN THE CONVENTIONAL CELL:   84

 INPUT COORDINATES

 ATOM AT. N.              COORDINATES
   1   5     6.136805400000E-01  2.273182200000E-01  2.506285100000E-01
   2   5     9.469833800000E-01  8.939916600000E-01  7.506285100000E-01
   3   5     7.727362000000E-01  3.863778800000E-01  2.506285200000E-01
   4   5     1.060390400000E-01  5.305132000000E-02  7.506285200000E-01
   5   5     6.136762700000E-01  3.863606700000E-01  2.493070500000E-01
   6   5     9.469791100000E-01  5.303411000000E-02  7.493070500000E-01
   7   5     2.272552500000E-01  6.136332200000E-01  2.506285200000E-01
   8   5     5.605580900000E-01  2.803066600000E-01  7.506285200000E-01
   9   5     3.863632200000E-01  6.136124500000E-01  2.506285200000E-01
  10   5     7.196660600000E-01  2.802858900000E-01  7.506285200000E-01
  11   5     3.863435000000E-01  7.727516500000E-01  2.493070500000E-01
  12   5     7.196463400000E-01  4.394250900000E-01  7.493070500000E-01
  13   1     9.030436200000E-01  3.089300500000E-01  2.478888400000E-01
  14   1     2.363464600000E-01  9.756034900000E-01  7.478888400000E-01
  15   1     9.663453000000E-02  6.910534400000E-01  2.474699000000E-01
  16   1     4.299373700000E-01  3.577268800000E-01  7.474699000000E-01
  17   1     9.029714200000E-01  5.940724300000E-01  2.474054200000E-01
  18   1     2.362742600000E-01  2.607458700000E-01  7.474054200000E-01
  19   1     9.673618000000E-02  4.056849400000E-01  2.474215000000E-01
  20   1     4.300390200000E-01  7.235838000000E-02  7.474215000000E-01
  21   1     6.910324000000E-01  9.700412000000E-02  2.521111700000E-01
  22   1     2.433524000000E-02  7.636775600000E-01  7.521111800000E-01
  23   1     3.089297200000E-01  9.034373100000E-01  2.525301400000E-01
  24   1     6.422325600000E-01  5.701107500000E-01  7.525301400000E-01
  25   1     4.058699900000E-01  9.704998000000E-02  2.525946600000E-01
  26   1     7.391728300000E-01  7.637234200000E-01  7.525946600000E-01
  27   1     5.943122100000E-01  9.033473200000E-01  2.525784700000E-01
  28   1     9.276150500000E-01  5.700207600000E-01  7.525784700000E-01
  29   1     6.910727400000E-01  5.940542100000E-01  2.478888700000E-01
  30   1     2.437558000000E-02  2.607276500000E-01  7.478888700000E-01
  31   1     3.089618300000E-01  4.056093300000E-01  2.474698700000E-01
  32   1     6.422646700000E-01  7.228277000000E-02  7.474698700000E-01
  33   1     4.058405700000E-01  3.088232500000E-01  2.474053700000E-01
  34   1     7.391434100000E-01  9.754966900000E-01  7.474053700000E-01
  35   1     5.942908800000E-01  6.909579300000E-01  2.474215500000E-01
  36   1     9.275937200000E-01  3.576313700000E-01  7.474215500000E-01
  37   6     8.918903100000E-01  4.459436900000E-01  2.492587000000E-01
  38   6     2.251931500000E-01  1.126171300000E-01  7.492587000000E-01
  39   6     9.464891100000E-01  3.927856300000E-01  2.479533100000E-01
  40   6     2.797919500000E-01  5.945907000000E-02  7.479533100000E-01
  41   6     5.338812000000E-02  6.071853000000E-01  2.478405500000E-01
  42   6     3.866909600000E-01  2.738587400000E-01  7.478405500000E-01
  43   6     9.464521100000E-01  5.536921900000E-01  2.481789700000E-01
  44   6     2.797549500000E-01  2.203656300000E-01  7.481789700000E-01
  45   6     5.342634000000E-02  4.462499700000E-01  2.473086900000E-01
  46   6     3.867291800000E-01  1.129234100000E-01  7.473086900000E-01
  47   6     1.080358900000E-01  5.540356300000E-01  2.481950700000E-01
  48   6     4.413387300000E-01  2.207090700000E-01  7.481950700000E-01
  49   6     5.540394200000E-01  1.081684600000E-01  2.507413400000E-01
  50   6     8.873422600000E-01  7.748419000000E-01  7.507413300000E-01
  51   6     6.071778500000E-01  5.355594000000E-02  2.520466900000E-01
  52   6     9.404806900000E-01  7.202293800000E-01  7.520466900000E-01
  53   6     3.927986700000E-01  9.466631600000E-01  2.521595100000E-01
  54   6     7.261015100000E-01  6.133366000000E-01  7.521595000000E-01
  55   6     4.462875800000E-01  5.360286000000E-02  2.518210900000E-01
  56   6     7.795904200000E-01  7.202763000000E-01  7.518210900000E-01
  57   6     5.537168500000E-01  9.466235600000E-01  2.526913000000E-01
  58   6     8.870196900000E-01  6.132970000000E-01  7.526913000000E-01
  59   6     4.459279100000E-01  8.919920600000E-01  2.518049500000E-01
  60   6     7.792307500000E-01  5.586655000000E-01  7.518049500000E-01
  61   6     5.540448700000E-01  4.458745500000E-01  2.492586900000E-01
  62   6     8.873477100000E-01  1.125479900000E-01  7.492586900000E-01
  63   6     6.072102200000E-01  5.536257800000E-01  2.479533400000E-01
  64   6     9.405130600000E-01  2.202992200000E-01  7.479533400000E-01
  65   6     3.928233700000E-01  4.461720300000E-01  2.478405200000E-01
  66   6     7.261262100000E-01  1.128454700000E-01  7.478405200000E-01
  67   6     4.462872600000E-01  3.926899900000E-01  2.481789300000E-01
  68   6     7.795901000000E-01  5.936343000000E-02  7.481789300000E-01
  69   6     5.537429600000E-01  6.070980000000E-01  2.473087300000E-01
  70   6     8.870458000000E-01  2.737714400000E-01  7.473087300000E-01
  71   6     4.459599800000E-01  5.539582300000E-01  2.481950700000E-01
  72   6     7.792628200000E-01  2.206316700000E-01  7.481950700000E-01
  73   8     5.607366800000E-01  2.803706300000E-01  2.496615800000E-01
  74   8     8.940395200000E-01  9.470440700000E-01  7.496615800000E-01
  75   8     7.196817000000E-01  2.803783300000E-01  2.524495700000E-01
  76   8     5.298454000000E-02  9.470517700000E-01  7.524495700000E-01
  77   8     7.196794200000E-01  4.393234600000E-01  2.482434300000E-01
  78   8     5.298226000000E-02  1.059969000000E-01  7.482434300000E-01
  79   8     2.803245100000E-01  7.196511100000E-01  2.496616000000E-01
  80   8     6.136273500000E-01  3.863245500000E-01  7.496616000000E-01
  81   8     2.803439700000E-01  5.606956100000E-01  2.524495700000E-01
  82   8     6.136468100000E-01  2.273690500000E-01  7.524495700000E-01
  83   8     4.392638400000E-01  7.196354200000E-01  2.482434200000E-01
  84   8     7.725666800000E-01  3.863088600000E-01  7.482434200000E-01

 *******************************************************************************

 << INFORMATION >>: FROM NOW ON, ALL COORDINATES REFER TO THE PRIMITIVE CELL

 *******************************************************************************

 LATTICE PARAMETERS  (ANGSTROMS AND DEGREES) - PRIMITIVE CELL
       A          B          C        ALPHA      BETA     GAMMA        VOLUME
   15.02361   15.02392    7.60000    90.00032  89.99994 119.99596   1485.659765

 COORDINATES OF THE EQUIVALENT ATOMS (FRACTIONAL UNITS)

 N. ATOM EQUIV AT. N.          X                  Y                  Z

   1   1   1    5 B    -3.86319460000E-01  2.27318220000E-01  2.50628510000E-01

   2   2   1    5 B    -5.30166200000E-02 -1.06008340000E-01 -2.49371490000E-01

   3   3   1    5 B    -2.27263800000E-01  3.86377880000E-01  2.50628520000E-01

   4   4   1    5 B     1.06039040000E-01  5.30513200000E-02 -2.49371480000E-01

   5   5   1    5 B    -3.86323730000E-01  3.86360670000E-01  2.49307050000E-01

   6   6   1    5 B    -5.30208900000E-02  5.30341100000E-02 -2.50692950000E-01

   7   7   1    5 B     2.27255250000E-01 -3.86366780000E-01  2.50628520000E-01

   8   8   1    5 B    -4.39441910000E-01  2.80306660000E-01 -2.49371480000E-01

   9   9   1    5 B     3.86363220000E-01 -3.86387550000E-01  2.50628520000E-01

  10  10   1    5 B    -2.80333940000E-01  2.80285890000E-01 -2.49371480000E-01

  11  11   1    5 B     3.86343500000E-01 -2.27248350000E-01  2.49307050000E-01

  12  12   1    5 B    -2.80353660000E-01  4.39425090000E-01 -2.50692950000E-01

  13  13   1    1 H    -9.69563800000E-02  3.08930050000E-01  2.47888840000E-01

  14  14   1    1 H     2.36346460000E-01 -2.43965100000E-02 -2.52111160000E-01

  15  15   1    1 H     9.66345300000E-02 -3.08946560000E-01  2.47469900000E-01

  16  16   1    1 H     4.29937370000E-01  3.57726880000E-01 -2.52530100000E-01

  17  17   1    1 H    -9.70285800000E-02 -4.05927570000E-01  2.47405420000E-01

  18  18   1    1 H     2.36274260000E-01  2.60745870000E-01 -2.52594580000E-01

  19  19   1    1 H     9.67361800000E-02  4.05684940000E-01  2.47421500000E-01

  20  20   1    1 H     4.30039020000E-01  7.23583800000E-02 -2.52578500000E-01

  21  21   1    1 H    -3.08967600000E-01  9.70041200000E-02  2.52111170000E-01

  22  22   1    1 H     2.43352400000E-02 -2.36322440000E-01 -2.47888820000E-01

  23  23   1    1 H     3.08929720000E-01 -9.65626900000E-02  2.52530140000E-01

  24  24   1    1 H    -3.57767440000E-01 -4.29889250000E-01 -2.47469860000E-01

  25  25   1    1 H     4.05869990000E-01  9.70499800000E-02  2.52594660000E-01

  26  26   1    1 H    -2.60827170000E-01 -2.36276580000E-01 -2.47405340000E-01

  27  27   1    1 H    -4.05687790000E-01 -9.66526800000E-02  2.52578470000E-01

  28  28   1    1 H    -7.23849500000E-02 -4.29979240000E-01 -2.47421530000E-01

  29  29   1    1 H    -3.08927260000E-01 -4.05945790000E-01  2.47888870000E-01

  30  30   1    1 H     2.43755800000E-02  2.60727650000E-01 -2.52111130000E-01

  31  31   1    1 H     3.08961830000E-01  4.05609330000E-01  2.47469870000E-01

  32  32   1    1 H    -3.57735330000E-01  7.22827700000E-02 -2.52530130000E-01

  33  33   1    1 H     4.05840570000E-01  3.08823250000E-01  2.47405370000E-01

  34  34   1    1 H    -2.60856590000E-01 -2.45033100000E-02 -2.52594630000E-01

  35  35   1    1 H    -4.05709120000E-01 -3.09042070000E-01  2.47421550000E-01

  36  36   1    1 H    -7.24062800000E-02  3.57631370000E-01 -2.52578450000E-01

  37  37   1    6 C    -1.08109690000E-01  4.45943690000E-01  2.49258700000E-01

  38  38   1    6 C     2.25193150000E-01  1.12617130000E-01 -2.50741300000E-01

  39  39   1    6 C    -5.35108900000E-02  3.92785630000E-01  2.47953310000E-01

  40  40   1    6 C     2.79791950000E-01  5.94590700000E-02 -2.52046690000E-01

  41  41   1    6 C     5.33881200000E-02 -3.92814700000E-01  2.47840550000E-01

  42  42   1    6 C     3.86690960000E-01  2.73858740000E-01 -2.52159450000E-01

  43  43   1    6 C    -5.35478900000E-02 -4.46307810000E-01  2.48178970000E-01

  44  44   1    6 C     2.79754950000E-01  2.20365630000E-01 -2.51821030000E-01

  45  45   1    6 C     5.34263400000E-02  4.46249970000E-01  2.47308690000E-01

  46  46   1    6 C     3.86729180000E-01  1.12923410000E-01 -2.52691310000E-01

  47  47   1    6 C     1.08035890000E-01 -4.45964370000E-01  2.48195070000E-01

  48  48   1    6 C     4.41338730000E-01  2.20709070000E-01 -2.51804930000E-01

  49  49   1    6 C    -4.45960580000E-01  1.08168460000E-01  2.50741340000E-01

  50  50   1    6 C    -1.12657740000E-01 -2.25158100000E-01 -2.49258670000E-01

  51  51   1    6 C    -3.92822150000E-01  5.35559400000E-02  2.52046690000E-01

  52  52   1    6 C    -5.95193100000E-02 -2.79770620000E-01 -2.47953310000E-01

  53  53   1    6 C     3.92798670000E-01 -5.33368400000E-02  2.52159510000E-01

  54  54   1    6 C    -2.73898490000E-01 -3.86663400000E-01 -2.47840500000E-01

  55  55   1    6 C     4.46287580000E-01  5.36028600000E-02  2.51821090000E-01

  56  56   1    6 C    -2.20409580000E-01 -2.79723700000E-01 -2.48178910000E-01

  57  57   1    6 C    -4.46283150000E-01 -5.33764400000E-02  2.52691300000E-01

  58  58   1    6 C    -1.12980310000E-01 -3.86703000000E-01 -2.47308700000E-01

  59  59   1    6 C     4.45927910000E-01 -1.08007940000E-01  2.51804950000E-01

  60  60   1    6 C    -2.20769250000E-01 -4.41334500000E-01 -2.48195050000E-01

  61  61   1    6 C    -4.45955130000E-01  4.45874550000E-01  2.49258690000E-01

  62  62   1    6 C    -1.12652290000E-01  1.12547990000E-01 -2.50741310000E-01

  63  63   1    6 C    -3.92789780000E-01 -4.46374220000E-01  2.47953340000E-01

  64  64   1    6 C    -5.94869400000E-02  2.20299220000E-01 -2.52046660000E-01

  65  65   1    6 C     3.92823370000E-01  4.46172030000E-01  2.47840520000E-01

  66  66   1    6 C    -2.73873790000E-01  1.12845470000E-01 -2.52159480000E-01

  67  67   1    6 C     4.46287260000E-01  3.92689990000E-01  2.48178930000E-01

  68  68   1    6 C    -2.20409900000E-01  5.93634300000E-02 -2.51821070000E-01

  69  69   1    6 C    -4.46257040000E-01 -3.92902000000E-01  2.47308730000E-01

  70  70   1    6 C    -1.12954200000E-01  2.73771440000E-01 -2.52691270000E-01

  71  71   1    6 C     4.45959980000E-01 -4.46041770000E-01  2.48195070000E-01

  72  72   1    6 C    -2.20737180000E-01  2.20631670000E-01 -2.51804930000E-01

  73  73   1    8 O    -4.39263320000E-01  2.80370630000E-01  2.49661580000E-01

  74  74   1    8 O    -1.05960480000E-01 -5.29559300000E-02 -2.50338420000E-01

  75  75   1    8 O    -2.80318300000E-01  2.80378330000E-01  2.52449570000E-01

  76  76   1    8 O     5.29845400000E-02 -5.29482300000E-02 -2.47550430000E-01

  77  77   1    8 O    -2.80320580000E-01  4.39323460000E-01  2.48243430000E-01

  78  78   1    8 O     5.29822600000E-02  1.05996900000E-01 -2.51756570000E-01

  79  79   1    8 O     2.80324510000E-01 -2.80348890000E-01  2.49661600000E-01

  80  80   1    8 O    -3.86372650000E-01  3.86324550000E-01 -2.50338400000E-01

  81  81   1    8 O     2.80343970000E-01 -4.39304390000E-01  2.52449570000E-01

  82  82   1    8 O    -3.86353190000E-01  2.27369050000E-01 -2.47550430000E-01

  83  83   1    8 O     4.39263840000E-01 -2.80364580000E-01  2.48243420000E-01

  84  84   1    8 O    -2.27433320000E-01  3.86308860000E-01 -2.51756580000E-01

 NUMBER OF SYMMETRY OPERATORS         :    1
 *******************************************************************************
 * GEOMETRY EDITING - INPUT COORDINATES ARE GIVEN IN ANGSTROM         
 *******************************************************************************

 GCALCO - MAX INDICES DIRECT LATTICE VECTOR    12    12    21
 NO.OF VECTORS CREATED 6999 STARS 3500 RMAX   255.76215 BOHR

 GEOMETRY FOR WAVE FUNCTION - DIMENSIONALITY OF THE SYSTEM    3
 (NON PERIODIC DIRECTION: LATTICE PARAMETER FORMALLY SET TO 500)
 *******************************************************************************
 LATTICE PARAMETERS (ANGSTROMS AND DEGREES) - BOHR = 0.5291772083 ANGSTROM
 PRIMITIVE CELL - CENTRING CODE 1/0 VOLUME=  1485.659765 - DENSITY  0.872 g/cm^3
         A              B              C           ALPHA      BETA       GAMMA 
    15.02361100    15.02391600     7.60000000    90.000323  89.999944 119.995964
 *******************************************************************************
 ATOMS IN THE ASYMMETRIC UNIT   84 - ATOMS IN THE UNIT CELL:   84
     ATOM                 X/A                 Y/B                 Z/C    
 *******************************************************************************
      1 T   5 B    -3.863194600000E-01  2.273182200000E-01  2.506285100000E-01
      2 T   5 B    -5.301662000000E-02 -1.060083400000E-01 -2.493714900000E-01
      3 T   5 B    -2.272638000000E-01  3.863778800000E-01  2.506285200000E-01
      4 T   5 B     1.060390400000E-01  5.305132000000E-02 -2.493714800000E-01
      5 T   5 B    -3.863237300000E-01  3.863606700000E-01  2.493070500000E-01
      6 T   5 B    -5.302089000000E-02  5.303411000000E-02 -2.506929500000E-01
      7 T   5 B     2.272552500000E-01 -3.863667800000E-01  2.506285200000E-01
      8 T   5 B    -4.394419100000E-01  2.803066600000E-01 -2.493714800000E-01
      9 T   5 B     3.863632200000E-01 -3.863875500000E-01  2.506285200000E-01
     10 T   5 B    -2.803339400000E-01  2.802858900000E-01 -2.493714800000E-01
     11 T   5 B     3.863435000000E-01 -2.272483500000E-01  2.493070500000E-01
     12 T   5 B    -2.803536600000E-01  4.394250900000E-01 -2.506929500000E-01
     13 T   1 H    -9.695638000000E-02  3.089300500000E-01  2.478888400000E-01
     14 T   1 H     2.363464600000E-01 -2.439651000000E-02 -2.521111600000E-01
     15 T   1 H     9.663453000000E-02 -3.089465600000E-01  2.474699000000E-01
     16 T   1 H     4.299373700000E-01  3.577268800000E-01 -2.525301000000E-01
     17 T   1 H    -9.702858000000E-02 -4.059275700000E-01  2.474054200000E-01
     18 T   1 H     2.362742600000E-01  2.607458700000E-01 -2.525945800000E-01
     19 T   1 H     9.673618000000E-02  4.056849400000E-01  2.474215000000E-01
     20 T   1 H     4.300390200000E-01  7.235838000000E-02 -2.525785000000E-01
     21 T   1 H    -3.089676000000E-01  9.700412000000E-02  2.521111700000E-01
     22 T   1 H     2.433524000000E-02 -2.363224400000E-01 -2.478888200000E-01
     23 T   1 H     3.089297200000E-01 -9.656269000000E-02  2.525301400000E-01
     24 T   1 H    -3.577674400000E-01 -4.298892500000E-01 -2.474698600000E-01
     25 T   1 H     4.058699900000E-01  9.704998000000E-02  2.525946600000E-01
     26 T   1 H    -2.608271700000E-01 -2.362765800000E-01 -2.474053400000E-01
     27 T   1 H    -4.056877900000E-01 -9.665268000000E-02  2.525784700000E-01
     28 T   1 H    -7.238495000000E-02 -4.299792400000E-01 -2.474215300000E-01
     29 T   1 H    -3.089272600000E-01 -4.059457900000E-01  2.478888700000E-01
     30 T   1 H     2.437558000000E-02  2.607276500000E-01 -2.521111300000E-01
     31 T   1 H     3.089618300000E-01  4.056093300000E-01  2.474698700000E-01
     32 T   1 H    -3.577353300000E-01  7.228277000000E-02 -2.525301300000E-01
     33 T   1 H     4.058405700000E-01  3.088232500000E-01  2.474053700000E-01
     34 T   1 H    -2.608565900000E-01 -2.450331000000E-02 -2.525946300000E-01
     35 T   1 H    -4.057091200000E-01 -3.090420700000E-01  2.474215500000E-01
     36 T   1 H    -7.240628000000E-02  3.576313700000E-01 -2.525784500000E-01
     37 T   6 C    -1.081096900000E-01  4.459436900000E-01  2.492587000000E-01
     38 T   6 C     2.251931500000E-01  1.126171300000E-01 -2.507413000000E-01
     39 T   6 C    -5.351089000000E-02  3.927856300000E-01  2.479533100000E-01
     40 T   6 C     2.797919500000E-01  5.945907000000E-02 -2.520466900000E-01
     41 T   6 C     5.338812000000E-02 -3.928147000000E-01  2.478405500000E-01
     42 T   6 C     3.866909600000E-01  2.738587400000E-01 -2.521594500000E-01
     43 T   6 C    -5.354789000000E-02 -4.463078100000E-01  2.481789700000E-01
     44 T   6 C     2.797549500000E-01  2.203656300000E-01 -2.518210300000E-01
     45 T   6 C     5.342634000000E-02  4.462499700000E-01  2.473086900000E-01
     46 T   6 C     3.867291800000E-01  1.129234100000E-01 -2.526913100000E-01
     47 T   6 C     1.080358900000E-01 -4.459643700000E-01  2.481950700000E-01
     48 T   6 C     4.413387300000E-01  2.207090700000E-01 -2.518049300000E-01
     49 T   6 C    -4.459605800000E-01  1.081684600000E-01  2.507413400000E-01
     50 T   6 C    -1.126577400000E-01 -2.251581000000E-01 -2.492586700000E-01
     51 T   6 C    -3.928221500000E-01  5.355594000000E-02  2.520466900000E-01
     52 T   6 C    -5.951931000000E-02 -2.797706200000E-01 -2.479533100000E-01
     53 T   6 C     3.927986700000E-01 -5.333684000000E-02  2.521595100000E-01
     54 T   6 C    -2.738984900000E-01 -3.866634000000E-01 -2.478405000000E-01
     55 T   6 C     4.462875800000E-01  5.360286000000E-02  2.518210900000E-01
     56 T   6 C    -2.204095800000E-01 -2.797237000000E-01 -2.481789100000E-01
     57 T   6 C    -4.462831500000E-01 -5.337644000000E-02  2.526913000000E-01
     58 T   6 C    -1.129803100000E-01 -3.867030000000E-01 -2.473087000000E-01
     59 T   6 C     4.459279100000E-01 -1.080079400000E-01  2.518049500000E-01
     60 T   6 C    -2.207692500000E-01 -4.413345000000E-01 -2.481950500000E-01
     61 T   6 C    -4.459551300000E-01  4.458745500000E-01  2.492586900000E-01
     62 T   6 C    -1.126522900000E-01  1.125479900000E-01 -2.507413100000E-01
     63 T   6 C    -3.927897800000E-01 -4.463742200000E-01  2.479533400000E-01
     64 T   6 C    -5.948694000000E-02  2.202992200000E-01 -2.520466600000E-01
     65 T   6 C     3.928233700000E-01  4.461720300000E-01  2.478405200000E-01
     66 T   6 C    -2.738737900000E-01  1.128454700000E-01 -2.521594800000E-01
     67 T   6 C     4.462872600000E-01  3.926899900000E-01  2.481789300000E-01
     68 T   6 C    -2.204099000000E-01  5.936343000000E-02 -2.518210700000E-01
     69 T   6 C    -4.462570400000E-01 -3.929020000000E-01  2.473087300000E-01
     70 T   6 C    -1.129542000000E-01  2.737714400000E-01 -2.526912700000E-01
     71 T   6 C     4.459599800000E-01 -4.460417700000E-01  2.481950700000E-01
     72 T   6 C    -2.207371800000E-01  2.206316700000E-01 -2.518049300000E-01
     73 T   8 O    -4.392633200000E-01  2.803706300000E-01  2.496615800000E-01
     74 T   8 O    -1.059604800000E-01 -5.295593000000E-02 -2.503384200000E-01
     75 T   8 O    -2.803183000000E-01  2.803783300000E-01  2.524495700000E-01
     76 T   8 O     5.298454000000E-02 -5.294823000000E-02 -2.475504300000E-01
     77 T   8 O    -2.803205800000E-01  4.393234600000E-01  2.482434300000E-01
     78 T   8 O     5.298226000000E-02  1.059969000000E-01 -2.517565700000E-01
     79 T   8 O     2.803245100000E-01 -2.803488900000E-01  2.496616000000E-01
     80 T   8 O    -3.863726500000E-01  3.863245500000E-01 -2.503384000000E-01
     81 T   8 O     2.803439700000E-01 -4.393043900000E-01  2.524495700000E-01
     82 T   8 O    -3.863531900000E-01  2.273690500000E-01 -2.475504300000E-01
     83 T   8 O     4.392638400000E-01 -2.803645800000E-01  2.482434200000E-01
     84 T   8 O    -2.274333200000E-01  3.863088600000E-01 -2.517565800000E-01

 T = ATOM BELONGING TO THE ASYMMETRIC UNIT

 ****    1 SYMMOPS - TRANSLATORS IN FRACTIONAL UNITS
 **** MATRICES AND TRANSLATORS IN THE CRYSTALLOGRAPHIC REFERENCE FRAME
   V INV                    ROTATION MATRICES                   TRANSLATORS
   1   1  1.00  0.00  0.00  0.00  1.00  0.00  0.00  0.00  1.00  0.00  0.00  0.00

 DIRECT LATTICE VECTORS CARTESIAN COMPONENTS (ANGSTROM)
          X                    Y                    Z
   0.130113578931E+02  -0.751088897922E+01   0.000000000000E+00
   0.000000000000E+00   0.150239160000E+02   0.000000000000E+00
  -0.161552619368E-04  -0.428443424762E-04   0.759999999986E+01


 CARTESIAN COORDINATES - PRIMITIVE CELL
 *******************************************************************************
 *      ATOM          X(ANGSTROM)         Y(ANGSTROM)         Z(ANGSTROM)
 *******************************************************************************
    1     5 B    -5.026544804082E+00  6.316801679107E+00  1.904776675965E+00
    2     5 B    -6.898141884384E-01 -1.194447764429E+00 -1.895223323966E+00
    3     5 B    -2.957014686905E+00  7.511851246159E+00  1.904776751965E+00
    4     5 B     1.379715928738E+00  6.018026235196E-04 -1.895223247966E+00
    5     5 B    -5.026600341231E+00 -6.317641783546E+00  1.894733579966E+00
    6     5 B    -6.898697255881E-01  1.195024772919E+00 -1.905266419965E+00
    7     5 B     2.956895341857E+00 -7.511641738619E+00  1.904776751965E+00
    8     5 B     7.293625957500E+00  1.024817846026E-03 -1.895223247966E+00
    9     5 B     5.027106083164E+00  6.316919916267E+00  1.904776751965E+00
   10     5 B    -3.647521194249E+00  6.316559451949E+00 -1.895223247966E+00
   11     5 B     5.026849520535E+00 -6.315953939277E+00  1.894733579966E+00
   12     5 B    -3.647777756878E+00 -6.316314403596E+00 -1.905266419965E+00
   13     1 H    -1.261538164904E+00  5.369557106448E+00  1.883955183966E+00
   14     1 H     3.075192450739E+00 -2.141692337087E+00 -1.916044815965E+00
   15     1 H     1.257342456716E+00 -5.367408995003E+00  1.880771239966E+00
   16     1 H     5.594073072359E+00  2.145257561462E+00 -1.919228759965E+00
   17     1 H    -1.262477577134E+00 -5.369861421496E+00  1.880281191966E+00
   18     1 H     3.074253038509E+00  2.142805134969E+00 -1.919718807965E+00
   19     1 H     1.258665062028E+00  5.368391152160E+00  1.880403399966E+00
   20     1 H     5.595395677671E+00 -2.142858291375E+00 -1.919596599965E+00
   21     1 H    -4.020092093881E+00  3.777992290772E+00  1.916044891965E+00
   22     1 H     3.166385217622E-01 -3.733257152764E+00 -1.883955031966E+00
   23     1 H     4.019591071031E+00 -3.771097392082E+00  1.919229063965E+00
   24     1 H    -4.655036206382E+00 -3.771457856401E+00 -1.880770935966E+00
   25     1 H     5.280915617208E+00 -1.590384509816E+00  1.919719415965E+00
   26     1 H    -3.393711660205E+00 -1.590744974135E+00 -1.880280583966E+00
   27     1 H    -5.278553109005E+00  1.594963383860E+00  1.919596371965E+00
   28     1 H    -9.418224933614E-01 -5.916286059675E+00 -1.880403627966E+00
   29     1 H    -4.019567147491E+00 -3.778587717636E+00  1.883955411966E+00
   30     1 H     3.171634681522E-01  3.734078838829E+00 -1.916044587965E+00
   31     1 H     4.020008947483E+00  3.773251896107E+00  1.880771011966E+00
   32     1 H    -4.654618329930E+00  3.772891431788E+00 -1.919228987965E+00
   33     1 H     5.280532906894E+00  1.591500502395E+00  1.880280811966E+00
   34     1 H    -3.394094370520E+00  1.591140038076E+00 -1.919719187965E+00
   35     1 H    -5.278830557957E+00 -1.595796542584E+00  1.880403779966E+00
   36     1 H    -9.420999423138E-01  5.916870013881E+00 -1.919596219965E+00
   37     6 C    -1.406657895137E+00  7.511809739132E+00  1.894366119966E+00
   38     6 C     2.930072720506E+00  5.602955971717E-04 -1.905633879965E+00
   39     6 C    -6.962533467167E-01  6.303082041700E+00  1.884445155966E+00
   40     6 C     3.640477268926E+00 -1.208167401836E+00 -1.915554843965E+00
   41     6 C     6.946479326284E-01 -6.302617917060E+00  1.883588179966E+00
   42     6 C     5.031378548272E+00  1.210048639405E+00 -1.916411819965E+00
   43     6 C    -6.967347706043E-01 -6.303109423787E+00  1.886160171966E+00
   44     6 C     3.639995845039E+00  1.209557132677E+00 -1.913839827965E+00
   45     6 C     6.951452353195E-01  6.303132160198E+00  1.879546043966E+00
   46     6 C     5.031875850963E+00 -1.208117283337E+00 -1.920453955965E+00
   47     6 C     1.405689620429E+00 -7.511587443188E+00  1.886282531966E+00
   48     6 C     5.742420236072E+00  1.079113276390E-03 -1.913717467965E+00
   49     6 C     7.208801129689E+00 -2.536225459688E+00  1.905634183965E+00
   50     6 C    -1.465826147724E+00 -2.536585924006E+00 -1.894365891966E+00
   51     6 C    -5.111153653850E+00  3.755052702313E+00  1.915554843965E+00
   52     6 C    -7.744230382071E-01 -3.756196741222E+00 -1.884445155966E+00
   53     6 C     5.110840001584E+00 -3.751606209028E+00  1.916412275965E+00
   54     6 C    -3.563787275830E+00 -3.751966673346E+00 -1.883587799966E+00
   55     6 C     5.806803358370E+00 -2.546702389292E+00  1.913840283965E+00
   56     6 C    -2.867823919043E+00 -2.547062853611E+00 -1.886159715966E+00
   57     6 C    -5.806753868585E+00  2.550049215613E+00  1.920453879965E+00
   58     6 C    -1.470023252942E+00 -4.961200227922E+00 -1.879546119966E+00
   59     6 C     5.802123563538E+00 -4.972028031055E+00  1.913717619965E+00
   60     6 C    -2.872503713876E+00 -4.972388495373E+00 -1.886282379966E+00
   61     6 C     7.208872065543E+00  2.537401598339E+00  1.894366043966E+00
   62     6 C    -1.465755211871E+00  2.537041134020E+00 -1.905633955965E+00
   63     6 C    -5.110732410066E+00 -3.756098979492E+00  1.884445383966E+00
   64     6 C    -7.740017944230E-01  3.756567576972E+00 -1.915554615965E+00
   65     6 C     5.111161451898E+00  3.752787761194E+00  1.883587951966E+00
   66     6 C    -3.563465825515E+00  3.752427296875E+00 -1.916412047965E+00
   67     6 C     5.806799253576E+00  2.547716728039E+00  1.886159867966E+00
   68     6 C    -2.867828023837E+00  2.547356263720E+00 -1.913840131965E+00
   69     6 C    -5.806414055073E+00 -2.551150156378E+00  1.879546347966E+00
   70     6 C    -1.469683439430E+00  4.961516400087E+00 -1.920453651965E+00
   71     6 C     5.802540896104E+00  4.973055382321E+00  1.886282531966E+00
   72     6 C    -2.872086381309E+00  4.972694918002E+00 -1.913717467965E+00
   73     8 O     7.295941593896E+00  6.231473464191E-04  1.897428007966E+00
   74     8 O    -1.378685683517E+00  2.626830276077E-04 -1.902571991965E+00
   75     8 O    -3.647325803662E+00  6.317809292247E+00  1.918616731965E+00
   76     8 O     6.894048119810E-01 -1.193440151288E+00 -1.881383267966E+00
   77     8 O    -3.647355401607E+00 -6.318111120988E+00  1.886650067966E+00
   78     8 O     6.893752140363E-01  1.194555435477E+00 -1.913349931965E+00
   79     8 O     3.647398492457E+00 -6.317435143404E+00  1.897428159966E+00
   80     8 O     7.984129108100E+00  1.195231413061E+00 -1.902571839965E+00
   81     8 O     3.647651648441E+00  6.318200495510E+00  1.918616731965E+00
   82     8 O     7.984382264085E+00 -1.193048948025E+00 -1.881383267966E+00
   83     8 O    -7.295942871776E+00 -5.574907292270E-04  1.886649991966E+00
   84     8 O    -2.959212256133E+00 -7.511806934264E+00 -1.913350007965E+00

 *******************************************************************************
 STARTING BASIS SET HANDLING 
 *******************************************************************************

 Loading internal basis set: SOLDEF2MSVP         

 Please cite in your publication:
 L. Dona', J. G. Brandenburg and B. Civalleri, J. Chem. Phys., 151, 121101 (2019
 )                                                                              
                                                                                
                    

 *******************************************************************************
 LOCAL ATOMIC FUNCTIONS BASIS SET
 *******************************************************************************
   ATOM   X(AU)   Y(AU)   Z(AU)  N. TYPE  EXPONENT  S COEF   P COEF   D/F/G COEF
 *******************************************************************************
   1 B   -9.499  11.937   3.600
                                  1 S  
                                         2.410E+03 1.755E-03 0.000E+00 0.000E+00
                                         3.619E+02 1.344E-02 0.000E+00 0.000E+00
                                         8.231E+01 6.637E-02 0.000E+00 0.000E+00
                                         2.311E+01 2.303E-01 0.000E+00 0.000E+00
                                         7.252E+00 5.150E-01 0.000E+00 0.000E+00
                                  2 S  
                                         2.367E+00 1.000E+00 0.000E+00 0.000E+00
                                  3 S  
                                         5.533E-01 1.000E+00 0.000E+00 0.000E+00
                                  4 S  
                                         1.716E-01 1.000E+00 0.000E+00 0.000E+00
                           5-     7 P  
                                         6.002E+00 0.000E+00-3.555E-02 0.000E+00
                                         1.240E+00 0.000E+00-1.983E-01 0.000E+00
                                         3.367E-01 0.000E+00-5.048E-01 0.000E+00
                           8-    10 P  
                                         1.256E-01 0.000E+00 1.000E+00 0.000E+00
                          11-    15 D  
                                         8.880E-01 0.000E+00 0.000E+00 1.000E+00
   2 B   -1.304  -2.257  -3.581
   3 B   -5.588  14.195   3.600
   4 B    2.607   0.001  -3.581
   5 B   -9.499 -11.939   3.581
   6 B   -1.304   2.258  -3.600
   7 B    5.588 -14.195   3.600
   8 B   13.783   0.002  -3.581
   9 B    9.500  11.937   3.600
  10 B   -6.893  11.937  -3.581
  11 B    9.499 -11.935   3.581
  12 B   -6.893 -11.936  -3.600
  13 H   -2.384  10.147   3.560
                                181 S  
                                         1.874E+01 1.968E-02 0.000E+00 0.000E+00
                                         2.826E+00 1.380E-01 0.000E+00 0.000E+00
                                         6.401E-01 4.783E-01 0.000E+00 0.000E+00
                                182 S  
                                         1.756E-01 1.000E+00 0.000E+00 0.000E+00
  14 H    5.811  -4.047  -3.621
  15 H    2.376 -10.143   3.554
  16 H   10.571   4.054  -3.627
  17 H   -2.386 -10.148   3.553
  18 H    5.809   4.049  -3.628
  19 H    2.379  10.145   3.553
  20 H   10.574  -4.049  -3.628
  21 H   -7.597   7.139   3.621
  22 H    0.598  -7.055  -3.560
  23 H    7.596  -7.126   3.627
  24 H   -8.797  -7.127  -3.554
  25 H    9.979  -3.005   3.628
  26 H   -6.413  -3.006  -3.553
  27 H   -9.975   3.014   3.628
  28 H   -1.780 -11.180  -3.553
  29 H   -7.596  -7.140   3.560
  30 H    0.599   7.056  -3.621
  31 H    7.597   7.130   3.554
  32 H   -8.796   7.130  -3.627
  33 H    9.979   3.008   3.553
  34 H   -6.414   3.007  -3.628
  35 H   -9.976  -3.016   3.553
  36 H   -1.780  11.181  -3.628
  37 C   -2.658  14.195   3.580
                                229 S  
                                         3.624E+03 1.634E-03 0.000E+00 0.000E+00
                                         5.440E+02 1.252E-02 0.000E+00 0.000E+00
                                         1.237E+02 6.211E-02 0.000E+00 0.000E+00
                                         3.476E+01 2.182E-01 0.000E+00 0.000E+00
                                         1.093E+01 4.980E-01 0.000E+00 0.000E+00
                                230 S  
                                         3.574E+00 1.000E+00 0.000E+00 0.000E+00
                                231 S  
                                         7.742E-01 1.000E+00 0.000E+00 0.000E+00
                                232 S  
                                         2.330E-01 1.000E+00 0.000E+00 0.000E+00
                         233-   235 P  
                                         9.443E+00 0.000E+00 3.790E-02 0.000E+00
                                         2.002E+00 0.000E+00 2.082E-01 0.000E+00
                                         5.463E-01 0.000E+00 5.047E-01 0.000E+00
                         236-   238 P  
                                         1.820E-01 0.000E+00 1.000E+00 0.000E+00
                         239-   243 D  
                                         8.880E-01 0.000E+00 0.000E+00 1.000E+00
  38 C    5.537   0.001  -3.601
  39 C   -1.316  11.911   3.561
  40 C    6.880  -2.283  -3.620
  41 C    1.313 -11.910   3.559
  42 C    9.508   2.287  -3.621
  43 C   -1.317 -11.911   3.564
  44 C    6.879   2.286  -3.617
  45 C    1.314  11.911   3.552
  46 C    9.509  -2.283  -3.629
  47 C    2.656 -14.195   3.565
  48 C   10.852   0.002  -3.616
  49 C   13.623  -4.793   3.601
  50 C   -2.770  -4.793  -3.580
  51 C   -9.659   7.096   3.620
  52 C   -1.463  -7.098  -3.561
  53 C    9.658  -7.090   3.621
  54 C   -6.735  -7.090  -3.559
  55 C   10.973  -4.813   3.617
  56 C   -5.419  -4.813  -3.564
  57 C  -10.973   4.819   3.629
  58 C   -2.778  -9.375  -3.552
  59 C   10.964  -9.396   3.616
  60 C   -5.428  -9.396  -3.565
  61 C   13.623   4.795   3.580
  62 C   -2.770   4.794  -3.601
  63 C   -9.658  -7.098   3.561
  64 C   -1.463   7.099  -3.620
  65 C    9.659   7.092   3.559
  66 C   -6.734   7.091  -3.621
  67 C   10.973   4.814   3.564
  68 C   -5.419   4.814  -3.617
  69 C  -10.973  -4.821   3.552
  70 C   -2.777   9.376  -3.629
  71 C   10.965   9.398   3.565
  72 C   -5.427   9.397  -3.616
  73 O   13.787   0.001   3.586
                                769 S  
                                         6.773E+03 1.727E-03 0.000E+00 0.000E+00
                                         1.017E+03 1.325E-02 0.000E+00 0.000E+00
                                         2.313E+02 6.603E-02 0.000E+00 0.000E+00
                                         6.501E+01 2.353E-01 0.000E+00 0.000E+00
                                         2.050E+01 5.498E-01 0.000E+00 0.000E+00
                                770 S  
                                         6.716E+00 1.000E+00 0.000E+00 0.000E+00
                                771 S  
                                         1.147E+00 1.000E+00 0.000E+00 0.000E+00
                                772 S  
                                         3.342E-01 1.000E+00 0.000E+00 0.000E+00
                         773-   775 P  
                                         1.769E+01 0.000E+00 4.359E-02 0.000E+00
                                         3.854E+00 0.000E+00 2.318E-01 0.000E+00
                                         1.047E+00 0.000E+00 5.146E-01 0.000E+00
                         776-   778 P  
                                         2.759E-01 0.000E+00 1.000E+00 0.000E+00
                         779-   783 D  
                                         8.000E-01 0.000E+00 0.000E+00 1.000E+00
  74 O   -2.605   0.000  -3.595
  75 O   -6.892  11.939   3.626
  76 O    1.303  -2.255  -3.555
  77 O   -6.893 -11.939   3.565
  78 O    1.303   2.257  -3.616
  79 O    6.893 -11.938   3.586
  80 O   15.088   2.259  -3.595
  81 O    6.893  11.940   3.626
  82 O   15.088  -2.255  -3.555
  83 O  -13.787  -0.001   3.565
  84 O   -5.592 -14.195  -3.616

 *******************************************************************************
 FINISHED BASIS SET HANDLING 
 *******************************************************************************

 INFORMATION **** SET_MPP **** PCRYSTAL CALCULATION
 INFORMATION **** READM2 **** NEW DEFAULT: FOCK/KS MATRIX MIXING SET TO 30 %
 INFORMATION **** READM2 **** NEW DEFAULT: FULL DIRECT SCF MODE
 INFORMATION **** READM2 **** NEW DEFAULT: COULOMB BIPOLAR BUFFER SET TO 32 Mb
 INFORMATION **** READM2 **** NEW DEFAULT: EXCHANGE BIPOLAR BUFFER SET TO 32 Mb

 *******************************************************************************
 NEW DEFAULT: DFT INTEGRATION GRID INCREASED TO XLGRID
 NEW DEFAULT: DIIS ACCELERATOR ACTIVE
 USE KEYWORD NODIIS TO TURN IT OFF
 *******************************************************************************

 WARNING **** RDDFTP **** HSEsol-HJS ACTIVE
 RANGE SEPARATION - OMEGA:   0.110000000000000     
 WARNING **** RDDFTP **** HSEsol-3c has to be combined with sol-def2-mSVP basis set
 *******************************************************************************
 N. OF ATOMS PER CELL        84  COULOMB OVERLAP TOL         (T1) 10**   -6
 NUMBER OF SHELLS           468  COULOMB PENETRATION TOL     (T2) 10**   -6
 NUMBER OF AO               948  EXCHANGE OVERLAP TOL        (T3) 10**   -6
 N. OF ELECTRONS PER CELL   396  EXCHANGE PSEUDO OVP (F(G))  (T4) 10**   -6
 CORE ELECTRONS PER CELL    120  EXCHANGE PSEUDO OVP (P(G))  (T5) 10**  -12
 N. OF SYMMETRY OPERATORS     1  POLE ORDER IN MONO ZONE                  4
 *******************************************************************************
 TYPE OF CALCULATION :  RESTRICTED CLOSED SHELL
 KOHN-SHAM HAMILTONIAN

 (EXCHANGE)[CORRELATION] FUNCTIONAL:(HSEsol GGA)[PBEsol]

 RANGE-SEPARATED HYBRID FUNCTIONAL 
 OMEGA (SHORT-RANGE)[LONG-RANGE]:(    0.1100)[    0.0000]

 HYBRID EXCHANGE - PERCENTAGE OF FOCK EXCHANGE    25.0000

 CAPPA:IS1  2;IS2  2;IS3  8; K PTS MONK NET  20; SYMMOPS:K SPACE   2;G SPACE   1

 *******************************************************************************
 MAX NUMBER OF SCF CYCLES      50  CONVERGENCE ON DELTAP        10**-16
 WEIGHT OF F(I) IN F(I+1)      30% CONVERGENCE ON ENERGY        10**- 6
 SHRINK. FACT.(MONKH.)    2  2  8  NUMBER OF K POINTS IN THE IBZ     20
 SHRINKING FACTOR(GILAT NET)    8  NUMBER OF K POINTS(GILAT NET)   1028
 *******************************************************************************
 *** K POINTS COORDINATES (OBLIQUE COORDINATES IN UNITS OF IS =  2)
   1-R(  0  0  0)   2-R(  1  0  0)   3-R(  0  1  0)   4-R(  1  1  0)
   5-C(  0  0  1)   6-C(  1  0  1)   7-C(  0  1  1)   8-C(  1  1  1)
   9-C(  0  0  2)  10-C(  1  0  2)  11-C(  0  1  2)  12-C(  1  1  2)
  13-C(  0  0  3)  14-C(  1  0  3)  15-C(  0  1  3)  16-C(  1  1  3)
  17-R(  0  0  4)  18-R(  1  0  4)  19-R(  0  1  4)  20-R(  1  1  4)

 DIRECT LATTICE VECTORS COMPON. (A.U.)     RECIP. LATTICE VECTORS COMPON. (A.U.) 
        X            Y            Z              X            Y            Z
   24.5879030  -14.1935232    0.0000000      0.2555397    0.0000000    0.0000005
    0.0000000   28.3910867    0.0000000      0.1277517    0.2213084    0.0000015
   -0.0000305   -0.0000810   14.3619186      0.0000000    0.0000000    0.4374893

 DISK SPACE FOR EIGENVECTORS (FTN 10)    28758528 REALS

 SYMMETRY ADAPTION OF THE BLOCH FUNCTIONS DISABLED
 TTTTTTTTTTTTTTTTTTTTTTTTTTTTTT gordsh1     TELAPSE        0.07 TCPU        0.07

 MATRIX SIZE: P(G)  623150, F(G)  120476, P(G) IRR  313513, F(G) IRR  121508
 MAX G-VECTOR INDEX FOR 1- AND 2-ELECTRON INTEGRALS  43

 TTTTTTTTTTTTTTTTTTTTTTTTTTTTTT INPUT       TELAPSE        3.32 TCPU        3.32

 NEIGHBORS OF THE NON-EQUIVALENT ATOMS

 N = NUMBER OF NEIGHBORS AT DISTANCE R
    ATOM  N     R/ANG      R/AU   NEIGHBORS (ATOM LABELS AND CELL INDICES)
   1 B    1     1.3791     2.6061   73 O   -1 0 0
   1 B    1     1.3793     2.6065   75 O    0 0 0
   1 B    1     1.5503     2.9297   49 C   -1 0 0
   1 B    1     2.3895     4.5155    5 B    0 1 0
   1 B    1     2.3898     4.5160    3 B    0 0 0
   1 B    1     2.5632     4.8437   51 C    0 0 0

   2 B    1     1.3791     2.6061   74 O    0 0 0
   2 B    1     1.3793     2.6065   76 O    0 0 0
   2 B    1     1.5503     2.9297   50 C    0 0 0
   2 B    1     2.3895     4.5155    6 B    0 0 0
   2 B    1     2.3898     4.5160    4 B    0 0 0
   2 B    1     2.5632     4.8437   52 C    0 0 0

   3 B    1     1.3793     2.6065   77 O    0 1 0
   3 B    1     1.3793     2.6065   75 O    0 0 0
   3 B    1     1.5504     2.9298   37 C    0 0 0
   3 B    1     2.3895     4.5156    5 B    0 1 0
   3 B    1     2.3898     4.5160    1 B    0 0 0
   3 B    1     2.5634     4.8440   43 C    0 1 0

   4 B    1     1.3793     2.6065   78 O    0 0 0
   4 B    1     1.3793     2.6065   76 O    0 0 0
   4 B    1     1.5504     2.9298   38 C    0 0 0
   4 B    1     2.3895     4.5156    6 B    0 0 0
   4 B    1     2.3898     4.5160    2 B    0 0 0
   4 B    1     2.5634     4.8440   44 C    0 0 0

   5 B    1     1.3791     2.6061   73 O   -1-1 0
   5 B    1     1.3793     2.6064   77 O    0 0 0
   5 B    1     1.5502     2.9294   61 C   -1-1 0
   5 B    1     2.3895     4.5155    1 B    0-1 0
   5 B    1     2.3895     4.5156    3 B    0-1 0
   5 B    1     2.5629     4.8433   63 C    0 0 0

   6 B    1     1.3791     2.6061   74 O    0 0 0
   6 B    1     1.3793     2.6064   78 O    0 0 0
   6 B    1     1.5502     2.9294   62 C    0 0 0
   6 B    1     2.3895     4.5155    2 B    0 0 0
   6 B    1     2.3895     4.5156    4 B    0 0 0
   6 B    1     2.5629     4.8433   64 C    0 0 0

   7 B    1     1.3795     2.6068   79 O    0 0 0
   7 B    1     1.3795     2.6070   81 O    0-1 0
   7 B    1     1.5513     2.9316   47 C    0 0 0
   7 B    1     2.3905     4.5174   11 B    0 0 0
   7 B    1     2.3905     4.5175    9 B    0-1 0
   7 B    1     2.5648     4.8468   45 C    0-1 0

   8 B    1     1.3795     2.6068   80 O    0 0 0
   8 B    1     1.3795     2.6070   82 O    0 0 0
   8 B    1     1.5513     2.9316   48 C    0 0 0
   8 B    1     2.3905     4.5174   12 B    1 1 0
   8 B    1     2.3905     4.5175   10 B    1 0 0
   8 B    1     2.5648     4.8468   46 C    0 0 0

   9 B    1     1.3795     2.6069   81 O    0 0 0
   9 B    1     1.3797     2.6072   83 O    1 1 0
   9 B    1     1.5516     2.9322   71 C    0 0 0
   9 B    1     2.3905     4.5175    7 B    0 1 0
   9 B    1     2.3911     4.5185   11 B    0 1 0
   9 B    1     2.5651     4.8473   69 C    1 1 0

  10 B    1     1.3795     2.6069   82 O   -1 0 0
  10 B    1     1.3797     2.6072   84 O    0 1 0
  10 B    1     1.5516     2.9322   72 C    0 0 0
  10 B    1     2.3905     4.5175    8 B   -1 0 0
  10 B    1     2.3911     4.5185   12 B    0 1 0
  10 B    1     2.5651     4.8473   70 C    0 0 0

  11 B    1     1.3795     2.6068   79 O    0 0 0
  11 B    1     1.3796     2.6071   83 O    1 0 0
  11 B    1     1.5516     2.9322   59 C    0 0 0
  11 B    1     2.3905     4.5174    7 B    0 0 0
  11 B    1     2.3911     4.5185    9 B    0-1 0
  11 B    1     2.5651     4.8473   57 C    1 0 0

  12 B    1     1.3795     2.6068   80 O   -1-1 0
  12 B    1     1.3796     2.6071   84 O    0 0 0
  12 B    1     1.5516     2.9322   60 C    0 0 0
  12 B    1     2.3905     4.5174    8 B   -1-1 0
  12 B    1     2.3911     4.5185   10 B    0-1 0
  12 B    1     2.5651     4.8473   58 C    0 0 0

  13 H    1     1.0913     2.0623   39 C    0 0 0
  13 H    1     2.1472     4.0576   37 C    0 0 0
  13 H    1     2.1680     4.0969   45 C    0 0 0
  13 H    1     2.5202     4.7625   19 H    0 0 0
  13 H    1     2.5676     4.8520   75 O    0 0 0
  13 H    1     2.7321     5.1630    3 B    0 0 0

  14 H    1     1.0913     2.0623   40 C    0 0 0
  14 H    1     2.1472     4.0576   38 C    0 0 0
  14 H    1     2.1680     4.0969   46 C    0 0 0
  14 H    1     2.5202     4.7625   20 H    0 0 0
  14 H    1     2.5676     4.8520   76 O    0 0 0
  14 H    1     2.7321     5.1630    4 B    0 0 0

  15 H    1     1.0914     2.0625   41 C    0 0 0
  15 H    1     2.1493     4.0616   47 C    0 0 0
  15 H    1     2.1666     4.0942   43 C    0 0 0
  15 H    1     2.5198     4.7618   17 H    0 0 0
  15 H    1     2.5720     4.8604   79 O    0 0 0
  15 H    1     2.7362     5.1707    7 B    0 0 0

  16 H    1     1.0914     2.0625   42 C    0 0 0
  16 H    1     2.1493     4.0616   48 C    0 0 0
  16 H    1     2.1666     4.0942   44 C    0 0 0
  16 H    1     2.5198     4.7618   18 H    0 0 0
  16 H    1     2.5720     4.8604   80 O    0 0 0
  16 H    1     2.7362     5.1707    8 B    0 0 0

  17 H    1     1.0914     2.0624   43 C    0 0 0
  17 H    1     2.1471     4.0575   37 C    0-1 0
  17 H    1     2.1680     4.0970   41 C    0 0 0
  17 H    1     2.5198     4.7618   15 H    0 0 0
  17 H    1     2.5665     4.8500   77 O    0 0 0
  17 H    1     2.7315     5.1618    3 B    0-1 0

  18 H    1     1.0914     2.0624   44 C    0 0 0
  18 H    1     2.1471     4.0575   38 C    0 0 0
  18 H    1     2.1680     4.0970   42 C    0 0 0
  18 H    1     2.5198     4.7618   16 H    0 0 0
  18 H    1     2.5665     4.8500   78 O    0 0 0
  18 H    1     2.7315     5.1618    4 B    0 0 0

  19 H    1     1.0915     2.0626   45 C    0 0 0
  19 H    1     2.1490     4.0610   47 C    0 1 0
  19 H    1     2.1669     4.0948   39 C    0 0 0
  19 H    1     2.5202     4.7625   13 H    0 0 0
  19 H    1     2.5712     4.8588   81 O    0 0 0
  19 H    1     2.7351     5.1686    7 B    0 1 0

  20 H    1     1.0915     2.0626   46 C    0 0 0
  20 H    1     2.1490     4.0610   48 C    0 0 0
  20 H    1     2.1669     4.0948   40 C    0 0 0
  20 H    1     2.5202     4.7625   14 H    0 0 0
  20 H    1     2.5712     4.8588   82 O    0 0 0
  20 H    1     2.7351     5.1686    8 B    0 0 0

  21 H    1     1.0913     2.0623   51 C    0 0 0
  21 H    1     2.1469     4.0571   49 C   -1 0 0
  21 H    1     2.1680     4.0968   57 C    0 0 0
  21 H    1     2.5198     4.7617   27 H    0 0 0
  21 H    1     2.5670     4.8510   75 O    0 0 0
  21 H    1     2.7310     5.1609    1 B    0 0 0

  22 H    1     1.0913     2.0623   52 C    0 0 0
  22 H    1     2.1469     4.0571   50 C    0 0 0
  22 H    1     2.1680     4.0968   58 C    0 0 0
  22 H    1     2.5198     4.7617   28 H    0 0 0
  22 H    1     2.5670     4.8510   76 O    0 0 0
  22 H    1     2.7310     5.1609    2 B    0 0 0

  23 H    1     1.0914     2.0625   53 C    0 0 0
  23 H    1     2.1493     4.0617   59 C    0 0 0
  23 H    1     2.1664     4.0939   55 C    0 0 0
  23 H    1     2.5192     4.7606   25 H    0 0 0
  23 H    1     2.5735     4.8632   79 O    0 0 0
  23 H    1     2.7371     5.1723   11 B    0 0 0

  24 H    1     1.0914     2.0625   54 C    0 0 0
  24 H    1     2.1493     4.0617   60 C    0 0 0
  24 H    1     2.1664     4.0939   56 C    0 0 0
  24 H    1     2.5192     4.7606   26 H    0 0 0
  24 H    1     2.5735     4.8632   80 O   -1-1 0
  24 H    1     2.7371     5.1723   12 B    0 0 0

  25 H    1     1.0914     2.0624   55 C    0 0 0
  25 H    1     2.1475     4.0581   49 C    0 0 0
  25 H    1     2.1679     4.0967   53 C    0 0 0
  25 H    1     2.5192     4.7606   23 H    0 0 0
  25 H    1     2.5675     4.8519   73 O    0 0 0
  25 H    1     2.7328     5.1643    1 B    1 0 0

  26 H    1     1.0914     2.0624   56 C    0 0 0
  26 H    1     2.1475     4.0581   50 C    0 0 0
  26 H    1     2.1679     4.0967   54 C    0 0 0
  26 H    1     2.5192     4.7606   24 H    0 0 0
  26 H    1     2.5675     4.8519   74 O    0 0 0
  26 H    1     2.7328     5.1643    2 B    0 0 0

  27 H    1     1.0914     2.0625   57 C    0 0 0
  27 H    1     2.1491     4.0612   59 C   -1 0 0
  27 H    1     2.1666     4.0942   51 C    0 0 0
  27 H    1     2.5198     4.7617   21 H    0 0 0
  27 H    1     2.5723     4.8609   83 O    0 0 0
  27 H    1     2.7355     5.1693   11 B   -1 0 0

  28 H    1     1.0914     2.0625   58 C    0 0 0
  28 H    1     2.1491     4.0612   60 C    0 0 0
  28 H    1     2.1666     4.0942   52 C    0 0 0
  28 H    1     2.5198     4.7617   22 H    0 0 0
  28 H    1     2.5723     4.8609   84 O    0 0 0
  28 H    1     2.7355     5.1693   12 B    0 0 0

  29 H    1     1.0914     2.0624   63 C    0 0 0
  29 H    1     2.1475     4.0582   61 C   -1-1 0
  29 H    1     2.1678     4.0966   69 C    0 0 0
  29 H    1     2.5200     4.7621   35 H    0 0 0
  29 H    1     2.5667     4.8503   77 O    0 0 0
  29 H    1     2.7315     5.1618    5 B    0 0 0

  30 H    1     1.0914     2.0624   64 C    0 0 0
  30 H    1     2.1475     4.0582   62 C    0 0 0
  30 H    1     2.1678     4.0966   70 C    0 0 0
  30 H    1     2.5200     4.7621   36 H    0 0 0
  30 H    1     2.5667     4.8503   78 O    0 0 0
  30 H    1     2.7315     5.1618    6 B    0 0 0

  31 H    1     1.0913     2.0623   65 C    0 0 0
  31 H    1     2.1487     4.0605   71 C    0 0 0
  31 H    1     2.1667     4.0945   67 C    0 0 0
  31 H    1     2.5197     4.7616   33 H    0 0 0
  31 H    1     2.5723     4.8610   81 O    0 0 0
  31 H    1     2.7359     5.1701    9 B    0 0 0

  32 H    1     1.0913     2.0623   66 C    0 0 0
  32 H    1     2.1487     4.0605   72 C    0 0 0
  32 H    1     2.1667     4.0945   68 C    0 0 0
  32 H    1     2.5197     4.7616   34 H    0 0 0
  32 H    1     2.5723     4.8610   82 O   -1 0 0
  32 H    1     2.7359     5.1701   10 B    0 0 0

  33 H    1     1.0915     2.0626   67 C    0 0 0
  33 H    1     2.1479     4.0589   61 C    0 0 0
  33 H    1     2.1679     4.0968   65 C    0 0 0
  33 H    1     2.5197     4.7616   31 H    0 0 0
  33 H    1     2.5677     4.8522   73 O    0 0 0
  33 H    1     2.7331     5.1648    5 B    1 1 0

  34 H    1     1.0915     2.0626   68 C    0 0 0
  34 H    1     2.1479     4.0589   62 C    0 0 0
  34 H    1     2.1679     4.0968   66 C    0 0 0
  34 H    1     2.5197     4.7616   32 H    0 0 0
  34 H    1     2.5677     4.8522   74 O    0 0 0
  34 H    1     2.7331     5.1648    6 B    0 0 0

  35 H    1     1.0914     2.0624   69 C    0 0 0
  35 H    1     2.1486     4.0602   71 C   -1-1 0
  35 H    1     2.1668     4.0947   63 C    0 0 0
  35 H    1     2.5200     4.7621   29 H    0 0 0
  35 H    1     2.5717     4.8598   83 O    0 0 0
  35 H    1     2.7349     5.1682    9 B   -1-1 0

  36 H    1     1.0914     2.0624   70 C    0 0 0
  36 H    1     2.1486     4.0602   72 C    0 0 0
  36 H    1     2.1668     4.0947   64 C    0 0 0
  36 H    1     2.5200     4.7621   30 H    0 0 0
  36 H    1     2.5717     4.8598   84 O    0 1 0
  36 H    1     2.7349     5.1682   10 B    0 0 0

  37 C    1     1.4020     2.6495   43 C    0 1 0
  37 C    1     1.4021     2.6495   39 C    0 0 0
  37 C    1     1.5504     2.9298    3 B    0 0 0
  37 C    1     2.1471     4.0575   17 H    0 1 0
  37 C    1     2.1472     4.0576   13 H    0 0 0
  37 C    1     2.4246     4.5817   41 C    0 1 0

  38 C    1     1.4020     2.6495   44 C    0 0 0
  38 C    1     1.4021     2.6495   40 C    0 0 0
  38 C    1     1.5504     2.9298    4 B    0 0 0
  38 C    1     2.1471     4.0575   18 H    0 0 0
  38 C    1     2.1472     4.0576   14 H    0 0 0
  38 C    1     2.4246     4.5817   42 C    0 0 0

  39 C    1     1.0913     2.0623   13 H    0 0 0
  39 C    1     1.3914     2.6294   45 C    0 0 0
  39 C    1     1.4021     2.6495   37 C    0 0 0
  39 C    1     2.1669     4.0948   19 H    0 0 0
  39 C    1     2.4177     4.5688   43 C    0 1 0
  39 C    1     2.4250     4.5825   47 C    0 1 0

  40 C    1     1.0913     2.0623   14 H    0 0 0
  40 C    1     1.3914     2.6294   46 C    0 0 0
  40 C    1     1.4021     2.6495   38 C    0 0 0
  40 C    1     2.1669     4.0948   20 H    0 0 0
  40 C    1     2.4177     4.5688   44 C    0 0 0
  40 C    1     2.4250     4.5825   48 C    0 0 0

  41 C    1     1.0914     2.0625   15 H    0 0 0
  41 C    1     1.3914     2.6293   43 C    0 0 0
  41 C    1     1.4026     2.6505   47 C    0 0 0
  41 C    1     2.1680     4.0970   17 H    0 0 0
  41 C    1     2.4182     4.5697   45 C    0-1 0
  41 C    1     2.4246     4.5817   37 C    0-1 0

  42 C    1     1.0914     2.0625   16 H    0 0 0
  42 C    1     1.3914     2.6293   44 C    0 0 0
  42 C    1     1.4026     2.6505   48 C    0 0 0
  42 C    1     2.1680     4.0970   18 H    0 0 0
  42 C    1     2.4182     4.5697   46 C    0 0 0
  42 C    1     2.4246     4.5817   38 C    0 0 0

  43 C    1     1.0914     2.0624   17 H    0 0 0
  43 C    1     1.3914     2.6293   41 C    0 0 0
  43 C    1     1.4020     2.6495   37 C    0-1 0
  43 C    1     2.1666     4.0942   15 H    0 0 0
  43 C    1     2.4177     4.5688   39 C    0-1 0
  43 C    1     2.4250     4.5826   47 C    0 0 0

  44 C    1     1.0914     2.0624   18 H    0 0 0
  44 C    1     1.3914     2.6293   42 C    0 0 0
  44 C    1     1.4020     2.6495   38 C    0 0 0
  44 C    1     2.1666     4.0942   16 H    0 0 0
  44 C    1     2.4177     4.5688   40 C    0 0 0
  44 C    1     2.4250     4.5826   48 C    0 0 0

  45 C    1     1.0915     2.0626   19 H    0 0 0
  45 C    1     1.3914     2.6294   39 C    0 0 0
  45 C    1     1.4025     2.6504   47 C    0 1 0
  45 C    1     2.1680     4.0969   13 H    0 0 0
  45 C    1     2.4182     4.5697   41 C    0 1 0
  45 C    1     2.4246     4.5818   37 C    0 0 0

  46 C    1     1.0915     2.0626   20 H    0 0 0
  46 C    1     1.3914     2.6294   40 C    0 0 0
  46 C    1     1.4025     2.6504   48 C    0 0 0
  46 C    1     2.1680     4.0969   14 H    0 0 0
  46 C    1     2.4182     4.5697   42 C    0 0 0
  46 C    1     2.4246     4.5818   38 C    0 0 0

  47 C    1     1.4025     2.6504   45 C    0-1 0
  47 C    1     1.4026     2.6505   41 C    0 0 0
  47 C    1     1.5513     2.9316    7 B    0 0 0
  47 C    1     2.1490     4.0610   19 H    0-1 0
  47 C    1     2.1493     4.0616   15 H    0 0 0
  47 C    1     2.4250     4.5825   39 C    0-1 0

  48 C    1     1.4025     2.6504   46 C    0 0 0
  48 C    1     1.4026     2.6505   42 C    0 0 0
  48 C    1     1.5513     2.9316    8 B    0 0 0
  48 C    1     2.1490     4.0610   20 H    0 0 0
  48 C    1     2.1493     4.0616   16 H    0 0 0
  48 C    1     2.4250     4.5825   40 C    0 0 0

  49 C    1     1.4020     2.6494   51 C    1 0 0
  49 C    1     1.4021     2.6495   55 C    0 0 0
  49 C    1     1.5503     2.9297    1 B    1 0 0
  49 C    1     2.1469     4.0571   21 H    1 0 0
  49 C    1     2.1475     4.0581   25 H    0 0 0
  49 C    1     2.4246     4.5818   53 C    0 0 0

  50 C    1     1.4020     2.6494   52 C    0 0 0
  50 C    1     1.4021     2.6495   56 C    0 0 0
  50 C    1     1.5503     2.9297    2 B    0 0 0
  50 C    1     2.1469     4.0571   22 H    0 0 0
  50 C    1     2.1475     4.0581   26 H    0 0 0
  50 C    1     2.4246     4.5818   54 C    0 0 0

  51 C    1     1.0913     2.0623   21 H    0 0 0
  51 C    1     1.3914     2.6293   57 C    0 0 0
  51 C    1     1.4020     2.6494   49 C   -1 0 0
  51 C    1     2.1666     4.0942   27 H    0 0 0
  51 C    1     2.4175     4.5684   55 C   -1 0 0
  51 C    1     2.4251     4.5828   59 C   -1 0 0

  52 C    1     1.0913     2.0623   22 H    0 0 0
  52 C    1     1.3914     2.6293   58 C    0 0 0
  52 C    1     1.4020     2.6494   50 C    0 0 0
  52 C    1     2.1666     4.0942   28 H    0 0 0
  52 C    1     2.4175     4.5684   56 C    0 0 0
  52 C    1     2.4251     4.5828   60 C    0 0 0

  53 C    1     1.0914     2.0625   23 H    0 0 0
  53 C    1     1.3915     2.6295   55 C    0 0 0
  53 C    1     1.4026     2.6505   59 C    0 0 0
  53 C    1     2.1679     4.0967   25 H    0 0 0
  53 C    1     2.4179     4.5691   57 C    1 0 0
  53 C    1     2.4246     4.5818   49 C    0 0 0

  54 C    1     1.0914     2.0625   24 H    0 0 0
  54 C    1     1.3915     2.6295   56 C    0 0 0
  54 C    1     1.4026     2.6505   60 C    0 0 0
  54 C    1     2.1679     4.0967   26 H    0 0 0
  54 C    1     2.4179     4.5691   58 C    0 0 0
  54 C    1     2.4246     4.5818   50 C    0 0 0

  55 C    1     1.0914     2.0624   25 H    0 0 0
  55 C    1     1.3915     2.6295   53 C    0 0 0
  55 C    1     1.4021     2.6495   49 C    0 0 0
  55 C    1     2.1664     4.0939   23 H    0 0 0
  55 C    1     2.4175     4.5684   51 C    1 0 0
  55 C    1     2.4253     4.5832   59 C    0 0 0

  56 C    1     1.0914     2.0624   26 H    0 0 0
  56 C    1     1.3915     2.6295   54 C    0 0 0
  56 C    1     1.4021     2.6495   50 C    0 0 0
  56 C    1     2.1664     4.0939   24 H    0 0 0
  56 C    1     2.4175     4.5684   52 C    0 0 0
  56 C    1     2.4253     4.5832   60 C    0 0 0

  57 C    1     1.0914     2.0625   27 H    0 0 0
  57 C    1     1.3914     2.6293   51 C    0 0 0
  57 C    1     1.4025     2.6504   59 C   -1 0 0
  57 C    1     2.1680     4.0968   21 H    0 0 0
  57 C    1     2.4179     4.5691   53 C   -1 0 0
  57 C    1     2.4247     4.5819   49 C   -1 0 0

  58 C    1     1.0914     2.0625   28 H    0 0 0
  58 C    1     1.3914     2.6293   52 C    0 0 0
  58 C    1     1.4025     2.6504   60 C    0 0 0
  58 C    1     2.1680     4.0968   22 H    0 0 0
  58 C    1     2.4179     4.5691   54 C    0 0 0
  58 C    1     2.4247     4.5819   50 C    0 0 0

  59 C    1     1.4025     2.6504   57 C    1 0 0
  59 C    1     1.4026     2.6505   53 C    0 0 0
  59 C    1     1.5516     2.9322   11 B    0 0 0
  59 C    1     2.1491     4.0612   27 H    1 0 0
  59 C    1     2.1493     4.0617   23 H    0 0 0
  59 C    1     2.4251     4.5828   51 C    1 0 0

  60 C    1     1.4025     2.6504   58 C    0 0 0
  60 C    1     1.4026     2.6505   54 C    0 0 0
  60 C    1     1.5516     2.9322   12 B    0 0 0
  60 C    1     2.1491     4.0612   28 H    0 0 0
  60 C    1     2.1493     4.0617   24 H    0 0 0
  60 C    1     2.4251     4.5828   52 C    0 0 0

  61 C    1     1.4021     2.6496   63 C    1 1 0
  61 C    1     1.4021     2.6497   67 C    0 0 0
  61 C    1     1.5502     2.9294    5 B    1 1 0
  61 C    1     2.1475     4.0582   29 H    1 1 0
  61 C    1     2.1479     4.0589   33 H    0 0 0
  61 C    1     2.4244     4.5814   65 C    0 0 0

  62 C    1     1.4021     2.6496   64 C    0 0 0
  62 C    1     1.4021     2.6497   68 C    0 0 0
  62 C    1     1.5502     2.9294    6 B    0 0 0
  62 C    1     2.1475     4.0582   30 H    0 0 0
  62 C    1     2.1479     4.0589   34 H    0 0 0
  62 C    1     2.4244     4.5814   66 C    0 0 0

  63 C    1     1.0914     2.0624   29 H    0 0 0
  63 C    1     1.3914     2.6293   69 C    0 0 0
  63 C    1     1.4021     2.6496   61 C   -1-1 0
  63 C    1     2.1668     4.0947   35 H    0 0 0
  63 C    1     2.4179     4.5692   67 C   -1-1 0
  63 C    1     2.4251     4.5827   71 C   -1-1 0

  64 C    1     1.0914     2.0624   30 H    0 0 0
  64 C    1     1.3914     2.6293   70 C    0 0 0
  64 C    1     1.4021     2.6496   62 C    0 0 0
  64 C    1     2.1668     4.0947   36 H    0 0 0
  64 C    1     2.4179     4.5692   68 C    0 0 0
  64 C    1     2.4251     4.5827   72 C    0 0 0

  65 C    1     1.0913     2.0623   31 H    0 0 0
  65 C    1     1.3914     2.6294   67 C    0 0 0
  65 C    1     1.4025     2.6504   71 C    0 0 0
  65 C    1     2.1679     4.0968   33 H    0 0 0
  65 C    1     2.4178     4.5690   69 C    1 1 0
  65 C    1     2.4244     4.5814   61 C    0 0 0

  66 C    1     1.0913     2.0623   32 H    0 0 0
  66 C    1     1.3914     2.6294   68 C    0 0 0
  66 C    1     1.4025     2.6504   72 C    0 0 0
  66 C    1     2.1679     4.0968   34 H    0 0 0
  66 C    1     2.4178     4.5690   70 C    0 0 0
  66 C    1     2.4244     4.5814   62 C    0 0 0

  67 C    1     1.0915     2.0626   33 H    0 0 0
  67 C    1     1.3914     2.6294   65 C    0 0 0
  67 C    1     1.4021     2.6497   61 C    0 0 0
  67 C    1     2.1667     4.0945   31 H    0 0 0
  67 C    1     2.4179     4.5692   63 C    1 1 0
  67 C    1     2.4253     4.5832   71 C    0 0 0

  68 C    1     1.0915     2.0626   34 H    0 0 0
  68 C    1     1.3914     2.6294   66 C    0 0 0
  68 C    1     1.4021     2.6497   62 C    0 0 0
  68 C    1     2.1667     4.0945   32 H    0 0 0
  68 C    1     2.4179     4.5692   64 C    0 0 0
  68 C    1     2.4253     4.5832   72 C    0 0 0

  69 C    1     1.0914     2.0624   35 H    0 0 0
  69 C    1     1.3914     2.6293   63 C    0 0 0
  69 C    1     1.4025     2.6503   71 C   -1-1 0
  69 C    1     2.1678     4.0966   29 H    0 0 0
  69 C    1     2.4178     4.5690   65 C   -1-1 0
  69 C    1     2.4245     4.5817   61 C   -1-1 0

  70 C    1     1.0914     2.0624   36 H    0 0 0
  70 C    1     1.3914     2.6293   64 C    0 0 0
  70 C    1     1.4025     2.6503   72 C    0 0 0
  70 C    1     2.1678     4.0966   30 H    0 0 0
  70 C    1     2.4178     4.5690   66 C    0 0 0
  70 C    1     2.4245     4.5817   62 C    0 0 0

  71 C    1     1.4025     2.6503   69 C    1 1 0
  71 C    1     1.4025     2.6504   65 C    0 0 0
  71 C    1     1.5516     2.9322    9 B    0 0 0
  71 C    1     2.1486     4.0602   35 H    1 1 0
  71 C    1     2.1487     4.0605   31 H    0 0 0
  71 C    1     2.4251     4.5827   63 C    1 1 0

  72 C    1     1.4025     2.6503   70 C    0 0 0
  72 C    1     1.4025     2.6504   66 C    0 0 0
  72 C    1     1.5516     2.9322   10 B    0 0 0
  72 C    1     2.1486     4.0602   36 H    0 0 0
  72 C    1     2.1487     4.0605   32 H    0 0 0
  72 C    1     2.4251     4.5827   64 C    0 0 0

  73 O    1     1.3791     2.6061    1 B    1 0 0
  73 O    1     1.3791     2.6061    5 B    1 1 0
  73 O    1     2.3880     4.5126   75 O    1 0 0
  73 O    1     2.3882     4.5130   77 O    1 1 0
  73 O    1     2.5383     4.7966   61 C    0 0 0
  73 O    1     2.5384     4.7968   49 C    0 0 0

  74 O    1     1.3791     2.6061    2 B    0 0 0
  74 O    1     1.3791     2.6061    6 B    0 0 0
  74 O    1     2.3880     4.5126   76 O    0 0 0
  74 O    1     2.3882     4.5130   78 O    0 0 0
  74 O    1     2.5383     4.7966   62 C    0 0 0
  74 O    1     2.5384     4.7968   50 C    0 0 0

  75 O    1     1.3793     2.6065    1 B    0 0 0
  75 O    1     1.3793     2.6065    3 B    0 0 0
  75 O    1     2.3880     4.5126   73 O   -1 0 0
  75 O    1     2.3882     4.5131   77 O    0 1 0
  75 O    1     2.5391     4.7981   37 C    0 0 0
  75 O    1     2.5395     4.7990   49 C   -1 0 0

  76 O    1     1.3793     2.6065    2 B    0 0 0
  76 O    1     1.3793     2.6065    4 B    0 0 0
  76 O    1     2.3880     4.5126   74 O    0 0 0
  76 O    1     2.3882     4.5131   78 O    0 0 0
  76 O    1     2.5391     4.7981   38 C    0 0 0
  76 O    1     2.5395     4.7990   50 C    0 0 0

  77 O    1     1.3793     2.6064    5 B    0 0 0
  77 O    1     1.3793     2.6065    3 B    0-1 0
  77 O    1     2.3882     4.5130   73 O   -1-1 0
  77 O    1     2.3882     4.5131   75 O    0-1 0
  77 O    1     2.5390     4.7980   37 C    0-1 0
  77 O    1     2.5391     4.7982   61 C   -1-1 0

  78 O    1     1.3793     2.6064    6 B    0 0 0
  78 O    1     1.3793     2.6065    4 B    0 0 0
  78 O    1     2.3882     4.5130   74 O    0 0 0
  78 O    1     2.3882     4.5131   76 O    0 0 0
  78 O    1     2.5390     4.7980   38 C    0 0 0
  78 O    1     2.5391     4.7982   62 C    0 0 0

  79 O    1     1.3795     2.6068   11 B    0 0 0
  79 O    1     1.3795     2.6068    7 B    0 0 0
  79 O    1     2.3880     4.5126   83 O    1 0 0
  79 O    1     2.3884     4.5134   81 O    0-1 0
  79 O    1     2.5400     4.7998   47 C    0 0 0
  79 O    1     2.5403     4.8005   59 C    0 0 0

  80 O    1     1.3795     2.6068   12 B    1 1 0
  80 O    1     1.3795     2.6068    8 B    0 0 0
  80 O    1     2.3880     4.5126   84 O    1 1 0
  80 O    1     2.3884     4.5134   82 O    0 0 0
  80 O    1     2.5400     4.7998   48 C    0 0 0
  80 O    1     2.5403     4.8005   60 C    1 1 0

  81 O    1     1.3795     2.6069    9 B    0 0 0
  81 O    1     1.3795     2.6070    7 B    0 1 0
  81 O    1     2.3881     4.5128   83 O    1 1 0
  81 O    1     2.3884     4.5134   79 O    0 1 0
  81 O    1     2.5404     4.8006   47 C    0 1 0
  81 O    1     2.5405     4.8008   71 C    0 0 0

  82 O    1     1.3795     2.6069   10 B    1 0 0
  82 O    1     1.3795     2.6070    8 B    0 0 0
  82 O    1     2.3881     4.5128   84 O    1 1 0
  82 O    1     2.3884     4.5134   80 O    0 0 0
  82 O    1     2.5404     4.8006   48 C    0 0 0
  82 O    1     2.5405     4.8008   72 C    1 0 0

  83 O    1     1.3796     2.6071   11 B   -1 0 0
  83 O    1     1.3797     2.6072    9 B   -1-1 0
  83 O    1     2.3880     4.5126   79 O   -1 0 0
  83 O    1     2.3881     4.5128   81 O   -1-1 0
  83 O    1     2.5409     4.8016   71 C   -1-1 0
  83 O    1     2.5410     4.8019   59 C   -1 0 0

  84 O    1     1.3796     2.6071   12 B    0 0 0
  84 O    1     1.3797     2.6072   10 B    0-1 0
  84 O    1     2.3880     4.5126   80 O   -1-1 0
  84 O    1     2.3881     4.5128   82 O   -1-1 0
  84 O    1     2.5409     4.8016   72 C    0-1 0
  84 O    1     2.5410     4.8019   60 C    0 0 0


 SYMMETRY ALLOWED INTERNAL DEGREE(S) OF FREEDOM: 249
 TTTTTTTTTTTTTTTTTTTTTTTTTTTTTT SYMM        TELAPSE        3.33 TCPU        3.32
 TTTTTTTTTTTTTTTTTTTTTTTTTTTTTT INT_SCREEN  TELAPSE        3.53 TCPU        3.52

 DFT PARAMETERS

     ATOM       ELECTRONS   NET CHARGE   R(ANGSTROM)
   1   5  B       5.0000      0.0000     0.89000000
  13   1  H       1.0000      0.0000     1.11000000
  37   6  C       6.0000      0.0000     0.77000000
  73   8  O       8.0000      0.0000     0.74000000

 SIZE OF GRID=    2629597
 TTTTTTTTTTTTTTTTTTTTTTTTTTTTTT MAKE_GRID2  TELAPSE       21.39 TCPU       21.36
 BECKE WEIGHT FUNCTION
 RADSAFE =     2.00
 TOLERANCES - DENSITY:10**- 6; POTENTIAL:10**- 9; GRID WGT:10**-14

 RADIAL INTEGRATION  - INTERVALS (POINTS,UPPER LIMIT):            1( 75,  4.0*R)

 ANGULAR INTEGRATION - INTERVALS (ACCURACY LEVEL [N. POINTS] UPPER LIMIT):
  1(  4[  86]   0.2)  2(  8[ 194]   0.5)  3( 12[ 350]   0.9)  4( 16[ 974]   3.5)
  5( 12[ 350]9999.0)
 TTTTTTTTTTTTTTTTTTTTTTTTTTTTTT INT_CALC    TELAPSE       21.61 TCPU       21.59
 EEEEEEEEEE INT_CALC TERMINATION  DATE 19 02 2026 TIME 20:20:38.8

 *******************************************************************************
 cof-1_z38_L087_serr                                                             
 CRYSTAL - SCF - TYPE OF CALCULATION :  RESTRICTED CLOSED SHELL
 *******************************************************************************

 CAPPA:IS1  2;IS2  2;IS3  8; K PTS MONK NET  20; SYMMOPS:K SPACE   2;G SPACE   1

 TTTTTTTTTTTTTTTTTTTTTTTTTTTTTT SDIK        TELAPSE       23.86 TCPU       56.80

 AAAAAAAAAAAAAAAAAAAAAAAAAAAAAAAAAAAAAAAAAAAAAAAAAAAAAAAAAAAAAAAAAAAAAAAAAAAAAAA
         ATOMIC WAVEFUNCTION(S)


 NUCLEAR CHARGE  5.0  SYMMETRY SPECIES            S    P
 N. ELECTRONS    5.0  NUMBER OF PRIMITIVE GTOS    8    4
                      NUMBER OF CONTRACTED GTOS   4    2
                      NUMBER OF CLOSED SHELLS     2    0
                      OPEN SHELL OCCUPATION       0    1

  ZNUC  SCFIT    TOTAL HF ENERGY   KINETIC ENERGY   VIRIAL THEOREM ACCURACY
   5.0    11    -2.451164084E+01  2.462155050E+01 -1.995536038E+00  1.5E-06

 NUCLEAR CHARGE  1.0  SYMMETRY SPECIES            S
 N. ELECTRONS    1.0  NUMBER OF PRIMITIVE GTOS    4
                      NUMBER OF CONTRACTED GTOS   2
                      NUMBER OF CLOSED SHELLS     0
                      OPEN SHELL OCCUPATION       1

  ZNUC  SCFIT    TOTAL HF ENERGY   KINETIC ENERGY   VIRIAL THEOREM ACCURACY
   1.0     1    -4.977266687E-01  5.190767460E-01 -1.958869132E+00  0.0E+00

 NUCLEAR CHARGE  6.0  SYMMETRY SPECIES            S    P
 N. ELECTRONS    6.0  NUMBER OF PRIMITIVE GTOS    8    4
                      NUMBER OF CONTRACTED GTOS   4    2
                      NUMBER OF CLOSED SHELLS     2    0
                      OPEN SHELL OCCUPATION       0    2

  ZNUC  SCFIT    TOTAL HF ENERGY   KINETIC ENERGY   VIRIAL THEOREM ACCURACY
   6.0     9    -3.766704647E+01  3.775180683E+01 -1.997754800E+00  1.1E-06

 NUCLEAR CHARGE  8.0  SYMMETRY SPECIES            S    P
 N. ELECTRONS    8.0  NUMBER OF PRIMITIVE GTOS    8    4
                      NUMBER OF CONTRACTED GTOS   4    2
                      NUMBER OF CLOSED SHELLS     2    0
                      OPEN SHELL OCCUPATION       0    4

  ZNUC  SCFIT    TOTAL HF ENERGY   KINETIC ENERGY   VIRIAL THEOREM ACCURACY
   8.0    12    -7.477373220E+01  7.477365593E+01 -2.000001020E+00  3.8E-06

 AAAAAAAAAAAAAAAAAAAAAAAAAAAAAAAAAAAAAAAAAAAAAAAAAAAAAAAAAAAAAAAAAAAAAAAAAAAAAAA

 CHARGE NORMALIZATION FACTOR   1.00000000
 TOTAL ATOMIC CHARGES:
   5.0000000   5.0000000   5.0000000   5.0000000   5.0000000   5.0000000
   5.0000000   5.0000000   5.0000000   5.0000000   5.0000000   5.0000000
   1.0000000   1.0000000   1.0000000   1.0000000   1.0000000   1.0000000
   1.0000000   1.0000000   1.0000000   1.0000000   1.0000000   1.0000000
   1.0000000   1.0000000   1.0000000   1.0000000   1.0000000   1.0000000
   1.0000000   1.0000000   1.0000000   1.0000000   1.0000000   1.0000000
   6.0000000   6.0000000   6.0000000   6.0000000   6.0000000   6.0000000
   6.0000000   6.0000000   6.0000000   6.0000000   6.0000000   6.0000000
   6.0000000   6.0000000   6.0000000   6.0000000   6.0000000   6.0000000
   6.0000000   6.0000000   6.0000000   6.0000000   6.0000000   6.0000000
   6.0000000   6.0000000   6.0000000   6.0000000   6.0000000   6.0000000
   6.0000000   6.0000000   6.0000000   6.0000000   6.0000000   6.0000000
   8.0000000   8.0000000   8.0000000   8.0000000   8.0000000   8.0000000
   8.0000000   8.0000000   8.0000000   8.0000000   8.0000000   8.0000000
 TTTTTTTTTTTTTTTTTTTTTTTTTTTTTT MOQGAD      TELAPSE       23.99 TCPU       60.68
 TTTTTTTTTTTTTTTTTTTTTTTTTTTTTT SHELLXN     TELAPSE       37.80 TCPU      500.79
 TTTTTTTTTTTTTTTTTTTTTTTTTTTTTT MONMO3      TELAPSE       38.34 TCPU      518.07
 NUMERICALLY INTEGRATED DENSITY    395.9999511689
 TTTTTTTTTTTTTTTTTTTTTTTTTTTTTT NUMDFT      TELAPSE       39.74 TCPU      562.85
 CYC   0 ETOT(AU) -2.591914348653E+03 DETOT -2.59E+03 tst  0.00E+00 PX  1.00E+00
 TTTTTTTTTTTTTTTTTTTTTTTTTTTTTT DIIS        TELAPSE       39.85 TCPU      566.21
 TTTTTTTTTTTTTTTTTTTTTTTTTTTTTT FDIK        TELAPSE       41.80 TCPU      628.66
 INSULATING STATE
 TOP OF VALENCE BANDS -    BAND    198; K    2; EIG -3.1115926E-01 AU
 TOP OF VALENCE BANDS -    BAND    198; K    1; EIG -3.1121607E-01 AU
 BOTTOM OF VIRTUAL BANDS - BAND    199; K    1; EIG -1.5653508E-01 AU
 INDIRECT ENERGY BAND GAP:   4.2075 eV
 TTTTTTTTTTTTTTTTTTTTTTTTTTTTTT PDIG        TELAPSE       43.37 TCPU      635.38
 CHARGE NORMALIZATION FACTOR   1.00000000
 TOTAL ATOMIC CHARGES:
   4.1488568   4.1661130   4.1486991   4.1659482   4.1489083   4.1661917
   4.1657794   4.1485164   4.1655497   4.1483077   4.1657229   4.1484753
   0.7857394   0.7850916   0.7852073   0.7858547   0.7856962   0.7850493
   0.7851692   0.7858156   0.7857187   0.7850705   0.7852371   0.7858852
   0.7857074   0.7850602   0.7852000   0.7858470   0.7856998   0.7850513
   0.7852339   0.7858825   0.7856909   0.7850440   0.7852009   0.7858478
   6.0460492   6.0429172   6.2670352   6.2648167   6.2647834   6.2670046
   6.2669908   6.2647644   6.2647087   6.2669353   6.0421967   6.0453056
   6.0461134   6.0429768   6.2670109   6.2647934   6.2648744   6.2670958
   6.2669277   6.2647041   6.2648937   6.2671165   6.0417783   6.0448794
   6.0464266   6.0432822   6.2667442   6.2645283   6.2650787   6.2672998
   6.2666614   6.2644447   6.2650654   6.2672787   6.0417399   6.0448505
   8.7006563   8.6907855   8.7007497   8.6908937   8.7006929   8.6908367
   8.6912130   8.7010650   8.6912428   8.7010878   8.6913904   8.7012444
 TTTTTTTTTTTTTTTTTTTTTTTTTTTTTT MOQGAD      TELAPSE       43.46 TCPU      635.47
 TTTTTTTTTTTTTTTTTTTTTTTTTTTTTT SHELLXN     TELAPSE       57.43 TCPU     1081.22
 TTTTTTTTTTTTTTTTTTTTTTTTTTTTTT MONMO3      TELAPSE       57.97 TCPU     1098.46
 NUMERICALLY INTEGRATED DENSITY    395.9999793494
 TTTTTTTTTTTTTTTTTTTTTTTTTTTTTT NUMDFT      TELAPSE       59.40 TCPU     1143.87
 CYC   1 ETOT(AU) -2.577630513760E+03 DETOT  1.43E+01 tst  0.00E+00 PX  1.00E+00
 TTTTTTTTTTTTTTTTTTTTTTTTTTTTTT DIIS        TELAPSE       59.53 TCPU     1148.15
 DIIS TEST: 0.22323E+01 AT SCF   CYCLE   1 - MIX   30 %
 TTTTTTTTTTTTTTTTTTTTTTTTTTTTTT FDIK        TELAPSE       61.51 TCPU     1211.39
 INSULATING STATE
 TOP OF VALENCE BANDS -    BAND    198; K    2; EIG -2.2261262E-01 AU
 TOP OF VALENCE BANDS -    BAND    198; K    1; EIG -2.2270267E-01 AU
 BOTTOM OF VIRTUAL BANDS - BAND    199; K   17; EIG -8.1033384E-02 AU
 INDIRECT ENERGY BAND GAP:   3.8526 eV
 BOTTOM OF VIRTUAL BANDS - BAND    199; K    1; EIG -8.0220094E-02 AU
 TTTTTTTTTTTTTTTTTTTTTTTTTTTTTT PDIG        TELAPSE       63.08 TCPU     1218.12
 CHARGE NORMALIZATION FACTOR   1.00000000
 TOTAL ATOMIC CHARGES:
   4.7009581   4.7158436   4.7008581   4.7157789   4.7008919   4.7157737
   4.7158663   4.7007231   4.7158425   4.7008098   4.7158820   4.7008388
   0.9020008   0.9117515   0.9117056   0.9020642   0.9019482   0.9117180
   0.9116661   0.9020033   0.9019900   0.9117478   0.9117185   0.9020542
   0.9019597   0.9117365   0.9117015   0.9020362   0.9019576   0.9117134
   0.9117509   0.9020859   0.9019410   0.9116936   0.9117273   0.9020752
   5.8695749   5.8780308   6.1235066   6.1415986   6.1420057   6.1238899
   6.1233963   6.1414551   6.1419807   6.1239308   5.8805710   5.8720588
   5.8694080   5.8778889   6.1232060   6.1413147   6.1419891   6.1239159
   6.1234367   6.1415451   6.1418944   6.1238235   5.8810683   5.8724325
   5.8695223   5.8779992   6.1234282   6.1415125   6.1418094   6.1237876
   6.1236332   6.1417895   6.1417598   6.1236543   5.8808037   5.8721551
   8.3409088   8.3337367   8.3412555   8.3340969   8.3412250   8.3340444
   8.3335664   8.3407451   8.3337580   8.3409483   8.3339543   8.3411701
 TTTTTTTTTTTTTTTTTTTTTTTTTTTTTT MOQGAD      TELAPSE       63.17 TCPU     1218.21
 TTTTTTTTTTTTTTTTTTTTTTTTTTTTTT SHELLXN     TELAPSE       77.15 TCPU     1664.13
 TTTTTTTTTTTTTTTTTTTTTTTTTTTTTT MONMO3      TELAPSE       77.69 TCPU     1681.40
 NUMERICALLY INTEGRATED DENSITY    395.9999702956
 TTTTTTTTTTTTTTTTTTTTTTTTTTTTTT NUMDFT      TELAPSE       79.12 TCPU     1726.83
 CYC   2 ETOT(AU) -2.578018489723E+03 DETOT -3.88E-01 tst  3.21E-03 PX  1.58E-01
 TTTTTTTTTTTTTTTTTTTTTTTTTTTTTT DIIS        TELAPSE       79.27 TCPU     1731.84
 DIIS TEST: 0.92897E+00 AT SCF   CYCLE   2 - DIIS ACTIVE - HISTORY:     2 CYCLES
 TTTTTTTTTTTTTTTTTTTTTTTTTTTTTT FDIK        TELAPSE       81.25 TCPU     1795.18
 INSULATING STATE
 TOP OF VALENCE BANDS -    BAND    198; K    2; EIG -2.3640933E-01 AU
 TOP OF VALENCE BANDS -    BAND    198; K    1; EIG -2.3647461E-01 AU
 BOTTOM OF VIRTUAL BANDS - BAND    199; K   13; EIG -7.5699832E-02 AU
 INDIRECT ENERGY BAND GAP:   4.3731 eV
 BOTTOM OF VIRTUAL BANDS - BAND    199; K    1; EIG -7.5525762E-02 AU
 TTTTTTTTTTTTTTTTTTTTTTTTTTTTTT PDIG        TELAPSE       82.82 TCPU     1801.90
 CHARGE NORMALIZATION FACTOR   1.00000000
 TOTAL ATOMIC CHARGES:
   4.4902773   4.5094574   4.4900997   4.5093425   4.4902641   4.5094359
   4.5091926   4.4900517   4.5090276   4.4899862   4.5090867   4.4900169
   0.8807992   0.8890374   0.8892330   0.8808673   0.8807276   0.8889894
   0.8892080   0.8808170   0.8807206   0.8889857   0.8892707   0.8808926
   0.8807438   0.8890283   0.8892128   0.8808263   0.8807383   0.8890103
   0.8892585   0.8808860   0.8807753   0.8890304   0.8892039   0.8808400
   5.9028906   5.8791859   6.1671905   6.1589134   6.1586784   6.1668152
   6.1671547   6.1588362   6.1585729   6.1668093   5.8787988   5.9028991
   5.9030735   5.8793609   6.1671378   6.1589086   6.1586170   6.1668486
   6.1672241   6.1588723   6.1586106   6.1668116   5.8786127   5.9025620
   5.9031920   5.8795087   6.1670268   6.1587548   6.1586949   6.1669865
   6.1670933   6.1587830   6.1586987   6.1668397   5.8785366   5.9024625
   8.5192574   8.5077783   8.5194004   8.5079616   8.5193652   8.5079329
   8.5080304   8.5194602   8.5081151   8.5195337   8.5082382   8.5196239
 TTTTTTTTTTTTTTTTTTTTTTTTTTTTTT MOQGAD      TELAPSE       82.91 TCPU     1801.99
 TTTTTTTTTTTTTTTTTTTTTTTTTTTTTT SHELLXN     TELAPSE       96.89 TCPU     2247.85
 TTTTTTTTTTTTTTTTTTTTTTTTTTTTTT MONMO3      TELAPSE       97.43 TCPU     2265.14
 NUMERICALLY INTEGRATED DENSITY    395.9999702956
 TTTTTTTTTTTTTTTTTTTTTTTTTTTTTT NUMDFT      TELAPSE       98.85 TCPU     2310.59
 CYC   3 ETOT(AU) -2.578209624016E+03 DETOT -1.91E-01 tst  5.88E-04 PX  6.27E-02
 TTTTTTTTTTTTTTTTTTTTTTTTTTTTTT DIIS        TELAPSE       99.03 TCPU     2316.33
 DIIS TEST: 0.27551E-01 AT SCF   CYCLE   3 - DIIS ACTIVE - HISTORY:     3 CYCLES
 TTTTTTTTTTTTTTTTTTTTTTTTTTTTTT FDIK        TELAPSE      101.01 TCPU     2379.64
 INSULATING STATE
 TOP OF VALENCE BANDS -    BAND    198; K    2; EIG -2.4489117E-01 AU
 TOP OF VALENCE BANDS -    BAND    198; K    1; EIG -2.4496128E-01 AU
 BOTTOM OF VIRTUAL BANDS - BAND    199; K   13; EIG -8.3149126E-02 AU
 INDIRECT ENERGY BAND GAP:   4.4012 eV
 BOTTOM OF VIRTUAL BANDS - BAND    199; K    1; EIG -8.2933788E-02 AU
 TTTTTTTTTTTTTTTTTTTTTTTTTTTTTT PDIG        TELAPSE      102.59 TCPU     2386.37
 CHARGE NORMALIZATION FACTOR   1.00000000
 TOTAL ATOMIC CHARGES:
   4.4958809   4.5122832   4.4957292   4.5121864   4.4958805   4.5122754
   4.5120955   4.4955317   4.5119348   4.4954908   4.5120068   4.4955395
   0.8668578   0.8717566   0.8717638   0.8669267   0.8667885   0.8717124
   0.8717278   0.8668617   0.8668250   0.8717354   0.8717823   0.8669136
   0.8668299   0.8717582   0.8717325   0.8668633   0.8668185   0.8717316
   0.8717950   0.8669230   0.8668425   0.8717357   0.8717459   0.8668949
   5.9304886   5.9518045   6.1581128   6.1750538   6.1753313   6.1584306
   6.1580669   6.1749531   6.1753045   6.1585026   5.9535405   5.9320071
   5.9302837   5.9516597   6.1579146   6.1748503   6.1754085   6.1585665
   6.1579540   6.1749061   6.1753938   6.1585675   5.9538179   5.9321370
   5.9304937   5.9518717   6.1579499   6.1748371   6.1753731   6.1586091
   6.1579368   6.1749462   6.1753748   6.1585028   5.9535933   5.9318982
   8.4863753   8.4775253   8.4866511   8.4777815   8.4866161   8.4777293
   8.4775230   8.4864082   8.4776526   8.4865404   8.4778382   8.4867592
 TTTTTTTTTTTTTTTTTTTTTTTTTTTTTT MOQGAD      TELAPSE      102.68 TCPU     2386.46
 TTTTTTTTTTTTTTTTTTTTTTTTTTTTTT SHELLXN     TELAPSE      116.66 TCPU     2832.36
 TTTTTTTTTTTTTTTTTTTTTTTTTTTTTT MONMO3      TELAPSE      117.20 TCPU     2849.65
 NUMERICALLY INTEGRATED DENSITY    395.9999713835
 TTTTTTTTTTTTTTTTTTTTTTTTTTTTTT NUMDFT      TELAPSE      118.62 TCPU     2895.12
 CYC   4 ETOT(AU) -2.578214796168E+03 DETOT -5.17E-03 tst  2.88E-05 PX  1.72E-02
 TTTTTTTTTTTTTTTTTTTTTTTTTTTTTT DIIS        TELAPSE      118.83 TCPU     2901.56
 DIIS TEST: 0.10239E-01 AT SCF   CYCLE   4 - DIIS ACTIVE - HISTORY:     4 CYCLES
 TTTTTTTTTTTTTTTTTTTTTTTTTTTTTT FDIK        TELAPSE      120.81 TCPU     2964.74
 INSULATING STATE
 TOP OF VALENCE BANDS -    BAND    198; K    2; EIG -2.4388515E-01 AU
 TOP OF VALENCE BANDS -    BAND    198; K    1; EIG -2.4395203E-01 AU
 BOTTOM OF VIRTUAL BANDS - BAND    199; K   13; EIG -8.3868226E-02 AU
 INDIRECT ENERGY BAND GAP:   4.3543 eV
 BOTTOM OF VIRTUAL BANDS - BAND    199; K    1; EIG -8.3655610E-02 AU
 TTTTTTTTTTTTTTTTTTTTTTTTTTTTTT PDIG        TELAPSE      122.37 TCPU     2971.46
 CHARGE NORMALIZATION FACTOR   1.00000000
 TOTAL ATOMIC CHARGES:
   4.4999383   4.5156800   4.4997779   4.5155769   4.4999344   4.5156630
   4.5155214   4.4997142   4.5153707   4.4996769   4.5154342   4.4997102
   0.8672084   0.8746762   0.8748044   0.8672854   0.8671343   0.8746284
   0.8747765   0.8672314   0.8671453   0.8746365   0.8748390   0.8673011
   0.8671496   0.8746637   0.8747910   0.8672488   0.8671488   0.8746451
   0.8748399   0.8673054   0.8671709   0.8746506   0.8747935   0.8672737
   5.9352949   5.9154715   6.1683208   6.1665249   6.1664509   6.1681503
   6.1682906   6.1664404   6.1663801   6.1681868   5.9157808   5.9358384
   5.9353955   5.9155732   6.1682174   6.1664590   6.1664090   6.1681959
   6.1683346   6.1664723   6.1663814   6.1681557   5.9157485   5.9356626
   5.9355101   5.9157168   6.1681809   6.1663783   6.1664366   6.1682946
   6.1682682   6.1664570   6.1664166   6.1681285   5.9156272   5.9355165
   8.4949874   8.4849335   8.4951698   8.4851578   8.4951287   8.4851153
   8.4850573   8.4950712   8.4851702   8.4951815   8.4853118   8.4953024
 TTTTTTTTTTTTTTTTTTTTTTTTTTTTTT MOQGAD      TELAPSE      122.46 TCPU     2971.55
 TTTTTTTTTTTTTTTTTTTTTTTTTTTTTT SHELLXN     TELAPSE      136.44 TCPU     3417.27
 TTTTTTTTTTTTTTTTTTTTTTTTTTTTTT MONMO3      TELAPSE      136.98 TCPU     3434.50
 NUMERICALLY INTEGRATED DENSITY    395.9999712565
 TTTTTTTTTTTTTTTTTTTTTTTTTTTTTT NUMDFT      TELAPSE      138.40 TCPU     3479.90
 CYC   5 ETOT(AU) -2.578216911302E+03 DETOT -2.12E-03 tst  2.05E-05 PX  8.76E-03
 TTTTTTTTTTTTTTTTTTTTTTTTTTTTTT DIIS        TELAPSE      138.62 TCPU     3486.51
 DIIS TEST: 0.15803E-02 AT SCF   CYCLE   5 - DIIS ACTIVE - HISTORY:     5 CYCLES
 TTTTTTTTTTTTTTTTTTTTTTTTTTTTTT FDIK        TELAPSE      140.60 TCPU     3549.54
 INSULATING STATE
 TOP OF VALENCE BANDS -    BAND    198; K    2; EIG -2.4337668E-01 AU
 TOP OF VALENCE BANDS -    BAND    198; K    1; EIG -2.4344394E-01 AU
 BOTTOM OF VIRTUAL BANDS - BAND    199; K   13; EIG -8.2963040E-02 AU
 INDIRECT ENERGY BAND GAP:   4.3651 eV
 BOTTOM OF VIRTUAL BANDS - BAND    199; K    1; EIG -8.2753313E-02 AU
 TTTTTTTTTTTTTTTTTTTTTTTTTTTTTT PDIG        TELAPSE      142.18 TCPU     3556.29
 CHARGE NORMALIZATION FACTOR   1.00000000
 TOTAL ATOMIC CHARGES:
   4.4983962   4.5160572   4.4982348   4.5159554   4.4983901   4.5160410
   4.5158596   4.4981060   4.5157066   4.4980690   4.5157707   4.4981052
   0.8687971   0.8757614   0.8758498   0.8688749   0.8687245   0.8757148
   0.8758210   0.8688177   0.8687426   0.8757262   0.8758790   0.8688792
   0.8687512   0.8757543   0.8758279   0.8688254   0.8687451   0.8757327
   0.8758836   0.8688840   0.8687723   0.8757407   0.8758327   0.8688509
   5.9188770   5.9233341   6.1640394   6.1712983   6.1713377   6.1640261
   6.1640029   6.1712082   6.1712706   6.1640632   5.9240791   5.9196911
   5.9188577   5.9233429   6.1639090   6.1711827   6.1713426   6.1641107
   6.1639725   6.1712061   6.1713304   6.1640916   5.9241503   5.9196116
   5.9190149   5.9235194   6.1638865   6.1711145   6.1713523   6.1641935
   6.1639092   6.1711941   6.1713572   6.1640624   5.9239932   5.9194338
   8.4960802   8.4866746   8.4963000   8.4869003   8.4962652   8.4868596
   8.4867838   8.4961906   8.4868935   8.4962966   8.4870514   8.4964566
 TTTTTTTTTTTTTTTTTTTTTTTTTTTTTT MOQGAD      TELAPSE      142.26 TCPU     3556.38
 TTTTTTTTTTTTTTTTTTTTTTTTTTTTTT SHELLXN     TELAPSE      156.21 TCPU     4001.10
 TTTTTTTTTTTTTTTTTTTTTTTTTTTTTT MONMO3      TELAPSE      156.75 TCPU     4018.32
 NUMERICALLY INTEGRATED DENSITY    395.9999711226
 TTTTTTTTTTTTTTTTTTTTTTTTTTTTTT NUMDFT      TELAPSE      158.17 TCPU     4063.73
 CYC   6 ETOT(AU) -2.578217230708E+03 DETOT -3.19E-04 tst  7.91E-06 PX  3.98E-03
 TTTTTTTTTTTTTTTTTTTTTTTTTTTTTT DIIS        TELAPSE      158.42 TCPU     4070.39
 DIIS TEST: 0.47532E-03 AT SCF   CYCLE   6 - DIIS ACTIVE - HISTORY:     6 CYCLES
 TTTTTTTTTTTTTTTTTTTTTTTTTTTTTT FDIK        TELAPSE      160.41 TCPU     4133.67
 INSULATING STATE
 TOP OF VALENCE BANDS -    BAND    198; K    2; EIG -2.4347660E-01 AU
 TOP OF VALENCE BANDS -    BAND    198; K    1; EIG -2.4354422E-01 AU
 BOTTOM OF VIRTUAL BANDS - BAND    199; K   13; EIG -8.2972674E-02 AU
 INDIRECT ENERGY BAND GAP:   4.3675 eV
 BOTTOM OF VIRTUAL BANDS - BAND    199; K    1; EIG -8.2761917E-02 AU
 TTTTTTTTTTTTTTTTTTTTTTTTTTTTTT PDIG        TELAPSE      161.97 TCPU     4140.40
 CHARGE NORMALIZATION FACTOR   1.00000000
 TOTAL ATOMIC CHARGES:
   4.4986929   4.5158563   4.4985315   4.5157532   4.4986873   4.5158399
   4.5156587   4.4984033   4.5155049   4.4983637   4.5155699   4.4984011
   0.8688116   0.8759280   0.8760144   0.8688837   0.8687397   0.8758822
   0.8759847   0.8688261   0.8687577   0.8758941   0.8760423   0.8688882
   0.8687652   0.8759222   0.8759925   0.8688349   0.8687598   0.8759008
   0.8760466   0.8688936   0.8687855   0.8759080   0.8759975   0.8688614
   5.9249904   5.9207146   6.1650209   6.1691691   6.1692199   6.1650261
   6.1649838   6.1690754   6.1691585   6.1650691   5.9215198   5.9258662
   5.9249736   5.9207226   6.1648861   6.1690530   6.1692279   6.1651111
   6.1649643   6.1690734   6.1692087   6.1650891   5.9215898   5.9257910
   5.9251326   5.9209014   6.1648654   6.1689853   6.1692380   6.1651948
   6.1649036   6.1690655   6.1692322   6.1650558   5.9214302   5.9256096
   8.4954148   8.4856081   8.4956298   8.4858382   8.4955935   8.4857949
   8.4857102   8.4955082   8.4858239   8.4956191   8.4859807   8.4957766
 TTTTTTTTTTTTTTTTTTTTTTTTTTTTTT MOQGAD      TELAPSE      162.06 TCPU     4140.49
 TTTTTTTTTTTTTTTTTTTTTTTTTTTTTT SHELLXN     TELAPSE      176.01 TCPU     4585.19
 TTTTTTTTTTTTTTTTTTTTTTTTTTTTTT MONMO3      TELAPSE      176.55 TCPU     4602.44
 NUMERICALLY INTEGRATED DENSITY    395.9999711371
 TTTTTTTTTTTTTTTTTTTTTTTTTTTTTT NUMDFT      TELAPSE      177.97 TCPU     4647.81
 CYC   7 ETOT(AU) -2.578217355387E+03 DETOT -1.25E-04 tst  1.03E-06 PX  1.38E-03
 TTTTTTTTTTTTTTTTTTTTTTTTTTTTTT DIIS        TELAPSE      178.24 TCPU     4654.46
 DIIS TEST: 0.18996E-05 AT SCF   CYCLE   7 - DIIS ACTIVE - HISTORY:     7 CYCLES
 TTTTTTTTTTTTTTTTTTTTTTTTTTTTTT FDIK        TELAPSE      180.23 TCPU     4717.72
 INSULATING STATE
 TOP OF VALENCE BANDS -    BAND    198; K    2; EIG -2.4346222E-01 AU
 TOP OF VALENCE BANDS -    BAND    198; K    1; EIG -2.4352967E-01 AU
 BOTTOM OF VIRTUAL BANDS - BAND    199; K   13; EIG -8.3015141E-02 AU
 INDIRECT ENERGY BAND GAP:   4.3660 eV
 BOTTOM OF VIRTUAL BANDS - BAND    199; K    1; EIG -8.2804132E-02 AU
 TTTTTTTTTTTTTTTTTTTTTTTTTTTTTT PDIG        TELAPSE      181.80 TCPU     4724.46
 CHARGE NORMALIZATION FACTOR   1.00000000
 TOTAL ATOMIC CHARGES:
   4.4989063   4.5158645   4.4987445   4.5157617   4.4989005   4.5158477
   4.5156803   4.4986442   4.5155276   4.4986064   4.5155915   4.4986418
   0.8687901   0.8758696   0.8759743   0.8688662   0.8687170   0.8758226
   0.8759456   0.8688099   0.8687319   0.8758328   0.8760054   0.8688749
   0.8687396   0.8758606   0.8759554   0.8688214   0.8687352   0.8758404
   0.8760083   0.8688792   0.8687611   0.8758473   0.8759594   0.8688467
   5.9249084   5.9209871   6.1649425   6.1691901   6.1691821   6.1648666
   6.1649083   6.1691026   6.1691150   6.1649049   5.9215678   5.9256197
   5.9249360   5.9210329   6.1648236   6.1690935   6.1691690   6.1649358
   6.1649078   6.1691157   6.1691498   6.1649073   5.9215992   5.9255026
   5.9250770   5.9211968   6.1647952   6.1690207   6.1691859   6.1650255
   6.1648437   6.1691025   6.1691793   6.1648782   5.9214555   5.9253369
   8.4954295   8.4857507   8.4956350   8.4859762   8.4955970   8.4859343
   8.4858624   8.4955249   8.4859743   8.4956342   8.4861259   8.4957783
 TTTTTTTTTTTTTTTTTTTTTTTTTTTTTT MOQGAD      TELAPSE      181.89 TCPU     4724.55
 TTTTTTTTTTTTTTTTTTTTTTTTTTTTTT SHELLXN     TELAPSE      195.83 TCPU     5169.09
 TTTTTTTTTTTTTTTTTTTTTTTTTTTTTT MONMO3      TELAPSE      196.37 TCPU     5186.33
 NUMERICALLY INTEGRATED DENSITY    395.9999711380
 TTTTTTTTTTTTTTTTTTTTTTTTTTTTTT NUMDFT      TELAPSE      197.79 TCPU     5231.73
 CYC   8 ETOT(AU) -2.578217355115E+03 DETOT  2.72E-07 tst  2.62E-09 PX  9.80E-05
 TTTTTTTTTTTTTTTTTTTTTTTTTTTTTT DIIS        TELAPSE      198.09 TCPU     5238.39
 DIIS TEST: 0.17257E-06 AT SCF   CYCLE   8 - DIIS ACTIVE - HISTORY:     8 CYCLES
 TTTTTTTTTTTTTTTTTTTTTTTTTTTTTT FDIK        TELAPSE      200.08 TCPU     5301.67
 INSULATING STATE
 TOP OF VALENCE BANDS -    BAND    198; K    2; EIG -2.4347328E-01 AU
 TOP OF VALENCE BANDS -    BAND    198; K    1; EIG -2.4354079E-01 AU
 BOTTOM OF VIRTUAL BANDS - BAND    199; K   13; EIG -8.3007759E-02 AU
 INDIRECT ENERGY BAND GAP:   4.3665 eV
 BOTTOM OF VIRTUAL BANDS - BAND    199; K    1; EIG -8.2796855E-02 AU
 TTTTTTTTTTTTTTTTTTTTTTTTTTTTTT PDIG        TELAPSE      201.64 TCPU     5308.39
 CHARGE NORMALIZATION FACTOR   1.00000000
 TOTAL ATOMIC CHARGES:
   4.4988519   4.5159133   4.4986911   4.5158109   4.4988466   4.5158971
   4.5157174   4.4985632   4.5155641   4.4985247   4.5156288   4.4985614
   0.8687724   0.8758672   0.8759544   0.8688454   0.8687002   0.8758212
   0.8759249   0.8687881   0.8687185   0.8758328   0.8759829   0.8688500
   0.8687260   0.8758612   0.8759327   0.8687966   0.8687205   0.8758395
   0.8759872   0.8688554   0.8687465   0.8758471   0.8759375   0.8688230
   5.9247794   5.9207964   6.1649903   6.1692089   6.1692567   6.1649901
   6.1649544   6.1691161   6.1691937   6.1650318   5.9215805   5.9256378
   5.9247637   5.9208054   6.1648566   6.1690942   6.1692626   6.1650740
   6.1649329   6.1691131   6.1692455   6.1650540   5.9216500   5.9255617
   5.9249210   5.9209827   6.1648365   6.1690270   6.1692722   6.1651570
   6.1648719   6.1691050   6.1692696   6.1650211   5.9214916   5.9253815
   8.4954413   8.4856979   8.4956570   8.4859278   8.4956214   8.4858851
   8.4858022   8.4955383   8.4859149   8.4956476   8.4860719   8.4958057
 TTTTTTTTTTTTTTTTTTTTTTTTTTTTTT MOQGAD      TELAPSE      201.73 TCPU     5308.48
 TTTTTTTTTTTTTTTTTTTTTTTTTTTTTT SHELLXN     TELAPSE      215.69 TCPU     5753.63
 +++ ENERGIES IN A.U. +++
 ::: EXT EL-POLE                                  -2.6985818347375E+03
 ::: EXT EL-SPHEROPOLE                             3.0103565912478E+01
 ::: BIELET ZONE E-E                               4.0810204786373E+03
 ::: TOTAL E-E                                     1.4125422098122E+03
 ::: TOTAL E-N + N-E                              -6.4816779778664E+03
 ::: TOTAL N-N                                     1.9846241041777E+02
 ::: KINETIC ENERGY                                2.5598944328211E+03
 ::: PSEUDO TOTAL   ENERGY                        -2.3107789248154E+03
 ::: VIRIAL COEFFICIENT                            1.0511460099485E+00
 TTTTTTTTTTTTTTTTTTTTTTTTTTTTTT MONMO3      TELAPSE      216.23 TCPU     5770.91
 NUMERICALLY INTEGRATED DENSITY    395.9999711363
 EXCHANGE ENERGY: -0.252057417408E+03  CORRELATION ENERGY: -0.153810131039E+02
 TTTTTTTTTTTTTTTTTTTTTTTTTTTTTT NUMDFT      TELAPSE      217.65 TCPU     5816.36
 CYC   9 ETOT(AU) -2.578217355328E+03 DETOT -2.13E-07 tst  4.00E-10 PX  9.80E-05

 == SCF ENDED - CONVERGENCE ON ENERGY      E(AU) -2.5782173553277E+03 CYCLES   9


 ENERGY EXPRESSION=HARTREE+FOCK EXCH*0.00000+(HSESOL     EXCH)*1.00000+PBESOL     CORR


 TOTAL ENERGY(DFT)(AU)(  9) -2.5782173553277E+03 DE-2.1E-07 tester 4.0E-10
 TTTTTTTTTTTTTTTTTTTTTTTTTTTTTT EDFT        TELAPSE      217.65 TCPU     5816.37
 
 INFORMATION **** DFTD3 ENERGY **** CALCULATE DFTD3 ENERGY

           DFT-D V3(BJ)
 DF                                         hsesol3c  
 parameters
 s6       :    1.0000
 s8       :    0.0000
 a1       :    0.5196
 a2       :    4.9385
 k1 k3    :   16.0000   -4.0000
 Cutoff   :   50.2022
 CN-Cutoff:   21.1671
 ABC-Cutoff:   21.1671
 
 Edisp /kcal,au:   -48.0568 -0.07658336

 E6    /kcal :   -50.8636
 E8    /kcal :     0.0000
 E6(ABC) "   :   2.806836
 
 INFORMATION **** DFTD3 ENERGY **** NORMAL TERMINATION OF DFTD3 MODULE

 GCP ENERGY CALCULATION
  level        hsesol3c            basis:hsesol3c
  Nbf            948
  Atoms           84

  Parameters: 
  sigma     1.0000
  eta       1.4281
  alpha     0.2936
  beta      1.9467

  dmp_scal      4.0000
  dmp_exp       6.0000
 cutoffs: 
   distance [bohr] 60.0
   noise    [a.u.] 2.2E-16
 SR-damping   T
 ** gCP correction **
  Egcp:        0.1660032648 / (a.u.) ||     104.1686 / (kcal/mol)
 INFORMATION **** GCP **** NORMAL TERMINATION OF GCP MODULE

 *******************************************************************************

 DFT-D3-GCP DISPERSION AND COUNTERPOISE CORRECTION

 D3 DISPERSION ENERGY (AU)      -7.6583360878776E-02
 GCP ENERGY (AU)                 1.6600326476139E-01
 TOTAL ENERGY + DISP + GCP (AU) -2.5781279354238E+03

 *******************************************************************************

 EIGENVECTORS IN FORTRAN UNIT 10
 TTTTTTTTTTTTTTTTTTTTTTTTTTTTTT END         TELAPSE      220.73 TCPU     5825.23
 EEEEEEEEEE TERMINATION  DATE 19 02 2026 TIME 20:23:58.0
