 Default number of threads is:           32

         
 *******************************************************************************
 *                                                                             *
 *                               CRYSTAL23                                     *
 *                      public : 1.0.1 - October 2022                          *
 *                       HTTP://WWW.CRYSTAL.UNITO.IT                           *
 *                                                                             *
 *                              MAIN AUTHORS                                   *
 *                                                                             *
 *  R. DOVESI(1,11), V.R. SAUNDERS(2), C. ROETTI(1,11), R. ORLANDO(1,11),      *
 *  C.M. ZICOVICH-WILSON(1,3), F. PASCALE(4), B. CIVALLERI(1,11),              *
 *  K. DOLL(5), N.M. HARRISON(6), I.J. BUSH(7), Ph. D'ARCO(8),                 *
 *  M. LLUNELL(9), M. CAUSA'(10), Y. NOEL(8), L. MASCHIO(1,11), A. ERBA(1,11)  *
 *  M. RE'RAT(14), S. CASASSA(1,11), B.G. SEARLE(2), J.K. DESMARAIS(1)         *
 *                                                                             *
 *        CONTRIBUTIONS TO THE CODE HAVE ALSO BEEN GIVEN BY                    *
 *                                                                             *
 *  M. FERRABONE(1,11), M. DE LA PIERRE(1,11), M. FERRERO(1,11),               *
 *  J. BAIMA(1,11), E. ALBANESE(1,11), M.F. PEINTINGER(12), R. BAST(13),       *
 *  B. KIRTMAN(15), V. LACIVITA(1,11), R. DEMICHELIS(1,16)                     *
 *  G. BRANDEBURG(17), S. SALUSTRO(1,11), G. SANSONE(1,11)                     *
 *  M.T. RUGGIERO(18), L.E. DAGA(1), L. DONA'(1), A. COSSARD(1)                *
 *                                                                             *
 * (1) THEORETICAL CHEMISTRY GROUP - UNIVERSITA' DI TORINO - TORINO (ITALY)    *
 * (2) SCIENTIFIC COMPUTING DEPARTMENT - STFC DARESBURY (UK)                   *
 * (3) UNIVERSIDAD AUTONOMA DEL ESTADO DE MORELOS - CUERNAVACA (MEXICO)        *
 * (4) UNIVERSITE' DE LORRAINE - NANCY (FRANCE)                                *
 * (5) UNIVERSITAET STUTTGART- STUTTGART (GERMANY)                             *
 * (6) IMPERIAL COLLEGE - LONDON (UK)                                          *
 * (7) SCIENTIFIC COMPUTING DEPARTMENT - STFC RAL (UK)                         *
 * (8) UPMC - SORBONNE UNIVERSITES - PARIS (FRANCE)                            *
 * (9) UNIVERSIDAD DE BARCELONA - BARCELONA (SPAIN)                            *
 *(10) UNIVERSITA' DI NAPOLI "FEDERICO II" - NAPOLI (ITALY)                    *
 *(11) NIS - NANOSTRUCTURED INTERFACES AND SURFACES - TORINO (ITALY)           *
 *(12) MPI FUER CHEMISCHE ENERGIEKONVERSION - MUELHEIM AN DER RUHR (GERMANY)   *
 *(13) UNIVERSITY OF TROMSO - TROMSO (NORWAY)                                  *
 *(14) UNIVERSITE' DE PAU ET DES PAYS DE L'ADOUR - PAU (FRANCE)                *
 *(15) UNIVERSITY OF CALIFORNIA SANTA BARBARA - SANTA BARBARA (USA)            *
 *(16) CURTIN UNIVERSITY - PERTH (AUSTRALIA)                                   *
 *(17) UNIVERSITY COLLEGE LONDON - LONDON (UK)                                 *
 *(18) UNIVERSITY OF VERMONT - BURLINGTON (USA)                                *
 *                                                                             *
 *******************************************************************************
 EEEEEEEEEE STARTING  DATE 19 02 2026 TIME 18:19:13.7
 cof-1_z34_L080_incl                                                             

 CRYSTAL CALCULATION
 (INPUT ACCORDING TO THE INTERNATIONAL TABLES FOR X-RAY CRYSTALLOGRAPHY)
 CRYSTAL FAMILY                       :  TRICLINIC   
 CRYSTAL CLASS  (GROTH - 1921)        :  TRICLINIC PEDIAL                     

 SPACE GROUP (NONCENTROSYMMETRIC)     :  P 1             

 LATTICE PARAMETERS  (ANGSTROMS AND DEGREES) - CONVENTIONAL CELL
        A           B           C        ALPHA        BETA       GAMMA
    15.02361    15.02392     8.69253    37.14972    89.99998   119.99596


 NUMBER OF IRREDUCIBLE ATOMS IN THE CONVENTIONAL CELL:   42

 INPUT COORDINATES

 ATOM AT. N.              COORDINATES
   1   5     4.595577300000E-01 -8.095874000000E-02  5.013979200000E-01
   2   5     6.186133800000E-01  7.810091000000E-02  5.013979400000E-01
   3   5     4.604614200000E-01  7.989983000000E-02  4.984440900000E-01
   4   5     7.313243000000E-02  3.053562500000E-01  5.013979300000E-01
   5   5     2.322404100000E-01  3.053354900000E-01  5.013979200000E-01
   6   5     2.331286500000E-01  4.662908000000E-01  4.984441000000E-01
   7   1     7.508032100000E-01  4.418270000000E-03  4.952740400000E-01
   8   1    -5.531803000000E-02  3.871174200000E-01  4.943375900000E-01
   9   1     7.510631600000E-01  2.902250200000E-01  4.941934600000E-01
  10   1    -5.518313000000E-02  1.018154300000E-01  4.942294100000E-01
  11   1     5.358908700000E-01 -2.133104800000E-01  5.047120600000E-01
  12   1     1.535003200000E-01  5.925469100000E-01  5.056485600000E-01
  13   1     2.503962600000E-01 -2.139290900000E-01  5.057927700000E-01
  14   1     4.388496100000E-01  5.923905000000E-01  5.057565800000E-01
  15   1     5.388323100000E-01  2.895424000000E-01  4.952740900000E-01
  16   1     1.570092800000E-01  1.016733500000E-01  4.943375300000E-01
  17   1     2.539323400000E-01  4.975910000000E-03  4.941933500000E-01
  18   1     4.423715400000E-01  3.870883500000E-01  4.942295200000E-01
  19   6     7.387086900000E-01  1.395493000000E-01  4.983360200000E-01
  20   6     7.942044000000E-01  8.818525000000E-02  4.954181500000E-01
  21   6    -9.881911000000E-02  3.027399000000E-01  4.951660800000E-01
  22   6     7.940123500000E-01  2.487816800000E-01  4.959225500000E-01
  23   6    -9.841546000000E-02  1.425355000000E-01  4.939772600000E-01
  24   6    -4.441493000000E-02  2.491029900000E-01  4.959585400000E-01
  25   6     3.998390900000E-01 -2.002635500000E-01  5.016501100000E-01
  26   6     4.520806200000E-01 -2.566700400000E-01  5.045679200000E-01
  27   6     2.376239400000E-01  6.362821400000E-01  5.048200700000E-01
  28   6     2.913453600000E-01 -2.563130700000E-01  5.040636400000E-01
  29   6     3.981767200000E-01  6.355116800000E-01  5.060087900000E-01
  30   6     2.909967800000E-01  5.820983000000E-01  5.040275800000E-01
  31   6     4.008632500000E-01  1.394801600000E-01  4.983360200000E-01
  32   6     4.549254900000E-01  2.490253600000E-01  4.954182100000E-01
  33   6     2.406161600000E-01  1.417266600000E-01  4.951660200000E-01
  34   6     2.938475300000E-01  8.777953000000E-02  4.959224700000E-01
  35   6     4.019011400000E-01  3.033834800000E-01  4.939773300000E-01
  36   6     2.935091600000E-01  2.490255900000E-01  4.959585400000E-01
  37   8     4.072782400000E-01 -2.657746000000E-02  4.992365700000E-01
  38   8     5.643076600000E-01 -3.040134000000E-02  5.054684600000E-01
  39   8     5.671953700000E-01  1.343243700000E-01  4.960666300000E-01
  40   8     1.268660500000E-01  4.127030000000E-01  4.992366100000E-01
  41   8     1.249699300000E-01  2.499159400000E-01  5.054684600000E-01
  42   8     2.867798000000E-01  4.146363400000E-01  4.960666100000E-01

 *******************************************************************************

 << INFORMATION >>: FROM NOW ON, ALL COORDINATES REFER TO THE PRIMITIVE CELL

 *******************************************************************************

 LATTICE PARAMETERS  (ANGSTROMS AND DEGREES) - PRIMITIVE CELL
       A          B          C        ALPHA      BETA     GAMMA        VOLUME
   15.02361   15.02392    8.69253    37.14972  89.99998 119.99596    664.646572

 COORDINATES OF THE EQUIVALENT ATOMS (FRACTIONAL UNITS)

 N. ATOM EQUIV AT. N.          X                  Y                  Z

   1   1   1    5 B     4.59557730000E-01 -8.09587400000E-02 -4.98602080000E-01

   2   2   1    5 B    -3.81386620000E-01  7.81009100000E-02 -4.98602060000E-01

   3   3   1    5 B     4.60461420000E-01  7.98998300000E-02  4.98444090000E-01

   4   4   1    5 B     7.31324300000E-02  3.05356250000E-01 -4.98602070000E-01

   5   5   1    5 B     2.32240410000E-01  3.05335490000E-01 -4.98602080000E-01

   6   6   1    5 B     2.33128650000E-01  4.66290800000E-01  4.98444100000E-01

   7   7   1    1 H    -2.49196790000E-01  4.41827000000E-03  4.95274040000E-01

   8   8   1    1 H    -5.53180300000E-02  3.87117420000E-01  4.94337590000E-01

   9   9   1    1 H    -2.48936840000E-01  2.90225020000E-01  4.94193460000E-01

  10  10   1    1 H    -5.51831300000E-02  1.01815430000E-01  4.94229410000E-01

  11  11   1    1 H    -4.64109130000E-01 -2.13310480000E-01 -4.95287940000E-01

  12  12   1    1 H     1.53500320000E-01 -4.07453090000E-01 -4.94351440000E-01

  13  13   1    1 H     2.50396260000E-01 -2.13929090000E-01 -4.94207230000E-01

  14  14   1    1 H     4.38849610000E-01 -4.07609500000E-01 -4.94243420000E-01

  15  15   1    1 H    -4.61167690000E-01  2.89542400000E-01  4.95274090000E-01

  16  16   1    1 H     1.57009280000E-01  1.01673350000E-01  4.94337530000E-01

  17  17   1    1 H     2.53932340000E-01  4.97591000000E-03  4.94193350000E-01

  18  18   1    1 H     4.42371540000E-01  3.87088350000E-01  4.94229520000E-01

  19  19   1    6 C    -2.61291310000E-01  1.39549300000E-01  4.98336020000E-01

  20  20   1    6 C    -2.05795600000E-01  8.81852500000E-02  4.95418150000E-01

  21  21   1    6 C    -9.88191100000E-02  3.02739900000E-01  4.95166080000E-01

  22  22   1    6 C    -2.05987650000E-01  2.48781680000E-01  4.95922550000E-01

  23  23   1    6 C    -9.84154600000E-02  1.42535500000E-01  4.93977260000E-01

  24  24   1    6 C    -4.44149300000E-02  2.49102990000E-01  4.95958540000E-01

  25  25   1    6 C     3.99839090000E-01 -2.00263550000E-01 -4.98349890000E-01

  26  26   1    6 C     4.52080620000E-01 -2.56670040000E-01 -4.95432080000E-01

  27  27   1    6 C     2.37623940000E-01 -3.63717860000E-01 -4.95179930000E-01

  28  28   1    6 C     2.91345360000E-01 -2.56313070000E-01 -4.95936360000E-01

  29  29   1    6 C     3.98176720000E-01 -3.64488320000E-01 -4.93991210000E-01

  30  30   1    6 C     2.90996780000E-01 -4.17901700000E-01 -4.95972420000E-01

  31  31   1    6 C     4.00863250000E-01  1.39480160000E-01  4.98336020000E-01

  32  32   1    6 C     4.54925490000E-01  2.49025360000E-01  4.95418210000E-01

  33  33   1    6 C     2.40616160000E-01  1.41726660000E-01  4.95166020000E-01

  34  34   1    6 C     2.93847530000E-01  8.77795300000E-02  4.95922470000E-01

  35  35   1    6 C     4.01901140000E-01  3.03383480000E-01  4.93977330000E-01

  36  36   1    6 C     2.93509160000E-01  2.49025590000E-01  4.95958540000E-01

  37  37   1    8 O     4.07278240000E-01 -2.65774600000E-02  4.99236570000E-01

  38  38   1    8 O    -4.35692340000E-01 -3.04013400000E-02 -4.94531540000E-01

  39  39   1    8 O    -4.32804630000E-01  1.34324370000E-01  4.96066630000E-01

  40  40   1    8 O     1.26866050000E-01  4.12703000000E-01  4.99236610000E-01

  41  41   1    8 O     1.24969930000E-01  2.49915940000E-01 -4.94531540000E-01

  42  42   1    8 O     2.86779800000E-01  4.14636340000E-01  4.96066610000E-01

 NUMBER OF SYMMETRY OPERATORS         :    1
 *******************************************************************************
 * GEOMETRY EDITING - INPUT COORDINATES ARE GIVEN IN ANGSTROM         
 *******************************************************************************

 GCALCO - MAX INDICES DIRECT LATTICE VECTOR     9    15    23
 NO.OF VECTORS CREATED 6999 STARS 3500 RMAX   212.04490 BOHR

 GEOMETRY FOR WAVE FUNCTION - DIMENSIONALITY OF THE SYSTEM    3
 (NON PERIODIC DIRECTION: LATTICE PARAMETER FORMALLY SET TO 500)
 *******************************************************************************
 LATTICE PARAMETERS (ANGSTROMS AND DEGREES) - BOHR = 0.5291772083 ANGSTROM
 PRIMITIVE CELL - CENTRING CODE 1/0 VOLUME=   664.646572 - DENSITY  0.975 g/cm^3
         A              B              C           ALPHA      BETA       GAMMA 
    15.02361100    15.02391600     8.69252600    37.149721  89.999978 119.995964
 *******************************************************************************
 ATOMS IN THE ASYMMETRIC UNIT   42 - ATOMS IN THE UNIT CELL:   42
     ATOM                 X/A                 Y/B                 Z/C    
 *******************************************************************************
      1 T   5 B     4.595577300000E-01 -8.095874000000E-02 -4.986020800000E-01
      2 T   5 B    -3.813866200000E-01  7.810091000000E-02 -4.986020600000E-01
      3 T   5 B     4.604614200000E-01  7.989983000000E-02  4.984440900000E-01
      4 T   5 B     7.313243000000E-02  3.053562500000E-01 -4.986020700000E-01
      5 T   5 B     2.322404100000E-01  3.053354900000E-01 -4.986020800000E-01
      6 T   5 B     2.331286500000E-01  4.662908000000E-01  4.984441000000E-01
      7 T   1 H    -2.491967900000E-01  4.418270000000E-03  4.952740400000E-01
      8 T   1 H    -5.531803000000E-02  3.871174200000E-01  4.943375900000E-01
      9 T   1 H    -2.489368400000E-01  2.902250200000E-01  4.941934600000E-01
     10 T   1 H    -5.518313000000E-02  1.018154300000E-01  4.942294100000E-01
     11 T   1 H    -4.641091300000E-01 -2.133104800000E-01 -4.952879400000E-01
     12 T   1 H     1.535003200000E-01 -4.074530900000E-01 -4.943514400000E-01
     13 T   1 H     2.503962600000E-01 -2.139290900000E-01 -4.942072300000E-01
     14 T   1 H     4.388496100000E-01 -4.076095000000E-01 -4.942434200000E-01
     15 T   1 H    -4.611676900000E-01  2.895424000000E-01  4.952740900000E-01
     16 T   1 H     1.570092800000E-01  1.016733500000E-01  4.943375300000E-01
     17 T   1 H     2.539323400000E-01  4.975910000000E-03  4.941933500000E-01
     18 T   1 H     4.423715400000E-01  3.870883500000E-01  4.942295200000E-01
     19 T   6 C    -2.612913100000E-01  1.395493000000E-01  4.983360200000E-01
     20 T   6 C    -2.057956000000E-01  8.818525000000E-02  4.954181500000E-01
     21 T   6 C    -9.881911000000E-02  3.027399000000E-01  4.951660800000E-01
     22 T   6 C    -2.059876500000E-01  2.487816800000E-01  4.959225500000E-01
     23 T   6 C    -9.841546000000E-02  1.425355000000E-01  4.939772600000E-01
     24 T   6 C    -4.441493000000E-02  2.491029900000E-01  4.959585400000E-01
     25 T   6 C     3.998390900000E-01 -2.002635500000E-01 -4.983498900000E-01
     26 T   6 C     4.520806200000E-01 -2.566700400000E-01 -4.954320800000E-01
     27 T   6 C     2.376239400000E-01 -3.637178600000E-01 -4.951799300000E-01
     28 T   6 C     2.913453600000E-01 -2.563130700000E-01 -4.959363600000E-01
     29 T   6 C     3.981767200000E-01 -3.644883200000E-01 -4.939912100000E-01
     30 T   6 C     2.909967800000E-01 -4.179017000000E-01 -4.959724200000E-01
     31 T   6 C     4.008632500000E-01  1.394801600000E-01  4.983360200000E-01
     32 T   6 C     4.549254900000E-01  2.490253600000E-01  4.954182100000E-01
     33 T   6 C     2.406161600000E-01  1.417266600000E-01  4.951660200000E-01
     34 T   6 C     2.938475300000E-01  8.777953000000E-02  4.959224700000E-01
     35 T   6 C     4.019011400000E-01  3.033834800000E-01  4.939773300000E-01
     36 T   6 C     2.935091600000E-01  2.490255900000E-01  4.959585400000E-01
     37 T   8 O     4.072782400000E-01 -2.657746000000E-02  4.992365700000E-01
     38 T   8 O    -4.356923400000E-01 -3.040134000000E-02 -4.945315400000E-01
     39 T   8 O    -4.328046300000E-01  1.343243700000E-01  4.960666300000E-01
     40 T   8 O     1.268660500000E-01  4.127030000000E-01  4.992366100000E-01
     41 T   8 O     1.249699300000E-01  2.499159400000E-01 -4.945315400000E-01
     42 T   8 O     2.867798000000E-01  4.146363400000E-01  4.960666100000E-01

 T = ATOM BELONGING TO THE ASYMMETRIC UNIT

 ****    1 SYMMOPS - TRANSLATORS IN FRACTIONAL UNITS
 **** MATRICES AND TRANSLATORS IN THE CRYSTALLOGRAPHIC REFERENCE FRAME
   V INV                    ROTATION MATRICES                   TRANSLATORS
   1   1  1.00 -0.00  0.00  0.00  1.00  0.00 -0.00 -0.00  1.00  0.00  0.00  0.00

 DIRECT LATTICE VECTORS CARTESIAN COMPONENTS (ANGSTROM)
          X                    Y                    Z
   0.130113578931E+02  -0.751088897922E+01   0.000000000000E+00
   0.000000000000E+00   0.150239160000E+02   0.000000000000E+00
   0.399950498826E+01   0.692846623045E+01   0.340004761776E+01


 CARTESIAN COORDINATES - PRIMITIVE CELL
 *******************************************************************************
 *      ATOM          X(ANGSTROM)         Y(ANGSTROM)         Z(ANGSTROM)
 *******************************************************************************
    1     5 B    -1.419639682718E-02 -2.710230295924E-02 -5.095318432080E+00
    2     5 B     2.055333670226E+00  1.167947327532E+00 -5.095318364079E+00
    3     5 B    -1.027094948907E+00  6.108259845013E-01  5.094781258557E+00
    4     5 B    -1.042609245803E+00  5.838094831370E-01 -1.695270780316E+00
    5     5 B     1.027601585623E+00 -6.115448561312E-01 -1.695270814316E+00
    6     5 B     1.027344976334E+00  1.779497286915E+00 -1.705313942970E+00
    7     1 H    -5.261042615216E+00 -1.558907628479E+00 -1.716092297922E+00
    8     1 H    -2.742162017440E+00  2.728042250403E+00 -1.719276272513E+00
    9     1 H    -1.262477109571E+00 -5.369860011425E+00  1.680281296388E+00
   10     1 H    -2.740839451710E+00 -1.560073622390E+00 -1.719644089665E+00
   11     1 H    -4.020091590260E+00  3.777993880042E+00  1.716045037260E+00
   12     1 H     2.008654998486E-02  4.324353882091E+00 -1.680818435910E+00
   13     1 H     5.280916060584E+00 -1.590383061237E+00  1.719719502721E+00
   14     1 H     3.733300313233E+00  2.179525566823E+00 -1.680451162767E+00
   15     1 H    -4.019566669793E+00 -3.778586176188E+00  1.683955489845E+00
   16     1 H     2.050436346991E-02 -3.155212748349E+00 -1.719276476516E+00
   17     1 H     1.281028336591E+00 -5.336964253771E+00 -1.719766695382E+00
   18     1 H     3.733022870968E+00 -1.011234360565E+00 -1.719643715659E+00
   19     6 C    -5.406162339196E+00  5.833450372395E-01 -1.705681420117E+00
   20     6 C    -4.695757830477E+00 -6.253826157729E-01 -1.715602317059E+00
   21     6 C    -3.304856588167E+00  1.792833424977E+00 -1.716459367062E+00
   22     6 C    -4.696239311444E+00  1.792341843042E+00 -1.713887333041E+00
   23     6 C    -3.304359245073E+00 -6.253324930134E-01 -1.720501411671E+00
   24     6 C    -2.593814883585E+00  5.838637710016E-01 -1.713764965327E+00
   25     6 C    -7.902083595908E-01 -1.369240381867E+00 -5.094460974071E+00
   26     6 C    -9.880532023015E-02 -2.588851133364E+00 -5.084540281132E+00
   27     6 C     1.111335527177E+00  4.343844968514E+00 -1.683635341361E+00
   28     6 C    -2.192206184499E+00 -1.379717240115E+00 -5.086254857145E+00
   29     6 C     3.205099500051E+00  3.134611542686E+00 -1.679593636757E+00
   30     6 C     1.802619082477E+00  3.123423291849E+00 -1.686329845098E+00
   31     6 C     3.209367621483E+00 -4.391063103555E+00 -1.705681420117E+00
   32     6 C     3.901120978974E+00 -3.171536651211E+00 -1.715602113057E+00
   33     6 C     1.111656951359E+00 -3.175677011979E+00 -1.716459571065E+00
   34     6 C     1.807294783116E+00 -4.380748033541E+00 -1.713887605045E+00
   35     6 C     3.205439377329E+00 -1.966587904790E+00 -1.720501173668E+00
   36     6 C     1.803036392090E+00 -1.955409403490E+00 -1.713764965327E+00
   37     8 O    -1.715910810065E+00 -5.839362449063E-01  5.097475728293E+00
   38     8 O     1.365022576710E+00 -2.609466806184E-02 -5.081478402250E+00
   39     8 O     3.521500107534E-01  6.103567017125E-01  5.086697781348E+00
   40     8 O    -3.521060952149E-01  1.778016151105E+00 -1.702619371233E+00
   41     8 O    -3.518528759820E-01 -6.102642551320E-01 -1.681430784486E+00
   42     8 O     1.715910507243E+00  5.840048284142E-01 -1.713397522181E+00

 *******************************************************************************
 STARTING BASIS SET HANDLING 
 *******************************************************************************

 Loading internal basis set: SOLDEF2MSVP         

 Please cite in your publication:
 L. Dona', J. G. Brandenburg and B. Civalleri, J. Chem. Phys., 151, 121101 (2019
 )                                                                              
                                                                                
                    

 *******************************************************************************
 LOCAL ATOMIC FUNCTIONS BASIS SET
 *******************************************************************************
   ATOM   X(AU)   Y(AU)   Z(AU)  N. TYPE  EXPONENT  S COEF   P COEF   D/F/G COEF
 *******************************************************************************
   1 B   -0.027  -0.051  -9.629
                                  1 S  
                                         2.410E+03 1.755E-03 0.000E+00 0.000E+00
                                         3.619E+02 1.344E-02 0.000E+00 0.000E+00
                                         8.231E+01 6.637E-02 0.000E+00 0.000E+00
                                         2.311E+01 2.303E-01 0.000E+00 0.000E+00
                                         7.252E+00 5.150E-01 0.000E+00 0.000E+00
                                  2 S  
                                         2.367E+00 1.000E+00 0.000E+00 0.000E+00
                                  3 S  
                                         5.533E-01 1.000E+00 0.000E+00 0.000E+00
                                  4 S  
                                         1.716E-01 1.000E+00 0.000E+00 0.000E+00
                           5-     7 P  
                                         6.002E+00 0.000E+00-3.555E-02 0.000E+00
                                         1.240E+00 0.000E+00-1.983E-01 0.000E+00
                                         3.367E-01 0.000E+00-5.048E-01 0.000E+00
                           8-    10 P  
                                         1.256E-01 0.000E+00 1.000E+00 0.000E+00
                          11-    15 D  
                                         8.880E-01 0.000E+00 0.000E+00 1.000E+00
   2 B    3.884   2.207  -9.629
   3 B   -1.941   1.154   9.628
   4 B   -1.970   1.103  -3.204
   5 B    1.942  -1.156  -3.204
   6 B    1.941   3.363  -3.223
   7 H   -9.942  -2.946  -3.243
                                 91 S  
                                         1.874E+01 1.968E-02 0.000E+00 0.000E+00
                                         2.826E+00 1.380E-01 0.000E+00 0.000E+00
                                         6.401E-01 4.783E-01 0.000E+00 0.000E+00
                                 92 S  
                                         1.756E-01 1.000E+00 0.000E+00 0.000E+00
   8 H   -5.182   5.155  -3.249
   9 H   -2.386 -10.148   3.175
  10 H   -5.179  -2.948  -3.250
  11 H   -7.597   7.139   3.243
  12 H    0.038   8.172  -3.176
  13 H    9.979  -3.005   3.250
  14 H    7.055   4.119  -3.176
  15 H   -7.596  -7.140   3.182
  16 H    0.039  -5.962  -3.249
  17 H    2.421 -10.085  -3.250
  18 H    7.054  -1.911  -3.250
  19 C  -10.216   1.102  -3.223
                                115 S  
                                         3.624E+03 1.634E-03 0.000E+00 0.000E+00
                                         5.440E+02 1.252E-02 0.000E+00 0.000E+00
                                         1.237E+02 6.211E-02 0.000E+00 0.000E+00
                                         3.476E+01 2.182E-01 0.000E+00 0.000E+00
                                         1.093E+01 4.980E-01 0.000E+00 0.000E+00
                                116 S  
                                         3.574E+00 1.000E+00 0.000E+00 0.000E+00
                                117 S  
                                         7.742E-01 1.000E+00 0.000E+00 0.000E+00
                                118 S  
                                         2.330E-01 1.000E+00 0.000E+00 0.000E+00
                         119-   121 P  
                                         9.443E+00 0.000E+00 3.790E-02 0.000E+00
                                         2.002E+00 0.000E+00 2.082E-01 0.000E+00
                                         5.463E-01 0.000E+00 5.047E-01 0.000E+00
                         122-   124 P  
                                         1.820E-01 0.000E+00 1.000E+00 0.000E+00
                         125-   129 D  
                                         8.880E-01 0.000E+00 0.000E+00 1.000E+00
  20 C   -8.874  -1.182  -3.242
  21 C   -6.245   3.388  -3.244
  22 C   -8.875   3.387  -3.239
  23 C   -6.244  -1.182  -3.251
  24 C   -4.902   1.103  -3.239
  25 C   -1.493  -2.587  -9.627
  26 C   -0.187  -4.892  -9.608
  27 C    2.100   8.209  -3.182
  28 C   -4.143  -2.607  -9.612
  29 C    6.057   5.924  -3.174
  30 C    3.406   5.902  -3.187
  31 C    6.065  -8.298  -3.223
  32 C    7.372  -5.993  -3.242
  33 C    2.101  -6.001  -3.244
  34 C    3.415  -8.278  -3.239
  35 C    6.057  -3.716  -3.251
  36 C    3.407  -3.695  -3.239
  37 O   -3.243  -1.103   9.633
                                385 S  
                                         6.773E+03 1.727E-03 0.000E+00 0.000E+00
                                         1.017E+03 1.325E-02 0.000E+00 0.000E+00
                                         2.313E+02 6.603E-02 0.000E+00 0.000E+00
                                         6.501E+01 2.353E-01 0.000E+00 0.000E+00
                                         2.050E+01 5.498E-01 0.000E+00 0.000E+00
                                386 S  
                                         6.716E+00 1.000E+00 0.000E+00 0.000E+00
                                387 S  
                                         1.147E+00 1.000E+00 0.000E+00 0.000E+00
                                388 S  
                                         3.342E-01 1.000E+00 0.000E+00 0.000E+00
                         389-   391 P  
                                         1.769E+01 0.000E+00 4.359E-02 0.000E+00
                                         3.854E+00 0.000E+00 2.318E-01 0.000E+00
                                         1.047E+00 0.000E+00 5.146E-01 0.000E+00
                         392-   394 P  
                                         2.759E-01 0.000E+00 1.000E+00 0.000E+00
                         395-   399 D  
                                         8.000E-01 0.000E+00 0.000E+00 1.000E+00
  38 O    2.580  -0.049  -9.603
  39 O    0.665   1.153   9.612
  40 O   -0.665   3.360  -3.217
  41 O   -0.665  -1.153  -3.177
  42 O    3.243   1.104  -3.238

 *******************************************************************************
 FINISHED BASIS SET HANDLING 
 *******************************************************************************

 INFORMATION **** SET_MPP **** PCRYSTAL CALCULATION
 INFORMATION **** READM2 **** NEW DEFAULT: FOCK/KS MATRIX MIXING SET TO 30 %
 INFORMATION **** READM2 **** NEW DEFAULT: FULL DIRECT SCF MODE
 INFORMATION **** READM2 **** NEW DEFAULT: COULOMB BIPOLAR BUFFER SET TO 32 Mb
 INFORMATION **** READM2 **** NEW DEFAULT: EXCHANGE BIPOLAR BUFFER SET TO 32 Mb

 *******************************************************************************
 NEW DEFAULT: DFT INTEGRATION GRID INCREASED TO XLGRID
 NEW DEFAULT: DIIS ACCELERATOR ACTIVE
 USE KEYWORD NODIIS TO TURN IT OFF
 *******************************************************************************

 WARNING **** RDDFTP **** HSEsol-HJS ACTIVE
 RANGE SEPARATION - OMEGA:   0.110000000000000     
 WARNING **** RDDFTP **** HSEsol-3c has to be combined with sol-def2-mSVP basis set
 *******************************************************************************
 N. OF ATOMS PER CELL        42  COULOMB OVERLAP TOL         (T1) 10**   -6
 NUMBER OF SHELLS           234  COULOMB PENETRATION TOL     (T2) 10**   -6
 NUMBER OF AO               474  EXCHANGE OVERLAP TOL        (T3) 10**   -6
 N. OF ELECTRONS PER CELL   198  EXCHANGE PSEUDO OVP (F(G))  (T4) 10**   -6
 CORE ELECTRONS PER CELL     60  EXCHANGE PSEUDO OVP (P(G))  (T5) 10**  -12
 N. OF SYMMETRY OPERATORS     1  POLE ORDER IN MONO ZONE                  4
 *******************************************************************************
 TYPE OF CALCULATION :  RESTRICTED CLOSED SHELL
 KOHN-SHAM HAMILTONIAN

 (EXCHANGE)[CORRELATION] FUNCTIONAL:(HSEsol GGA)[PBEsol]

 RANGE-SEPARATED HYBRID FUNCTIONAL 
 OMEGA (SHORT-RANGE)[LONG-RANGE]:(    0.1100)[    0.0000]

 HYBRID EXCHANGE - PERCENTAGE OF FOCK EXCHANGE    25.0000

 CAPPA:IS1  2;IS2  2;IS3  8; K PTS MONK NET  20; SYMMOPS:K SPACE   2;G SPACE   1

 *******************************************************************************
 MAX NUMBER OF SCF CYCLES      50  CONVERGENCE ON DELTAP        10**-16
 WEIGHT OF F(I) IN F(I+1)      30% CONVERGENCE ON ENERGY        10**- 6
 SHRINK. FACT.(MONKH.)    2  2  8  NUMBER OF K POINTS IN THE IBZ     20
 SHRINKING FACTOR(GILAT NET)    8  NUMBER OF K POINTS(GILAT NET)   1028
 *******************************************************************************
 *** K POINTS COORDINATES (OBLIQUE COORDINATES IN UNITS OF IS =  2)
   1-R(  0  0  0)   2-R(  1  0  0)   3-R(  0  1  0)   4-R(  1  1  0)
   5-C(  0  0  1)   6-C(  1  0  1)   7-C(  0  1  1)   8-C(  1  1  1)
   9-C(  0  0  2)  10-C(  1  0  2)  11-C(  0  1  2)  12-C(  1  1  2)
  13-C(  0  0  3)  14-C(  1  0  3)  15-C(  0  1  3)  16-C(  1  1  3)
  17-R(  0  0  4)  18-R(  1  0  4)  19-R(  0  1  4)  20-R(  1  1  4)

 DIRECT LATTICE VECTORS COMPON. (A.U.)     RECIP. LATTICE VECTORS COMPON. (A.U.) 
        X            Y            Z              X            Y            Z
   24.5879030  -14.1935232    0.0000000      0.2555397    0.0000000   -0.3005935
    0.0000000   28.3910867    0.0000000      0.1277517    0.2213084   -0.6012478
    7.5579691   13.0929037    6.4251588      0.0000000    0.0000000    0.9779035

 DISK SPACE FOR EIGENVECTORS (FTN 10)     7189632 REALS

 SYMMETRY ADAPTION OF THE BLOCH FUNCTIONS DISABLED
 TTTTTTTTTTTTTTTTTTTTTTTTTTTTTT gordsh1     TELAPSE        0.04 TCPU        0.04

 MATRIX SIZE: P(G)  342782, F(G)   65629, P(G) IRR  172612, F(G) IRR   66109
 MAX G-VECTOR INDEX FOR 1- AND 2-ELECTRON INTEGRALS  57

 TTTTTTTTTTTTTTTTTTTTTTTTTTTTTT INPUT       TELAPSE        0.43 TCPU        0.43

 NEIGHBORS OF THE NON-EQUIVALENT ATOMS

 N = NUMBER OF NEIGHBORS AT DISTANCE R
    ATOM  N     R/ANG      R/AU   NEIGHBORS (ATOM LABELS AND CELL INDICES)
   1 B    1     1.3791     2.6061   37 O    1 2-3
   1 B    1     1.3793     2.6065   38 O    0 0 0
   1 B    1     1.5503     2.9297   25 C    0 0 0
   1 B    1     2.3895     4.5155    3 B    1 2-3
   1 B    1     2.3898     4.5160    2 B    0 0 0
   1 B    1     2.5632     4.8437   26 C    0 0 0

   2 B    1     1.3793     2.6065   39 O    1 2-3
   2 B    1     1.3793     2.6065   38 O    0 0 0
   2 B    1     1.5504     2.9298   19 C    1 1-1
   2 B    1     2.3895     4.5156    3 B    1 2-3
   2 B    1     2.3898     4.5160    1 B    0 0 0
   2 B    1     2.5634     4.8440   22 C    1 1-1

   3 B    1     1.3791     2.6061   37 O    0 0 0
   3 B    1     1.3793     2.6064   39 O    0 0 0
   3 B    1     1.5502     2.9294   31 C   -1-1 2
   3 B    1     2.3895     4.5155    1 B   -1-2 3
   3 B    1     2.3895     4.5156    2 B   -1-2 3
   3 B    1     2.5629     4.8433   32 C   -1-1 2

   4 B    1     1.3795     2.6068   40 O    0 0 0
   4 B    1     1.3795     2.6070   41 O    0 0 0
   4 B    1     1.5513     2.9316   24 C    0 0 0
   4 B    1     2.3905     4.5174    6 B    0 0 0
   4 B    1     2.3905     4.5175    5 B    0 0 0
   4 B    1     2.5648     4.8468   23 C    0 0 0

   5 B    1     1.3795     2.6069   41 O    0 0 0
   5 B    1     1.3797     2.6072   42 O    0 0 0
   5 B    1     1.5516     2.9322   36 C    0 0 0
   5 B    1     2.3905     4.5175    4 B    0 0 0
   5 B    1     2.3911     4.5185    6 B    0 0 0
   5 B    1     2.5651     4.8473   35 C    0 0 0

   6 B    1     1.3795     2.6068   40 O    0 0 0
   6 B    1     1.3796     2.6071   42 O    0 0 0
   6 B    1     1.5516     2.9322   30 C    0 0 0
   6 B    1     2.3905     4.5174    4 B    0 0 0
   6 B    1     2.3911     4.5185    5 B    0 0 0
   6 B    1     2.5651     4.8473   29 C    0 0 0

   7 H    1     1.0913     2.0623   20 C    0 0 0
   7 H    1     2.1472     4.0576   19 C    0 0 0
   7 H    1     2.1680     4.0969   23 C    0 0 0
   7 H    1     2.5202     4.7625   10 H    0 0 0
   7 H    1     2.5676     4.8520   38 O   -1-1 1
   7 H    1     2.7321     5.1630    2 B   -1-1 1

   8 H    1     1.0914     2.0625   21 C    0 0 0
   8 H    1     2.1493     4.0616   24 C    0 0 0
   8 H    1     2.1666     4.0942   22 C    0 0 0
   8 H    1     2.5198     4.7618    9 H    0 1-1
   8 H    1     2.5720     4.8604   40 O    0 0 0
   8 H    1     2.7362     5.1707    4 B    0 0 0

   9 H    1     1.0914     2.0624   22 C    0-1 1
   9 H    1     2.1471     4.0575   19 C    0-1 1
   9 H    1     2.1680     4.0970   21 C    0-1 1
   9 H    1     2.5198     4.7618    8 H    0-1 1
   9 H    1     2.5665     4.8500   39 O    0 0-1
   9 H    1     2.7315     5.1618    2 B   -1-2 2

  10 H    1     1.0915     2.0626   23 C    0 0 0
  10 H    1     2.1490     4.0610   24 C    0 0 0
  10 H    1     2.1669     4.0948   20 C    0 0 0
  10 H    1     2.5202     4.7625    7 H    0 0 0
  10 H    1     2.5712     4.8588   41 O    0 0 0
  10 H    1     2.7351     5.1686    4 B    0 0 0

  11 H    1     1.0913     2.0623   26 C   -1-1 2
  11 H    1     2.1469     4.0571   25 C   -1-1 2
  11 H    1     2.1680     4.0968   29 C   -1-1 1
  11 H    1     2.5198     4.7617   14 H   -1-1 1
  11 H    1     2.5670     4.8510   38 O   -1-1 2
  11 H    1     2.7310     5.1609    1 B   -1-1 2

  12 H    1     1.0914     2.0625   27 C    0 0 0
  12 H    1     2.1493     4.0617   30 C    0 0 0
  12 H    1     2.1664     4.0939   28 C    0 0 1
  12 H    1     2.5192     4.7606   13 H    0 1-1
  12 H    1     2.5735     4.8632   40 O    0 0 0
  12 H    1     2.7371     5.1723    6 B    0 0 0

  13 H    1     1.0914     2.0624   28 C    0-1 2
  13 H    1     2.1475     4.0581   25 C    0-1 2
  13 H    1     2.1679     4.0967   27 C    0-1 1
  13 H    1     2.5192     4.7606   12 H    0-1 1
  13 H    1     2.5675     4.8519   37 O    1 1-1
  13 H    1     2.7328     5.1643    1 B    0-1 2

  14 H    1     1.0914     2.0625   29 C    0 0 0
  14 H    1     2.1491     4.0612   30 C    0 0 0
  14 H    1     2.1666     4.0942   26 C    0 0 1
  14 H    1     2.5198     4.7617   11 H    1 1-1
  14 H    1     2.5723     4.8609   42 O    0 0 0
  14 H    1     2.7355     5.1693    6 B    0 0 0

  15 H    1     1.0914     2.0624   32 C   -1-1 1
  15 H    1     2.1475     4.0582   31 C   -1-1 1
  15 H    1     2.1678     4.0966   35 C   -1-1 1
  15 H    1     2.5200     4.7621   18 H   -1-1 1
  15 H    1     2.5667     4.8503   39 O    0 0-1
  15 H    1     2.7315     5.1618    3 B    0 0-1

  16 H    1     1.0913     2.0623   33 C    0 0 0
  16 H    1     2.1487     4.0605   36 C    0 0 0
  16 H    1     2.1667     4.0945   34 C    0 0 0
  16 H    1     2.5197     4.7616   17 H    0 0 0
  16 H    1     2.5723     4.8610   41 O    0 0 0
  16 H    1     2.7359     5.1701    5 B    0 0 0

  17 H    1     1.0915     2.0626   34 C    0 0 0
  17 H    1     2.1479     4.0589   31 C    0 0 0
  17 H    1     2.1679     4.0968   33 C    0 0 0
  17 H    1     2.5197     4.7616   16 H    0 0 0
  17 H    1     2.5677     4.8522   37 O    1 1-2
  17 H    1     2.7331     5.1648    3 B    1 1-2

  18 H    1     1.0914     2.0624   35 C    0 0 0
  18 H    1     2.1486     4.0602   36 C    0 0 0
  18 H    1     2.1668     4.0947   32 C    0 0 0
  18 H    1     2.5200     4.7621   15 H    1 1-1
  18 H    1     2.5717     4.8598   42 O    0 0 0
  18 H    1     2.7349     5.1682    5 B    0 0 0

  19 C    1     1.4020     2.6495   22 C    0 0 0
  19 C    1     1.4021     2.6495   20 C    0 0 0
  19 C    1     1.5504     2.9298    2 B   -1-1 1
  19 C    1     2.1471     4.0575    9 H    0 1-1
  19 C    1     2.1472     4.0576    7 H    0 0 0
  19 C    1     2.4246     4.5817   21 C    0 0 0

  20 C    1     1.0913     2.0623    7 H    0 0 0
  20 C    1     1.3914     2.6294   23 C    0 0 0
  20 C    1     1.4021     2.6495   19 C    0 0 0
  20 C    1     2.1669     4.0948   10 H    0 0 0
  20 C    1     2.4177     4.5688   22 C    0 0 0
  20 C    1     2.4250     4.5825   24 C    0 0 0

  21 C    1     1.0914     2.0625    8 H    0 0 0
  21 C    1     1.3914     2.6293   22 C    0 0 0
  21 C    1     1.4026     2.6505   24 C    0 0 0
  21 C    1     2.1680     4.0970    9 H    0 1-1
  21 C    1     2.4182     4.5697   23 C    0 0 0
  21 C    1     2.4246     4.5817   19 C    0 0 0

  22 C    1     1.0914     2.0624    9 H    0 1-1
  22 C    1     1.3914     2.6293   21 C    0 0 0
  22 C    1     1.4020     2.6495   19 C    0 0 0
  22 C    1     2.1666     4.0942    8 H    0 0 0
  22 C    1     2.4177     4.5688   20 C    0 0 0
  22 C    1     2.4250     4.5826   24 C    0 0 0

  23 C    1     1.0915     2.0626   10 H    0 0 0
  23 C    1     1.3914     2.6294   20 C    0 0 0
  23 C    1     1.4025     2.6504   24 C    0 0 0
  23 C    1     2.1680     4.0969    7 H    0 0 0
  23 C    1     2.4182     4.5697   21 C    0 0 0
  23 C    1     2.4246     4.5818   19 C    0 0 0

  24 C    1     1.4025     2.6504   23 C    0 0 0
  24 C    1     1.4026     2.6505   21 C    0 0 0
  24 C    1     1.5513     2.9316    4 B    0 0 0
  24 C    1     2.1490     4.0610   10 H    0 0 0
  24 C    1     2.1493     4.0616    8 H    0 0 0
  24 C    1     2.4250     4.5825   20 C    0 0 0

  25 C    1     1.4020     2.6494   26 C    0 0 0
  25 C    1     1.4021     2.6495   28 C    0 0 0
  25 C    1     1.5503     2.9297    1 B    0 0 0
  25 C    1     2.1469     4.0571   11 H    1 1-2
  25 C    1     2.1475     4.0581   13 H    0 1-2
  25 C    1     2.4246     4.5818   27 C    0 0-1

  26 C    1     1.0913     2.0623   11 H    1 1-2
  26 C    1     1.3914     2.6293   29 C    0 0-1
  26 C    1     1.4020     2.6494   25 C    0 0 0
  26 C    1     2.1666     4.0942   14 H    0 0-1
  26 C    1     2.4175     4.5684   28 C    0 0 0
  26 C    1     2.4251     4.5828   30 C    0 0-1

  27 C    1     1.0914     2.0625   12 H    0 0 0
  27 C    1     1.3915     2.6295   28 C    0 0 1
  27 C    1     1.4026     2.6505   30 C    0 0 0
  27 C    1     2.1679     4.0967   13 H    0 1-1
  27 C    1     2.4179     4.5691   29 C    0 0 0
  27 C    1     2.4246     4.5818   25 C    0 0 1

  28 C    1     1.0914     2.0624   13 H    0 1-2
  28 C    1     1.3915     2.6295   27 C    0 0-1
  28 C    1     1.4021     2.6495   25 C    0 0 0
  28 C    1     2.1664     4.0939   12 H    0 0-1
  28 C    1     2.4175     4.5684   26 C    0 0 0
  28 C    1     2.4253     4.5832   30 C    0 0-1

  29 C    1     1.0914     2.0625   14 H    0 0 0
  29 C    1     1.3914     2.6293   26 C    0 0 1
  29 C    1     1.4025     2.6504   30 C    0 0 0
  29 C    1     2.1680     4.0968   11 H    1 1-1
  29 C    1     2.4179     4.5691   27 C    0 0 0
  29 C    1     2.4247     4.5819   25 C    0 0 1

  30 C    1     1.4025     2.6504   29 C    0 0 0
  30 C    1     1.4026     2.6505   27 C    0 0 0
  30 C    1     1.5516     2.9322    6 B    0 0 0
  30 C    1     2.1491     4.0612   14 H    0 0 0
  30 C    1     2.1493     4.0617   12 H    0 0 0
  30 C    1     2.4251     4.5828   26 C    0 0 1

  31 C    1     1.4021     2.6496   32 C    0 0 0
  31 C    1     1.4021     2.6497   34 C    0 0 0
  31 C    1     1.5502     2.9294    3 B    1 1-2
  31 C    1     2.1475     4.0582   15 H    1 1-1
  31 C    1     2.1479     4.0589   17 H    0 0 0
  31 C    1     2.4244     4.5814   33 C    0 0 0

  32 C    1     1.0914     2.0624   15 H    1 1-1
  32 C    1     1.3914     2.6293   35 C    0 0 0
  32 C    1     1.4021     2.6496   31 C    0 0 0
  32 C    1     2.1668     4.0947   18 H    0 0 0
  32 C    1     2.4179     4.5692   34 C    0 0 0
  32 C    1     2.4251     4.5827   36 C    0 0 0

  33 C    1     1.0913     2.0623   16 H    0 0 0
  33 C    1     1.3914     2.6294   34 C    0 0 0
  33 C    1     1.4025     2.6504   36 C    0 0 0
  33 C    1     2.1679     4.0968   17 H    0 0 0
  33 C    1     2.4178     4.5690   35 C    0 0 0
  33 C    1     2.4244     4.5814   31 C    0 0 0

  34 C    1     1.0915     2.0626   17 H    0 0 0
  34 C    1     1.3914     2.6294   33 C    0 0 0
  34 C    1     1.4021     2.6497   31 C    0 0 0
  34 C    1     2.1667     4.0945   16 H    0 0 0
  34 C    1     2.4179     4.5692   32 C    0 0 0
  34 C    1     2.4253     4.5832   36 C    0 0 0

  35 C    1     1.0914     2.0624   18 H    0 0 0
  35 C    1     1.3914     2.6293   32 C    0 0 0
  35 C    1     1.4025     2.6503   36 C    0 0 0
  35 C    1     2.1678     4.0966   15 H    1 1-1
  35 C    1     2.4178     4.5690   33 C    0 0 0
  35 C    1     2.4245     4.5817   31 C    0 0 0

  36 C    1     1.4025     2.6503   35 C    0 0 0
  36 C    1     1.4025     2.6504   33 C    0 0 0
  36 C    1     1.5516     2.9322    5 B    0 0 0
  36 C    1     2.1486     4.0602   18 H    0 0 0
  36 C    1     2.1487     4.0605   16 H    0 0 0
  36 C    1     2.4251     4.5827   32 C    0 0 0

  37 O    1     1.3791     2.6061    1 B   -1-2 3
  37 O    1     1.3791     2.6061    3 B    0 0 0
  37 O    1     2.3880     4.5126   38 O   -1-2 3
  37 O    1     2.3882     4.5130   39 O    0 0 0
  37 O    1     2.5383     4.7966   31 C   -1-1 2
  37 O    1     2.5384     4.7968   25 C   -1-2 3

  38 O    1     1.3793     2.6065    1 B    0 0 0
  38 O    1     1.3793     2.6065    2 B    0 0 0
  38 O    1     2.3880     4.5126   37 O    1 2-3
  38 O    1     2.3882     4.5131   39 O    1 2-3
  38 O    1     2.5391     4.7981   19 C    1 1-1
  38 O    1     2.5395     4.7990   25 C    0 0 0

  39 O    1     1.3793     2.6064    3 B    0 0 0
  39 O    1     1.3793     2.6065    2 B   -1-2 3
  39 O    1     2.3882     4.5130   37 O    0 0 0
  39 O    1     2.3882     4.5131   38 O   -1-2 3
  39 O    1     2.5390     4.7980   19 C    0-1 2
  39 O    1     2.5391     4.7982   31 C   -1-1 2

  40 O    1     1.3795     2.6068    6 B    0 0 0
  40 O    1     1.3795     2.6068    4 B    0 0 0
  40 O    1     2.3880     4.5126   42 O    0 0 0
  40 O    1     2.3884     4.5134   41 O    0 0 0
  40 O    1     2.5400     4.7998   24 C    0 0 0
  40 O    1     2.5403     4.8005   30 C    0 0 0

  41 O    1     1.3795     2.6069    5 B    0 0 0
  41 O    1     1.3795     2.6070    4 B    0 0 0
  41 O    1     2.3881     4.5128   42 O    0 0 0
  41 O    1     2.3884     4.5134   40 O    0 0 0
  41 O    1     2.5404     4.8006   24 C    0 0 0
  41 O    1     2.5405     4.8008   36 C    0 0 0

  42 O    1     1.3796     2.6071    6 B    0 0 0
  42 O    1     1.3797     2.6072    5 B    0 0 0
  42 O    1     2.3880     4.5126   40 O    0 0 0
  42 O    1     2.3881     4.5128   41 O    0 0 0
  42 O    1     2.5409     4.8016   36 C    0 0 0
  42 O    1     2.5410     4.8019   30 C    0 0 0


 SYMMETRY ALLOWED INTERNAL DEGREE(S) OF FREEDOM: 123
 TTTTTTTTTTTTTTTTTTTTTTTTTTTTTT SYMM        TELAPSE        0.43 TCPU        0.43
 TTTTTTTTTTTTTTTTTTTTTTTTTTTTTT INT_SCREEN  TELAPSE        0.47 TCPU        0.47

 DFT PARAMETERS

     ATOM       ELECTRONS   NET CHARGE   R(ANGSTROM)
   1   5  B       5.0000      0.0000     0.89000000
   7   1  H       1.0000      0.0000     1.11000000
  19   6  C       6.0000      0.0000     0.77000000
  37   8  O       8.0000      0.0000     0.74000000

 SIZE OF GRID=    1286155
 TTTTTTTTTTTTTTTTTTTTTTTTTTTTTT MAKE_GRID2  TELAPSE        9.84 TCPU        9.83
 BECKE WEIGHT FUNCTION
 RADSAFE =     2.00
 TOLERANCES - DENSITY:10**- 6; POTENTIAL:10**- 9; GRID WGT:10**-14

 RADIAL INTEGRATION  - INTERVALS (POINTS,UPPER LIMIT):            1( 75,  4.0*R)

 ANGULAR INTEGRATION - INTERVALS (ACCURACY LEVEL [N. POINTS] UPPER LIMIT):
  1(  4[  86]   0.2)  2(  8[ 194]   0.5)  3( 12[ 350]   0.9)  4( 16[ 974]   3.5)
  5( 12[ 350]9999.0)
 TTTTTTTTTTTTTTTTTTTTTTTTTTTTTT INT_CALC    TELAPSE        9.92 TCPU        9.91
 EEEEEEEEEE INT_CALC TERMINATION  DATE 19 02 2026 TIME 18:19:23.6

 *******************************************************************************
 cof-1_z34_L080_incl                                                             
 CRYSTAL - SCF - TYPE OF CALCULATION :  RESTRICTED CLOSED SHELL
 *******************************************************************************

 CAPPA:IS1  2;IS2  2;IS3  8; K PTS MONK NET  20; SYMMOPS:K SPACE   2;G SPACE   1

 TTTTTTTTTTTTTTTTTTTTTTTTTTTTTT SDIK        TELAPSE       10.50 TCPU       17.76

 AAAAAAAAAAAAAAAAAAAAAAAAAAAAAAAAAAAAAAAAAAAAAAAAAAAAAAAAAAAAAAAAAAAAAAAAAAAAAAA
         ATOMIC WAVEFUNCTION(S)


 NUCLEAR CHARGE  5.0  SYMMETRY SPECIES            S    P
 N. ELECTRONS    5.0  NUMBER OF PRIMITIVE GTOS    8    4
                      NUMBER OF CONTRACTED GTOS   4    2
                      NUMBER OF CLOSED SHELLS     2    0
                      OPEN SHELL OCCUPATION       0    1

  ZNUC  SCFIT    TOTAL HF ENERGY   KINETIC ENERGY   VIRIAL THEOREM ACCURACY
   5.0    11    -2.451164084E+01  2.462155050E+01 -1.995536038E+00  1.5E-06

 NUCLEAR CHARGE  1.0  SYMMETRY SPECIES            S
 N. ELECTRONS    1.0  NUMBER OF PRIMITIVE GTOS    4
                      NUMBER OF CONTRACTED GTOS   2
                      NUMBER OF CLOSED SHELLS     0
                      OPEN SHELL OCCUPATION       1

  ZNUC  SCFIT    TOTAL HF ENERGY   KINETIC ENERGY   VIRIAL THEOREM ACCURACY
   1.0     1    -4.977266687E-01  5.190767460E-01 -1.958869132E+00  0.0E+00

 NUCLEAR CHARGE  6.0  SYMMETRY SPECIES            S    P
 N. ELECTRONS    6.0  NUMBER OF PRIMITIVE GTOS    8    4
                      NUMBER OF CONTRACTED GTOS   4    2
                      NUMBER OF CLOSED SHELLS     2    0
                      OPEN SHELL OCCUPATION       0    2

  ZNUC  SCFIT    TOTAL HF ENERGY   KINETIC ENERGY   VIRIAL THEOREM ACCURACY
   6.0     9    -3.766704647E+01  3.775180683E+01 -1.997754800E+00  1.1E-06

 NUCLEAR CHARGE  8.0  SYMMETRY SPECIES            S    P
 N. ELECTRONS    8.0  NUMBER OF PRIMITIVE GTOS    8    4
                      NUMBER OF CONTRACTED GTOS   4    2
                      NUMBER OF CLOSED SHELLS     2    0
                      OPEN SHELL OCCUPATION       0    4

  ZNUC  SCFIT    TOTAL HF ENERGY   KINETIC ENERGY   VIRIAL THEOREM ACCURACY
   8.0    12    -7.477373220E+01  7.477365593E+01 -2.000001020E+00  3.8E-06

 AAAAAAAAAAAAAAAAAAAAAAAAAAAAAAAAAAAAAAAAAAAAAAAAAAAAAAAAAAAAAAAAAAAAAAAAAAAAAAA

 CHARGE NORMALIZATION FACTOR   1.00000000
 TOTAL ATOMIC CHARGES:
   5.0000000   5.0000000   5.0000000   5.0000000   5.0000000   5.0000000
   1.0000000   1.0000000   1.0000000   1.0000000   1.0000000   1.0000000
   1.0000000   1.0000000   1.0000000   1.0000000   1.0000000   1.0000000
   6.0000000   6.0000000   6.0000000   6.0000000   6.0000000   6.0000000
   6.0000000   6.0000000   6.0000000   6.0000000   6.0000000   6.0000000
   6.0000000   6.0000000   6.0000000   6.0000000   6.0000000   6.0000000
   8.0000000   8.0000000   8.0000000   8.0000000   8.0000000   8.0000000
 TTTTTTTTTTTTTTTTTTTTTTTTTTTTTT MOQGAD      TELAPSE       10.55 TCPU       19.19
 TTTTTTTTTTTTTTTTTTTTTTTTTTTTTT SHELLXN     TELAPSE       18.18 TCPU      263.06
 TTTTTTTTTTTTTTTTTTTTTTTTTTTTTT MONMO3      TELAPSE       18.33 TCPU      267.75
 NUMERICALLY INTEGRATED DENSITY    197.9999818220
 TTTTTTTTTTTTTTTTTTTTTTTTTTTTTT NUMDFT      TELAPSE       19.00 TCPU      289.18
 CYC   0 ETOT(AU) -1.295969012581E+03 DETOT -1.30E+03 tst  0.00E+00 PX  1.00E+00
 TTTTTTTTTTTTTTTTTTTTTTTTTTTTTT DIIS        TELAPSE       19.04 TCPU      290.39
 TTTTTTTTTTTTTTTTTTTTTTTTTTTTTT FDIK        TELAPSE       19.52 TCPU      305.84
 INSULATING STATE
 TOP OF VALENCE BANDS -    BAND     99; K    1; EIG -3.0660297E-01 AU
 BOTTOM OF VIRTUAL BANDS - BAND    100; K    1; EIG -1.6076059E-01 AU
 DIRECT ENERGY BAND GAP:   3.9686 eV
 TTTTTTTTTTTTTTTTTTTTTTTTTTTTTT PDIG        TELAPSE       19.86 TCPU      312.04
 CHARGE NORMALIZATION FACTOR   1.00000000
 TOTAL ATOMIC CHARGES:
   4.1461898   4.1543302   4.1549595   4.1544223   4.1541368   4.1449140
   0.7855501   0.7856786   0.7856373   0.7857920   0.7857574   0.7859177
   0.7857508   0.7858694   0.7856421   0.7858689   0.7854964   0.7856634
   6.0430103   6.2674840   6.2673822   6.2663463   6.2662577   6.0426111
   6.0472229   6.2675702   6.2678697   6.2675057   6.2678332   6.0457606
   6.0435583   6.2660203   6.2666251   6.2670611   6.2676608   6.0421627
   8.6983620   8.6986630   8.6985345   8.6988778   8.6988519   8.6991920
 TTTTTTTTTTTTTTTTTTTTTTTTTTTTTT MOQGAD      TELAPSE       19.91 TCPU      312.09
 TTTTTTTTTTTTTTTTTTTTTTTTTTTTTT SHELLXN     TELAPSE       27.85 TCPU      565.24
 TTTTTTTTTTTTTTTTTTTTTTTTTTTTTT MONMO3      TELAPSE       27.99 TCPU      569.91
 NUMERICALLY INTEGRATED DENSITY    197.9999893712
 TTTTTTTTTTTTTTTTTTTTTTTTTTTTTT NUMDFT      TELAPSE       28.68 TCPU      591.71
 CYC   1 ETOT(AU) -1.288821163763E+03 DETOT  7.15E+00 tst  0.00E+00 PX  1.00E+00
 TTTTTTTTTTTTTTTTTTTTTTTTTTTTTT DIIS        TELAPSE       28.72 TCPU      593.21
 DIIS TEST: 0.11108E+01 AT SCF   CYCLE   1 - MIX   30 %
 TTTTTTTTTTTTTTTTTTTTTTTTTTTTTT FDIK        TELAPSE       29.22 TCPU      608.94
 INSULATING STATE
 TOP OF VALENCE BANDS -    BAND     99; K    1; EIG -2.1751671E-01 AU
 BOTTOM OF VIRTUAL BANDS - BAND    100; K   17; EIG -8.6688473E-02 AU
 INDIRECT ENERGY BAND GAP:   3.5600 eV
 BOTTOM OF VIRTUAL BANDS - BAND    100; K    1; EIG -8.6543523E-02 AU
 TTTTTTTTTTTTTTTTTTTTTTTTTTTTTT PDIG        TELAPSE       29.56 TCPU      615.14
 CHARGE NORMALIZATION FACTOR   1.00000000
 TOTAL ATOMIC CHARGES:
   4.7084109   4.6987289   4.6998222   4.6995394   4.6985403   4.7083531
   0.9048346   0.9049669   0.9048285   0.9043800   0.9036560   0.9041462
   0.9036487   0.9039977   0.9047012   0.9044463   0.9049233   0.9049907
   5.8726242   6.1423326   6.1423055   6.1314044   6.1314640   5.8757597
   5.8845459   6.1298604   6.1319460   6.1304226   6.1320864   5.8878388
   5.8729697   6.1314925   6.1315083   6.1426149   6.1417609   5.8754079
   8.3424624   8.3431213   8.3369607   8.3427376   8.3359644   8.3434937
 TTTTTTTTTTTTTTTTTTTTTTTTTTTTTT MOQGAD      TELAPSE       29.61 TCPU      615.18
 TTTTTTTTTTTTTTTTTTTTTTTTTTTTTT SHELLXN     TELAPSE       37.54 TCPU      868.36
 TTTTTTTTTTTTTTTTTTTTTTTTTTTTTT MONMO3      TELAPSE       37.69 TCPU      873.04
 NUMERICALLY INTEGRATED DENSITY    197.9999872597
 TTTTTTTTTTTTTTTTTTTTTTTTTTTTTT NUMDFT      TELAPSE       38.37 TCPU      894.81
 CYC   2 ETOT(AU) -1.289013879091E+03 DETOT -1.93E-01 tst  3.26E-03 PX  1.58E-01
 TTTTTTTTTTTTTTTTTTTTTTTTTTTTTT DIIS        TELAPSE       38.42 TCPU      896.43
 DIIS TEST: 0.46272E+00 AT SCF   CYCLE   2 - DIIS ACTIVE - HISTORY:     2 CYCLES
 TTTTTTTTTTTTTTTTTTTTTTTTTTTTTT FDIK        TELAPSE       38.91 TCPU      912.03
 INSULATING STATE
 TOP OF VALENCE BANDS -    BAND     99; K    1; EIG -2.3078346E-01 AU
 BOTTOM OF VIRTUAL BANDS - BAND    100; K    1; EIG -8.0597781E-02 AU
 DIRECT ENERGY BAND GAP:   4.0868 eV
 TTTTTTTTTTTTTTTTTTTTTTTTTTTTTT PDIG        TELAPSE       39.25 TCPU      918.23
 CHARGE NORMALIZATION FACTOR   1.00000000
 TOTAL ATOMIC CHARGES:
   4.4929195   4.4907040   4.4916148   4.4914279   4.4906560   4.4923523
   0.8843394   0.8845757   0.8845818   0.8843625   0.8827637   0.8835015
   0.8827935   0.8833445   0.8844885   0.8844032   0.8844845   0.8844937
   5.8908547   6.1664740   6.1656498   6.1650211   6.1650309   5.8910389
   5.8914534   6.1674036   6.1671478   6.1673684   6.1673174   5.8896564
   5.8908422   6.1649229   6.1652519   6.1660383   6.1658561   5.8911490
   8.5159414   8.5165127   8.5190285   8.5162097   8.5192937   8.5167305
 TTTTTTTTTTTTTTTTTTTTTTTTTTTTTT MOQGAD      TELAPSE       39.30 TCPU      918.27
 TTTTTTTTTTTTTTTTTTTTTTTTTTTTTT SHELLXN     TELAPSE       47.24 TCPU     1171.67
 TTTTTTTTTTTTTTTTTTTTTTTTTTTTTT MONMO3      TELAPSE       47.39 TCPU     1176.34
 NUMERICALLY INTEGRATED DENSITY    197.9999876135
 TTTTTTTTTTTTTTTTTTTTTTTTTTTTTT NUMDFT      TELAPSE       48.07 TCPU     1198.13
 CYC   3 ETOT(AU) -1.289108708468E+03 DETOT -9.48E-02 tst  7.74E-04 PX  6.39E-02
 TTTTTTTTTTTTTTTTTTTTTTTTTTTTTT DIIS        TELAPSE       48.13 TCPU     1200.06
 DIIS TEST: 0.13397E-01 AT SCF   CYCLE   3 - DIIS ACTIVE - HISTORY:     3 CYCLES
 TTTTTTTTTTTTTTTTTTTTTTTTTTTTTT FDIK        TELAPSE       48.63 TCPU     1215.77
 INSULATING STATE
 TOP OF VALENCE BANDS -    BAND     99; K    1; EIG -2.3953495E-01 AU
 BOTTOM OF VIRTUAL BANDS - BAND    100; K    1; EIG -8.9021357E-02 AU
 DIRECT ENERGY BAND GAP:   4.0957 eV
 TTTTTTTTTTTTTTTTTTTTTTTTTTTTTT PDIG        TELAPSE       48.97 TCPU     1221.97
 CHARGE NORMALIZATION FACTOR   1.00000000
 TOTAL ATOMIC CHARGES:
   4.4999000   4.4961826   4.4971801   4.4968080   4.4958460   4.4993422
   0.8677723   0.8678734   0.8683078   0.8681108   0.8671207   0.8674711
   0.8671155   0.8673425   0.8682237   0.8681809   0.8678316   0.8678899
   5.9417713   6.1726552   6.1728442   6.1655311   6.1653763   5.9436013
   5.9492461   6.1652588   6.1670022   6.1656070   6.1670300   5.9515725
   5.9423779   6.1654472   6.1654962   6.1728041   6.1725162   5.9430586
   8.4867227   8.4872538   8.4821081   8.4871243   8.4813680   8.4877273
 TTTTTTTTTTTTTTTTTTTTTTTTTTTTTT MOQGAD      TELAPSE       49.01 TCPU     1222.02
 TTTTTTTTTTTTTTTTTTTTTTTTTTTTTT SHELLXN     TELAPSE       56.96 TCPU     1475.25
 TTTTTTTTTTTTTTTTTTTTTTTTTTTTTT MONMO3      TELAPSE       57.10 TCPU     1479.92
 NUMERICALLY INTEGRATED DENSITY    197.9999876578
 TTTTTTTTTTTTTTTTTTTTTTTTTTTTTT NUMDFT      TELAPSE       57.78 TCPU     1501.64
 CYC   4 ETOT(AU) -1.289111511518E+03 DETOT -2.80E-03 tst  3.78E-05 PX  1.35E-02
 TTTTTTTTTTTTTTTTTTTTTTTTTTTTTT DIIS        TELAPSE       57.84 TCPU     1503.58
 DIIS TEST: 0.37352E-02 AT SCF   CYCLE   4 - DIIS ACTIVE - HISTORY:     4 CYCLES
 TTTTTTTTTTTTTTTTTTTTTTTTTTTTTT FDIK        TELAPSE       58.33 TCPU     1519.20
 INSULATING STATE
 TOP OF VALENCE BANDS -    BAND     99; K    1; EIG -2.3818061E-01 AU
 BOTTOM OF VIRTUAL BANDS - BAND    100; K    1; EIG -8.8909637E-02 AU
 DIRECT ENERGY BAND GAP:   4.0619 eV
 TTTTTTTTTTTTTTTTTTTTTTTTTTTTTT PDIG        TELAPSE       58.67 TCPU     1525.38
 CHARGE NORMALIZATION FACTOR   1.00000000
 TOTAL ATOMIC CHARGES:
   4.5036693   4.4988374   4.4998172   4.4995909   4.4987029   4.5032218
   0.8704120   0.8706418   0.8707010   0.8704557   0.8690873   0.8697359
   0.8691066   0.8695832   0.8706143   0.8705060   0.8705398   0.8705906
   5.9219661   6.1732800   6.1725866   6.1682743   6.1683148   5.9227911
   5.9270036   6.1695144   6.1697514   6.1695956   6.1699637   5.9262035
   5.9220025   6.1681655   6.1685141   6.1729593   6.1726896   5.9228258
   8.4943182   8.4949379   8.4943975   8.4945632   8.4943847   8.4951830
 TTTTTTTTTTTTTTTTTTTTTTTTTTTTTT MOQGAD      TELAPSE       58.71 TCPU     1525.43
 TTTTTTTTTTTTTTTTTTTTTTTTTTTTTT SHELLXN     TELAPSE       66.66 TCPU     1778.68
 TTTTTTTTTTTTTTTTTTTTTTTTTTTTTT MONMO3      TELAPSE       66.80 TCPU     1783.35
 NUMERICALLY INTEGRATED DENSITY    197.9999876492
 TTTTTTTTTTTTTTTTTTTTTTTTTTTTTT NUMDFT      TELAPSE       67.48 TCPU     1805.09
 CYC   5 ETOT(AU) -1.289112370036E+03 DETOT -8.59E-04 tst  6.51E-06 PX  6.92E-03
 TTTTTTTTTTTTTTTTTTTTTTTTTTTTTT DIIS        TELAPSE       67.55 TCPU     1807.37
 DIIS TEST: 0.79293E-04 AT SCF   CYCLE   5 - DIIS ACTIVE - HISTORY:     5 CYCLES
 TTTTTTTTTTTTTTTTTTTTTTTTTTTTTT FDIK        TELAPSE       68.04 TCPU     1823.07
 INSULATING STATE
 TOP OF VALENCE BANDS -    BAND     99; K    1; EIG -2.3803834E-01 AU
 BOTTOM OF VIRTUAL BANDS - BAND    100; K    1; EIG -8.8323085E-02 AU
 DIRECT ENERGY BAND GAP:   4.0740 eV
 TTTTTTTTTTTTTTTTTTTTTTTTTTTTTT PDIG        TELAPSE       68.39 TCPU     1829.27
 CHARGE NORMALIZATION FACTOR   1.00000000
 TOTAL ATOMIC CHARGES:
   4.5024263   4.4986914   4.4996686   4.4993371   4.4984437   4.5018600
   0.8713433   0.8714584   0.8715914   0.8713828   0.8702088   0.8706509
   0.8702008   0.8705246   0.8714935   0.8714450   0.8714133   0.8714648
   5.9224164   6.1725471   6.1725841   6.1674921   6.1673159   5.9237400
   5.9265253   6.1680669   6.1695056   6.1683689   6.1695035   5.9281111
   5.9229578   6.1674377   6.1674465   6.1726132   6.1723144   5.9232666
   8.4945457   8.4950351   8.4923478   8.4949647   8.4918002   8.4954889
 TTTTTTTTTTTTTTTTTTTTTTTTTTTTTT MOQGAD      TELAPSE       68.43 TCPU     1829.32
 TTTTTTTTTTTTTTTTTTTTTTTTTTTTTT SHELLXN     TELAPSE       76.39 TCPU     2082.64
 TTTTTTTTTTTTTTTTTTTTTTTTTTTTTT MONMO3      TELAPSE       76.53 TCPU     2087.31
 NUMERICALLY INTEGRATED DENSITY    197.9999876475
 TTTTTTTTTTTTTTTTTTTTTTTTTTTTTT NUMDFT      TELAPSE       77.21 TCPU     2109.12
 CYC   6 ETOT(AU) -1.289112390988E+03 DETOT -2.10E-05 tst  2.72E-07 PX  1.37E-03
 TTTTTTTTTTTTTTTTTTTTTTTTTTTTTT DIIS        TELAPSE       77.29 TCPU     2111.39
 DIIS TEST: 0.98664E-05 AT SCF   CYCLE   6 - DIIS ACTIVE - HISTORY:     6 CYCLES
 TTTTTTTTTTTTTTTTTTTTTTTTTTTTTT FDIK        TELAPSE       77.77 TCPU     2126.94
 INSULATING STATE
 TOP OF VALENCE BANDS -    BAND     99; K    1; EIG -2.3803223E-01 AU
 BOTTOM OF VIRTUAL BANDS - BAND    100; K    1; EIG -8.8426895E-02 AU
 DIRECT ENERGY BAND GAP:   4.0710 eV
 TTTTTTTTTTTTTTTTTTTTTTTTTTTTTT PDIG        TELAPSE       78.11 TCPU     2133.14
 CHARGE NORMALIZATION FACTOR   1.00000000
 TOTAL ATOMIC CHARGES:
   4.5030362   4.4986255   4.4996026   4.4993668   4.4984762   4.5025499
   0.8712820   0.8714894   0.8716093   0.8713587   0.8700235   0.8706547
   0.8700431   0.8705003   0.8715238   0.8714078   0.8714063   0.8714416
   5.9226308   6.1725097   6.1719165   6.1673486   6.1674237   5.9236274
   5.9278594   6.1684989   6.1688184   6.1685837   6.1690317   5.9273473
   5.9226993   6.1672295   6.1676270   6.1722187   6.1719966   5.9236306
   8.4940376   8.4946625   8.4933849   8.4942841   8.4933152   8.4949199
 TTTTTTTTTTTTTTTTTTTTTTTTTTTTTT MOQGAD      TELAPSE       78.15 TCPU     2133.18
 TTTTTTTTTTTTTTTTTTTTTTTTTTTTTT SHELLXN     TELAPSE       86.09 TCPU     2386.37
 TTTTTTTTTTTTTTTTTTTTTTTTTTTTTT MONMO3      TELAPSE       86.24 TCPU     2391.04
 NUMERICALLY INTEGRATED DENSITY    197.9999876472
 TTTTTTTTTTTTTTTTTTTTTTTTTTTTTT NUMDFT      TELAPSE       86.92 TCPU     2412.83
 CYC   7 ETOT(AU) -1.289112392291E+03 DETOT -1.30E-06 tst  2.87E-08 PX  5.80E-04
 TTTTTTTTTTTTTTTTTTTTTTTTTTTTTT DIIS        TELAPSE       87.00 TCPU     2415.38
 DIIS TEST: 0.16440E-05 AT SCF   CYCLE   7 - DIIS ACTIVE - HISTORY:     7 CYCLES
 TTTTTTTTTTTTTTTTTTTTTTTTTTTTTT FDIK        TELAPSE       87.49 TCPU     2431.03
 INSULATING STATE
 TOP OF VALENCE BANDS -    BAND     99; K    1; EIG -2.3803840E-01 AU
 BOTTOM OF VIRTUAL BANDS - BAND    100; K    1; EIG -8.8433686E-02 AU
 DIRECT ENERGY BAND GAP:   4.0710 eV
 TTTTTTTTTTTTTTTTTTTTTTTTTTTTTT PDIG        TELAPSE       87.83 TCPU     2437.23
 CHARGE NORMALIZATION FACTOR   1.00000000
 TOTAL ATOMIC CHARGES:
   4.5030124   4.4987405   4.4997177   4.4994379   4.4985453   4.5025044
   0.8712636   0.8714336   0.8715572   0.8713331   0.8700520   0.8705910
   0.8700563   0.8704523   0.8714641   0.8713903   0.8713616   0.8714124
   5.9224913   6.1725105   6.1721960   6.1674274   6.1673385   5.9235626
   5.9271692   6.1682784   6.1691538   6.1684833   6.1692483   5.9276293
   5.9228021   6.1673504   6.1674976   6.1723960   6.1721004   5.9233228
   8.4942299   8.4947790   8.4931510   8.4945692   8.4928509   8.4951364
 TTTTTTTTTTTTTTTTTTTTTTTTTTTTTT MOQGAD      TELAPSE       87.88 TCPU     2437.27
 TTTTTTTTTTTTTTTTTTTTTTTTTTTTTT SHELLXN     TELAPSE       95.83 TCPU     2690.66
 TTTTTTTTTTTTTTTTTTTTTTTTTTTTTT MONMO3      TELAPSE       95.97 TCPU     2695.33
 NUMERICALLY INTEGRATED DENSITY    197.9999876458
 TTTTTTTTTTTTTTTTTTTTTTTTTTTTTT NUMDFT      TELAPSE       96.65 TCPU     2717.12
 CYC   8 ETOT(AU) -1.289112392611E+03 DETOT -3.20E-07 tst  6.52E-09 PX  1.65E-04
 TTTTTTTTTTTTTTTTTTTTTTTTTTTTTT DIIS        TELAPSE       96.74 TCPU     2719.71
 DIIS TEST: 0.68353E-07 AT SCF   CYCLE   8 - DIIS ACTIVE - HISTORY:     8 CYCLES
 TTTTTTTTTTTTTTTTTTTTTTTTTTTTTT FDIK        TELAPSE       97.22 TCPU     2735.20
 INSULATING STATE
 TOP OF VALENCE BANDS -    BAND     99; K    1; EIG -2.3804144E-01 AU
 BOTTOM OF VIRTUAL BANDS - BAND    100; K    1; EIG -8.8427075E-02 AU
 DIRECT ENERGY BAND GAP:   4.0712 eV
 TTTTTTTTTTTTTTTTTTTTTTTTTTTTTT PDIG        TELAPSE       97.57 TCPU     2741.40
 CHARGE NORMALIZATION FACTOR   1.00000000
 TOTAL ATOMIC CHARGES:
   4.5029729   4.4987276   4.4997051   4.4994351   4.4985428   4.5024627
   0.8712564   0.8714335   0.8715572   0.8713195   0.8700324   0.8706012
   0.8700436   0.8704556   0.8714681   0.8713726   0.8713630   0.8714036
   5.9224693   6.1725510   6.1721673   6.1674135   6.1674123   5.9235795
   5.9272961   6.1683980   6.1690852   6.1685505   6.1692314   5.9274727
   5.9226895   6.1673142   6.1675936   6.1723768   6.1721323   5.9234300
   8.4942363   8.4948175   8.4930885   8.4945386   8.4928645   8.4951383
 TTTTTTTTTTTTTTTTTTTTTTTTTTTTTT MOQGAD      TELAPSE       97.61 TCPU     2741.45
 TTTTTTTTTTTTTTTTTTTTTTTTTTTTTT SHELLXN     TELAPSE      105.56 TCPU     2994.84
 +++ ENERGIES IN A.U. +++
 ::: EXT EL-POLE                                  -1.5284102648851E+03
 ::: EXT EL-SPHEROPOLE                             1.6839831707657E+01
 ::: BIELET ZONE E-E                               2.1499005507282E+03
 ::: TOTAL E-E                                     6.3833011755067E+02
 ::: TOTAL E-N + N-E                              -3.1014993822456E+03
 ::: TOTAL N-N                                     2.7827950064895E+01
 ::: KINETIC ENERGY                                1.2799490379095E+03
 ::: PSEUDO TOTAL   ENERGY                        -1.1553922767205E+03
 ::: VIRIAL COEFFICIENT                            1.0511455049199E+00
 TTTTTTTTTTTTTTTTTTTTTTTTTTTTTT MONMO3      TELAPSE      105.70 TCPU     2999.51
 NUMERICALLY INTEGRATED DENSITY    197.9999876458
 EXCHANGE ENERGY: -0.126024766945E+03  CORRELATION ENERGY: -0.769534899638E+01
 TTTTTTTTTTTTTTTTTTTTTTTTTTTTTT NUMDFT      TELAPSE      106.38 TCPU     3021.26
 CYC   9 ETOT(AU) -1.289112392662E+03 DETOT -5.04E-08 tst  6.06E-10 PX  1.65E-04

 == SCF ENDED - CONVERGENCE ON ENERGY      E(AU) -1.2891123926615E+03 CYCLES   9


 ENERGY EXPRESSION=HARTREE+FOCK EXCH*0.00000+(HSESOL     EXCH)*1.00000+PBESOL     CORR


 TOTAL ENERGY(DFT)(AU)(  9) -1.2891123926615E+03 DE-5.0E-08 tester 6.1E-10
 TTTTTTTTTTTTTTTTTTTTTTTTTTTTTT EDFT        TELAPSE      106.38 TCPU     3021.27
 
 INFORMATION **** DFTD3 ENERGY **** CALCULATE DFTD3 ENERGY

           DFT-D V3(BJ)
 DF                                         hsesol3c  
 parameters
 s6       :    1.0000
 s8       :    0.0000
 a1       :    0.5196
 a2       :    4.9385
 k1 k3    :   16.0000   -4.0000
 Cutoff   :   50.2022
 CN-Cutoff:   21.1671
 ABC-Cutoff:   21.1671
 
 Edisp /kcal,au:   -26.5534 -0.04231547

 E6    /kcal :   -28.1722
 E8    /kcal :     0.0000
 E6(ABC) "   :   1.618822
 
 INFORMATION **** DFTD3 ENERGY **** NORMAL TERMINATION OF DFTD3 MODULE

 GCP ENERGY CALCULATION
  level        hsesol3c            basis:hsesol3c
  Nbf            474
  Atoms           42

  Parameters: 
  sigma     1.0000
  eta       1.4281
  alpha     0.2936
  beta      1.9467

  dmp_scal      4.0000
  dmp_exp       6.0000
 cutoffs: 
   distance [bohr] 60.0
   noise    [a.u.] 2.2E-16
 SR-damping   T
 ** gCP correction **
  Egcp:        0.0834896890 / (a.u.) ||      52.3906 / (kcal/mol)
 INFORMATION **** GCP **** NORMAL TERMINATION OF GCP MODULE

 *******************************************************************************

 DFT-D3-GCP DISPERSION AND COUNTERPOISE CORRECTION

 D3 DISPERSION ENERGY (AU)      -4.2315471105547E-02
 GCP ENERGY (AU)                 8.3489688991424E-02
 TOTAL ENERGY + DISP + GCP (AU) -1.2890712184437E+03

 *******************************************************************************

 EIGENVECTORS IN FORTRAN UNIT 10
 TTTTTTTTTTTTTTTTTTTTTTTTTTTTTT END         TELAPSE      108.67 TCPU     3029.53
 EEEEEEEEEE TERMINATION  DATE 19 02 2026 TIME 18:21:02.4
