 Default number of threads is:           32

         
 *******************************************************************************
 *                                                                             *
 *                               CRYSTAL23                                     *
 *                      public : 1.0.1 - October 2022                          *
 *                       HTTP://WWW.CRYSTAL.UNITO.IT                           *
 *                                                                             *
 *                              MAIN AUTHORS                                   *
 *                                                                             *
 *  R. DOVESI(1,11), V.R. SAUNDERS(2), C. ROETTI(1,11), R. ORLANDO(1,11),      *
 *  C.M. ZICOVICH-WILSON(1,3), F. PASCALE(4), B. CIVALLERI(1,11),              *
 *  K. DOLL(5), N.M. HARRISON(6), I.J. BUSH(7), Ph. D'ARCO(8),                 *
 *  M. LLUNELL(9), M. CAUSA'(10), Y. NOEL(8), L. MASCHIO(1,11), A. ERBA(1,11)  *
 *  M. RE'RAT(14), S. CASASSA(1,11), B.G. SEARLE(2), J.K. DESMARAIS(1)         *
 *                                                                             *
 *        CONTRIBUTIONS TO THE CODE HAVE ALSO BEEN GIVEN BY                    *
 *                                                                             *
 *  M. FERRABONE(1,11), M. DE LA PIERRE(1,11), M. FERRERO(1,11),               *
 *  J. BAIMA(1,11), E. ALBANESE(1,11), M.F. PEINTINGER(12), R. BAST(13),       *
 *  B. KIRTMAN(15), V. LACIVITA(1,11), R. DEMICHELIS(1,16)                     *
 *  G. BRANDEBURG(17), S. SALUSTRO(1,11), G. SANSONE(1,11)                     *
 *  M.T. RUGGIERO(18), L.E. DAGA(1), L. DONA'(1), A. COSSARD(1)                *
 *                                                                             *
 * (1) THEORETICAL CHEMISTRY GROUP - UNIVERSITA' DI TORINO - TORINO (ITALY)    *
 * (2) SCIENTIFIC COMPUTING DEPARTMENT - STFC DARESBURY (UK)                   *
 * (3) UNIVERSIDAD AUTONOMA DEL ESTADO DE MORELOS - CUERNAVACA (MEXICO)        *
 * (4) UNIVERSITE' DE LORRAINE - NANCY (FRANCE)                                *
 * (5) UNIVERSITAET STUTTGART- STUTTGART (GERMANY)                             *
 * (6) IMPERIAL COLLEGE - LONDON (UK)                                          *
 * (7) SCIENTIFIC COMPUTING DEPARTMENT - STFC RAL (UK)                         *
 * (8) UPMC - SORBONNE UNIVERSITES - PARIS (FRANCE)                            *
 * (9) UNIVERSIDAD DE BARCELONA - BARCELONA (SPAIN)                            *
 *(10) UNIVERSITA' DI NAPOLI "FEDERICO II" - NAPOLI (ITALY)                    *
 *(11) NIS - NANOSTRUCTURED INTERFACES AND SURFACES - TORINO (ITALY)           *
 *(12) MPI FUER CHEMISCHE ENERGIEKONVERSION - MUELHEIM AN DER RUHR (GERMANY)   *
 *(13) UNIVERSITY OF TROMSO - TROMSO (NORWAY)                                  *
 *(14) UNIVERSITE' DE PAU ET DES PAYS DE L'ADOUR - PAU (FRANCE)                *
 *(15) UNIVERSITY OF CALIFORNIA SANTA BARBARA - SANTA BARBARA (USA)            *
 *(16) CURTIN UNIVERSITY - PERTH (AUSTRALIA)                                   *
 *(17) UNIVERSITY COLLEGE LONDON - LONDON (UK)                                 *
 *(18) UNIVERSITY OF VERMONT - BURLINGTON (USA)                                *
 *                                                                             *
 *******************************************************************************
 EEEEEEEEEE STARTING  DATE 19 02 2026 TIME 20:21:23.2
 cof-1_z39_L050_serr                                                             

 CRYSTAL CALCULATION
 (INPUT ACCORDING TO THE INTERNATIONAL TABLES FOR X-RAY CRYSTALLOGRAPHY)
 CRYSTAL FAMILY                       :  TRICLINIC   
 CRYSTAL CLASS  (GROTH - 1921)        :  TRICLINIC PEDIAL                     

 SPACE GROUP (NONCENTROSYMMETRIC)     :  P 1             

 LATTICE PARAMETERS  (ANGSTROMS AND DEGREES) - CONVENTIONAL CELL
        A           B           C        ALPHA        BETA       GAMMA
    15.02361    15.02392     7.80000    90.00032    89.99994   119.99596


 NUMBER OF IRREDUCIBLE ATOMS IN THE CONVENTIONAL CELL:   84

 INPUT COORDINATES

 ATOM AT. N.              COORDINATES
   1   5     6.136805400000E-01  2.273182200000E-01  2.506124000000E-01
   2   5     8.057969300000E-01  6.115900500000E-01  7.506124000000E-01
   3   5     7.727362000000E-01  3.863778800000E-01  2.506124100000E-01
   4   5     9.648525900000E-01  7.706497100000E-01  7.506124100000E-01
   5   5     6.136762700000E-01  3.863606700000E-01  2.493248200000E-01
   6   5     8.057926600000E-01  7.706325000000E-01  7.493248200000E-01
   7   5     2.272552500000E-01  6.136332200000E-01  2.506124100000E-01
   8   5     4.193716400000E-01  9.979050500000E-01  7.506124100000E-01
   9   5     3.863632200000E-01  6.136124500000E-01  2.506124100000E-01
  10   5     5.784796100000E-01  9.978842800000E-01  7.506124100000E-01
  11   5     3.863435000000E-01  7.727516500000E-01  2.493248200000E-01
  12   5     5.784598900000E-01  1.570234800000E-01  7.493248200000E-01
  13   1     9.030436200000E-01  3.089300500000E-01  2.479429800000E-01
  14   1     9.516001000000E-02  6.932018800000E-01  7.479429800000E-01
  15   1     9.663453000000E-02  6.910534400000E-01  2.475347800000E-01
  16   1     2.887509200000E-01  7.532527000000E-02  7.475347800000E-01
  17   1     9.029714200000E-01  5.940724300000E-01  2.474719500000E-01
  18   1     9.508781000000E-02  9.783442600000E-01  7.474719500000E-01
  19   1     9.673618000000E-02  4.056849400000E-01  2.474876200000E-01
  20   1     2.888525700000E-01  7.899567700000E-01  7.474876200000E-01
  21   1     6.910324000000E-01  9.700412000000E-02  2.520570400000E-01
  22   1     8.831487900000E-01  4.812759500000E-01  7.520570400000E-01
  23   1     3.089297200000E-01  9.034373100000E-01  2.524652700000E-01
  24   1     5.010461100000E-01  2.877091400000E-01  7.524652700000E-01
  25   1     4.058699900000E-01  9.704998000000E-02  2.525281300000E-01
  26   1     5.979863800000E-01  4.813218100000E-01  7.525281300000E-01
  27   1     5.943122100000E-01  9.033473200000E-01  2.525123600000E-01
  28   1     7.864286000000E-01  2.876191500000E-01  7.525123600000E-01
  29   1     6.910727400000E-01  5.940542100000E-01  2.479430000000E-01
  30   1     8.831891300000E-01  9.783260400000E-01  7.479430000000E-01
  31   1     3.089618300000E-01  4.056093300000E-01  2.475347500000E-01
  32   1     5.010782200000E-01  7.898811600000E-01  7.475347500000E-01
  33   1     4.058405700000E-01  3.088232500000E-01  2.474719000000E-01
  34   1     5.979569600000E-01  6.930950800000E-01  7.474719000000E-01
  35   1     5.942908800000E-01  6.909579300000E-01  2.474876700000E-01
  36   1     7.864072700000E-01  7.522976000000E-02  7.474876700000E-01
  37   6     8.918903100000E-01  4.459436900000E-01  2.492777100000E-01
  38   6     8.400670000000E-02  8.302155200000E-01  7.492777100000E-01
  39   6     9.464891100000E-01  3.927856300000E-01  2.480058000000E-01
  40   6     1.386055000000E-01  7.770574600000E-01  7.480058000000E-01
  41   6     5.338812000000E-02  6.071853000000E-01  2.478959200000E-01
  42   6     2.455045100000E-01  9.914571300000E-01  7.478959200000E-01
  43   6     9.464521100000E-01  5.536921900000E-01  2.482256700000E-01
  44   6     1.385685000000E-01  9.379640200000E-01  7.482256700000E-01
  45   6     5.342634000000E-02  4.462499700000E-01  2.473777100000E-01
  46   6     2.455427300000E-01  8.305218000000E-01  7.473777100000E-01
  47   6     1.080358900000E-01  5.540356300000E-01  2.482413600000E-01
  48   6     3.001522800000E-01  9.383074600000E-01  7.482413600000E-01
  49   6     5.540394200000E-01  1.081684600000E-01  2.507223300000E-01
  50   6     7.461558100000E-01  4.924402900000E-01  7.507223300000E-01
  51   6     6.071778500000E-01  5.355594000000E-02  2.519942200000E-01
  52   6     7.992942400000E-01  4.378277700000E-01  7.519942200000E-01
  53   6     3.927986700000E-01  9.466631600000E-01  2.521041300000E-01
  54   6     5.849150600000E-01  3.309349900000E-01  7.521041300000E-01
  55   6     4.462875800000E-01  5.360286000000E-02  2.517744000000E-01
  56   6     6.384039700000E-01  4.378746900000E-01  7.517744000000E-01
  57   6     5.537168500000E-01  9.466235600000E-01  2.526223000000E-01
  58   6     7.458332400000E-01  3.308953900000E-01  7.526223000000E-01
  59   6     4.459279100000E-01  8.919920600000E-01  2.517586700000E-01
  60   6     6.380443000000E-01  2.762638900000E-01  7.517586800000E-01
  61   6     5.540448700000E-01  4.458745500000E-01  2.492777100000E-01
  62   6     7.461612600000E-01  8.301463800000E-01  7.492777100000E-01
  63   6     6.072102200000E-01  5.536257800000E-01  2.480058200000E-01
  64   6     7.993266100000E-01  9.378976100000E-01  7.480058200000E-01
  65   6     3.928233700000E-01  4.461720300000E-01  2.478959000000E-01
  66   6     5.849397600000E-01  8.304438600000E-01  7.478959000000E-01
  67   6     4.462872600000E-01  3.926899900000E-01  2.482256300000E-01
  68   6     6.384036500000E-01  7.769618200000E-01  7.482256300000E-01
  69   6     5.537429600000E-01  6.070980000000E-01  2.473777400000E-01
  70   6     7.458593500000E-01  9.913698300000E-01  7.473777400000E-01
  71   6     4.459599800000E-01  5.539582300000E-01  2.482413600000E-01
  72   6     6.380763700000E-01  9.382300600000E-01  7.482413600000E-01
  73   8     5.607366800000E-01  2.803706300000E-01  2.496702700000E-01
  74   8     7.528530700000E-01  6.646424600000E-01  7.496702700000E-01
  75   8     7.196817000000E-01  2.803783300000E-01  2.523867700000E-01
  76   8     9.117980900000E-01  6.646501600000E-01  7.523867700000E-01
  77   8     7.196794200000E-01  4.393234600000E-01  2.482884700000E-01
  78   8     9.117958100000E-01  8.235952900000E-01  7.482884700000E-01
  79   8     2.803245100000E-01  7.196511100000E-01  2.496702800000E-01
  80   8     4.724409000000E-01  1.039229400000E-01  7.496702800000E-01
  81   8     2.803439700000E-01  5.606956100000E-01  2.523867600000E-01
  82   8     4.724603600000E-01  9.449674400000E-01  7.523867600000E-01
  83   8     4.392638400000E-01  7.196354200000E-01  2.482884600000E-01
  84   8     6.313802300000E-01  1.039072500000E-01  7.482884600000E-01

 *******************************************************************************

 << INFORMATION >>: FROM NOW ON, ALL COORDINATES REFER TO THE PRIMITIVE CELL

 *******************************************************************************

 LATTICE PARAMETERS  (ANGSTROMS AND DEGREES) - PRIMITIVE CELL
       A          B          C        ALPHA      BETA     GAMMA        VOLUME
   15.02361   15.02392    7.80000    90.00032  89.99994 119.99596   1524.756075

 COORDINATES OF THE EQUIVALENT ATOMS (FRACTIONAL UNITS)

 N. ATOM EQUIV AT. N.          X                  Y                  Z

   1   1   1    5 B    -3.86319460000E-01  2.27318220000E-01  2.50612400000E-01

   2   2   1    5 B    -1.94203070000E-01 -3.88409950000E-01 -2.49387600000E-01

   3   3   1    5 B    -2.27263800000E-01  3.86377880000E-01  2.50612410000E-01

   4   4   1    5 B    -3.51474100000E-02 -2.29350290000E-01 -2.49387590000E-01

   5   5   1    5 B    -3.86323730000E-01  3.86360670000E-01  2.49324820000E-01

   6   6   1    5 B    -1.94207340000E-01 -2.29367500000E-01 -2.50675180000E-01

   7   7   1    5 B     2.27255250000E-01 -3.86366780000E-01  2.50612410000E-01

   8   8   1    5 B     4.19371640000E-01 -2.09495000000E-03 -2.49387590000E-01

   9   9   1    5 B     3.86363220000E-01 -3.86387550000E-01  2.50612410000E-01

  10  10   1    5 B    -4.21520390000E-01 -2.11572000000E-03 -2.49387590000E-01

  11  11   1    5 B     3.86343500000E-01 -2.27248350000E-01  2.49324820000E-01

  12  12   1    5 B    -4.21540110000E-01  1.57023480000E-01 -2.50675180000E-01

  13  13   1    1 H    -9.69563800000E-02  3.08930050000E-01  2.47942980000E-01

  14  14   1    1 H     9.51600100000E-02 -3.06798120000E-01 -2.52057020000E-01

  15  15   1    1 H     9.66345300000E-02 -3.08946560000E-01  2.47534780000E-01

  16  16   1    1 H     2.88750920000E-01  7.53252700000E-02 -2.52465220000E-01

  17  17   1    1 H    -9.70285800000E-02 -4.05927570000E-01  2.47471950000E-01

  18  18   1    1 H     9.50878100000E-02 -2.16557400000E-02 -2.52528050000E-01

  19  19   1    1 H     9.67361800000E-02  4.05684940000E-01  2.47487620000E-01

  20  20   1    1 H     2.88852570000E-01 -2.10043230000E-01 -2.52512380000E-01

  21  21   1    1 H    -3.08967600000E-01  9.70041200000E-02  2.52057040000E-01

  22  22   1    1 H    -1.16851210000E-01  4.81275950000E-01 -2.47942960000E-01

  23  23   1    1 H     3.08929720000E-01 -9.65626900000E-02  2.52465270000E-01

  24  24   1    1 H    -4.98953890000E-01  2.87709140000E-01 -2.47534730000E-01

  25  25   1    1 H     4.05869990000E-01  9.70499800000E-02  2.52528130000E-01

  26  26   1    1 H    -4.02013620000E-01  4.81321810000E-01 -2.47471870000E-01

  27  27   1    1 H    -4.05687790000E-01 -9.66526800000E-02  2.52512360000E-01

  28  28   1    1 H    -2.13571400000E-01  2.87619150000E-01 -2.47487640000E-01

  29  29   1    1 H    -3.08927260000E-01 -4.05945790000E-01  2.47943000000E-01

  30  30   1    1 H    -1.16810870000E-01 -2.16739600000E-02 -2.52057000000E-01

  31  31   1    1 H     3.08961830000E-01  4.05609330000E-01  2.47534750000E-01

  32  32   1    1 H    -4.98921780000E-01 -2.10118840000E-01 -2.52465250000E-01

  33  33   1    1 H     4.05840570000E-01  3.08823250000E-01  2.47471900000E-01

  34  34   1    1 H    -4.02043040000E-01 -3.06904920000E-01 -2.52528100000E-01

  35  35   1    1 H    -4.05709120000E-01 -3.09042070000E-01  2.47487670000E-01

  36  36   1    1 H    -2.13592730000E-01  7.52297600000E-02 -2.52512330000E-01

  37  37   1    6 C    -1.08109690000E-01  4.45943690000E-01  2.49277710000E-01

  38  38   1    6 C     8.40067000000E-02 -1.69784480000E-01 -2.50722290000E-01

  39  39   1    6 C    -5.35108900000E-02  3.92785630000E-01  2.48005800000E-01

  40  40   1    6 C     1.38605500000E-01 -2.22942540000E-01 -2.51994200000E-01

  41  41   1    6 C     5.33881200000E-02 -3.92814700000E-01  2.47895920000E-01

  42  42   1    6 C     2.45504510000E-01 -8.54287000000E-03 -2.52104080000E-01

  43  43   1    6 C    -5.35478900000E-02 -4.46307810000E-01  2.48225670000E-01

  44  44   1    6 C     1.38568500000E-01 -6.20359800000E-02 -2.51774330000E-01

  45  45   1    6 C     5.34263400000E-02  4.46249970000E-01  2.47377710000E-01

  46  46   1    6 C     2.45542730000E-01 -1.69478200000E-01 -2.52622290000E-01

  47  47   1    6 C     1.08035890000E-01 -4.45964370000E-01  2.48241360000E-01

  48  48   1    6 C     3.00152280000E-01 -6.16925400000E-02 -2.51758640000E-01

  49  49   1    6 C    -4.45960580000E-01  1.08168460000E-01  2.50722330000E-01

  50  50   1    6 C    -2.53844190000E-01  4.92440290000E-01 -2.49277670000E-01

  51  51   1    6 C    -3.92822150000E-01  5.35559400000E-02  2.51994220000E-01

  52  52   1    6 C    -2.00705760000E-01  4.37827770000E-01 -2.48005780000E-01

  53  53   1    6 C     3.92798670000E-01 -5.33368400000E-02  2.52104130000E-01

  54  54   1    6 C    -4.15084940000E-01  3.30934990000E-01 -2.47895870000E-01

  55  55   1    6 C     4.46287580000E-01  5.36028600000E-02  2.51774400000E-01

  56  56   1    6 C    -3.61596030000E-01  4.37874690000E-01 -2.48225600000E-01

  57  57   1    6 C    -4.46283150000E-01 -5.33764400000E-02  2.52622300000E-01

  58  58   1    6 C    -2.54166760000E-01  3.30895390000E-01 -2.47377700000E-01

  59  59   1    6 C     4.45927910000E-01 -1.08007940000E-01  2.51758670000E-01

  60  60   1    6 C    -3.61955700000E-01  2.76263890000E-01 -2.48241320000E-01

  61  61   1    6 C    -4.45955130000E-01  4.45874550000E-01  2.49277710000E-01

  62  62   1    6 C    -2.53838740000E-01 -1.69853620000E-01 -2.50722290000E-01

  63  63   1    6 C    -3.92789780000E-01 -4.46374220000E-01  2.48005820000E-01

  64  64   1    6 C    -2.00673390000E-01 -6.21023900000E-02 -2.51994180000E-01

  65  65   1    6 C     3.92823370000E-01  4.46172030000E-01  2.47895900000E-01

  66  66   1    6 C    -4.15060240000E-01 -1.69556140000E-01 -2.52104100000E-01

  67  67   1    6 C     4.46287260000E-01  3.92689990000E-01  2.48225630000E-01

  68  68   1    6 C    -3.61596350000E-01 -2.23038180000E-01 -2.51774370000E-01

  69  69   1    6 C    -4.46257040000E-01 -3.92902000000E-01  2.47377740000E-01

  70  70   1    6 C    -2.54140650000E-01 -8.63017000000E-03 -2.52622260000E-01

  71  71   1    6 C     4.45959980000E-01 -4.46041770000E-01  2.48241360000E-01

  72  72   1    6 C    -3.61923630000E-01 -6.17699400000E-02 -2.51758640000E-01

  73  73   1    8 O    -4.39263320000E-01  2.80370630000E-01  2.49670270000E-01

  74  74   1    8 O    -2.47146930000E-01 -3.35357540000E-01 -2.50329730000E-01

  75  75   1    8 O    -2.80318300000E-01  2.80378330000E-01  2.52386770000E-01

  76  76   1    8 O    -8.82019100000E-02 -3.35349840000E-01 -2.47613230000E-01

  77  77   1    8 O    -2.80320580000E-01  4.39323460000E-01  2.48288470000E-01

  78  78   1    8 O    -8.82041900000E-02 -1.76404710000E-01 -2.51711530000E-01

  79  79   1    8 O     2.80324510000E-01 -2.80348890000E-01  2.49670280000E-01

  80  80   1    8 O     4.72440900000E-01  1.03922940000E-01 -2.50329720000E-01

  81  81   1    8 O     2.80343970000E-01 -4.39304390000E-01  2.52386760000E-01

  82  82   1    8 O     4.72460360000E-01 -5.50325600000E-02 -2.47613240000E-01

  83  83   1    8 O     4.39263840000E-01 -2.80364580000E-01  2.48288460000E-01

  84  84   1    8 O    -3.68619770000E-01  1.03907250000E-01 -2.51711540000E-01

 NUMBER OF SYMMETRY OPERATORS         :    1
 *******************************************************************************
 * GEOMETRY EDITING - INPUT COORDINATES ARE GIVEN IN ANGSTROM         
 *******************************************************************************

 GCALCO - MAX INDICES DIRECT LATTICE VECTOR    12    12    21
 NO.OF VECTORS CREATED 6999 STARS 3500 RMAX   257.20960 BOHR

 GEOMETRY FOR WAVE FUNCTION - DIMENSIONALITY OF THE SYSTEM    3
 (NON PERIODIC DIRECTION: LATTICE PARAMETER FORMALLY SET TO 500)
 *******************************************************************************
 LATTICE PARAMETERS (ANGSTROMS AND DEGREES) - BOHR = 0.5291772083 ANGSTROM
 PRIMITIVE CELL - CENTRING CODE 1/0 VOLUME=  1524.756075 - DENSITY  0.850 g/cm^3
         A              B              C           ALPHA      BETA       GAMMA 
    15.02361100    15.02391600     7.80000000    90.000323  89.999944 119.995964
 *******************************************************************************
 ATOMS IN THE ASYMMETRIC UNIT   84 - ATOMS IN THE UNIT CELL:   84
     ATOM                 X/A                 Y/B                 Z/C    
 *******************************************************************************
      1 T   5 B    -3.863194600000E-01  2.273182200000E-01  2.506124000000E-01
      2 T   5 B    -1.942030700000E-01 -3.884099500000E-01 -2.493876000000E-01
      3 T   5 B    -2.272638000000E-01  3.863778800000E-01  2.506124100000E-01
      4 T   5 B    -3.514741000000E-02 -2.293502900000E-01 -2.493875900000E-01
      5 T   5 B    -3.863237300000E-01  3.863606700000E-01  2.493248200000E-01
      6 T   5 B    -1.942073400000E-01 -2.293675000000E-01 -2.506751800000E-01
      7 T   5 B     2.272552500000E-01 -3.863667800000E-01  2.506124100000E-01
      8 T   5 B     4.193716400000E-01 -2.094950000000E-03 -2.493875900000E-01
      9 T   5 B     3.863632200000E-01 -3.863875500000E-01  2.506124100000E-01
     10 T   5 B    -4.215203900000E-01 -2.115720000000E-03 -2.493875900000E-01
     11 T   5 B     3.863435000000E-01 -2.272483500000E-01  2.493248200000E-01
     12 T   5 B    -4.215401100000E-01  1.570234800000E-01 -2.506751800000E-01
     13 T   1 H    -9.695638000000E-02  3.089300500000E-01  2.479429800000E-01
     14 T   1 H     9.516001000000E-02 -3.067981200000E-01 -2.520570200000E-01
     15 T   1 H     9.663453000000E-02 -3.089465600000E-01  2.475347800000E-01
     16 T   1 H     2.887509200000E-01  7.532527000000E-02 -2.524652200000E-01
     17 T   1 H    -9.702858000000E-02 -4.059275700000E-01  2.474719500000E-01
     18 T   1 H     9.508781000000E-02 -2.165574000000E-02 -2.525280500000E-01
     19 T   1 H     9.673618000000E-02  4.056849400000E-01  2.474876200000E-01
     20 T   1 H     2.888525700000E-01 -2.100432300000E-01 -2.525123800000E-01
     21 T   1 H    -3.089676000000E-01  9.700412000000E-02  2.520570400000E-01
     22 T   1 H    -1.168512100000E-01  4.812759500000E-01 -2.479429600000E-01
     23 T   1 H     3.089297200000E-01 -9.656269000000E-02  2.524652700000E-01
     24 T   1 H    -4.989538900000E-01  2.877091400000E-01 -2.475347300000E-01
     25 T   1 H     4.058699900000E-01  9.704998000000E-02  2.525281300000E-01
     26 T   1 H    -4.020136200000E-01  4.813218100000E-01 -2.474718700000E-01
     27 T   1 H    -4.056877900000E-01 -9.665268000000E-02  2.525123600000E-01
     28 T   1 H    -2.135714000000E-01  2.876191500000E-01 -2.474876400000E-01
     29 T   1 H    -3.089272600000E-01 -4.059457900000E-01  2.479430000000E-01
     30 T   1 H    -1.168108700000E-01 -2.167396000000E-02 -2.520570000000E-01
     31 T   1 H     3.089618300000E-01  4.056093300000E-01  2.475347500000E-01
     32 T   1 H    -4.989217800000E-01 -2.101188400000E-01 -2.524652500000E-01
     33 T   1 H     4.058405700000E-01  3.088232500000E-01  2.474719000000E-01
     34 T   1 H    -4.020430400000E-01 -3.069049200000E-01 -2.525281000000E-01
     35 T   1 H    -4.057091200000E-01 -3.090420700000E-01  2.474876700000E-01
     36 T   1 H    -2.135927300000E-01  7.522976000000E-02 -2.525123300000E-01
     37 T   6 C    -1.081096900000E-01  4.459436900000E-01  2.492777100000E-01
     38 T   6 C     8.400670000000E-02 -1.697844800000E-01 -2.507222900000E-01
     39 T   6 C    -5.351089000000E-02  3.927856300000E-01  2.480058000000E-01
     40 T   6 C     1.386055000000E-01 -2.229425400000E-01 -2.519942000000E-01
     41 T   6 C     5.338812000000E-02 -3.928147000000E-01  2.478959200000E-01
     42 T   6 C     2.455045100000E-01 -8.542870000000E-03 -2.521040800000E-01
     43 T   6 C    -5.354789000000E-02 -4.463078100000E-01  2.482256700000E-01
     44 T   6 C     1.385685000000E-01 -6.203598000000E-02 -2.517743300000E-01
     45 T   6 C     5.342634000000E-02  4.462499700000E-01  2.473777100000E-01
     46 T   6 C     2.455427300000E-01 -1.694782000000E-01 -2.526222900000E-01
     47 T   6 C     1.080358900000E-01 -4.459643700000E-01  2.482413600000E-01
     48 T   6 C     3.001522800000E-01 -6.169254000000E-02 -2.517586400000E-01
     49 T   6 C    -4.459605800000E-01  1.081684600000E-01  2.507223300000E-01
     50 T   6 C    -2.538441900000E-01  4.924402900000E-01 -2.492776700000E-01
     51 T   6 C    -3.928221500000E-01  5.355594000000E-02  2.519942200000E-01
     52 T   6 C    -2.007057600000E-01  4.378277700000E-01 -2.480057800000E-01
     53 T   6 C     3.927986700000E-01 -5.333684000000E-02  2.521041300000E-01
     54 T   6 C    -4.150849400000E-01  3.309349900000E-01 -2.478958700000E-01
     55 T   6 C     4.462875800000E-01  5.360286000000E-02  2.517744000000E-01
     56 T   6 C    -3.615960300000E-01  4.378746900000E-01 -2.482256000000E-01
     57 T   6 C    -4.462831500000E-01 -5.337644000000E-02  2.526223000000E-01
     58 T   6 C    -2.541667600000E-01  3.308953900000E-01 -2.473777000000E-01
     59 T   6 C     4.459279100000E-01 -1.080079400000E-01  2.517586700000E-01
     60 T   6 C    -3.619557000000E-01  2.762638900000E-01 -2.482413200000E-01
     61 T   6 C    -4.459551300000E-01  4.458745500000E-01  2.492777100000E-01
     62 T   6 C    -2.538387400000E-01 -1.698536200000E-01 -2.507222900000E-01
     63 T   6 C    -3.927897800000E-01 -4.463742200000E-01  2.480058200000E-01
     64 T   6 C    -2.006733900000E-01 -6.210239000000E-02 -2.519941800000E-01
     65 T   6 C     3.928233700000E-01  4.461720300000E-01  2.478959000000E-01
     66 T   6 C    -4.150602400000E-01 -1.695561400000E-01 -2.521041000000E-01
     67 T   6 C     4.462872600000E-01  3.926899900000E-01  2.482256300000E-01
     68 T   6 C    -3.615963500000E-01 -2.230381800000E-01 -2.517743700000E-01
     69 T   6 C    -4.462570400000E-01 -3.929020000000E-01  2.473777400000E-01
     70 T   6 C    -2.541406500000E-01 -8.630170000000E-03 -2.526222600000E-01
     71 T   6 C     4.459599800000E-01 -4.460417700000E-01  2.482413600000E-01
     72 T   6 C    -3.619236300000E-01 -6.176994000000E-02 -2.517586400000E-01
     73 T   8 O    -4.392633200000E-01  2.803706300000E-01  2.496702700000E-01
     74 T   8 O    -2.471469300000E-01 -3.353575400000E-01 -2.503297300000E-01
     75 T   8 O    -2.803183000000E-01  2.803783300000E-01  2.523867700000E-01
     76 T   8 O    -8.820191000000E-02 -3.353498400000E-01 -2.476132300000E-01
     77 T   8 O    -2.803205800000E-01  4.393234600000E-01  2.482884700000E-01
     78 T   8 O    -8.820419000000E-02 -1.764047100000E-01 -2.517115300000E-01
     79 T   8 O     2.803245100000E-01 -2.803488900000E-01  2.496702800000E-01
     80 T   8 O     4.724409000000E-01  1.039229400000E-01 -2.503297200000E-01
     81 T   8 O     2.803439700000E-01 -4.393043900000E-01  2.523867600000E-01
     82 T   8 O     4.724603600000E-01 -5.503256000000E-02 -2.476132400000E-01
     83 T   8 O     4.392638400000E-01 -2.803645800000E-01  2.482884600000E-01
     84 T   8 O    -3.686197700000E-01  1.039072500000E-01 -2.517115400000E-01

 T = ATOM BELONGING TO THE ASYMMETRIC UNIT

 ****    1 SYMMOPS - TRANSLATORS IN FRACTIONAL UNITS
 **** MATRICES AND TRANSLATORS IN THE CRYSTALLOGRAPHIC REFERENCE FRAME
   V INV                    ROTATION MATRICES                   TRANSLATORS
   1   1  1.00 -0.00  0.00  0.00  1.00  0.00 -0.00 -0.00  1.00  0.00  0.00  0.00

 DIRECT LATTICE VECTORS CARTESIAN COMPONENTS (ANGSTROM)
          X                    Y                    Z
   0.130113578931E+02  -0.751088897922E+01   0.000000000000E+00
   0.000000000000E+00   0.150239160000E+02   0.000000000000E+00
  -0.165804004088E-04  -0.439718251730E-04   0.779999999986E+01


 CARTESIAN COORDINATES - PRIMITIVE CELL
 *******************************************************************************
 *      ATOM          X(ANGSTROM)         Y(ANGSTROM)         Z(ANGSTROM)
 *******************************************************************************
    1     5 B    -5.026544910366E+00  6.316801397236E+00  1.954776719965E+00
    2     5 B    -2.526841512754E+00 -4.376789798143E+00 -1.945223279965E+00
    3     5 B    -2.957014793190E+00  7.511850964288E+00  1.954776797965E+00
    4     5 B    -4.573113955779E-01 -3.181740231091E+00 -1.945223201965E+00
    5     5 B    -5.026600447516E+00 -6.317642065417E+00  1.944733595965E+00
    6     5 B    -2.526897049904E+00 -1.987317260796E+00 -1.955266403965E+00
    7     5 B     2.956895235572E+00 -7.511642020490E+00  1.954776797965E+00
    8     5 B     5.456598633184E+00 -3.181317215869E+00 -1.945223201965E+00
    9     5 B     5.027105976880E+00  6.316919634397E+00  1.954776797965E+00
   10     5 B    -5.484548518565E+00  3.134217418234E+00 -1.945223201965E+00
   11     5 B     5.026849414251E+00 -6.315954221148E+00  1.944733595965E+00
   12     5 B     7.526552811863E+00 -1.985629416527E+00 -1.955266403965E+00
   13     1 H    -1.261538271189E+00  5.369556824577E+00  1.933955243965E+00
   14     1 H     1.238165126423E+00 -5.324034370802E+00 -1.966044755964E+00
   15     1 H     1.257342350432E+00 -5.367409276874E+00  1.930771283965E+00
   16     1 H     3.757045748044E+00 -1.037084472253E+00 -1.969228715964E+00
   17     1 H    -1.262477683419E+00 -5.369861703366E+00  1.930281209965E+00
   18     1 H     1.237225714193E+00 -1.039536898745E+00 -1.969718789964E+00
   19     1 H     1.258664955743E+00  5.368390870289E+00  1.930403435965E+00
   20     1 H     3.758368353356E+00 -5.325200325090E+00 -1.969596563964E+00
   21     1 H    -4.020092200165E+00  3.777992008901E+00  1.966044911964E+00
   22     1 H    -1.520388802553E+00 -6.915599186478E+00 -1.933955087965E+00
   23     1 H     4.019590964746E+00 -3.771097673953E+00  1.969229105964E+00
   24     1 H     6.519294362359E+00  5.592271306678E-01 -1.930770893965E+00
   25     1 H     5.280915510924E+00 -1.590384791687E+00  1.969719413964E+00
   26     1 H    -5.230738984521E+00 -4.773087007849E+00 -1.930280585965E+00
   27     1 H    -5.278553215289E+00  1.594963101989E+00  1.969596407964E+00
   28     1 H    -2.778849817677E+00  5.925287906610E+00 -1.930403591965E+00
   29     1 H    -4.019567253776E+00 -3.778587999506E+00  1.933955399965E+00
   30     1 H    -1.519863856163E+00  5.517368051147E-01 -1.966044599964E+00
   31     1 H     4.020008841198E+00  3.773251614236E+00  1.930771049965E+00
   32     1 H    -6.491645654246E+00  5.905493980735E-01 -1.969228949964E+00
   33     1 H     5.280532800609E+00  1.591500220524E+00  1.930280819965E+00
   34     1 H    -5.231121694835E+00 -1.591201995639E+00 -1.969719179964E+00
   35     1 H    -5.278830664242E+00 -1.595796824455E+00  1.930403825965E+00
   36     1 H    -2.779127266629E+00  2.734527980166E+00 -1.969596173964E+00
   37     6 C    -1.406658001422E+00  7.511809457262E+00  1.944366137965E+00
   38     6 C     1.093045396191E+00 -3.181781738117E+00 -1.955633861965E+00
   39     6 C    -6.962534530014E-01  6.303081759828E+00  1.934445239965E+00
   40     6 C     1.803449944611E+00 -4.390509435551E+00 -1.965554759964E+00
   41     6 C     6.946478263438E-01 -6.302618198930E+00  1.933588175965E+00
   42     6 C     3.194351223956E+00 -1.972293394309E+00 -1.966411823964E+00
   43     6 C    -6.967348768890E-01 -6.303109705658E+00  1.936160225965E+00
   44     6 C     1.802968520723E+00 -1.972784901037E+00 -1.963839773964E+00
   45     6 C     6.951451290346E-01  6.303131878327E+00  1.929546137965E+00
   46     6 C     3.194848526647E+00 -4.390459317052E+00 -1.970453861964E+00
   47     6 C     1.405689514144E+00 -7.511587725059E+00  1.936282607965E+00
   48     6 C     3.905392911756E+00 -3.181262920438E+00 -1.963717391964E+00
   49     6 C     7.208801023405E+00 -2.536225741559E+00  1.955634173965E+00
   50     6 C    -3.302853472039E+00 -5.718927957721E+00 -1.944365825965E+00
   51     6 C    -5.111153760135E+00  3.755052420442E+00  1.965554915964E+00
   52     6 C    -2.611450362523E+00 -6.938538774937E+00 -1.934445083965E+00
   53     6 C     5.110839895299E+00 -3.751606490898E+00  1.966412213964E+00
   54     6 C     7.610543292911E+00  5.787183137230E-01 -1.933587785965E+00
   55     6 C     5.806803252086E+00 -2.546702671163E+00  1.963840319964E+00
   56     6 C    -4.704851243359E+00 -5.729404887326E+00 -1.936159679965E+00
   57     6 C    -5.806753974870E+00  2.550048933742E+00  1.970453939964E+00
   58     6 C    -3.307050577257E+00  6.880373738363E+00 -1.929546059965E+00
   59     6 C     5.802123457253E+00 -4.972028312925E+00  1.963717625964E+00
   60     6 C     8.301826854865E+00 -6.417035083047E-01 -1.936282295965E+00
   61     6 C     7.208871959258E+00  2.537401316468E+00  1.944366137965E+00
   62     6 C    -3.302782536187E+00 -6.453008996950E-01 -1.955633861965E+00
   63     6 C    -5.110732516351E+00 -3.756099261363E+00  1.934445395965E+00
   64     6 C    -2.611029118739E+00  5.742255432578E-01 -1.965554603964E+00
   65     6 C     5.111161345613E+00  3.752787479323E+00  1.933588019965E+00
   66     6 C    -5.400493149831E+00  5.700852631601E-01 -1.966411979964E+00
   67     6 C     5.806799147291E+00  2.547716446168E+00  1.936159913965E+00
   68     6 C    -4.704855348153E+00 -6.349857699944E-01 -1.963840085964E+00
   69     6 C    -5.806414161358E+00 -2.551150438249E+00  1.929546371965E+00
   70     6 C    -3.306710763746E+00  1.779174366372E+00 -1.970453627964E+00
   71     6 C     5.802540789819E+00  4.973055100449E+00  1.936282607965E+00
   72     6 C    -4.709113705625E+00  1.790352884287E+00 -1.963717391964E+00
   73     8 O     7.295941487611E+00  6.228654751916E-04  1.947428105965E+00
   74     8 O    -3.215713007833E+00 -3.182079350687E+00 -1.952571893965E+00
   75     8 O    -3.647325909947E+00  6.317809010376E+00  1.968616805964E+00
   76     8 O    -1.147622512335E+00 -4.375782185003E+00 -1.931383193965E+00
   77     8 O    -3.647355507891E+00 -6.318111402858E+00  1.936650065965E+00
   78     8 O    -1.147652110279E+00 -1.987786598237E+00 -1.963349933964E+00
   79     8 O     3.647398386173E+00 -6.317435425274E+00  1.947428183965E+00
   80     8 O     6.147101783785E+00 -1.987110620653E+00 -1.952571815965E+00
   81     8 O     3.647651542157E+00  6.318200213639E+00  1.968616727964E+00
   82     8 O     6.147354939769E+00 -4.375390981740E+00 -1.931383271965E+00
   83     8 O    -7.295942978060E+00 -5.577725998786E-04  1.936649987965E+00
   84     8 O    -4.796239580448E+00  4.329767032021E+00 -1.963350011964E+00

 *******************************************************************************
 STARTING BASIS SET HANDLING 
 *******************************************************************************

 Loading internal basis set: SOLDEF2MSVP         

 Please cite in your publication:
 L. Dona', J. G. Brandenburg and B. Civalleri, J. Chem. Phys., 151, 121101 (2019
 )                                                                              
                                                                                
                    

 *******************************************************************************
 LOCAL ATOMIC FUNCTIONS BASIS SET
 *******************************************************************************
   ATOM   X(AU)   Y(AU)   Z(AU)  N. TYPE  EXPONENT  S COEF   P COEF   D/F/G COEF
 *******************************************************************************
   1 B   -9.499  11.937   3.694
                                  1 S  
                                         2.410E+03 1.755E-03 0.000E+00 0.000E+00
                                         3.619E+02 1.344E-02 0.000E+00 0.000E+00
                                         8.231E+01 6.637E-02 0.000E+00 0.000E+00
                                         2.311E+01 2.303E-01 0.000E+00 0.000E+00
                                         7.252E+00 5.150E-01 0.000E+00 0.000E+00
                                  2 S  
                                         2.367E+00 1.000E+00 0.000E+00 0.000E+00
                                  3 S  
                                         5.533E-01 1.000E+00 0.000E+00 0.000E+00
                                  4 S  
                                         1.716E-01 1.000E+00 0.000E+00 0.000E+00
                           5-     7 P  
                                         6.002E+00 0.000E+00-3.555E-02 0.000E+00
                                         1.240E+00 0.000E+00-1.983E-01 0.000E+00
                                         3.367E-01 0.000E+00-5.048E-01 0.000E+00
                           8-    10 P  
                                         1.256E-01 0.000E+00 1.000E+00 0.000E+00
                          11-    15 D  
                                         8.880E-01 0.000E+00 0.000E+00 1.000E+00
   2 B   -4.775  -8.271  -3.676
   3 B   -5.588  14.195   3.694
   4 B   -0.864  -6.013  -3.676
   5 B   -9.499 -11.939   3.675
   6 B   -4.775  -3.755  -3.695
   7 B    5.588 -14.195   3.694
   8 B   10.311  -6.012  -3.676
   9 B    9.500  11.937   3.694
  10 B  -10.364   5.923  -3.676
  11 B    9.499 -11.935   3.675
  12 B   14.223  -3.752  -3.695
  13 H   -2.384  10.147   3.655
                                181 S  
                                         1.874E+01 1.968E-02 0.000E+00 0.000E+00
                                         2.826E+00 1.380E-01 0.000E+00 0.000E+00
                                         6.401E-01 4.783E-01 0.000E+00 0.000E+00
                                182 S  
                                         1.756E-01 1.000E+00 0.000E+00 0.000E+00
  14 H    2.340 -10.061  -3.715
  15 H    2.376 -10.143   3.649
  16 H    7.100  -1.960  -3.721
  17 H   -2.386 -10.148   3.648
  18 H    2.338  -1.964  -3.722
  19 H    2.379  10.145   3.648
  20 H    7.102 -10.063  -3.722
  21 H   -7.597   7.139   3.715
  22 H   -2.873 -13.069  -3.655
  23 H    7.596  -7.126   3.721
  24 H   12.320   1.057  -3.649
  25 H    9.979  -3.005   3.722
  26 H   -9.885  -9.020  -3.648
  27 H   -9.975   3.014   3.722
  28 H   -5.251  11.197  -3.648
  29 H   -7.596  -7.140   3.655
  30 H   -2.872   1.043  -3.715
  31 H    7.597   7.130   3.649
  32 H  -12.267   1.116  -3.721
  33 H    9.979   3.007   3.648
  34 H   -9.885  -3.007  -3.722
  35 H   -9.976  -3.016   3.648
  36 H   -5.252   5.168  -3.722
  37 C   -2.658  14.195   3.674
                                229 S  
                                         3.624E+03 1.634E-03 0.000E+00 0.000E+00
                                         5.440E+02 1.252E-02 0.000E+00 0.000E+00
                                         1.237E+02 6.211E-02 0.000E+00 0.000E+00
                                         3.476E+01 2.182E-01 0.000E+00 0.000E+00
                                         1.093E+01 4.980E-01 0.000E+00 0.000E+00
                                230 S  
                                         3.574E+00 1.000E+00 0.000E+00 0.000E+00
                                231 S  
                                         7.742E-01 1.000E+00 0.000E+00 0.000E+00
                                232 S  
                                         2.330E-01 1.000E+00 0.000E+00 0.000E+00
                         233-   235 P  
                                         9.443E+00 0.000E+00 3.790E-02 0.000E+00
                                         2.002E+00 0.000E+00 2.082E-01 0.000E+00
                                         5.463E-01 0.000E+00 5.047E-01 0.000E+00
                         236-   238 P  
                                         1.820E-01 0.000E+00 1.000E+00 0.000E+00
                         239-   243 D  
                                         8.880E-01 0.000E+00 0.000E+00 1.000E+00
  38 C    2.066  -6.013  -3.696
  39 C   -1.316  11.911   3.656
  40 C    3.408  -8.297  -3.714
  41 C    1.313 -11.910   3.654
  42 C    6.036  -3.727  -3.716
  43 C   -1.317 -11.911   3.659
  44 C    3.407  -3.728  -3.711
  45 C    1.314  11.911   3.646
  46 C    6.037  -8.297  -3.724
  47 C    2.656 -14.195   3.659
  48 C    7.380  -6.012  -3.711
  49 C   13.623  -4.793   3.696
  50 C   -6.241 -10.807  -3.674
  51 C   -9.659   7.096   3.714
  52 C   -4.935 -13.112  -3.656
  53 C    9.658  -7.090   3.716
  54 C   14.382   1.094  -3.654
  55 C   10.973  -4.813   3.711
  56 C   -8.891 -10.827  -3.659
  57 C  -10.973   4.819   3.724
  58 C   -6.249  13.002  -3.646
  59 C   10.964  -9.396   3.711
  60 C   15.688  -1.213  -3.659
  61 C   13.623   4.795   3.674
  62 C   -6.241  -1.219  -3.696
  63 C   -9.658  -7.098   3.656
  64 C   -4.934   1.085  -3.714
  65 C    9.659   7.092   3.654
  66 C  -10.205   1.077  -3.716
  67 C   10.973   4.814   3.659
  68 C   -8.891  -1.200  -3.711
  69 C  -10.973  -4.821   3.646
  70 C   -6.249   3.362  -3.724
  71 C   10.965   9.398   3.659
  72 C   -8.899   3.383  -3.711
  73 O   13.787   0.001   3.680
                                769 S  
                                         6.773E+03 1.727E-03 0.000E+00 0.000E+00
                                         1.017E+03 1.325E-02 0.000E+00 0.000E+00
                                         2.313E+02 6.603E-02 0.000E+00 0.000E+00
                                         6.501E+01 2.353E-01 0.000E+00 0.000E+00
                                         2.050E+01 5.498E-01 0.000E+00 0.000E+00
                                770 S  
                                         6.716E+00 1.000E+00 0.000E+00 0.000E+00
                                771 S  
                                         1.147E+00 1.000E+00 0.000E+00 0.000E+00
                                772 S  
                                         3.342E-01 1.000E+00 0.000E+00 0.000E+00
                         773-   775 P  
                                         1.769E+01 0.000E+00 4.359E-02 0.000E+00
                                         3.854E+00 0.000E+00 2.318E-01 0.000E+00
                                         1.047E+00 0.000E+00 5.146E-01 0.000E+00
                         776-   778 P  
                                         2.759E-01 0.000E+00 1.000E+00 0.000E+00
                         779-   783 D  
                                         8.000E-01 0.000E+00 0.000E+00 1.000E+00
  74 O   -6.077  -6.013  -3.690
  75 O   -6.892  11.939   3.720
  76 O   -2.169  -8.269  -3.650
  77 O   -6.893 -11.940   3.660
  78 O   -2.169  -3.756  -3.710
  79 O    6.893 -11.938   3.680
  80 O   11.616  -3.755  -3.690
  81 O    6.893  11.940   3.720
  82 O   11.617  -8.268  -3.650
  83 O  -13.787  -0.001   3.660
  84 O   -9.064   8.182  -3.710

 *******************************************************************************
 FINISHED BASIS SET HANDLING 
 *******************************************************************************

 INFORMATION **** SET_MPP **** PCRYSTAL CALCULATION
 INFORMATION **** READM2 **** NEW DEFAULT: FOCK/KS MATRIX MIXING SET TO 30 %
 INFORMATION **** READM2 **** NEW DEFAULT: FULL DIRECT SCF MODE
 INFORMATION **** READM2 **** NEW DEFAULT: COULOMB BIPOLAR BUFFER SET TO 32 Mb
 INFORMATION **** READM2 **** NEW DEFAULT: EXCHANGE BIPOLAR BUFFER SET TO 32 Mb

 *******************************************************************************
 NEW DEFAULT: DFT INTEGRATION GRID INCREASED TO XLGRID
 NEW DEFAULT: DIIS ACCELERATOR ACTIVE
 USE KEYWORD NODIIS TO TURN IT OFF
 *******************************************************************************

 WARNING **** RDDFTP **** HSEsol-HJS ACTIVE
 RANGE SEPARATION - OMEGA:   0.110000000000000     
 WARNING **** RDDFTP **** HSEsol-3c has to be combined with sol-def2-mSVP basis set
 *******************************************************************************
 N. OF ATOMS PER CELL        84  COULOMB OVERLAP TOL         (T1) 10**   -6
 NUMBER OF SHELLS           468  COULOMB PENETRATION TOL     (T2) 10**   -6
 NUMBER OF AO               948  EXCHANGE OVERLAP TOL        (T3) 10**   -6
 N. OF ELECTRONS PER CELL   396  EXCHANGE PSEUDO OVP (F(G))  (T4) 10**   -6
 CORE ELECTRONS PER CELL    120  EXCHANGE PSEUDO OVP (P(G))  (T5) 10**  -12
 N. OF SYMMETRY OPERATORS     1  POLE ORDER IN MONO ZONE                  4
 *******************************************************************************
 TYPE OF CALCULATION :  RESTRICTED CLOSED SHELL
 KOHN-SHAM HAMILTONIAN

 (EXCHANGE)[CORRELATION] FUNCTIONAL:(HSEsol GGA)[PBEsol]

 RANGE-SEPARATED HYBRID FUNCTIONAL 
 OMEGA (SHORT-RANGE)[LONG-RANGE]:(    0.1100)[    0.0000]

 HYBRID EXCHANGE - PERCENTAGE OF FOCK EXCHANGE    25.0000

 CAPPA:IS1  2;IS2  2;IS3  8; K PTS MONK NET  20; SYMMOPS:K SPACE   2;G SPACE   1

 *******************************************************************************
 MAX NUMBER OF SCF CYCLES      50  CONVERGENCE ON DELTAP        10**-16
 WEIGHT OF F(I) IN F(I+1)      30% CONVERGENCE ON ENERGY        10**- 6
 SHRINK. FACT.(MONKH.)    2  2  8  NUMBER OF K POINTS IN THE IBZ     20
 SHRINKING FACTOR(GILAT NET)    8  NUMBER OF K POINTS(GILAT NET)   1028
 *******************************************************************************
 *** K POINTS COORDINATES (OBLIQUE COORDINATES IN UNITS OF IS =  2)
   1-R(  0  0  0)   2-R(  1  0  0)   3-R(  0  1  0)   4-R(  1  1  0)
   5-C(  0  0  1)   6-C(  1  0  1)   7-C(  0  1  1)   8-C(  1  1  1)
   9-C(  0  0  2)  10-C(  1  0  2)  11-C(  0  1  2)  12-C(  1  1  2)
  13-C(  0  0  3)  14-C(  1  0  3)  15-C(  0  1  3)  16-C(  1  1  3)
  17-R(  0  0  4)  18-R(  1  0  4)  19-R(  0  1  4)  20-R(  1  1  4)

 DIRECT LATTICE VECTORS COMPON. (A.U.)     RECIP. LATTICE VECTORS COMPON. (A.U.) 
        X            Y            Z              X            Y            Z
   24.5879030  -14.1935232    0.0000000      0.2555397    0.0000000    0.0000005
    0.0000000   28.3910867    0.0000000      0.1277517    0.2213084    0.0000015
   -0.0000313   -0.0000831   14.7398638      0.0000000    0.0000000    0.4262716

 DISK SPACE FOR EIGENVECTORS (FTN 10)    28758528 REALS

 SYMMETRY ADAPTION OF THE BLOCH FUNCTIONS DISABLED
 TTTTTTTTTTTTTTTTTTTTTTTTTTTTTT gordsh1     TELAPSE        0.06 TCPU        0.05

 MATRIX SIZE: P(G)  639344, F(G)  125481, P(G) IRR  321610, F(G) IRR  126513
 MAX G-VECTOR INDEX FOR 1- AND 2-ELECTRON INTEGRALS  43

 TTTTTTTTTTTTTTTTTTTTTTTTTTTTTT INPUT       TELAPSE        2.72 TCPU        2.71

 NEIGHBORS OF THE NON-EQUIVALENT ATOMS

 N = NUMBER OF NEIGHBORS AT DISTANCE R
    ATOM  N     R/ANG      R/AU   NEIGHBORS (ATOM LABELS AND CELL INDICES)
   1 B    1     1.3791     2.6061   73 O   -1 0 0
   1 B    1     1.3793     2.6065   75 O    0 0 0
   1 B    1     1.5503     2.9297   49 C   -1 0 0
   1 B    1     2.3895     4.5155    5 B    0 1 0
   1 B    1     2.3898     4.5160    3 B    0 0 0
   1 B    1     2.5632     4.8437   51 C    0 0 0

   2 B    1     1.3791     2.6061   74 O    0 0 0
   2 B    1     1.3793     2.6065   76 O    0 0 0
   2 B    1     1.5503     2.9297   50 C    0 0 0
   2 B    1     2.3895     4.5155    6 B    0 0 0
   2 B    1     2.3898     4.5160    4 B    0 0 0
   2 B    1     2.5632     4.8437   52 C    0 0 0

   3 B    1     1.3793     2.6065   77 O    0 1 0
   3 B    1     1.3793     2.6065   75 O    0 0 0
   3 B    1     1.5504     2.9298   37 C    0 0 0
   3 B    1     2.3895     4.5156    5 B    0 1 0
   3 B    1     2.3898     4.5160    1 B    0 0 0
   3 B    1     2.5634     4.8440   43 C    0 1 0

   4 B    1     1.3793     2.6065   78 O    0 0 0
   4 B    1     1.3793     2.6065   76 O    0 0 0
   4 B    1     1.5504     2.9298   38 C    0 0 0
   4 B    1     2.3895     4.5156    6 B    0 0 0
   4 B    1     2.3898     4.5160    2 B    0 0 0
   4 B    1     2.5634     4.8440   44 C    0 0 0

   5 B    1     1.3791     2.6061   73 O   -1-1 0
   5 B    1     1.3793     2.6064   77 O    0 0 0
   5 B    1     1.5502     2.9294   61 C   -1-1 0
   5 B    1     2.3895     4.5155    1 B    0-1 0
   5 B    1     2.3895     4.5156    3 B    0-1 0
   5 B    1     2.5629     4.8433   63 C    0 0 0

   6 B    1     1.3791     2.6061   74 O    0 0 0
   6 B    1     1.3793     2.6064   78 O    0 0 0
   6 B    1     1.5502     2.9294   62 C    0 0 0
   6 B    1     2.3895     4.5155    2 B    0 0 0
   6 B    1     2.3895     4.5156    4 B    0 0 0
   6 B    1     2.5629     4.8433   64 C    0 0 0

   7 B    1     1.3795     2.6068   79 O    0 0 0
   7 B    1     1.3795     2.6070   81 O    0-1 0
   7 B    1     1.5513     2.9316   47 C    0 0 0
   7 B    1     2.3905     4.5174   11 B    0 0 0
   7 B    1     2.3905     4.5175    9 B    0-1 0
   7 B    1     2.5648     4.8468   45 C    0-1 0

   8 B    1     1.3795     2.6068   80 O    0 0 0
   8 B    1     1.3795     2.6070   82 O    0 0 0
   8 B    1     1.5513     2.9316   48 C    0 0 0
   8 B    1     2.3905     4.5174   12 B    0 0 0
   8 B    1     2.3905     4.5175   10 B    1 0 0
   8 B    1     2.5648     4.8468   46 C    0 0 0

   9 B    1     1.3795     2.6069   81 O    0 0 0
   9 B    1     1.3797     2.6072   83 O    1 1 0
   9 B    1     1.5516     2.9322   71 C    0 0 0
   9 B    1     2.3905     4.5175    7 B    0 1 0
   9 B    1     2.3911     4.5185   11 B    0 1 0
   9 B    1     2.5651     4.8473   69 C    1 1 0

  10 B    1     1.3795     2.6069   82 O   -1 0 0
  10 B    1     1.3797     2.6072   84 O    0 0 0
  10 B    1     1.5516     2.9322   72 C    0 0 0
  10 B    1     2.3905     4.5175    8 B   -1 0 0
  10 B    1     2.3911     4.5185   12 B   -1 0 0
  10 B    1     2.5651     4.8473   70 C    0 0 0

  11 B    1     1.3795     2.6068   79 O    0 0 0
  11 B    1     1.3796     2.6071   83 O    1 0 0
  11 B    1     1.5516     2.9322   59 C    0 0 0
  11 B    1     2.3905     4.5174    7 B    0 0 0
  11 B    1     2.3911     4.5185    9 B    0-1 0
  11 B    1     2.5651     4.8473   57 C    1 0 0

  12 B    1     1.3795     2.6068   80 O    0 0 0
  12 B    1     1.3796     2.6071   84 O    1 0 0
  12 B    1     1.5516     2.9322   60 C    0 0 0
  12 B    1     2.3905     4.5174    8 B    0 0 0
  12 B    1     2.3911     4.5185   10 B    1 0 0
  12 B    1     2.5651     4.8473   58 C    1 0 0

  13 H    1     1.0913     2.0623   39 C    0 0 0
  13 H    1     2.1472     4.0576   37 C    0 0 0
  13 H    1     2.1680     4.0969   45 C    0 0 0
  13 H    1     2.5202     4.7625   19 H    0 0 0
  13 H    1     2.5676     4.8520   75 O    0 0 0
  13 H    1     2.7321     5.1630    3 B    0 0 0

  14 H    1     1.0913     2.0623   40 C    0 0 0
  14 H    1     2.1472     4.0576   38 C    0 0 0
  14 H    1     2.1680     4.0969   46 C    0 0 0
  14 H    1     2.5202     4.7625   20 H    0 0 0
  14 H    1     2.5676     4.8520   76 O    0 0 0
  14 H    1     2.7321     5.1630    4 B    0 0 0

  15 H    1     1.0914     2.0625   41 C    0 0 0
  15 H    1     2.1493     4.0616   47 C    0 0 0
  15 H    1     2.1666     4.0942   43 C    0 0 0
  15 H    1     2.5198     4.7618   17 H    0 0 0
  15 H    1     2.5720     4.8604   79 O    0 0 0
  15 H    1     2.7362     5.1707    7 B    0 0 0

  16 H    1     1.0914     2.0625   42 C    0 0 0
  16 H    1     2.1493     4.0616   48 C    0 0 0
  16 H    1     2.1666     4.0942   44 C    0 0 0
  16 H    1     2.5198     4.7618   18 H    0 0 0
  16 H    1     2.5720     4.8604   80 O    0 0 0
  16 H    1     2.7362     5.1707    8 B    0 0 0

  17 H    1     1.0914     2.0624   43 C    0 0 0
  17 H    1     2.1471     4.0575   37 C    0-1 0
  17 H    1     2.1680     4.0970   41 C    0 0 0
  17 H    1     2.5198     4.7618   15 H    0 0 0
  17 H    1     2.5665     4.8500   77 O    0 0 0
  17 H    1     2.7315     5.1618    3 B    0-1 0

  18 H    1     1.0914     2.0624   44 C    0 0 0
  18 H    1     2.1471     4.0575   38 C    0 0 0
  18 H    1     2.1680     4.0970   42 C    0 0 0
  18 H    1     2.5198     4.7618   16 H    0 0 0
  18 H    1     2.5665     4.8500   78 O    0 0 0
  18 H    1     2.7315     5.1618    4 B    0 0 0

  19 H    1     1.0915     2.0626   45 C    0 0 0
  19 H    1     2.1490     4.0610   47 C    0 1 0
  19 H    1     2.1669     4.0948   39 C    0 0 0
  19 H    1     2.5202     4.7625   13 H    0 0 0
  19 H    1     2.5712     4.8588   81 O    0 0 0
  19 H    1     2.7351     5.1686    7 B    0 1 0

  20 H    1     1.0915     2.0626   46 C    0 0 0
  20 H    1     2.1490     4.0610   48 C    0 0 0
  20 H    1     2.1669     4.0948   40 C    0 0 0
  20 H    1     2.5202     4.7625   14 H    0 0 0
  20 H    1     2.5712     4.8588   82 O    0 0 0
  20 H    1     2.7351     5.1686    8 B    0 0 0

  21 H    1     1.0913     2.0623   51 C    0 0 0
  21 H    1     2.1469     4.0571   49 C   -1 0 0
  21 H    1     2.1680     4.0968   57 C    0 0 0
  21 H    1     2.5198     4.7617   27 H    0 0 0
  21 H    1     2.5670     4.8510   75 O    0 0 0
  21 H    1     2.7310     5.1609    1 B    0 0 0

  22 H    1     1.0913     2.0623   52 C    0 0 0
  22 H    1     2.1469     4.0571   50 C    0 0 0
  22 H    1     2.1680     4.0968   58 C    0-1 0
  22 H    1     2.5198     4.7617   28 H    0-1 0
  22 H    1     2.5670     4.8510   76 O    0 0 0
  22 H    1     2.7310     5.1609    2 B    0 0 0

  23 H    1     1.0914     2.0625   53 C    0 0 0
  23 H    1     2.1493     4.0617   59 C    0 0 0
  23 H    1     2.1664     4.0939   55 C    0 0 0
  23 H    1     2.5192     4.7606   25 H    0 0 0
  23 H    1     2.5735     4.8632   79 O    0 0 0
  23 H    1     2.7371     5.1723   11 B    0 0 0

  24 H    1     1.0914     2.0625   54 C    0 0 0
  24 H    1     2.1493     4.0617   60 C    0 0 0
  24 H    1     2.1664     4.0939   56 C    1 1 0
  24 H    1     2.5192     4.7606   26 H    1 1 0
  24 H    1     2.5735     4.8632   80 O    0 0 0
  24 H    1     2.7371     5.1723   12 B    0 0 0

  25 H    1     1.0914     2.0624   55 C    0 0 0
  25 H    1     2.1475     4.0581   49 C    0 0 0
  25 H    1     2.1679     4.0967   53 C    0 0 0
  25 H    1     2.5192     4.7606   23 H    0 0 0
  25 H    1     2.5675     4.8519   73 O    0 0 0
  25 H    1     2.7328     5.1643    1 B    1 0 0

  26 H    1     1.0914     2.0624   56 C    0 0 0
  26 H    1     2.1475     4.0581   50 C    0 0 0
  26 H    1     2.1679     4.0967   54 C   -1-1 0
  26 H    1     2.5192     4.7606   24 H   -1-1 0
  26 H    1     2.5675     4.8519   74 O    0 0 0
  26 H    1     2.7328     5.1643    2 B    0 0 0

  27 H    1     1.0914     2.0625   57 C    0 0 0
  27 H    1     2.1491     4.0612   59 C   -1 0 0
  27 H    1     2.1666     4.0942   51 C    0 0 0
  27 H    1     2.5198     4.7617   21 H    0 0 0
  27 H    1     2.5723     4.8609   83 O    0 0 0
  27 H    1     2.7355     5.1693   11 B   -1 0 0

  28 H    1     1.0914     2.0625   58 C    0 0 0
  28 H    1     2.1491     4.0612   60 C   -1 0 0
  28 H    1     2.1666     4.0942   52 C    0 1 0
  28 H    1     2.5198     4.7617   22 H    0 1 0
  28 H    1     2.5723     4.8609   84 O    0 0 0
  28 H    1     2.7355     5.1693   12 B   -1 0 0

  29 H    1     1.0914     2.0624   63 C    0 0 0
  29 H    1     2.1475     4.0582   61 C   -1-1 0
  29 H    1     2.1678     4.0966   69 C    0 0 0
  29 H    1     2.5200     4.7621   35 H    0 0 0
  29 H    1     2.5667     4.8503   77 O    0 0 0
  29 H    1     2.7315     5.1618    5 B    0 0 0

  30 H    1     1.0914     2.0624   64 C    0 0 0
  30 H    1     2.1475     4.0582   62 C    0 0 0
  30 H    1     2.1678     4.0966   70 C    0 0 0
  30 H    1     2.5200     4.7621   36 H    0 0 0
  30 H    1     2.5667     4.8503   78 O    0 0 0
  30 H    1     2.7315     5.1618    6 B    0 0 0

  31 H    1     1.0913     2.0623   65 C    0 0 0
  31 H    1     2.1487     4.0605   71 C    0 0 0
  31 H    1     2.1667     4.0945   67 C    0 0 0
  31 H    1     2.5197     4.7616   33 H    0 0 0
  31 H    1     2.5723     4.8610   81 O    0 0 0
  31 H    1     2.7359     5.1701    9 B    0 0 0

  32 H    1     1.0913     2.0623   66 C    0 0 0
  32 H    1     2.1487     4.0605   72 C    0 0 0
  32 H    1     2.1667     4.0945   68 C    0 0 0
  32 H    1     2.5197     4.7616   34 H    0 0 0
  32 H    1     2.5723     4.8610   82 O   -1 0 0
  32 H    1     2.7359     5.1701   10 B    0 0 0

  33 H    1     1.0915     2.0626   67 C    0 0 0
  33 H    1     2.1479     4.0589   61 C    0 0 0
  33 H    1     2.1679     4.0968   65 C    0 0 0
  33 H    1     2.5197     4.7616   31 H    0 0 0
  33 H    1     2.5677     4.8522   73 O    0 0 0
  33 H    1     2.7331     5.1648    5 B    1 1 0

  34 H    1     1.0915     2.0626   68 C    0 0 0
  34 H    1     2.1479     4.0589   62 C    0 0 0
  34 H    1     2.1679     4.0968   66 C    0 0 0
  34 H    1     2.5197     4.7616   32 H    0 0 0
  34 H    1     2.5677     4.8522   74 O    0 0 0
  34 H    1     2.7331     5.1648    6 B    0 0 0

  35 H    1     1.0914     2.0624   69 C    0 0 0
  35 H    1     2.1486     4.0602   71 C   -1-1 0
  35 H    1     2.1668     4.0947   63 C    0 0 0
  35 H    1     2.5200     4.7621   29 H    0 0 0
  35 H    1     2.5717     4.8598   83 O    0 0 0
  35 H    1     2.7349     5.1682    9 B   -1-1 0

  36 H    1     1.0914     2.0624   70 C    0 0 0
  36 H    1     2.1486     4.0602   72 C    0 0 0
  36 H    1     2.1668     4.0947   64 C    0 0 0
  36 H    1     2.5200     4.7621   30 H    0 0 0
  36 H    1     2.5717     4.8598   84 O    0 0 0
  36 H    1     2.7349     5.1682   10 B    0 0 0

  37 C    1     1.4020     2.6495   43 C    0 1 0
  37 C    1     1.4021     2.6495   39 C    0 0 0
  37 C    1     1.5504     2.9298    3 B    0 0 0
  37 C    1     2.1471     4.0575   17 H    0 1 0
  37 C    1     2.1472     4.0576   13 H    0 0 0
  37 C    1     2.4246     4.5817   41 C    0 1 0

  38 C    1     1.4020     2.6495   44 C    0 0 0
  38 C    1     1.4021     2.6495   40 C    0 0 0
  38 C    1     1.5504     2.9298    4 B    0 0 0
  38 C    1     2.1471     4.0575   18 H    0 0 0
  38 C    1     2.1472     4.0576   14 H    0 0 0
  38 C    1     2.4246     4.5817   42 C    0 0 0

  39 C    1     1.0913     2.0623   13 H    0 0 0
  39 C    1     1.3914     2.6294   45 C    0 0 0
  39 C    1     1.4021     2.6495   37 C    0 0 0
  39 C    1     2.1669     4.0948   19 H    0 0 0
  39 C    1     2.4177     4.5688   43 C    0 1 0
  39 C    1     2.4250     4.5825   47 C    0 1 0

  40 C    1     1.0913     2.0623   14 H    0 0 0
  40 C    1     1.3914     2.6294   46 C    0 0 0
  40 C    1     1.4021     2.6495   38 C    0 0 0
  40 C    1     2.1669     4.0948   20 H    0 0 0
  40 C    1     2.4177     4.5688   44 C    0 0 0
  40 C    1     2.4250     4.5825   48 C    0 0 0

  41 C    1     1.0914     2.0625   15 H    0 0 0
  41 C    1     1.3914     2.6293   43 C    0 0 0
  41 C    1     1.4026     2.6505   47 C    0 0 0
  41 C    1     2.1680     4.0970   17 H    0 0 0
  41 C    1     2.4182     4.5697   45 C    0-1 0
  41 C    1     2.4246     4.5817   37 C    0-1 0

  42 C    1     1.0914     2.0625   16 H    0 0 0
  42 C    1     1.3914     2.6293   44 C    0 0 0
  42 C    1     1.4026     2.6505   48 C    0 0 0
  42 C    1     2.1680     4.0970   18 H    0 0 0
  42 C    1     2.4182     4.5697   46 C    0 0 0
  42 C    1     2.4246     4.5817   38 C    0 0 0

  43 C    1     1.0914     2.0624   17 H    0 0 0
  43 C    1     1.3914     2.6293   41 C    0 0 0
  43 C    1     1.4020     2.6495   37 C    0-1 0
  43 C    1     2.1666     4.0942   15 H    0 0 0
  43 C    1     2.4177     4.5688   39 C    0-1 0
  43 C    1     2.4250     4.5826   47 C    0 0 0

  44 C    1     1.0914     2.0624   18 H    0 0 0
  44 C    1     1.3914     2.6293   42 C    0 0 0
  44 C    1     1.4020     2.6495   38 C    0 0 0
  44 C    1     2.1666     4.0942   16 H    0 0 0
  44 C    1     2.4177     4.5688   40 C    0 0 0
  44 C    1     2.4250     4.5826   48 C    0 0 0

  45 C    1     1.0915     2.0626   19 H    0 0 0
  45 C    1     1.3914     2.6294   39 C    0 0 0
  45 C    1     1.4025     2.6504   47 C    0 1 0
  45 C    1     2.1680     4.0969   13 H    0 0 0
  45 C    1     2.4182     4.5697   41 C    0 1 0
  45 C    1     2.4246     4.5818   37 C    0 0 0

  46 C    1     1.0915     2.0626   20 H    0 0 0
  46 C    1     1.3914     2.6294   40 C    0 0 0
  46 C    1     1.4025     2.6504   48 C    0 0 0
  46 C    1     2.1680     4.0969   14 H    0 0 0
  46 C    1     2.4182     4.5697   42 C    0 0 0
  46 C    1     2.4246     4.5818   38 C    0 0 0

  47 C    1     1.4025     2.6504   45 C    0-1 0
  47 C    1     1.4026     2.6505   41 C    0 0 0
  47 C    1     1.5513     2.9316    7 B    0 0 0
  47 C    1     2.1490     4.0610   19 H    0-1 0
  47 C    1     2.1493     4.0616   15 H    0 0 0
  47 C    1     2.4250     4.5825   39 C    0-1 0

  48 C    1     1.4025     2.6504   46 C    0 0 0
  48 C    1     1.4026     2.6505   42 C    0 0 0
  48 C    1     1.5513     2.9316    8 B    0 0 0
  48 C    1     2.1490     4.0610   20 H    0 0 0
  48 C    1     2.1493     4.0616   16 H    0 0 0
  48 C    1     2.4250     4.5825   40 C    0 0 0

  49 C    1     1.4020     2.6494   51 C    1 0 0
  49 C    1     1.4021     2.6495   55 C    0 0 0
  49 C    1     1.5503     2.9297    1 B    1 0 0
  49 C    1     2.1469     4.0571   21 H    1 0 0
  49 C    1     2.1475     4.0581   25 H    0 0 0
  49 C    1     2.4246     4.5818   53 C    0 0 0

  50 C    1     1.4020     2.6494   52 C    0 0 0
  50 C    1     1.4021     2.6495   56 C    0 0 0
  50 C    1     1.5503     2.9297    2 B    0 0 0
  50 C    1     2.1469     4.0571   22 H    0 0 0
  50 C    1     2.1475     4.0581   26 H    0 0 0
  50 C    1     2.4246     4.5818   54 C   -1-1 0

  51 C    1     1.0913     2.0623   21 H    0 0 0
  51 C    1     1.3914     2.6293   57 C    0 0 0
  51 C    1     1.4020     2.6494   49 C   -1 0 0
  51 C    1     2.1666     4.0942   27 H    0 0 0
  51 C    1     2.4175     4.5684   55 C   -1 0 0
  51 C    1     2.4251     4.5828   59 C   -1 0 0

  52 C    1     1.0913     2.0623   22 H    0 0 0
  52 C    1     1.3914     2.6293   58 C    0-1 0
  52 C    1     1.4020     2.6494   50 C    0 0 0
  52 C    1     2.1666     4.0942   28 H    0-1 0
  52 C    1     2.4175     4.5684   56 C    0 0 0
  52 C    1     2.4251     4.5828   60 C   -1-1 0

  53 C    1     1.0914     2.0625   23 H    0 0 0
  53 C    1     1.3915     2.6295   55 C    0 0 0
  53 C    1     1.4026     2.6505   59 C    0 0 0
  53 C    1     2.1679     4.0967   25 H    0 0 0
  53 C    1     2.4179     4.5691   57 C    1 0 0
  53 C    1     2.4246     4.5818   49 C    0 0 0

  54 C    1     1.0914     2.0625   24 H    0 0 0
  54 C    1     1.3915     2.6295   56 C    1 1 0
  54 C    1     1.4026     2.6505   60 C    0 0 0
  54 C    1     2.1679     4.0967   26 H    1 1 0
  54 C    1     2.4179     4.5691   58 C    1 0 0
  54 C    1     2.4246     4.5818   50 C    1 1 0

  55 C    1     1.0914     2.0624   25 H    0 0 0
  55 C    1     1.3915     2.6295   53 C    0 0 0
  55 C    1     1.4021     2.6495   49 C    0 0 0
  55 C    1     2.1664     4.0939   23 H    0 0 0
  55 C    1     2.4175     4.5684   51 C    1 0 0
  55 C    1     2.4253     4.5832   59 C    0 0 0

  56 C    1     1.0914     2.0624   26 H    0 0 0
  56 C    1     1.3915     2.6295   54 C   -1-1 0
  56 C    1     1.4021     2.6495   50 C    0 0 0
  56 C    1     2.1664     4.0939   24 H   -1-1 0
  56 C    1     2.4175     4.5684   52 C    0 0 0
  56 C    1     2.4253     4.5832   60 C   -1-1 0

  57 C    1     1.0914     2.0625   27 H    0 0 0
  57 C    1     1.3914     2.6293   51 C    0 0 0
  57 C    1     1.4025     2.6504   59 C   -1 0 0
  57 C    1     2.1680     4.0968   21 H    0 0 0
  57 C    1     2.4179     4.5691   53 C   -1 0 0
  57 C    1     2.4247     4.5819   49 C   -1 0 0

  58 C    1     1.0914     2.0625   28 H    0 0 0
  58 C    1     1.3914     2.6293   52 C    0 1 0
  58 C    1     1.4025     2.6504   60 C   -1 0 0
  58 C    1     2.1680     4.0968   22 H    0 1 0
  58 C    1     2.4179     4.5691   54 C   -1 0 0
  58 C    1     2.4247     4.5819   50 C    0 1 0

  59 C    1     1.4025     2.6504   57 C    1 0 0
  59 C    1     1.4026     2.6505   53 C    0 0 0
  59 C    1     1.5516     2.9322   11 B    0 0 0
  59 C    1     2.1491     4.0612   27 H    1 0 0
  59 C    1     2.1493     4.0617   23 H    0 0 0
  59 C    1     2.4251     4.5828   51 C    1 0 0

  60 C    1     1.4025     2.6504   58 C    1 0 0
  60 C    1     1.4026     2.6505   54 C    0 0 0
  60 C    1     1.5516     2.9322   12 B    0 0 0
  60 C    1     2.1491     4.0612   28 H    1 0 0
  60 C    1     2.1493     4.0617   24 H    0 0 0
  60 C    1     2.4251     4.5828   52 C    1 1 0

  61 C    1     1.4021     2.6496   63 C    1 1 0
  61 C    1     1.4021     2.6497   67 C    0 0 0
  61 C    1     1.5502     2.9294    5 B    1 1 0
  61 C    1     2.1475     4.0582   29 H    1 1 0
  61 C    1     2.1479     4.0589   33 H    0 0 0
  61 C    1     2.4244     4.5814   65 C    0 0 0

  62 C    1     1.4021     2.6496   64 C    0 0 0
  62 C    1     1.4021     2.6497   68 C    0 0 0
  62 C    1     1.5502     2.9294    6 B    0 0 0
  62 C    1     2.1475     4.0582   30 H    0 0 0
  62 C    1     2.1479     4.0589   34 H    0 0 0
  62 C    1     2.4244     4.5814   66 C    0 0 0

  63 C    1     1.0914     2.0624   29 H    0 0 0
  63 C    1     1.3914     2.6293   69 C    0 0 0
  63 C    1     1.4021     2.6496   61 C   -1-1 0
  63 C    1     2.1668     4.0947   35 H    0 0 0
  63 C    1     2.4179     4.5692   67 C   -1-1 0
  63 C    1     2.4251     4.5827   71 C   -1-1 0

  64 C    1     1.0914     2.0624   30 H    0 0 0
  64 C    1     1.3914     2.6293   70 C    0 0 0
  64 C    1     1.4021     2.6496   62 C    0 0 0
  64 C    1     2.1668     4.0947   36 H    0 0 0
  64 C    1     2.4179     4.5692   68 C    0 0 0
  64 C    1     2.4251     4.5827   72 C    0 0 0

  65 C    1     1.0913     2.0623   31 H    0 0 0
  65 C    1     1.3914     2.6294   67 C    0 0 0
  65 C    1     1.4025     2.6504   71 C    0 0 0
  65 C    1     2.1679     4.0968   33 H    0 0 0
  65 C    1     2.4178     4.5690   69 C    1 1 0
  65 C    1     2.4244     4.5814   61 C    0 0 0

  66 C    1     1.0913     2.0623   32 H    0 0 0
  66 C    1     1.3914     2.6294   68 C    0 0 0
  66 C    1     1.4025     2.6504   72 C    0 0 0
  66 C    1     2.1679     4.0968   34 H    0 0 0
  66 C    1     2.4178     4.5690   70 C    0 0 0
  66 C    1     2.4244     4.5814   62 C    0 0 0

  67 C    1     1.0915     2.0626   33 H    0 0 0
  67 C    1     1.3914     2.6294   65 C    0 0 0
  67 C    1     1.4021     2.6497   61 C    0 0 0
  67 C    1     2.1667     4.0945   31 H    0 0 0
  67 C    1     2.4179     4.5692   63 C    1 1 0
  67 C    1     2.4253     4.5832   71 C    0 0 0

  68 C    1     1.0915     2.0626   34 H    0 0 0
  68 C    1     1.3914     2.6294   66 C    0 0 0
  68 C    1     1.4021     2.6497   62 C    0 0 0
  68 C    1     2.1667     4.0945   32 H    0 0 0
  68 C    1     2.4179     4.5692   64 C    0 0 0
  68 C    1     2.4253     4.5832   72 C    0 0 0

  69 C    1     1.0914     2.0624   35 H    0 0 0
  69 C    1     1.3914     2.6293   63 C    0 0 0
  69 C    1     1.4025     2.6503   71 C   -1-1 0
  69 C    1     2.1678     4.0966   29 H    0 0 0
  69 C    1     2.4178     4.5690   65 C   -1-1 0
  69 C    1     2.4245     4.5817   61 C   -1-1 0

  70 C    1     1.0914     2.0624   36 H    0 0 0
  70 C    1     1.3914     2.6293   64 C    0 0 0
  70 C    1     1.4025     2.6503   72 C    0 0 0
  70 C    1     2.1678     4.0966   30 H    0 0 0
  70 C    1     2.4178     4.5690   66 C    0 0 0
  70 C    1     2.4245     4.5817   62 C    0 0 0

  71 C    1     1.4025     2.6503   69 C    1 1 0
  71 C    1     1.4025     2.6504   65 C    0 0 0
  71 C    1     1.5516     2.9322    9 B    0 0 0
  71 C    1     2.1486     4.0602   35 H    1 1 0
  71 C    1     2.1487     4.0605   31 H    0 0 0
  71 C    1     2.4251     4.5827   63 C    1 1 0

  72 C    1     1.4025     2.6503   70 C    0 0 0
  72 C    1     1.4025     2.6504   66 C    0 0 0
  72 C    1     1.5516     2.9322   10 B    0 0 0
  72 C    1     2.1486     4.0602   36 H    0 0 0
  72 C    1     2.1487     4.0605   32 H    0 0 0
  72 C    1     2.4251     4.5827   64 C    0 0 0

  73 O    1     1.3791     2.6061    1 B    1 0 0
  73 O    1     1.3791     2.6061    5 B    1 1 0
  73 O    1     2.3880     4.5126   75 O    1 0 0
  73 O    1     2.3882     4.5130   77 O    1 1 0
  73 O    1     2.5383     4.7966   61 C    0 0 0
  73 O    1     2.5384     4.7968   49 C    0 0 0

  74 O    1     1.3791     2.6061    2 B    0 0 0
  74 O    1     1.3791     2.6061    6 B    0 0 0
  74 O    1     2.3880     4.5126   76 O    0 0 0
  74 O    1     2.3882     4.5130   78 O    0 0 0
  74 O    1     2.5383     4.7966   62 C    0 0 0
  74 O    1     2.5384     4.7968   50 C    0 0 0

  75 O    1     1.3793     2.6065    1 B    0 0 0
  75 O    1     1.3793     2.6065    3 B    0 0 0
  75 O    1     2.3880     4.5126   73 O   -1 0 0
  75 O    1     2.3882     4.5131   77 O    0 1 0
  75 O    1     2.5391     4.7981   37 C    0 0 0
  75 O    1     2.5395     4.7990   49 C   -1 0 0

  76 O    1     1.3793     2.6065    2 B    0 0 0
  76 O    1     1.3793     2.6065    4 B    0 0 0
  76 O    1     2.3880     4.5126   74 O    0 0 0
  76 O    1     2.3882     4.5131   78 O    0 0 0
  76 O    1     2.5391     4.7981   38 C    0 0 0
  76 O    1     2.5395     4.7990   50 C    0 0 0

  77 O    1     1.3793     2.6064    5 B    0 0 0
  77 O    1     1.3793     2.6065    3 B    0-1 0
  77 O    1     2.3882     4.5130   73 O   -1-1 0
  77 O    1     2.3882     4.5131   75 O    0-1 0
  77 O    1     2.5390     4.7980   37 C    0-1 0
  77 O    1     2.5391     4.7982   61 C   -1-1 0

  78 O    1     1.3793     2.6064    6 B    0 0 0
  78 O    1     1.3793     2.6065    4 B    0 0 0
  78 O    1     2.3882     4.5130   74 O    0 0 0
  78 O    1     2.3882     4.5131   76 O    0 0 0
  78 O    1     2.5390     4.7980   38 C    0 0 0
  78 O    1     2.5391     4.7982   62 C    0 0 0

  79 O    1     1.3795     2.6068   11 B    0 0 0
  79 O    1     1.3795     2.6068    7 B    0 0 0
  79 O    1     2.3880     4.5126   83 O    1 0 0
  79 O    1     2.3884     4.5134   81 O    0-1 0
  79 O    1     2.5400     4.7998   47 C    0 0 0
  79 O    1     2.5403     4.8005   59 C    0 0 0

  80 O    1     1.3795     2.6068   12 B    0 0 0
  80 O    1     1.3795     2.6068    8 B    0 0 0
  80 O    1     2.3880     4.5126   84 O    1 0 0
  80 O    1     2.3884     4.5134   82 O    0 0 0
  80 O    1     2.5400     4.7998   48 C    0 0 0
  80 O    1     2.5403     4.8005   60 C    0 0 0

  81 O    1     1.3795     2.6069    9 B    0 0 0
  81 O    1     1.3795     2.6070    7 B    0 1 0
  81 O    1     2.3881     4.5128   83 O    1 1 0
  81 O    1     2.3884     4.5134   79 O    0 1 0
  81 O    1     2.5404     4.8006   47 C    0 1 0
  81 O    1     2.5405     4.8008   71 C    0 0 0

  82 O    1     1.3795     2.6069   10 B    1 0 0
  82 O    1     1.3795     2.6070    8 B    0 0 0
  82 O    1     2.3881     4.5128   84 O    1 0 0
  82 O    1     2.3884     4.5134   80 O    0 0 0
  82 O    1     2.5404     4.8006   48 C    0 0 0
  82 O    1     2.5405     4.8008   72 C    1 0 0

  83 O    1     1.3796     2.6071   11 B   -1 0 0
  83 O    1     1.3797     2.6072    9 B   -1-1 0
  83 O    1     2.3880     4.5126   79 O   -1 0 0
  83 O    1     2.3881     4.5128   81 O   -1-1 0
  83 O    1     2.5409     4.8016   71 C   -1-1 0
  83 O    1     2.5410     4.8019   59 C   -1 0 0

  84 O    1     1.3796     2.6071   12 B   -1 0 0
  84 O    1     1.3797     2.6072   10 B    0 0 0
  84 O    1     2.3880     4.5126   80 O   -1 0 0
  84 O    1     2.3881     4.5128   82 O   -1 0 0
  84 O    1     2.5409     4.8016   72 C    0 0 0
  84 O    1     2.5410     4.8019   60 C   -1 0 0


 SYMMETRY ALLOWED INTERNAL DEGREE(S) OF FREEDOM: 249
 TTTTTTTTTTTTTTTTTTTTTTTTTTTTTT SYMM        TELAPSE        2.73 TCPU        2.72
 TTTTTTTTTTTTTTTTTTTTTTTTTTTTTT INT_SCREEN  TELAPSE        2.94 TCPU        2.93

 DFT PARAMETERS

     ATOM       ELECTRONS   NET CHARGE   R(ANGSTROM)
   1   5  B       5.0000      0.0000     0.89000000
  13   1  H       1.0000      0.0000     1.11000000
  37   6  C       6.0000      0.0000     0.77000000
  73   8  O       8.0000      0.0000     0.74000000

 SIZE OF GRID=    2626791
 TTTTTTTTTTTTTTTTTTTTTTTTTTTTTT MAKE_GRID2  TELAPSE       21.69 TCPU       21.65
 BECKE WEIGHT FUNCTION
 RADSAFE =     2.00
 TOLERANCES - DENSITY:10**- 6; POTENTIAL:10**- 9; GRID WGT:10**-14

 RADIAL INTEGRATION  - INTERVALS (POINTS,UPPER LIMIT):            1( 75,  4.0*R)

 ANGULAR INTEGRATION - INTERVALS (ACCURACY LEVEL [N. POINTS] UPPER LIMIT):
  1(  4[  86]   0.2)  2(  8[ 194]   0.5)  3( 12[ 350]   0.9)  4( 16[ 974]   3.5)
  5( 12[ 350]9999.0)
 TTTTTTTTTTTTTTTTTTTTTTTTTTTTTT INT_CALC    TELAPSE       21.93 TCPU       21.89
 EEEEEEEEEE INT_CALC TERMINATION  DATE 19 02 2026 TIME 20:21:45.1

 *******************************************************************************
 cof-1_z39_L050_serr                                                             
 CRYSTAL - SCF - TYPE OF CALCULATION :  RESTRICTED CLOSED SHELL
 *******************************************************************************

 CAPPA:IS1  2;IS2  2;IS3  8; K PTS MONK NET  20; SYMMOPS:K SPACE   2;G SPACE   1

 TTTTTTTTTTTTTTTTTTTTTTTTTTTTTT SDIK        TELAPSE       23.90 TCPU       50.06

 AAAAAAAAAAAAAAAAAAAAAAAAAAAAAAAAAAAAAAAAAAAAAAAAAAAAAAAAAAAAAAAAAAAAAAAAAAAAAAA
         ATOMIC WAVEFUNCTION(S)


 NUCLEAR CHARGE  5.0  SYMMETRY SPECIES            S    P
 N. ELECTRONS    5.0  NUMBER OF PRIMITIVE GTOS    8    4
                      NUMBER OF CONTRACTED GTOS   4    2
                      NUMBER OF CLOSED SHELLS     2    0
                      OPEN SHELL OCCUPATION       0    1

  ZNUC  SCFIT    TOTAL HF ENERGY   KINETIC ENERGY   VIRIAL THEOREM ACCURACY
   5.0    11    -2.451164084E+01  2.462155050E+01 -1.995536038E+00  1.5E-06

 NUCLEAR CHARGE  1.0  SYMMETRY SPECIES            S
 N. ELECTRONS    1.0  NUMBER OF PRIMITIVE GTOS    4
                      NUMBER OF CONTRACTED GTOS   2
                      NUMBER OF CLOSED SHELLS     0
                      OPEN SHELL OCCUPATION       1

  ZNUC  SCFIT    TOTAL HF ENERGY   KINETIC ENERGY   VIRIAL THEOREM ACCURACY
   1.0     1    -4.977266687E-01  5.190767460E-01 -1.958869132E+00  0.0E+00

 NUCLEAR CHARGE  6.0  SYMMETRY SPECIES            S    P
 N. ELECTRONS    6.0  NUMBER OF PRIMITIVE GTOS    8    4
                      NUMBER OF CONTRACTED GTOS   4    2
                      NUMBER OF CLOSED SHELLS     2    0
                      OPEN SHELL OCCUPATION       0    2

  ZNUC  SCFIT    TOTAL HF ENERGY   KINETIC ENERGY   VIRIAL THEOREM ACCURACY
   6.0     9    -3.766704647E+01  3.775180683E+01 -1.997754800E+00  1.1E-06

 NUCLEAR CHARGE  8.0  SYMMETRY SPECIES            S    P
 N. ELECTRONS    8.0  NUMBER OF PRIMITIVE GTOS    8    4
                      NUMBER OF CONTRACTED GTOS   4    2
                      NUMBER OF CLOSED SHELLS     2    0
                      OPEN SHELL OCCUPATION       0    4

  ZNUC  SCFIT    TOTAL HF ENERGY   KINETIC ENERGY   VIRIAL THEOREM ACCURACY
   8.0    12    -7.477373220E+01  7.477365593E+01 -2.000001020E+00  3.8E-06

 AAAAAAAAAAAAAAAAAAAAAAAAAAAAAAAAAAAAAAAAAAAAAAAAAAAAAAAAAAAAAAAAAAAAAAAAAAAAAAA

 CHARGE NORMALIZATION FACTOR   1.00000000
 TOTAL ATOMIC CHARGES:
   5.0000000   5.0000000   5.0000000   5.0000000   5.0000000   5.0000000
   5.0000000   5.0000000   5.0000000   5.0000000   5.0000000   5.0000000
   1.0000000   1.0000000   1.0000000   1.0000000   1.0000000   1.0000000
   1.0000000   1.0000000   1.0000000   1.0000000   1.0000000   1.0000000
   1.0000000   1.0000000   1.0000000   1.0000000   1.0000000   1.0000000
   1.0000000   1.0000000   1.0000000   1.0000000   1.0000000   1.0000000
   6.0000000   6.0000000   6.0000000   6.0000000   6.0000000   6.0000000
   6.0000000   6.0000000   6.0000000   6.0000000   6.0000000   6.0000000
   6.0000000   6.0000000   6.0000000   6.0000000   6.0000000   6.0000000
   6.0000000   6.0000000   6.0000000   6.0000000   6.0000000   6.0000000
   6.0000000   6.0000000   6.0000000   6.0000000   6.0000000   6.0000000
   6.0000000   6.0000000   6.0000000   6.0000000   6.0000000   6.0000000
   8.0000000   8.0000000   8.0000000   8.0000000   8.0000000   8.0000000
   8.0000000   8.0000000   8.0000000   8.0000000   8.0000000   8.0000000
 TTTTTTTTTTTTTTTTTTTTTTTTTTTTTT MOQGAD      TELAPSE       23.99 TCPU       53.03
 TTTTTTTTTTTTTTTTTTTTTTTTTTTTTT SHELLXN     TELAPSE       38.61 TCPU      520.41
 TTTTTTTTTTTTTTTTTTTTTTTTTTTTTT MONMO3      TELAPSE       39.18 TCPU      538.36
 NUMERICALLY INTEGRATED DENSITY    396.0000192022
 TTTTTTTTTTTTTTTTTTTTTTTTTTTTTT NUMDFT      TELAPSE       40.66 TCPU      585.59
 CYC   0 ETOT(AU) -2.591914136814E+03 DETOT -2.59E+03 tst  0.00E+00 PX  1.00E+00
 TTTTTTTTTTTTTTTTTTTTTTTTTTTTTT DIIS        TELAPSE       40.77 TCPU      589.11
 TTTTTTTTTTTTTTTTTTTTTTTTTTTTTT FDIK        TELAPSE       42.78 TCPU      653.45
 INSULATING STATE
 TOP OF VALENCE BANDS -    BAND    198; K    4; EIG -3.1388186E-01 AU
 TOP OF VALENCE BANDS -    BAND    198; K    1; EIG -3.1415162E-01 AU
 BOTTOM OF VIRTUAL BANDS - BAND    199; K    1; EIG -1.6386964E-01 AU
 INDIRECT ENERGY BAND GAP:   4.0820 eV
 TTTTTTTTTTTTTTTTTTTTTTTTTTTTTT PDIG        TELAPSE       44.38 TCPU      660.45
 CHARGE NORMALIZATION FACTOR   1.00000000
 TOTAL ATOMIC CHARGES:
   4.1445282   4.1616560   4.1668971   4.1662195   4.1671304   4.1664669
   4.1660572   4.1667334   4.1658289   4.1665065   4.1612744   4.1441737
   0.7852153   0.7852104   0.7853250   0.7853316   0.7847358   0.7850067
   0.7851260   0.7848583   0.7855771   0.7854405   0.7856095   0.7857429
   0.7855671   0.7854308   0.7855729   0.7857053   0.7847412   0.7850089
   0.7851908   0.7849247   0.7851685   0.7851630   0.7853201   0.7853246
   6.0448857   6.0429680   6.2664516   6.2656073   6.2655718   6.2664127
   6.2655602   6.2646707   6.2646112   6.2655046   6.0422454   6.0441553
   6.0495760   6.0424371   6.2645109   6.2630710   6.2631574   6.2645888
   6.2644203   6.2629732   6.2631724   6.2646031   6.0412266   6.0483201
   6.0452438   6.0433229   6.2653293   6.2644414   6.2649839   6.2658772
   6.2660842   6.2652344   6.2658512   6.2666910   6.0417824   6.0436872
   8.6960120   8.6909458   8.6961128   8.6910553   8.6942479   8.6908024
   8.6913720   8.6964355   8.6912065   8.6946472   8.6915489   8.6966141
 TTTTTTTTTTTTTTTTTTTTTTTTTTTTTT MOQGAD      TELAPSE       44.48 TCPU      660.55
 TTTTTTTTTTTTTTTTTTTTTTTTTTTTTT SHELLXN     TELAPSE       59.74 TCPU     1147.01
 TTTTTTTTTTTTTTTTTTTTTTTTTTTTTT MONMO3      TELAPSE       60.30 TCPU     1164.99
 NUMERICALLY INTEGRATED DENSITY    396.0000227732
 TTTTTTTTTTTTTTTTTTTTTTTTTTTTTT NUMDFT      TELAPSE       61.80 TCPU     1212.85
 CYC   1 ETOT(AU) -2.577639613089E+03 DETOT  1.43E+01 tst  0.00E+00 PX  1.00E+00
 TTTTTTTTTTTTTTTTTTTTTTTTTTTTTT DIIS        TELAPSE       61.93 TCPU     1217.11
 DIIS TEST: 0.21974E+01 AT SCF   CYCLE   1 - MIX   30 %
 TTTTTTTTTTTTTTTTTTTTTTTTTTTTTT FDIK        TELAPSE       63.98 TCPU     1282.55
 INSULATING STATE
 TOP OF VALENCE BANDS -    BAND    198; K    4; EIG -2.2749984E-01 AU
 TOP OF VALENCE BANDS -    BAND    198; K    1; EIG -2.2803928E-01 AU
 BOTTOM OF VIRTUAL BANDS - BAND    199; K    1; EIG -8.8645650E-02 AU
 INDIRECT ENERGY BAND GAP:   3.7784 eV
 TTTTTTTTTTTTTTTTTTTTTTTTTTTTTT PDIG        TELAPSE       65.58 TCPU     1289.56
 CHARGE NORMALIZATION FACTOR   1.00000000
 TOTAL ATOMIC CHARGES:
   4.6805842   4.6980702   4.6852083   4.7168330   4.6852184   4.7168405
   4.7170064   4.6853604   4.7169639   4.6853344   4.6981283   4.6804652
   0.9119605   0.9035232   0.9035895   0.9119653   0.9163195   0.9140203
   0.9140518   0.9164336   0.9045612   0.8979688   0.8978988   0.9046641
   0.9045373   0.8979524   0.8978895   0.9046231   0.9163179   0.9140130
   0.9141277   0.9165099   0.9119029   0.9034808   0.9035840   0.9119567
   5.8564827   5.8786797   6.1441693   6.1322360   6.1326548   6.1445846
   6.1294947   6.1447784   6.1454439   6.1303107   5.8812833   5.8590585
   5.9018581   5.8688801   6.1482526   6.1302283   6.1311511   6.1488716
   6.1484094   6.1303926   6.1310371   6.1489087   5.8720242   5.9048881
   5.8563246   5.8786303   6.1296156   6.1448440   6.1452775   6.1301998
   6.1443938   6.1324489   6.1324035   6.1443109   5.8815267   5.8592332
   8.3404394   8.3265399   8.3408072   8.3268922   8.3355603   8.3386968
   8.3263789   8.3402443   8.3384256   8.3354739   8.3267676   8.3406219
 TTTTTTTTTTTTTTTTTTTTTTTTTTTTTT MOQGAD      TELAPSE       65.67 TCPU     1289.65
 TTTTTTTTTTTTTTTTTTTTTTTTTTTTTT SHELLXN     TELAPSE       80.87 TCPU     1773.54
 TTTTTTTTTTTTTTTTTTTTTTTTTTTTTT MONMO3      TELAPSE       81.43 TCPU     1791.48
 NUMERICALLY INTEGRATED DENSITY    396.0000320613
 TTTTTTTTTTTTTTTTTTTTTTTTTTTTTT NUMDFT      TELAPSE       82.93 TCPU     1839.29
 CYC   2 ETOT(AU) -2.578027744712E+03 DETOT -3.88E-01 tst  3.67E-03 PX  1.59E-01
 TTTTTTTTTTTTTTTTTTTTTTTTTTTTTT DIIS        TELAPSE       83.10 TCPU     1844.84
 DIIS TEST: 0.90452E+00 AT SCF   CYCLE   2 - DIIS ACTIVE - HISTORY:     2 CYCLES
 TTTTTTTTTTTTTTTTTTTTTTTTTTTTTT FDIK        TELAPSE       85.14 TCPU     1909.98
 INSULATING STATE
 TOP OF VALENCE BANDS -    BAND    198; K    4; EIG -2.3936018E-01 AU
 TOP OF VALENCE BANDS -    BAND    198; K    1; EIG -2.3976756E-01 AU
 BOTTOM OF VIRTUAL BANDS - BAND    199; K    1; EIG -8.5360312E-02 AU
 INDIRECT ENERGY BAND GAP:   4.1906 eV
 TTTTTTTTTTTTTTTTTTTTTTTTTTTTTT PDIG        TELAPSE       86.75 TCPU     1916.99
 CHARGE NORMALIZATION FACTOR   1.00000000
 TOTAL ATOMIC CHARGES:
   4.4744815   4.4945833   4.4927776   4.5092406   4.4929434   4.5093398
   4.5090198   4.4926223   4.5088366   4.4924417   4.4940972   4.4741843
   0.8899786   0.8835208   0.8836449   0.8902214   0.8921004   0.8924702
   0.8926131   0.8921629   0.8845643   0.8778686   0.8782451   0.8846703
   0.8845888   0.8778803   0.8782031   0.8845924   0.8921000   0.8924753
   0.8926662   0.8922322   0.8899779   0.8835502   0.8835789   0.8901562
   5.9066576   5.8834728   6.1593133   6.1640052   6.1637529   6.1591344
   6.1637480   6.1493980   6.1487872   6.1628225   5.8826239   5.9057567
   5.9014311   5.8995507   6.1604943   6.1684331   6.1680304   6.1602725
   6.1605281   6.1685281   6.1678786   6.1602819   5.8983846   5.9005407
   5.9068256   5.8837733   6.1637693   6.1493348   6.1488987   6.1629347
   6.1592567   6.1638526   6.1637790   6.1591979   5.8823574   5.9054623
   8.5151965   8.5115823   8.5153506   8.5117516   8.5203691   8.5042694
   8.5117846   8.5155363   8.5044170   8.5201259   8.5119852   8.5157327
 TTTTTTTTTTTTTTTTTTTTTTTTTTTTTT MOQGAD      TELAPSE       86.84 TCPU     1917.08
 TTTTTTTTTTTTTTTTTTTTTTTTTTTTTT SHELLXN     TELAPSE      102.02 TCPU     2400.97
 TTTTTTTTTTTTTTTTTTTTTTTTTTTTTT MONMO3      TELAPSE      102.58 TCPU     2418.95
 NUMERICALLY INTEGRATED DENSITY    396.0000290735
 TTTTTTTTTTTTTTTTTTTTTTTTTTTTTT NUMDFT      TELAPSE      104.10 TCPU     2467.18
 CYC   3 ETOT(AU) -2.578214319054E+03 DETOT -1.87E-01 tst  5.78E-04 PX  6.64E-02
 TTTTTTTTTTTTTTTTTTTTTTTTTTTTTT DIIS        TELAPSE      104.36 TCPU     2474.24
 DIIS TEST: 0.30549E-01 AT SCF   CYCLE   3 - DIIS ACTIVE - HISTORY:     3 CYCLES
 TTTTTTTTTTTTTTTTTTTTTTTTTTTTTT FDIK        TELAPSE      106.45 TCPU     2540.78
 INSULATING STATE
 TOP OF VALENCE BANDS -    BAND    198; K    1; EIG -2.4973000E-01 AU
 BOTTOM OF VIRTUAL BANDS - BAND    199; K    1; EIG -9.3095834E-02 AU
 DIRECT ENERGY BAND GAP:   4.2622 eV
 TTTTTTTTTTTTTTTTTTTTTTTTTTTTTT PDIG        TELAPSE      108.08 TCPU     2547.80
 CHARGE NORMALIZATION FACTOR   1.00000000
 TOTAL ATOMIC CHARGES:
   4.4842544   4.4963823   4.4968699   4.5120790   4.4970249   4.5121777
   4.5120995   4.4968660   4.5119147   4.4966991   4.4962000   4.4839398
   0.8725671   0.8675659   0.8677082   0.8726080   0.8778719   0.8724505
   0.8724534   0.8779186   0.8654875   0.8628123   0.8627280   0.8656919
   0.8655009   0.8628326   0.8626803   0.8656109   0.8778924   0.8724590
   0.8725146   0.8779702   0.8725598   0.8675680   0.8676560   0.8725574
   5.9255064   5.9480523   6.1744899   6.1637755   6.1640693   6.1746550
   6.1554401   6.1782427   6.1792950   6.1569579   5.9505323   5.9278463
   5.9722048   5.9274990   6.1792762   6.1630421   6.1640148   6.1798998
   6.1792076   6.1629984   6.1640043   6.1800794   5.9300865   5.9744046
   5.9253783   5.9481013   6.1554289   6.1781446   6.1793567   6.1570850
   6.1744154   6.1636911   6.1641103   6.1746931   5.9505883   5.9278285
   8.4850056   8.4725312   8.4852915   8.4727897   8.4775574   8.4833595
   8.4725585   8.4848757   8.4833509   8.4780191   8.4728861   8.4852004
 TTTTTTTTTTTTTTTTTTTTTTTTTTTTTT MOQGAD      TELAPSE      108.18 TCPU     2547.90
 TTTTTTTTTTTTTTTTTTTTTTTTTTTTTT SHELLXN     TELAPSE      123.49 TCPU     3035.87
 TTTTTTTTTTTTTTTTTTTTTTTTTTTTTT MONMO3      TELAPSE      124.05 TCPU     3053.83
 NUMERICALLY INTEGRATED DENSITY    396.0000292030
 TTTTTTTTTTTTTTTTTTTTTTTTTTTTTT NUMDFT      TELAPSE      125.55 TCPU     3101.67
 CYC   4 ETOT(AU) -2.578220389796E+03 DETOT -6.07E-03 tst  2.91E-05 PX  1.67E-02
 TTTTTTTTTTTTTTTTTTTTTTTTTTTTTT DIIS        TELAPSE      125.76 TCPU     3108.56
 DIIS TEST: 0.10516E-01 AT SCF   CYCLE   4 - DIIS ACTIVE - HISTORY:     4 CYCLES
 TTTTTTTTTTTTTTTTTTTTTTTTTTTTTT FDIK        TELAPSE      127.79 TCPU     3173.13
 INSULATING STATE
 TOP OF VALENCE BANDS -    BAND    198; K    4; EIG -2.4829799E-01 AU
 TOP OF VALENCE BANDS -    BAND    198; K    1; EIG -2.4848382E-01 AU
 BOTTOM OF VIRTUAL BANDS - BAND    199; K    1; EIG -9.3127727E-02 AU
 INDIRECT ENERGY BAND GAP:   4.2224 eV
 TTTTTTTTTTTTTTTTTTTTTTTTTTTTTT PDIG        TELAPSE      129.41 TCPU     3180.15
 CHARGE NORMALIZATION FACTOR   1.00000000
 TOTAL ATOMIC CHARGES:
   4.4834437   4.5005358   4.4969229   4.5169825   4.4970792   4.5170741
   4.5169348   4.4969429   4.5167646   4.4967774   4.5002313   4.4832183
   0.8751369   0.8693018   0.8694232   0.8753033   0.8787588   0.8771184
   0.8772955   0.8788972   0.8692189   0.8635299   0.8638121   0.8693452
   0.8692239   0.8635278   0.8637815   0.8692789   0.8787614   0.8771206
   0.8773578   0.8789685   0.8751176   0.8693094   0.8693741   0.8752570
   5.9272534   5.9222066   6.1686250   6.1691425   6.1690706   6.1686684
   6.1705265   6.1622550   6.1616498   6.1696731   5.9217221   5.9267285
   5.9372753   5.9332940   6.1709087   6.1723079   6.1721724   6.1707931
   6.1709682   6.1724228   6.1720172   6.1708148   5.9328091   5.9370118
   5.9273203   5.9224265   6.1705626   6.1622099   6.1616994   6.1697454
   6.1686394   6.1690735   6.1690396   6.1686605   5.9215695   5.9265352
   8.4902399   8.4849245   8.4904397   8.4851289   8.4938393   8.4827832
   8.4850150   8.4904705   8.4827798   8.4934853   8.4852612   8.4907066
 TTTTTTTTTTTTTTTTTTTTTTTTTTTTTT MOQGAD      TELAPSE      129.51 TCPU     3180.24
 TTTTTTTTTTTTTTTTTTTTTTTTTTTTTT SHELLXN     TELAPSE      144.72 TCPU     3665.31
 TTTTTTTTTTTTTTTTTTTTTTTTTTTTTT MONMO3      TELAPSE      145.28 TCPU     3683.25
 NUMERICALLY INTEGRATED DENSITY    396.0000292331
 TTTTTTTTTTTTTTTTTTTTTTTTTTTTTT NUMDFT      TELAPSE      146.78 TCPU     3730.92
 CYC   5 ETOT(AU) -2.578222641465E+03 DETOT -2.25E-03 tst  1.39E-05 PX  9.21E-03
 TTTTTTTTTTTTTTTTTTTTTTTTTTTTTT DIIS        TELAPSE      147.02 TCPU     3737.87
 DIIS TEST: 0.10282E-02 AT SCF   CYCLE   5 - DIIS ACTIVE - HISTORY:     5 CYCLES
 TTTTTTTTTTTTTTTTTTTTTTTTTTTTTT FDIK        TELAPSE      149.05 TCPU     3802.59
 INSULATING STATE
 TOP OF VALENCE BANDS -    BAND    198; K    4; EIG -2.4766806E-01 AU
 TOP OF VALENCE BANDS -    BAND    198; K    1; EIG -2.4788104E-01 AU
 BOTTOM OF VIRTUAL BANDS - BAND    199; K    1; EIG -9.2643105E-02 AU
 INDIRECT ENERGY BAND GAP:   4.2184 eV
 TTTTTTTTTTTTTTTTTTTTTTTTTTTTTT PDIG        TELAPSE      150.66 TCPU     3809.60
 CHARGE NORMALIZATION FACTOR   1.00000000
 TOTAL ATOMIC CHARGES:
   4.4843151   4.5000282   4.4974333   4.5160280   4.4975868   4.5161233
   4.5159739   4.4973759   4.5157982   4.4972133   4.4997646   4.4840189
   0.8764358   0.8706245   0.8707706   0.8765521   0.8806933   0.8775861
   0.8776247   0.8807484   0.8700924   0.8653448   0.8654172   0.8702667
   0.8701065   0.8653592   0.8653739   0.8701900   0.8807048   0.8775912
   0.8776853   0.8808079   0.8764267   0.8706339   0.8707165   0.8764998
   5.9197827   5.9222544   6.1724709   6.1649786   6.1650381   6.1724797
   6.1599358   6.1696609   6.1702434   6.1607168   5.9236500   5.9210569
   5.9463679   5.9161675   6.1751113   6.1664921   6.1669911   6.1754377
   6.1750788   6.1664963   6.1669329   6.1755599   5.9174357   5.9474798
   5.9197625   5.9223992   6.1599435   6.1695833   6.1703171   6.1608326
   6.1724093   6.1648698   6.1650693   6.1725237   5.9235830   5.9209361
   8.4942923   8.4842946   8.4945312   8.4845230   8.4906105   8.4884357
   8.4843867   8.4943180   8.4885086   8.4908781   8.4846661   8.4945950
 TTTTTTTTTTTTTTTTTTTTTTTTTTTTTT MOQGAD      TELAPSE      150.75 TCPU     3809.69
 TTTTTTTTTTTTTTTTTTTTTTTTTTTTTT SHELLXN     TELAPSE      165.90 TCPU     4292.60
 TTTTTTTTTTTTTTTTTTTTTTTTTTTTTT MONMO3      TELAPSE      166.46 TCPU     4310.52
 NUMERICALLY INTEGRATED DENSITY    396.0000291636
 TTTTTTTTTTTTTTTTTTTTTTTTTTTTTT NUMDFT      TELAPSE      167.96 TCPU     4358.41
 CYC   6 ETOT(AU) -2.578222802595E+03 DETOT -1.61E-04 tst  5.52E-06 PX  4.03E-03
 TTTTTTTTTTTTTTTTTTTTTTTTTTTTTT DIIS        TELAPSE      168.22 TCPU     4365.35
 DIIS TEST: 0.45441E-03 AT SCF   CYCLE   6 - DIIS ACTIVE - HISTORY:     6 CYCLES
 TTTTTTTTTTTTTTTTTTTTTTTTTTTTTT FDIK        TELAPSE      170.24 TCPU     4429.82
 INSULATING STATE
 TOP OF VALENCE BANDS -    BAND    198; K    4; EIG -2.4772052E-01 AU
 TOP OF VALENCE BANDS -    BAND    198; K    1; EIG -2.4804119E-01 AU
 BOTTOM OF VIRTUAL BANDS - BAND    199; K    1; EIG -9.2477696E-02 AU
 INDIRECT ENERGY BAND GAP:   4.2244 eV
 TTTTTTTTTTTTTTTTTTTTTTTTTTTTTT PDIG        TELAPSE      171.85 TCPU     4436.83
 CHARGE NORMALIZATION FACTOR   1.00000000
 TOTAL ATOMIC CHARGES:
   4.4839860   4.5001642   4.4975794   4.5160538   4.4977365   4.5161483
   4.5159962   4.4975538   4.5158214   4.4973884   4.4998686   4.4837066
   0.8766224   0.8704879   0.8706166   0.8767510   0.8804325   0.8778979
   0.8780002   0.8805248   0.8703887   0.8652951   0.8654489   0.8705388
   0.8704000   0.8653036   0.8654107   0.8704657   0.8804414   0.8779033
   0.8780600   0.8805875   0.8766109   0.8704975   0.8705633   0.8767001
   5.9211770   5.9236141   6.1693586   6.1672272   6.1672756   6.1694203
   6.1636388   6.1667840   6.1668252   6.1636999   5.9242416   5.9217167
   5.9421735   5.9229391   6.1726071   6.1686286   6.1688892   6.1727713
   6.1726113   6.1686784   6.1687907   6.1728525   5.9235552   5.9427865
   5.9211835   5.9237827   6.1636530   6.1667116   6.1668955   6.1638057
   6.1693222   6.1671348   6.1672855   6.1694446   5.9241490   5.9215719
   8.4923487   8.4843539   8.4925745   8.4845732   8.4919173   8.4863978
   8.4844470   8.4924628   8.4864193   8.4919077   8.4847168   8.4927261
 TTTTTTTTTTTTTTTTTTTTTTTTTTTTTT MOQGAD      TELAPSE      171.94 TCPU     4436.93
 TTTTTTTTTTTTTTTTTTTTTTTTTTTTTT SHELLXN     TELAPSE      187.11 TCPU     4920.66
 TTTTTTTTTTTTTTTTTTTTTTTTTTTTTT MONMO3      TELAPSE      187.67 TCPU     4938.66
 NUMERICALLY INTEGRATED DENSITY    396.0000292151
 TTTTTTTTTTTTTTTTTTTTTTTTTTTTTT NUMDFT      TELAPSE      189.18 TCPU     4986.72
 CYC   7 ETOT(AU) -2.578222912555E+03 DETOT -1.10E-04 tst  1.05E-06 PX  1.57E-03
 TTTTTTTTTTTTTTTTTTTTTTTTTTTTTT DIIS        TELAPSE      189.47 TCPU     4993.71
 DIIS TEST: 0.11694E-04 AT SCF   CYCLE   7 - DIIS ACTIVE - HISTORY:     7 CYCLES
 TTTTTTTTTTTTTTTTTTTTTTTTTTTTTT FDIK        TELAPSE      191.49 TCPU     5058.17
 INSULATING STATE
 TOP OF VALENCE BANDS -    BAND    198; K    4; EIG -2.4778121E-01 AU
 TOP OF VALENCE BANDS -    BAND    198; K    1; EIG -2.4802003E-01 AU
 BOTTOM OF VIRTUAL BANDS - BAND    199; K    1; EIG -9.2562541E-02 AU
 INDIRECT ENERGY BAND GAP:   4.2237 eV
 TTTTTTTTTTTTTTTTTTTTTTTTTTTTTT PDIG        TELAPSE      193.10 TCPU     5065.18
 CHARGE NORMALIZATION FACTOR   1.00000000
 TOTAL ATOMIC CHARGES:
   4.4840357   4.5002092   4.4975478   4.5162203   4.4977041   4.5163145
   4.5161647   4.4975215   4.5159906   4.4973566   4.4999217   4.4837634
   0.8765045   0.8705877   0.8707214   0.8766385   0.8803791   0.8779100
   0.8780057   0.8804660   0.8702730   0.8651759   0.8653309   0.8704262
   0.8702843   0.8651843   0.8652925   0.8703530   0.8803874   0.8779146
   0.8780664   0.8805297   0.8764924   0.8705974   0.8706685   0.8765878
   5.9223399   5.9225316   6.1702246   6.1664131   6.1664321   6.1702592
   6.1637407   6.1664091   6.1664970   6.1638483   5.9231764   5.9228957
   5.9427644   5.9227683   6.1729165   6.1684384   6.1686889   6.1730715
   6.1729214   6.1684873   6.1685908   6.1731530   5.9233585   5.9433487
   5.9223519   5.9227045   6.1637583   6.1663424   6.1665627   6.1639487
   6.1701925   6.1663202   6.1664393   6.1702827   5.9230777   5.9227476
   8.4924417   8.4843718   8.4926660   8.4845913   8.4917301   8.4861704
   8.4844620   8.4925500   8.4862063   8.4917379   8.4847297   8.4928118
 TTTTTTTTTTTTTTTTTTTTTTTTTTTTTT MOQGAD      TELAPSE      193.19 TCPU     5065.27
 TTTTTTTTTTTTTTTTTTTTTTTTTTTTTT SHELLXN     TELAPSE      208.40 TCPU     5550.10
 TTTTTTTTTTTTTTTTTTTTTTTTTTTTTT MONMO3      TELAPSE      208.96 TCPU     5568.10
 NUMERICALLY INTEGRATED DENSITY    396.0000292073
 TTTTTTTTTTTTTTTTTTTTTTTTTTTTTT NUMDFT      TELAPSE      210.47 TCPU     5616.23
 CYC   8 ETOT(AU) -2.578222914955E+03 DETOT -2.40E-06 tst  4.55E-08 PX  2.83E-04
 TTTTTTTTTTTTTTTTTTTTTTTTTTTTTT DIIS        TELAPSE      210.78 TCPU     5623.20
 DIIS TEST: 0.14600E-05 AT SCF   CYCLE   8 - DIIS ACTIVE - HISTORY:     8 CYCLES
 TTTTTTTTTTTTTTTTTTTTTTTTTTTTTT FDIK        TELAPSE      212.81 TCPU     5687.90
 INSULATING STATE
 TOP OF VALENCE BANDS -    BAND    198; K    4; EIG -2.4777224E-01 AU
 TOP OF VALENCE BANDS -    BAND    198; K    1; EIG -2.4802483E-01 AU
 BOTTOM OF VIRTUAL BANDS - BAND    199; K    1; EIG -9.2561343E-02 AU
 INDIRECT ENERGY BAND GAP:   4.2235 eV
 TTTTTTTTTTTTTTTTTTTTTTTTTTTTTT PDIG        TELAPSE      214.42 TCPU     5694.91
 CHARGE NORMALIZATION FACTOR   1.00000000
 TOTAL ATOMIC CHARGES:
   4.4840665   4.5002304   4.4975218   4.5162760   4.4976777   4.5163700
   4.5162213   4.4974954   4.5160473   4.4973309   4.4999439   4.4837935
   0.8764932   0.8705483   0.8706819   0.8766259   0.8804022   0.8778674
   0.8779626   0.8804894   0.8702575   0.8651788   0.8653315   0.8704113
   0.8702688   0.8651875   0.8652929   0.8703381   0.8804107   0.8778720
   0.8780233   0.8805528   0.8764812   0.8705578   0.8706289   0.8765752
   5.9219556   5.9228091   6.1700610   6.1665932   6.1666168   6.1700981
   6.1636626   6.1665315   6.1666272   6.1637834   5.9234699   5.9225262
   5.9425877   5.9228571   6.1728827   6.1684453   6.1687032   6.1730422
   6.1728855   6.1684928   6.1686070   6.1731256   5.9234658   5.9431866
   5.9219653   5.9229805   6.1636798   6.1664637   6.1666933   6.1638845
   6.1700272   6.1665003   6.1666253   6.1701224   5.9233734   5.9223798
   8.4924690   8.4843853   8.4926943   8.4846049   8.4917894   8.4862294
   8.4844764   8.4925758   8.4862639   8.4918031   8.4847446   8.4928384
 TTTTTTTTTTTTTTTTTTTTTTTTTTTTTT MOQGAD      TELAPSE      214.52 TCPU     5695.01
 TTTTTTTTTTTTTTTTTTTTTTTTTTTTTT SHELLXN     TELAPSE      229.72 TCPU     6179.67
 TTTTTTTTTTTTTTTTTTTTTTTTTTTTTT MONMO3      TELAPSE      230.28 TCPU     6197.62
 NUMERICALLY INTEGRATED DENSITY    396.0000292088
 TTTTTTTTTTTTTTTTTTTTTTTTTTTTTT NUMDFT      TELAPSE      231.78 TCPU     6245.67
 CYC   9 ETOT(AU) -2.578222915074E+03 DETOT -1.19E-07 tst  4.73E-09 PX  9.98E-05
 TTTTTTTTTTTTTTTTTTTTTTTTTTTTTT DIIS        TELAPSE      232.11 TCPU     6252.68
 DIIS TEST: 0.32864E-07 AT SCF   CYCLE   9 - DIIS ACTIVE - HISTORY:     9 CYCLES
 TTTTTTTTTTTTTTTTTTTTTTTTTTTTTT FDIK        TELAPSE      234.14 TCPU     6317.17
 INSULATING STATE
 TOP OF VALENCE BANDS -    BAND    198; K    4; EIG -2.4777364E-01 AU
 TOP OF VALENCE BANDS -    BAND    198; K    1; EIG -2.4802607E-01 AU
 BOTTOM OF VIRTUAL BANDS - BAND    199; K    1; EIG -9.2557860E-02 AU
 INDIRECT ENERGY BAND GAP:   4.2236 eV
 TTTTTTTTTTTTTTTTTTTTTTTTTTTTTT PDIG        TELAPSE      235.75 TCPU     6324.18
 CHARGE NORMALIZATION FACTOR   1.00000000
 TOTAL ATOMIC CHARGES:
   4.4840558   4.5002263   4.4975298   4.5162396   4.4976860   4.5163337
   4.5161843   4.4975042   4.5160101   4.4973394   4.4999377   4.4837819
   0.8765002   0.8705405   0.8706728   0.8766324   0.8803892   0.8778680
   0.8779660   0.8804784   0.8702620   0.8651759   0.8653307   0.8704143
   0.8702731   0.8651843   0.8652924   0.8703412   0.8803977   0.8778728
   0.8780265   0.8805418   0.8764882   0.8705500   0.8706198   0.8765818
   5.9220234   5.9227991   6.1700274   6.1666232   6.1666511   6.1700708
   6.1636853   6.1665461   6.1666193   6.1637778   5.9234359   5.9225720
   5.9426354   5.9227761   6.1728804   6.1684827   6.1687363   6.1730383
   6.1728855   6.1685320   6.1686379   6.1731193   5.9233709   5.9432262
   5.9220340   5.9229709   6.1637018   6.1664777   6.1666863   6.1638798
   6.1699943   6.1665306   6.1666590   6.1700944   5.9233389   5.9224247
   8.4924524   8.4843757   8.4926770   8.4845951   8.4918017   8.4862501
   8.4844670   8.4925626   8.4862814   8.4918041   8.4847352   8.4928247
 TTTTTTTTTTTTTTTTTTTTTTTTTTTTTT MOQGAD      TELAPSE      235.84 TCPU     6324.27
 TTTTTTTTTTTTTTTTTTTTTTTTTTTTTT SHELLXN     TELAPSE      251.00 TCPU     6807.53
 +++ ENERGIES IN A.U. +++
 ::: EXT EL-POLE                                  -2.6086049737640E+03
 ::: EXT EL-SPHEROPOLE                             2.9359760352837E+01
 ::: BIELET ZONE E-E                               4.1472724585199E+03
 ::: TOTAL E-E                                     1.5680272451087E+03
 ::: TOTAL E-N + N-E                              -6.7937599730182E+03
 ::: TOTAL N-N                                     3.5508442898571E+02
 ::: KINETIC ENERGY                                2.5598574899685E+03
 ::: PSEUDO TOTAL   ENERGY                        -2.3107908089552E+03
 ::: VIRIAL COEFFICIENT                            1.0511362483447E+00
 TTTTTTTTTTTTTTTTTTTTTTTTTTTTTT MONMO3      TELAPSE      251.56 TCPU     6825.51
 NUMERICALLY INTEGRATED DENSITY    396.0000292085
 EXCHANGE ENERGY: -0.252051310194E+03  CORRELATION ENERGY: -0.153807960017E+02
 TTTTTTTTTTTTTTTTTTTTTTTTTTTTTT NUMDFT      TELAPSE      253.05 TCPU     6873.22
 CYC  10 ETOT(AU) -2.578222915151E+03 DETOT -7.70E-08 tst  1.36E-10 PX  9.98E-05

 == SCF ENDED - CONVERGENCE ON ENERGY      E(AU) -2.5782229151512E+03 CYCLES  10


 ENERGY EXPRESSION=HARTREE+FOCK EXCH*0.00000+(HSESOL     EXCH)*1.00000+PBESOL     CORR


 TOTAL ENERGY(DFT)(AU)( 10) -2.5782229151512E+03 DE-7.7E-08 tester 1.4E-10
 TTTTTTTTTTTTTTTTTTTTTTTTTTTTTT EDFT        TELAPSE      253.05 TCPU     6873.23
 
 INFORMATION **** DFTD3 ENERGY **** CALCULATE DFTD3 ENERGY

           DFT-D V3(BJ)
 DF                                         hsesol3c  
 parameters
 s6       :    1.0000
 s8       :    0.0000
 a1       :    0.5196
 a2       :    4.9385
 k1 k3    :   16.0000   -4.0000
 Cutoff   :   50.2022
 CN-Cutoff:   21.1671
 ABC-Cutoff:   21.1671
 
 Edisp /kcal,au:   -49.0118 -0.07810528

 E6    /kcal :   -52.0225
 E8    /kcal :     0.0000
 E6(ABC) "   :   3.010700
 
 INFORMATION **** DFTD3 ENERGY **** NORMAL TERMINATION OF DFTD3 MODULE

 GCP ENERGY CALCULATION
  level        hsesol3c            basis:hsesol3c
  Nbf            948
  Atoms           84

  Parameters: 
  sigma     1.0000
  eta       1.4281
  alpha     0.2936
  beta      1.9467

  dmp_scal      4.0000
  dmp_exp       6.0000
 cutoffs: 
   distance [bohr] 60.0
   noise    [a.u.] 2.2E-16
 SR-damping   T
 ** gCP correction **
  Egcp:        0.1659392584 / (a.u.) ||     104.1285 / (kcal/mol)
 INFORMATION **** GCP **** NORMAL TERMINATION OF GCP MODULE

 *******************************************************************************

 DFT-D3-GCP DISPERSION AND COUNTERPOISE CORRECTION

 D3 DISPERSION ENERGY (AU)      -7.8105275241148E-02
 GCP ENERGY (AU)                 1.6593925838462E-01
 TOTAL ENERGY + DISP + GCP (AU) -2.5781350811680E+03

 *******************************************************************************

 EIGENVECTORS IN FORTRAN UNIT  8
 TTTTTTTTTTTTTTTTTTTTTTTTTTTTTT END         TELAPSE      256.06 TCPU     6882.18
 EEEEEEEEEE TERMINATION  DATE 19 02 2026 TIME 20:25:39.2
