 Default number of threads is:           32

         
 *******************************************************************************
 *                                                                             *
 *                               CRYSTAL23                                     *
 *                      public : 1.0.1 - October 2022                          *
 *                       HTTP://WWW.CRYSTAL.UNITO.IT                           *
 *                                                                             *
 *                              MAIN AUTHORS                                   *
 *                                                                             *
 *  R. DOVESI(1,11), V.R. SAUNDERS(2), C. ROETTI(1,11), R. ORLANDO(1,11),      *
 *  C.M. ZICOVICH-WILSON(1,3), F. PASCALE(4), B. CIVALLERI(1,11),              *
 *  K. DOLL(5), N.M. HARRISON(6), I.J. BUSH(7), Ph. D'ARCO(8),                 *
 *  M. LLUNELL(9), M. CAUSA'(10), Y. NOEL(8), L. MASCHIO(1,11), A. ERBA(1,11)  *
 *  M. RE'RAT(14), S. CASASSA(1,11), B.G. SEARLE(2), J.K. DESMARAIS(1)         *
 *                                                                             *
 *        CONTRIBUTIONS TO THE CODE HAVE ALSO BEEN GIVEN BY                    *
 *                                                                             *
 *  M. FERRABONE(1,11), M. DE LA PIERRE(1,11), M. FERRERO(1,11),               *
 *  J. BAIMA(1,11), E. ALBANESE(1,11), M.F. PEINTINGER(12), R. BAST(13),       *
 *  B. KIRTMAN(15), V. LACIVITA(1,11), R. DEMICHELIS(1,16)                     *
 *  G. BRANDEBURG(17), S. SALUSTRO(1,11), G. SANSONE(1,11)                     *
 *  M.T. RUGGIERO(18), L.E. DAGA(1), L. DONA'(1), A. COSSARD(1)                *
 *                                                                             *
 * (1) THEORETICAL CHEMISTRY GROUP - UNIVERSITA' DI TORINO - TORINO (ITALY)    *
 * (2) SCIENTIFIC COMPUTING DEPARTMENT - STFC DARESBURY (UK)                   *
 * (3) UNIVERSIDAD AUTONOMA DEL ESTADO DE MORELOS - CUERNAVACA (MEXICO)        *
 * (4) UNIVERSITE' DE LORRAINE - NANCY (FRANCE)                                *
 * (5) UNIVERSITAET STUTTGART- STUTTGART (GERMANY)                             *
 * (6) IMPERIAL COLLEGE - LONDON (UK)                                          *
 * (7) SCIENTIFIC COMPUTING DEPARTMENT - STFC RAL (UK)                         *
 * (8) UPMC - SORBONNE UNIVERSITES - PARIS (FRANCE)                            *
 * (9) UNIVERSIDAD DE BARCELONA - BARCELONA (SPAIN)                            *
 *(10) UNIVERSITA' DI NAPOLI "FEDERICO II" - NAPOLI (ITALY)                    *
 *(11) NIS - NANOSTRUCTURED INTERFACES AND SURFACES - TORINO (ITALY)           *
 *(12) MPI FUER CHEMISCHE ENERGIEKONVERSION - MUELHEIM AN DER RUHR (GERMANY)   *
 *(13) UNIVERSITY OF TROMSO - TROMSO (NORWAY)                                  *
 *(14) UNIVERSITE' DE PAU ET DES PAYS DE L'ADOUR - PAU (FRANCE)                *
 *(15) UNIVERSITY OF CALIFORNIA SANTA BARBARA - SANTA BARBARA (USA)            *
 *(16) CURTIN UNIVERSITY - PERTH (AUSTRALIA)                                   *
 *(17) UNIVERSITY COLLEGE LONDON - LONDON (UK)                                 *
 *(18) UNIVERSITY OF VERMONT - BURLINGTON (USA)                                *
 *                                                                             *
 *******************************************************************************
 EEEEEEEEEE STARTING  DATE 19 02 2026 TIME 18:59:39.8
 cof-1_z38_L087_incl                                                             

 CRYSTAL CALCULATION
 (INPUT ACCORDING TO THE INTERNATIONAL TABLES FOR X-RAY CRYSTALLOGRAPHY)
 CRYSTAL FAMILY                       :  TRICLINIC   
 CRYSTAL CLASS  (GROTH - 1921)        :  TRICLINIC PEDIAL                     

 SPACE GROUP (NONCENTROSYMMETRIC)     :  P 1             

 LATTICE PARAMETERS  (ANGSTROMS AND DEGREES) - CONVENTIONAL CELL
        A           B           C        ALPHA        BETA       GAMMA
    15.02361    15.02392     9.47032    37.50683    89.99998   119.99596


 NUMBER OF IRREDUCIBLE ATOMS IN THE CONVENTIONAL CELL:   42

 INPUT COORDINATES

 ATOM AT. N.              COORDINATES
   1   5     4.466124100000E-01 -1.068520000000E-01  5.012502400000E-01
   2   5     6.056680700000E-01  5.220764000000E-02  5.012502600000E-01
   3   5     4.474890300000E-01  5.395239000000E-02  4.986073500000E-01
   4   5     6.018712000000E-02  2.794629800000E-01  5.012502600000E-01
   5   5     2.192950900000E-01  2.794422200000E-01  5.012502500000E-01
   6   5     2.201562600000E-01  4.403433700000E-01  4.986073500000E-01
   7   1     7.378017500000E-01 -2.158729000000E-02  4.957709800000E-01
   8   1    -6.832808000000E-02  3.610946900000E-01  4.949331000000E-01
   9   1     7.380517900000E-01  2.641996500000E-01  4.948041500000E-01
  10   1    -6.819417000000E-02  7.579072000000E-02  4.948363100000E-01
  11   1     5.229759400000E-01 -2.391429800000E-01  5.042155200000E-01
  12   1     1.405939700000E-01  5.667315900000E-01  5.050534500000E-01
  13   1     2.374912400000E-01 -2.397417600000E-01  5.051824800000E-01
  14   1     4.259442500000E-01  5.665771700000E-01  5.051501000000E-01
  15   1     5.258308500000E-01  2.635368400000E-01  4.957710300000E-01
  16   1     1.439992400000E-01  7.565061000000E-02  4.949330500000E-01
  17   1     2.409209800000E-01 -2.104947000000E-02  4.948040500000E-01
  18   1     4.293605000000E-01  3.610636400000E-01  4.948364100000E-01
  19   6     7.257353000000E-01  1.135998800000E-01  4.985106500000E-01
  20   6     7.812042600000E-01  6.218233000000E-02  4.958999200000E-01
  21   6    -1.118215600000E-01  2.767323500000E-01  4.956743900000E-01
  22   6     7.810168400000E-01  2.227880100000E-01  4.963512300000E-01
  23   6    -1.114288100000E-01  1.165061600000E-01  4.946106900000E-01
  24   6    -5.741012000000E-02  2.231099800000E-01  4.963834300000E-01
  25   6     3.868960900000E-01 -2.261521900000E-01  5.014758800000E-01
  26   6     4.391643700000E-01 -2.825051800000E-01  5.040865600000E-01
  27   6     2.247099900000E-01  6.104516200000E-01  5.043121800000E-01
  28   6     2.784244900000E-01 -2.821574600000E-01  5.036353600000E-01
  29   6     3.852736700000E-01  6.097029600000E-01  5.053757700000E-01
  30   6     2.780755700000E-01  5.562532600000E-01  5.036030900000E-01
  31   6     3.878898600000E-01  1.135307500000E-01  4.985106400000E-01
  32   6     4.419253500000E-01  2.230224400000E-01  4.958999800000E-01
  33   6     2.276137100000E-01  1.157191200000E-01  4.956743300000E-01
  34   6     2.808520100000E-01  6.178586000000E-02  4.963511500000E-01
  35   6     3.888877900000E-01  2.773541400000E-01  4.946107600000E-01
  36   6     2.805139700000E-01  2.230325800000E-01  4.963834300000E-01
  37   8     3.943131000000E-01 -5.251036000000E-02  4.993164100000E-01
  38   8     5.513996600000E-01 -5.621996000000E-02  5.048923000000E-01
  39   8     5.542011800000E-01  1.083333400000E-01  4.964801400000E-01
  40   8     1.139009200000E-01  3.867701000000E-01  4.993164400000E-01
  41   8     1.120619300000E-01  2.240973200000E-01  5.048923000000E-01
  42   8     2.737856100000E-01  3.886453100000E-01  4.964801200000E-01

 *******************************************************************************

 << INFORMATION >>: FROM NOW ON, ALL COORDINATES REFER TO THE PRIMITIVE CELL

 *******************************************************************************

 LATTICE PARAMETERS  (ANGSTROMS AND DEGREES) - PRIMITIVE CELL
       A          B          C        ALPHA      BETA     GAMMA        VOLUME
   15.02361   15.02392    9.47032    37.50683  89.99998 119.99596    742.839928

 COORDINATES OF THE EQUIVALENT ATOMS (FRACTIONAL UNITS)

 N. ATOM EQUIV AT. N.          X                  Y                  Z

   1   1   1    5 B     4.46612410000E-01 -1.06852000000E-01 -4.98749760000E-01

   2   2   1    5 B    -3.94331930000E-01  5.22076400000E-02 -4.98749740000E-01

   3   3   1    5 B     4.47489030000E-01  5.39523900000E-02  4.98607350000E-01

   4   4   1    5 B     6.01871200000E-02  2.79462980000E-01 -4.98749740000E-01

   5   5   1    5 B     2.19295090000E-01  2.79442220000E-01 -4.98749750000E-01

   6   6   1    5 B     2.20156260000E-01  4.40343370000E-01  4.98607350000E-01

   7   7   1    1 H    -2.62198250000E-01 -2.15872900000E-02  4.95770980000E-01

   8   8   1    1 H    -6.83280800000E-02  3.61094690000E-01  4.94933100000E-01

   9   9   1    1 H    -2.61948210000E-01  2.64199650000E-01  4.94804150000E-01

  10  10   1    1 H    -6.81941700000E-02  7.57907200000E-02  4.94836310000E-01

  11  11   1    1 H    -4.77024060000E-01 -2.39142980000E-01 -4.95784480000E-01

  12  12   1    1 H     1.40593970000E-01 -4.33268410000E-01 -4.94946550000E-01

  13  13   1    1 H     2.37491240000E-01 -2.39741760000E-01 -4.94817520000E-01

  14  14   1    1 H     4.25944250000E-01 -4.33422830000E-01 -4.94849900000E-01

  15  15   1    1 H    -4.74169150000E-01  2.63536840000E-01  4.95771030000E-01

  16  16   1    1 H     1.43999240000E-01  7.56506100000E-02  4.94933050000E-01

  17  17   1    1 H     2.40920980000E-01 -2.10494700000E-02  4.94804050000E-01

  18  18   1    1 H     4.29360500000E-01  3.61063640000E-01  4.94836410000E-01

  19  19   1    6 C    -2.74264700000E-01  1.13599880000E-01  4.98510650000E-01

  20  20   1    6 C    -2.18795740000E-01  6.21823300000E-02  4.95899920000E-01

  21  21   1    6 C    -1.11821560000E-01  2.76732350000E-01  4.95674390000E-01

  22  22   1    6 C    -2.18983160000E-01  2.22788010000E-01  4.96351230000E-01

  23  23   1    6 C    -1.11428810000E-01  1.16506160000E-01  4.94610690000E-01

  24  24   1    6 C    -5.74101200000E-02  2.23109980000E-01  4.96383430000E-01

  25  25   1    6 C     3.86896090000E-01 -2.26152190000E-01 -4.98524120000E-01

  26  26   1    6 C     4.39164370000E-01 -2.82505180000E-01 -4.95913440000E-01

  27  27   1    6 C     2.24709990000E-01 -3.89548380000E-01 -4.95687820000E-01

  28  28   1    6 C     2.78424490000E-01 -2.82157460000E-01 -4.96364640000E-01

  29  29   1    6 C     3.85273670000E-01 -3.90297040000E-01 -4.94624230000E-01

  30  30   1    6 C     2.78075570000E-01 -4.43746740000E-01 -4.96396910000E-01

  31  31   1    6 C     3.87889860000E-01  1.13530750000E-01  4.98510640000E-01

  32  32   1    6 C     4.41925350000E-01  2.23022440000E-01  4.95899980000E-01

  33  33   1    6 C     2.27613710000E-01  1.15719120000E-01  4.95674330000E-01

  34  34   1    6 C     2.80852010000E-01  6.17858600000E-02  4.96351150000E-01

  35  35   1    6 C     3.88887790000E-01  2.77354140000E-01  4.94610760000E-01

  36  36   1    6 C     2.80513970000E-01  2.23032580000E-01  4.96383430000E-01

  37  37   1    8 O     3.94313100000E-01 -5.25103600000E-02  4.99316410000E-01

  38  38   1    8 O    -4.48600340000E-01 -5.62199600000E-02 -4.95107700000E-01

  39  39   1    8 O    -4.45798820000E-01  1.08333340000E-01  4.96480140000E-01

  40  40   1    8 O     1.13900920000E-01  3.86770100000E-01  4.99316440000E-01

  41  41   1    8 O     1.12061930000E-01  2.24097320000E-01 -4.95107700000E-01

  42  42   1    8 O     2.73785610000E-01  3.88645310000E-01  4.96480120000E-01

 NUMBER OF SYMMETRY OPERATORS         :    1
 *******************************************************************************
 * GEOMETRY EDITING - INPUT COORDINATES ARE GIVEN IN ANGSTROM         
 *******************************************************************************

 GCALCO - MAX INDICES DIRECT LATTICE VECTOR     9    15    21
 NO.OF VECTORS CREATED 6999 STARS 3500 RMAX   222.12862 BOHR

 GEOMETRY FOR WAVE FUNCTION - DIMENSIONALITY OF THE SYSTEM    3
 (NON PERIODIC DIRECTION: LATTICE PARAMETER FORMALLY SET TO 500)
 *******************************************************************************
 LATTICE PARAMETERS (ANGSTROMS AND DEGREES) - BOHR = 0.5291772083 ANGSTROM
 PRIMITIVE CELL - CENTRING CODE 1/0 VOLUME=   742.839928 - DENSITY  0.872 g/cm^3
         A              B              C           ALPHA      BETA       GAMMA 
    15.02361100    15.02391600     9.47032200    37.506834  89.999977 119.995964
 *******************************************************************************
 ATOMS IN THE ASYMMETRIC UNIT   42 - ATOMS IN THE UNIT CELL:   42
     ATOM                 X/A                 Y/B                 Z/C    
 *******************************************************************************
      1 T   5 B     4.466124100000E-01 -1.068520000000E-01 -4.987497600000E-01
      2 T   5 B    -3.943319300000E-01  5.220764000000E-02 -4.987497400000E-01
      3 T   5 B     4.474890300000E-01  5.395239000000E-02  4.986073500000E-01
      4 T   5 B     6.018712000000E-02  2.794629800000E-01 -4.987497400000E-01
      5 T   5 B     2.192950900000E-01  2.794422200000E-01 -4.987497500000E-01
      6 T   5 B     2.201562600000E-01  4.403433700000E-01  4.986073500000E-01
      7 T   1 H    -2.621982500000E-01 -2.158729000000E-02  4.957709800000E-01
      8 T   1 H    -6.832808000000E-02  3.610946900000E-01  4.949331000000E-01
      9 T   1 H    -2.619482100000E-01  2.641996500000E-01  4.948041500000E-01
     10 T   1 H    -6.819417000000E-02  7.579072000000E-02  4.948363100000E-01
     11 T   1 H    -4.770240600000E-01 -2.391429800000E-01 -4.957844800000E-01
     12 T   1 H     1.405939700000E-01 -4.332684100000E-01 -4.949465500000E-01
     13 T   1 H     2.374912400000E-01 -2.397417600000E-01 -4.948175200000E-01
     14 T   1 H     4.259442500000E-01 -4.334228300000E-01 -4.948499000000E-01
     15 T   1 H    -4.741691500000E-01  2.635368400000E-01  4.957710300000E-01
     16 T   1 H     1.439992400000E-01  7.565061000000E-02  4.949330500000E-01
     17 T   1 H     2.409209800000E-01 -2.104947000000E-02  4.948040500000E-01
     18 T   1 H     4.293605000000E-01  3.610636400000E-01  4.948364100000E-01
     19 T   6 C    -2.742647000000E-01  1.135998800000E-01  4.985106500000E-01
     20 T   6 C    -2.187957400000E-01  6.218233000000E-02  4.958999200000E-01
     21 T   6 C    -1.118215600000E-01  2.767323500000E-01  4.956743900000E-01
     22 T   6 C    -2.189831600000E-01  2.227880100000E-01  4.963512300000E-01
     23 T   6 C    -1.114288100000E-01  1.165061600000E-01  4.946106900000E-01
     24 T   6 C    -5.741012000000E-02  2.231099800000E-01  4.963834300000E-01
     25 T   6 C     3.868960900000E-01 -2.261521900000E-01 -4.985241200000E-01
     26 T   6 C     4.391643700000E-01 -2.825051800000E-01 -4.959134400000E-01
     27 T   6 C     2.247099900000E-01 -3.895483800000E-01 -4.956878200000E-01
     28 T   6 C     2.784244900000E-01 -2.821574600000E-01 -4.963646400000E-01
     29 T   6 C     3.852736700000E-01 -3.902970400000E-01 -4.946242300000E-01
     30 T   6 C     2.780755700000E-01 -4.437467400000E-01 -4.963969100000E-01
     31 T   6 C     3.878898600000E-01  1.135307500000E-01  4.985106400000E-01
     32 T   6 C     4.419253500000E-01  2.230224400000E-01  4.958999800000E-01
     33 T   6 C     2.276137100000E-01  1.157191200000E-01  4.956743300000E-01
     34 T   6 C     2.808520100000E-01  6.178586000000E-02  4.963511500000E-01
     35 T   6 C     3.888877900000E-01  2.773541400000E-01  4.946107600000E-01
     36 T   6 C     2.805139700000E-01  2.230325800000E-01  4.963834300000E-01
     37 T   8 O     3.943131000000E-01 -5.251036000000E-02  4.993164100000E-01
     38 T   8 O    -4.486003400000E-01 -5.621996000000E-02 -4.951077000000E-01
     39 T   8 O    -4.457988200000E-01  1.083333400000E-01  4.964801400000E-01
     40 T   8 O     1.139009200000E-01  3.867701000000E-01  4.993164400000E-01
     41 T   8 O     1.120619300000E-01  2.240973200000E-01 -4.951077000000E-01
     42 T   8 O     2.737856100000E-01  3.886453100000E-01  4.964801200000E-01

 T = ATOM BELONGING TO THE ASYMMETRIC UNIT

 ****    1 SYMMOPS - TRANSLATORS IN FRACTIONAL UNITS
 **** MATRICES AND TRANSLATORS IN THE CRYSTALLOGRAPHIC REFERENCE FRAME
   V INV                    ROTATION MATRICES                   TRANSLATORS
   1   1  1.00 -0.00  0.00  0.00  1.00  0.00 -0.00 -0.00  1.00  0.00  0.00  0.00

 DIRECT LATTICE VECTORS CARTESIAN COMPONENTS (ANGSTROM)
          X                    Y                    Z
   0.130113578931E+02  -0.751088897922E+01   0.000000000000E+00
   0.000000000000E+00   0.150239160000E+02   0.000000000000E+00
   0.433671424524E+01   0.751262389401E+01   0.380005138992E+01


 CARTESIAN COORDINATES - PRIMITIVE CELL
 *******************************************************************************
 *      ATOM          X(ANGSTROM)         Y(ANGSTROM)         Z(ANGSTROM)
 *******************************************************************************
    1     5 B    -6.886155282501E-01 -1.195418958796E+00 -5.695326108627E+00
    2     5 B     1.380914675661E+00 -3.695419694204E-04 -5.695326032625E+00
    3     5 B    -6.898861277449E-01  1.194982116174E+00  5.694784943308E+00
    4     5 B    -1.379818943395E+00 -3.496535230700E-04 -1.895274642708E+00
    5     5 B     6.903917545456E-01 -1.195703923524E+00 -1.895274680709E+00
    6     5 B     6.901352435437E-01  1.195338172428E+00 -1.905317836527E+00
    7     1 H    -1.261538198341E+00  5.369557224971E+00  1.883955201630E+00
    8     1 H    -3.079371923054E+00  2.143883252637E+00 -1.919280175346E+00
    9     1 H    -1.262477703847E+00 -5.369861247412E+00  1.880281197944E+00
   10     1 H    -3.078049322690E+00 -2.144232557120E+00 -1.919647982320E+00
   11     1 H    -4.020092140004E+00  3.777992274847E+00  1.916044887594E+00
   12     1 H    -3.171232927413E-01  3.740194825103E+00 -1.880822325262E+00
   13     1 H     5.280915577567E+00 -1.590384431027E+00  1.919719385286E+00
   14     1 H     3.396090468654E+00  1.595366653825E+00 -1.880455050296E+00
   15     1 H    -4.019567224319E+00 -3.778587523980E+00  1.883955391632E+00
   16     1 H    -3.167053888963E-01 -3.739371931386E+00 -1.919280365349E+00
   17     1 H     5.280532866963E+00  1.591500526213E+00  1.880280817939E+00
   18     1 H     3.395812993713E+00 -1.595393306163E+00 -1.919647602315E+00
   19     6 C    -5.743372177112E+00 -8.141060520447E-04 -1.905685301496E+00
   20     6 C    -5.032967676578E+00 -1.209541691109E+00 -1.915606209662E+00
   21     6 C    -3.642066394446E+00  1.208674275480E+00 -1.916463235251E+00
   22     6 C    -5.033449062769E+00  1.208182767436E+00 -1.913891208469E+00
   23     6 C    -3.641569146576E+00 -1.209491623763E+00 -1.920505349915E+00
   24     6 C    -2.931024771261E+00 -2.952413148691E-04 -1.913768846814E+00
   25     6 C     2.872086841615E+00  4.975066700090E+00 -1.894417275113E+00
   26     6 C     3.563489912295E+00  3.755455920714E+00 -1.884496556951E+00
   27     6 C     7.741256718497E-01  3.759685913033E+00 -1.883639189356E+00
   28     6 C     1.470089080461E+00  4.964589734097E+00 -1.886211140138E+00
   29     6 C     2.867889662860E+00  2.550452485153E+00 -1.879597492698E+00
   30     6 C     1.465409211696E+00  2.539264231886E+00 -1.886333767796E+00
   31     6 C     2.872157740200E+00 -4.975222171733E+00 -1.905685339497E+00
   32     6 C     3.563911153105E+00 -3.755695691498E+00 -1.915605981658E+00
   33     6 C     7.744471248477E-01 -3.759836046287E+00 -1.916463463255E+00
   34     6 C     1.470084874701E+00 -4.964907080771E+00 -1.913891512473E+00
   35     6 C     2.868229499431E+00 -2.550746994649E+00 -1.920505083911E+00
   36     6 C     1.465826504415E+00 -2.539568415806E+00 -1.913768846814E+00
   37     8 O    -1.378702193668E+00  2.201107393960E-04  5.697479407747E+00
   38     8 O     6.906034576131E-01 -1.194411417135E+00 -5.681486093461E+00
   39     8 O     6.893587455330E-01  1.194512900917E+00  5.686701435991E+00
   40     8 O    -6.893158925406E-01  1.193857052768E+00 -1.902623258087E+00
   41     8 O    -6.890627381009E-01 -1.194423340649E+00 -1.881434703544E+00
   42     8 O     1.378700721322E+00 -1.543111788273E-04 -1.913401419845E+00

 *******************************************************************************
 STARTING BASIS SET HANDLING 
 *******************************************************************************

 Loading internal basis set: SOLDEF2MSVP         

 Please cite in your publication:
 L. Dona', J. G. Brandenburg and B. Civalleri, J. Chem. Phys., 151, 121101 (2019
 )                                                                              
                                                                                
                    

 *******************************************************************************
 LOCAL ATOMIC FUNCTIONS BASIS SET
 *******************************************************************************
   ATOM   X(AU)   Y(AU)   Z(AU)  N. TYPE  EXPONENT  S COEF   P COEF   D/F/G COEF
 *******************************************************************************
   1 B   -1.301  -2.259 -10.763
                                  1 S  
                                         2.410E+03 1.755E-03 0.000E+00 0.000E+00
                                         3.619E+02 1.344E-02 0.000E+00 0.000E+00
                                         8.231E+01 6.637E-02 0.000E+00 0.000E+00
                                         2.311E+01 2.303E-01 0.000E+00 0.000E+00
                                         7.252E+00 5.150E-01 0.000E+00 0.000E+00
                                  2 S  
                                         2.367E+00 1.000E+00 0.000E+00 0.000E+00
                                  3 S  
                                         5.533E-01 1.000E+00 0.000E+00 0.000E+00
                                  4 S  
                                         1.716E-01 1.000E+00 0.000E+00 0.000E+00
                           5-     7 P  
                                         6.002E+00 0.000E+00-3.555E-02 0.000E+00
                                         1.240E+00 0.000E+00-1.983E-01 0.000E+00
                                         3.367E-01 0.000E+00-5.048E-01 0.000E+00
                           8-    10 P  
                                         1.256E-01 0.000E+00 1.000E+00 0.000E+00
                          11-    15 D  
                                         8.880E-01 0.000E+00 0.000E+00 1.000E+00
   2 B    2.610  -0.001 -10.763
   3 B   -1.304   2.258  10.762
   4 B   -2.607  -0.001  -3.582
   5 B    1.305  -2.260  -3.582
   6 B    1.304   2.259  -3.601
   7 H   -2.384  10.147   3.560
                                 91 S  
                                         1.874E+01 1.968E-02 0.000E+00 0.000E+00
                                         2.826E+00 1.380E-01 0.000E+00 0.000E+00
                                         6.401E-01 4.783E-01 0.000E+00 0.000E+00
                                 92 S  
                                         1.756E-01 1.000E+00 0.000E+00 0.000E+00
   8 H   -5.819   4.051  -3.627
   9 H   -2.386 -10.148   3.553
  10 H   -5.817  -4.052  -3.628
  11 H   -7.597   7.139   3.621
  12 H   -0.599   7.068  -3.554
  13 H    9.979  -3.005   3.628
  14 H    6.418   3.015  -3.554
  15 H   -7.596  -7.140   3.560
  16 H   -0.598  -7.066  -3.627
  17 H    9.979   3.008   3.553
  18 H    6.417  -3.015  -3.628
  19 C  -10.853  -0.002  -3.601
                                115 S  
                                         3.624E+03 1.634E-03 0.000E+00 0.000E+00
                                         5.440E+02 1.252E-02 0.000E+00 0.000E+00
                                         1.237E+02 6.211E-02 0.000E+00 0.000E+00
                                         3.476E+01 2.182E-01 0.000E+00 0.000E+00
                                         1.093E+01 4.980E-01 0.000E+00 0.000E+00
                                116 S  
                                         3.574E+00 1.000E+00 0.000E+00 0.000E+00
                                117 S  
                                         7.742E-01 1.000E+00 0.000E+00 0.000E+00
                                118 S  
                                         2.330E-01 1.000E+00 0.000E+00 0.000E+00
                         119-   121 P  
                                         9.443E+00 0.000E+00 3.790E-02 0.000E+00
                                         2.002E+00 0.000E+00 2.082E-01 0.000E+00
                                         5.463E-01 0.000E+00 5.047E-01 0.000E+00
                         122-   124 P  
                                         1.820E-01 0.000E+00 1.000E+00 0.000E+00
                         125-   129 D  
                                         8.880E-01 0.000E+00 0.000E+00 1.000E+00
  20 C   -9.511  -2.286  -3.620
  21 C   -6.883   2.284  -3.622
  22 C   -9.512   2.283  -3.617
  23 C   -6.882  -2.286  -3.629
  24 C   -5.539  -0.001  -3.616
  25 C    5.427   9.402  -3.580
  26 C    6.734   7.097  -3.561
  27 C    1.463   7.105  -3.560
  28 C    2.778   9.382  -3.564
  29 C    5.420   4.820  -3.552
  30 C    2.769   4.799  -3.565
  31 C    5.428  -9.402  -3.601
  32 C    6.735  -7.097  -3.620
  33 C    1.463  -7.105  -3.622
  34 C    2.778  -9.382  -3.617
  35 C    5.420  -4.820  -3.629
  36 C    2.770  -4.799  -3.616
  37 O   -2.605   0.000  10.767
                                385 S  
                                         6.773E+03 1.727E-03 0.000E+00 0.000E+00
                                         1.017E+03 1.325E-02 0.000E+00 0.000E+00
                                         2.313E+02 6.603E-02 0.000E+00 0.000E+00
                                         6.501E+01 2.353E-01 0.000E+00 0.000E+00
                                         2.050E+01 5.498E-01 0.000E+00 0.000E+00
                                386 S  
                                         6.716E+00 1.000E+00 0.000E+00 0.000E+00
                                387 S  
                                         1.147E+00 1.000E+00 0.000E+00 0.000E+00
                                388 S  
                                         3.342E-01 1.000E+00 0.000E+00 0.000E+00
                         389-   391 P  
                                         1.769E+01 0.000E+00 4.359E-02 0.000E+00
                                         3.854E+00 0.000E+00 2.318E-01 0.000E+00
                                         1.047E+00 0.000E+00 5.146E-01 0.000E+00
                         392-   394 P  
                                         2.759E-01 0.000E+00 1.000E+00 0.000E+00
                         395-   399 D  
                                         8.000E-01 0.000E+00 0.000E+00 1.000E+00
  38 O    1.305  -2.257 -10.736
  39 O    1.303   2.257  10.746
  40 O   -1.303   2.256  -3.595
  41 O   -1.302  -2.257  -3.555
  42 O    2.605  -0.000  -3.616

 *******************************************************************************
 FINISHED BASIS SET HANDLING 
 *******************************************************************************

 INFORMATION **** SET_MPP **** PCRYSTAL CALCULATION
 INFORMATION **** READM2 **** NEW DEFAULT: FOCK/KS MATRIX MIXING SET TO 30 %
 INFORMATION **** READM2 **** NEW DEFAULT: FULL DIRECT SCF MODE
 INFORMATION **** READM2 **** NEW DEFAULT: COULOMB BIPOLAR BUFFER SET TO 32 Mb
 INFORMATION **** READM2 **** NEW DEFAULT: EXCHANGE BIPOLAR BUFFER SET TO 32 Mb

 *******************************************************************************
 NEW DEFAULT: DFT INTEGRATION GRID INCREASED TO XLGRID
 NEW DEFAULT: DIIS ACCELERATOR ACTIVE
 USE KEYWORD NODIIS TO TURN IT OFF
 *******************************************************************************

 WARNING **** RDDFTP **** HSEsol-HJS ACTIVE
 RANGE SEPARATION - OMEGA:   0.110000000000000     
 WARNING **** RDDFTP **** HSEsol-3c has to be combined with sol-def2-mSVP basis set
 *******************************************************************************
 N. OF ATOMS PER CELL        42  COULOMB OVERLAP TOL         (T1) 10**   -6
 NUMBER OF SHELLS           234  COULOMB PENETRATION TOL     (T2) 10**   -6
 NUMBER OF AO               474  EXCHANGE OVERLAP TOL        (T3) 10**   -6
 N. OF ELECTRONS PER CELL   198  EXCHANGE PSEUDO OVP (F(G))  (T4) 10**   -6
 CORE ELECTRONS PER CELL     60  EXCHANGE PSEUDO OVP (P(G))  (T5) 10**  -12
 N. OF SYMMETRY OPERATORS     1  POLE ORDER IN MONO ZONE                  4
 *******************************************************************************
 TYPE OF CALCULATION :  RESTRICTED CLOSED SHELL
 KOHN-SHAM HAMILTONIAN

 (EXCHANGE)[CORRELATION] FUNCTIONAL:(HSEsol GGA)[PBEsol]

 RANGE-SEPARATED HYBRID FUNCTIONAL 
 OMEGA (SHORT-RANGE)[LONG-RANGE]:(    0.1100)[    0.0000]

 HYBRID EXCHANGE - PERCENTAGE OF FOCK EXCHANGE    25.0000

 CAPPA:IS1  2;IS2  2;IS3  8; K PTS MONK NET  20; SYMMOPS:K SPACE   2;G SPACE   1

 *******************************************************************************
 MAX NUMBER OF SCF CYCLES      50  CONVERGENCE ON DELTAP        10**-16
 WEIGHT OF F(I) IN F(I+1)      30% CONVERGENCE ON ENERGY        10**- 6
 SHRINK. FACT.(MONKH.)    2  2  8  NUMBER OF K POINTS IN THE IBZ     20
 SHRINKING FACTOR(GILAT NET)    8  NUMBER OF K POINTS(GILAT NET)   1028
 *******************************************************************************
 *** K POINTS COORDINATES (OBLIQUE COORDINATES IN UNITS OF IS =  2)
   1-R(  0  0  0)   2-R(  1  0  0)   3-R(  0  1  0)   4-R(  1  1  0)
   5-C(  0  0  1)   6-C(  1  0  1)   7-C(  0  1  1)   8-C(  1  1  1)
   9-C(  0  0  2)  10-C(  1  0  2)  11-C(  0  1  2)  12-C(  1  1  2)
  13-C(  0  0  3)  14-C(  1  0  3)  15-C(  0  1  3)  16-C(  1  1  3)
  17-R(  0  0  4)  18-R(  1  0  4)  19-R(  0  1  4)  20-R(  1  1  4)

 DIRECT LATTICE VECTORS COMPON. (A.U.)     RECIP. LATTICE VECTORS COMPON. (A.U.) 
        X            Y            Z              X            Y            Z
   24.5879030  -14.1935232    0.0000000      0.2555397    0.0000000   -0.2916283
    0.0000000   28.3910867    0.0000000      0.1277517    0.2213084   -0.5833156
    8.1952022   14.1968017    7.1810564      0.0000000    0.0000000    0.8749667

 DISK SPACE FOR EIGENVECTORS (FTN 10)     7189632 REALS

 SYMMETRY ADAPTION OF THE BLOCH FUNCTIONS DISABLED
 TTTTTTTTTTTTTTTTTTTTTTTTTTTTTT gordsh1     TELAPSE        0.04 TCPU        0.04

 MATRIX SIZE: P(G)  304338, F(G)   60212, P(G) IRR  153066, F(G) IRR   60692
 MAX G-VECTOR INDEX FOR 1- AND 2-ELECTRON INTEGRALS  57

 TTTTTTTTTTTTTTTTTTTTTTTTTTTTTT INPUT       TELAPSE        0.41 TCPU        0.41

 NEIGHBORS OF THE NON-EQUIVALENT ATOMS

 N = NUMBER OF NEIGHBORS AT DISTANCE R
    ATOM  N     R/ANG      R/AU   NEIGHBORS (ATOM LABELS AND CELL INDICES)
   1 B    1     1.3791     2.6061   37 O    1 2-3
   1 B    1     1.3793     2.6065   38 O    0 0 0
   1 B    1     1.5503     2.9297   25 C    0 0-1
   1 B    1     2.3895     4.5155    3 B    1 2-3
   1 B    1     2.3898     4.5160    2 B    0 0 0
   1 B    1     2.5632     4.8437   26 C    0 0-1

   2 B    1     1.3793     2.6065   39 O    1 2-3
   2 B    1     1.3793     2.6065   38 O    0 0 0
   2 B    1     1.5504     2.9298   19 C    1 1-1
   2 B    1     2.3895     4.5156    3 B    1 2-3
   2 B    1     2.3898     4.5160    1 B    0 0 0
   2 B    1     2.5634     4.8440   22 C    1 1-1

   3 B    1     1.3791     2.6061   37 O    0 0 0
   3 B    1     1.3793     2.6064   39 O    0 0 0
   3 B    1     1.5502     2.9294   31 C   -1-1 2
   3 B    1     2.3895     4.5155    1 B   -1-2 3
   3 B    1     2.3895     4.5156    2 B   -1-2 3
   3 B    1     2.5629     4.8433   32 C   -1-1 2

   4 B    1     1.3795     2.6068   40 O    0 0 0
   4 B    1     1.3795     2.6070   41 O    0 0 0
   4 B    1     1.5513     2.9316   24 C    0 0 0
   4 B    1     2.3905     4.5174    6 B    0 0 0
   4 B    1     2.3905     4.5175    5 B    0 0 0
   4 B    1     2.5648     4.8468   23 C    0 0 0

   5 B    1     1.3795     2.6069   41 O    0 0 0
   5 B    1     1.3797     2.6072   42 O    0 0 0
   5 B    1     1.5516     2.9322   36 C    0 0 0
   5 B    1     2.3905     4.5175    4 B    0 0 0
   5 B    1     2.3911     4.5185    6 B    0 0 0
   5 B    1     2.5651     4.8473   35 C    0 0 0

   6 B    1     1.3795     2.6068   40 O    0 0 0
   6 B    1     1.3796     2.6071   42 O    0 0 0
   6 B    1     1.5516     2.9322   30 C    0 0 0
   6 B    1     2.3905     4.5174    4 B    0 0 0
   6 B    1     2.3911     4.5185    5 B    0 0 0
   6 B    1     2.5651     4.8473   29 C    0 0 0

   7 H    1     1.0913     2.0623   20 C    0 0 1
   7 H    1     2.1472     4.0576   19 C    0 0 1
   7 H    1     2.1680     4.0969   23 C    0 0 1
   7 H    1     2.5202     4.7625   10 H    0 0 1
   7 H    1     2.5676     4.8520   38 O   -1-1 2
   7 H    1     2.7321     5.1630    2 B   -1-1 2

   8 H    1     1.0914     2.0625   21 C    0 0 0
   8 H    1     2.1493     4.0616   24 C    0 0 0
   8 H    1     2.1666     4.0942   22 C    0 0 0
   8 H    1     2.5198     4.7618    9 H    0 1-1
   8 H    1     2.5720     4.8604   40 O    0 0 0
   8 H    1     2.7362     5.1707    4 B    0 0 0

   9 H    1     1.0914     2.0624   22 C    0-1 1
   9 H    1     2.1471     4.0575   19 C    0-1 1
   9 H    1     2.1680     4.0970   21 C    0-1 1
   9 H    1     2.5198     4.7618    8 H    0-1 1
   9 H    1     2.5665     4.8500   39 O    0 0-1
   9 H    1     2.7315     5.1618    2 B   -1-2 2

  10 H    1     1.0915     2.0626   23 C    0 0 0
  10 H    1     2.1490     4.0610   24 C    0 0 0
  10 H    1     2.1669     4.0948   20 C    0 0 0
  10 H    1     2.5202     4.7625    7 H    0 0-1
  10 H    1     2.5712     4.8588   41 O    0 0 0
  10 H    1     2.7351     5.1686    4 B    0 0 0

  11 H    1     1.0913     2.0623   26 C   -1-1 1
  11 H    1     2.1469     4.0571   25 C   -1-1 1
  11 H    1     2.1680     4.0968   29 C   -1-1 1
  11 H    1     2.5198     4.7617   14 H   -1-1 1
  11 H    1     2.5670     4.8510   38 O   -1-1 2
  11 H    1     2.7310     5.1609    1 B   -1-1 2

  12 H    1     1.0914     2.0625   27 C    0 0 0
  12 H    1     2.1493     4.0617   30 C    0 0 0
  12 H    1     2.1664     4.0939   28 C    0 0 0
  12 H    1     2.5192     4.7606   13 H    0 1-1
  12 H    1     2.5735     4.8632   40 O    0 0 0
  12 H    1     2.7371     5.1723    6 B    0 0 0

  13 H    1     1.0914     2.0624   28 C    0-1 1
  13 H    1     2.1475     4.0581   25 C    0-1 1
  13 H    1     2.1679     4.0967   27 C    0-1 1
  13 H    1     2.5192     4.7606   12 H    0-1 1
  13 H    1     2.5675     4.8519   37 O    1 1-1
  13 H    1     2.7328     5.1643    1 B    0-1 2

  14 H    1     1.0914     2.0625   29 C    0 0 0
  14 H    1     2.1491     4.0612   30 C    0 0 0
  14 H    1     2.1666     4.0942   26 C    0 0 0
  14 H    1     2.5198     4.7617   11 H    1 1-1
  14 H    1     2.5723     4.8609   42 O    0 0 0
  14 H    1     2.7355     5.1693    6 B    0 0 0

  15 H    1     1.0914     2.0624   32 C   -1-1 1
  15 H    1     2.1475     4.0582   31 C   -1-1 1
  15 H    1     2.1678     4.0966   35 C   -1-1 1
  15 H    1     2.5200     4.7621   18 H   -1-1 1
  15 H    1     2.5667     4.8503   39 O    0 0-1
  15 H    1     2.7315     5.1618    3 B    0 0-1

  16 H    1     1.0913     2.0623   33 C    0 0 0
  16 H    1     2.1487     4.0605   36 C    0 0 0
  16 H    1     2.1667     4.0945   34 C    0 0 0
  16 H    1     2.5197     4.7616   17 H    0 0-1
  16 H    1     2.5723     4.8610   41 O    0 0 0
  16 H    1     2.7359     5.1701    5 B    0 0 0

  17 H    1     1.0915     2.0626   34 C    0 0 1
  17 H    1     2.1479     4.0589   31 C    0 0 1
  17 H    1     2.1679     4.0968   33 C    0 0 1
  17 H    1     2.5197     4.7616   16 H    0 0 1
  17 H    1     2.5677     4.8522   37 O    1 1-1
  17 H    1     2.7331     5.1648    3 B    1 1-1

  18 H    1     1.0914     2.0624   35 C    0 0 0
  18 H    1     2.1486     4.0602   36 C    0 0 0
  18 H    1     2.1668     4.0947   32 C    0 0 0
  18 H    1     2.5200     4.7621   15 H    1 1-1
  18 H    1     2.5717     4.8598   42 O    0 0 0
  18 H    1     2.7349     5.1682    5 B    0 0 0

  19 C    1     1.4020     2.6495   22 C    0 0 0
  19 C    1     1.4021     2.6495   20 C    0 0 0
  19 C    1     1.5504     2.9298    2 B   -1-1 1
  19 C    1     2.1471     4.0575    9 H    0 1-1
  19 C    1     2.1472     4.0576    7 H    0 0-1
  19 C    1     2.4246     4.5817   21 C    0 0 0

  20 C    1     1.0913     2.0623    7 H    0 0-1
  20 C    1     1.3914     2.6294   23 C    0 0 0
  20 C    1     1.4021     2.6495   19 C    0 0 0
  20 C    1     2.1669     4.0948   10 H    0 0 0
  20 C    1     2.4177     4.5688   22 C    0 0 0
  20 C    1     2.4250     4.5825   24 C    0 0 0

  21 C    1     1.0914     2.0625    8 H    0 0 0
  21 C    1     1.3914     2.6293   22 C    0 0 0
  21 C    1     1.4026     2.6505   24 C    0 0 0
  21 C    1     2.1680     4.0970    9 H    0 1-1
  21 C    1     2.4182     4.5697   23 C    0 0 0
  21 C    1     2.4246     4.5817   19 C    0 0 0

  22 C    1     1.0914     2.0624    9 H    0 1-1
  22 C    1     1.3914     2.6293   21 C    0 0 0
  22 C    1     1.4020     2.6495   19 C    0 0 0
  22 C    1     2.1666     4.0942    8 H    0 0 0
  22 C    1     2.4177     4.5688   20 C    0 0 0
  22 C    1     2.4250     4.5826   24 C    0 0 0

  23 C    1     1.0915     2.0626   10 H    0 0 0
  23 C    1     1.3914     2.6294   20 C    0 0 0
  23 C    1     1.4025     2.6504   24 C    0 0 0
  23 C    1     2.1680     4.0969    7 H    0 0-1
  23 C    1     2.4182     4.5697   21 C    0 0 0
  23 C    1     2.4246     4.5818   19 C    0 0 0

  24 C    1     1.4025     2.6504   23 C    0 0 0
  24 C    1     1.4026     2.6505   21 C    0 0 0
  24 C    1     1.5513     2.9316    4 B    0 0 0
  24 C    1     2.1490     4.0610   10 H    0 0 0
  24 C    1     2.1493     4.0616    8 H    0 0 0
  24 C    1     2.4250     4.5825   20 C    0 0 0

  25 C    1     1.4020     2.6494   26 C    0 0 0
  25 C    1     1.4021     2.6495   28 C    0 0 0
  25 C    1     1.5503     2.9297    1 B    0 0 1
  25 C    1     2.1469     4.0571   11 H    1 1-1
  25 C    1     2.1475     4.0581   13 H    0 1-1
  25 C    1     2.4246     4.5818   27 C    0 0 0

  26 C    1     1.0913     2.0623   11 H    1 1-1
  26 C    1     1.3914     2.6293   29 C    0 0 0
  26 C    1     1.4020     2.6494   25 C    0 0 0
  26 C    1     2.1666     4.0942   14 H    0 0 0
  26 C    1     2.4175     4.5684   28 C    0 0 0
  26 C    1     2.4251     4.5828   30 C    0 0 0

  27 C    1     1.0914     2.0625   12 H    0 0 0
  27 C    1     1.3915     2.6295   28 C    0 0 0
  27 C    1     1.4026     2.6505   30 C    0 0 0
  27 C    1     2.1679     4.0967   13 H    0 1-1
  27 C    1     2.4179     4.5691   29 C    0 0 0
  27 C    1     2.4246     4.5818   25 C    0 0 0

  28 C    1     1.0914     2.0624   13 H    0 1-1
  28 C    1     1.3915     2.6295   27 C    0 0 0
  28 C    1     1.4021     2.6495   25 C    0 0 0
  28 C    1     2.1664     4.0939   12 H    0 0 0
  28 C    1     2.4175     4.5684   26 C    0 0 0
  28 C    1     2.4253     4.5832   30 C    0 0 0

  29 C    1     1.0914     2.0625   14 H    0 0 0
  29 C    1     1.3914     2.6293   26 C    0 0 0
  29 C    1     1.4025     2.6504   30 C    0 0 0
  29 C    1     2.1680     4.0968   11 H    1 1-1
  29 C    1     2.4179     4.5691   27 C    0 0 0
  29 C    1     2.4247     4.5819   25 C    0 0 0

  30 C    1     1.4025     2.6504   29 C    0 0 0
  30 C    1     1.4026     2.6505   27 C    0 0 0
  30 C    1     1.5516     2.9322    6 B    0 0 0
  30 C    1     2.1491     4.0612   14 H    0 0 0
  30 C    1     2.1493     4.0617   12 H    0 0 0
  30 C    1     2.4251     4.5828   26 C    0 0 0

  31 C    1     1.4021     2.6496   32 C    0 0 0
  31 C    1     1.4021     2.6497   34 C    0 0 0
  31 C    1     1.5502     2.9294    3 B    1 1-2
  31 C    1     2.1475     4.0582   15 H    1 1-1
  31 C    1     2.1479     4.0589   17 H    0 0-1
  31 C    1     2.4244     4.5814   33 C    0 0 0

  32 C    1     1.0914     2.0624   15 H    1 1-1
  32 C    1     1.3914     2.6293   35 C    0 0 0
  32 C    1     1.4021     2.6496   31 C    0 0 0
  32 C    1     2.1668     4.0947   18 H    0 0 0
  32 C    1     2.4179     4.5692   34 C    0 0 0
  32 C    1     2.4251     4.5827   36 C    0 0 0

  33 C    1     1.0913     2.0623   16 H    0 0 0
  33 C    1     1.3914     2.6294   34 C    0 0 0
  33 C    1     1.4025     2.6504   36 C    0 0 0
  33 C    1     2.1679     4.0968   17 H    0 0-1
  33 C    1     2.4178     4.5690   35 C    0 0 0
  33 C    1     2.4244     4.5814   31 C    0 0 0

  34 C    1     1.0915     2.0626   17 H    0 0-1
  34 C    1     1.3914     2.6294   33 C    0 0 0
  34 C    1     1.4021     2.6497   31 C    0 0 0
  34 C    1     2.1667     4.0945   16 H    0 0 0
  34 C    1     2.4179     4.5692   32 C    0 0 0
  34 C    1     2.4253     4.5832   36 C    0 0 0

  35 C    1     1.0914     2.0624   18 H    0 0 0
  35 C    1     1.3914     2.6293   32 C    0 0 0
  35 C    1     1.4025     2.6503   36 C    0 0 0
  35 C    1     2.1678     4.0966   15 H    1 1-1
  35 C    1     2.4178     4.5690   33 C    0 0 0
  35 C    1     2.4245     4.5817   31 C    0 0 0

  36 C    1     1.4025     2.6503   35 C    0 0 0
  36 C    1     1.4025     2.6504   33 C    0 0 0
  36 C    1     1.5516     2.9322    5 B    0 0 0
  36 C    1     2.1486     4.0602   18 H    0 0 0
  36 C    1     2.1487     4.0605   16 H    0 0 0
  36 C    1     2.4251     4.5827   32 C    0 0 0

  37 O    1     1.3791     2.6061    1 B   -1-2 3
  37 O    1     1.3791     2.6061    3 B    0 0 0
  37 O    1     2.3880     4.5126   38 O   -1-2 3
  37 O    1     2.3882     4.5130   39 O    0 0 0
  37 O    1     2.5383     4.7966   31 C   -1-1 2
  37 O    1     2.5384     4.7968   25 C   -1-2 2

  38 O    1     1.3793     2.6065    1 B    0 0 0
  38 O    1     1.3793     2.6065    2 B    0 0 0
  38 O    1     2.3880     4.5126   37 O    1 2-3
  38 O    1     2.3882     4.5131   39 O    1 2-3
  38 O    1     2.5391     4.7981   19 C    1 1-1
  38 O    1     2.5395     4.7990   25 C    0 0-1

  39 O    1     1.3793     2.6064    3 B    0 0 0
  39 O    1     1.3793     2.6065    2 B   -1-2 3
  39 O    1     2.3882     4.5130   37 O    0 0 0
  39 O    1     2.3882     4.5131   38 O   -1-2 3
  39 O    1     2.5390     4.7980   19 C    0-1 2
  39 O    1     2.5391     4.7982   31 C   -1-1 2

  40 O    1     1.3795     2.6068    6 B    0 0 0
  40 O    1     1.3795     2.6068    4 B    0 0 0
  40 O    1     2.3880     4.5126   42 O    0 0 0
  40 O    1     2.3884     4.5134   41 O    0 0 0
  40 O    1     2.5400     4.7998   24 C    0 0 0
  40 O    1     2.5403     4.8005   30 C    0 0 0

  41 O    1     1.3795     2.6069    5 B    0 0 0
  41 O    1     1.3795     2.6070    4 B    0 0 0
  41 O    1     2.3881     4.5128   42 O    0 0 0
  41 O    1     2.3884     4.5134   40 O    0 0 0
  41 O    1     2.5404     4.8006   24 C    0 0 0
  41 O    1     2.5405     4.8008   36 C    0 0 0

  42 O    1     1.3796     2.6071    6 B    0 0 0
  42 O    1     1.3797     2.6072    5 B    0 0 0
  42 O    1     2.3880     4.5126   40 O    0 0 0
  42 O    1     2.3881     4.5128   41 O    0 0 0
  42 O    1     2.5409     4.8016   36 C    0 0 0
  42 O    1     2.5410     4.8019   30 C    0 0 0


 SYMMETRY ALLOWED INTERNAL DEGREE(S) OF FREEDOM: 123
 TTTTTTTTTTTTTTTTTTTTTTTTTTTTTT SYMM        TELAPSE        0.41 TCPU        0.41
 TTTTTTTTTTTTTTTTTTTTTTTTTTTTTT INT_SCREEN  TELAPSE        0.45 TCPU        0.45

 DFT PARAMETERS

     ATOM       ELECTRONS   NET CHARGE   R(ANGSTROM)
   1   5  B       5.0000      0.0000     0.89000000
   7   1  H       1.0000      0.0000     1.11000000
  19   6  C       6.0000      0.0000     0.77000000
  37   8  O       8.0000      0.0000     0.74000000

 SIZE OF GRID=    1315523
 TTTTTTTTTTTTTTTTTTTTTTTTTTTTTT MAKE_GRID2  TELAPSE        8.45 TCPU        8.44
 BECKE WEIGHT FUNCTION
 RADSAFE =     2.00
 TOLERANCES - DENSITY:10**- 6; POTENTIAL:10**- 9; GRID WGT:10**-14

 RADIAL INTEGRATION  - INTERVALS (POINTS,UPPER LIMIT):            1( 75,  4.0*R)

 ANGULAR INTEGRATION - INTERVALS (ACCURACY LEVEL [N. POINTS] UPPER LIMIT):
  1(  4[  86]   0.2)  2(  8[ 194]   0.5)  3( 12[ 350]   0.9)  4( 16[ 974]   3.5)
  5( 12[ 350]9999.0)
 TTTTTTTTTTTTTTTTTTTTTTTTTTTTTT INT_CALC    TELAPSE        8.52 TCPU        8.51
 EEEEEEEEEE INT_CALC TERMINATION  DATE 19 02 2026 TIME 18:59:48.3

 *******************************************************************************
 cof-1_z38_L087_incl                                                             
 CRYSTAL - SCF - TYPE OF CALCULATION :  RESTRICTED CLOSED SHELL
 *******************************************************************************

 CAPPA:IS1  2;IS2  2;IS3  8; K PTS MONK NET  20; SYMMOPS:K SPACE   2;G SPACE   1

 TTTTTTTTTTTTTTTTTTTTTTTTTTTTTT SDIK        TELAPSE        9.43 TCPU       20.37

 AAAAAAAAAAAAAAAAAAAAAAAAAAAAAAAAAAAAAAAAAAAAAAAAAAAAAAAAAAAAAAAAAAAAAAAAAAAAAAA
         ATOMIC WAVEFUNCTION(S)


 NUCLEAR CHARGE  5.0  SYMMETRY SPECIES            S    P
 N. ELECTRONS    5.0  NUMBER OF PRIMITIVE GTOS    8    4
                      NUMBER OF CONTRACTED GTOS   4    2
                      NUMBER OF CLOSED SHELLS     2    0
                      OPEN SHELL OCCUPATION       0    1

  ZNUC  SCFIT    TOTAL HF ENERGY   KINETIC ENERGY   VIRIAL THEOREM ACCURACY
   5.0    11    -2.451164084E+01  2.462155050E+01 -1.995536038E+00  1.5E-06

 NUCLEAR CHARGE  1.0  SYMMETRY SPECIES            S
 N. ELECTRONS    1.0  NUMBER OF PRIMITIVE GTOS    4
                      NUMBER OF CONTRACTED GTOS   2
                      NUMBER OF CLOSED SHELLS     0
                      OPEN SHELL OCCUPATION       1

  ZNUC  SCFIT    TOTAL HF ENERGY   KINETIC ENERGY   VIRIAL THEOREM ACCURACY
   1.0     1    -4.977266687E-01  5.190767460E-01 -1.958869132E+00  0.0E+00

 NUCLEAR CHARGE  6.0  SYMMETRY SPECIES            S    P
 N. ELECTRONS    6.0  NUMBER OF PRIMITIVE GTOS    8    4
                      NUMBER OF CONTRACTED GTOS   4    2
                      NUMBER OF CLOSED SHELLS     2    0
                      OPEN SHELL OCCUPATION       0    2

  ZNUC  SCFIT    TOTAL HF ENERGY   KINETIC ENERGY   VIRIAL THEOREM ACCURACY
   6.0     9    -3.766704647E+01  3.775180683E+01 -1.997754800E+00  1.1E-06

 NUCLEAR CHARGE  8.0  SYMMETRY SPECIES            S    P
 N. ELECTRONS    8.0  NUMBER OF PRIMITIVE GTOS    8    4
                      NUMBER OF CONTRACTED GTOS   4    2
                      NUMBER OF CLOSED SHELLS     2    0
                      OPEN SHELL OCCUPATION       0    4

  ZNUC  SCFIT    TOTAL HF ENERGY   KINETIC ENERGY   VIRIAL THEOREM ACCURACY
   8.0    12    -7.477373220E+01  7.477365593E+01 -2.000001020E+00  3.8E-06

 AAAAAAAAAAAAAAAAAAAAAAAAAAAAAAAAAAAAAAAAAAAAAAAAAAAAAAAAAAAAAAAAAAAAAAAAAAAAAAA

 CHARGE NORMALIZATION FACTOR   1.00000000
 TOTAL ATOMIC CHARGES:
   5.0000000   5.0000000   5.0000000   5.0000000   5.0000000   5.0000000
   1.0000000   1.0000000   1.0000000   1.0000000   1.0000000   1.0000000
   1.0000000   1.0000000   1.0000000   1.0000000   1.0000000   1.0000000
   6.0000000   6.0000000   6.0000000   6.0000000   6.0000000   6.0000000
   6.0000000   6.0000000   6.0000000   6.0000000   6.0000000   6.0000000
   6.0000000   6.0000000   6.0000000   6.0000000   6.0000000   6.0000000
   8.0000000   8.0000000   8.0000000   8.0000000   8.0000000   8.0000000
 TTTTTTTTTTTTTTTTTTTTTTTTTTTTTT MOQGAD      TELAPSE        9.52 TCPU       22.23
 TTTTTTTTTTTTTTTTTTTTTTTTTTTTTT SHELLXN     TELAPSE       15.79 TCPU      213.94
 TTTTTTTTTTTTTTTTTTTTTTTTTTTTTT MONMO3      TELAPSE       15.93 TCPU      218.19
 NUMERICALLY INTEGRATED DENSITY    197.9999607075
 TTTTTTTTTTTTTTTTTTTTTTTTTTTTTT NUMDFT      TELAPSE       16.53 TCPU      237.66
 CYC   0 ETOT(AU) -1.295957174922E+03 DETOT -1.30E+03 tst  0.00E+00 PX  1.00E+00
 TTTTTTTTTTTTTTTTTTTTTTTTTTTTTT DIIS        TELAPSE       16.57 TCPU      238.84
 TTTTTTTTTTTTTTTTTTTTTTTTTTTTTT FDIK        TELAPSE       17.07 TCPU      254.74
 INSULATING STATE
 TOP OF VALENCE BANDS -    BAND     99; K    1; EIG -3.1113051E-01 AU
 BOTTOM OF VIRTUAL BANDS - BAND    100; K    1; EIG -1.5684024E-01 AU
 DIRECT ENERGY BAND GAP:   4.1985 eV
 TTTTTTTTTTTTTTTTTTTTTTTTTTTTTT PDIG        TELAPSE       17.40 TCPU      260.93
 CHARGE NORMALIZATION FACTOR   1.00000000
 TOTAL ATOMIC CHARGES:
   4.1580814   4.1578043   4.1582614   4.1577173   4.1573407   4.1573807
   0.7854104   0.7855328   0.7853594   0.7855026   0.7854011   0.7855465
   0.7853937   0.7855108   0.7853625   0.7855736   0.7853601   0.7855283
   6.0442734   6.2659265   6.2658838   6.2658458   6.2658529   6.0437524
   6.0443372   6.2659350   6.2659819   6.2658479   6.2659794   6.0430523
   6.0447415   6.2655747   6.2662278   6.2655262   6.2661707   6.0433381
   8.6952872   8.6955215   8.6953870   8.6957519   8.6956978   8.6960395
 TTTTTTTTTTTTTTTTTTTTTTTTTTTTTT MOQGAD      TELAPSE       17.45 TCPU      260.97
 TTTTTTTTTTTTTTTTTTTTTTTTTTTTTT SHELLXN     TELAPSE       23.69 TCPU      459.82
 TTTTTTTTTTTTTTTTTTTTTTTTTTTTTT MONMO3      TELAPSE       23.82 TCPU      464.07
 NUMERICALLY INTEGRATED DENSITY    197.9999774169
 TTTTTTTTTTTTTTTTTTTTTTTTTTTTTT NUMDFT      TELAPSE       24.44 TCPU      483.78
 CYC   1 ETOT(AU) -1.288815379119E+03 DETOT  7.14E+00 tst  0.00E+00 PX  1.00E+00
 TTTTTTTTTTTTTTTTTTTTTTTTTTTTTT DIIS        TELAPSE       24.48 TCPU      485.30
 DIIS TEST: 0.11148E+01 AT SCF   CYCLE   1 - MIX   30 %
 TTTTTTTTTTTTTTTTTTTTTTTTTTTTTT FDIK        TELAPSE       24.99 TCPU      501.47
 INSULATING STATE
 TOP OF VALENCE BANDS -    BAND     99; K    1; EIG -2.2289729E-01 AU
 BOTTOM OF VIRTUAL BANDS - BAND    100; K    1; EIG -8.1224298E-02 AU
 DIRECT ENERGY BAND GAP:   3.8551 eV
 TTTTTTTTTTTTTTTTTTTTTTTTTTTTTT PDIG        TELAPSE       25.33 TCPU      507.66
 CHARGE NORMALIZATION FACTOR   1.00000000
 TOTAL ATOMIC CHARGES:
   4.7092406   4.7084836   4.7091775   4.7092146   4.7084795   4.7092514
   0.9061513   0.9062552   0.9063434   0.9059685   0.9059062   0.9063102
   0.9058831   0.9061901   0.9062545   0.9060626   0.9062016   0.9062866
   5.8741586   6.1330191   6.1331038   6.1327392   6.1332273   5.8774137
   5.8746308   6.1321923   6.1334581   6.1326323   6.1334159   5.8776905
   5.8744737   6.1329496   6.1330649   6.1331967   6.1326845   5.8771720
   8.3365339   8.3370963   8.3371027   8.3366336   8.3363867   8.3373632
 TTTTTTTTTTTTTTTTTTTTTTTTTTTTTT MOQGAD      TELAPSE       25.37 TCPU      507.71
 TTTTTTTTTTTTTTTTTTTTTTTTTTTTTT SHELLXN     TELAPSE       31.61 TCPU      706.60
 TTTTTTTTTTTTTTTTTTTTTTTTTTTTTT MONMO3      TELAPSE       31.74 TCPU      710.85
 NUMERICALLY INTEGRATED DENSITY    197.9999713584
 TTTTTTTTTTTTTTTTTTTTTTTTTTTTTT NUMDFT      TELAPSE       32.36 TCPU      730.61
 CYC   2 ETOT(AU) -1.289009587072E+03 DETOT -1.94E-01 tst  3.68E-03 PX  1.58E-01
 TTTTTTTTTTTTTTTTTTTTTTTTTTTTTT DIIS        TELAPSE       32.41 TCPU      732.19
 DIIS TEST: 0.46316E+00 AT SCF   CYCLE   2 - DIIS ACTIVE - HISTORY:     2 CYCLES
 TTTTTTTTTTTTTTTTTTTTTTTTTTTTTT FDIK        TELAPSE       32.91 TCPU      748.22
 INSULATING STATE
 TOP OF VALENCE BANDS -    BAND     99; K    1; EIG -2.3608870E-01 AU
 BOTTOM OF VIRTUAL BANDS - BAND    100; K    1; EIG -7.5593743E-02 AU
 DIRECT ENERGY BAND GAP:   4.3673 eV
 TTTTTTTTTTTTTTTTTTTTTTTTTTTTTT PDIG        TELAPSE       33.25 TCPU      754.41
 CHARGE NORMALIZATION FACTOR   1.00000000
 TOTAL ATOMIC CHARGES:
   4.4998061   4.4990968   4.4997609   4.4996725   4.4990242   4.4994975
   0.8852228   0.8854342   0.8853068   0.8852216   0.8849677   0.8855475
   0.8849982   0.8853928   0.8852673   0.8852591   0.8853101   0.8853813
   5.8900771   6.1636356   6.1627484   6.1631227   6.1630681   5.8899241
   5.8906305   6.1633750   6.1629615   6.1633143   6.1630565   5.8892028
   5.8901186   6.1630230   6.1633684   6.1632984   6.1629073   5.8897919
   8.5133887   8.5138323   8.5135980   8.5135897   8.5137530   8.5140468
 TTTTTTTTTTTTTTTTTTTTTTTTTTTTTT MOQGAD      TELAPSE       33.29 TCPU      754.45
 TTTTTTTTTTTTTTTTTTTTTTTTTTTTTT SHELLXN     TELAPSE       39.53 TCPU      953.30
 TTTTTTTTTTTTTTTTTTTTTTTTTTTTTT MONMO3      TELAPSE       39.66 TCPU      957.54
 NUMERICALLY INTEGRATED DENSITY    197.9999713234
 TTTTTTTTTTTTTTTTTTTTTTTTTTTTTT NUMDFT      TELAPSE       40.28 TCPU      977.27
 CYC   3 ETOT(AU) -1.289104865636E+03 DETOT -9.53E-02 tst  6.79E-04 PX  6.22E-02
 TTTTTTTTTTTTTTTTTTTTTTTTTTTTTT DIIS        TELAPSE       40.34 TCPU      979.13
 DIIS TEST: 0.13256E-01 AT SCF   CYCLE   3 - DIIS ACTIVE - HISTORY:     3 CYCLES
 TTTTTTTTTTTTTTTTTTTTTTTTTTTTTT FDIK        TELAPSE       40.85 TCPU      995.29
 INSULATING STATE
 TOP OF VALENCE BANDS -    BAND     99; K    1; EIG -2.4504164E-01 AU
 BOTTOM OF VIRTUAL BANDS - BAND    100; K    1; EIG -8.3982243E-02 AU
 DIRECT ENERGY BAND GAP:   4.3827 eV
 TTTTTTTTTTTTTTTTTTTTTTTTTTTTTT PDIG        TELAPSE       41.18 TCPU     1001.48
 CHARGE NORMALIZATION FACTOR   1.00000000
 TOTAL ATOMIC CHARGES:
   4.5054180   4.5046729   4.5053709   4.5051306   4.5043557   4.5049731
   0.8687830   0.8688399   0.8688207   0.8686482   0.8685856   0.8688761
   0.8685752   0.8687574   0.8687639   0.8687351   0.8688155   0.8688432
   5.9423856   6.1662829   6.1665304   6.1662707   6.1664990   5.9446018
   5.9425553   6.1657151   6.1668882   6.1659593   6.1668150   5.9446320
   5.9428611   6.1662970   6.1665470   6.1662793   6.1663922   5.9440990
   8.4809273   8.4813788   8.4813488   8.4811593   8.4808553   8.4817544
 TTTTTTTTTTTTTTTTTTTTTTTTTTTTTT MOQGAD      TELAPSE       41.23 TCPU     1001.52
 TTTTTTTTTTTTTTTTTTTTTTTTTTTTTT SHELLXN     TELAPSE       47.47 TCPU     1200.42
 TTTTTTTTTTTTTTTTTTTTTTTTTTTTTT MONMO3      TELAPSE       47.60 TCPU     1204.68
 NUMERICALLY INTEGRATED DENSITY    197.9999721228
 TTTTTTTTTTTTTTTTTTTTTTTTTTTTTT NUMDFT      TELAPSE       48.22 TCPU     1224.38
 CYC   4 ETOT(AU) -1.289107644580E+03 DETOT -2.78E-03 tst  2.81E-05 PX  1.27E-02
 TTTTTTTTTTTTTTTTTTTTTTTTTTTTTT DIIS        TELAPSE       48.28 TCPU     1226.34
 DIIS TEST: 0.38026E-02 AT SCF   CYCLE   4 - DIIS ACTIVE - HISTORY:     4 CYCLES
 TTTTTTTTTTTTTTTTTTTTTTTTTTTTTT FDIK        TELAPSE       48.79 TCPU     1242.50
 INSULATING STATE
 TOP OF VALENCE BANDS -    BAND     99; K    1; EIG -2.4351645E-01 AU
 BOTTOM OF VIRTUAL BANDS - BAND    100; K    1; EIG -8.3803735E-02 AU
 DIRECT ENERGY BAND GAP:   4.3460 eV
 TTTTTTTTTTTTTTTTTTTTTTTTTTTTTT PDIG        TELAPSE       49.12 TCPU     1248.68
 CHARGE NORMALIZATION FACTOR   1.00000000
 TOTAL ATOMIC CHARGES:
   4.5081778   4.5074304   4.5081170   4.5080386   4.5073235   4.5079188
   0.8713533   0.8715606   0.8714583   0.8713230   0.8711165   0.8716390
   0.8711295   0.8714941   0.8714148   0.8713777   0.8714229   0.8715314
   5.9224599   6.1682302   6.1674982   6.1677869   6.1678392   5.9230629
   5.9230495   6.1678199   6.1677786   6.1678585   6.1678675   5.9225298
   5.9225604   6.1677163   6.1680516   6.1679800   6.1675738   5.9229118
   8.4906181   8.4910985   8.4908963   8.4907864   8.4908637   8.4913348
 TTTTTTTTTTTTTTTTTTTTTTTTTTTTTT MOQGAD      TELAPSE       49.16 TCPU     1248.73
 TTTTTTTTTTTTTTTTTTTTTTTTTTTTTT SHELLXN     TELAPSE       55.40 TCPU     1447.54
 TTTTTTTTTTTTTTTTTTTTTTTTTTTTTT MONMO3      TELAPSE       55.54 TCPU     1451.79
 NUMERICALLY INTEGRATED DENSITY    197.9999719681
 TTTTTTTTTTTTTTTTTTTTTTTTTTTTTT NUMDFT      TELAPSE       56.15 TCPU     1471.56
 CYC   5 ETOT(AU) -1.289108519365E+03 DETOT -8.75E-04 tst  6.06E-06 PX  6.52E-03
 TTTTTTTTTTTTTTTTTTTTTTTTTTTTTT DIIS        TELAPSE       56.23 TCPU     1473.80
 DIIS TEST: 0.71063E-04 AT SCF   CYCLE   5 - DIIS ACTIVE - HISTORY:     5 CYCLES
 TTTTTTTTTTTTTTTTTTTTTTTTTTTTTT FDIK        TELAPSE       56.73 TCPU     1490.05
 INSULATING STATE
 TOP OF VALENCE BANDS -    BAND     99; K    1; EIG -2.4341062E-01 AU
 BOTTOM OF VIRTUAL BANDS - BAND    100; K    1; EIG -8.3252843E-02 AU
 DIRECT ENERGY BAND GAP:   4.3581 eV
 TTTTTTTTTTTTTTTTTTTTTTTTTTTTTT PDIG        TELAPSE       57.07 TCPU     1496.24
 CHARGE NORMALIZATION FACTOR   1.00000000
 TOTAL ATOMIC CHARGES:
   4.5077903   4.5070384   4.5077307   4.5075295   4.5068050   4.5073579
   0.8723176   0.8723885   0.8723667   0.8722033   0.8720983   0.8724583
   0.8720888   0.8723356   0.8723053   0.8722765   0.8723595   0.8723877
   5.9223439   6.1672944   6.1673657   6.1672021   6.1673394   5.9239790
   5.9224935   6.1667891   6.1677052   6.1669862   6.1676387   5.9239011
   5.9227619   6.1672188   6.1674517   6.1672340   6.1672621   5.9235047
   8.4899692   8.4903854   8.4903670   8.4902243   8.4900010   8.4907438
 TTTTTTTTTTTTTTTTTTTTTTTTTTTTTT MOQGAD      TELAPSE       57.11 TCPU     1496.28
 TTTTTTTTTTTTTTTTTTTTTTTTTTTTTT SHELLXN     TELAPSE       63.36 TCPU     1695.23
 TTTTTTTTTTTTTTTTTTTTTTTTTTTTTT MONMO3      TELAPSE       69.91 TCPU     1705.46
 NUMERICALLY INTEGRATED DENSITY    197.9999719307
 TTTTTTTTTTTTTTTTTTTTTTTTTTTTTT NUMDFT      TELAPSE       70.53 TCPU     1725.28
 CYC   6 ETOT(AU) -1.289108540716E+03 DETOT -2.14E-05 tst  2.20E-07 PX  7.28E-04
 TTTTTTTTTTTTTTTTTTTTTTTTTTTTTT DIIS        TELAPSE       70.60 TCPU     1727.54
 DIIS TEST: 0.44062E-05 AT SCF   CYCLE   6 - DIIS ACTIVE - HISTORY:     6 CYCLES
 TTTTTTTTTTTTTTTTTTTTTTTTTTTTTT FDIK        TELAPSE       71.10 TCPU     1743.66
 INSULATING STATE
 TOP OF VALENCE BANDS -    BAND     99; K    1; EIG -2.4336804E-01 AU
 BOTTOM OF VIRTUAL BANDS - BAND    100; K    1; EIG -8.3337407E-02 AU
 DIRECT ENERGY BAND GAP:   4.3547 eV
 TTTTTTTTTTTTTTTTTTTTTTTTTTTTTT PDIG        TELAPSE       71.43 TCPU     1749.84
 CHARGE NORMALIZATION FACTOR   1.00000000
 TOTAL ATOMIC CHARGES:
   4.5079347   4.5071839   4.5078724   4.5077901   4.5070716   4.5076580
   0.8722320   0.8724355   0.8723374   0.8721947   0.8719908   0.8725200
   0.8720062   0.8723718   0.8722952   0.8722478   0.8723058   0.8724024
   5.9230324   6.1674380   6.1666906   6.1669660   6.1670712   5.9236985
   5.9236745   6.1670451   6.1669500   6.1670700   6.1670546   5.9231206
   5.9231062   6.1668854   6.1672883   6.1671711   6.1667875   5.9235742
   8.4901082   8.4906054   8.4903695   8.4902593   8.4903522   8.4908311
 TTTTTTTTTTTTTTTTTTTTTTTTTTTTTT MOQGAD      TELAPSE       71.48 TCPU     1749.89
 TTTTTTTTTTTTTTTTTTTTTTTTTTTTTT SHELLXN     TELAPSE       77.72 TCPU     1948.73
 TTTTTTTTTTTTTTTTTTTTTTTTTTTTTT MONMO3      TELAPSE       77.85 TCPU     1952.98
 NUMERICALLY INTEGRATED DENSITY    197.9999719323
 TTTTTTTTTTTTTTTTTTTTTTTTTTTTTT NUMDFT      TELAPSE       78.47 TCPU     1972.72
 CYC   7 ETOT(AU) -1.289108540627E+03 DETOT  8.90E-08 tst  2.43E-08 PX  2.60E-04
 TTTTTTTTTTTTTTTTTTTTTTTTTTTTTT DIIS        TELAPSE       78.55 TCPU     1975.35
 DIIS TEST: 0.93248E-06 AT SCF   CYCLE   7 - DIIS ACTIVE - HISTORY:     7 CYCLES
 TTTTTTTTTTTTTTTTTTTTTTTTTTTTTT FDIK        TELAPSE       79.06 TCPU     1991.49
 INSULATING STATE
 TOP OF VALENCE BANDS -    BAND     99; K    1; EIG -2.4338709E-01 AU
 BOTTOM OF VIRTUAL BANDS - BAND    100; K    1; EIG -8.3335428E-02 AU
 DIRECT ENERGY BAND GAP:   4.3552 eV
 TTTTTTTTTTTTTTTTTTTTTTTTTTTTTT PDIG        TELAPSE       79.40 TCPU     1997.67
 CHARGE NORMALIZATION FACTOR   1.00000000
 TOTAL ATOMIC CHARGES:
   4.5079873   4.5072371   4.5079260   4.5077781   4.5070568   4.5076311
   0.8722352   0.8723644   0.8723062   0.8721581   0.8720083   0.8724371
   0.8720082   0.8723048   0.8722522   0.8722236   0.8722889   0.8723517
   5.9226246   6.1673187   6.1670441   6.1670874   6.1671678   5.9237976
   5.9229504   6.1668516   6.1673623   6.1669851   6.1673595   5.9235375
   5.9229144   6.1670684   6.1673204   6.1671819   6.1670121   5.9234557
   8.4900861   8.4905271   8.4904381   8.4903083   8.4902092   8.4908366
 TTTTTTTTTTTTTTTTTTTTTTTTTTTTTT MOQGAD      TELAPSE       79.44 TCPU     1997.72
 TTTTTTTTTTTTTTTTTTTTTTTTTTTTTT SHELLXN     TELAPSE       85.68 TCPU     2196.53
 +++ ENERGIES IN A.U. +++
 ::: EXT EL-POLE                                  -1.3824809803847E+03
 ::: EXT EL-SPHEROPOLE                             1.5051031208776E+01
 ::: BIELET ZONE E-E                               2.0411426359939E+03
 ::: TOTAL E-E                                     6.7371268681799E+02
 ::: TOTAL E-N + N-E                              -3.1757180510723E+03
 ::: TOTAL N-N                                     6.6668224899798E+01
 ::: KINETIC ENERGY                                1.2799479761810E+03
 ::: PSEUDO TOTAL   ENERGY                        -1.1553891631735E+03
 ::: VIRIAL COEFFICIENT                            1.0511464351258E+00
 TTTTTTTTTTTTTTTTTTTTTTTTTTTTTT MONMO3      TELAPSE       85.81 TCPU     2200.78
 NUMERICALLY INTEGRATED DENSITY    197.9999719319
 EXCHANGE ENERGY: -0.126028823768E+03  CORRELATION ENERGY: -0.769055401473E+01
 TTTTTTTTTTTTTTTTTTTTTTTTTTTTTT NUMDFT      TELAPSE       86.43 TCPU     2220.53
 CYC   8 ETOT(AU) -1.289108540956E+03 DETOT -3.29E-07 tst  8.46E-09 PX  2.60E-04

 == SCF ENDED - CONVERGENCE ON ENERGY      E(AU) -1.2891085409560E+03 CYCLES   8


 ENERGY EXPRESSION=HARTREE+FOCK EXCH*0.00000+(HSESOL     EXCH)*1.00000+PBESOL     CORR


 TOTAL ENERGY(DFT)(AU)(  8) -1.2891085409560E+03 DE-3.3E-07 tester 8.5E-09
 TTTTTTTTTTTTTTTTTTTTTTTTTTTTTT EDFT        TELAPSE       86.43 TCPU     2220.54
 
 INFORMATION **** DFTD3 ENERGY **** CALCULATE DFTD3 ENERGY

           DFT-D V3(BJ)
 DF                                         hsesol3c  
 parameters
 s6       :    1.0000
 s8       :    0.0000
 a1       :    0.5196
 a2       :    4.9385
 k1 k3    :   16.0000   -4.0000
 Cutoff   :   50.2022
 CN-Cutoff:   21.1671
 ABC-Cutoff:   21.1671
 
 Edisp /kcal,au:   -24.0072 -0.03825794

 E6    /kcal :   -25.2926
 E8    /kcal :     0.0000
 E6(ABC) "   :   1.285338
 
 INFORMATION **** DFTD3 ENERGY **** NORMAL TERMINATION OF DFTD3 MODULE

 GCP ENERGY CALCULATION
  level        hsesol3c            basis:hsesol3c
  Nbf            474
  Atoms           42

  Parameters: 
  sigma     1.0000
  eta       1.4281
  alpha     0.2936
  beta      1.9467

  dmp_scal      4.0000
  dmp_exp       6.0000
 cutoffs: 
   distance [bohr] 60.0
   noise    [a.u.] 2.2E-16
 SR-damping   T
 ** gCP correction **
  Egcp:        0.0830017586 / (a.u.) ||      52.0844 / (kcal/mol)
 INFORMATION **** GCP **** NORMAL TERMINATION OF GCP MODULE

 *******************************************************************************

 DFT-D3-GCP DISPERSION AND COUNTERPOISE CORRECTION

 D3 DISPERSION ENERGY (AU)      -3.8257942092707E-02
 GCP ENERGY (AU)                 8.3001758628244E-02
 TOTAL ENERGY + DISP + GCP (AU) -1.2890637971395E+03

 *******************************************************************************

 EIGENVECTORS IN FORTRAN UNIT  8
 TTTTTTTTTTTTTTTTTTTTTTTTTTTTTT END         TELAPSE       88.20 TCPU     2228.24
 EEEEEEEEEE TERMINATION  DATE 19 02 2026 TIME 19:01:08.0
