 Default number of threads is:           32

         
 *******************************************************************************
 *                                                                             *
 *                               CRYSTAL23                                     *
 *                      public : 1.0.1 - October 2022                          *
 *                       HTTP://WWW.CRYSTAL.UNITO.IT                           *
 *                                                                             *
 *                              MAIN AUTHORS                                   *
 *                                                                             *
 *  R. DOVESI(1,11), V.R. SAUNDERS(2), C. ROETTI(1,11), R. ORLANDO(1,11),      *
 *  C.M. ZICOVICH-WILSON(1,3), F. PASCALE(4), B. CIVALLERI(1,11),              *
 *  K. DOLL(5), N.M. HARRISON(6), I.J. BUSH(7), Ph. D'ARCO(8),                 *
 *  M. LLUNELL(9), M. CAUSA'(10), Y. NOEL(8), L. MASCHIO(1,11), A. ERBA(1,11)  *
 *  M. RE'RAT(14), S. CASASSA(1,11), B.G. SEARLE(2), J.K. DESMARAIS(1)         *
 *                                                                             *
 *        CONTRIBUTIONS TO THE CODE HAVE ALSO BEEN GIVEN BY                    *
 *                                                                             *
 *  M. FERRABONE(1,11), M. DE LA PIERRE(1,11), M. FERRERO(1,11),               *
 *  J. BAIMA(1,11), E. ALBANESE(1,11), M.F. PEINTINGER(12), R. BAST(13),       *
 *  B. KIRTMAN(15), V. LACIVITA(1,11), R. DEMICHELIS(1,16)                     *
 *  G. BRANDEBURG(17), S. SALUSTRO(1,11), G. SANSONE(1,11)                     *
 *  M.T. RUGGIERO(18), L.E. DAGA(1), L. DONA'(1), A. COSSARD(1)                *
 *                                                                             *
 * (1) THEORETICAL CHEMISTRY GROUP - UNIVERSITA' DI TORINO - TORINO (ITALY)    *
 * (2) SCIENTIFIC COMPUTING DEPARTMENT - STFC DARESBURY (UK)                   *
 * (3) UNIVERSIDAD AUTONOMA DEL ESTADO DE MORELOS - CUERNAVACA (MEXICO)        *
 * (4) UNIVERSITE' DE LORRAINE - NANCY (FRANCE)                                *
 * (5) UNIVERSITAET STUTTGART- STUTTGART (GERMANY)                             *
 * (6) IMPERIAL COLLEGE - LONDON (UK)                                          *
 * (7) SCIENTIFIC COMPUTING DEPARTMENT - STFC RAL (UK)                         *
 * (8) UPMC - SORBONNE UNIVERSITES - PARIS (FRANCE)                            *
 * (9) UNIVERSIDAD DE BARCELONA - BARCELONA (SPAIN)                            *
 *(10) UNIVERSITA' DI NAPOLI "FEDERICO II" - NAPOLI (ITALY)                    *
 *(11) NIS - NANOSTRUCTURED INTERFACES AND SURFACES - TORINO (ITALY)           *
 *(12) MPI FUER CHEMISCHE ENERGIEKONVERSION - MUELHEIM AN DER RUHR (GERMANY)   *
 *(13) UNIVERSITY OF TROMSO - TROMSO (NORWAY)                                  *
 *(14) UNIVERSITE' DE PAU ET DES PAYS DE L'ADOUR - PAU (FRANCE)                *
 *(15) UNIVERSITY OF CALIFORNIA SANTA BARBARA - SANTA BARBARA (USA)            *
 *(16) CURTIN UNIVERSITY - PERTH (AUSTRALIA)                                   *
 *(17) UNIVERSITY COLLEGE LONDON - LONDON (UK)                                 *
 *(18) UNIVERSITY OF VERMONT - BURLINGTON (USA)                                *
 *                                                                             *
 *******************************************************************************
 EEEEEEEEEE STARTING  DATE 02 12 2025 TIME 08:00:40.2
 COF-5_z36_inc_L030                                                              

 CRYSTAL CALCULATION
 (INPUT ACCORDING TO THE INTERNATIONAL TABLES FOR X-RAY CRYSTALLOGRAPHY)
 CRYSTAL FAMILY                       :  TRICLINIC   
 CRYSTAL CLASS  (GROTH - 1921)        :  TRICLINIC PEDIAL                     

 SPACE GROUP (NONCENTROSYMMETRIC)     :  P 1             

 LATTICE PARAMETERS  (ANGSTROMS AND DEGREES) - CONVENTIONAL CELL
        A           B           C        ALPHA        BETA       GAMMA
    15.02070    15.04439     4.68615    56.35299    89.99945   120.05310


 NUMBER OF IRREDUCIBLE ATOMS IN THE CONVENTIONAL CELL:   42

 INPUT COORDINATES

 ATOM AT. N.              COORDINATES
   1   5     5.577629200000E-01  1.127353400000E-01  5.006453200000E-01
   2   5     7.165411700000E-01  2.717597600000E-01  5.006553100000E-01
   3   5     5.574747000000E-01  2.717765800000E-01  4.992253600000E-01
   4   5     1.703823500000E-01  4.979146100000E-01  5.054402500000E-01
   5   5     3.284896500000E-01  4.964821600000E-01  5.094840800000E-01
   6   5     3.294515600000E-01  6.571950200000E-01  5.035185300000E-01
   7   1     8.461174400000E-01  1.933107600000E-01  5.045436600000E-01
   8   1     4.190469000000E-02  5.778723100000E-01  4.929535100000E-01
   9   1     8.475383900000E-01  4.806046900000E-01  4.928152200000E-01
  10   1     4.060667000000E-02  2.906239100000E-01  5.041122400000E-01
  11   1     5.361320300000E-01  7.870625500000E-01  5.042343100000E-01
  12   1     3.511073500000E-01 -1.530770000000E-02  4.945857100000E-01
  13   1     2.526160500000E-01  7.906793900000E-01  4.958925400000E-01
  14   1     6.344486900000E-01 -1.881862000000E-02  5.023730100000E-01
  15   1     5.364742000000E-01  5.758830600000E-01  4.977899900000E-01
  16   1     3.482067700000E-01  1.923616400000E-01  5.060729900000E-01
  17   1     2.508848900000E-01  2.883671700000E-01  5.057081100000E-01
  18   1     6.341577400000E-01  4.798087700000E-01  4.987234200000E-01
  19   6     8.358625700000E-01  3.312464400000E-01  5.004053300000E-01
  20   6     8.901826900000E-01  2.776630900000E-01  5.021713900000E-01
  21   6    -2.061490000000E-03  4.934721900000E-01  4.957785900000E-01
  22   6     8.909210700000E-01  4.398696000000E-01  4.961157500000E-01
  23   6    -2.712280000000E-03  3.313763400000E-01  5.015276900000E-01
  24   6     5.204131000000E-02  4.395514200000E-01  4.993444600000E-01
  25   6     3.886032000000E-01  7.769470300000E-01  5.018867600000E-01
  26   6     4.964313700000E-01  8.313391800000E-01  5.022769300000E-01
  27   6     3.905816000000E-01 -5.990018000000E-02  4.970006500000E-01
  28   6     3.363340200000E-01  8.328868800000E-01  4.981193100000E-01
  29   6     5.506807700000E-01 -6.146315000000E-02  5.008395500000E-01
  30   6     4.981889800000E-01 -6.095710000000E-03  4.992153200000E-01
  31   6     3.884234200000E-01  4.383313200000E-01  4.999865300000E-01
  32   6     4.963363400000E-01  4.917133600000E-01  4.994350500000E-01
  33   6     3.889760500000E-01  2.766417900000E-01  5.039585100000E-01
  34   6     3.351448400000E-01  3.298274500000E-01  5.033505800000E-01
  35   6     5.500415500000E-01  4.384326500000E-01  5.003734000000E-01
  36   6     4.971434300000E-01  3.304232400000E-01  5.016152300000E-01
  37   8     5.047652300000E-01  1.657881000000E-01  4.996152200000E-01
  38   8     6.635791600000E-01  1.653964700000E-01  5.026052200000E-01
  39   8     6.637098700000E-01  3.251815000000E-01  4.980855800000E-01
  40   8     2.235316400000E-01  6.043956300000E-01  5.027518900000E-01
  41   8     2.224266100000E-01  4.436089800000E-01  5.102395100000E-01
  42   8     3.820545200000E-01  6.035365400000E-01  5.052235800000E-01

 *******************************************************************************

 << INFORMATION >>: FROM NOW ON, ALL COORDINATES REFER TO THE PRIMITIVE CELL

 *******************************************************************************

 LATTICE PARAMETERS  (ANGSTROMS AND DEGREES) - PRIMITIVE CELL
       A          B          C        ALPHA      BETA     GAMMA        VOLUME
   15.02070   15.04439    4.68615    56.35299  89.99945 120.05310    704.184908

 COORDINATES OF THE EQUIVALENT ATOMS (FRACTIONAL UNITS)

 N. ATOM EQUIV AT. N.          X                  Y                  Z

   1   1   1    5 B    -4.42237080000E-01  1.12735340000E-01 -4.99354680000E-01

   2   2   1    5 B    -2.83458830000E-01  2.71759760000E-01 -4.99344690000E-01

   3   3   1    5 B    -4.42525300000E-01  2.71776580000E-01  4.99225360000E-01

   4   4   1    5 B     1.70382350000E-01  4.97914610000E-01 -4.94559750000E-01

   5   5   1    5 B     3.28489650000E-01  4.96482160000E-01 -4.90515920000E-01

   6   6   1    5 B     3.29451560000E-01 -3.42804980000E-01 -4.96481470000E-01

   7   7   1    1 H    -1.53882560000E-01  1.93310760000E-01 -4.95456340000E-01

   8   8   1    1 H     4.19046900000E-02 -4.22127690000E-01  4.92953510000E-01

   9   9   1    1 H    -1.52461610000E-01  4.80604690000E-01  4.92815220000E-01

  10  10   1    1 H     4.06066700000E-02  2.90623910000E-01 -4.95887760000E-01

  11  11   1    1 H    -4.63867970000E-01 -2.12937450000E-01 -4.95765690000E-01

  12  12   1    1 H     3.51107350000E-01 -1.53077000000E-02  4.94585710000E-01

  13  13   1    1 H     2.52616050000E-01 -2.09320610000E-01  4.95892540000E-01

  14  14   1    1 H    -3.65551310000E-01 -1.88186200000E-02 -4.97626990000E-01

  15  15   1    1 H    -4.63525800000E-01 -4.24116940000E-01  4.97789990000E-01

  16  16   1    1 H     3.48206770000E-01  1.92361640000E-01 -4.93927010000E-01

  17  17   1    1 H     2.50884890000E-01  2.88367170000E-01 -4.94291890000E-01

  18  18   1    1 H    -3.65842260000E-01  4.79808770000E-01  4.98723420000E-01

  19  19   1    6 C    -1.64137430000E-01  3.31246440000E-01 -4.99594670000E-01

  20  20   1    6 C    -1.09817310000E-01  2.77663090000E-01 -4.97828610000E-01

  21  21   1    6 C    -2.06149000000E-03  4.93472190000E-01  4.95778590000E-01

  22  22   1    6 C    -1.09078930000E-01  4.39869600000E-01  4.96115750000E-01

  23  23   1    6 C    -2.71228000000E-03  3.31376340000E-01 -4.98472310000E-01

  24  24   1    6 C     5.20413100000E-02  4.39551420000E-01  4.99344460000E-01

  25  25   1    6 C     3.88603200000E-01 -2.23052970000E-01 -4.98113240000E-01

  26  26   1    6 C     4.96431370000E-01 -1.68660820000E-01 -4.97723070000E-01

  27  27   1    6 C     3.90581600000E-01 -5.99001800000E-02  4.97000650000E-01

  28  28   1    6 C     3.36334020000E-01 -1.67113120000E-01  4.98119310000E-01

  29  29   1    6 C    -4.49319230000E-01 -6.14631500000E-02 -4.99160450000E-01

  30  30   1    6 C     4.98188980000E-01 -6.09571000000E-03  4.99215320000E-01

  31  31   1    6 C     3.88423420000E-01  4.38331320000E-01  4.99986530000E-01

  32  32   1    6 C     4.96336340000E-01  4.91713360000E-01  4.99435050000E-01

  33  33   1    6 C     3.88976050000E-01  2.76641790000E-01 -4.96041490000E-01

  34  34   1    6 C     3.35144840000E-01  3.29827450000E-01 -4.96649420000E-01

  35  35   1    6 C    -4.49958450000E-01  4.38432650000E-01 -4.99626600000E-01

  36  36   1    6 C     4.97143430000E-01  3.30423240000E-01 -4.98384770000E-01

  37  37   1    8 O    -4.95234770000E-01  1.65788100000E-01  4.99615220000E-01

  38  38   1    8 O    -3.36420840000E-01  1.65396470000E-01 -4.97394780000E-01

  39  39   1    8 O    -3.36290130000E-01  3.25181500000E-01  4.98085580000E-01

  40  40   1    8 O     2.23531640000E-01 -3.95604370000E-01 -4.97248110000E-01

  41  41   1    8 O     2.22426610000E-01  4.43608980000E-01 -4.89760490000E-01

  42  42   1    8 O     3.82054520000E-01 -3.96463460000E-01 -4.94776420000E-01

 NUMBER OF SYMMETRY OPERATORS         :    1
 *******************************************************************************
 * GEOMETRY EDITING - INPUT COORDINATES ARE GIVEN IN ANGSTROM         
 *******************************************************************************

 GCALCO - MAX INDICES DIRECT LATTICE VECTOR     9    11    31
 NO.OF VECTORS CREATED 6999 STARS 3500 RMAX   199.30087 BOHR

 GEOMETRY FOR WAVE FUNCTION - DIMENSIONALITY OF THE SYSTEM    3
 (NON PERIODIC DIRECTION: LATTICE PARAMETER FORMALLY SET TO 500)
 *******************************************************************************
 LATTICE PARAMETERS (ANGSTROMS AND DEGREES) - BOHR = 0.5291772083 ANGSTROM
 PRIMITIVE CELL - CENTRING CODE 1/0 VOLUME=   704.184908 - DENSITY  0.920 g/cm^3
         A              B              C           ALPHA      BETA       GAMMA 
    15.02070100    15.04438700     4.68615000    56.352992  89.999452 120.053104
 *******************************************************************************
 ATOMS IN THE ASYMMETRIC UNIT   42 - ATOMS IN THE UNIT CELL:   42
     ATOM                 X/A                 Y/B                 Z/C    
 *******************************************************************************
      1 T   5 B    -4.422370800000E-01  1.127353400000E-01 -4.993546800000E-01
      2 T   5 B    -2.834588300000E-01  2.717597600000E-01 -4.993446900000E-01
      3 T   5 B    -4.425253000000E-01  2.717765800000E-01  4.992253600000E-01
      4 T   5 B     1.703823500000E-01  4.979146100000E-01 -4.945597500000E-01
      5 T   5 B     3.284896500000E-01  4.964821600000E-01 -4.905159200000E-01
      6 T   5 B     3.294515600000E-01 -3.428049800000E-01 -4.964814700000E-01
      7 T   1 H    -1.538825600000E-01  1.933107600000E-01 -4.954563400000E-01
      8 T   1 H     4.190469000000E-02 -4.221276900000E-01  4.929535100000E-01
      9 T   1 H    -1.524616100000E-01  4.806046900000E-01  4.928152200000E-01
     10 T   1 H     4.060667000000E-02  2.906239100000E-01 -4.958877600000E-01
     11 T   1 H    -4.638679700000E-01 -2.129374500000E-01 -4.957656900000E-01
     12 T   1 H     3.511073500000E-01 -1.530770000000E-02  4.945857100000E-01
     13 T   1 H     2.526160500000E-01 -2.093206100000E-01  4.958925400000E-01
     14 T   1 H    -3.655513100000E-01 -1.881862000000E-02 -4.976269900000E-01
     15 T   1 H    -4.635258000000E-01 -4.241169400000E-01  4.977899900000E-01
     16 T   1 H     3.482067700000E-01  1.923616400000E-01 -4.939270100000E-01
     17 T   1 H     2.508848900000E-01  2.883671700000E-01 -4.942918900000E-01
     18 T   1 H    -3.658422600000E-01  4.798087700000E-01  4.987234200000E-01
     19 T   6 C    -1.641374300000E-01  3.312464400000E-01 -4.995946700000E-01
     20 T   6 C    -1.098173100000E-01  2.776630900000E-01 -4.978286100000E-01
     21 T   6 C    -2.061490000000E-03  4.934721900000E-01  4.957785900000E-01
     22 T   6 C    -1.090789300000E-01  4.398696000000E-01  4.961157500000E-01
     23 T   6 C    -2.712280000000E-03  3.313763400000E-01 -4.984723100000E-01
     24 T   6 C     5.204131000000E-02  4.395514200000E-01  4.993444600000E-01
     25 T   6 C     3.886032000000E-01 -2.230529700000E-01 -4.981132400000E-01
     26 T   6 C     4.964313700000E-01 -1.686608200000E-01 -4.977230700000E-01
     27 T   6 C     3.905816000000E-01 -5.990018000000E-02  4.970006500000E-01
     28 T   6 C     3.363340200000E-01 -1.671131200000E-01  4.981193100000E-01
     29 T   6 C    -4.493192300000E-01 -6.146315000000E-02 -4.991604500000E-01
     30 T   6 C     4.981889800000E-01 -6.095710000000E-03  4.992153200000E-01
     31 T   6 C     3.884234200000E-01  4.383313200000E-01  4.999865300000E-01
     32 T   6 C     4.963363400000E-01  4.917133600000E-01  4.994350500000E-01
     33 T   6 C     3.889760500000E-01  2.766417900000E-01 -4.960414900000E-01
     34 T   6 C     3.351448400000E-01  3.298274500000E-01 -4.966494200000E-01
     35 T   6 C    -4.499584500000E-01  4.384326500000E-01 -4.996266000000E-01
     36 T   6 C     4.971434300000E-01  3.304232400000E-01 -4.983847700000E-01
     37 T   8 O    -4.952347700000E-01  1.657881000000E-01  4.996152200000E-01
     38 T   8 O    -3.364208400000E-01  1.653964700000E-01 -4.973947800000E-01
     39 T   8 O    -3.362901300000E-01  3.251815000000E-01  4.980855800000E-01
     40 T   8 O     2.235316400000E-01 -3.956043700000E-01 -4.972481100000E-01
     41 T   8 O     2.224266100000E-01  4.436089800000E-01 -4.897604900000E-01
     42 T   8 O     3.820545200000E-01 -3.964634600000E-01 -4.947764200000E-01

 T = ATOM BELONGING TO THE ASYMMETRIC UNIT

 ****    1 SYMMOPS - TRANSLATORS IN FRACTIONAL UNITS
 **** MATRICES AND TRANSLATORS IN THE CRYSTALLOGRAPHIC REFERENCE FRAME
   V INV                    ROTATION MATRICES                   TRANSLATORS
   1   1  1.00  0.00  0.00  0.00  1.00  0.00  0.00  0.00  1.00  0.00  0.00  0.00

 DIRECT LATTICE VECTORS CARTESIAN COMPONENTS (ANGSTROM)
          X                    Y                    Z
   0.130013421718E+02  -0.752240388864E+01   0.000000000000E+00
   0.000000000000E+00   0.150443870000E+02   0.000000000000E+00
   0.150233905293E+01   0.259647728878E+01   0.360017845133E+01


 CARTESIAN COORDINATES - PRIMITIVE CELL
 *******************************************************************************
 *      ATOM          X(ANGSTROM)         Y(ANGSTROM)         Z(ANGSTROM)
 *******************************************************************************
    1     5 B    -6.499875635155E+00  3.726156928165E+00 -1.797765958504E+00
    2     5 B    -4.435530269103E+00  4.924213658672E+00 -1.797729992722E+00
    3     5 B     6.495586028416E+00 -1.405087783600E+00 -1.802878067898E+00
    4     5 B     1.472202805947E+00  4.925022074779E+00 -1.780503354843E+00
    5     5 B     3.533885116835E+00  3.724624487033E+00 -1.765944845216E+00
    6     5 B     2.035089906213E+00  3.523248369356E+00 -5.387600341101E+00
    7     1 H    -2.745023225434E+00  2.779367518051E+00 -1.783731238840E+00
    8     1 H     1.285400522646E+00 -5.385933741645E+00  1.774720604207E+00
    9     1 H    -1.241830008784E+00 -5.387522715398E+00  1.774222735529E+00
   10     1 H    -2.170503365933E-01  2.779237494557E+00 -1.785284427828E+00
   11     1 H    -5.273375304754E+00  1.595121750890E+00  1.815333497281E+00
   12     1 H     5.307902223530E+00 -1.587285694481E+00  1.780596815475E+00
   13     1 H     4.029346433032E+00 -3.761806502985E+00  1.785301636681E+00
   14     1 H    -3.997923070588E+00  3.771110104717E+00  1.808632485129E+00
   15     1 H    -5.278608189109E+00 -1.601250694593E+00  1.792132795283E+00
   16     1 H     3.785109526877E+00 -1.007859268364E+00 -1.778225377929E+00
   17     1 H     2.519246290723E+00  1.167632165025E+00 -1.779539011043E+00
   18     1 H    -4.007188732677E+00 -3.779020905460E+00  1.795493309855E+00
   19     6 C    -2.884567474004E+00  4.920921463186E+00 -1.798629965331E+00
   20     6 C    -2.175679786164E+00  3.710760461791E+00 -1.792271834175E+00
   21     6 C    -7.843136524418E-01  6.130294520909E+00 -1.815287054979E+00
   22     6 C     8.295006262726E-01 -3.721652174604E+00  5.386283683838E+00
   23     6 C    -7.841376984645E-01  3.711484735222E+00 -1.794589269044E+00
   24     6 C    -7.554749143204E-02  4.921365177054E+00 -1.802449286645E+00
   25     6 C     2.801689146078E+00  4.875644571323E+00 -5.393475004293E+00
   26     6 C    -5.792477818275E+00  2.554798614115E+00  1.808286579984E+00
   27     6 C     5.824748513427E+00 -2.548823135728E+00  1.789291030425E+00
   28     6 C     5.121137770461E+00 -3.750799314471E+00  1.793318406051E+00
   29     6 C    -5.089322238369E+00  3.755703825052E+00  1.803111755481E+00
   30     6 C    -5.774226105528E+00  4.979320188522E+00  1.797264237635E+00
   31     6 C     4.298836027977E+00  2.374274548315E+00 -1.800137720066E+00
   32     6 C     5.701020315711E+00  2.364178142586E+00 -1.802123146479E+00
   33     6 C     4.311988220373E+00 -5.208926505301E-02 -1.785837883261E+00
   34     6 C     3.611196922662E+00  1.151418013834E+00 -1.788026539747E+00
   35     6 C    -5.098333271662E+00 -3.764459176948E+00  1.801433532296E+00
   36     6 C     5.714788938521E+00 -6.274331106933E-02 -1.794274109423E+00
   37     8 O     5.810877875157E+00 -2.602105309529E+00 -1.801474502327E+00
   38     8 O    -5.121178057275E+00  3.727507688323E+00 -1.790709968758E+00
   39     8 O    -2.121590577650E+00 -3.732775302018E+00  5.393375423357E+00
   40     8 O     6.568370302742E-01  3.523695767576E+00 -5.390360381909E+00
   41     8 O     2.156058154007E+00  3.728990386568E+00 -1.763225162408E+00
   42     8 O     2.721560551623E+00  2.324715843147E+00 -5.381461856833E+00

 *******************************************************************************
 STARTING BASIS SET HANDLING 
 *******************************************************************************

 Loading internal basis set: SOLDEF2MSVP         

 Please cite in your publication:
 L. Dona', J. G. Brandenburg and B. Civalleri, J. Chem. Phys., 151, 121101 (2019
 )                                                                              
                                                                                
                    

 *******************************************************************************
 LOCAL ATOMIC FUNCTIONS BASIS SET
 *******************************************************************************
   ATOM   X(AU)   Y(AU)   Z(AU)  N. TYPE  EXPONENT  S COEF   P COEF   D/F/G COEF
 *******************************************************************************
   1 B  -12.283   7.041  -3.397
                                  1 S  
                                         2.410E+03 1.755E-03 0.000E+00 0.000E+00
                                         3.619E+02 1.344E-02 0.000E+00 0.000E+00
                                         8.231E+01 6.637E-02 0.000E+00 0.000E+00
                                         2.311E+01 2.303E-01 0.000E+00 0.000E+00
                                         7.252E+00 5.150E-01 0.000E+00 0.000E+00
                                  2 S  
                                         2.367E+00 1.000E+00 0.000E+00 0.000E+00
                                  3 S  
                                         5.533E-01 1.000E+00 0.000E+00 0.000E+00
                                  4 S  
                                         1.716E-01 1.000E+00 0.000E+00 0.000E+00
                           5-     7 P  
                                         6.002E+00 0.000E+00-3.555E-02 0.000E+00
                                         1.240E+00 0.000E+00-1.983E-01 0.000E+00
                                         3.367E-01 0.000E+00-5.048E-01 0.000E+00
                           8-    10 P  
                                         1.256E-01 0.000E+00 1.000E+00 0.000E+00
                          11-    15 D  
                                         8.880E-01 0.000E+00 0.000E+00 1.000E+00
   2 B   -8.382   9.305  -3.397
   3 B   12.275  -2.655  -3.407
   4 B    2.782   9.307  -3.365
   5 B    6.678   7.039  -3.337
   6 B    3.846   6.658 -10.181
   7 H   -5.187   5.252  -3.371
                                 91 S  
                                         1.874E+01 1.968E-02 0.000E+00 0.000E+00
                                         2.826E+00 1.380E-01 0.000E+00 0.000E+00
                                         6.401E-01 4.783E-01 0.000E+00 0.000E+00
                                 92 S  
                                         1.756E-01 1.000E+00 0.000E+00 0.000E+00
   8 H    2.429 -10.178   3.354
   9 H   -2.347 -10.181   3.353
  10 H   -0.410   5.252  -3.374
  11 H   -9.965   3.014   3.430
  12 H   10.030  -3.000   3.365
  13 H    7.614  -7.109   3.374
  14 H   -7.555   7.126   3.418
  15 H   -9.975  -3.026   3.387
  16 H    7.153  -1.905  -3.360
  17 H    4.761   2.207  -3.363
  18 H   -7.572  -7.141   3.393
  19 C   -5.451   9.299  -3.399
                                115 S  
                                         3.624E+03 1.634E-03 0.000E+00 0.000E+00
                                         5.440E+02 1.252E-02 0.000E+00 0.000E+00
                                         1.237E+02 6.211E-02 0.000E+00 0.000E+00
                                         3.476E+01 2.182E-01 0.000E+00 0.000E+00
                                         1.093E+01 4.980E-01 0.000E+00 0.000E+00
                                116 S  
                                         3.574E+00 1.000E+00 0.000E+00 0.000E+00
                                117 S  
                                         7.742E-01 1.000E+00 0.000E+00 0.000E+00
                                118 S  
                                         2.330E-01 1.000E+00 0.000E+00 0.000E+00
                         119-   121 P  
                                         9.443E+00 0.000E+00 3.790E-02 0.000E+00
                                         2.002E+00 0.000E+00 2.082E-01 0.000E+00
                                         5.463E-01 0.000E+00 5.047E-01 0.000E+00
                         122-   124 P  
                                         1.820E-01 0.000E+00 1.000E+00 0.000E+00
                         125-   129 D  
                                         8.880E-01 0.000E+00 0.000E+00 1.000E+00
  20 C   -4.111   7.012  -3.387
  21 C   -1.482  11.585  -3.430
  22 C    1.568  -7.033  10.179
  23 C   -1.482   7.014  -3.391
  24 C   -0.143   9.300  -3.406
  25 C    5.294   9.214 -10.192
  26 C  -10.946   4.828   3.417
  27 C   11.007  -4.817   3.381
  28 C    9.678  -7.088   3.389
  29 C   -9.617   7.097   3.407
  30 C  -10.912   9.410   3.396
  31 C    8.124   4.487  -3.402
  32 C   10.773   4.468  -3.406
  33 C    8.148  -0.098  -3.375
  34 C    6.824   2.176  -3.379
  35 C   -9.634  -7.114   3.404
  36 C   10.799  -0.119  -3.391
  37 O   10.981  -4.917  -3.404
                                385 S  
                                         6.773E+03 1.727E-03 0.000E+00 0.000E+00
                                         1.017E+03 1.325E-02 0.000E+00 0.000E+00
                                         2.313E+02 6.603E-02 0.000E+00 0.000E+00
                                         6.501E+01 2.353E-01 0.000E+00 0.000E+00
                                         2.050E+01 5.498E-01 0.000E+00 0.000E+00
                                386 S  
                                         6.716E+00 1.000E+00 0.000E+00 0.000E+00
                                387 S  
                                         1.147E+00 1.000E+00 0.000E+00 0.000E+00
                                388 S  
                                         3.342E-01 1.000E+00 0.000E+00 0.000E+00
                         389-   391 P  
                                         1.769E+01 0.000E+00 4.359E-02 0.000E+00
                                         3.854E+00 0.000E+00 2.318E-01 0.000E+00
                                         1.047E+00 0.000E+00 5.146E-01 0.000E+00
                         392-   394 P  
                                         2.759E-01 0.000E+00 1.000E+00 0.000E+00
                         395-   399 D  
                                         8.000E-01 0.000E+00 0.000E+00 1.000E+00
  38 O   -9.678   7.044  -3.384
  39 O   -4.009  -7.054  10.192
  40 O    1.241   6.659 -10.186
  41 O    4.074   7.047  -3.332
  42 O    5.143   4.393 -10.169

 *******************************************************************************
 FINISHED BASIS SET HANDLING 
 *******************************************************************************

 INFORMATION **** SET_MPP **** PCRYSTAL CALCULATION
 INFORMATION **** READM2 **** NEW DEFAULT: FOCK/KS MATRIX MIXING SET TO 30 %
 INFORMATION **** READM2 **** NEW DEFAULT: FULL DIRECT SCF MODE
 INFORMATION **** READM2 **** NEW DEFAULT: COULOMB BIPOLAR BUFFER SET TO 32 Mb
 INFORMATION **** READM2 **** NEW DEFAULT: EXCHANGE BIPOLAR BUFFER SET TO 32 Mb

 *******************************************************************************
 NEW DEFAULT: DFT INTEGRATION GRID INCREASED TO XLGRID
 NEW DEFAULT: DIIS ACCELERATOR ACTIVE
 USE KEYWORD NODIIS TO TURN IT OFF
 *******************************************************************************

 WARNING **** RDDFTP **** HSEsol-HJS ACTIVE
 RANGE SEPARATION - OMEGA:   0.110000000000000     
 WARNING **** RDDFTP **** HSEsol-3c has to be combined with sol-def2-mSVP basis set
 *******************************************************************************
 N. OF ATOMS PER CELL        42  COULOMB OVERLAP TOL         (T1) 10**   -6
 NUMBER OF SHELLS           234  COULOMB PENETRATION TOL     (T2) 10**   -6
 NUMBER OF AO               474  EXCHANGE OVERLAP TOL        (T3) 10**   -6
 N. OF ELECTRONS PER CELL   198  EXCHANGE PSEUDO OVP (F(G))  (T4) 10**   -6
 CORE ELECTRONS PER CELL     60  EXCHANGE PSEUDO OVP (P(G))  (T5) 10**  -12
 N. OF SYMMETRY OPERATORS     1  POLE ORDER IN MONO ZONE                  4
 *******************************************************************************
 TYPE OF CALCULATION :  RESTRICTED CLOSED SHELL
 KOHN-SHAM HAMILTONIAN

 (EXCHANGE)[CORRELATION] FUNCTIONAL:(HSEsol GGA)[PBEsol]

 RANGE-SEPARATED HYBRID FUNCTIONAL 
 OMEGA (SHORT-RANGE)[LONG-RANGE]:(    0.1100)[    0.0000]

 HYBRID EXCHANGE - PERCENTAGE OF FOCK EXCHANGE    25.0000

 CAPPA:IS1  2;IS2  2;IS3  8; K PTS MONK NET  20; SYMMOPS:K SPACE   2;G SPACE   1

 *******************************************************************************
 MAX NUMBER OF SCF CYCLES      50  CONVERGENCE ON DELTAP        10**-16
 WEIGHT OF F(I) IN F(I+1)      30% CONVERGENCE ON ENERGY        10**- 6
 SHRINK. FACT.(MONKH.)    2  2  8  NUMBER OF K POINTS IN THE IBZ     20
 SHRINKING FACTOR(GILAT NET)    8  NUMBER OF K POINTS(GILAT NET)   1028
 *******************************************************************************
 *** K POINTS COORDINATES (OBLIQUE COORDINATES IN UNITS OF IS =  2)
   1-R(  0  0  0)   2-R(  1  0  0)   3-R(  0  1  0)   4-R(  1  1  0)
   5-C(  0  0  1)   6-C(  1  0  1)   7-C(  0  1  1)   8-C(  1  1  1)
   9-C(  0  0  2)  10-C(  1  0  2)  11-C(  0  1  2)  12-C(  1  1  2)
  13-C(  0  0  3)  14-C(  1  0  3)  15-C(  0  1  3)  16-C(  1  1  3)
  17-R(  0  0  4)  18-R(  1  0  4)  19-R(  0  1  4)  20-R(  1  1  4)

 DIRECT LATTICE VECTORS COMPON. (A.U.)     RECIP. LATTICE VECTORS COMPON. (A.U.) 
        X            Y            Z              X            Y            Z
   24.5689761  -14.2152832    0.0000000      0.2557366    0.0000000   -0.1067178
    0.0000000   28.4297713    0.0000000      0.1278719    0.2210072   -0.2127526
    2.8390094    4.9066310    6.8033513      0.0000000    0.0000000    0.9235427

 DISK SPACE FOR EIGENVECTORS (FTN 10)     7189632 REALS

 SYMMETRY ADAPTION OF THE BLOCH FUNCTIONS DISABLED
 TTTTTTTTTTTTTTTTTTTTTTTTTTTTTT gordsh1     TELAPSE        0.04 TCPU        0.04

 MATRIX SIZE: P(G)  352438, F(G)   72675, P(G) IRR  177554, F(G) IRR   73371
 MAX G-VECTOR INDEX FOR 1- AND 2-ELECTRON INTEGRALS  59

 TTTTTTTTTTTTTTTTTTTTTTTTTTTTTT INPUT       TELAPSE        0.34 TCPU        0.34

 NEIGHBORS OF THE NON-EQUIVALENT ATOMS

 N = NUMBER OF NEIGHBORS AT DISTANCE R
    ATOM  N     R/ANG      R/AU   NEIGHBORS (ATOM LABELS AND CELL INDICES)
   1 B    1     1.3787     2.6054   38 O    0 0 0
   1 B    1     1.3795     2.6068   37 O   -1 0 0
   1 B    1     1.5517     2.9323   30 C    0 0-1
   1 B    1     2.3868     4.5104    2 B    0 0 0
   1 B    1     2.3912     4.5187    3 B   -1 0 0
   1 B    1     2.5629     4.8432   27 C   -1 0-1

   2 B    1     1.3792     2.6064   38 O    0 0 0
   2 B    1     1.3798     2.6075   39 O    0 1-2
   2 B    1     1.5510     2.9309   19 C    0 0 0
   2 B    1     2.3868     4.5104    1 B    0 0 0
   2 B    1     2.3894     4.5154    3 B   -1 0 0
   2 B    1     2.5618     4.8411   22 C    0 1-2

   3 B    1     1.3790     2.6060   37 O    0 0 0
   3 B    1     1.3795     2.6069   39 O    1 1-2
   3 B    1     1.5529     2.9346   36 C    0 0 0
   3 B    1     2.3894     4.5154    2 B    1 0 0
   3 B    1     2.3912     4.5187    1 B    1 0 0
   3 B    1     2.5679     4.8526   35 C    1 1-1

   4 B    1     1.3778     2.6037   41 O    0 0 0
   4 B    1     1.3786     2.6051   40 O    0 0 1
   4 B    1     1.5479     2.9251   24 C    0 0 0
   4 B    1     2.3857     4.5084    5 B    0 0 0
   4 B    1     2.3859     4.5087    6 B    0 0 1
   4 B    1     2.5585     4.8348   21 C    0 0 0

   5 B    1     1.3778     2.6037   41 O    0 0 0
   5 B    1     1.3814     2.6104   42 O    0 0 1
   5 B    1     1.5523     2.9335   31 C    0 0 0
   5 B    1     2.3857     4.5084    4 B    0 0 0
   5 B    1     2.3952     4.5263    6 B    0 0 1
   5 B    1     2.5590     4.8359   32 C    0 0 0

   6 B    1     1.3783     2.6045   40 O    0 0 0
   6 B    1     1.3812     2.6101   42 O    0 0 0
   6 B    1     1.5546     2.9377   25 C    0 0 0
   6 B    1     2.3859     4.5087    4 B    0 0-1
   6 B    1     2.3952     4.5263    5 B    0 0-1
   6 B    1     2.5605     4.8386   26 C    1 1-2

   7 H    1     1.0917     2.0629   20 C    0 0 0
   7 H    1     2.1461     4.0556   19 C    0 0 0
   7 H    1     2.1712     4.1029   23 C    0 0 0
   7 H    1     2.5280     4.7772   10 H    0 0 0
   7 H    1     2.5583     4.8346   38 O    0 0 0
   7 H    1     2.7310     5.1608    2 B    0 0 0

   8 H    1     1.0909     2.0615   21 C    0-1 1
   8 H    1     2.1454     4.0542   24 C    0-1 1
   8 H    1     2.1688     4.0985   22 C    0 0-1
   8 H    1     2.5272     4.7758    9 H    0 0 0
   8 H    1     2.5562     4.8305   40 O    0-1 2
   8 H    1     2.7243     5.1482    4 B    0-1 1

   9 H    1     1.0908     2.0614   22 C    0 0-1
   9 H    1     2.1442     4.0520   19 C    0-1 1
   9 H    1     2.1694     4.0995   21 C    0-1 1
   9 H    1     2.5272     4.7758    8 H    0 0 0
   9 H    1     2.5616     4.8407   39 O    0 0-1
   9 H    1     2.7248     5.1492    2 B    0-1 1

  10 H    1     1.0912     2.0621   23 C    0 0 0
  10 H    1     2.1469     4.0570   24 C    0 0 0
  10 H    1     2.1689     4.0986   20 C    0 0 0
  10 H    1     2.5280     4.7772    7 H    0 0 0
  10 H    1     2.5562     4.8305   41 O    0 0 0
  10 H    1     2.7309     5.1607    4 B    0 0 0

  11 H    1     1.0911     2.0619   26 C    0 0 0
  11 H    1     2.1443     4.0521   25 C   -1-1 2
  11 H    1     2.1684     4.0978   29 C    0 0 0
  11 H    1     2.5223     4.7664   14 H    0 0 0
  11 H    1     2.5622     4.8419   42 O   -1-1 2
  11 H    1     2.7179     5.1361    6 B   -1-1 2

  12 H    1     1.0917     2.0630   27 C    0 0 0
  12 H    1     2.1441     4.0518   30 C    1 0 0
  12 H    1     2.1716     4.1037   28 C    0 0 0
  12 H    1     2.5226     4.7669   13 H    0 0 0
  12 H    1     2.5541     4.8265   37 O    0 0 1
  12 H    1     2.7237     5.1470    1 B    1 0 1

  13 H    1     1.0919     2.0633   28 C    0 0 0
  13 H    1     2.1522     4.0671   25 C    0-1 2
  13 H    1     2.1668     4.0946   27 C    0 0 0
  13 H    1     2.5226     4.7669   12 H    0 0 0
  13 H    1     2.5923     4.8987   40 O    0-1 2
  13 H    1     2.7583     5.2124    6 B    0-1 2

  14 H    1     1.0915     2.0627   29 C    0 0 0
  14 H    1     2.1483     4.0597   30 C    0 0 0
  14 H    1     2.1679     4.0968   26 C    0 0 0
  14 H    1     2.5223     4.7664   11 H    0 0 0
  14 H    1     2.5809     4.8771   38 O    0 0 1
  14 H    1     2.7404     5.1785    1 B    0 0 1

  15 H    1     1.0916     2.0628   32 C   -1-1 1
  15 H    1     2.1436     4.0508   31 C   -1-1 1
  15 H    1     2.1707     4.1021   35 C    0 0 0
  15 H    1     2.5217     4.7654   18 H    0 0 0
  15 H    1     2.5567     4.8315   42 O   -1-1 2
  15 H    1     2.7165     5.1335    5 B   -1-1 1

  16 H    1     1.0914     2.0624   33 C    0 0 0
  16 H    1     2.1488     4.0606   36 C    0 0 0
  16 H    1     2.1663     4.0937   34 C    0 0 0
  16 H    1     2.5170     4.7564   17 H    0 0 0
  16 H    1     2.5780     4.8716   37 O    0 0 0
  16 H    1     2.7395     5.1770    3 B    0 0 0

  17 H    1     1.0921     2.0638   34 C    0 0 0
  17 H    1     2.1502     4.0633   31 C    0 0 0
  17 H    1     2.1683     4.0976   33 C    0 0 0
  17 H    1     2.5170     4.7564   16 H    0 0 0
  17 H    1     2.5870     4.8888   41 O    0 0 0
  17 H    1     2.7510     5.1986    5 B    0 0 0

  18 H    1     1.0913     2.0622   35 C    0 0 0
  18 H    1     2.1495     4.0619   36 C   -1-1 1
  18 H    1     2.1656     4.0923   32 C   -1-1 1
  18 H    1     2.5217     4.7654   15 H    0 0 0
  18 H    1     2.5789     4.8734   39 O    0 0-1
  18 H    1     2.7392     5.1763    3 B   -1-1 1

  19 C    1     1.4017     2.6489   22 C    0 1-2
  19 C    1     1.4025     2.6504   20 C    0 0 0
  19 C    1     1.5510     2.9309    2 B    0 0 0
  19 C    1     2.1442     4.0520    9 H    0 1-1
  19 C    1     2.1461     4.0556    7 H    0 0 0
  19 C    1     2.4236     4.5800   21 C    0 0 0

  20 C    1     1.0917     2.0629    7 H    0 0 0
  20 C    1     1.3915     2.6296   23 C    0 0 0
  20 C    1     1.4025     2.6504   19 C    0 0 0
  20 C    1     2.1689     4.0986   10 H    0 0 0
  20 C    1     2.4191     4.5715   22 C    0 1-2
  20 C    1     2.4241     4.5809   24 C    0 0 0

  21 C    1     1.0909     2.0615    8 H    0 1-1
  21 C    1     1.3909     2.6284   22 C    0 1-2
  21 C    1     1.4014     2.6483   24 C    0 0 0
  21 C    1     2.1694     4.0995    9 H    0 1-1
  21 C    1     2.4189     4.5711   23 C    0 0 0
  21 C    1     2.4236     4.5800   19 C    0 0 0

  22 C    1     1.0908     2.0614    9 H    0 0 1
  22 C    1     1.3909     2.6284   21 C    0-1 2
  22 C    1     1.4017     2.6489   19 C    0-1 2
  22 C    1     2.1688     4.0985    8 H    0 0 1
  22 C    1     2.4191     4.5715   20 C    0-1 2
  22 C    1     2.4226     4.5780   24 C    0-1 2

  23 C    1     1.0912     2.0621   10 H    0 0 0
  23 C    1     1.3915     2.6296   20 C    0 0 0
  23 C    1     1.4021     2.6496   24 C    0 0 0
  23 C    1     2.1712     4.1029    7 H    0 0 0
  23 C    1     2.4189     4.5711   21 C    0 0 0
  23 C    1     2.4237     4.5802   19 C    0 0 0

  24 C    1     1.4014     2.6483   21 C    0 0 0
  24 C    1     1.4021     2.6496   23 C    0 0 0
  24 C    1     1.5479     2.9251    4 B    0 0 0
  24 C    1     2.1454     4.0542    8 H    0 1-1
  24 C    1     2.1469     4.0570   10 H    0 0 0
  24 C    1     2.4226     4.5780   22 C    0 1-2

  25 C    1     1.4025     2.6504   26 C    1 1-2
  25 C    1     1.4037     2.6526   28 C    0 1-2
  25 C    1     1.5546     2.9377    6 B    0 0 0
  25 C    1     2.1443     4.0521   11 H    1 1-2
  25 C    1     2.1522     4.0671   13 H    0 1-2
  25 C    1     2.4271     4.5866   27 C    0 1-2

  26 C    1     1.0911     2.0619   11 H    0 0 0
  26 C    1     1.3916     2.6298   29 C    0 0 0
  26 C    1     1.4025     2.6504   25 C   -1-1 2
  26 C    1     2.1679     4.0968   14 H    0 0 0
  26 C    1     2.4165     4.5665   28 C   -1 0 0
  26 C    1     2.4246     4.5819   30 C    0 0 0

  27 C    1     1.0917     2.0630   12 H    0 0 0
  27 C    1     1.3928     2.6320   28 C    0 0 0
  27 C    1     1.4024     2.6502   30 C    1 0 0
  27 C    1     2.1668     4.0946   13 H    0 0 0
  27 C    1     2.4166     4.5668   29 C    1 0 0
  27 C    1     2.4271     4.5866   25 C    0-1 2

  28 C    1     1.0919     2.0633   13 H    0 0 0
  28 C    1     1.3928     2.6320   27 C    0 0 0
  28 C    1     1.4037     2.6526   25 C    0-1 2
  28 C    1     2.1716     4.1037   12 H    0 0 0
  28 C    1     2.4165     4.5665   26 C    1 0 0
  28 C    1     2.4277     4.5877   30 C    1 0 0

  29 C    1     1.0915     2.0627   14 H    0 0 0
  29 C    1     1.3916     2.6298   26 C    0 0 0
  29 C    1     1.4023     2.6499   30 C    0 0 0
  29 C    1     2.1684     4.0978   11 H    0 0 0
  29 C    1     2.4166     4.5668   27 C   -1 0 0
  29 C    1     2.4281     4.5884   25 C   -1-1 2

  30 C    1     1.4023     2.6499   29 C    0 0 0
  30 C    1     1.4024     2.6502   27 C   -1 0 0
  30 C    1     1.5517     2.9323    1 B    0 0 1
  30 C    1     2.1441     4.0518   12 H   -1 0 0
  30 C    1     2.1483     4.0597   14 H    0 0 0
  30 C    1     2.4246     4.5819   26 C    0 0 0

  31 C    1     1.4022     2.6498   32 C    0 0 0
  31 C    1     1.4030     2.6513   34 C    0 0 0
  31 C    1     1.5523     2.9335    5 B    0 0 0
  31 C    1     2.1436     4.0508   15 H    1 1-1
  31 C    1     2.1502     4.0633   17 H    0 0 0
  31 C    1     2.4264     4.5853   33 C    0 0 0

  32 C    1     1.0916     2.0628   15 H    1 1-1
  32 C    1     1.3918     2.6301   35 C    1 1-1
  32 C    1     1.4022     2.6498   31 C    0 0 0
  32 C    1     2.1656     4.0923   18 H    1 1-1
  32 C    1     2.4163     4.5661   34 C    0 0 0
  32 C    1     2.4270     4.5863   36 C    0 0 0

  33 C    1     1.0914     2.0624   16 H    0 0 0
  33 C    1     1.3927     2.6318   34 C    0 0 0
  33 C    1     1.4029     2.6510   36 C    0 0 0
  33 C    1     2.1683     4.0976   17 H    0 0 0
  33 C    1     2.4155     4.5646   35 C    1 1-1
  33 C    1     2.4264     4.5853   31 C    0 0 0

  34 C    1     1.0921     2.0638   17 H    0 0 0
  34 C    1     1.3927     2.6318   33 C    0 0 0
  34 C    1     1.4030     2.6513   31 C    0 0 0
  34 C    1     2.1663     4.0937   16 H    0 0 0
  34 C    1     2.4163     4.5661   32 C    0 0 0
  34 C    1     2.4289     4.5899   36 C    0 0 0

  35 C    1     1.0913     2.0622   18 H    0 0 0
  35 C    1     1.3918     2.6301   32 C   -1-1 1
  35 C    1     1.4029     2.6511   36 C   -1-1 1
  35 C    1     2.1707     4.1021   15 H    0 0 0
  35 C    1     2.4155     4.5646   33 C   -1-1 1
  35 C    1     2.4269     4.5861   31 C   -1-1 1

  36 C    1     1.4029     2.6510   33 C    0 0 0
  36 C    1     1.4029     2.6511   35 C    1 1-1
  36 C    1     1.5529     2.9346    3 B    0 0 0
  36 C    1     2.1488     4.0606   16 H    0 0 0
  36 C    1     2.1495     4.0619   18 H    1 1-1
  36 C    1     2.4270     4.5863   32 C    0 0 0

  37 O    1     1.3790     2.6060    3 B    0 0 0
  37 O    1     1.3795     2.6068    1 B    1 0 0
  37 O    1     2.3868     4.5105   39 O    1 1-2
  37 O    1     2.3885     4.5136   38 O    1 0 0
  37 O    1     2.5389     4.7979   30 C    1 0-1
  37 O    1     2.5412     4.8022   36 C    0 0 0

  38 O    1     1.3787     2.6054    1 B    0 0 0
  38 O    1     1.3792     2.6064    2 B    0 0 0
  38 O    1     2.3885     4.5136   37 O   -1 0 0
  38 O    1     2.3912     4.5187   39 O    0 1-2
  38 O    1     2.5351     4.7906   19 C    0 0 0
  38 O    1     2.5405     4.8008   30 C    0 0-1

  39 O    1     1.3795     2.6069    3 B   -1-1 2
  39 O    1     1.3798     2.6075    2 B    0-1 2
  39 O    1     2.3868     4.5105   37 O   -1-1 2
  39 O    1     2.3912     4.5187   38 O    0-1 2
  39 O    1     2.5416     4.8030   19 C    0-1 2
  39 O    1     2.5427     4.8050   36 C   -1-1 2

  40 O    1     1.3783     2.6045    6 B    0 0 0
  40 O    1     1.3786     2.6051    4 B    0 0-1
  40 O    1     2.3876     4.5119   42 O    0 0 0
  40 O    1     2.3913     4.5190   41 O    0 0-1
  40 O    1     2.5354     4.7912   25 C    0 0 0
  40 O    1     2.5360     4.7923   24 C    0 0-1

  41 O    1     1.3778     2.6037    5 B    0 0 0
  41 O    1     1.3778     2.6037    4 B    0 0 0
  41 O    1     2.3870     4.5107   42 O    0 0 1
  41 O    1     2.3913     4.5190   40 O    0 0 1
  41 O    1     2.5305     4.7819   24 C    0 0 0
  41 O    1     2.5354     4.7912   31 C    0 0 0

  42 O    1     1.3812     2.6101    6 B    0 0 0
  42 O    1     1.3814     2.6104    5 B    0 0-1
  42 O    1     2.3870     4.5107   41 O    0 0-1
  42 O    1     2.3876     4.5119   40 O    0 0 0
  42 O    1     2.5481     4.8152   31 C    0 0-1
  42 O    1     2.5522     4.8230   25 C    0 0 0


 SYMMETRY ALLOWED INTERNAL DEGREE(S) OF FREEDOM: 123
 TTTTTTTTTTTTTTTTTTTTTTTTTTTTTT SYMM        TELAPSE        0.35 TCPU        0.34
 TTTTTTTTTTTTTTTTTTTTTTTTTTTTTT INT_SCREEN  TELAPSE        0.38 TCPU        0.37

 DFT PARAMETERS

     ATOM       ELECTRONS   NET CHARGE   R(ANGSTROM)
   1   5  B       5.0000      0.0000     0.89000000
   7   1  H       1.0000      0.0000     1.11000000
  19   6  C       6.0000      0.0000     0.77000000
  37   8  O       8.0000      0.0000     0.74000000

 SIZE OF GRID=    1279580
 TTTTTTTTTTTTTTTTTTTTTTTTTTTTTT MAKE_GRID2  TELAPSE       10.45 TCPU       10.44
 BECKE WEIGHT FUNCTION
 RADSAFE =     2.00
 TOLERANCES - DENSITY:10**- 6; POTENTIAL:10**- 9; GRID WGT:10**-14

 RADIAL INTEGRATION  - INTERVALS (POINTS,UPPER LIMIT):            1( 75,  4.0*R)

 ANGULAR INTEGRATION - INTERVALS (ACCURACY LEVEL [N. POINTS] UPPER LIMIT):
  1(  4[  86]   0.2)  2(  8[ 194]   0.5)  3( 12[ 350]   0.9)  4( 16[ 974]   3.5)
  5( 12[ 350]9999.0)
 TTTTTTTTTTTTTTTTTTTTTTTTTTTTTT INT_CALC    TELAPSE       10.54 TCPU       10.53
 EEEEEEEEEE INT_CALC TERMINATION  DATE 02 12 2025 TIME 08:00:50.7

 *******************************************************************************
 COF-5_z36_inc_L030                                                              
 CRYSTAL - SCF - TYPE OF CALCULATION :  RESTRICTED CLOSED SHELL
 *******************************************************************************

 CAPPA:IS1  2;IS2  2;IS3  8; K PTS MONK NET  20; SYMMOPS:K SPACE   2;G SPACE   1

 TTTTTTTTTTTTTTTTTTTTTTTTTTTTTT SDIK        TELAPSE       11.19 TCPU       18.87

 AAAAAAAAAAAAAAAAAAAAAAAAAAAAAAAAAAAAAAAAAAAAAAAAAAAAAAAAAAAAAAAAAAAAAAAAAAAAAAA
         ATOMIC WAVEFUNCTION(S)


 NUCLEAR CHARGE  5.0  SYMMETRY SPECIES            S    P
 N. ELECTRONS    5.0  NUMBER OF PRIMITIVE GTOS    8    4
                      NUMBER OF CONTRACTED GTOS   4    2
                      NUMBER OF CLOSED SHELLS     2    0
                      OPEN SHELL OCCUPATION       0    1

  ZNUC  SCFIT    TOTAL HF ENERGY   KINETIC ENERGY   VIRIAL THEOREM ACCURACY
   5.0    11    -2.451164084E+01  2.462155050E+01 -1.995536038E+00  1.5E-06

 NUCLEAR CHARGE  1.0  SYMMETRY SPECIES            S
 N. ELECTRONS    1.0  NUMBER OF PRIMITIVE GTOS    4
                      NUMBER OF CONTRACTED GTOS   2
                      NUMBER OF CLOSED SHELLS     0
                      OPEN SHELL OCCUPATION       1

  ZNUC  SCFIT    TOTAL HF ENERGY   KINETIC ENERGY   VIRIAL THEOREM ACCURACY
   1.0     1    -4.977266687E-01  5.190767460E-01 -1.958869132E+00  0.0E+00

 NUCLEAR CHARGE  6.0  SYMMETRY SPECIES            S    P
 N. ELECTRONS    6.0  NUMBER OF PRIMITIVE GTOS    8    4
                      NUMBER OF CONTRACTED GTOS   4    2
                      NUMBER OF CLOSED SHELLS     2    0
                      OPEN SHELL OCCUPATION       0    2

  ZNUC  SCFIT    TOTAL HF ENERGY   KINETIC ENERGY   VIRIAL THEOREM ACCURACY
   6.0     9    -3.766704647E+01  3.775180683E+01 -1.997754800E+00  1.1E-06

 NUCLEAR CHARGE  8.0  SYMMETRY SPECIES            S    P
 N. ELECTRONS    8.0  NUMBER OF PRIMITIVE GTOS    8    4
                      NUMBER OF CONTRACTED GTOS   4    2
                      NUMBER OF CLOSED SHELLS     2    0
                      OPEN SHELL OCCUPATION       0    4

  ZNUC  SCFIT    TOTAL HF ENERGY   KINETIC ENERGY   VIRIAL THEOREM ACCURACY
   8.0    12    -7.477373220E+01  7.477365593E+01 -2.000001020E+00  3.8E-06

 AAAAAAAAAAAAAAAAAAAAAAAAAAAAAAAAAAAAAAAAAAAAAAAAAAAAAAAAAAAAAAAAAAAAAAAAAAAAAAA

 CHARGE NORMALIZATION FACTOR   1.00000000
 TOTAL ATOMIC CHARGES:
   5.0000000   5.0000000   5.0000000   5.0000000   5.0000000   5.0000000
   1.0000000   1.0000000   1.0000000   1.0000000   1.0000000   1.0000000
   1.0000000   1.0000000   1.0000000   1.0000000   1.0000000   1.0000000
   6.0000000   6.0000000   6.0000000   6.0000000   6.0000000   6.0000000
   6.0000000   6.0000000   6.0000000   6.0000000   6.0000000   6.0000000
   6.0000000   6.0000000   6.0000000   6.0000000   6.0000000   6.0000000
   8.0000000   8.0000000   8.0000000   8.0000000   8.0000000   8.0000000
 TTTTTTTTTTTTTTTTTTTTTTTTTTTTTT MOQGAD      TELAPSE       11.24 TCPU       20.41
 TTTTTTTTTTTTTTTTTTTTTTTTTTTTTT SHELLXN     TELAPSE       20.30 TCPU      304.55
 TTTTTTTTTTTTTTTTTTTTTTTTTTTTTT MONMO3      TELAPSE       20.46 TCPU      309.66
 NUMERICALLY INTEGRATED DENSITY    197.9999890601
 TTTTTTTTTTTTTTTTTTTTTTTTTTTTTT NUMDFT      TELAPSE       21.08 TCPU      329.42
 CYC   0 ETOT(AU) -1.295958519398E+03 DETOT -1.30E+03 tst  0.00E+00 PX  1.00E+00
 TTTTTTTTTTTTTTTTTTTTTTTTTTTTTT DIIS        TELAPSE       21.11 TCPU      330.55
 TTTTTTTTTTTTTTTTTTTTTTTTTTTTTT FDIK        TELAPSE       21.60 TCPU      346.24
 INSULATING STATE
 TOP OF VALENCE BANDS -    BAND     99; K   17; EIG -3.0830294E-01 AU
 TOP OF VALENCE BANDS -    BAND     99; K    1; EIG -3.1197974E-01 AU
 BOTTOM OF VIRTUAL BANDS - BAND    100; K    1; EIG -1.6232142E-01 AU
 INDIRECT ENERGY BAND GAP:   3.9724 eV
 TTTTTTTTTTTTTTTTTTTTTTTTTTTTTT PDIG        TELAPSE       21.91 TCPU      352.41
 CHARGE NORMALIZATION FACTOR   1.00000000
 TOTAL ATOMIC CHARGES:
   4.1403242   4.1560246   4.1572603   4.1587421   4.1563141   4.1396592
   0.7855705   0.7855338   0.7848996   0.7848727   0.7861007   0.7859977
   0.7869905   0.7865425   0.7852859   0.7858778   0.7850341   0.7852865
   6.0451015   6.2672539   6.2672780   6.2662304   6.2649054   6.0475054
   6.0469795   6.2664705   6.2647326   6.2672753   6.2671040   6.0507093
   6.0443406   6.2672445   6.2681650   6.2656928   6.2673838   6.0417709
   8.6988383   8.6980657   8.6971638   8.6976199   8.6959099   8.6999422
 TTTTTTTTTTTTTTTTTTTTTTTTTTTTTT MOQGAD      TELAPSE       21.96 TCPU      352.46
 TTTTTTTTTTTTTTTTTTTTTTTTTTTTTT SHELLXN     TELAPSE       31.20 TCPU      647.01
 TTTTTTTTTTTTTTTTTTTTTTTTTTTTTT MONMO3      TELAPSE       31.36 TCPU      652.11
 NUMERICALLY INTEGRATED DENSITY    197.9999831020
 TTTTTTTTTTTTTTTTTTTTTTTTTTTTTT NUMDFT      TELAPSE       31.98 TCPU      672.18
 CYC   1 ETOT(AU) -1.288826124072E+03 DETOT  7.13E+00 tst  0.00E+00 PX  1.00E+00
 TTTTTTTTTTTTTTTTTTTTTTTTTTTTTT DIIS        TELAPSE       32.03 TCPU      673.59
 DIIS TEST: 0.10887E+01 AT SCF   CYCLE   1 - MIX   30 %
 TTTTTTTTTTTTTTTTTTTTTTTTTTTTTT FDIK        TELAPSE       32.52 TCPU      689.38
 INSULATING STATE
 TOP OF VALENCE BANDS -    BAND     99; K   17; EIG -2.1723181E-01 AU
 TOP OF VALENCE BANDS -    BAND     99; K    1; EIG -2.2584823E-01 AU
 BOTTOM OF VIRTUAL BANDS - BAND    100; K    1; EIG -8.5091015E-02 AU
 INDIRECT ENERGY BAND GAP:   3.5957 eV
 TTTTTTTTTTTTTTTTTTTTTTTTTTTTTT PDIG        TELAPSE       32.83 TCPU      695.54
 CHARGE NORMALIZATION FACTOR   1.00000000
 TOTAL ATOMIC CHARGES:
   4.6629536   4.6955243   4.6959379   4.6963710   4.6958754   4.6634219
   0.9081185   0.9085207   0.9179496   0.9179754   0.9051842   0.9047608
   0.9058616   0.9060612   0.9075885   0.9081566   0.9176169   0.9177725
   5.8686404   6.1243554   6.1224515   6.1475790   6.1500016   5.8647443
   5.8973211   6.1388067   6.1416721   6.1439447   6.1422851   5.8933881
   5.8706200   6.1191292   6.1222702   6.1504485   6.1467175   5.8710872
   8.3346171   8.3332251   8.3570932   8.3317208   8.3542097   8.3380209
 TTTTTTTTTTTTTTTTTTTTTTTTTTTTTT MOQGAD      TELAPSE       32.88 TCPU      695.59
 TTTTTTTTTTTTTTTTTTTTTTTTTTTTTT SHELLXN     TELAPSE       42.11 TCPU      990.13
 TTTTTTTTTTTTTTTTTTTTTTTTTTTTTT MONMO3      TELAPSE       42.27 TCPU      995.24
 NUMERICALLY INTEGRATED DENSITY    197.9999773153
 TTTTTTTTTTTTTTTTTTTTTTTTTTTTTT NUMDFT      TELAPSE       42.90 TCPU     1015.24
 CYC   2 ETOT(AU) -1.289019430519E+03 DETOT -1.93E-01 tst  3.71E-03 PX  1.59E-01
 TTTTTTTTTTTTTTTTTTTTTTTTTTTTTT DIIS        TELAPSE       42.94 TCPU     1016.75
 DIIS TEST: 0.45184E+00 AT SCF   CYCLE   2 - DIIS ACTIVE - HISTORY:     2 CYCLES
 TTTTTTTTTTTTTTTTTTTTTTTTTTTTTT FDIK        TELAPSE       43.44 TCPU     1032.43
 INSULATING STATE
 TOP OF VALENCE BANDS -    BAND     99; K   17; EIG -2.3053335E-01 AU
 TOP OF VALENCE BANDS -    BAND     99; K    1; EIG -2.3642889E-01 AU
 BOTTOM OF VIRTUAL BANDS - BAND    100; K    1; EIG -8.0726154E-02 AU
 INDIRECT ENERGY BAND GAP:   4.0765 eV
 TTTTTTTTTTTTTTTTTTTTTTTTTTTTTT PDIG        TELAPSE       43.74 TCPU     1038.60
 CHARGE NORMALIZATION FACTOR   1.00000000
 TOTAL ATOMIC CHARGES:
   4.4636486   4.4907064   4.4913442   4.4923347   4.4906715   4.4636000
   0.8866498   0.8865818   0.8937137   0.8939391   0.8856459   0.8854803
   0.8871775   0.8866301   0.8854960   0.8866341   0.8941435   0.8935912
   5.8901063   6.1640909   6.1647916   6.1587318   6.1586968   5.8917793
   5.9120434   6.1607003   6.1610005   6.1637374   6.1634647   5.9132756
   5.8908418   6.1637693   6.1641908   6.1593776   6.1604621   5.8904346
   8.5201236   8.5196581   8.5158634   8.5191090   8.5135903   8.5221726
 TTTTTTTTTTTTTTTTTTTTTTTTTTTTTT MOQGAD      TELAPSE       43.80 TCPU     1038.65
 TTTTTTTTTTTTTTTTTTTTTTTTTTTTTT SHELLXN     TELAPSE       53.03 TCPU     1333.14
 TTTTTTTTTTTTTTTTTTTTTTTTTTTTTT MONMO3      TELAPSE       53.19 TCPU     1338.23
 NUMERICALLY INTEGRATED DENSITY    197.9999789658
 TTTTTTTTTTTTTTTTTTTTTTTTTTTTTT NUMDFT      TELAPSE       53.81 TCPU     1358.24
 CYC   3 ETOT(AU) -1.289113056398E+03 DETOT -9.36E-02 tst  6.54E-04 PX  6.62E-02
 TTTTTTTTTTTTTTTTTTTTTTTTTTTTTT DIIS        TELAPSE       53.87 TCPU     1360.04
 DIIS TEST: 0.13904E-01 AT SCF   CYCLE   3 - DIIS ACTIVE - HISTORY:     3 CYCLES
 TTTTTTTTTTTTTTTTTTTTTTTTTTTTTT FDIK        TELAPSE       54.36 TCPU     1375.72
 INSULATING STATE
 TOP OF VALENCE BANDS -    BAND     99; K   17; EIG -2.4041596E-01 AU
 TOP OF VALENCE BANDS -    BAND     99; K    1; EIG -2.4843482E-01 AU
 BOTTOM OF VIRTUAL BANDS - BAND    100; K    1; EIG -8.9192464E-02 AU
 INDIRECT ENERGY BAND GAP:   4.1150 eV
 TTTTTTTTTTTTTTTTTTTTTTTTTTTTTT PDIG        TELAPSE       54.67 TCPU     1381.88
 CHARGE NORMALIZATION FACTOR   1.00000000
 TOTAL ATOMIC CHARGES:
   4.4713714   4.4946717   4.4951197   4.4962794   4.4946222   4.4715427
   0.8702736   0.8706473   0.8759538   0.8761189   0.8666156   0.8664048
   0.8679166   0.8677274   0.8696768   0.8704321   0.8761170   0.8762017
   5.9394130   6.1612255   6.1593226   6.1759458   6.1765971   5.9372422
   5.9632009   6.1707772   6.1716032   6.1730804   6.1722626   5.9621986
   5.9401805   6.1580841   6.1603566   6.1774869   6.1752015   5.9388293
   8.4800025   8.4787183   8.4963543   8.4775034   8.4942839   8.4824368
 TTTTTTTTTTTTTTTTTTTTTTTTTTTTTT MOQGAD      TELAPSE       54.72 TCPU     1381.94
 TTTTTTTTTTTTTTTTTTTTTTTTTTTTTT SHELLXN     TELAPSE       63.95 TCPU     1676.53
 TTTTTTTTTTTTTTTTTTTTTTTTTTTTTT MONMO3      TELAPSE       64.11 TCPU     1681.62
 NUMERICALLY INTEGRATED DENSITY    197.9999786416
 TTTTTTTTTTTTTTTTTTTTTTTTTTTTTT NUMDFT      TELAPSE       64.74 TCPU     1701.63
 CYC   4 ETOT(AU) -1.289115991161E+03 DETOT -2.93E-03 tst  3.27E-05 PX  1.42E-02
 TTTTTTTTTTTTTTTTTTTTTTTTTTTTTT DIIS        TELAPSE       64.79 TCPU     1703.49
 DIIS TEST: 0.42214E-02 AT SCF   CYCLE   4 - DIIS ACTIVE - HISTORY:     4 CYCLES
 TTTTTTTTTTTTTTTTTTTTTTTTTTTTTT FDIK        TELAPSE       65.29 TCPU     1719.16
 INSULATING STATE
 TOP OF VALENCE BANDS -    BAND     99; K   17; EIG -2.3878916E-01 AU
 TOP OF VALENCE BANDS -    BAND     99; K    1; EIG -2.4606131E-01 AU
 BOTTOM OF VIRTUAL BANDS - BAND    100; K    1; EIG -8.8947791E-02 AU
 INDIRECT ENERGY BAND GAP:   4.0774 eV
 TTTTTTTTTTTTTTTTTTTTTTTTTTTTTT PDIG        TELAPSE       65.62 TCPU     1725.36
 CHARGE NORMALIZATION FACTOR   1.00000000
 TOTAL ATOMIC CHARGES:
   4.4703309   4.4979780   4.4985878   4.4994942   4.4979992   4.4703909
   0.8726891   0.8727272   0.8796076   0.8797372   0.8704818   0.8702349
   0.8717956   0.8714253   0.8717654   0.8727628   0.8798875   0.8795711
   5.9209347   6.1647174   6.1647889   6.1716959   6.1721572   5.9213370
   5.9428153   6.1698343   6.1707814   6.1728332   6.1722770   5.9430412
   5.9218966   6.1632953   6.1643841   6.1724811   6.1725650   5.9217142
   8.4936671   8.4928056   8.4984397   8.4920796   8.4960895   8.4959023
 TTTTTTTTTTTTTTTTTTTTTTTTTTTTTT MOQGAD      TELAPSE       65.67 TCPU     1725.41
 TTTTTTTTTTTTTTTTTTTTTTTTTTTTTT SHELLXN     TELAPSE       74.90 TCPU     2019.91
 TTTTTTTTTTTTTTTTTTTTTTTTTTTTTT MONMO3      TELAPSE       75.06 TCPU     2025.01
 NUMERICALLY INTEGRATED DENSITY    197.9999787714
 TTTTTTTTTTTTTTTTTTTTTTTTTTTTTT NUMDFT      TELAPSE       75.69 TCPU     2045.03
 CYC   5 ETOT(AU) -1.289116956340E+03 DETOT -9.65E-04 tst  5.64E-06 PX  6.77E-03
 TTTTTTTTTTTTTTTTTTTTTTTTTTTTTT DIIS        TELAPSE       75.76 TCPU     2047.11
 DIIS TEST: 0.74284E-04 AT SCF   CYCLE   5 - DIIS ACTIVE - HISTORY:     5 CYCLES
 TTTTTTTTTTTTTTTTTTTTTTTTTTTTTT FDIK        TELAPSE       76.25 TCPU     2062.87
 INSULATING STATE
 TOP OF VALENCE BANDS -    BAND     99; K   17; EIG -2.3848216E-01 AU
 TOP OF VALENCE BANDS -    BAND     99; K    1; EIG -2.4578308E-01 AU
 BOTTOM OF VIRTUAL BANDS - BAND    100; K    1; EIG -8.8376767E-02 AU
 INDIRECT ENERGY BAND GAP:   4.0846 eV
 TTTTTTTTTTTTTTTTTTTTTTTTTTTTTT PDIG        TELAPSE       76.56 TCPU     2069.04
 CHARGE NORMALIZATION FACTOR   1.00000000
 TOTAL ATOMIC CHARGES:
   4.4715594   4.4970484   4.4975577   4.4986290   4.4970621   4.4716972
   0.8736850   0.8739447   0.8805202   0.8807233   0.8714680   0.8712862
   0.8728061   0.8725153   0.8729509   0.8738023   0.8807175   0.8806774
   5.9210053   6.1645007   6.1630933   6.1715077   6.1719559   5.9198198
   5.9439610   6.1690904   6.1694687   6.1715463   6.1710490   5.9435504
   5.9218832   6.1620396   6.1637918   6.1730784   6.1713575   5.9203042
   8.4919626   8.4910338   8.5015891   8.4898753   8.4995489   8.4943365
 TTTTTTTTTTTTTTTTTTTTTTTTTTTTTT MOQGAD      TELAPSE       76.61 TCPU     2069.09
 TTTTTTTTTTTTTTTTTTTTTTTTTTTTTT SHELLXN     TELAPSE       85.85 TCPU     2363.79
 TTTTTTTTTTTTTTTTTTTTTTTTTTTTTT MONMO3      TELAPSE       86.01 TCPU     2368.89
 NUMERICALLY INTEGRATED DENSITY    197.9999787536
 TTTTTTTTTTTTTTTTTTTTTTTTTTTTTT NUMDFT      TELAPSE       86.63 TCPU     2388.92
 CYC   6 ETOT(AU) -1.289116973453E+03 DETOT -1.71E-05 tst  2.13E-07 PX  1.15E-03
 TTTTTTTTTTTTTTTTTTTTTTTTTTTTTT DIIS        TELAPSE       86.70 TCPU     2391.14
 DIIS TEST: 0.24047E-04 AT SCF   CYCLE   6 - DIIS ACTIVE - HISTORY:     6 CYCLES
 TTTTTTTTTTTTTTTTTTTTTTTTTTTTTT FDIK        TELAPSE       87.20 TCPU     2406.97
 INSULATING STATE
 TOP OF VALENCE BANDS -    BAND     99; K   17; EIG -2.3852718E-01 AU
 TOP OF VALENCE BANDS -    BAND     99; K    1; EIG -2.4580122E-01 AU
 BOTTOM OF VIRTUAL BANDS - BAND    100; K    1; EIG -8.8431291E-02 AU
 INDIRECT ENERGY BAND GAP:   4.0843 eV
 TTTTTTTTTTTTTTTTTTTTTTTTTTTTTT PDIG        TELAPSE       87.50 TCPU     2413.12
 CHARGE NORMALIZATION FACTOR   1.00000000
 TOTAL ATOMIC CHARGES:
   4.4710374   4.4974777   4.4980625   4.4990356   4.4974843   4.4710987
   0.8737058   0.8738186   0.8804541   0.8806033   0.8713973   0.8711526
   0.8727169   0.8723864   0.8728442   0.8737971   0.8807300   0.8804710
   5.9209669   6.1640138   6.1637090   6.1712284   6.1716316   5.9208565
   5.9434463   6.1689310   6.1699081   6.1719105   6.1711770   5.9434947
   5.9217418   6.1622755   6.1636408   6.1721046   6.1718260   5.9214479
   8.4927684   8.4917875   8.4995728   8.4910126   8.4972768   8.4949982
 TTTTTTTTTTTTTTTTTTTTTTTTTTTTTT MOQGAD      TELAPSE       87.55 TCPU     2413.18
 TTTTTTTTTTTTTTTTTTTTTTTTTTTTTT SHELLXN     TELAPSE       96.79 TCPU     2707.71
 TTTTTTTTTTTTTTTTTTTTTTTTTTTTTT MONMO3      TELAPSE       96.95 TCPU     2712.80
 NUMERICALLY INTEGRATED DENSITY    197.9999787529
 TTTTTTTTTTTTTTTTTTTTTTTTTTTTTT NUMDFT      TELAPSE       97.57 TCPU     2732.81
 CYC   7 ETOT(AU) -1.289116978134E+03 DETOT -4.68E-06 tst  7.55E-08 PX  8.40E-04
 TTTTTTTTTTTTTTTTTTTTTTTTTTTTTT DIIS        TELAPSE       97.65 TCPU     2735.26
 DIIS TEST: 0.11687E-05 AT SCF   CYCLE   7 - DIIS ACTIVE - HISTORY:     7 CYCLES
 TTTTTTTTTTTTTTTTTTTTTTTTTTTTTT FDIK        TELAPSE       98.14 TCPU     2751.04
 INSULATING STATE
 TOP OF VALENCE BANDS -    BAND     99; K   17; EIG -2.3852794E-01 AU
 TOP OF VALENCE BANDS -    BAND     99; K    1; EIG -2.4581848E-01 AU
 BOTTOM OF VIRTUAL BANDS - BAND    100; K    1; EIG -8.8461463E-02 AU
 INDIRECT ENERGY BAND GAP:   4.0835 eV
 TTTTTTTTTTTTTTTTTTTTTTTTTTTTTT PDIG        TELAPSE       98.45 TCPU     2757.20
 CHARGE NORMALIZATION FACTOR   1.00000000
 TOTAL ATOMIC CHARGES:
   4.4710839   4.4975400   4.4980997   4.4990977   4.4975561   4.4711852
   0.8736494   0.8738006   0.8804283   0.8805923   0.8713421   0.8711378
   0.8726873   0.8723441   0.8728191   0.8737456   0.8806673   0.8804927
   5.9210243   6.1641389   6.1634398   6.1712456   6.1717593   5.9206538
   5.9434572   6.1691758   6.1697348   6.1717881   6.1713556   5.9433300
   5.9220319   6.1622048   6.1635752   6.1724789   6.1715919   5.9210165
   8.4926503   8.4917957   8.4998304   8.4908148   8.4976460   8.4949913
 TTTTTTTTTTTTTTTTTTTTTTTTTTTTTT MOQGAD      TELAPSE       98.50 TCPU     2757.25
 TTTTTTTTTTTTTTTTTTTTTTTTTTTTTT SHELLXN     TELAPSE      107.74 TCPU     3051.85
 TTTTTTTTTTTTTTTTTTTTTTTTTTTTTT MONMO3      TELAPSE      107.90 TCPU     3056.95
 NUMERICALLY INTEGRATED DENSITY    197.9999787535
 TTTTTTTTTTTTTTTTTTTTTTTTTTTTTT NUMDFT      TELAPSE      108.52 TCPU     3076.99
 CYC   8 ETOT(AU) -1.289116978155E+03 DETOT -2.09E-08 tst  5.31E-09 PX  1.44E-04
 TTTTTTTTTTTTTTTTTTTTTTTTTTTTTT DIIS        TELAPSE      108.60 TCPU     3079.54
 DIIS TEST: 0.18276E-06 AT SCF   CYCLE   8 - DIIS ACTIVE - HISTORY:     8 CYCLES
 TTTTTTTTTTTTTTTTTTTTTTTTTTTTTT FDIK        TELAPSE      109.09 TCPU     3095.26
 INSULATING STATE
 TOP OF VALENCE BANDS -    BAND     99; K   17; EIG -2.3853109E-01 AU
 TOP OF VALENCE BANDS -    BAND     99; K    1; EIG -2.4581782E-01 AU
 BOTTOM OF VIRTUAL BANDS - BAND    100; K    1; EIG -8.8458537E-02 AU
 INDIRECT ENERGY BAND GAP:   4.0837 eV
 TTTTTTTTTTTTTTTTTTTTTTTTTTTTTT PDIG        TELAPSE      109.40 TCPU     3101.43
 CHARGE NORMALIZATION FACTOR   1.00000000
 TOTAL ATOMIC CHARGES:
   4.4711129   4.4975192   4.4980847   4.4990717   4.4975247   4.4711939
   0.8736451   0.8737865   0.8804261   0.8805887   0.8713574   0.8711253
   0.8726793   0.8723557   0.8728076   0.8737394   0.8806827   0.8804730
   5.9209825   6.1641024   6.1635679   6.1713035   6.1717029   5.9206416
   5.9434568   6.1690104   6.1698630   6.1718811   6.1712166   5.9434299
   5.9217856   6.1622144   6.1636593   6.1723321   6.1717360   5.9212061
   8.4926716   8.4917134   8.4999020   8.4908533   8.4976617   8.4949321
 TTTTTTTTTTTTTTTTTTTTTTTTTTTTTT MOQGAD      TELAPSE      109.45 TCPU     3101.48
 TTTTTTTTTTTTTTTTTTTTTTTTTTTTTT SHELLXN     TELAPSE      118.68 TCPU     3395.98
 +++ ENERGIES IN A.U. +++
 ::: EXT EL-POLE                                  -1.4297613505971E+03
 ::: EXT EL-SPHEROPOLE                             1.5920689268281E+01
 ::: BIELET ZONE E-E                               2.2444606573646E+03
 ::: TOTAL E-E                                     8.3061999603576E+02
 ::: TOTAL E-N + N-E                              -3.4875230975509E+03
 ::: TOTAL N-N                                     2.2159557715113E+02
 ::: KINETIC ENERGY                                1.2799015015644E+03
 ::: PSEUDO TOTAL   ENERGY                        -1.1554060227996E+03
 ::: VIRIAL COEFFICIENT                            1.0511210504297E+00
 TTTTTTTTTTTTTTTTTTTTTTTTTTTTTT MONMO3      TELAPSE      118.84 TCPU     3401.08
 NUMERICALLY INTEGRATED DENSITY    197.9999787528
 EXCHANGE ENERGY: -0.126016100650E+03  CORRELATION ENERGY: -0.769485476788E+01
 TTTTTTTTTTTTTTTTTTTTTTTTTTTTTT NUMDFT      TELAPSE      119.47 TCPU     3421.14
 CYC   9 ETOT(AU) -1.289116978217E+03 DETOT -6.24E-08 tst  1.68E-09 PX  1.44E-04

 == SCF ENDED - CONVERGENCE ON ENERGY      E(AU) -1.2891169782175E+03 CYCLES   9


 ENERGY EXPRESSION=HARTREE+FOCK EXCH*0.00000+(HSESOL     EXCH)*1.00000+PBESOL     CORR


 TOTAL ENERGY(DFT)(AU)(  9) -1.2891169782175E+03 DE-6.2E-08 tester 1.7E-09
 TTTTTTTTTTTTTTTTTTTTTTTTTTTTTT EDFT        TELAPSE      119.47 TCPU     3421.15
 
 INFORMATION **** DFTD3 ENERGY **** CALCULATE DFTD3 ENERGY

           DFT-D V3(BJ)
 DF                                         hsesol3c  
 parameters
 s6       :    1.0000
 s8       :    0.0000
 a1       :    0.5196
 a2       :    4.9385
 k1 k3    :   16.0000   -4.0000
 Cutoff   :   50.2022
 CN-Cutoff:   21.1671
 ABC-Cutoff:   21.1671
 
 Edisp /kcal,au:   -28.0279 -0.04466537

 E6    /kcal :   -29.8471
 E8    /kcal :     0.0000
 E6(ABC) "   :   1.819188
 
 INFORMATION **** DFTD3 ENERGY **** NORMAL TERMINATION OF DFTD3 MODULE

 GCP ENERGY CALCULATION
  level        hsesol3c            basis:hsesol3c
  Nbf            474
  Atoms           42

  Parameters: 
  sigma     1.0000
  eta       1.4281
  alpha     0.2936
  beta      1.9467

  dmp_scal      4.0000
  dmp_exp       6.0000
 cutoffs: 
   distance [bohr] 60.0
   noise    [a.u.] 2.2E-16
 SR-damping   T
 ** gCP correction **
  Egcp:        0.0832662796 / (a.u.) ||      52.2504 / (kcal/mol)
 INFORMATION **** GCP **** NORMAL TERMINATION OF GCP MODULE

 *******************************************************************************

 DFT-D3-GCP DISPERSION AND COUNTERPOISE CORRECTION

 D3 DISPERSION ENERGY (AU)      -4.4665365711542E-02
 GCP ENERGY (AU)                 8.3266279635367E-02
 TOTAL ENERGY + DISP + GCP (AU) -1.2890783773036E+03

 *******************************************************************************

 EIGENVECTORS IN FORTRAN UNIT 10
 TTTTTTTTTTTTTTTTTTTTTTTTTTTTTT END         TELAPSE      120.84 TCPU     3428.49
 EEEEEEEEEE TERMINATION  DATE 02 12 2025 TIME 08:02:41.0
