 Default number of threads is:           32

         
 *******************************************************************************
 *                                                                             *
 *                               CRYSTAL23                                     *
 *                      public : 1.0.1 - October 2022                          *
 *                       HTTP://WWW.CRYSTAL.UNITO.IT                           *
 *                                                                             *
 *                              MAIN AUTHORS                                   *
 *                                                                             *
 *  R. DOVESI(1,11), V.R. SAUNDERS(2), C. ROETTI(1,11), R. ORLANDO(1,11),      *
 *  C.M. ZICOVICH-WILSON(1,3), F. PASCALE(4), B. CIVALLERI(1,11),              *
 *  K. DOLL(5), N.M. HARRISON(6), I.J. BUSH(7), Ph. D'ARCO(8),                 *
 *  M. LLUNELL(9), M. CAUSA'(10), Y. NOEL(8), L. MASCHIO(1,11), A. ERBA(1,11)  *
 *  M. RE'RAT(14), S. CASASSA(1,11), B.G. SEARLE(2), J.K. DESMARAIS(1)         *
 *                                                                             *
 *        CONTRIBUTIONS TO THE CODE HAVE ALSO BEEN GIVEN BY                    *
 *                                                                             *
 *  M. FERRABONE(1,11), M. DE LA PIERRE(1,11), M. FERRERO(1,11),               *
 *  J. BAIMA(1,11), E. ALBANESE(1,11), M.F. PEINTINGER(12), R. BAST(13),       *
 *  B. KIRTMAN(15), V. LACIVITA(1,11), R. DEMICHELIS(1,16)                     *
 *  G. BRANDEBURG(17), S. SALUSTRO(1,11), G. SANSONE(1,11)                     *
 *  M.T. RUGGIERO(18), L.E. DAGA(1), L. DONA'(1), A. COSSARD(1)                *
 *                                                                             *
 * (1) THEORETICAL CHEMISTRY GROUP - UNIVERSITA' DI TORINO - TORINO (ITALY)    *
 * (2) SCIENTIFIC COMPUTING DEPARTMENT - STFC DARESBURY (UK)                   *
 * (3) UNIVERSIDAD AUTONOMA DEL ESTADO DE MORELOS - CUERNAVACA (MEXICO)        *
 * (4) UNIVERSITE' DE LORRAINE - NANCY (FRANCE)                                *
 * (5) UNIVERSITAET STUTTGART- STUTTGART (GERMANY)                             *
 * (6) IMPERIAL COLLEGE - LONDON (UK)                                          *
 * (7) SCIENTIFIC COMPUTING DEPARTMENT - STFC RAL (UK)                         *
 * (8) UPMC - SORBONNE UNIVERSITES - PARIS (FRANCE)                            *
 * (9) UNIVERSIDAD DE BARCELONA - BARCELONA (SPAIN)                            *
 *(10) UNIVERSITA' DI NAPOLI "FEDERICO II" - NAPOLI (ITALY)                    *
 *(11) NIS - NANOSTRUCTURED INTERFACES AND SURFACES - TORINO (ITALY)           *
 *(12) MPI FUER CHEMISCHE ENERGIEKONVERSION - MUELHEIM AN DER RUHR (GERMANY)   *
 *(13) UNIVERSITY OF TROMSO - TROMSO (NORWAY)                                  *
 *(14) UNIVERSITE' DE PAU ET DES PAYS DE L'ADOUR - PAU (FRANCE)                *
 *(15) UNIVERSITY OF CALIFORNIA SANTA BARBARA - SANTA BARBARA (USA)            *
 *(16) CURTIN UNIVERSITY - PERTH (AUSTRALIA)                                   *
 *(17) UNIVERSITY COLLEGE LONDON - LONDON (UK)                                 *
 *(18) UNIVERSITY OF VERMONT - BURLINGTON (USA)                                *
 *                                                                             *
 *******************************************************************************
 EEEEEEEEEE STARTING  DATE 19 02 2026 TIME 17:51:42.9
 cof-1_z31_L030_incl                                                             

 CRYSTAL CALCULATION
 (INPUT ACCORDING TO THE INTERNATIONAL TABLES FOR X-RAY CRYSTALLOGRAPHY)
 CRYSTAL FAMILY                       :  TRICLINIC   
 CRYSTAL CLASS  (GROTH - 1921)        :  TRICLINIC PEDIAL                     

 SPACE GROUP (NONCENTROSYMMETRIC)     :  P 1             

 LATTICE PARAMETERS  (ANGSTROMS AND DEGREES) - CONVENTIONAL CELL
        A           B           C        ALPHA        BETA       GAMMA
    15.02361    15.02392     4.31393    52.96713    89.99996   119.99596


 NUMBER OF IRREDUCIBLE ATOMS IN THE CONVENTIONAL CELL:   42

 INPUT COORDINATES

 ATOM AT. N.              COORDINATES
   1   5     5.558683400000E-01  1.116820600000E-01  5.015380000000E-01
   2   5     7.149240000000E-01  2.707417200000E-01  5.015380200000E-01
   3   5     5.562375100000E-01  2.714714700000E-01  4.982983000000E-01
   4   5     1.694430500000E-01  4.979970600000E-01  5.015380100000E-01
   5   5     3.285510200000E-01  4.979762900000E-01  5.015380000000E-01
   6   5     3.289047400000E-01  6.578624500000E-01  4.982983000000E-01
   7   1     8.460056400000E-01  1.948424900000E-01  4.948214200000E-01
   8   1     3.971494000000E-02  5.772026800000E-01  4.937943500000E-01
   9   1     8.460700500000E-01  4.802581200000E-01  4.936362800000E-01
  10   1     3.983027000000E-02  2.918615400000E-01  4.936757000000E-01
  11   1     6.328012100000E-01 -1.947011000000E-02  5.051728800000E-01
  12   1     2.505801300000E-01  7.867262600000E-01  5.062000300000E-01
  13   1     3.475021600000E-01 -1.969754000000E-02  5.063582000000E-01
  14   1     5.359489600000E-01  7.866089600000E-01  5.063185000000E-01
  15   1     6.340347500000E-01  4.799666400000E-01  4.948214800000E-01
  16   1     2.520422500000E-01  2.917585900000E-01  4.937942800000E-01
  17   1     3.489392100000E-01  1.950089700000E-01  4.936361500000E-01
  18   1     5.373849500000E-01  5.771345000000E-01  4.936758300000E-01
  19   6     8.344652100000E-01  3.310818200000E-01  4.981797500000E-01
  20   6     8.894329100000E-01  2.786616200000E-01  4.949794900000E-01
  21   6    -3.636210000000E-03  4.931250400000E-01  4.947030200000E-01
  22   6     8.893321400000E-01  4.394406300000E-01  4.955327100000E-01
  23   6    -3.447700000000E-03  3.324903300000E-01  4.933991400000E-01
  24   6     5.091137000000E-02  4.397749700000E-01  4.955721800000E-01
  25   6     4.961953400000E-01 -7.531470000000E-03  5.018145900000E-01
  26   6     5.489648800000E-01 -6.288184000000E-02  5.050148000000E-01
  27   6     3.345538200000E-01  8.301616200000E-01  5.052913700000E-01
  28   6     3.881383600000E-01 -6.270740000000E-02  5.044617100000E-01
  29   6     4.953217200000E-01  8.298214200000E-01  5.065951200000E-01
  30   6     3.877832500000E-01  7.756909200000E-01  5.044221500000E-01
  31   6     4.966197700000E-01  3.310126800000E-01  4.981797500000E-01
  32   6     5.501540100000E-01  4.395017600000E-01  4.949795500000E-01
  33   6     3.357990400000E-01  3.321117800000E-01  4.947029600000E-01
  34   6     3.891673000000E-01  2.784384500000E-01  4.955326200000E-01
  35   6     4.968689100000E-01  4.933383500000E-01  4.933992200000E-01
  36   6     3.888354600000E-01  4.396975700000E-01  4.955721800000E-01
  37   8     5.031977300000E-01  1.652810300000E-01  4.991674700000E-01
  38   8     6.613548800000E-01  1.637128300000E-01  5.060025000000E-01
  39   8     6.625412300000E-01  3.250354700000E-01  4.956907300000E-01
  40   8     2.227855500000E-01  6.045615000000E-01  4.991675100000E-01
  41   8     2.220171500000E-01  4.440301100000E-01  5.060025000000E-01
  42   8     3.821256600000E-01  6.053474300000E-01  4.956907000000E-01

 *******************************************************************************

 << INFORMATION >>: FROM NOW ON, ALL COORDINATES REFER TO THE PRIMITIVE CELL

 *******************************************************************************

 LATTICE PARAMETERS  (ANGSTROMS AND DEGREES) - PRIMITIVE CELL
       A          B          C        ALPHA      BETA     GAMMA        VOLUME
   15.02361   15.02392    4.31393    52.96713  89.99996 119.99596    605.996288

 COORDINATES OF THE EQUIVALENT ATOMS (FRACTIONAL UNITS)

 N. ATOM EQUIV AT. N.          X                  Y                  Z

   1   1   1    5 B    -4.44131660000E-01  1.11682060000E-01 -4.98462000000E-01

   2   2   1    5 B    -2.85076000000E-01  2.70741720000E-01 -4.98461980000E-01

   3   3   1    5 B    -4.43762490000E-01  2.71471470000E-01  4.98298300000E-01

   4   4   1    5 B     1.69443050000E-01  4.97997060000E-01 -4.98461990000E-01

   5   5   1    5 B     3.28551020000E-01  4.97976290000E-01 -4.98462000000E-01

   6   6   1    5 B     3.28904740000E-01 -3.42137550000E-01  4.98298300000E-01

   7   7   1    1 H    -1.53994360000E-01  1.94842490000E-01  4.94821420000E-01

   8   8   1    1 H     3.97149400000E-02 -4.22797320000E-01  4.93794350000E-01

   9   9   1    1 H    -1.53929950000E-01  4.80258120000E-01  4.93636280000E-01

  10  10   1    1 H     3.98302700000E-02  2.91861540000E-01  4.93675700000E-01

  11  11   1    1 H    -3.67198790000E-01 -1.94701100000E-02 -4.94827120000E-01

  12  12   1    1 H     2.50580130000E-01 -2.13273740000E-01 -4.93799970000E-01

  13  13   1    1 H     3.47502160000E-01 -1.96975400000E-02 -4.93641800000E-01

  14  14   1    1 H    -4.64051040000E-01 -2.13391040000E-01 -4.93681500000E-01

  15  15   1    1 H    -3.65965250000E-01  4.79966640000E-01  4.94821480000E-01

  16  16   1    1 H     2.52042250000E-01  2.91758590000E-01  4.93794280000E-01

  17  17   1    1 H     3.48939210000E-01  1.95008970000E-01  4.93636150000E-01

  18  18   1    1 H    -4.62615050000E-01 -4.22865500000E-01  4.93675830000E-01

  19  19   1    6 C    -1.65534790000E-01  3.31081820000E-01  4.98179750000E-01

  20  20   1    6 C    -1.10567090000E-01  2.78661620000E-01  4.94979490000E-01

  21  21   1    6 C    -3.63621000000E-03  4.93125040000E-01  4.94703020000E-01

  22  22   1    6 C    -1.10667860000E-01  4.39440630000E-01  4.95532710000E-01

  23  23   1    6 C    -3.44770000000E-03  3.32490330000E-01  4.93399140000E-01

  24  24   1    6 C     5.09113700000E-02  4.39774970000E-01  4.95572180000E-01

  25  25   1    6 C     4.96195340000E-01 -7.53147000000E-03 -4.98185410000E-01

  26  26   1    6 C    -4.51035120000E-01 -6.28818400000E-02 -4.94985200000E-01

  27  27   1    6 C     3.34553820000E-01 -1.69838380000E-01 -4.94708630000E-01

  28  28   1    6 C     3.88138360000E-01 -6.27074000000E-02 -4.95538290000E-01

  29  29   1    6 C     4.95321720000E-01 -1.70178580000E-01 -4.93404880000E-01

  30  30   1    6 C     3.87783250000E-01 -2.24309080000E-01 -4.95577850000E-01

  31  31   1    6 C     4.96619770000E-01  3.31012680000E-01  4.98179750000E-01

  32  32   1    6 C    -4.49845990000E-01  4.39501760000E-01  4.94979550000E-01

  33  33   1    6 C     3.35799040000E-01  3.32111780000E-01  4.94702960000E-01

  34  34   1    6 C     3.89167300000E-01  2.78438450000E-01  4.95532620000E-01

  35  35   1    6 C     4.96868910000E-01  4.93338350000E-01  4.93399220000E-01

  36  36   1    6 C     3.88835460000E-01  4.39697570000E-01  4.95572180000E-01

  37  37   1    8 O    -4.96802270000E-01  1.65281030000E-01  4.99167470000E-01

  38  38   1    8 O    -3.38645120000E-01  1.63712830000E-01 -4.93997500000E-01

  39  39   1    8 O    -3.37458770000E-01  3.25035470000E-01  4.95690730000E-01

  40  40   1    8 O     2.22785550000E-01 -3.95438500000E-01  4.99167510000E-01

  41  41   1    8 O     2.22017150000E-01  4.44030110000E-01 -4.93997500000E-01

  42  42   1    8 O     3.82125660000E-01 -3.94652570000E-01  4.95690700000E-01

 NUMBER OF SYMMETRY OPERATORS         :    1
 *******************************************************************************
 * GEOMETRY EDITING - INPUT COORDINATES ARE GIVEN IN ANGSTROM         
 *******************************************************************************

 GCALCO - MAX INDICES DIRECT LATTICE VECTOR     8    11    33
 NO.OF VECTORS CREATED 6999 STARS 3500 RMAX   189.54392 BOHR

 GEOMETRY FOR WAVE FUNCTION - DIMENSIONALITY OF THE SYSTEM    3
 (NON PERIODIC DIRECTION: LATTICE PARAMETER FORMALLY SET TO 500)
 *******************************************************************************
 LATTICE PARAMETERS (ANGSTROMS AND DEGREES) - BOHR = 0.5291772083 ANGSTROM
 PRIMITIVE CELL - CENTRING CODE 1/0 VOLUME=   605.996288 - DENSITY  1.069 g/cm^3
         A              B              C           ALPHA      BETA       GAMMA 
    15.02361100    15.02391600     4.31393100    52.967132  89.999959 119.995964
 *******************************************************************************
 ATOMS IN THE ASYMMETRIC UNIT   42 - ATOMS IN THE UNIT CELL:   42
     ATOM                 X/A                 Y/B                 Z/C    
 *******************************************************************************
      1 T   5 B    -4.441316600000E-01  1.116820600000E-01 -4.984620000000E-01
      2 T   5 B    -2.850760000000E-01  2.707417200000E-01 -4.984619800000E-01
      3 T   5 B    -4.437624900000E-01  2.714714700000E-01  4.982983000000E-01
      4 T   5 B     1.694430500000E-01  4.979970600000E-01 -4.984619900000E-01
      5 T   5 B     3.285510200000E-01  4.979762900000E-01 -4.984620000000E-01
      6 T   5 B     3.289047400000E-01 -3.421375500000E-01  4.982983000000E-01
      7 T   1 H    -1.539943600000E-01  1.948424900000E-01  4.948214200000E-01
      8 T   1 H     3.971494000000E-02 -4.227973200000E-01  4.937943500000E-01
      9 T   1 H    -1.539299500000E-01  4.802581200000E-01  4.936362800000E-01
     10 T   1 H     3.983027000000E-02  2.918615400000E-01  4.936757000000E-01
     11 T   1 H    -3.671987900000E-01 -1.947011000000E-02 -4.948271200000E-01
     12 T   1 H     2.505801300000E-01 -2.132737400000E-01 -4.937999700000E-01
     13 T   1 H     3.475021600000E-01 -1.969754000000E-02 -4.936418000000E-01
     14 T   1 H    -4.640510400000E-01 -2.133910400000E-01 -4.936815000000E-01
     15 T   1 H    -3.659652500000E-01  4.799666400000E-01  4.948214800000E-01
     16 T   1 H     2.520422500000E-01  2.917585900000E-01  4.937942800000E-01
     17 T   1 H     3.489392100000E-01  1.950089700000E-01  4.936361500000E-01
     18 T   1 H    -4.626150500000E-01 -4.228655000000E-01  4.936758300000E-01
     19 T   6 C    -1.655347900000E-01  3.310818200000E-01  4.981797500000E-01
     20 T   6 C    -1.105670900000E-01  2.786616200000E-01  4.949794900000E-01
     21 T   6 C    -3.636210000000E-03  4.931250400000E-01  4.947030200000E-01
     22 T   6 C    -1.106678600000E-01  4.394406300000E-01  4.955327100000E-01
     23 T   6 C    -3.447700000000E-03  3.324903300000E-01  4.933991400000E-01
     24 T   6 C     5.091137000000E-02  4.397749700000E-01  4.955721800000E-01
     25 T   6 C     4.961953400000E-01 -7.531470000000E-03 -4.981854100000E-01
     26 T   6 C    -4.510351200000E-01 -6.288184000000E-02 -4.949852000000E-01
     27 T   6 C     3.345538200000E-01 -1.698383800000E-01 -4.947086300000E-01
     28 T   6 C     3.881383600000E-01 -6.270740000000E-02 -4.955382900000E-01
     29 T   6 C     4.953217200000E-01 -1.701785800000E-01 -4.934048800000E-01
     30 T   6 C     3.877832500000E-01 -2.243090800000E-01 -4.955778500000E-01
     31 T   6 C     4.966197700000E-01  3.310126800000E-01  4.981797500000E-01
     32 T   6 C    -4.498459900000E-01  4.395017600000E-01  4.949795500000E-01
     33 T   6 C     3.357990400000E-01  3.321117800000E-01  4.947029600000E-01
     34 T   6 C     3.891673000000E-01  2.784384500000E-01  4.955326200000E-01
     35 T   6 C     4.968689100000E-01  4.933383500000E-01  4.933992200000E-01
     36 T   6 C     3.888354600000E-01  4.396975700000E-01  4.955721800000E-01
     37 T   8 O    -4.968022700000E-01  1.652810300000E-01  4.991674700000E-01
     38 T   8 O    -3.386451200000E-01  1.637128300000E-01 -4.939975000000E-01
     39 T   8 O    -3.374587700000E-01  3.250354700000E-01  4.956907300000E-01
     40 T   8 O     2.227855500000E-01 -3.954385000000E-01  4.991675100000E-01
     41 T   8 O     2.220171500000E-01  4.440301100000E-01 -4.939975000000E-01
     42 T   8 O     3.821256600000E-01 -3.946525700000E-01  4.956907000000E-01

 T = ATOM BELONGING TO THE ASYMMETRIC UNIT

 ****    1 SYMMOPS - TRANSLATORS IN FRACTIONAL UNITS
 **** MATRICES AND TRANSLATORS IN THE CRYSTALLOGRAPHIC REFERENCE FRAME
   V INV                    ROTATION MATRICES                   TRANSLATORS
   1   1  1.00  0.00  0.00  0.00  1.00  0.00  0.00 -0.00  1.00  0.00  0.00  0.00

 DIRECT LATTICE VECTORS CARTESIAN COMPONENTS (ANGSTROM)
          X                    Y                    Z
   0.130113578931E+02  -0.751088897922E+01   0.000000000000E+00
   0.000000000000E+00   0.150239160000E+02   0.000000000000E+00
   0.149981049214E+01   0.259816444649E+01   0.310001784986E+01


 CARTESIAN COORDINATES - PRIMITIVE CELL
 *******************************************************************************
 *      ATOM          X(ANGSTROM)         Y(ANGSTROM)         Z(ANGSTROM)
 *******************************************************************************
    1     5 B    -6.526354517429E+00  3.718639232237E+00 -1.545241097477E+00
    2     5 B    -4.456824370257E+00  4.913688851253E+00 -1.545241035476E+00
    3     5 B     6.484947842569E+00 -1.402777141691E+00 -1.555284225305E+00
    4     5 B    -4.272484863020E-02  2.315947394007E+00 -4.645258916336E+00
    5     5 B     2.027485877679E+00  1.120593022911E+00 -4.645258947336E+00
    6     5 B     3.527039811279E+00  6.109799681794E+00 -1.555284225305E+00
    7     1 H    -2.761347866159E+00  2.771394718694E+00 -1.566062615367E+00
    8     1 H     1.257343245130E+00 -5.367407001815E+00  1.530771299160E+00
    9     1 H     2.373336942710E-01 -2.771694903097E+00  4.630299129197E+00
   10     1 H    -2.411445996171E-01  2.770228729956E+00 -1.569614367817E+00
   11     1 H    -4.020091288820E+00  3.777994263987E+00  1.566044945265E+00
   12     1 H     4.019591868433E+00 -3.771095370837E+00  1.569229128599E+00
   13     1 H     5.280916313510E+00 -1.590382457737E+00  1.569719458423E+00
   14     1 H    -5.278552363422E+00  1.594965507316E+00  1.569596387714E+00
   15     1 H    -2.519755904595E+00 -1.180421131655E+00  4.633973270353E+00
   16     1 H     2.520199268885E+00  1.175089486304E+00 -1.569246767701E+00
   17     1 H     3.780723129161E+00 -1.006661834335E+00 -1.569736973523E+00
   18     1 H    -5.278829792716E+00 -1.595794481037E+00  1.530403885044E+00
   19     6 C    -2.906467672559E+00  4.913647350618E+00 -1.555651732421E+00
   20     6 C    -2.196063038826E+00  3.704919575220E+00 -1.565572595545E+00
   21     6 C     2.194459242341E+00 -3.704451407307E+00  4.633606042238E+00
   22     6 C     8.030765160742E-01 -3.704942962185E+00  4.636178096048E+00
   23     6 C    -8.046645437618E-01  3.704969737654E+00 -1.570471708754E+00
   24     6 C    -9.412008106624E-02  4.914166132590E+00 -1.563735245966E+00
   25     6 C     7.208801940797E+00 -2.536223456915E+00  1.555634186320E+00
   26     6 C    -5.111152872933E+00  3.755054728272E+00  1.565554894443E+00
   27     6 C     5.110840784822E+00 -3.751604081638E+00  1.566412266380E+00
   28     6 C     5.806804079524E+00 -2.546700361177E+00  1.563840305571E+00
   29     6 C    -5.806753045691E+00  2.550051269930E+00  1.570453914652E+00
   30     6 C     2.802503299444E+00  4.855561088469E+00 -4.636318030854E+00
   31     6 C     5.709062288120E+00 -6.076079017638E-02 -1.555651732421E+00
   32     6 C    -3.610921158025E+00 -1.157932472237E+00  4.634463290175E+00
   33     6 C     3.611351687347E+00  1.154625372320E+00 -1.566429843481E+00
   34     6 C     4.306989551109E+00 -5.044571179970E-02 -1.563857882672E+00
   35     6 C    -4.306602860008E+00  4.701644677627E-02  4.629564238966E+00
   36     6 C     4.302731194609E+00  2.374892958099E+00 -1.563735245966E+00
   37     8 O     5.796131872706E+00 -2.597539246600E+00 -1.552589782790E+00
   38     8 O    -5.147135488647E+00  3.719646964562E+00 -1.531401067786E+00
   39     8 O    -2.147544180774E+00 -3.719944567540E+00  4.636667960869E+00
   40     8 O     2.147588701146E+00  6.108318491447E+00 -1.552589658789E+00
   41     8 O     2.147841963457E+00  3.720038167825E+00 -1.531401067786E+00
   42     8 O     4.215605342958E+00  4.914307037473E+00 -1.563367831850E+00

 *******************************************************************************
 STARTING BASIS SET HANDLING 
 *******************************************************************************

 Loading internal basis set: SOLDEF2MSVP         

 Please cite in your publication:
 L. Dona', J. G. Brandenburg and B. Civalleri, J. Chem. Phys., 151, 121101 (2019
 )                                                                              
                                                                                
                    

 *******************************************************************************
 LOCAL ATOMIC FUNCTIONS BASIS SET
 *******************************************************************************
   ATOM   X(AU)   Y(AU)   Z(AU)  N. TYPE  EXPONENT  S COEF   P COEF   D/F/G COEF
 *******************************************************************************
   1 B  -12.333   7.027  -2.920
                                  1 S  
                                         2.410E+03 1.755E-03 0.000E+00 0.000E+00
                                         3.619E+02 1.344E-02 0.000E+00 0.000E+00
                                         8.231E+01 6.637E-02 0.000E+00 0.000E+00
                                         2.311E+01 2.303E-01 0.000E+00 0.000E+00
                                         7.252E+00 5.150E-01 0.000E+00 0.000E+00
                                  2 S  
                                         2.367E+00 1.000E+00 0.000E+00 0.000E+00
                                  3 S  
                                         5.533E-01 1.000E+00 0.000E+00 0.000E+00
                                  4 S  
                                         1.716E-01 1.000E+00 0.000E+00 0.000E+00
                           5-     7 P  
                                         6.002E+00 0.000E+00-3.555E-02 0.000E+00
                                         1.240E+00 0.000E+00-1.983E-01 0.000E+00
                                         3.367E-01 0.000E+00-5.048E-01 0.000E+00
                           8-    10 P  
                                         1.256E-01 0.000E+00 1.000E+00 0.000E+00
                          11-    15 D  
                                         8.880E-01 0.000E+00 0.000E+00 1.000E+00
   2 B   -8.422   9.286  -2.920
   3 B   12.255  -2.651  -2.939
   4 B   -0.081   4.377  -8.778
   5 B    3.831   2.118  -8.778
   6 B    6.665  11.546  -2.939
   7 H   -5.218   5.237  -2.959
                                 91 S  
                                         1.874E+01 1.968E-02 0.000E+00 0.000E+00
                                         2.826E+00 1.380E-01 0.000E+00 0.000E+00
                                         6.401E-01 4.783E-01 0.000E+00 0.000E+00
                                 92 S  
                                         1.756E-01 1.000E+00 0.000E+00 0.000E+00
   8 H    2.376 -10.143   2.893
   9 H    0.448  -5.238   8.750
  10 H   -0.456   5.235  -2.966
  11 H   -7.597   7.139   2.959
  12 H    7.596  -7.126   2.965
  13 H    9.979  -3.005   2.966
  14 H   -9.975   3.014   2.966
  15 H   -4.762  -2.231   8.757
  16 H    4.762   2.221  -2.965
  17 H    7.145  -1.902  -2.966
  18 H   -9.976  -3.016   2.892
  19 C   -5.492   9.285  -2.940
                                115 S  
                                         3.624E+03 1.634E-03 0.000E+00 0.000E+00
                                         5.440E+02 1.252E-02 0.000E+00 0.000E+00
                                         1.237E+02 6.211E-02 0.000E+00 0.000E+00
                                         3.476E+01 2.182E-01 0.000E+00 0.000E+00
                                         1.093E+01 4.980E-01 0.000E+00 0.000E+00
                                116 S  
                                         3.574E+00 1.000E+00 0.000E+00 0.000E+00
                                117 S  
                                         7.742E-01 1.000E+00 0.000E+00 0.000E+00
                                118 S  
                                         2.330E-01 1.000E+00 0.000E+00 0.000E+00
                         119-   121 P  
                                         9.443E+00 0.000E+00 3.790E-02 0.000E+00
                                         2.002E+00 0.000E+00 2.082E-01 0.000E+00
                                         5.463E-01 0.000E+00 5.047E-01 0.000E+00
                         122-   124 P  
                                         1.820E-01 0.000E+00 1.000E+00 0.000E+00
                         125-   129 D  
                                         8.880E-01 0.000E+00 0.000E+00 1.000E+00
  20 C   -4.150   7.001  -2.959
  21 C    4.147  -7.000   8.756
  22 C    1.518  -7.001   8.761
  23 C   -1.521   7.001  -2.968
  24 C   -0.178   9.286  -2.955
  25 C   13.623  -4.793   2.940
  26 C   -9.659   7.096   2.958
  27 C    9.658  -7.090   2.960
  28 C   10.973  -4.813   2.955
  29 C  -10.973   4.819   2.968
  30 C    5.296   9.176  -8.761
  31 C   10.789  -0.115  -2.940
  32 C   -6.824  -2.188   8.758
  33 C    6.824   2.182  -2.960
  34 C    8.139  -0.095  -2.955
  35 C   -8.138   0.089   8.749
  36 C    8.131   4.488  -2.955
  37 O   10.953  -4.909  -2.934
                                385 S  
                                         6.773E+03 1.727E-03 0.000E+00 0.000E+00
                                         1.017E+03 1.325E-02 0.000E+00 0.000E+00
                                         2.313E+02 6.603E-02 0.000E+00 0.000E+00
                                         6.501E+01 2.353E-01 0.000E+00 0.000E+00
                                         2.050E+01 5.498E-01 0.000E+00 0.000E+00
                                386 S  
                                         6.716E+00 1.000E+00 0.000E+00 0.000E+00
                                387 S  
                                         1.147E+00 1.000E+00 0.000E+00 0.000E+00
                                388 S  
                                         3.342E-01 1.000E+00 0.000E+00 0.000E+00
                         389-   391 P  
                                         1.769E+01 0.000E+00 4.359E-02 0.000E+00
                                         3.854E+00 0.000E+00 2.318E-01 0.000E+00
                                         1.047E+00 0.000E+00 5.146E-01 0.000E+00
                         392-   394 P  
                                         2.759E-01 0.000E+00 1.000E+00 0.000E+00
                         395-   399 D  
                                         8.000E-01 0.000E+00 0.000E+00 1.000E+00
  38 O   -9.727   7.029  -2.894
  39 O   -4.058  -7.030   8.762
  40 O    4.058  11.543  -2.934
  41 O    4.059   7.030  -2.894
  42 O    7.966   9.287  -2.954

 *******************************************************************************
 FINISHED BASIS SET HANDLING 
 *******************************************************************************

 INFORMATION **** SET_MPP **** PCRYSTAL CALCULATION
 INFORMATION **** READM2 **** NEW DEFAULT: FOCK/KS MATRIX MIXING SET TO 30 %
 INFORMATION **** READM2 **** NEW DEFAULT: FULL DIRECT SCF MODE
 INFORMATION **** READM2 **** NEW DEFAULT: COULOMB BIPOLAR BUFFER SET TO 32 Mb
 INFORMATION **** READM2 **** NEW DEFAULT: EXCHANGE BIPOLAR BUFFER SET TO 32 Mb

 *******************************************************************************
 NEW DEFAULT: DFT INTEGRATION GRID INCREASED TO XLGRID
 NEW DEFAULT: DIIS ACCELERATOR ACTIVE
 USE KEYWORD NODIIS TO TURN IT OFF
 *******************************************************************************

 WARNING **** RDDFTP **** HSEsol-HJS ACTIVE
 RANGE SEPARATION - OMEGA:   0.110000000000000     
 WARNING **** RDDFTP **** HSEsol-3c has to be combined with sol-def2-mSVP basis set
 *******************************************************************************
 N. OF ATOMS PER CELL        42  COULOMB OVERLAP TOL         (T1) 10**   -6
 NUMBER OF SHELLS           234  COULOMB PENETRATION TOL     (T2) 10**   -6
 NUMBER OF AO               474  EXCHANGE OVERLAP TOL        (T3) 10**   -6
 N. OF ELECTRONS PER CELL   198  EXCHANGE PSEUDO OVP (F(G))  (T4) 10**   -6
 CORE ELECTRONS PER CELL     60  EXCHANGE PSEUDO OVP (P(G))  (T5) 10**  -12
 N. OF SYMMETRY OPERATORS     1  POLE ORDER IN MONO ZONE                  4
 *******************************************************************************
 TYPE OF CALCULATION :  RESTRICTED CLOSED SHELL
 KOHN-SHAM HAMILTONIAN

 (EXCHANGE)[CORRELATION] FUNCTIONAL:(HSEsol GGA)[PBEsol]

 RANGE-SEPARATED HYBRID FUNCTIONAL 
 OMEGA (SHORT-RANGE)[LONG-RANGE]:(    0.1100)[    0.0000]

 HYBRID EXCHANGE - PERCENTAGE OF FOCK EXCHANGE    25.0000

 CAPPA:IS1  2;IS2  2;IS3  8; K PTS MONK NET  20; SYMMOPS:K SPACE   2;G SPACE   1

 *******************************************************************************
 MAX NUMBER OF SCF CYCLES      50  CONVERGENCE ON DELTAP        10**-16
 WEIGHT OF F(I) IN F(I+1)      30% CONVERGENCE ON ENERGY        10**- 6
 SHRINK. FACT.(MONKH.)    2  2  8  NUMBER OF K POINTS IN THE IBZ     20
 SHRINKING FACTOR(GILAT NET)    8  NUMBER OF K POINTS(GILAT NET)   1028
 *******************************************************************************
 *** K POINTS COORDINATES (OBLIQUE COORDINATES IN UNITS OF IS =  2)
   1-R(  0  0  0)   2-R(  1  0  0)   3-R(  0  1  0)   4-R(  1  1  0)
   5-C(  0  0  1)   6-C(  1  0  1)   7-C(  0  1  1)   8-C(  1  1  1)
   9-C(  0  0  2)  10-C(  1  0  2)  11-C(  0  1  2)  12-C(  1  1  2)
  13-C(  0  0  3)  14-C(  1  0  3)  15-C(  0  1  3)  16-C(  1  1  3)
  17-R(  0  0  4)  18-R(  1  0  4)  19-R(  0  1  4)  20-R(  1  1  4)

 DIRECT LATTICE VECTORS COMPON. (A.U.)     RECIP. LATTICE VECTORS COMPON. (A.U.) 
        X            Y            Z              X            Y            Z
   24.5879030  -14.1935232    0.0000000      0.2555397    0.0000000   -0.1236319
    0.0000000   28.3910867    0.0000000      0.1277517    0.2213084   -0.2472885
    2.8342311    4.9098193    5.8581847      0.0000000    0.0000000    1.0725482

 DISK SPACE FOR EIGENVECTORS (FTN 10)     7189632 REALS

 SYMMETRY ADAPTION OF THE BLOCH FUNCTIONS DISABLED
 TTTTTTTTTTTTTTTTTTTTTTTTTTTTTT gordsh1     TELAPSE        0.05 TCPU        0.05

 MATRIX SIZE: P(G)  407474, F(G)   82882, P(G) IRR  205402, F(G) IRR   83578
 MAX G-VECTOR INDEX FOR 1- AND 2-ELECTRON INTEGRALS  65

 TTTTTTTTTTTTTTTTTTTTTTTTTTTTTT INPUT       TELAPSE        0.38 TCPU        0.37

 NEIGHBORS OF THE NON-EQUIVALENT ATOMS

 N = NUMBER OF NEIGHBORS AT DISTANCE R
    ATOM  N     R/ANG      R/AU   NEIGHBORS (ATOM LABELS AND CELL INDICES)
   1 B    1     1.3791     2.6061   37 O   -1 0 0
   1 B    1     1.3793     2.6065   38 O    0 0 0
   1 B    1     1.5503     2.9297   25 C   -1 0-1
   1 B    1     2.3895     4.5155    3 B   -1 0 0
   1 B    1     2.3898     4.5160    2 B    0 0 0
   1 B    1     2.5632     4.8437   26 C    0 0-1

   2 B    1     1.3793     2.6065   39 O    0 1-2
   2 B    1     1.3793     2.6065   38 O    0 0 0
   2 B    1     1.5504     2.9298   19 C    0 0 0
   2 B    1     2.3895     4.5156    3 B   -1 0 0
   2 B    1     2.3898     4.5160    1 B    0 0 0
   2 B    1     2.5634     4.8440   22 C    0 1-2

   3 B    1     1.3791     2.6061   37 O    0 0 0
   3 B    1     1.3793     2.6064   39 O    1 1-2
   3 B    1     1.5502     2.9294   31 C    0 0 0
   3 B    1     2.3895     4.5155    1 B    1 0 0
   3 B    1     2.3895     4.5156    2 B    1 0 0
   3 B    1     2.5629     4.8433   32 C    1 1-2

   4 B    1     1.3795     2.6068   40 O    0 0-1
   4 B    1     1.3795     2.6070   41 O    0 0-1
   4 B    1     1.5513     2.9316   24 C    0 0-1
   4 B    1     2.3905     4.5174    6 B    0 0-1
   4 B    1     2.3905     4.5175    5 B    0 0 0
   4 B    1     2.5648     4.8468   23 C    0 0-1

   5 B    1     1.3795     2.6069   41 O    0 0-1
   5 B    1     1.3797     2.6072   42 O    0 0-1
   5 B    1     1.5516     2.9322   36 C    0 0-1
   5 B    1     2.3905     4.5175    4 B    0 0 0
   5 B    1     2.3911     4.5185    6 B    0 0-1
   5 B    1     2.5651     4.8473   35 C    1 1-3

   6 B    1     1.3795     2.6068   40 O    0 0 0
   6 B    1     1.3796     2.6071   42 O    0 0 0
   6 B    1     1.5516     2.9322   30 C    0 0 1
   6 B    1     2.3905     4.5174    4 B    0 0 1
   6 B    1     2.3911     4.5185    5 B    0 0 1
   6 B    1     2.5651     4.8473   29 C    1 1-1

   7 H    1     1.0913     2.0623   20 C    0 0 0
   7 H    1     2.1472     4.0576   19 C    0 0 0
   7 H    1     2.1680     4.0969   23 C    0 0 0
   7 H    1     2.5202     4.7625   10 H    0 0 0
   7 H    1     2.5676     4.8520   38 O    0 0 0
   7 H    1     2.7321     5.1630    2 B    0 0 0

   8 H    1     1.0914     2.0625   21 C    0 0-1
   8 H    1     2.1493     4.0616   24 C    0-1 1
   8 H    1     2.1666     4.0942   22 C    0 0-1
   8 H    1     2.5198     4.7618    9 H    0 0-1
   8 H    1     2.5720     4.8604   40 O    0-1 1
   8 H    1     2.7362     5.1707    4 B    0-1 2

   9 H    1     1.0914     2.0624   22 C    0 0 0
   9 H    1     2.1471     4.0575   19 C    0-1 2
   9 H    1     2.1680     4.0970   21 C    0 0 0
   9 H    1     2.5198     4.7618    8 H    0 0 1
   9 H    1     2.5665     4.8500   39 O    0 0 0
   9 H    1     2.7315     5.1618    2 B    0-1 2

  10 H    1     1.0915     2.0626   23 C    0 0 0
  10 H    1     2.1490     4.0610   24 C    0 0 0
  10 H    1     2.1669     4.0948   20 C    0 0 0
  10 H    1     2.5202     4.7625    7 H    0 0 0
  10 H    1     2.5712     4.8588   41 O    0 0 0
  10 H    1     2.7351     5.1686    4 B    0 0 1

  11 H    1     1.0913     2.0623   26 C    0 0 0
  11 H    1     2.1469     4.0571   25 C   -1 0 0
  11 H    1     2.1680     4.0968   29 C    0 0 0
  11 H    1     2.5198     4.7617   14 H    0 0 0
  11 H    1     2.5670     4.8510   38 O    0 0 1
  11 H    1     2.7310     5.1609    1 B    0 0 1

  12 H    1     1.0914     2.0625   27 C    0 0 0
  12 H    1     2.1493     4.0617   30 C    0-1 2
  12 H    1     2.1664     4.0939   28 C    0 0 0
  12 H    1     2.5192     4.7606   13 H    0 0 0
  12 H    1     2.5735     4.8632   40 O    0-1 1
  12 H    1     2.7371     5.1723    6 B    0-1 1

  13 H    1     1.0914     2.0624   28 C    0 0 0
  13 H    1     2.1475     4.0581   25 C    0 0 0
  13 H    1     2.1679     4.0967   27 C    0 0 0
  13 H    1     2.5192     4.7606   12 H    0 0 0
  13 H    1     2.5675     4.8519   37 O    0 0 1
  13 H    1     2.7328     5.1643    1 B    1 0 1

  14 H    1     1.0914     2.0625   29 C    0 0 0
  14 H    1     2.1491     4.0612   30 C   -1-1 2
  14 H    1     2.1666     4.0942   26 C    0 0 0
  14 H    1     2.5198     4.7617   11 H    0 0 0
  14 H    1     2.5723     4.8609   42 O   -1-1 1
  14 H    1     2.7355     5.1693    6 B   -1-1 1

  15 H    1     1.0914     2.0624   32 C    0 0 0
  15 H    1     2.1475     4.0582   31 C   -1-1 2
  15 H    1     2.1678     4.0966   35 C    0 0 0
  15 H    1     2.5200     4.7621   18 H    0 0 1
  15 H    1     2.5667     4.8503   39 O    0 0 0
  15 H    1     2.7315     5.1618    3 B   -1-1 2

  16 H    1     1.0913     2.0623   33 C    0 0 0
  16 H    1     2.1487     4.0605   36 C    0 0 0
  16 H    1     2.1667     4.0945   34 C    0 0 0
  16 H    1     2.5197     4.7616   17 H    0 0 0
  16 H    1     2.5723     4.8610   41 O    0 0 0
  16 H    1     2.7359     5.1701    5 B    0 0 1

  17 H    1     1.0915     2.0626   34 C    0 0 0
  17 H    1     2.1479     4.0589   31 C    0 0 0
  17 H    1     2.1679     4.0968   33 C    0 0 0
  17 H    1     2.5197     4.7616   16 H    0 0 0
  17 H    1     2.5677     4.8522   37 O    0 0 0
  17 H    1     2.7331     5.1648    3 B    0 0 0

  18 H    1     1.0914     2.0624   35 C    0 0-1
  18 H    1     2.1486     4.0602   36 C   -1-1 1
  18 H    1     2.1668     4.0947   32 C    0 0-1
  18 H    1     2.5200     4.7621   15 H    0 0-1
  18 H    1     2.5717     4.8598   42 O   -1-1 1
  18 H    1     2.7349     5.1682    5 B   -1-1 2

  19 C    1     1.4020     2.6495   22 C    0 1-2
  19 C    1     1.4021     2.6495   20 C    0 0 0
  19 C    1     1.5504     2.9298    2 B    0 0 0
  19 C    1     2.1471     4.0575    9 H    0 1-2
  19 C    1     2.1472     4.0576    7 H    0 0 0
  19 C    1     2.4246     4.5817   21 C    0 1-2

  20 C    1     1.0913     2.0623    7 H    0 0 0
  20 C    1     1.3914     2.6294   23 C    0 0 0
  20 C    1     1.4021     2.6495   19 C    0 0 0
  20 C    1     2.1669     4.0948   10 H    0 0 0
  20 C    1     2.4177     4.5688   22 C    0 1-2
  20 C    1     2.4250     4.5825   24 C    0 0 0

  21 C    1     1.0914     2.0625    8 H    0 0 1
  21 C    1     1.3914     2.6293   22 C    0 0 0
  21 C    1     1.4026     2.6505   24 C    0-1 2
  21 C    1     2.1680     4.0970    9 H    0 0 0
  21 C    1     2.4182     4.5697   23 C    0-1 2
  21 C    1     2.4246     4.5817   19 C    0-1 2

  22 C    1     1.0914     2.0624    9 H    0 0 0
  22 C    1     1.3914     2.6293   21 C    0 0 0
  22 C    1     1.4020     2.6495   19 C    0-1 2
  22 C    1     2.1666     4.0942    8 H    0 0 1
  22 C    1     2.4177     4.5688   20 C    0-1 2
  22 C    1     2.4250     4.5826   24 C    0-1 2

  23 C    1     1.0915     2.0626   10 H    0 0 0
  23 C    1     1.3914     2.6294   20 C    0 0 0
  23 C    1     1.4025     2.6504   24 C    0 0 0
  23 C    1     2.1680     4.0969    7 H    0 0 0
  23 C    1     2.4182     4.5697   21 C    0 1-2
  23 C    1     2.4246     4.5818   19 C    0 0 0

  24 C    1     1.4025     2.6504   23 C    0 0 0
  24 C    1     1.4026     2.6505   21 C    0 1-2
  24 C    1     1.5513     2.9316    4 B    0 0 1
  24 C    1     2.1490     4.0610   10 H    0 0 0
  24 C    1     2.1493     4.0616    8 H    0 1-1
  24 C    1     2.4250     4.5825   20 C    0 0 0

  25 C    1     1.4020     2.6494   26 C    1 0 0
  25 C    1     1.4021     2.6495   28 C    0 0 0
  25 C    1     1.5503     2.9297    1 B    1 0 1
  25 C    1     2.1469     4.0571   11 H    1 0 0
  25 C    1     2.1475     4.0581   13 H    0 0 0
  25 C    1     2.4246     4.5818   27 C    0 0 0

  26 C    1     1.0913     2.0623   11 H    0 0 0
  26 C    1     1.3914     2.6293   29 C    0 0 0
  26 C    1     1.4020     2.6494   25 C   -1 0 0
  26 C    1     2.1666     4.0942   14 H    0 0 0
  26 C    1     2.4175     4.5684   28 C   -1 0 0
  26 C    1     2.4251     4.5828   30 C   -1-1 2

  27 C    1     1.0914     2.0625   12 H    0 0 0
  27 C    1     1.3915     2.6295   28 C    0 0 0
  27 C    1     1.4026     2.6505   30 C    0-1 2
  27 C    1     2.1679     4.0967   13 H    0 0 0
  27 C    1     2.4179     4.5691   29 C    1 0 0
  27 C    1     2.4246     4.5818   25 C    0 0 0

  28 C    1     1.0914     2.0624   13 H    0 0 0
  28 C    1     1.3915     2.6295   27 C    0 0 0
  28 C    1     1.4021     2.6495   25 C    0 0 0
  28 C    1     2.1664     4.0939   12 H    0 0 0
  28 C    1     2.4175     4.5684   26 C    1 0 0
  28 C    1     2.4253     4.5832   30 C    0-1 2

  29 C    1     1.0914     2.0625   14 H    0 0 0
  29 C    1     1.3914     2.6293   26 C    0 0 0
  29 C    1     1.4025     2.6504   30 C   -1-1 2
  29 C    1     2.1680     4.0968   11 H    0 0 0
  29 C    1     2.4179     4.5691   27 C   -1 0 0
  29 C    1     2.4247     4.5819   25 C   -1 0 0

  30 C    1     1.4025     2.6504   29 C    1 1-2
  30 C    1     1.4026     2.6505   27 C    0 1-2
  30 C    1     1.5516     2.9322    6 B    0 0-1
  30 C    1     2.1491     4.0612   14 H    1 1-2
  30 C    1     2.1493     4.0617   12 H    0 1-2
  30 C    1     2.4251     4.5828   26 C    1 1-2

  31 C    1     1.4021     2.6496   32 C    1 1-2
  31 C    1     1.4021     2.6497   34 C    0 0 0
  31 C    1     1.5502     2.9294    3 B    0 0 0
  31 C    1     2.1475     4.0582   15 H    1 1-2
  31 C    1     2.1479     4.0589   17 H    0 0 0
  31 C    1     2.4244     4.5814   33 C    0 0 0

  32 C    1     1.0914     2.0624   15 H    0 0 0
  32 C    1     1.3914     2.6293   35 C    0 0 0
  32 C    1     1.4021     2.6496   31 C   -1-1 2
  32 C    1     2.1668     4.0947   18 H    0 0 1
  32 C    1     2.4179     4.5692   34 C   -1-1 2
  32 C    1     2.4251     4.5827   36 C   -1-1 2

  33 C    1     1.0913     2.0623   16 H    0 0 0
  33 C    1     1.3914     2.6294   34 C    0 0 0
  33 C    1     1.4025     2.6504   36 C    0 0 0
  33 C    1     2.1679     4.0968   17 H    0 0 0
  33 C    1     2.4178     4.5690   35 C    1 1-2
  33 C    1     2.4244     4.5814   31 C    0 0 0

  34 C    1     1.0915     2.0626   17 H    0 0 0
  34 C    1     1.3914     2.6294   33 C    0 0 0
  34 C    1     1.4021     2.6497   31 C    0 0 0
  34 C    1     2.1667     4.0945   16 H    0 0 0
  34 C    1     2.4179     4.5692   32 C    1 1-2
  34 C    1     2.4253     4.5832   36 C    0 0 0

  35 C    1     1.0914     2.0624   18 H    0 0 1
  35 C    1     1.3914     2.6293   32 C    0 0 0
  35 C    1     1.4025     2.6503   36 C   -1-1 2
  35 C    1     2.1678     4.0966   15 H    0 0 0
  35 C    1     2.4178     4.5690   33 C   -1-1 2
  35 C    1     2.4245     4.5817   31 C   -1-1 2

  36 C    1     1.4025     2.6503   35 C    1 1-2
  36 C    1     1.4025     2.6504   33 C    0 0 0
  36 C    1     1.5516     2.9322    5 B    0 0 1
  36 C    1     2.1486     4.0602   18 H    1 1-1
  36 C    1     2.1487     4.0605   16 H    0 0 0
  36 C    1     2.4251     4.5827   32 C    1 1-2

  37 O    1     1.3791     2.6061    1 B    1 0 0
  37 O    1     1.3791     2.6061    3 B    0 0 0
  37 O    1     2.3880     4.5126   38 O    1 0 0
  37 O    1     2.3882     4.5130   39 O    1 1-2
  37 O    1     2.5383     4.7966   31 C    0 0 0
  37 O    1     2.5384     4.7968   25 C    0 0-1

  38 O    1     1.3793     2.6065    1 B    0 0 0
  38 O    1     1.3793     2.6065    2 B    0 0 0
  38 O    1     2.3880     4.5126   37 O   -1 0 0
  38 O    1     2.3882     4.5131   39 O    0 1-2
  38 O    1     2.5391     4.7981   19 C    0 0 0
  38 O    1     2.5395     4.7990   25 C   -1 0-1

  39 O    1     1.3793     2.6064    3 B   -1-1 2
  39 O    1     1.3793     2.6065    2 B    0-1 2
  39 O    1     2.3882     4.5130   37 O   -1-1 2
  39 O    1     2.3882     4.5131   38 O    0-1 2
  39 O    1     2.5390     4.7980   19 C    0-1 2
  39 O    1     2.5391     4.7982   31 C   -1-1 2

  40 O    1     1.3795     2.6068    6 B    0 0 0
  40 O    1     1.3795     2.6068    4 B    0 0 1
  40 O    1     2.3880     4.5126   42 O    0 0 0
  40 O    1     2.3884     4.5134   41 O    0 0 0
  40 O    1     2.5400     4.7998   24 C    0 0 0
  40 O    1     2.5403     4.8005   30 C    0 0 1

  41 O    1     1.3795     2.6069    5 B    0 0 1
  41 O    1     1.3795     2.6070    4 B    0 0 1
  41 O    1     2.3881     4.5128   42 O    0 0 0
  41 O    1     2.3884     4.5134   40 O    0 0 0
  41 O    1     2.5404     4.8006   24 C    0 0 0
  41 O    1     2.5405     4.8008   36 C    0 0 0

  42 O    1     1.3796     2.6071    6 B    0 0 0
  42 O    1     1.3797     2.6072    5 B    0 0 1
  42 O    1     2.3880     4.5126   40 O    0 0 0
  42 O    1     2.3881     4.5128   41 O    0 0 0
  42 O    1     2.5409     4.8016   36 C    0 0 0
  42 O    1     2.5410     4.8019   30 C    0 0 1


 SYMMETRY ALLOWED INTERNAL DEGREE(S) OF FREEDOM: 123
 TTTTTTTTTTTTTTTTTTTTTTTTTTTTTT SYMM        TELAPSE        0.38 TCPU        0.38
 TTTTTTTTTTTTTTTTTTTTTTTTTTTTTT INT_SCREEN  TELAPSE        0.41 TCPU        0.41

 DFT PARAMETERS

     ATOM       ELECTRONS   NET CHARGE   R(ANGSTROM)
   1   5  B       5.0000      0.0000     0.89000000
   7   1  H       1.0000      0.0000     1.11000000
  19   6  C       6.0000      0.0000     0.77000000
  37   8  O       8.0000      0.0000     0.74000000

 SIZE OF GRID=    1226561
 TTTTTTTTTTTTTTTTTTTTTTTTTTTTTT MAKE_GRID2  TELAPSE       12.68 TCPU       12.67
 BECKE WEIGHT FUNCTION
 RADSAFE =     2.00
 TOLERANCES - DENSITY:10**- 6; POTENTIAL:10**- 9; GRID WGT:10**-14

 RADIAL INTEGRATION  - INTERVALS (POINTS,UPPER LIMIT):            1( 75,  4.0*R)

 ANGULAR INTEGRATION - INTERVALS (ACCURACY LEVEL [N. POINTS] UPPER LIMIT):
  1(  4[  86]   0.2)  2(  8[ 194]   0.5)  3( 12[ 350]   0.9)  4( 16[ 974]   3.5)
  5( 12[ 350]9999.0)
 TTTTTTTTTTTTTTTTTTTTTTTTTTTTTT INT_CALC    TELAPSE       12.79 TCPU       12.78
 EEEEEEEEEE INT_CALC TERMINATION  DATE 19 02 2026 TIME 17:51:55.7

 *******************************************************************************
 cof-1_z31_L030_incl                                                             
 CRYSTAL - SCF - TYPE OF CALCULATION :  RESTRICTED CLOSED SHELL
 *******************************************************************************

 CAPPA:IS1  2;IS2  2;IS3  8; K PTS MONK NET  20; SYMMOPS:K SPACE   2;G SPACE   1

 TTTTTTTTTTTTTTTTTTTTTTTTTTTTTT SDIK        TELAPSE       13.43 TCPU       20.24

 AAAAAAAAAAAAAAAAAAAAAAAAAAAAAAAAAAAAAAAAAAAAAAAAAAAAAAAAAAAAAAAAAAAAAAAAAAAAAAA
         ATOMIC WAVEFUNCTION(S)


 NUCLEAR CHARGE  5.0  SYMMETRY SPECIES            S    P
 N. ELECTRONS    5.0  NUMBER OF PRIMITIVE GTOS    8    4
                      NUMBER OF CONTRACTED GTOS   4    2
                      NUMBER OF CLOSED SHELLS     2    0
                      OPEN SHELL OCCUPATION       0    1

  ZNUC  SCFIT    TOTAL HF ENERGY   KINETIC ENERGY   VIRIAL THEOREM ACCURACY
   5.0    11    -2.451164084E+01  2.462155050E+01 -1.995536038E+00  1.5E-06

 NUCLEAR CHARGE  1.0  SYMMETRY SPECIES            S
 N. ELECTRONS    1.0  NUMBER OF PRIMITIVE GTOS    4
                      NUMBER OF CONTRACTED GTOS   2
                      NUMBER OF CLOSED SHELLS     0
                      OPEN SHELL OCCUPATION       1

  ZNUC  SCFIT    TOTAL HF ENERGY   KINETIC ENERGY   VIRIAL THEOREM ACCURACY
   1.0     1    -4.977266687E-01  5.190767460E-01 -1.958869132E+00  0.0E+00

 NUCLEAR CHARGE  6.0  SYMMETRY SPECIES            S    P
 N. ELECTRONS    6.0  NUMBER OF PRIMITIVE GTOS    8    4
                      NUMBER OF CONTRACTED GTOS   4    2
                      NUMBER OF CLOSED SHELLS     2    0
                      OPEN SHELL OCCUPATION       0    2

  ZNUC  SCFIT    TOTAL HF ENERGY   KINETIC ENERGY   VIRIAL THEOREM ACCURACY
   6.0     9    -3.766704647E+01  3.775180683E+01 -1.997754800E+00  1.1E-06

 NUCLEAR CHARGE  8.0  SYMMETRY SPECIES            S    P
 N. ELECTRONS    8.0  NUMBER OF PRIMITIVE GTOS    8    4
                      NUMBER OF CONTRACTED GTOS   4    2
                      NUMBER OF CLOSED SHELLS     2    0
                      OPEN SHELL OCCUPATION       0    4

  ZNUC  SCFIT    TOTAL HF ENERGY   KINETIC ENERGY   VIRIAL THEOREM ACCURACY
   8.0    12    -7.477373220E+01  7.477365593E+01 -2.000001020E+00  3.8E-06

 AAAAAAAAAAAAAAAAAAAAAAAAAAAAAAAAAAAAAAAAAAAAAAAAAAAAAAAAAAAAAAAAAAAAAAAAAAAAAAA

 CHARGE NORMALIZATION FACTOR   1.00000000
 TOTAL ATOMIC CHARGES:
   5.0000000   5.0000000   5.0000000   5.0000000   5.0000000   5.0000000
   1.0000000   1.0000000   1.0000000   1.0000000   1.0000000   1.0000000
   1.0000000   1.0000000   1.0000000   1.0000000   1.0000000   1.0000000
   6.0000000   6.0000000   6.0000000   6.0000000   6.0000000   6.0000000
   6.0000000   6.0000000   6.0000000   6.0000000   6.0000000   6.0000000
   6.0000000   6.0000000   6.0000000   6.0000000   6.0000000   6.0000000
   8.0000000   8.0000000   8.0000000   8.0000000   8.0000000   8.0000000
 TTTTTTTTTTTTTTTTTTTTTTTTTTTTTT MOQGAD      TELAPSE       13.49 TCPU       21.72
 TTTTTTTTTTTTTTTTTTTTTTTTTTTTTT SHELLXN     TELAPSE       26.68 TCPU      440.55
 TTTTTTTTTTTTTTTTTTTTTTTTTTTTTT MONMO3      TELAPSE       26.87 TCPU      446.66
 NUMERICALLY INTEGRATED DENSITY    198.0000101965
 TTTTTTTTTTTTTTTTTTTTTTTTTTTTTT NUMDFT      TELAPSE       27.58 TCPU      469.58
 CYC   0 ETOT(AU) -1.296035338542E+03 DETOT -1.30E+03 tst  0.00E+00 PX  1.00E+00
 TTTTTTTTTTTTTTTTTTTTTTTTTTTTTT DIIS        TELAPSE       27.62 TCPU      470.76
 TTTTTTTTTTTTTTTTTTTTTTTTTTTTTT FDIK        TELAPSE       28.11 TCPU      486.36
 INSULATING STATE
 TOP OF VALENCE BANDS -    BAND     99; K   17; EIG -2.9718675E-01 AU
 TOP OF VALENCE BANDS -    BAND     99; K    1; EIG -3.0723101E-01 AU
 BOTTOM OF VIRTUAL BANDS - BAND    100; K    1; EIG -1.7086063E-01 AU
 INDIRECT ENERGY BAND GAP:   3.4375 eV
 TTTTTTTTTTTTTTTTTTTTTTTTTTTTTT PDIG        TELAPSE       28.43 TCPU      492.54
 CHARGE NORMALIZATION FACTOR   1.00000000
 TOTAL ATOMIC CHARGES:
   4.1214136   4.1463575   4.1470951   4.1462756   4.1460621   4.1206505
   0.7861852   0.7863202   0.7834054   0.7832084   0.7867830   0.7870112
   0.7868396   0.7869606   0.7833062   0.7832524   0.7861336   0.7863376
   6.0471829   6.2708437   6.2706283   6.2678040   6.2676323   6.0463798
   6.0569734   6.2631873   6.2629981   6.2631522   6.2629693   6.0564401
   6.0477041   6.2673515   6.2680060   6.2703224   6.2709455   6.0459432
   8.7084912   8.7086647   8.7017605   8.7092266   8.7024278   8.7093673
 TTTTTTTTTTTTTTTTTTTTTTTTTTTTTT MOQGAD      TELAPSE       28.49 TCPU      492.60
 TTTTTTTTTTTTTTTTTTTTTTTTTTTTTT SHELLXN     TELAPSE       42.10 TCPU      927.02
 TTTTTTTTTTTTTTTTTTTTTTTTTTTTTT MONMO3      TELAPSE       42.29 TCPU      933.12
 NUMERICALLY INTEGRATED DENSITY    198.0000096716
 TTTTTTTTTTTTTTTTTTTTTTTTTTTTTT NUMDFT      TELAPSE       43.02 TCPU      956.53
 CYC   1 ETOT(AU) -1.288827034474E+03 DETOT  7.21E+00 tst  0.00E+00 PX  1.00E+00
 TTTTTTTTTTTTTTTTTTTTTTTTTTTTTT DIIS        TELAPSE       43.07 TCPU      957.99
 DIIS TEST: 0.10734E+01 AT SCF   CYCLE   1 - MIX   30 %
 TTTTTTTTTTTTTTTTTTTTTTTTTTTTTT FDIK        TELAPSE       43.57 TCPU      973.96
 INSULATING STATE
 TOP OF VALENCE BANDS -    BAND     99; K   17; EIG -2.0458039E-01 AU
 TOP OF VALENCE BANDS -    BAND     99; K    1; EIG -2.2111563E-01 AU
 BOTTOM OF VIRTUAL BANDS - BAND    100; K    1; EIG -9.3888396E-02 AU
 INDIRECT ENERGY BAND GAP:   3.0121 eV
 TTTTTTTTTTTTTTTTTTTTTTTTTTTTTT PDIG        TELAPSE       43.89 TCPU      980.13
 CHARGE NORMALIZATION FACTOR   1.00000000
 TOTAL ATOMIC CHARGES:
   4.6261044   4.6819276   4.6814915   4.6814193   4.6819386   4.6242919
   0.9061195   0.9063918   0.9184541   0.9186478   0.9033077   0.9029484
   0.9031472   0.9030300   0.9184713   0.9186122   0.9059507   0.9061205
   5.8696344   6.1214462   6.1219758   6.1560892   6.1572334   5.8714738
   5.9211194   6.1420168   6.1442795   6.1442092   6.1418967   5.9235734
   5.8689283   6.1554363   6.1581148   6.1218222   6.1221355   5.8719947
   8.3381696   8.3383513   8.3732538   8.3376633   8.3732664   8.3375417
 TTTTTTTTTTTTTTTTTTTTTTTTTTTTTT MOQGAD      TELAPSE       43.94 TCPU      980.19
 TTTTTTTTTTTTTTTTTTTTTTTTTTTTTT SHELLXN     TELAPSE       57.58 TCPU     1415.27
 TTTTTTTTTTTTTTTTTTTTTTTTTTTTTT MONMO3      TELAPSE       57.77 TCPU     1421.34
 NUMERICALLY INTEGRATED DENSITY    198.0000126687
 TTTTTTTTTTTTTTTTTTTTTTTTTTTTTT NUMDFT      TELAPSE       58.50 TCPU     1444.85
 CYC   2 ETOT(AU) -1.289016938013E+03 DETOT -1.90E-01 tst  2.95E-03 PX  1.59E-01
 TTTTTTTTTTTTTTTTTTTTTTTTTTTTTT DIIS        TELAPSE       58.55 TCPU     1446.42
 DIIS TEST: 0.44668E+00 AT SCF   CYCLE   2 - DIIS ACTIVE - HISTORY:     2 CYCLES
 TTTTTTTTTTTTTTTTTTTTTTTTTTTTTT FDIK        TELAPSE       59.05 TCPU     1462.29
 INSULATING STATE
 TOP OF VALENCE BANDS -    BAND     99; K   17; EIG -2.1777364E-01 AU
 TOP OF VALENCE BANDS -    BAND     99; K    1; EIG -2.3185643E-01 AU
 BOTTOM OF VIRTUAL BANDS - BAND    100; K    1; EIG -8.9286429E-02 AU
 INDIRECT ENERGY BAND GAP:   3.4963 eV
 TTTTTTTTTTTTTTTTTTTTTTTTTTTTTT PDIG        TELAPSE       59.36 TCPU     1468.45
 CHARGE NORMALIZATION FACTOR   1.00000000
 TOTAL ATOMIC CHARGES:
   4.4304654   4.4764393   4.4764735   4.4752359   4.4752401   4.4294158
   0.8851672   0.8854964   0.8934415   0.8934618   0.8868507   0.8870246
   0.8870619   0.8867728   0.8933251   0.8935882   0.8850209   0.8853701
   5.8927026   6.1720246   6.1722085   6.1611675   6.1599539   5.8920932
   5.9319078   6.1606383   6.1597750   6.1601233   6.1602794   5.9327443
   5.8934508   6.1613074   6.1598723   6.1716969   6.1726092   5.8915702
   8.5306444   8.5312147   8.5216736   8.5313026   8.5213457   8.5318427
 TTTTTTTTTTTTTTTTTTTTTTTTTTTTTT MOQGAD      TELAPSE       59.42 TCPU     1468.51
 TTTTTTTTTTTTTTTTTTTTTTTTTTTTTT SHELLXN     TELAPSE       73.02 TCPU     1902.61
 TTTTTTTTTTTTTTTTTTTTTTTTTTTTTT MONMO3      TELAPSE       73.21 TCPU     1908.66
 NUMERICALLY INTEGRATED DENSITY    198.0000104258
 TTTTTTTTTTTTTTTTTTTTTTTTTTTTTT NUMDFT      TELAPSE       73.95 TCPU     1932.11
 CYC   3 ETOT(AU) -1.289109219226E+03 DETOT -9.23E-02 tst  7.25E-04 PX  6.83E-02
 TTTTTTTTTTTTTTTTTTTTTTTTTTTTTT DIIS        TELAPSE       74.00 TCPU     1933.96
 DIIS TEST: 0.15384E-01 AT SCF   CYCLE   3 - DIIS ACTIVE - HISTORY:     3 CYCLES
 TTTTTTTTTTTTTTTTTTTTTTTTTTTTTT FDIK        TELAPSE       74.50 TCPU     1949.77
 INSULATING STATE
 TOP OF VALENCE BANDS -    BAND     99; K   17; EIG -2.2722273E-01 AU
 TOP OF VALENCE BANDS -    BAND     99; K    1; EIG -2.4328333E-01 AU
 BOTTOM OF VIRTUAL BANDS - BAND    100; K    1; EIG -9.7652515E-02 AU
 INDIRECT ENERGY BAND GAP:   3.5258 eV
 TTTTTTTTTTTTTTTTTTTTTTTTTTTTTT PDIG        TELAPSE       74.82 TCPU     1955.94
 CHARGE NORMALIZATION FACTOR   1.00000000
 TOTAL ATOMIC CHARGES:
   4.4400601   4.4798269   4.4796928   4.4792800   4.4794830   4.4394786
   0.8698901   0.8703046   0.8761611   0.8761546   0.8669712   0.8667381
   0.8667888   0.8668658   0.8762561   0.8760913   0.8698150   0.8700899
   5.9386470   6.1607848   6.1609546   6.1811569   6.1830710   5.9411556
   5.9859207   6.1685641   6.1710868   6.1710329   6.1684862   5.9878366
   5.9383243   6.1801825   6.1841500   6.1610947   6.1609123   5.9414259
   8.4861147   8.4860550   8.5105018   8.4858861   8.5111127   8.4855949
 TTTTTTTTTTTTTTTTTTTTTTTTTTTTTT MOQGAD      TELAPSE       74.87 TCPU     1956.00
 TTTTTTTTTTTTTTTTTTTTTTTTTTTTTT SHELLXN     TELAPSE       88.54 TCPU     2392.01
 TTTTTTTTTTTTTTTTTTTTTTTTTTTTTT MONMO3      TELAPSE       88.74 TCPU     2398.37
 NUMERICALLY INTEGRATED DENSITY    198.0000111761
 TTTTTTTTTTTTTTTTTTTTTTTTTTTTTT NUMDFT      TELAPSE       89.47 TCPU     2421.80
 CYC   4 ETOT(AU) -1.289112451224E+03 DETOT -3.23E-03 tst  3.90E-05 PX  1.57E-02
 TTTTTTTTTTTTTTTTTTTTTTTTTTTTTT DIIS        TELAPSE       89.53 TCPU     2423.77
 DIIS TEST: 0.45352E-02 AT SCF   CYCLE   4 - DIIS ACTIVE - HISTORY:     4 CYCLES
 TTTTTTTTTTTTTTTTTTTTTTTTTTTTTT FDIK        TELAPSE       90.03 TCPU     2439.63
 INSULATING STATE
 TOP OF VALENCE BANDS -    BAND     99; K   17; EIG -2.2601333E-01 AU
 TOP OF VALENCE BANDS -    BAND     99; K    1; EIG -2.4128225E-01 AU
 BOTTOM OF VIRTUAL BANDS - BAND    100; K    1; EIG -9.7536022E-02 AU
 INDIRECT ENERGY BAND GAP:   3.4960 eV
 TTTTTTTTTTTTTTTTTTTTTTTTTTTTTT PDIG        TELAPSE       90.34 TCPU     2445.80
 CHARGE NORMALIZATION FACTOR   1.00000000
 TOTAL ATOMIC CHARGES:
   4.4376792   4.4847785   4.4846581   4.4837326   4.4838992   4.4363459
   0.8713460   0.8716227   0.8794467   0.8795712   0.8706489   0.8707633
   0.8707752   0.8705727   0.8793744   0.8796732   0.8711981   0.8714677
   5.9242711   6.1681039   6.1682316   6.1770767   6.1756940   5.9226841
   5.9642354   6.1707526   6.1700204   6.1704758   6.1702674   5.9643685
   5.9244202   6.1770494   6.1757873   6.1677278   6.1688351   5.9225870
   8.5009410   8.5015429   8.5074015   8.5012596   8.5069501   8.5017631
 TTTTTTTTTTTTTTTTTTTTTTTTTTTTTT MOQGAD      TELAPSE       90.40 TCPU     2445.86
 TTTTTTTTTTTTTTTTTTTTTTTTTTTTTT SHELLXN     TELAPSE      104.00 TCPU     2880.10
 TTTTTTTTTTTTTTTTTTTTTTTTTTTTTT MONMO3      TELAPSE      104.19 TCPU     2886.13
 NUMERICALLY INTEGRATED DENSITY    198.0000109306
 TTTTTTTTTTTTTTTTTTTTTTTTTTTTTT NUMDFT      TELAPSE      104.92 TCPU     2909.50
 CYC   5 ETOT(AU) -1.289113471816E+03 DETOT -1.02E-03 tst  5.18E-06 PX  7.46E-03
 TTTTTTTTTTTTTTTTTTTTTTTTTTTTTT DIIS        TELAPSE      104.99 TCPU     2911.71
 DIIS TEST: 0.11841E-03 AT SCF   CYCLE   5 - DIIS ACTIVE - HISTORY:     5 CYCLES
 TTTTTTTTTTTTTTTTTTTTTTTTTTTTTT FDIK        TELAPSE      105.49 TCPU     2927.55
 INSULATING STATE
 TOP OF VALENCE BANDS -    BAND     99; K   17; EIG -2.2559656E-01 AU
 TOP OF VALENCE BANDS -    BAND     99; K    1; EIG -2.4088353E-01 AU
 BOTTOM OF VIRTUAL BANDS - BAND    100; K    1; EIG -9.6971229E-02 AU
 INDIRECT ENERGY BAND GAP:   3.5001 eV
 TTTTTTTTTTTTTTTTTTTTTTTTTTTTTT PDIG        TELAPSE      105.80 TCPU     2933.71
 CHARGE NORMALIZATION FACTOR   1.00000000
 TOTAL ATOMIC CHARGES:
   4.4394002   4.4831948   4.4831241   4.4826884   4.4828401   4.4387943
   0.8725224   0.8729439   0.8806197   0.8805564   0.8719538   0.8716968
   0.8717999   0.8717931   0.8806758   0.8805306   0.8724184   0.8727479
   5.9198012   6.1668615   6.1673443   6.1747962   6.1775179   5.9240687
   5.9643378   6.1671534   6.1701325   6.1696827   6.1675257   5.9674636
   5.9201266   6.1740036   6.1783919   6.1673684   6.1670470   5.9237908
   8.4994516   8.4992661   8.5121011   8.4994619   8.5129097   8.4990953
 TTTTTTTTTTTTTTTTTTTTTTTTTTTTTT MOQGAD      TELAPSE      105.86 TCPU     2933.77
 TTTTTTTTTTTTTTTTTTTTTTTTTTTTTT SHELLXN     TELAPSE      119.48 TCPU     3368.48
 TTTTTTTTTTTTTTTTTTTTTTTTTTTTTT MONMO3      TELAPSE      119.67 TCPU     3374.49
 NUMERICALLY INTEGRATED DENSITY    198.0000109250
 TTTTTTTTTTTTTTTTTTTTTTTTTTTTTT NUMDFT      TELAPSE      120.40 TCPU     3397.92
 CYC   6 ETOT(AU) -1.289113483733E+03 DETOT -1.19E-05 tst  4.70E-07 PX  1.98E-03
 TTTTTTTTTTTTTTTTTTTTTTTTTTTTTT DIIS        TELAPSE      120.47 TCPU     3400.28
 DIIS TEST: 0.86006E-04 AT SCF   CYCLE   6 - DIIS ACTIVE - HISTORY:     6 CYCLES
 TTTTTTTTTTTTTTTTTTTTTTTTTTTTTT FDIK        TELAPSE      120.97 TCPU     3416.16
 INSULATING STATE
 TOP OF VALENCE BANDS -    BAND     99; K   17; EIG -2.2567359E-01 AU
 TOP OF VALENCE BANDS -    BAND     99; K    1; EIG -2.4101423E-01 AU
 BOTTOM OF VIRTUAL BANDS - BAND    100; K    1; EIG -9.7001155E-02 AU
 INDIRECT ENERGY BAND GAP:   3.5014 eV
 TTTTTTTTTTTTTTTTTTTTTTTTTTTTTT PDIG        TELAPSE      121.29 TCPU     3422.33
 CHARGE NORMALIZATION FACTOR   1.00000000
 TOTAL ATOMIC CHARGES:
   4.4390540   4.4838195   4.4837156   4.4828360   4.4829984   4.4379410
   0.8725370   0.8728753   0.8804080   0.8805095   0.8717139   0.8717521
   0.8717651   0.8716432   0.8803912   0.8805539   0.8724108   0.8726998
   5.9231570   6.1671048   6.1671469   6.1763569   6.1755115   5.9222408
   5.9653638   6.1690038   6.1689329   6.1694122   6.1684659   5.9657114
   5.9231181   6.1760088   6.1759373   6.1668775   6.1675968   5.9223253
   8.4997164   8.5001690   8.5101325   8.4999117   8.5099417   8.5002326
 TTTTTTTTTTTTTTTTTTTTTTTTTTTTTT MOQGAD      TELAPSE      121.34 TCPU     3422.39
 TTTTTTTTTTTTTTTTTTTTTTTTTTTTTT SHELLXN     TELAPSE      134.96 TCPU     3856.80
 TTTTTTTTTTTTTTTTTTTTTTTTTTTTTT MONMO3      TELAPSE      135.14 TCPU     3862.87
 NUMERICALLY INTEGRATED DENSITY    198.0000109274
 TTTTTTTTTTTTTTTTTTTTTTTTTTTTTT NUMDFT      TELAPSE      135.88 TCPU     3886.33
 CYC   7 ETOT(AU) -1.289113502404E+03 DETOT -1.87E-05 tst  3.34E-07 PX  1.15E-03
 TTTTTTTTTTTTTTTTTTTTTTTTTTTTTT DIIS        TELAPSE      135.96 TCPU     3888.85
 DIIS TEST: 0.61983E-05 AT SCF   CYCLE   7 - DIIS ACTIVE - HISTORY:     7 CYCLES
 TTTTTTTTTTTTTTTTTTTTTTTTTTTTTT FDIK        TELAPSE      136.46 TCPU     3904.70
 INSULATING STATE
 TOP OF VALENCE BANDS -    BAND     99; K   17; EIG -2.2569349E-01 AU
 TOP OF VALENCE BANDS -    BAND     99; K    1; EIG -2.4103308E-01 AU
 BOTTOM OF VIRTUAL BANDS - BAND    100; K    1; EIG -9.7037620E-02 AU
 INDIRECT ENERGY BAND GAP:   3.5009 eV
 TTTTTTTTTTTTTTTTTTTTTTTTTTTTTT PDIG        TELAPSE      136.77 TCPU     3910.88
 CHARGE NORMALIZATION FACTOR   1.00000000
 TOTAL ATOMIC CHARGES:
   4.4388251   4.4838932   4.4837998   4.4830791   4.4832331   4.4378450
   0.8724865   0.8728319   0.8804010   0.8804349   0.8717126   0.8716684
   0.8717231   0.8715992   0.8803806   0.8804839   0.8723611   0.8726561
   5.9223393   6.1669698   6.1672272   6.1757287   6.1761285   5.9232739
   5.9645850   6.1686743   6.1695069   6.1695708   6.1685554   5.9660072
   5.9225467   6.1753883   6.1765443   6.1669502   6.1674682   5.9231138
   8.4999812   8.5002590   8.5096135   8.5001561   8.5096991   8.5002977
 TTTTTTTTTTTTTTTTTTTTTTTTTTTTTT MOQGAD      TELAPSE      136.83 TCPU     3910.93
 TTTTTTTTTTTTTTTTTTTTTTTTTTTTTT SHELLXN     TELAPSE      150.40 TCPU     4344.02
 TTTTTTTTTTTTTTTTTTTTTTTTTTTTTT MONMO3      TELAPSE      150.59 TCPU     4350.05
 NUMERICALLY INTEGRATED DENSITY    198.0000109297
 TTTTTTTTTTTTTTTTTTTTTTTTTTTTTT NUMDFT      TELAPSE      151.32 TCPU     4373.50
 CYC   8 ETOT(AU) -1.289113503494E+03 DETOT -1.09E-06 tst  3.57E-08 PX  2.51E-04
 TTTTTTTTTTTTTTTTTTTTTTTTTTTTTT DIIS        TELAPSE      151.40 TCPU     4376.11
 DIIS TEST: 0.72962E-06 AT SCF   CYCLE   8 - DIIS ACTIVE - HISTORY:     8 CYCLES
 TTTTTTTTTTTTTTTTTTTTTTTTTTTTTT FDIK        TELAPSE      151.90 TCPU     4391.91
 INSULATING STATE
 TOP OF VALENCE BANDS -    BAND     99; K   17; EIG -2.2569263E-01 AU
 TOP OF VALENCE BANDS -    BAND     99; K    1; EIG -2.4102034E-01 AU
 BOTTOM OF VIRTUAL BANDS - BAND    100; K    1; EIG -9.7048575E-02 AU
 INDIRECT ENERGY BAND GAP:   3.5006 eV
 TTTTTTTTTTTTTTTTTTTTTTTTTTTTTT PDIG        TELAPSE      152.21 TCPU     4398.08
 CHARGE NORMALIZATION FACTOR   1.00000000
 TOTAL ATOMIC CHARGES:
   4.4388862   4.4839230   4.4838235   4.4830658   4.4832259   4.4378734
   0.8724640   0.8728123   0.8803923   0.8804483   0.8717009   0.8716669
   0.8717090   0.8716001   0.8803832   0.8804862   0.8723391   0.8726360
   5.9224820   6.1669873   6.1671955   6.1759162   6.1760091   5.9229636
   5.9647527   6.1687156   6.1694194   6.1696041   6.1684747   5.9658781
   5.9226110   6.1755168   6.1764847   6.1669538   6.1674495   5.9228820
   8.4999079   8.5001998   8.5099037   8.5000782   8.5099455   8.5002325
 TTTTTTTTTTTTTTTTTTTTTTTTTTTTTT MOQGAD      TELAPSE      152.28 TCPU     4398.13
 TTTTTTTTTTTTTTTTTTTTTTTTTTTTTT SHELLXN     TELAPSE      165.86 TCPU     4831.61
 TTTTTTTTTTTTTTTTTTTTTTTTTTTTTT MONMO3      TELAPSE      166.05 TCPU     4837.71
 NUMERICALLY INTEGRATED DENSITY    198.0000109295
 TTTTTTTTTTTTTTTTTTTTTTTTTTTTTT NUMDFT      TELAPSE      166.78 TCPU     4861.19
 CYC   9 ETOT(AU) -1.289113503567E+03 DETOT -7.32E-08 tst  2.03E-09 PX  1.10E-04
 TTTTTTTTTTTTTTTTTTTTTTTTTTTTTT DIIS        TELAPSE      166.88 TCPU     4864.13
 DIIS TEST: 0.24469E-07 AT SCF   CYCLE   9 - DIIS ACTIVE - HISTORY:     9 CYCLES
 TTTTTTTTTTTTTTTTTTTTTTTTTTTTTT FDIK        TELAPSE      167.38 TCPU     4880.08
 INSULATING STATE
 TOP OF VALENCE BANDS -    BAND     99; K   17; EIG -2.2569475E-01 AU
 TOP OF VALENCE BANDS -    BAND     99; K    1; EIG -2.4102429E-01 AU
 BOTTOM OF VIRTUAL BANDS - BAND    100; K    1; EIG -9.7044543E-02 AU
 INDIRECT ENERGY BAND GAP:   3.5008 eV
 TTTTTTTTTTTTTTTTTTTTTTTTTTTTTT PDIG        TELAPSE      167.70 TCPU     4886.26
 CHARGE NORMALIZATION FACTOR   1.00000000
 TOTAL ATOMIC CHARGES:
   4.4388924   4.4838976   4.4838001   4.4830472   4.4832051   4.4378845
   0.8724619   0.8728074   0.8803928   0.8804430   0.8716951   0.8716677
   0.8717123   0.8715919   0.8803765   0.8804881   0.8723369   0.8726311
   5.9224530   6.1670309   6.1672271   6.1758815   6.1760211   5.9229849
   5.9647834   6.1687310   6.1693689   6.1695302   6.1685131   5.9659708
   5.9225864   6.1755228   6.1764558   6.1669625   6.1675165   5.9228987
   8.4998968   8.5002142   8.5098791   8.5000721   8.5099148   8.5002527
 TTTTTTTTTTTTTTTTTTTTTTTTTTTTTT MOQGAD      TELAPSE      167.75 TCPU     4886.32
 TTTTTTTTTTTTTTTTTTTTTTTTTTTTTT SHELLXN     TELAPSE      181.40 TCPU     5321.75
 +++ ENERGIES IN A.U. +++
 ::: EXT EL-POLE                                  -1.6737366290782E+03
 ::: EXT EL-SPHEROPOLE                             1.8485700871175E+01
 ::: BIELET ZONE E-E                               2.4800819808838E+03
 ::: TOTAL E-E                                     8.2483105267672E+02
 ::: TOTAL E-N + N-E                              -3.4707817980585E+03
 ::: TOTAL N-N                                     2.1056314257045E+02
 ::: KINETIC ENERGY                                1.2800256026643E+03
 ::: PSEUDO TOTAL   ENERGY                        -1.1553620001470E+03
 ::: VIRIAL COEFFICIENT                            1.0511884031821E+00
 TTTTTTTTTTTTTTTTTTTTTTTTTTTTTT MONMO3      TELAPSE      181.63 TCPU     5328.92
 NUMERICALLY INTEGRATED DENSITY    198.0000109293
 EXCHANGE ENERGY: -0.126030257233E+03  CORRELATION ENERGY: -0.772124622712E+01
 TTTTTTTTTTTTTTTTTTTTTTTTTTTTTT NUMDFT      TELAPSE      182.36 TCPU     5352.42
 CYC  10 ETOT(AU) -1.289113503607E+03 DETOT -3.97E-08 tst  1.01E-10 PX  1.10E-04

 == SCF ENDED - CONVERGENCE ON ENERGY      E(AU) -1.2891135036072E+03 CYCLES  10


 ENERGY EXPRESSION=HARTREE+FOCK EXCH*0.00000+(HSESOL     EXCH)*1.00000+PBESOL     CORR


 TOTAL ENERGY(DFT)(AU)( 10) -1.2891135036072E+03 DE-4.0E-08 tester 1.0E-10
 TTTTTTTTTTTTTTTTTTTTTTTTTTTTTT EDFT        TELAPSE      182.36 TCPU     5352.43
 
 INFORMATION **** DFTD3 ENERGY **** CALCULATE DFTD3 ENERGY

           DFT-D V3(BJ)
 DF                                         hsesol3c  
 parameters
 s6       :    1.0000
 s8       :    0.0000
 a1       :    0.5196
 a2       :    4.9385
 k1 k3    :   16.0000   -4.0000
 Cutoff   :   50.2022
 CN-Cutoff:   21.1671
 ABC-Cutoff:   21.1671
 
 Edisp /kcal,au:   -32.7291 -0.05215718

 E6    /kcal :   -34.9887
 E8    /kcal :     0.0000
 E6(ABC) "   :   2.259602
 
 INFORMATION **** DFTD3 ENERGY **** NORMAL TERMINATION OF DFTD3 MODULE

 GCP ENERGY CALCULATION
  level        hsesol3c            basis:hsesol3c
  Nbf            474
  Atoms           42

  Parameters: 
  sigma     1.0000
  eta       1.4281
  alpha     0.2936
  beta      1.9467

  dmp_scal      4.0000
  dmp_exp       6.0000
 cutoffs: 
   distance [bohr] 60.0
   noise    [a.u.] 2.2E-16
 SR-damping   T
 ** gCP correction **
  Egcp:        0.0860308143 / (a.u.) ||      53.9852 / (kcal/mol)
 INFORMATION **** GCP **** NORMAL TERMINATION OF GCP MODULE

 *******************************************************************************

 DFT-D3-GCP DISPERSION AND COUNTERPOISE CORRECTION

 D3 DISPERSION ENERGY (AU)      -5.2157180266190E-02
 GCP ENERGY (AU)                 8.6030814314292E-02
 TOTAL ENERGY + DISP + GCP (AU) -1.2890796299731E+03

 *******************************************************************************

 EIGENVECTORS IN FORTRAN UNIT  8
 TTTTTTTTTTTTTTTTTTTTTTTTTTTTTT END         TELAPSE      184.10 TCPU     5360.06
 EEEEEEEEEE TERMINATION  DATE 19 02 2026 TIME 17:54:47.0
