 Default number of threads is:           32

         
 *******************************************************************************
 *                                                                             *
 *                               CRYSTAL23                                     *
 *                      public : 1.0.1 - October 2022                          *
 *                       HTTP://WWW.CRYSTAL.UNITO.IT                           *
 *                                                                             *
 *                              MAIN AUTHORS                                   *
 *                                                                             *
 *  R. DOVESI(1,11), V.R. SAUNDERS(2), C. ROETTI(1,11), R. ORLANDO(1,11),      *
 *  C.M. ZICOVICH-WILSON(1,3), F. PASCALE(4), B. CIVALLERI(1,11),              *
 *  K. DOLL(5), N.M. HARRISON(6), I.J. BUSH(7), Ph. D'ARCO(8),                 *
 *  M. LLUNELL(9), M. CAUSA'(10), Y. NOEL(8), L. MASCHIO(1,11), A. ERBA(1,11)  *
 *  M. RE'RAT(14), S. CASASSA(1,11), B.G. SEARLE(2), J.K. DESMARAIS(1)         *
 *                                                                             *
 *        CONTRIBUTIONS TO THE CODE HAVE ALSO BEEN GIVEN BY                    *
 *                                                                             *
 *  M. FERRABONE(1,11), M. DE LA PIERRE(1,11), M. FERRERO(1,11),               *
 *  J. BAIMA(1,11), E. ALBANESE(1,11), M.F. PEINTINGER(12), R. BAST(13),       *
 *  B. KIRTMAN(15), V. LACIVITA(1,11), R. DEMICHELIS(1,16)                     *
 *  G. BRANDEBURG(17), S. SALUSTRO(1,11), G. SANSONE(1,11)                     *
 *  M.T. RUGGIERO(18), L.E. DAGA(1), L. DONA'(1), A. COSSARD(1)                *
 *                                                                             *
 * (1) THEORETICAL CHEMISTRY GROUP - UNIVERSITA' DI TORINO - TORINO (ITALY)    *
 * (2) SCIENTIFIC COMPUTING DEPARTMENT - STFC DARESBURY (UK)                   *
 * (3) UNIVERSIDAD AUTONOMA DEL ESTADO DE MORELOS - CUERNAVACA (MEXICO)        *
 * (4) UNIVERSITE' DE LORRAINE - NANCY (FRANCE)                                *
 * (5) UNIVERSITAET STUTTGART- STUTTGART (GERMANY)                             *
 * (6) IMPERIAL COLLEGE - LONDON (UK)                                          *
 * (7) SCIENTIFIC COMPUTING DEPARTMENT - STFC RAL (UK)                         *
 * (8) UPMC - SORBONNE UNIVERSITES - PARIS (FRANCE)                            *
 * (9) UNIVERSIDAD DE BARCELONA - BARCELONA (SPAIN)                            *
 *(10) UNIVERSITA' DI NAPOLI "FEDERICO II" - NAPOLI (ITALY)                    *
 *(11) NIS - NANOSTRUCTURED INTERFACES AND SURFACES - TORINO (ITALY)           *
 *(12) MPI FUER CHEMISCHE ENERGIEKONVERSION - MUELHEIM AN DER RUHR (GERMANY)   *
 *(13) UNIVERSITY OF TROMSO - TROMSO (NORWAY)                                  *
 *(14) UNIVERSITE' DE PAU ET DES PAYS DE L'ADOUR - PAU (FRANCE)                *
 *(15) UNIVERSITY OF CALIFORNIA SANTA BARBARA - SANTA BARBARA (USA)            *
 *(16) CURTIN UNIVERSITY - PERTH (AUSTRALIA)                                   *
 *(17) UNIVERSITY COLLEGE LONDON - LONDON (UK)                                 *
 *(18) UNIVERSITY OF VERMONT - BURLINGTON (USA)                                *
 *                                                                             *
 *******************************************************************************
 EEEEEEEEEE STARTING  DATE 19 02 2026 TIME 20:28:20.9
 cof-1_z43_L070_serr                                                             

 CRYSTAL CALCULATION
 (INPUT ACCORDING TO THE INTERNATIONAL TABLES FOR X-RAY CRYSTALLOGRAPHY)
 CRYSTAL FAMILY                       :  TRICLINIC   
 CRYSTAL CLASS  (GROTH - 1921)        :  TRICLINIC PEDIAL                     

 SPACE GROUP (NONCENTROSYMMETRIC)     :  P 1             

 LATTICE PARAMETERS  (ANGSTROMS AND DEGREES) - CONVENTIONAL CELL
        A           B           C        ALPHA        BETA       GAMMA
    15.02361    15.02392     8.60000    90.00032    89.99994   119.99596


 NUMBER OF IRREDUCIBLE ATOMS IN THE CONVENTIONAL CELL:   84

 INPUT COORDINATES

 ATOM AT. N.              COORDINATES
   1   5     6.136805400000E-01  2.273182200000E-01  2.505554300000E-01
   2   5     8.826434800000E-01  7.652987900000E-01  7.505554300000E-01
   3   5     7.727362000000E-01  3.863778800000E-01  2.505554400000E-01
   4   5     4.169914000000E-02  9.243584500000E-01  7.505554400000E-01
   5   5     6.136762700000E-01  3.863606700000E-01  2.493876200000E-01
   6   5     8.826392100000E-01  9.243412400000E-01  7.493876300000E-01
   7   5     2.272552500000E-01  6.136332200000E-01  2.505554400000E-01
   8   5     4.962181900000E-01  1.516137900000E-01  7.505554400000E-01
   9   5     3.863632200000E-01  6.136124500000E-01  2.505554300000E-01
  10   5     6.553261600000E-01  1.515930200000E-01  7.505554300000E-01
  11   5     3.863435000000E-01  7.727516500000E-01  2.493876300000E-01
  12   5     6.553064400000E-01  3.107322200000E-01  7.493876300000E-01
  13   1     9.030436200000E-01  3.089300500000E-01  2.481343300000E-01
  14   1     1.720065600000E-01  8.469106200000E-01  7.481343300000E-01
  15   1     9.663453000000E-02  6.910534400000E-01  2.477641000000E-01
  16   1     3.655974700000E-01  2.290340100000E-01  7.477641000000E-01
  17   1     9.029714200000E-01  5.940724300000E-01  2.477071200000E-01
  18   1     1.719343600000E-01  1.320530000000E-01  7.477071200000E-01
  19   1     9.673618000000E-02  4.056849400000E-01  2.477213300000E-01
  20   1     3.656991200000E-01  9.436655100000E-01  7.477213300000E-01
  21   1     6.910324000000E-01  9.700412000000E-02  2.518656900000E-01
  22   1     9.599953400000E-01  6.349846900000E-01  7.518656900000E-01
  23   1     3.089297200000E-01  9.034373100000E-01  2.522359400000E-01
  24   1     5.778926600000E-01  4.414178800000E-01  7.522359400000E-01
  25   1     4.058699900000E-01  9.704998000000E-02  2.522929500000E-01
  26   1     6.748329300000E-01  6.350305500000E-01  7.522929500000E-01
  27   1     5.943122100000E-01  9.033473200000E-01  2.522786500000E-01
  28   1     8.632751500000E-01  4.413278900000E-01  7.522786500000E-01
  29   1     6.910727400000E-01  5.940542100000E-01  2.481343500000E-01
  30   1     9.600356800000E-01  1.320347800000E-01  7.481343500000E-01
  31   1     3.089618300000E-01  4.056093300000E-01  2.477640800000E-01
  32   1     5.779247700000E-01  9.435899000000E-01  7.477640700000E-01
  33   1     4.058405700000E-01  3.088232500000E-01  2.477070700000E-01
  34   1     6.748035100000E-01  8.468038200000E-01  7.477070700000E-01
  35   1     5.942908800000E-01  6.909579300000E-01  2.477213700000E-01
  36   1     8.632538200000E-01  2.289385000000E-01  7.477213800000E-01
  37   6     8.918903100000E-01  4.459436900000E-01  2.493448900000E-01
  38   6     1.608532500000E-01  9.839242600000E-01  7.493449000000E-01
  39   6     9.464891100000E-01  3.927856300000E-01  2.481913100000E-01
  40   6     2.154520500000E-01  9.307662000000E-01  7.481913000000E-01
  41   6     5.338812000000E-02  6.071853000000E-01  2.480916500000E-01
  42   6     3.223510600000E-01  1.451658700000E-01  7.480916500000E-01
  43   6     9.464521100000E-01  5.536921900000E-01  2.483907200000E-01
  44   6     2.154150500000E-01  9.167276000000E-02  7.483907200000E-01
  45   6     5.342634000000E-02  4.462499700000E-01  2.476216400000E-01
  46   6     3.223892800000E-01  9.842305400000E-01  7.476216400000E-01
  47   6     1.080358900000E-01  5.540356300000E-01  2.484049500000E-01
  48   6     3.769988300000E-01  9.201620000000E-02  7.484049500000E-01
  49   6     5.540394200000E-01  1.081684600000E-01  2.506551300000E-01
  50   6     8.230023600000E-01  6.461490300000E-01  7.506551300000E-01
  51   6     6.071778500000E-01  5.355594000000E-02  2.518087100000E-01
  52   6     8.761407900000E-01  5.915365100000E-01  7.518087000000E-01
  53   6     3.927986700000E-01  9.466631600000E-01  2.519084000000E-01
  54   6     6.617616100000E-01  4.846437300000E-01  7.519084000000E-01
  55   6     4.462875800000E-01  5.360286000000E-02  2.516093300000E-01
  56   6     7.152505200000E-01  5.915834300000E-01  7.516093300000E-01
  57   6     5.537168500000E-01  9.466235600000E-01  2.523783600000E-01
  58   6     8.226797900000E-01  4.846041300000E-01  7.523783600000E-01
  59   6     4.459279100000E-01  8.919920600000E-01  2.515950800000E-01
  60   6     7.148908500000E-01  4.299726300000E-01  7.515950800000E-01
  61   6     5.540448700000E-01  4.458745500000E-01  2.493449000000E-01
  62   6     8.230078100000E-01  9.838551200000E-01  7.493448900000E-01
  63   6     6.072102200000E-01  5.536257800000E-01  2.481913200000E-01
  64   6     8.761731600000E-01  9.160635000000E-02  7.481913200000E-01
  65   6     3.928233700000E-01  4.461720300000E-01  2.480916200000E-01
  66   6     6.617863100000E-01  9.841526000000E-01  7.480916200000E-01
  67   6     4.462872600000E-01  3.926899900000E-01  2.483906900000E-01
  68   6     7.152502000000E-01  9.306705600000E-01  7.483906900000E-01
  69   6     5.537429600000E-01  6.070980000000E-01  2.476216700000E-01
  70   6     8.227059000000E-01  1.450785700000E-01  7.476216700000E-01
  71   6     4.459599800000E-01  5.539582300000E-01  2.484049500000E-01
  72   6     7.149229200000E-01  9.193880000000E-02  7.484049500000E-01
  73   8     5.607366800000E-01  2.803706300000E-01  2.497009400000E-01
  74   8     8.296996200000E-01  8.183512000000E-01  7.497009300000E-01
  75   8     7.196817000000E-01  2.803783300000E-01  2.521647400000E-01
  76   8     9.886446400000E-01  8.183589000000E-01  7.521647400000E-01
  77   8     7.196794200000E-01  4.393234600000E-01  2.484476900000E-01
  78   8     9.886423600000E-01  9.773040300000E-01  7.484476900000E-01
  79   8     2.803245100000E-01  7.196511100000E-01  2.497009500000E-01
  80   8     5.492874500000E-01  2.576316800000E-01  7.497009500000E-01
  81   8     2.803439700000E-01  5.606956100000E-01  2.521647300000E-01
  82   8     5.493069100000E-01  9.867618000000E-02  7.521647300000E-01
  83   8     4.392638400000E-01  7.196354200000E-01  2.484476800000E-01
  84   8     7.082267800000E-01  2.576159900000E-01  7.484476700000E-01

 *******************************************************************************

 << INFORMATION >>: FROM NOW ON, ALL COORDINATES REFER TO THE PRIMITIVE CELL

 *******************************************************************************

 LATTICE PARAMETERS  (ANGSTROMS AND DEGREES) - PRIMITIVE CELL
       A          B          C        ALPHA      BETA     GAMMA        VOLUME
   15.02361   15.02392    8.60000    90.00032  89.99994 119.99596   1681.141313

 COORDINATES OF THE EQUIVALENT ATOMS (FRACTIONAL UNITS)

 N. ATOM EQUIV AT. N.          X                  Y                  Z

   1   1   1    5 B    -3.86319460000E-01  2.27318220000E-01  2.50555430000E-01

   2   2   1    5 B    -1.17356520000E-01 -2.34701210000E-01 -2.49444570000E-01

   3   3   1    5 B    -2.27263800000E-01  3.86377880000E-01  2.50555440000E-01

   4   4   1    5 B     4.16991400000E-02 -7.56415500000E-02 -2.49444560000E-01

   5   5   1    5 B    -3.86323730000E-01  3.86360670000E-01  2.49387620000E-01

   6   6   1    5 B    -1.17360790000E-01 -7.56587600000E-02 -2.50612370000E-01

   7   7   1    5 B     2.27255250000E-01 -3.86366780000E-01  2.50555440000E-01

   8   8   1    5 B     4.96218190000E-01  1.51613790000E-01 -2.49444560000E-01

   9   9   1    5 B     3.86363220000E-01 -3.86387550000E-01  2.50555430000E-01

  10  10   1    5 B    -3.44673840000E-01  1.51593020000E-01 -2.49444570000E-01

  11  11   1    5 B     3.86343500000E-01 -2.27248350000E-01  2.49387630000E-01

  12  12   1    5 B    -3.44693560000E-01  3.10732220000E-01 -2.50612370000E-01

  13  13   1    1 H    -9.69563800000E-02  3.08930050000E-01  2.48134330000E-01

  14  14   1    1 H     1.72006560000E-01 -1.53089380000E-01 -2.51865670000E-01

  15  15   1    1 H     9.66345300000E-02 -3.08946560000E-01  2.47764100000E-01

  16  16   1    1 H     3.65597470000E-01  2.29034010000E-01 -2.52235900000E-01

  17  17   1    1 H    -9.70285800000E-02 -4.05927570000E-01  2.47707120000E-01

  18  18   1    1 H     1.71934360000E-01  1.32053000000E-01 -2.52292880000E-01

  19  19   1    1 H     9.67361800000E-02  4.05684940000E-01  2.47721330000E-01

  20  20   1    1 H     3.65699120000E-01 -5.63344900000E-02 -2.52278670000E-01

  21  21   1    1 H    -3.08967600000E-01  9.70041200000E-02  2.51865690000E-01

  22  22   1    1 H    -4.00046600000E-02 -3.65015310000E-01 -2.48134310000E-01

  23  23   1    1 H     3.08929720000E-01 -9.65626900000E-02  2.52235940000E-01

  24  24   1    1 H    -4.22107340000E-01  4.41417880000E-01 -2.47764060000E-01

  25  25   1    1 H     4.05869990000E-01  9.70499800000E-02  2.52292950000E-01

  26  26   1    1 H    -3.25167070000E-01 -3.64969450000E-01 -2.47707050000E-01

  27  27   1    1 H    -4.05687790000E-01 -9.66526800000E-02  2.52278650000E-01

  28  28   1    1 H    -1.36724850000E-01  4.41327890000E-01 -2.47721350000E-01

  29  29   1    1 H    -3.08927260000E-01 -4.05945790000E-01  2.48134350000E-01

  30  30   1    1 H    -3.99643200000E-02  1.32034780000E-01 -2.51865650000E-01

  31  31   1    1 H     3.08961830000E-01  4.05609330000E-01  2.47764080000E-01

  32  32   1    1 H    -4.22075230000E-01 -5.64101000000E-02 -2.52235930000E-01

  33  33   1    1 H     4.05840570000E-01  3.08823250000E-01  2.47707070000E-01

  34  34   1    1 H    -3.25196490000E-01 -1.53196180000E-01 -2.52292930000E-01

  35  35   1    1 H    -4.05709120000E-01 -3.09042070000E-01  2.47721370000E-01

  36  36   1    1 H    -1.36746180000E-01  2.28938500000E-01 -2.52278620000E-01

  37  37   1    6 C    -1.08109690000E-01  4.45943690000E-01  2.49344890000E-01

  38  38   1    6 C     1.60853250000E-01 -1.60757400000E-02 -2.50655100000E-01

  39  39   1    6 C    -5.35108900000E-02  3.92785630000E-01  2.48191310000E-01

  40  40   1    6 C     2.15452050000E-01 -6.92338000000E-02 -2.51808700000E-01

  41  41   1    6 C     5.33881200000E-02 -3.92814700000E-01  2.48091650000E-01

  42  42   1    6 C     3.22351060000E-01  1.45165870000E-01 -2.51908350000E-01

  43  43   1    6 C    -5.35478900000E-02 -4.46307810000E-01  2.48390720000E-01

  44  44   1    6 C     2.15415050000E-01  9.16727600000E-02 -2.51609280000E-01

  45  45   1    6 C     5.34263400000E-02  4.46249970000E-01  2.47621640000E-01

  46  46   1    6 C     3.22389280000E-01 -1.57694600000E-02 -2.52378360000E-01

  47  47   1    6 C     1.08035890000E-01 -4.45964370000E-01  2.48404950000E-01

  48  48   1    6 C     3.76998830000E-01  9.20162000000E-02 -2.51595050000E-01

  49  49   1    6 C    -4.45960580000E-01  1.08168460000E-01  2.50655130000E-01

  50  50   1    6 C    -1.76997640000E-01 -3.53850970000E-01 -2.49344870000E-01

  51  51   1    6 C    -3.92822150000E-01  5.35559400000E-02  2.51808710000E-01

  52  52   1    6 C    -1.23859210000E-01 -4.08463490000E-01 -2.48191300000E-01

  53  53   1    6 C     3.92798670000E-01 -5.33368400000E-02  2.51908400000E-01

  54  54   1    6 C    -3.38238390000E-01  4.84643730000E-01 -2.48091600000E-01

  55  55   1    6 C     4.46287580000E-01  5.36028600000E-02  2.51609330000E-01

  56  56   1    6 C    -2.84749480000E-01 -4.08416570000E-01 -2.48390670000E-01

  57  57   1    6 C    -4.46283150000E-01 -5.33764400000E-02  2.52378360000E-01

  58  58   1    6 C    -1.77320210000E-01  4.84604130000E-01 -2.47621640000E-01

  59  59   1    6 C     4.45927910000E-01 -1.08007940000E-01  2.51595080000E-01

  60  60   1    6 C    -2.85109150000E-01  4.29972630000E-01 -2.48404920000E-01

  61  61   1    6 C    -4.45955130000E-01  4.45874550000E-01  2.49344900000E-01

  62  62   1    6 C    -1.76992190000E-01 -1.61448800000E-02 -2.50655110000E-01

  63  63   1    6 C    -3.92789780000E-01 -4.46374220000E-01  2.48191320000E-01

  64  64   1    6 C    -1.23826840000E-01  9.16063500000E-02 -2.51808680000E-01

  65  65   1    6 C     3.92823370000E-01  4.46172030000E-01  2.48091620000E-01

  66  66   1    6 C    -3.38213690000E-01 -1.58474000000E-02 -2.51908380000E-01

  67  67   1    6 C     4.46287260000E-01  3.92689990000E-01  2.48390690000E-01

  68  68   1    6 C    -2.84749800000E-01 -6.93294400000E-02 -2.51609310000E-01

  69  69   1    6 C    -4.46257040000E-01 -3.92902000000E-01  2.47621670000E-01

  70  70   1    6 C    -1.77294100000E-01  1.45078570000E-01 -2.52378330000E-01

  71  71   1    6 C     4.45959980000E-01 -4.46041770000E-01  2.48404950000E-01

  72  72   1    6 C    -2.85077080000E-01  9.19388000000E-02 -2.51595050000E-01

  73  73   1    8 O    -4.39263320000E-01  2.80370630000E-01  2.49700940000E-01

  74  74   1    8 O    -1.70300380000E-01 -1.81648800000E-01 -2.50299070000E-01

  75  75   1    8 O    -2.80318300000E-01  2.80378330000E-01  2.52164740000E-01

  76  76   1    8 O    -1.13553600000E-02 -1.81641100000E-01 -2.47835260000E-01

  77  77   1    8 O    -2.80320580000E-01  4.39323460000E-01  2.48447690000E-01

  78  78   1    8 O    -1.13576400000E-02 -2.26959700000E-02 -2.51552310000E-01

  79  79   1    8 O     2.80324510000E-01 -2.80348890000E-01  2.49700950000E-01

  80  80   1    8 O    -4.50712550000E-01  2.57631680000E-01 -2.50299050000E-01

  81  81   1    8 O     2.80343970000E-01 -4.39304390000E-01  2.52164730000E-01

  82  82   1    8 O    -4.50693090000E-01  9.86761800000E-02 -2.47835270000E-01

  83  83   1    8 O     4.39263840000E-01 -2.80364580000E-01  2.48447680000E-01

  84  84   1    8 O    -2.91773220000E-01  2.57615990000E-01 -2.51552330000E-01

 NUMBER OF SYMMETRY OPERATORS         :    1
 *******************************************************************************
 * GEOMETRY EDITING - INPUT COORDINATES ARE GIVEN IN ANGSTROM         
 *******************************************************************************

 GCALCO - MAX INDICES DIRECT LATTICE VECTOR    12    12    19
 NO.OF VECTORS CREATED 6999 STARS 3500 RMAX   266.29565 BOHR

 GEOMETRY FOR WAVE FUNCTION - DIMENSIONALITY OF THE SYSTEM    3
 (NON PERIODIC DIRECTION: LATTICE PARAMETER FORMALLY SET TO 500)
 *******************************************************************************
 LATTICE PARAMETERS (ANGSTROMS AND DEGREES) - BOHR = 0.5291772083 ANGSTROM
 PRIMITIVE CELL - CENTRING CODE 1/0 VOLUME=  1681.141313 - DENSITY  0.771 g/cm^3
         A              B              C           ALPHA      BETA       GAMMA 
    15.02361100    15.02391600     8.60000000    90.000323  89.999944 119.995964
 *******************************************************************************
 ATOMS IN THE ASYMMETRIC UNIT   84 - ATOMS IN THE UNIT CELL:   84
     ATOM                 X/A                 Y/B                 Z/C    
 *******************************************************************************
      1 T   5 B    -3.863194600000E-01  2.273182200000E-01  2.505554300000E-01
      2 T   5 B    -1.173565200000E-01 -2.347012100000E-01 -2.494445700000E-01
      3 T   5 B    -2.272638000000E-01  3.863778800000E-01  2.505554400000E-01
      4 T   5 B     4.169914000000E-02 -7.564155000000E-02 -2.494445600000E-01
      5 T   5 B    -3.863237300000E-01  3.863606700000E-01  2.493876200000E-01
      6 T   5 B    -1.173607900000E-01 -7.565876000000E-02 -2.506123700000E-01
      7 T   5 B     2.272552500000E-01 -3.863667800000E-01  2.505554400000E-01
      8 T   5 B     4.962181900000E-01  1.516137900000E-01 -2.494445600000E-01
      9 T   5 B     3.863632200000E-01 -3.863875500000E-01  2.505554300000E-01
     10 T   5 B    -3.446738400000E-01  1.515930200000E-01 -2.494445700000E-01
     11 T   5 B     3.863435000000E-01 -2.272483500000E-01  2.493876300000E-01
     12 T   5 B    -3.446935600000E-01  3.107322200000E-01 -2.506123700000E-01
     13 T   1 H    -9.695638000000E-02  3.089300500000E-01  2.481343300000E-01
     14 T   1 H     1.720065600000E-01 -1.530893800000E-01 -2.518656700000E-01
     15 T   1 H     9.663453000000E-02 -3.089465600000E-01  2.477641000000E-01
     16 T   1 H     3.655974700000E-01  2.290340100000E-01 -2.522359000000E-01
     17 T   1 H    -9.702858000000E-02 -4.059275700000E-01  2.477071200000E-01
     18 T   1 H     1.719343600000E-01  1.320530000000E-01 -2.522928800000E-01
     19 T   1 H     9.673618000000E-02  4.056849400000E-01  2.477213300000E-01
     20 T   1 H     3.656991200000E-01 -5.633449000000E-02 -2.522786700000E-01
     21 T   1 H    -3.089676000000E-01  9.700412000000E-02  2.518656900000E-01
     22 T   1 H    -4.000466000000E-02 -3.650153100000E-01 -2.481343100000E-01
     23 T   1 H     3.089297200000E-01 -9.656269000000E-02  2.522359400000E-01
     24 T   1 H    -4.221073400000E-01  4.414178800000E-01 -2.477640600000E-01
     25 T   1 H     4.058699900000E-01  9.704998000000E-02  2.522929500000E-01
     26 T   1 H    -3.251670700000E-01 -3.649694500000E-01 -2.477070500000E-01
     27 T   1 H    -4.056877900000E-01 -9.665268000000E-02  2.522786500000E-01
     28 T   1 H    -1.367248500000E-01  4.413278900000E-01 -2.477213500000E-01
     29 T   1 H    -3.089272600000E-01 -4.059457900000E-01  2.481343500000E-01
     30 T   1 H    -3.996432000000E-02  1.320347800000E-01 -2.518656500000E-01
     31 T   1 H     3.089618300000E-01  4.056093300000E-01  2.477640800000E-01
     32 T   1 H    -4.220752300000E-01 -5.641010000000E-02 -2.522359300000E-01
     33 T   1 H     4.058405700000E-01  3.088232500000E-01  2.477070700000E-01
     34 T   1 H    -3.251964900000E-01 -1.531961800000E-01 -2.522929300000E-01
     35 T   1 H    -4.057091200000E-01 -3.090420700000E-01  2.477213700000E-01
     36 T   1 H    -1.367461800000E-01  2.289385000000E-01 -2.522786200000E-01
     37 T   6 C    -1.081096900000E-01  4.459436900000E-01  2.493448900000E-01
     38 T   6 C     1.608532500000E-01 -1.607574000000E-02 -2.506551000000E-01
     39 T   6 C    -5.351089000000E-02  3.927856300000E-01  2.481913100000E-01
     40 T   6 C     2.154520500000E-01 -6.923380000000E-02 -2.518087000000E-01
     41 T   6 C     5.338812000000E-02 -3.928147000000E-01  2.480916500000E-01
     42 T   6 C     3.223510600000E-01  1.451658700000E-01 -2.519083500000E-01
     43 T   6 C    -5.354789000000E-02 -4.463078100000E-01  2.483907200000E-01
     44 T   6 C     2.154150500000E-01  9.167276000000E-02 -2.516092800000E-01
     45 T   6 C     5.342634000000E-02  4.462499700000E-01  2.476216400000E-01
     46 T   6 C     3.223892800000E-01 -1.576946000000E-02 -2.523783600000E-01
     47 T   6 C     1.080358900000E-01 -4.459643700000E-01  2.484049500000E-01
     48 T   6 C     3.769988300000E-01  9.201620000000E-02 -2.515950500000E-01
     49 T   6 C    -4.459605800000E-01  1.081684600000E-01  2.506551300000E-01
     50 T   6 C    -1.769976400000E-01 -3.538509700000E-01 -2.493448700000E-01
     51 T   6 C    -3.928221500000E-01  5.355594000000E-02  2.518087100000E-01
     52 T   6 C    -1.238592100000E-01 -4.084634900000E-01 -2.481913000000E-01
     53 T   6 C     3.927986700000E-01 -5.333684000000E-02  2.519084000000E-01
     54 T   6 C    -3.382383900000E-01  4.846437300000E-01 -2.480916000000E-01
     55 T   6 C     4.462875800000E-01  5.360286000000E-02  2.516093300000E-01
     56 T   6 C    -2.847494800000E-01 -4.084165700000E-01 -2.483906700000E-01
     57 T   6 C    -4.462831500000E-01 -5.337644000000E-02  2.523783600000E-01
     58 T   6 C    -1.773202100000E-01  4.846041300000E-01 -2.476216400000E-01
     59 T   6 C     4.459279100000E-01 -1.080079400000E-01  2.515950800000E-01
     60 T   6 C    -2.851091500000E-01  4.299726300000E-01 -2.484049200000E-01
     61 T   6 C    -4.459551300000E-01  4.458745500000E-01  2.493449000000E-01
     62 T   6 C    -1.769921900000E-01 -1.614488000000E-02 -2.506551100000E-01
     63 T   6 C    -3.927897800000E-01 -4.463742200000E-01  2.481913200000E-01
     64 T   6 C    -1.238268400000E-01  9.160635000000E-02 -2.518086800000E-01
     65 T   6 C     3.928233700000E-01  4.461720300000E-01  2.480916200000E-01
     66 T   6 C    -3.382136900000E-01 -1.584740000000E-02 -2.519083800000E-01
     67 T   6 C     4.462872600000E-01  3.926899900000E-01  2.483906900000E-01
     68 T   6 C    -2.847498000000E-01 -6.932944000000E-02 -2.516093100000E-01
     69 T   6 C    -4.462570400000E-01 -3.929020000000E-01  2.476216700000E-01
     70 T   6 C    -1.772941000000E-01  1.450785700000E-01 -2.523783300000E-01
     71 T   6 C     4.459599800000E-01 -4.460417700000E-01  2.484049500000E-01
     72 T   6 C    -2.850770800000E-01  9.193880000000E-02 -2.515950500000E-01
     73 T   8 O    -4.392633200000E-01  2.803706300000E-01  2.497009400000E-01
     74 T   8 O    -1.703003800000E-01 -1.816488000000E-01 -2.502990700000E-01
     75 T   8 O    -2.803183000000E-01  2.803783300000E-01  2.521647400000E-01
     76 T   8 O    -1.135536000000E-02 -1.816411000000E-01 -2.478352600000E-01
     77 T   8 O    -2.803205800000E-01  4.393234600000E-01  2.484476900000E-01
     78 T   8 O    -1.135764000000E-02 -2.269597000000E-02 -2.515523100000E-01
     79 T   8 O     2.803245100000E-01 -2.803488900000E-01  2.497009500000E-01
     80 T   8 O    -4.507125500000E-01  2.576316800000E-01 -2.502990500000E-01
     81 T   8 O     2.803439700000E-01 -4.393043900000E-01  2.521647300000E-01
     82 T   8 O    -4.506930900000E-01  9.867618000000E-02 -2.478352700000E-01
     83 T   8 O     4.392638400000E-01 -2.803645800000E-01  2.484476800000E-01
     84 T   8 O    -2.917732200000E-01  2.576159900000E-01 -2.515523300000E-01

 T = ATOM BELONGING TO THE ASYMMETRIC UNIT

 ****    1 SYMMOPS - TRANSLATORS IN FRACTIONAL UNITS
 **** MATRICES AND TRANSLATORS IN THE CRYSTALLOGRAPHIC REFERENCE FRAME
   V INV                    ROTATION MATRICES                   TRANSLATORS
   1   1  1.00  0.00  0.00  0.00  1.00  0.00  0.00 -0.00  1.00  0.00  0.00  0.00

 DIRECT LATTICE VECTORS CARTESIAN COMPONENTS (ANGSTROM)
          X                    Y                    Z
   0.130113578931E+02  -0.751088897922E+01   0.000000000000E+00
   0.000000000000E+00   0.150239160000E+02   0.000000000000E+00
  -0.182809542969E-04  -0.484817559599E-04   0.859999999984E+01


 CARTESIAN COORDINATES - PRIMITIVE CELL
 *******************************************************************************
 *      ATOM          X(ANGSTROM)         Y(ANGSTROM)         Z(ANGSTROM)
 *******************************************************************************
    1     5 B    -5.026545335505E+00  6.316800269753E+00  2.154776697961E+00
    2     5 B    -1.526963122719E+00 -2.644667377920E+00 -2.145223301961E+00
    3     5 B    -2.957015218329E+00  7.511849836805E+00  2.154776783961E+00
    4     5 B     5.425669944573E-01 -1.449617810868E+00 -2.145223215961E+00
    5     5 B    -5.026600872654E+00 -6.317643192899E+00  2.144733531961E+00
    6     5 B    -1.527018659869E+00 -2.551948405733E-01 -2.155266381961E+00
    7     5 B     2.956894810433E+00 -7.511643147972E+00  2.154776783961E+00
    8     5 B     6.456477023219E+00 -1.449194795646E+00 -2.145223215961E+00
    9     5 B     5.027105551741E+00  6.316918506914E+00  2.154776697961E+00
   10     5 B    -4.484670128529E+00  4.866339838457E+00 -2.145223301961E+00
   11     5 B     5.026848989112E+00 -6.315955348631E+00  2.144733617961E+00
   12     5 B     8.526431201898E+00 -2.535069963043E-01 -2.155266381961E+00
   13     1 H    -1.261538696328E+00  5.369555697094E+00  2.133955237961E+00
   14     1 H     2.238043516458E+00 -3.591911950579E+00 -2.166044761961E+00
   15     1 H     1.257341925293E+00 -5.367410404356E+00  2.130771259961E+00
   16     1 H     4.756924138079E+00  6.950379479701E-01 -2.169228739961E+00
   17     1 H    -1.262478108558E+00 -5.369862830849E+00  2.130281231961E+00
   18     1 H     2.237104104228E+00  6.925855214772E-01 -2.169718767961E+00
   19     1 H     1.258664530605E+00  5.368389742806E+00  2.130403437961E+00
   20     1 H     4.758246743391E+00 -3.593077904867E+00 -2.169596561961E+00
   21     1 H    -4.020092625304E+00  3.777990881418E+00  2.166044933961E+00
   22     1 H    -5.205104125181E-01 -5.183476766256E+00 -2.133955065961E+00
   23     1 H     4.019590539608E+00 -3.771098801436E+00  2.169229083961E+00
   24     1 H    -5.492185140663E+00 -5.221677469893E+00 -2.130770915961E+00
   25     1 H     5.280915085785E+00 -1.590385919169E+00  2.169719369961E+00
   26     1 H    -4.230860594485E+00 -3.040964587626E+00 -2.130280629961E+00
   27     1 H    -5.278553640428E+00  1.594961974507E+00  2.169596389961E+00
   28     1 H    -1.778971427642E+00 -7.366505673167E+00 -2.130403609961E+00
   29     1 H    -4.019567678914E+00 -3.778589126989E+00  2.133955409961E+00
   30     1 H    -5.199854661282E-01  2.283859225337E+00 -2.166044589961E+00
   31     1 H     4.020008416060E+00  3.773250486753E+00  2.130771087961E+00
   32     1 H    -5.491767264211E+00  2.322671818296E+00 -2.169228997961E+00
   33     1 H     5.280532375470E+00  1.591499093041E+00  2.130280801961E+00
   34     1 H    -4.231243304800E+00  1.409204245843E-01 -2.169719197961E+00
   35     1 H    -5.278831089380E+00 -1.595797951938E+00  2.130403781961E+00
   36     1 H    -1.779248876594E+00  4.466650400388E+00 -2.169596131961E+00
   37     6 C    -1.406658426560E+00  7.511808329779E+00  2.144366053961E+00
   38     6 C     2.092923786226E+00 -1.449659317895E+00 -2.155633859961E+00
   39     6 C    -6.962538781400E-01  6.303080632346E+00  2.134445265961E+00
   40     6 C     2.803328334646E+00 -2.658387015327E+00 -2.165554819961E+00
   41     6 C     6.946474012053E-01 -6.302619326413E+00  2.133588189961E+00
   42     6 C     4.194229613991E+00 -2.401709740867E-01 -2.166411809961E+00
   43     6 C    -6.967353020274E-01 -6.303110833141E+00  2.136160191961E+00
   44     6 C     2.802846910758E+00 -2.406624808145E-01 -2.163839807961E+00
   45     6 C     6.951447038962E-01  6.303130750845E+00  2.129546103961E+00
   46     6 C     4.194726916682E+00 -2.658336896829E+00 -2.170453895961E+00
   47     6 C     1.405689089005E+00 -7.511588852542E+00  2.136282569961E+00
   48     6 C     4.905271301791E+00 -1.449140500215E+00 -2.163717429961E+00
   49     6 C     7.208800598267E+00 -2.536226869041E+00  2.155634117961E+00
   50     6 C    -2.302975082004E+00 -3.986805537498E+00 -2.144365881961E+00
   51     6 C    -5.111154185273E+00  3.755051292960E+00  2.165554905961E+00
   52     6 C    -1.611571972487E+00 -5.206416354713E+00 -2.134445179961E+00
   53     6 C     5.110839470161E+00 -3.751607618381E+00  2.166412239961E+00
   54     6 C    -4.400936210110E+00 -5.202186286838E+00 -2.133587759961E+00
   55     6 C     5.806802826947E+00 -2.546703798646E+00  2.163840237961E+00
   56     6 C    -3.704972853323E+00 -3.997282467103E+00 -2.136159761961E+00
   57     6 C    -5.806754400008E+00  2.550047806260E+00  2.170453895961E+00
   58     6 C    -2.307172187222E+00 -6.411419841414E+00 -2.129546103961E+00
   59     6 C     5.802123032115E+00 -4.972029440408E+00  2.163717687961E+00
   60     6 C    -3.709652648156E+00 -6.422608108865E+00 -2.136282311961E+00
   61     6 C     7.208871534119E+00  2.537400188985E+00  2.144366139961E+00
   62     6 C    -2.302904146151E+00  1.086821520528E+00 -2.155633945961E+00
   63     6 C    -5.110732941489E+00 -3.756100388846E+00  2.134445351961E+00
   64     6 C    -1.611150728703E+00  2.306347963481E+00 -2.165554647961E+00
   65     6 C     5.111160920475E+00  3.752786351840E+00  2.133587931961E+00
   66     6 C    -4.400614759796E+00  2.302207683383E+00 -2.166412067961E+00
   67     6 C     5.806798722153E+00  2.547715318685E+00  2.136159933961E+00
   68     6 C    -3.704976958118E+00  1.097136650228E+00 -2.163840065961E+00
   69     6 C    -5.806414586496E+00 -2.551151565732E+00  2.129546361961E+00
   70     6 C    -2.306832373711E+00  3.511296786595E+00 -2.170453637961E+00
   71     6 C     5.802540364681E+00  4.973053972967E+00  2.136282569961E+00
   72     6 C    -3.709235315590E+00  3.522475304510E+00 -2.163717429961E+00
   73     8 O     7.295941062473E+00  6.217379926190E-04  2.147428083961E+00
   74     8 O    -2.215834617798E+00 -1.449956930464E+00 -2.152572001961E+00
   75     8 O    -3.647326335085E+00  6.317807882894E+00  2.168616763961E+00
   76     8 O    -1.477441222994E-01 -2.643659764780E+00 -2.131383235961E+00
   77     8 O    -3.647355933030E+00 -6.318112530341E+00  2.136650133961E+00
   78     8 O    -1.477737202442E-01 -2.556641780149E-01 -2.163349865961E+00
   79     8 O     3.647397961034E+00 -6.317436552757E+00  2.147428169961E+00
   80     8 O     7.146980173820E+00 -2.549882004306E-01 -2.152571829961E+00
   81     8 O     3.647651117018E+00  6.318199086157E+00  2.168616677961E+00
   82     8 O     7.147233329804E+00 -2.643268561516E+00 -2.131383321961E+00
   83     8 O    -7.295943403199E+00 -5.589000829137E-04  2.136650047961E+00
   84     8 O    -3.796361190413E+00  6.061889452244E+00 -2.163350037961E+00

 *******************************************************************************
 STARTING BASIS SET HANDLING 
 *******************************************************************************

 Loading internal basis set: SOLDEF2MSVP         

 Please cite in your publication:
 L. Dona', J. G. Brandenburg and B. Civalleri, J. Chem. Phys., 151, 121101 (2019
 )                                                                              
                                                                                
                    

 *******************************************************************************
 LOCAL ATOMIC FUNCTIONS BASIS SET
 *******************************************************************************
   ATOM   X(AU)   Y(AU)   Z(AU)  N. TYPE  EXPONENT  S COEF   P COEF   D/F/G COEF
 *******************************************************************************
   1 B   -9.499  11.937   4.072
                                  1 S  
                                         2.410E+03 1.755E-03 0.000E+00 0.000E+00
                                         3.619E+02 1.344E-02 0.000E+00 0.000E+00
                                         8.231E+01 6.637E-02 0.000E+00 0.000E+00
                                         2.311E+01 2.303E-01 0.000E+00 0.000E+00
                                         7.252E+00 5.150E-01 0.000E+00 0.000E+00
                                  2 S  
                                         2.367E+00 1.000E+00 0.000E+00 0.000E+00
                                  3 S  
                                         5.533E-01 1.000E+00 0.000E+00 0.000E+00
                                  4 S  
                                         1.716E-01 1.000E+00 0.000E+00 0.000E+00
                           5-     7 P  
                                         6.002E+00 0.000E+00-3.555E-02 0.000E+00
                                         1.240E+00 0.000E+00-1.983E-01 0.000E+00
                                         3.367E-01 0.000E+00-5.048E-01 0.000E+00
                           8-    10 P  
                                         1.256E-01 0.000E+00 1.000E+00 0.000E+00
                          11-    15 D  
                                         8.880E-01 0.000E+00 0.000E+00 1.000E+00
   2 B   -2.886  -4.998  -4.054
   3 B   -5.588  14.195   4.072
   4 B    1.025  -2.739  -4.054
   5 B   -9.499 -11.939   4.053
   6 B   -2.886  -0.482  -4.073
   7 B    5.588 -14.195   4.072
   8 B   12.201  -2.739  -4.054
   9 B    9.500  11.937   4.072
  10 B   -8.475   9.196  -4.054
  11 B    9.499 -11.935   4.053
  12 B   16.113  -0.479  -4.073
  13 H   -2.384  10.147   4.033
                                181 S  
                                         1.874E+01 1.968E-02 0.000E+00 0.000E+00
                                         2.826E+00 1.380E-01 0.000E+00 0.000E+00
                                         6.401E-01 4.783E-01 0.000E+00 0.000E+00
                                182 S  
                                         1.756E-01 1.000E+00 0.000E+00 0.000E+00
  14 H    4.229  -6.788  -4.093
  15 H    2.376 -10.143   4.027
  16 H    8.989   1.313  -4.099
  17 H   -2.386 -10.148   4.026
  18 H    4.228   1.309  -4.100
  19 H    2.379  10.145   4.026
  20 H    8.992  -6.790  -4.100
  21 H   -7.597   7.139   4.093
  22 H   -0.984  -9.795  -4.033
  23 H    7.596  -7.126   4.099
  24 H  -10.379  -9.868  -4.027
  25 H    9.979  -3.005   4.100
  26 H   -7.995  -5.747  -4.026
  27 H   -9.975   3.014   4.100
  28 H   -3.362 -13.921  -4.026
  29 H   -7.596  -7.140   4.033
  30 H   -0.983   4.316  -4.093
  31 H    7.597   7.130   4.027
  32 H  -10.378   4.389  -4.099
  33 H    9.979   3.007   4.026
  34 H   -7.996   0.266  -4.100
  35 H   -9.976  -3.016   4.026
  36 H   -3.362   8.441  -4.100
  37 C   -2.658  14.195   4.052
                                229 S  
                                         3.624E+03 1.634E-03 0.000E+00 0.000E+00
                                         5.440E+02 1.252E-02 0.000E+00 0.000E+00
                                         1.237E+02 6.211E-02 0.000E+00 0.000E+00
                                         3.476E+01 2.182E-01 0.000E+00 0.000E+00
                                         1.093E+01 4.980E-01 0.000E+00 0.000E+00
                                230 S  
                                         3.574E+00 1.000E+00 0.000E+00 0.000E+00
                                231 S  
                                         7.742E-01 1.000E+00 0.000E+00 0.000E+00
                                232 S  
                                         2.330E-01 1.000E+00 0.000E+00 0.000E+00
                         233-   235 P  
                                         9.443E+00 0.000E+00 3.790E-02 0.000E+00
                                         2.002E+00 0.000E+00 2.082E-01 0.000E+00
                                         5.463E-01 0.000E+00 5.047E-01 0.000E+00
                         236-   238 P  
                                         1.820E-01 0.000E+00 1.000E+00 0.000E+00
                         239-   243 D  
                                         8.880E-01 0.000E+00 0.000E+00 1.000E+00
  38 C    3.955  -2.739  -4.074
  39 C   -1.316  11.911   4.034
  40 C    5.298  -5.024  -4.092
  41 C    1.313 -11.910   4.032
  42 C    7.926  -0.454  -4.094
  43 C   -1.317 -11.911   4.037
  44 C    5.297  -0.455  -4.089
  45 C    1.314  11.911   4.024
  46 C    7.927  -5.024  -4.102
  47 C    2.656 -14.195   4.037
  48 C    9.270  -2.738  -4.089
  49 C   13.623  -4.793   4.074
  50 C   -4.352  -7.534  -4.052
  51 C   -9.659   7.096   4.092
  52 C   -3.045  -9.839  -4.034
  53 C    9.658  -7.090   4.094
  54 C   -8.317  -9.831  -4.032
  55 C   10.973  -4.813   4.089
  56 C   -7.001  -7.554  -4.037
  57 C  -10.973   4.819   4.102
  58 C   -4.360 -12.116  -4.024
  59 C   10.964  -9.396   4.089
  60 C   -7.010 -12.137  -4.037
  61 C   13.623   4.795   4.052
  62 C   -4.352   2.054  -4.074
  63 C   -9.658  -7.098   4.034
  64 C   -3.045   4.358  -4.092
  65 C    9.659   7.092   4.032
  66 C   -8.316   4.351  -4.094
  67 C   10.973   4.814   4.037
  68 C   -7.001   2.073  -4.089
  69 C  -10.973  -4.821   4.024
  70 C   -4.359   6.635  -4.102
  71 C   10.965   9.398   4.037
  72 C   -7.009   6.657  -4.089
  73 O   13.787   0.001   4.058
                                769 S  
                                         6.773E+03 1.727E-03 0.000E+00 0.000E+00
                                         1.017E+03 1.325E-02 0.000E+00 0.000E+00
                                         2.313E+02 6.603E-02 0.000E+00 0.000E+00
                                         6.501E+01 2.353E-01 0.000E+00 0.000E+00
                                         2.050E+01 5.498E-01 0.000E+00 0.000E+00
                                770 S  
                                         6.716E+00 1.000E+00 0.000E+00 0.000E+00
                                771 S  
                                         1.147E+00 1.000E+00 0.000E+00 0.000E+00
                                772 S  
                                         3.342E-01 1.000E+00 0.000E+00 0.000E+00
                         773-   775 P  
                                         1.769E+01 0.000E+00 4.359E-02 0.000E+00
                                         3.854E+00 0.000E+00 2.318E-01 0.000E+00
                                         1.047E+00 0.000E+00 5.146E-01 0.000E+00
                         776-   778 P  
                                         2.759E-01 0.000E+00 1.000E+00 0.000E+00
                         779-   783 D  
                                         8.000E-01 0.000E+00 0.000E+00 1.000E+00
  74 O   -4.187  -2.740  -4.068
  75 O   -6.892  11.939   4.098
  76 O   -0.279  -4.996  -4.028
  77 O   -6.893 -11.940   4.038
  78 O   -0.279  -0.483  -4.088
  79 O    6.893 -11.938   4.058
  80 O   13.506  -0.482  -4.068
  81 O    6.893  11.940   4.098
  82 O   13.506  -4.995  -4.028
  83 O  -13.787  -0.001   4.038
  84 O   -7.174  11.455  -4.088

 *******************************************************************************
 FINISHED BASIS SET HANDLING 
 *******************************************************************************

 INFORMATION **** SET_MPP **** PCRYSTAL CALCULATION
 INFORMATION **** READM2 **** NEW DEFAULT: FOCK/KS MATRIX MIXING SET TO 30 %
 INFORMATION **** READM2 **** NEW DEFAULT: FULL DIRECT SCF MODE
 INFORMATION **** READM2 **** NEW DEFAULT: COULOMB BIPOLAR BUFFER SET TO 32 Mb
 INFORMATION **** READM2 **** NEW DEFAULT: EXCHANGE BIPOLAR BUFFER SET TO 32 Mb

 *******************************************************************************
 NEW DEFAULT: DFT INTEGRATION GRID INCREASED TO XLGRID
 NEW DEFAULT: DIIS ACCELERATOR ACTIVE
 USE KEYWORD NODIIS TO TURN IT OFF
 *******************************************************************************

 WARNING **** RDDFTP **** HSEsol-HJS ACTIVE
 RANGE SEPARATION - OMEGA:   0.110000000000000     
 WARNING **** RDDFTP **** HSEsol-3c has to be combined with sol-def2-mSVP basis set
 *******************************************************************************
 N. OF ATOMS PER CELL        84  COULOMB OVERLAP TOL         (T1) 10**   -6
 NUMBER OF SHELLS           468  COULOMB PENETRATION TOL     (T2) 10**   -6
 NUMBER OF AO               948  EXCHANGE OVERLAP TOL        (T3) 10**   -6
 N. OF ELECTRONS PER CELL   396  EXCHANGE PSEUDO OVP (F(G))  (T4) 10**   -6
 CORE ELECTRONS PER CELL    120  EXCHANGE PSEUDO OVP (P(G))  (T5) 10**  -12
 N. OF SYMMETRY OPERATORS     1  POLE ORDER IN MONO ZONE                  4
 *******************************************************************************
 TYPE OF CALCULATION :  RESTRICTED CLOSED SHELL
 KOHN-SHAM HAMILTONIAN

 (EXCHANGE)[CORRELATION] FUNCTIONAL:(HSEsol GGA)[PBEsol]

 RANGE-SEPARATED HYBRID FUNCTIONAL 
 OMEGA (SHORT-RANGE)[LONG-RANGE]:(    0.1100)[    0.0000]

 HYBRID EXCHANGE - PERCENTAGE OF FOCK EXCHANGE    25.0000

 CAPPA:IS1  2;IS2  2;IS3  8; K PTS MONK NET  20; SYMMOPS:K SPACE   2;G SPACE   1

 *******************************************************************************
 MAX NUMBER OF SCF CYCLES      50  CONVERGENCE ON DELTAP        10**-16
 WEIGHT OF F(I) IN F(I+1)      30% CONVERGENCE ON ENERGY        10**- 6
 SHRINK. FACT.(MONKH.)    2  2  8  NUMBER OF K POINTS IN THE IBZ     20
 SHRINKING FACTOR(GILAT NET)    8  NUMBER OF K POINTS(GILAT NET)   1028
 *******************************************************************************
 *** K POINTS COORDINATES (OBLIQUE COORDINATES IN UNITS OF IS =  2)
   1-R(  0  0  0)   2-R(  1  0  0)   3-R(  0  1  0)   4-R(  1  1  0)
   5-C(  0  0  1)   6-C(  1  0  1)   7-C(  0  1  1)   8-C(  1  1  1)
   9-C(  0  0  2)  10-C(  1  0  2)  11-C(  0  1  2)  12-C(  1  1  2)
  13-C(  0  0  3)  14-C(  1  0  3)  15-C(  0  1  3)  16-C(  1  1  3)
  17-R(  0  0  4)  18-R(  1  0  4)  19-R(  0  1  4)  20-R(  1  1  4)

 DIRECT LATTICE VECTORS COMPON. (A.U.)     RECIP. LATTICE VECTORS COMPON. (A.U.) 
        X            Y            Z              X            Y            Z
   24.5879030  -14.1935232    0.0000000      0.2555397    0.0000000    0.0000005
    0.0000000   28.3910867    0.0000000      0.1277517    0.2213084    0.0000015
   -0.0000345   -0.0000916   16.2516448      0.0000000    0.0000000    0.3866184

 DISK SPACE FOR EIGENVECTORS (FTN 10)    28758528 REALS

 SYMMETRY ADAPTION OF THE BLOCH FUNCTIONS DISABLED
 TTTTTTTTTTTTTTTTTTTTTTTTTTTTTT gordsh1     TELAPSE        0.06 TCPU        0.05

 MATRIX SIZE: P(G)  560614, F(G)  110201, P(G) IRR  282209, F(G) IRR  111161
 MAX G-VECTOR INDEX FOR 1- AND 2-ELECTRON INTEGRALS  43

 TTTTTTTTTTTTTTTTTTTTTTTTTTTTTT INPUT       TELAPSE        2.77 TCPU        2.77

 NEIGHBORS OF THE NON-EQUIVALENT ATOMS

 N = NUMBER OF NEIGHBORS AT DISTANCE R
    ATOM  N     R/ANG      R/AU   NEIGHBORS (ATOM LABELS AND CELL INDICES)
   1 B    1     1.3791     2.6061   73 O   -1 0 0
   1 B    1     1.3793     2.6065   75 O    0 0 0
   1 B    1     1.5503     2.9297   49 C   -1 0 0
   1 B    1     2.3895     4.5155    5 B    0 1 0
   1 B    1     2.3898     4.5160    3 B    0 0 0
   1 B    1     2.5632     4.8437   51 C    0 0 0

   2 B    1     1.3791     2.6061   74 O    0 0 0
   2 B    1     1.3793     2.6065   76 O    0 0 0
   2 B    1     1.5503     2.9297   50 C    0 0 0
   2 B    1     2.3895     4.5155    6 B    0 0 0
   2 B    1     2.3898     4.5160    4 B    0 0 0
   2 B    1     2.5632     4.8437   52 C    0 0 0

   3 B    1     1.3793     2.6065   77 O    0 1 0
   3 B    1     1.3793     2.6065   75 O    0 0 0
   3 B    1     1.5504     2.9298   37 C    0 0 0
   3 B    1     2.3895     4.5156    5 B    0 1 0
   3 B    1     2.3898     4.5160    1 B    0 0 0
   3 B    1     2.5634     4.8440   43 C    0 1 0

   4 B    1     1.3793     2.6065   78 O    0 0 0
   4 B    1     1.3793     2.6065   76 O    0 0 0
   4 B    1     1.5504     2.9298   38 C    0 0 0
   4 B    1     2.3895     4.5156    6 B    0 0 0
   4 B    1     2.3898     4.5160    2 B    0 0 0
   4 B    1     2.5634     4.8440   44 C    0 0 0

   5 B    1     1.3791     2.6061   73 O   -1-1 0
   5 B    1     1.3793     2.6064   77 O    0 0 0
   5 B    1     1.5502     2.9294   61 C   -1-1 0
   5 B    1     2.3895     4.5155    1 B    0-1 0
   5 B    1     2.3895     4.5156    3 B    0-1 0
   5 B    1     2.5629     4.8433   63 C    0 0 0

   6 B    1     1.3791     2.6061   74 O    0 0 0
   6 B    1     1.3793     2.6064   78 O    0 0 0
   6 B    1     1.5502     2.9294   62 C    0 0 0
   6 B    1     2.3895     4.5155    2 B    0 0 0
   6 B    1     2.3895     4.5156    4 B    0 0 0
   6 B    1     2.5629     4.8433   64 C    0 0 0

   7 B    1     1.3795     2.6068   79 O    0 0 0
   7 B    1     1.3795     2.6070   81 O    0-1 0
   7 B    1     1.5513     2.9316   47 C    0 0 0
   7 B    1     2.3905     4.5174   11 B    0 0 0
   7 B    1     2.3905     4.5175    9 B    0-1 0
   7 B    1     2.5648     4.8468   45 C    0-1 0

   8 B    1     1.3795     2.6068   80 O    0 0 0
   8 B    1     1.3795     2.6070   82 O    0 0 0
   8 B    1     1.5513     2.9316   48 C    0 0 0
   8 B    1     2.3905     4.5174   12 B    0 0 0
   8 B    1     2.3905     4.5175   10 B    1 0 0
   8 B    1     2.5648     4.8468   46 C    0 0 0

   9 B    1     1.3795     2.6069   81 O    0 0 0
   9 B    1     1.3797     2.6072   83 O    1 1 0
   9 B    1     1.5516     2.9322   71 C    0 0 0
   9 B    1     2.3905     4.5175    7 B    0 1 0
   9 B    1     2.3911     4.5185   11 B    0 1 0
   9 B    1     2.5651     4.8473   69 C    1 1 0

  10 B    1     1.3795     2.6069   82 O   -1 0 0
  10 B    1     1.3797     2.6072   84 O    0 0 0
  10 B    1     1.5516     2.9322   72 C    0 0 0
  10 B    1     2.3905     4.5175    8 B   -1 0 0
  10 B    1     2.3911     4.5185   12 B   -1 0 0
  10 B    1     2.5651     4.8473   70 C    0 0 0

  11 B    1     1.3795     2.6068   79 O    0 0 0
  11 B    1     1.3796     2.6071   83 O    1 0 0
  11 B    1     1.5516     2.9322   59 C    0 0 0
  11 B    1     2.3905     4.5174    7 B    0 0 0
  11 B    1     2.3911     4.5185    9 B    0-1 0
  11 B    1     2.5651     4.8473   57 C    1 0 0

  12 B    1     1.3795     2.6068   80 O    0 0 0
  12 B    1     1.3796     2.6071   84 O    1 0 0
  12 B    1     1.5516     2.9322   60 C    1 1 0
  12 B    1     2.3905     4.5174    8 B    0 0 0
  12 B    1     2.3911     4.5185   10 B    1 0 0
  12 B    1     2.5651     4.8473   58 C    1 1 0

  13 H    1     1.0913     2.0623   39 C    0 0 0
  13 H    1     2.1472     4.0576   37 C    0 0 0
  13 H    1     2.1680     4.0969   45 C    0 0 0
  13 H    1     2.5202     4.7625   19 H    0 0 0
  13 H    1     2.5676     4.8520   75 O    0 0 0
  13 H    1     2.7321     5.1630    3 B    0 0 0

  14 H    1     1.0913     2.0623   40 C    0 0 0
  14 H    1     2.1472     4.0576   38 C    0 0 0
  14 H    1     2.1680     4.0969   46 C    0 0 0
  14 H    1     2.5202     4.7625   20 H    0 0 0
  14 H    1     2.5676     4.8520   76 O    0 0 0
  14 H    1     2.7321     5.1630    4 B    0 0 0

  15 H    1     1.0914     2.0625   41 C    0 0 0
  15 H    1     2.1493     4.0616   47 C    0 0 0
  15 H    1     2.1666     4.0942   43 C    0 0 0
  15 H    1     2.5198     4.7618   17 H    0 0 0
  15 H    1     2.5720     4.8604   79 O    0 0 0
  15 H    1     2.7362     5.1707    7 B    0 0 0

  16 H    1     1.0914     2.0625   42 C    0 0 0
  16 H    1     2.1493     4.0616   48 C    0 0 0
  16 H    1     2.1666     4.0942   44 C    0 0 0
  16 H    1     2.5198     4.7618   18 H    0 0 0
  16 H    1     2.5720     4.8604   80 O    0 0 0
  16 H    1     2.7362     5.1707    8 B    0 0 0

  17 H    1     1.0914     2.0624   43 C    0 0 0
  17 H    1     2.1471     4.0575   37 C    0-1 0
  17 H    1     2.1680     4.0970   41 C    0 0 0
  17 H    1     2.5198     4.7618   15 H    0 0 0
  17 H    1     2.5665     4.8500   77 O    0 0 0
  17 H    1     2.7315     5.1618    3 B    0-1 0

  18 H    1     1.0914     2.0624   44 C    0 0 0
  18 H    1     2.1471     4.0575   38 C    0 0 0
  18 H    1     2.1680     4.0970   42 C    0 0 0
  18 H    1     2.5198     4.7618   16 H    0 0 0
  18 H    1     2.5665     4.8500   78 O    0 0 0
  18 H    1     2.7315     5.1618    4 B    0 0 0

  19 H    1     1.0915     2.0626   45 C    0 0 0
  19 H    1     2.1490     4.0610   47 C    0 1 0
  19 H    1     2.1669     4.0948   39 C    0 0 0
  19 H    1     2.5202     4.7625   13 H    0 0 0
  19 H    1     2.5712     4.8588   81 O    0 0 0
  19 H    1     2.7351     5.1686    7 B    0 1 0

  20 H    1     1.0915     2.0626   46 C    0 0 0
  20 H    1     2.1490     4.0610   48 C    0 0 0
  20 H    1     2.1669     4.0948   40 C    0 0 0
  20 H    1     2.5202     4.7625   14 H    0 0 0
  20 H    1     2.5712     4.8588   82 O    0 0 0
  20 H    1     2.7351     5.1686    8 B    0 0 0

  21 H    1     1.0913     2.0623   51 C    0 0 0
  21 H    1     2.1469     4.0571   49 C   -1 0 0
  21 H    1     2.1680     4.0968   57 C    0 0 0
  21 H    1     2.5198     4.7617   27 H    0 0 0
  21 H    1     2.5670     4.8510   75 O    0 0 0
  21 H    1     2.7310     5.1609    1 B    0 0 0

  22 H    1     1.0913     2.0623   52 C    0 0 0
  22 H    1     2.1469     4.0571   50 C    0 0 0
  22 H    1     2.1680     4.0968   58 C    0 0 0
  22 H    1     2.5198     4.7617   28 H    0 0 0
  22 H    1     2.5670     4.8510   76 O    0 0 0
  22 H    1     2.7310     5.1609    2 B    0 0 0

  23 H    1     1.0914     2.0625   53 C    0 0 0
  23 H    1     2.1493     4.0617   59 C    0 0 0
  23 H    1     2.1664     4.0939   55 C    0 0 0
  23 H    1     2.5192     4.7606   25 H    0 0 0
  23 H    1     2.5735     4.8632   79 O    0 0 0
  23 H    1     2.7371     5.1723   11 B    0 0 0

  24 H    1     1.0914     2.0625   54 C    0 0 0
  24 H    1     2.1493     4.0617   60 C    0 0 0
  24 H    1     2.1664     4.0939   56 C    0 0 0
  24 H    1     2.5192     4.7606   26 H    0 0 0
  24 H    1     2.5735     4.8632   80 O   -1-1 0
  24 H    1     2.7371     5.1723   12 B   -1-1 0

  25 H    1     1.0914     2.0624   55 C    0 0 0
  25 H    1     2.1475     4.0581   49 C    0 0 0
  25 H    1     2.1679     4.0967   53 C    0 0 0
  25 H    1     2.5192     4.7606   23 H    0 0 0
  25 H    1     2.5675     4.8519   73 O    0 0 0
  25 H    1     2.7328     5.1643    1 B    1 0 0

  26 H    1     1.0914     2.0624   56 C    0 0 0
  26 H    1     2.1475     4.0581   50 C    0 0 0
  26 H    1     2.1679     4.0967   54 C    0 0 0
  26 H    1     2.5192     4.7606   24 H    0 0 0
  26 H    1     2.5675     4.8519   74 O    0 0 0
  26 H    1     2.7328     5.1643    2 B    0 0 0

  27 H    1     1.0914     2.0625   57 C    0 0 0
  27 H    1     2.1491     4.0612   59 C   -1 0 0
  27 H    1     2.1666     4.0942   51 C    0 0 0
  27 H    1     2.5198     4.7617   21 H    0 0 0
  27 H    1     2.5723     4.8609   83 O    0 0 0
  27 H    1     2.7355     5.1693   11 B   -1 0 0

  28 H    1     1.0914     2.0625   58 C    0 0 0
  28 H    1     2.1491     4.0612   60 C    0 0 0
  28 H    1     2.1666     4.0942   52 C    0 0 0
  28 H    1     2.5198     4.7617   22 H    0 0 0
  28 H    1     2.5723     4.8609   84 O    0-1 0
  28 H    1     2.7355     5.1693   12 B   -1-1 0

  29 H    1     1.0914     2.0624   63 C    0 0 0
  29 H    1     2.1475     4.0582   61 C   -1-1 0
  29 H    1     2.1678     4.0966   69 C    0 0 0
  29 H    1     2.5200     4.7621   35 H    0 0 0
  29 H    1     2.5667     4.8503   77 O    0 0 0
  29 H    1     2.7315     5.1618    5 B    0 0 0

  30 H    1     1.0914     2.0624   64 C    0 0 0
  30 H    1     2.1475     4.0582   62 C    0 0 0
  30 H    1     2.1678     4.0966   70 C    0 0 0
  30 H    1     2.5200     4.7621   36 H    0 0 0
  30 H    1     2.5667     4.8503   78 O    0 0 0
  30 H    1     2.7315     5.1618    6 B    0 0 0

  31 H    1     1.0913     2.0623   65 C    0 0 0
  31 H    1     2.1487     4.0605   71 C    0 0 0
  31 H    1     2.1667     4.0945   67 C    0 0 0
  31 H    1     2.5197     4.7616   33 H    0 0 0
  31 H    1     2.5723     4.8610   81 O    0 0 0
  31 H    1     2.7359     5.1701    9 B    0 0 0

  32 H    1     1.0913     2.0623   66 C    0 0 0
  32 H    1     2.1487     4.0605   72 C    0 0 0
  32 H    1     2.1667     4.0945   68 C    0 0 0
  32 H    1     2.5197     4.7616   34 H    0 0 0
  32 H    1     2.5723     4.8610   82 O   -1 0 0
  32 H    1     2.7359     5.1701   10 B    0 0 0

  33 H    1     1.0915     2.0626   67 C    0 0 0
  33 H    1     2.1479     4.0589   61 C    0 0 0
  33 H    1     2.1679     4.0968   65 C    0 0 0
  33 H    1     2.5197     4.7616   31 H    0 0 0
  33 H    1     2.5677     4.8522   73 O    0 0 0
  33 H    1     2.7331     5.1648    5 B    1 1 0

  34 H    1     1.0915     2.0626   68 C    0 0 0
  34 H    1     2.1479     4.0589   62 C    0 0 0
  34 H    1     2.1679     4.0968   66 C    0 0 0
  34 H    1     2.5197     4.7616   32 H    0 0 0
  34 H    1     2.5677     4.8522   74 O    0 0 0
  34 H    1     2.7331     5.1648    6 B    0 0 0

  35 H    1     1.0914     2.0624   69 C    0 0 0
  35 H    1     2.1486     4.0602   71 C   -1-1 0
  35 H    1     2.1668     4.0947   63 C    0 0 0
  35 H    1     2.5200     4.7621   29 H    0 0 0
  35 H    1     2.5717     4.8598   83 O    0 0 0
  35 H    1     2.7349     5.1682    9 B   -1-1 0

  36 H    1     1.0914     2.0624   70 C    0 0 0
  36 H    1     2.1486     4.0602   72 C    0 0 0
  36 H    1     2.1668     4.0947   64 C    0 0 0
  36 H    1     2.5200     4.7621   30 H    0 0 0
  36 H    1     2.5717     4.8598   84 O    0 0 0
  36 H    1     2.7349     5.1682   10 B    0 0 0

  37 C    1     1.4020     2.6495   43 C    0 1 0
  37 C    1     1.4021     2.6495   39 C    0 0 0
  37 C    1     1.5504     2.9298    3 B    0 0 0
  37 C    1     2.1471     4.0575   17 H    0 1 0
  37 C    1     2.1472     4.0576   13 H    0 0 0
  37 C    1     2.4246     4.5817   41 C    0 1 0

  38 C    1     1.4020     2.6495   44 C    0 0 0
  38 C    1     1.4021     2.6495   40 C    0 0 0
  38 C    1     1.5504     2.9298    4 B    0 0 0
  38 C    1     2.1471     4.0575   18 H    0 0 0
  38 C    1     2.1472     4.0576   14 H    0 0 0
  38 C    1     2.4246     4.5817   42 C    0 0 0

  39 C    1     1.0913     2.0623   13 H    0 0 0
  39 C    1     1.3914     2.6294   45 C    0 0 0
  39 C    1     1.4021     2.6495   37 C    0 0 0
  39 C    1     2.1669     4.0948   19 H    0 0 0
  39 C    1     2.4177     4.5688   43 C    0 1 0
  39 C    1     2.4250     4.5825   47 C    0 1 0

  40 C    1     1.0913     2.0623   14 H    0 0 0
  40 C    1     1.3914     2.6294   46 C    0 0 0
  40 C    1     1.4021     2.6495   38 C    0 0 0
  40 C    1     2.1669     4.0948   20 H    0 0 0
  40 C    1     2.4177     4.5688   44 C    0 0 0
  40 C    1     2.4250     4.5825   48 C    0 0 0

  41 C    1     1.0914     2.0625   15 H    0 0 0
  41 C    1     1.3914     2.6293   43 C    0 0 0
  41 C    1     1.4026     2.6505   47 C    0 0 0
  41 C    1     2.1680     4.0970   17 H    0 0 0
  41 C    1     2.4182     4.5697   45 C    0-1 0
  41 C    1     2.4246     4.5817   37 C    0-1 0

  42 C    1     1.0914     2.0625   16 H    0 0 0
  42 C    1     1.3914     2.6293   44 C    0 0 0
  42 C    1     1.4026     2.6505   48 C    0 0 0
  42 C    1     2.1680     4.0970   18 H    0 0 0
  42 C    1     2.4182     4.5697   46 C    0 0 0
  42 C    1     2.4246     4.5817   38 C    0 0 0

  43 C    1     1.0914     2.0624   17 H    0 0 0
  43 C    1     1.3914     2.6293   41 C    0 0 0
  43 C    1     1.4020     2.6495   37 C    0-1 0
  43 C    1     2.1666     4.0942   15 H    0 0 0
  43 C    1     2.4177     4.5688   39 C    0-1 0
  43 C    1     2.4250     4.5826   47 C    0 0 0

  44 C    1     1.0914     2.0624   18 H    0 0 0
  44 C    1     1.3914     2.6293   42 C    0 0 0
  44 C    1     1.4020     2.6495   38 C    0 0 0
  44 C    1     2.1666     4.0942   16 H    0 0 0
  44 C    1     2.4177     4.5688   40 C    0 0 0
  44 C    1     2.4250     4.5826   48 C    0 0 0

  45 C    1     1.0915     2.0626   19 H    0 0 0
  45 C    1     1.3914     2.6294   39 C    0 0 0
  45 C    1     1.4025     2.6504   47 C    0 1 0
  45 C    1     2.1680     4.0969   13 H    0 0 0
  45 C    1     2.4182     4.5697   41 C    0 1 0
  45 C    1     2.4246     4.5818   37 C    0 0 0

  46 C    1     1.0915     2.0626   20 H    0 0 0
  46 C    1     1.3914     2.6294   40 C    0 0 0
  46 C    1     1.4025     2.6504   48 C    0 0 0
  46 C    1     2.1680     4.0969   14 H    0 0 0
  46 C    1     2.4182     4.5697   42 C    0 0 0
  46 C    1     2.4246     4.5818   38 C    0 0 0

  47 C    1     1.4025     2.6504   45 C    0-1 0
  47 C    1     1.4026     2.6505   41 C    0 0 0
  47 C    1     1.5513     2.9316    7 B    0 0 0
  47 C    1     2.1490     4.0610   19 H    0-1 0
  47 C    1     2.1493     4.0616   15 H    0 0 0
  47 C    1     2.4250     4.5825   39 C    0-1 0

  48 C    1     1.4025     2.6504   46 C    0 0 0
  48 C    1     1.4026     2.6505   42 C    0 0 0
  48 C    1     1.5513     2.9316    8 B    0 0 0
  48 C    1     2.1490     4.0610   20 H    0 0 0
  48 C    1     2.1493     4.0616   16 H    0 0 0
  48 C    1     2.4250     4.5825   40 C    0 0 0

  49 C    1     1.4020     2.6494   51 C    1 0 0
  49 C    1     1.4021     2.6495   55 C    0 0 0
  49 C    1     1.5503     2.9297    1 B    1 0 0
  49 C    1     2.1469     4.0571   21 H    1 0 0
  49 C    1     2.1475     4.0581   25 H    0 0 0
  49 C    1     2.4246     4.5818   53 C    0 0 0

  50 C    1     1.4020     2.6494   52 C    0 0 0
  50 C    1     1.4021     2.6495   56 C    0 0 0
  50 C    1     1.5503     2.9297    2 B    0 0 0
  50 C    1     2.1469     4.0571   22 H    0 0 0
  50 C    1     2.1475     4.0581   26 H    0 0 0
  50 C    1     2.4246     4.5818   54 C    0 0 0

  51 C    1     1.0913     2.0623   21 H    0 0 0
  51 C    1     1.3914     2.6293   57 C    0 0 0
  51 C    1     1.4020     2.6494   49 C   -1 0 0
  51 C    1     2.1666     4.0942   27 H    0 0 0
  51 C    1     2.4175     4.5684   55 C   -1 0 0
  51 C    1     2.4251     4.5828   59 C   -1 0 0

  52 C    1     1.0913     2.0623   22 H    0 0 0
  52 C    1     1.3914     2.6293   58 C    0 0 0
  52 C    1     1.4020     2.6494   50 C    0 0 0
  52 C    1     2.1666     4.0942   28 H    0 0 0
  52 C    1     2.4175     4.5684   56 C    0 0 0
  52 C    1     2.4251     4.5828   60 C    0 0 0

  53 C    1     1.0914     2.0625   23 H    0 0 0
  53 C    1     1.3915     2.6295   55 C    0 0 0
  53 C    1     1.4026     2.6505   59 C    0 0 0
  53 C    1     2.1679     4.0967   25 H    0 0 0
  53 C    1     2.4179     4.5691   57 C    1 0 0
  53 C    1     2.4246     4.5818   49 C    0 0 0

  54 C    1     1.0914     2.0625   24 H    0 0 0
  54 C    1     1.3915     2.6295   56 C    0 0 0
  54 C    1     1.4026     2.6505   60 C    0 0 0
  54 C    1     2.1679     4.0967   26 H    0 0 0
  54 C    1     2.4179     4.5691   58 C    0 0 0
  54 C    1     2.4246     4.5818   50 C    0 0 0

  55 C    1     1.0914     2.0624   25 H    0 0 0
  55 C    1     1.3915     2.6295   53 C    0 0 0
  55 C    1     1.4021     2.6495   49 C    0 0 0
  55 C    1     2.1664     4.0939   23 H    0 0 0
  55 C    1     2.4175     4.5684   51 C    1 0 0
  55 C    1     2.4253     4.5832   59 C    0 0 0

  56 C    1     1.0914     2.0624   26 H    0 0 0
  56 C    1     1.3915     2.6295   54 C    0 0 0
  56 C    1     1.4021     2.6495   50 C    0 0 0
  56 C    1     2.1664     4.0939   24 H    0 0 0
  56 C    1     2.4175     4.5684   52 C    0 0 0
  56 C    1     2.4253     4.5832   60 C    0 0 0

  57 C    1     1.0914     2.0625   27 H    0 0 0
  57 C    1     1.3914     2.6293   51 C    0 0 0
  57 C    1     1.4025     2.6504   59 C   -1 0 0
  57 C    1     2.1680     4.0968   21 H    0 0 0
  57 C    1     2.4179     4.5691   53 C   -1 0 0
  57 C    1     2.4247     4.5819   49 C   -1 0 0

  58 C    1     1.0914     2.0625   28 H    0 0 0
  58 C    1     1.3914     2.6293   52 C    0 0 0
  58 C    1     1.4025     2.6504   60 C    0 0 0
  58 C    1     2.1680     4.0968   22 H    0 0 0
  58 C    1     2.4179     4.5691   54 C    0 0 0
  58 C    1     2.4247     4.5819   50 C    0 0 0

  59 C    1     1.4025     2.6504   57 C    1 0 0
  59 C    1     1.4026     2.6505   53 C    0 0 0
  59 C    1     1.5516     2.9322   11 B    0 0 0
  59 C    1     2.1491     4.0612   27 H    1 0 0
  59 C    1     2.1493     4.0617   23 H    0 0 0
  59 C    1     2.4251     4.5828   51 C    1 0 0

  60 C    1     1.4025     2.6504   58 C    0 0 0
  60 C    1     1.4026     2.6505   54 C    0 0 0
  60 C    1     1.5516     2.9322   12 B   -1-1 0
  60 C    1     2.1491     4.0612   28 H    0 0 0
  60 C    1     2.1493     4.0617   24 H    0 0 0
  60 C    1     2.4251     4.5828   52 C    0 0 0

  61 C    1     1.4021     2.6496   63 C    1 1 0
  61 C    1     1.4021     2.6497   67 C    0 0 0
  61 C    1     1.5502     2.9294    5 B    1 1 0
  61 C    1     2.1475     4.0582   29 H    1 1 0
  61 C    1     2.1479     4.0589   33 H    0 0 0
  61 C    1     2.4244     4.5814   65 C    0 0 0

  62 C    1     1.4021     2.6496   64 C    0 0 0
  62 C    1     1.4021     2.6497   68 C    0 0 0
  62 C    1     1.5502     2.9294    6 B    0 0 0
  62 C    1     2.1475     4.0582   30 H    0 0 0
  62 C    1     2.1479     4.0589   34 H    0 0 0
  62 C    1     2.4244     4.5814   66 C    0 0 0

  63 C    1     1.0914     2.0624   29 H    0 0 0
  63 C    1     1.3914     2.6293   69 C    0 0 0
  63 C    1     1.4021     2.6496   61 C   -1-1 0
  63 C    1     2.1668     4.0947   35 H    0 0 0
  63 C    1     2.4179     4.5692   67 C   -1-1 0
  63 C    1     2.4251     4.5827   71 C   -1-1 0

  64 C    1     1.0914     2.0624   30 H    0 0 0
  64 C    1     1.3914     2.6293   70 C    0 0 0
  64 C    1     1.4021     2.6496   62 C    0 0 0
  64 C    1     2.1668     4.0947   36 H    0 0 0
  64 C    1     2.4179     4.5692   68 C    0 0 0
  64 C    1     2.4251     4.5827   72 C    0 0 0

  65 C    1     1.0913     2.0623   31 H    0 0 0
  65 C    1     1.3914     2.6294   67 C    0 0 0
  65 C    1     1.4025     2.6504   71 C    0 0 0
  65 C    1     2.1679     4.0968   33 H    0 0 0
  65 C    1     2.4178     4.5690   69 C    1 1 0
  65 C    1     2.4244     4.5814   61 C    0 0 0

  66 C    1     1.0913     2.0623   32 H    0 0 0
  66 C    1     1.3914     2.6294   68 C    0 0 0
  66 C    1     1.4025     2.6504   72 C    0 0 0
  66 C    1     2.1679     4.0968   34 H    0 0 0
  66 C    1     2.4178     4.5690   70 C    0 0 0
  66 C    1     2.4244     4.5814   62 C    0 0 0

  67 C    1     1.0915     2.0626   33 H    0 0 0
  67 C    1     1.3914     2.6294   65 C    0 0 0
  67 C    1     1.4021     2.6497   61 C    0 0 0
  67 C    1     2.1667     4.0945   31 H    0 0 0
  67 C    1     2.4179     4.5692   63 C    1 1 0
  67 C    1     2.4253     4.5832   71 C    0 0 0

  68 C    1     1.0915     2.0626   34 H    0 0 0
  68 C    1     1.3914     2.6294   66 C    0 0 0
  68 C    1     1.4021     2.6497   62 C    0 0 0
  68 C    1     2.1667     4.0945   32 H    0 0 0
  68 C    1     2.4179     4.5692   64 C    0 0 0
  68 C    1     2.4253     4.5832   72 C    0 0 0

  69 C    1     1.0914     2.0624   35 H    0 0 0
  69 C    1     1.3914     2.6293   63 C    0 0 0
  69 C    1     1.4025     2.6503   71 C   -1-1 0
  69 C    1     2.1678     4.0966   29 H    0 0 0
  69 C    1     2.4178     4.5690   65 C   -1-1 0
  69 C    1     2.4245     4.5817   61 C   -1-1 0

  70 C    1     1.0914     2.0624   36 H    0 0 0
  70 C    1     1.3914     2.6293   64 C    0 0 0
  70 C    1     1.4025     2.6503   72 C    0 0 0
  70 C    1     2.1678     4.0966   30 H    0 0 0
  70 C    1     2.4178     4.5690   66 C    0 0 0
  70 C    1     2.4245     4.5817   62 C    0 0 0

  71 C    1     1.4025     2.6503   69 C    1 1 0
  71 C    1     1.4025     2.6504   65 C    0 0 0
  71 C    1     1.5516     2.9322    9 B    0 0 0
  71 C    1     2.1486     4.0602   35 H    1 1 0
  71 C    1     2.1487     4.0605   31 H    0 0 0
  71 C    1     2.4251     4.5827   63 C    1 1 0

  72 C    1     1.4025     2.6503   70 C    0 0 0
  72 C    1     1.4025     2.6504   66 C    0 0 0
  72 C    1     1.5516     2.9322   10 B    0 0 0
  72 C    1     2.1486     4.0602   36 H    0 0 0
  72 C    1     2.1487     4.0605   32 H    0 0 0
  72 C    1     2.4251     4.5827   64 C    0 0 0

  73 O    1     1.3791     2.6061    1 B    1 0 0
  73 O    1     1.3791     2.6061    5 B    1 1 0
  73 O    1     2.3880     4.5126   75 O    1 0 0
  73 O    1     2.3882     4.5130   77 O    1 1 0
  73 O    1     2.5383     4.7966   61 C    0 0 0
  73 O    1     2.5384     4.7968   49 C    0 0 0

  74 O    1     1.3791     2.6061    2 B    0 0 0
  74 O    1     1.3791     2.6061    6 B    0 0 0
  74 O    1     2.3880     4.5126   76 O    0 0 0
  74 O    1     2.3882     4.5130   78 O    0 0 0
  74 O    1     2.5383     4.7966   62 C    0 0 0
  74 O    1     2.5384     4.7968   50 C    0 0 0

  75 O    1     1.3793     2.6065    1 B    0 0 0
  75 O    1     1.3793     2.6065    3 B    0 0 0
  75 O    1     2.3880     4.5126   73 O   -1 0 0
  75 O    1     2.3882     4.5131   77 O    0 1 0
  75 O    1     2.5391     4.7981   37 C    0 0 0
  75 O    1     2.5395     4.7990   49 C   -1 0 0

  76 O    1     1.3793     2.6065    2 B    0 0 0
  76 O    1     1.3793     2.6065    4 B    0 0 0
  76 O    1     2.3880     4.5126   74 O    0 0 0
  76 O    1     2.3882     4.5131   78 O    0 0 0
  76 O    1     2.5391     4.7981   38 C    0 0 0
  76 O    1     2.5395     4.7990   50 C    0 0 0

  77 O    1     1.3793     2.6064    5 B    0 0 0
  77 O    1     1.3793     2.6065    3 B    0-1 0
  77 O    1     2.3882     4.5130   73 O   -1-1 0
  77 O    1     2.3882     4.5131   75 O    0-1 0
  77 O    1     2.5390     4.7980   37 C    0-1 0
  77 O    1     2.5391     4.7982   61 C   -1-1 0

  78 O    1     1.3793     2.6064    6 B    0 0 0
  78 O    1     1.3793     2.6065    4 B    0 0 0
  78 O    1     2.3882     4.5130   74 O    0 0 0
  78 O    1     2.3882     4.5131   76 O    0 0 0
  78 O    1     2.5390     4.7980   38 C    0 0 0
  78 O    1     2.5391     4.7982   62 C    0 0 0

  79 O    1     1.3795     2.6068   11 B    0 0 0
  79 O    1     1.3795     2.6068    7 B    0 0 0
  79 O    1     2.3880     4.5126   83 O    1 0 0
  79 O    1     2.3884     4.5134   81 O    0-1 0
  79 O    1     2.5400     4.7998   47 C    0 0 0
  79 O    1     2.5403     4.8005   59 C    0 0 0

  80 O    1     1.3795     2.6068   12 B    0 0 0
  80 O    1     1.3795     2.6068    8 B    0 0 0
  80 O    1     2.3880     4.5126   84 O    1 0 0
  80 O    1     2.3884     4.5134   82 O    0 0 0
  80 O    1     2.5400     4.7998   48 C    0 0 0
  80 O    1     2.5403     4.8005   60 C    1 1 0

  81 O    1     1.3795     2.6069    9 B    0 0 0
  81 O    1     1.3795     2.6070    7 B    0 1 0
  81 O    1     2.3881     4.5128   83 O    1 1 0
  81 O    1     2.3884     4.5134   79 O    0 1 0
  81 O    1     2.5404     4.8006   47 C    0 1 0
  81 O    1     2.5405     4.8008   71 C    0 0 0

  82 O    1     1.3795     2.6069   10 B    1 0 0
  82 O    1     1.3795     2.6070    8 B    0 0 0
  82 O    1     2.3881     4.5128   84 O    1 0 0
  82 O    1     2.3884     4.5134   80 O    0 0 0
  82 O    1     2.5404     4.8006   48 C    0 0 0
  82 O    1     2.5405     4.8008   72 C    1 0 0

  83 O    1     1.3796     2.6071   11 B   -1 0 0
  83 O    1     1.3797     2.6072    9 B   -1-1 0
  83 O    1     2.3880     4.5126   79 O   -1 0 0
  83 O    1     2.3881     4.5128   81 O   -1-1 0
  83 O    1     2.5409     4.8016   71 C   -1-1 0
  83 O    1     2.5410     4.8019   59 C   -1 0 0

  84 O    1     1.3796     2.6071   12 B   -1 0 0
  84 O    1     1.3797     2.6072   10 B    0 0 0
  84 O    1     2.3880     4.5126   80 O   -1 0 0
  84 O    1     2.3881     4.5128   82 O   -1 0 0
  84 O    1     2.5409     4.8016   72 C    0 0 0
  84 O    1     2.5410     4.8019   60 C    0 1 0


 SYMMETRY ALLOWED INTERNAL DEGREE(S) OF FREEDOM: 249
 TTTTTTTTTTTTTTTTTTTTTTTTTTTTTT SYMM        TELAPSE        2.78 TCPU        2.78
 TTTTTTTTTTTTTTTTTTTTTTTTTTTTTT INT_SCREEN  TELAPSE        2.98 TCPU        2.97

 DFT PARAMETERS

     ATOM       ELECTRONS   NET CHARGE   R(ANGSTROM)
   1   5  B       5.0000      0.0000     0.89000000
  13   1  H       1.0000      0.0000     1.11000000
  37   6  C       6.0000      0.0000     0.77000000
  73   8  O       8.0000      0.0000     0.74000000

 SIZE OF GRID=    2675867
 TTTTTTTTTTTTTTTTTTTTTTTTTTTTTT MAKE_GRID2  TELAPSE       18.65 TCPU       18.62
 BECKE WEIGHT FUNCTION
 RADSAFE =     2.00
 TOLERANCES - DENSITY:10**- 6; POTENTIAL:10**- 9; GRID WGT:10**-14

 RADIAL INTEGRATION  - INTERVALS (POINTS,UPPER LIMIT):            1( 75,  4.0*R)

 ANGULAR INTEGRATION - INTERVALS (ACCURACY LEVEL [N. POINTS] UPPER LIMIT):
  1(  4[  86]   0.2)  2(  8[ 194]   0.5)  3( 12[ 350]   0.9)  4( 16[ 974]   3.5)
  5( 12[ 350]9999.0)
 TTTTTTTTTTTTTTTTTTTTTTTTTTTTTT INT_CALC    TELAPSE       18.95 TCPU       18.92
 EEEEEEEEEE INT_CALC TERMINATION  DATE 19 02 2026 TIME 20:28:39.9

 *******************************************************************************
 cof-1_z43_L070_serr                                                             
 CRYSTAL - SCF - TYPE OF CALCULATION :  RESTRICTED CLOSED SHELL
 *******************************************************************************

 CAPPA:IS1  2;IS2  2;IS3  8; K PTS MONK NET  20; SYMMOPS:K SPACE   2;G SPACE   1

 TTTTTTTTTTTTTTTTTTTTTTTTTTTTTT SDIK        TELAPSE       21.40 TCPU       37.67

 AAAAAAAAAAAAAAAAAAAAAAAAAAAAAAAAAAAAAAAAAAAAAAAAAAAAAAAAAAAAAAAAAAAAAAAAAAAAAAA
         ATOMIC WAVEFUNCTION(S)


 NUCLEAR CHARGE  5.0  SYMMETRY SPECIES            S    P
 N. ELECTRONS    5.0  NUMBER OF PRIMITIVE GTOS    8    4
                      NUMBER OF CONTRACTED GTOS   4    2
                      NUMBER OF CLOSED SHELLS     2    0
                      OPEN SHELL OCCUPATION       0    1

  ZNUC  SCFIT    TOTAL HF ENERGY   KINETIC ENERGY   VIRIAL THEOREM ACCURACY
   5.0    11    -2.451164084E+01  2.462155050E+01 -1.995536038E+00  1.5E-06

 NUCLEAR CHARGE  1.0  SYMMETRY SPECIES            S
 N. ELECTRONS    1.0  NUMBER OF PRIMITIVE GTOS    4
                      NUMBER OF CONTRACTED GTOS   2
                      NUMBER OF CLOSED SHELLS     0
                      OPEN SHELL OCCUPATION       1

  ZNUC  SCFIT    TOTAL HF ENERGY   KINETIC ENERGY   VIRIAL THEOREM ACCURACY
   1.0     1    -4.977266687E-01  5.190767460E-01 -1.958869132E+00  0.0E+00

 NUCLEAR CHARGE  6.0  SYMMETRY SPECIES            S    P
 N. ELECTRONS    6.0  NUMBER OF PRIMITIVE GTOS    8    4
                      NUMBER OF CONTRACTED GTOS   4    2
                      NUMBER OF CLOSED SHELLS     2    0
                      OPEN SHELL OCCUPATION       0    2

  ZNUC  SCFIT    TOTAL HF ENERGY   KINETIC ENERGY   VIRIAL THEOREM ACCURACY
   6.0     9    -3.766704647E+01  3.775180683E+01 -1.997754800E+00  1.1E-06

 NUCLEAR CHARGE  8.0  SYMMETRY SPECIES            S    P
 N. ELECTRONS    8.0  NUMBER OF PRIMITIVE GTOS    8    4
                      NUMBER OF CONTRACTED GTOS   4    2
                      NUMBER OF CLOSED SHELLS     2    0
                      OPEN SHELL OCCUPATION       0    4

  ZNUC  SCFIT    TOTAL HF ENERGY   KINETIC ENERGY   VIRIAL THEOREM ACCURACY
   8.0    12    -7.477373220E+01  7.477365593E+01 -2.000001020E+00  3.8E-06

 AAAAAAAAAAAAAAAAAAAAAAAAAAAAAAAAAAAAAAAAAAAAAAAAAAAAAAAAAAAAAAAAAAAAAAAAAAAAAAA

 CHARGE NORMALIZATION FACTOR   1.00000000
 TOTAL ATOMIC CHARGES:
   5.0000000   5.0000000   5.0000000   5.0000000   5.0000000   5.0000000
   5.0000000   5.0000000   5.0000000   5.0000000   5.0000000   5.0000000
   1.0000000   1.0000000   1.0000000   1.0000000   1.0000000   1.0000000
   1.0000000   1.0000000   1.0000000   1.0000000   1.0000000   1.0000000
   1.0000000   1.0000000   1.0000000   1.0000000   1.0000000   1.0000000
   1.0000000   1.0000000   1.0000000   1.0000000   1.0000000   1.0000000
   6.0000000   6.0000000   6.0000000   6.0000000   6.0000000   6.0000000
   6.0000000   6.0000000   6.0000000   6.0000000   6.0000000   6.0000000
   6.0000000   6.0000000   6.0000000   6.0000000   6.0000000   6.0000000
   6.0000000   6.0000000   6.0000000   6.0000000   6.0000000   6.0000000
   6.0000000   6.0000000   6.0000000   6.0000000   6.0000000   6.0000000
   6.0000000   6.0000000   6.0000000   6.0000000   6.0000000   6.0000000
   8.0000000   8.0000000   8.0000000   8.0000000   8.0000000   8.0000000
   8.0000000   8.0000000   8.0000000   8.0000000   8.0000000   8.0000000
 TTTTTTTTTTTTTTTTTTTTTTTTTTTTTT MOQGAD      TELAPSE       21.50 TCPU       39.28
 TTTTTTTTTTTTTTTTTTTTTTTTTTTTTT SHELLXN     TELAPSE       36.05 TCPU      435.04
 TTTTTTTTTTTTTTTTTTTTTTTTTTTTTT MONMO3      TELAPSE       36.58 TCPU      451.92
 NUMERICALLY INTEGRATED DENSITY    395.9999734927
 TTTTTTTTTTTTTTTTTTTTTTTTTTTTTT NUMDFT      TELAPSE       38.02 TCPU      497.98
 CYC   0 ETOT(AU) -2.591908390886E+03 DETOT -2.59E+03 tst  0.00E+00 PX  1.00E+00
 TTTTTTTTTTTTTTTTTTTTTTTTTTTTTT DIIS        TELAPSE       38.12 TCPU      501.24
 TTTTTTTTTTTTTTTTTTTTTTTTTTTTTT FDIK        TELAPSE       40.12 TCPU      565.08
 INSULATING STATE
 TOP OF VALENCE BANDS -    BAND    198; K    2; EIG -3.1366361E-01 AU
 TOP OF VALENCE BANDS -    BAND    198; K    1; EIG -3.1379310E-01 AU
 BOTTOM OF VIRTUAL BANDS - BAND    199; K    1; EIG -1.5619622E-01 AU
 INDIRECT ENERGY BAND GAP:   4.2849 eV
 TTTTTTTTTTTTTTTTTTTTTTTTTTTTTT PDIG        TELAPSE       41.97 TCPU      571.83
 CHARGE NORMALIZATION FACTOR   1.00000000
 TOTAL ATOMIC CHARGES:
   4.1550791   4.1661983   4.1659892   4.1659948   4.1662220   4.1662416
   4.1658258   4.1658157   4.1656007   4.1655963   4.1658083   4.1547268
   0.7851404   0.7850549   0.7851705   0.7852562   0.7851244   0.7849948
   0.7851143   0.7852442   0.7854657   0.7850686   0.7852360   0.7856298
   0.7854557   0.7850588   0.7851988   0.7855936   0.7851265   0.7849972
   0.7851791   0.7853086   0.7850921   0.7850064   0.7851634   0.7852489
   6.0429498   6.0430229   6.2654384   6.2650988   6.2650630   6.2654006
   6.2653487   6.2649327   6.2648751   6.2652928   6.0423020   6.0422206
   6.0460507   6.0425834   6.2657357   6.2646265   6.2647037   6.2658120
   6.2656422   6.2645332   6.2647207   6.2658193   6.0413845   6.0448317
   6.0433075   6.0433792   6.2651167   6.2647022   6.2652458   6.2656626
   6.2650723   6.2647283   6.2653408   6.2656784   6.0418400   6.0417556
   8.6931397   8.6907637   8.6932560   8.6908716   8.6926921   8.6908274
   8.6911913   8.6935724   8.6912330   8.6930954   8.6913683   8.6937432
 TTTTTTTTTTTTTTTTTTTTTTTTTTTTTT MOQGAD      TELAPSE       42.07 TCPU      571.93
 TTTTTTTTTTTTTTTTTTTTTTTTTTTTTT SHELLXN     TELAPSE       55.00 TCPU      984.01
 TTTTTTTTTTTTTTTTTTTTTTTTTTTTTT MONMO3      TELAPSE       55.52 TCPU     1000.87
 NUMERICALLY INTEGRATED DENSITY    395.9999979360
 TTTTTTTTTTTTTTTTTTTTTTTTTTTTTT NUMDFT      TELAPSE       56.99 TCPU     1047.56
 CYC   1 ETOT(AU) -2.577620369071E+03 DETOT  1.43E+01 tst  0.00E+00 PX  1.00E+00
 TTTTTTTTTTTTTTTTTTTTTTTTTTTTTT DIIS        TELAPSE       57.13 TCPU     1052.06
 DIIS TEST: 0.22309E+01 AT SCF   CYCLE   1 - MIX   30 %
 TTTTTTTTTTTTTTTTTTTTTTTTTTTTTT FDIK        TELAPSE       59.15 TCPU     1116.85
 INSULATING STATE
 TOP OF VALENCE BANDS -    BAND    198; K    4; EIG -2.2465249E-01 AU
 TOP OF VALENCE BANDS -    BAND    198; K    1; EIG -2.2490008E-01 AU
 BOTTOM OF VIRTUAL BANDS - BAND    199; K    1; EIG -7.9841920E-02 AU
 INDIRECT ENERGY BAND GAP:   3.9405 eV
 TTTTTTTTTTTTTTTTTTTTTTTTTTTTTT PDIG        TELAPSE       61.04 TCPU     1123.62
 CHARGE NORMALIZATION FACTOR   1.00000000
 TOTAL ATOMIC CHARGES:
   4.7195115   4.7140662   4.7022487   4.7151683   4.7022420   4.7151797
   4.7152541   4.7022151   4.7152465   4.7022170   4.7140946   4.7194825
   0.9079909   0.9101998   0.9101986   0.9080036   0.9079412   0.9124547
   0.9124574   0.9080509   0.9065775   0.9095696   0.9095252   0.9066177
   0.9065430   0.9095604   0.9095056   0.9066067   0.9079434   0.9124579
   0.9125364   0.9081320   0.9079207   0.9101514   0.9102100   0.9080176
   5.8588603   5.8761639   6.1382021   6.1386441   6.1390240   6.1386443
   6.1198937   6.1424628   6.1430608   6.1205844   5.8787481   5.8612971
   5.8867565   5.8713921   6.1286419   6.1249954   6.1256417   6.1292417
   6.1288845   6.1252330   6.1255655   6.1291603   5.8745338   5.8897490
   5.8588381   5.8760980   6.1199394   6.1425238   6.1429279   6.1204372
   6.1383666   6.1388648   6.1387799   6.1383580   5.8789197   5.8614611
   8.3363513   8.3319061   8.3367203   8.3322609   8.3239495   8.3358517
   8.3317346   8.3361832   8.3355863   8.3237658   8.3321277   8.3365686
 TTTTTTTTTTTTTTTTTTTTTTTTTTTTTT MOQGAD      TELAPSE       61.14 TCPU     1123.73
 TTTTTTTTTTTTTTTTTTTTTTTTTTTTTT SHELLXN     TELAPSE       74.09 TCPU     1536.43
 TTTTTTTTTTTTTTTTTTTTTTTTTTTTTT MONMO3      TELAPSE       74.62 TCPU     1553.42
 NUMERICALLY INTEGRATED DENSITY    395.9999934069
 TTTTTTTTTTTTTTTTTTTTTTTTTTTTTT NUMDFT      TELAPSE       76.10 TCPU     1600.69
 CYC   2 ETOT(AU) -2.578010332262E+03 DETOT -3.90E-01 tst  3.08E-03 PX  1.60E-01
 TTTTTTTTTTTTTTTTTTTTTTTTTTTTTT DIIS        TELAPSE       76.26 TCPU     1605.86
 DIIS TEST: 0.92682E+00 AT SCF   CYCLE   2 - DIIS ACTIVE - HISTORY:     2 CYCLES
 TTTTTTTTTTTTTTTTTTTTTTTTTTTTTT FDIK        TELAPSE       78.29 TCPU     1670.70
 INSULATING STATE
 TOP OF VALENCE BANDS -    BAND    198; K    4; EIG -2.3883464E-01 AU
 TOP OF VALENCE BANDS -    BAND    198; K    1; EIG -2.3920761E-01 AU
 BOTTOM OF VIRTUAL BANDS - BAND    199; K    1; EIG -7.5233990E-02 AU
 INDIRECT ENERGY BAND GAP:   4.4518 eV
 TTTTTTTTTTTTTTTTTTTTTTTTTTTTTT PDIG        TELAPSE       80.23 TCPU     1677.54
 CHARGE NORMALIZATION FACTOR   1.00000000
 TOTAL ATOMIC CHARGES:
   4.5056870   4.5088395   4.4986098   4.5087469   4.4987141   4.5088556
   4.5085637   4.4985992   4.5084293   4.4984430   4.5084949   4.5054889
   0.8866228   0.8885934   0.8887532   0.8867637   0.8854989   0.8908708
   0.8910550   0.8855939   0.8839176   0.8855105   0.8858437   0.8840575
   0.8839360   0.8855439   0.8857823   0.8839989   0.8855032   0.8908896
   0.8911085   0.8856588   0.8866011   0.8886015   0.8887134   0.8867241
   5.9013962   5.8806646   6.1592405   6.1614028   6.1611970   6.1590514
   6.1669475   6.1531212   6.1526550   6.1663181   5.8802046   5.9010043
   5.8912545   5.8902135   6.1614496   6.1615123   6.1611393   6.1612666
   6.1615368   6.1615464   6.1611486   6.1612124   5.8895065   5.8907059
   5.9017258   5.8809182   6.1668452   6.1530354   6.1528280   6.1664477
   6.1591175   6.1612817   6.1612467   6.1590695   5.8798694   5.9007378
   8.5088465   8.5091835   8.5090113   8.5093629   8.5155194   8.5062502
   8.5094386   8.5091036   8.5063919   8.5155094   8.5096625   8.5092877
 TTTTTTTTTTTTTTTTTTTTTTTTTTTTTT MOQGAD      TELAPSE       80.33 TCPU     1677.64
 TTTTTTTTTTTTTTTTTTTTTTTTTTTTTT SHELLXN     TELAPSE       93.27 TCPU     2089.95
 TTTTTTTTTTTTTTTTTTTTTTTTTTTTTT MONMO3      TELAPSE       93.80 TCPU     2106.81
 NUMERICALLY INTEGRATED DENSITY    395.9999955356
 TTTTTTTTTTTTTTTTTTTTTTTTTTTTTT NUMDFT      TELAPSE       95.26 TCPU     2153.45
 CYC   3 ETOT(AU) -2.578201401937E+03 DETOT -1.91E-01 tst  6.84E-04 PX  6.74E-02
 TTTTTTTTTTTTTTTTTTTTTTTTTTTTTT DIIS        TELAPSE       95.44 TCPU     2159.38
 DIIS TEST: 0.28011E-01 AT SCF   CYCLE   3 - DIIS ACTIVE - HISTORY:     3 CYCLES
 TTTTTTTTTTTTTTTTTTTTTTTTTTTTTT FDIK        TELAPSE       97.47 TCPU     2224.35
 INSULATING STATE
 TOP OF VALENCE BANDS -    BAND    198; K    4; EIG -2.4755273E-01 AU
 TOP OF VALENCE BANDS -    BAND    198; K    1; EIG -2.4777990E-01 AU
 BOTTOM OF VIRTUAL BANDS - BAND    199; K    1; EIG -8.2980699E-02 AU
 INDIRECT ENERGY BAND GAP:   4.4782 eV
 TTTTTTTTTTTTTTTTTTTTTTTTTTTTTT PDIG        TELAPSE       99.39 TCPU     2231.17
 CHARGE NORMALIZATION FACTOR   1.00000000
 TOTAL ATOMIC CHARGES:
   4.5133296   4.5113031   4.5051328   4.5111810   4.5052310   4.5112908
   4.5110806   4.5050009   4.5109441   4.5048539   4.5110365   4.5130818
   0.8695940   0.8712400   0.8713049   0.8696422   0.8715030   0.8714654
   0.8714749   0.8715591   0.8683798   0.8706755   0.8706975   0.8684922
   0.8683790   0.8706980   0.8706415   0.8684442   0.8715207   0.8714858
   0.8715383   0.8716199   0.8695671   0.8712308   0.8712755   0.8696128
   5.9263220   5.9486437   6.1701828   6.1681791   6.1683622   6.1704422
   6.1517204   6.1778131   6.1784893   6.1526412   5.9506139   5.9279870
   5.9525934   5.9356904   6.1654990   6.1595832   6.1601010   6.1660094
   6.1655568   6.1596400   6.1601330   6.1660175   5.9377909   5.9543955
   5.9264077   5.9486662   6.1516160   6.1777136   6.1786009   6.1527235
   6.1700383   6.1681168   6.1684087   6.1704509   5.9505732   5.9279753
   8.4812574   8.4753743   8.4815381   8.4756286   8.4700257   8.4805027
   8.4753595   8.4812136   8.4804947   8.4701727   8.4756897   8.4815370
 TTTTTTTTTTTTTTTTTTTTTTTTTTTTTT MOQGAD      TELAPSE       99.49 TCPU     2231.27
 TTTTTTTTTTTTTTTTTTTTTTTTTTTTTT SHELLXN     TELAPSE      112.43 TCPU     2643.54
 TTTTTTTTTTTTTTTTTTTTTTTTTTTTTT MONMO3      TELAPSE      112.95 TCPU     2660.43
 NUMERICALLY INTEGRATED DENSITY    395.9999951340
 TTTTTTTTTTTTTTTTTTTTTTTTTTTTTT NUMDFT      TELAPSE      114.41 TCPU     2706.94
 CYC   4 ETOT(AU) -2.578206997147E+03 DETOT -5.60E-03 tst  2.73E-05 PX  1.60E-02
 TTTTTTTTTTTTTTTTTTTTTTTTTTTTTT DIIS        TELAPSE      114.62 TCPU     2713.34
 DIIS TEST: 0.93741E-02 AT SCF   CYCLE   4 - DIIS ACTIVE - HISTORY:     4 CYCLES
 TTTTTTTTTTTTTTTTTTTTTTTTTTTTTT FDIK        TELAPSE      116.65 TCPU     2777.90
 INSULATING STATE
 TOP OF VALENCE BANDS -    BAND    198; K    4; EIG -2.4653855E-01 AU
 TOP OF VALENCE BANDS -    BAND    198; K    1; EIG -2.4682833E-01 AU
 BOTTOM OF VIRTUAL BANDS - BAND    199; K    1; EIG -8.3337080E-02 AU
 INDIRECT ENERGY BAND GAP:   4.4409 eV
 TTTTTTTTTTTTTTTTTTTTTTTTTTTTTT PDIG        TELAPSE      118.57 TCPU     2784.73
 CHARGE NORMALIZATION FACTOR   1.00000000
 TOTAL ATOMIC CHARGES:
   4.5164895   4.5147619   4.5051557   4.5154434   4.5052478   4.5155463
   4.5153724   4.5051742   4.5152509   4.5050350   4.5145386   4.5163456
   0.8724642   0.8742237   0.8743398   0.8725637   0.8720115   0.8761720
   0.8763394   0.8721527   0.8702603   0.8720026   0.8722431   0.8703895
   0.8702588   0.8720211   0.8721921   0.8703442   0.8720184   0.8761868
   0.8764036   0.8722240   0.8724251   0.8742125   0.8743171   0.8725426
   5.9263341   5.9174076   6.1670679   6.1698512   6.1698130   6.1670791
   6.1679421   6.1629281   6.1626093   6.1675307   5.9175059   5.9264279
   5.9283602   5.9246628   6.1651665   6.1646953   6.1645582   6.1651583
   6.1652840   6.1647728   6.1645505   6.1651047   5.9247893   5.9285411
   5.9265860   5.9175840   6.1678581   6.1628663   6.1627181   6.1675999
   6.1670012   6.1698054   6.1698034   6.1670386   5.9172792   5.9262573
   8.4865167   8.4860986   8.4867220   8.4863147   8.4873675   8.4840944
   8.4862385   8.4866640   8.4841060   8.4872653   8.4865059   8.4868983
 TTTTTTTTTTTTTTTTTTTTTTTTTTTTTT MOQGAD      TELAPSE      118.67 TCPU     2784.83
 TTTTTTTTTTTTTTTTTTTTTTTTTTTTTT SHELLXN     TELAPSE      131.61 TCPU     3197.11
 TTTTTTTTTTTTTTTTTTTTTTTTTTTTTT MONMO3      TELAPSE      132.13 TCPU     3213.97
 NUMERICALLY INTEGRATED DENSITY    395.9999952728
 TTTTTTTTTTTTTTTTTTTTTTTTTTTTTT NUMDFT      TELAPSE      133.59 TCPU     3260.52
 CYC   5 ETOT(AU) -2.578209092671E+03 DETOT -2.10E-03 tst  9.41E-06 PX  8.53E-03
 TTTTTTTTTTTTTTTTTTTTTTTTTTTTTT DIIS        TELAPSE      133.83 TCPU     3266.95
 DIIS TEST: 0.59897E-03 AT SCF   CYCLE   5 - DIIS ACTIVE - HISTORY:     5 CYCLES
 TTTTTTTTTTTTTTTTTTTTTTTTTTTTTT FDIK        TELAPSE      135.85 TCPU     3331.35
 INSULATING STATE
 TOP OF VALENCE BANDS -    BAND    198; K    4; EIG -2.4585242E-01 AU
 TOP OF VALENCE BANDS -    BAND    198; K    1; EIG -2.4611361E-01 AU
 BOTTOM OF VIRTUAL BANDS - BAND    199; K    1; EIG -8.2490393E-02 AU
 INDIRECT ENERGY BAND GAP:   4.4453 eV
 TTTTTTTTTTTTTTTTTTTTTTTTTTTTTT PDIG        TELAPSE      137.70 TCPU     3338.10
 CHARGE NORMALIZATION FACTOR   1.00000000
 TOTAL ATOMIC CHARGES:
   4.5152523   4.5149841   4.5058470   4.5148089   4.5059416   4.5149150
   4.5146783   4.5057432   4.5145502   4.5056008   4.5147001   4.5150222
   0.8732614   0.8753731   0.8754738   0.8733459   0.8741132   0.8762688
   0.8763252   0.8741847   0.8716293   0.8737963   0.8739183   0.8717573
   0.8716329   0.8738220   0.8738612   0.8717084   0.8741259   0.8762869
   0.8763865   0.8742473   0.8732336   0.8753676   0.8754431   0.8733162
   5.9156282   5.9230641   6.1689370   6.1670060   6.1670309   6.1690143
   6.1579559   6.1721898   6.1725595   6.1584290   5.9242622   5.9166489
   5.9280999   5.9177960   6.1658991   6.1622959   6.1625085   6.1661587
   6.1659606   6.1623403   6.1625408   6.1661493   5.9189146   5.9290713
   5.9158004   5.9231664   6.1578534   6.1720971   6.1726918   6.1585307
   6.1687939   6.1669202   6.1670810   6.1690269   5.9241197   5.9165485
   8.4893112   8.4853330   8.4895543   8.4855616   8.4845036   8.4884375
   8.4854138   8.4893695   8.4885078   8.4846451   8.4857057   8.4896435
 TTTTTTTTTTTTTTTTTTTTTTTTTTTTTT MOQGAD      TELAPSE      137.80 TCPU     3338.20
 TTTTTTTTTTTTTTTTTTTTTTTTTTTTTT SHELLXN     TELAPSE      150.74 TCPU     3750.52
 TTTTTTTTTTTTTTTTTTTTTTTTTTTTTT MONMO3      TELAPSE      151.26 TCPU     3767.37
 NUMERICALLY INTEGRATED DENSITY    395.9999952678
 TTTTTTTTTTTTTTTTTTTTTTTTTTTTTT NUMDFT      TELAPSE      152.72 TCPU     3813.79
 CYC   6 ETOT(AU) -2.578209165294E+03 DETOT -7.26E-05 tst  3.06E-06 PX  2.73E-03
 TTTTTTTTTTTTTTTTTTTTTTTTTTTTTT DIIS        TELAPSE      152.97 TCPU     3820.29
 DIIS TEST: 0.37248E-03 AT SCF   CYCLE   6 - DIIS ACTIVE - HISTORY:     6 CYCLES
 TTTTTTTTTTTTTTTTTTTTTTTTTTTTTT FDIK        TELAPSE      155.01 TCPU     3884.99
 INSULATING STATE
 TOP OF VALENCE BANDS -    BAND    198; K    4; EIG -2.4607419E-01 AU
 TOP OF VALENCE BANDS -    BAND    198; K    1; EIG -2.4635020E-01 AU
 BOTTOM OF VIRTUAL BANDS - BAND    199; K    1; EIG -8.2587943E-02 AU
 INDIRECT ENERGY BAND GAP:   4.4487 eV
 TTTTTTTTTTTTTTTTTTTTTTTTTTTTTT PDIG        TELAPSE      156.92 TCPU     3891.81
 CHARGE NORMALIZATION FACTOR   1.00000000
 TOTAL ATOMIC CHARGES:
   4.5155139   4.5148277   4.5057058   4.5149986   4.5058000   4.5151038
   4.5148918   4.5056555   4.5147658   4.5055127   4.5145635   4.5153153
   0.8734800   0.8752841   0.8753865   0.8735660   0.8736339   0.8767681
   0.8768773   0.8737377   0.8714725   0.8735377   0.8737080   0.8715939
   0.8714738   0.8735600   0.8736545   0.8715466   0.8736443   0.8767856
   0.8769389   0.8738040   0.8734479   0.8752770   0.8753588   0.8735397
   5.9204516   5.9207338   6.1673363   6.1682874   6.1683099   6.1674146
   6.1622989   6.1673344   6.1673707   6.1623568   5.9214618   5.9210702
   5.9288243   5.9204835   6.1653125   6.1628091   6.1628916   6.1654842
   6.1654038   6.1628717   6.1629001   6.1654510   5.9212376   5.9295189
   5.9206575   5.9208675   6.1622027   6.1672529   6.1674957   6.1624449
   6.1672279   6.1682197   6.1683325   6.1674030   5.9212840   5.9209407
   8.4878615   8.4854663   8.4880879   8.4856905   8.4852845   8.4859996
   8.4855736   8.4879611   8.4860284   8.4852951   8.4858568   8.4882198
 TTTTTTTTTTTTTTTTTTTTTTTTTTTTTT MOQGAD      TELAPSE      157.03 TCPU     3891.92
 TTTTTTTTTTTTTTTTTTTTTTTTTTTTTT SHELLXN     TELAPSE      169.96 TCPU     4304.20
 TTTTTTTTTTTTTTTTTTTTTTTTTTTTTT MONMO3      TELAPSE      170.49 TCPU     4321.06
 NUMERICALLY INTEGRATED DENSITY    395.9999952614
 TTTTTTTTTTTTTTTTTTTTTTTTTTTTTT NUMDFT      TELAPSE      171.95 TCPU     4367.68
 CYC   7 ETOT(AU) -2.578209262154E+03 DETOT -9.69E-05 tst  6.57E-07 PX  1.33E-03
 TTTTTTTTTTTTTTTTTTTTTTTTTTTTTT DIIS        TELAPSE      172.23 TCPU     4374.15
 DIIS TEST: 0.20050E-05 AT SCF   CYCLE   7 - DIIS ACTIVE - HISTORY:     7 CYCLES
 TTTTTTTTTTTTTTTTTTTTTTTTTTTTTT FDIK        TELAPSE      174.26 TCPU     4438.72
 INSULATING STATE
 TOP OF VALENCE BANDS -    BAND    198; K    4; EIG -2.4606591E-01 AU
 TOP OF VALENCE BANDS -    BAND    198; K    1; EIG -2.4634040E-01 AU
 BOTTOM OF VIRTUAL BANDS - BAND    199; K    1; EIG -8.2623264E-02 AU
 INDIRECT ENERGY BAND GAP:   4.4475 eV
 TTTTTTTTTTTTTTTTTTTTTTTTTTTTTT PDIG        TELAPSE      176.13 TCPU     4445.49
 CHARGE NORMALIZATION FACTOR   1.00000000
 TOTAL ATOMIC CHARGES:
   4.5157871   4.5149037   4.5056893   4.5150593   4.5057829   4.5151641
   4.5149542   4.5056427   4.5148288   4.5055010   4.5146451   4.5155967
   0.8733795   0.8753153   0.8754232   0.8734703   0.8736639   0.8766908
   0.8767968   0.8737641   0.8714850   0.8734579   0.8736341   0.8716136
   0.8714871   0.8734808   0.8735796   0.8715657   0.8736740   0.8767076
   0.8768593   0.8738306   0.8733472   0.8753078   0.8753958   0.8734440
   5.9204854   5.9206890   6.1676997   6.1678713   6.1678663   6.1677470
   6.1619921   6.1675930   6.1676508   6.1620649   5.9213949   5.9210910
   5.9284963   5.9210402   6.1651028   6.1629130   6.1629635   6.1652373
   6.1651889   6.1629725   6.1629778   6.1652086   5.9217131   5.9291120
   5.9206932   5.9208243   6.1618985   6.1675145   6.1677715   6.1621507
   6.1675917   6.1678043   6.1678890   6.1677352   5.9212153   5.9209602
   8.4878301   8.4854358   8.4880569   8.4856595   8.4854784   8.4862349
   8.4855406   8.4879256   8.4862775   8.4855068   8.4858225   8.4881827
 TTTTTTTTTTTTTTTTTTTTTTTTTTTTTT MOQGAD      TELAPSE      176.23 TCPU     4445.59
 TTTTTTTTTTTTTTTTTTTTTTTTTTTTTT SHELLXN     TELAPSE      189.16 TCPU     4857.82
 TTTTTTTTTTTTTTTTTTTTTTTTTTTTTT MONMO3      TELAPSE      189.69 TCPU     4874.68
 NUMERICALLY INTEGRATED DENSITY    395.9999952621
 TTTTTTTTTTTTTTTTTTTTTTTTTTTTTT NUMDFT      TELAPSE      191.15 TCPU     4921.32
 CYC   8 ETOT(AU) -2.578209261855E+03 DETOT  2.99E-07 tst  4.31E-09 PX  1.18E-04
 TTTTTTTTTTTTTTTTTTTTTTTTTTTTTT DIIS        TELAPSE      191.46 TCPU     4927.79
 DIIS TEST: 0.56601E-06 AT SCF   CYCLE   8 - DIIS ACTIVE - HISTORY:     8 CYCLES
 TTTTTTTTTTTTTTTTTTTTTTTTTTTTTT FDIK        TELAPSE      193.49 TCPU     4992.40
 INSULATING STATE
 TOP OF VALENCE BANDS -    BAND    198; K    4; EIG -2.4607084E-01 AU
 TOP OF VALENCE BANDS -    BAND    198; K    1; EIG -2.4634599E-01 AU
 BOTTOM OF VIRTUAL BANDS - BAND    199; K    1; EIG -8.2622143E-02 AU
 INDIRECT ENERGY BAND GAP:   4.4477 eV
 TTTTTTTTTTTTTTTTTTTTTTTTTTTTTT PDIG        TELAPSE      195.40 TCPU     4999.21
 CHARGE NORMALIZATION FACTOR   1.00000000
 TOTAL ATOMIC CHARGES:
   4.5157406   4.5148982   4.5057120   4.5150769   4.5058057   4.5151818
   4.5149707   4.5056614   4.5148451   4.5055194   4.5146366   4.5155447
   0.8734080   0.8752721   0.8753767   0.8734959   0.8736339   0.8766938
   0.8768005   0.8737360   0.8714511   0.8734764   0.8736475   0.8715755
   0.8714527   0.8734990   0.8735935   0.8715280   0.8736443   0.8767110
   0.8768626   0.8738023   0.8733759   0.8752648   0.8753491   0.8734696
   5.9203699   5.9207440   6.1675089   6.1681003   6.1681119   6.1675750
   6.1620981   6.1675128   6.1675661   6.1621723   5.9214724   5.9209911
   5.9286417   5.9206788   6.1652382   6.1628382   6.1629129   6.1653990
   6.1653272   6.1628992   6.1629243   6.1653681   5.9214093   5.9293116
   5.9205759   5.9208777   6.1620028   6.1674324   6.1676892   6.1622596
   6.1674002   6.1680327   6.1681350   6.1675638   5.9212946   5.9208617
   8.4878801   8.4854710   8.4881068   8.4856950   8.4854026   8.4861624
   8.4855774   8.4879777   8.4861973   8.4854238   8.4858600   8.4882358
 TTTTTTTTTTTTTTTTTTTTTTTTTTTTTT MOQGAD      TELAPSE      195.50 TCPU     4999.32
 TTTTTTTTTTTTTTTTTTTTTTTTTTTTTT SHELLXN     TELAPSE      208.43 TCPU     5411.53
 +++ ENERGIES IN A.U. +++
 ::: EXT EL-POLE                                  -2.4349333420087E+03
 ::: EXT EL-SPHEROPOLE                             2.6577213187447E+01
 ::: BIELET ZONE E-E                               3.9081083349067E+03
 ::: TOTAL E-E                                     1.4997522060855E+03
 ::: TOTAL E-N + N-E                              -6.6627983688652E+03
 ::: TOTAL N-N                                     2.9237290401888E+02
 ::: KINETIC ENERGY                                2.5599057829966E+03
 ::: PSEUDO TOTAL   ENERGY                        -2.3107674757642E+03
 ::: VIRIAL COEFFICIENT                            1.0511506919057E+00
 TTTTTTTTTTTTTTTTTTTTTTTTTTTTTT MONMO3      TELAPSE      208.96 TCPU     5428.39
 NUMERICALLY INTEGRATED DENSITY    395.9999952618
 EXCHANGE ENERGY: -0.252062400025E+03  CORRELATION ENERGY: -0.153793862835E+02
 TTTTTTTTTTTTTTTTTTTTTTTTTTTTTT NUMDFT      TELAPSE      210.42 TCPU     5474.97
 CYC   9 ETOT(AU) -2.578209262073E+03 DETOT -2.18E-07 tst  1.15E-09 PX  1.18E-04

 == SCF ENDED - CONVERGENCE ON ENERGY      E(AU) -2.5782092620730E+03 CYCLES   9


 ENERGY EXPRESSION=HARTREE+FOCK EXCH*0.00000+(HSESOL     EXCH)*1.00000+PBESOL     CORR


 TOTAL ENERGY(DFT)(AU)(  9) -2.5782092620730E+03 DE-2.2E-07 tester 1.2E-09
 TTTTTTTTTTTTTTTTTTTTTTTTTTTTTT EDFT        TELAPSE      210.42 TCPU     5474.98
 
 INFORMATION **** DFTD3 ENERGY **** CALCULATE DFTD3 ENERGY

           DFT-D V3(BJ)
 DF                                         hsesol3c  
 parameters
 s6       :    1.0000
 s8       :    0.0000
 a1       :    0.5196
 a2       :    4.9385
 k1 k3    :   16.0000   -4.0000
 Cutoff   :   50.2022
 CN-Cutoff:   21.1671
 ABC-Cutoff:   21.1671
 
 Edisp /kcal,au:   -43.5547 -0.06940880

 E6    /kcal :   -45.6882
 E8    /kcal :     0.0000
 E6(ABC) "   :   2.133561
 
 INFORMATION **** DFTD3 ENERGY **** NORMAL TERMINATION OF DFTD3 MODULE

 GCP ENERGY CALCULATION
  level        hsesol3c            basis:hsesol3c
  Nbf            948
  Atoms           84

  Parameters: 
  sigma     1.0000
  eta       1.4281
  alpha     0.2936
  beta      1.9467

  dmp_scal      4.0000
  dmp_exp       6.0000
 cutoffs: 
   distance [bohr] 60.0
   noise    [a.u.] 2.2E-16
 SR-damping   T
 ** gCP correction **
  Egcp:        0.1658468621 / (a.u.) ||     104.0705 / (kcal/mol)
 INFORMATION **** GCP **** NORMAL TERMINATION OF GCP MODULE

 *******************************************************************************

 DFT-D3-GCP DISPERSION AND COUNTERPOISE CORRECTION

 D3 DISPERSION ENERGY (AU)      -6.9408802180781E-02
 GCP ENERGY (AU)                 1.6584686210411E-01
 TOTAL ENERGY + DISP + GCP (AU) -2.5781128240131E+03

 *******************************************************************************

 EIGENVECTORS IN FORTRAN UNIT 10
 TTTTTTTTTTTTTTTTTTTTTTTTTTTTTT END         TELAPSE      213.06 TCPU     5483.19
 EEEEEEEEEE TERMINATION  DATE 19 02 2026 TIME 20:31:54.0
