 Default number of threads is:           32

         
 *******************************************************************************
 *                                                                             *
 *                               CRYSTAL23                                     *
 *                      public : 1.0.1 - October 2022                          *
 *                       HTTP://WWW.CRYSTAL.UNITO.IT                           *
 *                                                                             *
 *                              MAIN AUTHORS                                   *
 *                                                                             *
 *  R. DOVESI(1,11), V.R. SAUNDERS(2), C. ROETTI(1,11), R. ORLANDO(1,11),      *
 *  C.M. ZICOVICH-WILSON(1,3), F. PASCALE(4), B. CIVALLERI(1,11),              *
 *  K. DOLL(5), N.M. HARRISON(6), I.J. BUSH(7), Ph. D'ARCO(8),                 *
 *  M. LLUNELL(9), M. CAUSA'(10), Y. NOEL(8), L. MASCHIO(1,11), A. ERBA(1,11)  *
 *  M. RE'RAT(14), S. CASASSA(1,11), B.G. SEARLE(2), J.K. DESMARAIS(1)         *
 *                                                                             *
 *        CONTRIBUTIONS TO THE CODE HAVE ALSO BEEN GIVEN BY                    *
 *                                                                             *
 *  M. FERRABONE(1,11), M. DE LA PIERRE(1,11), M. FERRERO(1,11),               *
 *  J. BAIMA(1,11), E. ALBANESE(1,11), M.F. PEINTINGER(12), R. BAST(13),       *
 *  B. KIRTMAN(15), V. LACIVITA(1,11), R. DEMICHELIS(1,16)                     *
 *  G. BRANDEBURG(17), S. SALUSTRO(1,11), G. SANSONE(1,11)                     *
 *  M.T. RUGGIERO(18), L.E. DAGA(1), L. DONA'(1), A. COSSARD(1)                *
 *                                                                             *
 * (1) THEORETICAL CHEMISTRY GROUP - UNIVERSITA' DI TORINO - TORINO (ITALY)    *
 * (2) SCIENTIFIC COMPUTING DEPARTMENT - STFC DARESBURY (UK)                   *
 * (3) UNIVERSIDAD AUTONOMA DEL ESTADO DE MORELOS - CUERNAVACA (MEXICO)        *
 * (4) UNIVERSITE' DE LORRAINE - NANCY (FRANCE)                                *
 * (5) UNIVERSITAET STUTTGART- STUTTGART (GERMANY)                             *
 * (6) IMPERIAL COLLEGE - LONDON (UK)                                          *
 * (7) SCIENTIFIC COMPUTING DEPARTMENT - STFC RAL (UK)                         *
 * (8) UPMC - SORBONNE UNIVERSITES - PARIS (FRANCE)                            *
 * (9) UNIVERSIDAD DE BARCELONA - BARCELONA (SPAIN)                            *
 *(10) UNIVERSITA' DI NAPOLI "FEDERICO II" - NAPOLI (ITALY)                    *
 *(11) NIS - NANOSTRUCTURED INTERFACES AND SURFACES - TORINO (ITALY)           *
 *(12) MPI FUER CHEMISCHE ENERGIEKONVERSION - MUELHEIM AN DER RUHR (GERMANY)   *
 *(13) UNIVERSITY OF TROMSO - TROMSO (NORWAY)                                  *
 *(14) UNIVERSITE' DE PAU ET DES PAYS DE L'ADOUR - PAU (FRANCE)                *
 *(15) UNIVERSITY OF CALIFORNIA SANTA BARBARA - SANTA BARBARA (USA)            *
 *(16) CURTIN UNIVERSITY - PERTH (AUSTRALIA)                                   *
 *(17) UNIVERSITY COLLEGE LONDON - LONDON (UK)                                 *
 *(18) UNIVERSITY OF VERMONT - BURLINGTON (USA)                                *
 *                                                                             *
 *******************************************************************************
 EEEEEEEEEE STARTING  DATE 19 02 2026 TIME 20:26:33.9
 cof-1_z41_L080_serr                                                             

 CRYSTAL CALCULATION
 (INPUT ACCORDING TO THE INTERNATIONAL TABLES FOR X-RAY CRYSTALLOGRAPHY)
 CRYSTAL FAMILY                       :  TRICLINIC   
 CRYSTAL CLASS  (GROTH - 1921)        :  TRICLINIC PEDIAL                     

 SPACE GROUP (NONCENTROSYMMETRIC)     :  P 1             

 LATTICE PARAMETERS  (ANGSTROMS AND DEGREES) - CONVENTIONAL CELL
        A           B           C        ALPHA        BETA       GAMMA
    15.02361    15.02392     8.20000    90.00032    89.99994   119.99596


 NUMBER OF IRREDUCIBLE ATOMS IN THE CONVENTIONAL CELL:   84

 INPUT COORDINATES

 ATOM AT. N.              COORDINATES
   1   5     6.136805400000E-01  2.273182200000E-01  2.505825300000E-01
   2   5     9.210667600000E-01  8.421531600000E-01  7.505825300000E-01
   3   5     7.727362000000E-01  3.863778800000E-01  2.505825300000E-01
   4   5     8.012242000000E-02  1.212820000000E-03  7.505825300000E-01
   5   5     6.136762700000E-01  3.863606700000E-01  2.493577500000E-01
   6   5     9.210624900000E-01  1.195610000000E-03  7.493577600000E-01
   7   5     2.272552500000E-01  6.136332200000E-01  2.505825300000E-01
   8   5     5.346414700000E-01  2.284681600000E-01  7.505825400000E-01
   9   5     3.863632200000E-01  6.136124500000E-01  2.505825300000E-01
  10   5     6.937494400000E-01  2.284473900000E-01  7.505825300000E-01
  11   5     3.863435000000E-01  7.727516500000E-01  2.493577500000E-01
  12   5     6.937297200000E-01  3.875865900000E-01  7.493577600000E-01
  13   1     9.030436200000E-01  3.089300500000E-01  2.480433200000E-01
  14   1     2.104298400000E-01  9.237649900000E-01  7.480433200000E-01
  15   1     9.663453000000E-02  6.910534400000E-01  2.476550300000E-01
  16   1     4.040207500000E-01  3.058883800000E-01  7.476550300000E-01
  17   1     9.029714200000E-01  5.940724300000E-01  2.475952700000E-01
  18   1     2.103576400000E-01  2.089073700000E-01  7.475952700000E-01
  19   1     9.673618000000E-02  4.056849400000E-01  2.476101700000E-01
  20   1     4.041224000000E-01  2.051988000000E-02  7.476101800000E-01
  21   1     6.910324000000E-01  9.700412000000E-02  2.519567000000E-01
  22   1     9.984186200000E-01  7.118390600000E-01  7.519567000000E-01
  23   1     3.089297200000E-01  9.034373100000E-01  2.523450200000E-01
  24   1     6.163159400000E-01  5.182722500000E-01  7.523450200000E-01
  25   1     4.058699900000E-01  9.704998000000E-02  2.524048100000E-01
  26   1     7.132562100000E-01  7.118849200000E-01  7.524048100000E-01
  27   1     5.943122100000E-01  9.033473200000E-01  2.523898100000E-01
  28   1     9.016984300000E-01  5.181822600000E-01  7.523898100000E-01
  29   1     6.910727400000E-01  5.940542100000E-01  2.480433400000E-01
  30   1     9.984589600000E-01  2.088891500000E-01  7.480433400000E-01
  31   1     3.089618300000E-01  4.056093300000E-01  2.476550100000E-01
  32   1     6.163480500000E-01  2.044427000000E-02  7.476550100000E-01
  33   1     4.058405700000E-01  3.088232500000E-01  2.475952200000E-01
  34   1     7.132267900000E-01  9.236581900000E-01  7.475952200000E-01
  35   1     5.942908800000E-01  6.909579300000E-01  2.476102200000E-01
  36   1     9.016771000000E-01  3.057928700000E-01  7.476102200000E-01
  37   6     8.918903100000E-01  4.459436900000E-01  2.493129400000E-01
  38   6     1.992765300000E-01  6.077863000000E-02  7.493129400000E-01
  39   6     9.464891100000E-01  3.927856300000E-01  2.481030700000E-01
  40   6     2.538753300000E-01  7.620570000000E-03  7.481030800000E-01
  41   6     5.338812000000E-02  6.071853000000E-01  2.479985600000E-01
  42   6     3.607743400000E-01  2.220202400000E-01  7.479985600000E-01
  43   6     9.464521100000E-01  5.536921900000E-01  2.483122200000E-01
  44   6     2.538383300000E-01  1.685271300000E-01  7.483122200000E-01
  45   6     5.342634000000E-02  4.462499700000E-01  2.475056200000E-01
  46   6     3.608125600000E-01  6.108491000000E-02  7.475056200000E-01
  47   6     1.080358900000E-01  5.540356300000E-01  2.483271400000E-01
  48   6     4.154221100000E-01  1.688705700000E-01  7.483271400000E-01
  49   6     5.540394200000E-01  1.081684600000E-01  2.506871000000E-01
  50   6     8.614256400000E-01  7.230034000000E-01  7.506871000000E-01
  51   6     6.071778500000E-01  5.355594000000E-02  2.518969300000E-01
  52   6     9.145640700000E-01  6.683908800000E-01  7.518969300000E-01
  53   6     3.927986700000E-01  9.466631600000E-01  2.520014900000E-01
  54   6     7.001848900000E-01  5.614981000000E-01  7.520014900000E-01
  55   6     4.462875800000E-01  5.360286000000E-02  2.516878400000E-01
  56   6     7.536738000000E-01  6.684378000000E-01  7.516878400000E-01
  57   6     5.537168500000E-01  9.466235600000E-01  2.524943800000E-01
  58   6     8.611030700000E-01  5.614585000000E-01  7.524943800000E-01
  59   6     4.459279100000E-01  8.919920600000E-01  2.516728900000E-01
  60   6     7.533141300000E-01  5.068270000000E-01  7.516728800000E-01
  61   6     5.540448700000E-01  4.458745500000E-01  2.493129400000E-01
  62   6     8.614310900000E-01  6.070949000000E-02  7.493129400000E-01
  63   6     6.072102200000E-01  5.536257800000E-01  2.481031000000E-01
  64   6     9.145964400000E-01  1.684607200000E-01  7.481031000000E-01
  65   6     3.928233700000E-01  4.461720300000E-01  2.479985400000E-01
  66   6     7.002095900000E-01  6.100697000000E-02  7.479985400000E-01
  67   6     4.462872600000E-01  3.926899900000E-01  2.483121800000E-01
  68   6     7.536734800000E-01  7.524930000000E-03  7.483121900000E-01
  69   6     5.537429600000E-01  6.070980000000E-01  2.475056500000E-01
  70   6     8.611291800000E-01  2.219329400000E-01  7.475056500000E-01
  71   6     4.459599800000E-01  5.539582300000E-01  2.483271400000E-01
  72   6     7.533462000000E-01  1.687931700000E-01  7.483271400000E-01
  73   8     5.607366800000E-01  2.803706300000E-01  2.496863500000E-01
  74   8     8.681229000000E-01  8.952055700000E-01  7.496863500000E-01
  75   8     7.196817000000E-01  2.803783300000E-01  2.522703400000E-01
  76   8     2.706792000000E-02  8.952132700000E-01  7.522703300000E-01
  77   8     7.196794200000E-01  4.393234600000E-01  2.483719600000E-01
  78   8     2.706564000000E-02  5.415840000000E-02  7.483719600000E-01
  79   8     2.803245100000E-01  7.196511100000E-01  2.496863600000E-01
  80   8     5.877107300000E-01  3.344860500000E-01  7.496863600000E-01
  81   8     2.803439700000E-01  5.606956100000E-01  2.522703400000E-01
  82   8     5.877301900000E-01  1.755305500000E-01  7.522703400000E-01
  83   8     4.392638400000E-01  7.196354200000E-01  2.483719500000E-01
  84   8     7.466500600000E-01  3.344703600000E-01  7.483719500000E-01

 *******************************************************************************

 << INFORMATION >>: FROM NOW ON, ALL COORDINATES REFER TO THE PRIMITIVE CELL

 *******************************************************************************

 LATTICE PARAMETERS  (ANGSTROMS AND DEGREES) - PRIMITIVE CELL
       A          B          C        ALPHA      BETA     GAMMA        VOLUME
   15.02361   15.02392    8.20000    90.00032  89.99994 119.99596   1602.948694

 COORDINATES OF THE EQUIVALENT ATOMS (FRACTIONAL UNITS)

 N. ATOM EQUIV AT. N.          X                  Y                  Z

   1   1   1    5 B    -3.86319460000E-01  2.27318220000E-01  2.50582530000E-01

   2   2   1    5 B    -7.89332400000E-02 -1.57846840000E-01 -2.49417470000E-01

   3   3   1    5 B    -2.27263800000E-01  3.86377880000E-01  2.50582530000E-01

   4   4   1    5 B     8.01224200000E-02  1.21282000000E-03 -2.49417470000E-01

   5   5   1    5 B    -3.86323730000E-01  3.86360670000E-01  2.49357750000E-01

   6   6   1    5 B    -7.89375100000E-02  1.19561000000E-03 -2.50642240000E-01

   7   7   1    5 B     2.27255250000E-01 -3.86366780000E-01  2.50582530000E-01

   8   8   1    5 B    -4.65358530000E-01  2.28468160000E-01 -2.49417460000E-01

   9   9   1    5 B     3.86363220000E-01 -3.86387550000E-01  2.50582530000E-01

  10  10   1    5 B    -3.06250560000E-01  2.28447390000E-01 -2.49417470000E-01

  11  11   1    5 B     3.86343500000E-01 -2.27248350000E-01  2.49357750000E-01

  12  12   1    5 B    -3.06270280000E-01  3.87586590000E-01 -2.50642240000E-01

  13  13   1    1 H    -9.69563800000E-02  3.08930050000E-01  2.48043320000E-01

  14  14   1    1 H     2.10429840000E-01 -7.62350100000E-02 -2.51956680000E-01

  15  15   1    1 H     9.66345300000E-02 -3.08946560000E-01  2.47655030000E-01

  16  16   1    1 H     4.04020750000E-01  3.05888380000E-01 -2.52344970000E-01

  17  17   1    1 H    -9.70285800000E-02 -4.05927570000E-01  2.47595270000E-01

  18  18   1    1 H     2.10357640000E-01  2.08907370000E-01 -2.52404730000E-01

  19  19   1    1 H     9.67361800000E-02  4.05684940000E-01  2.47610170000E-01

  20  20   1    1 H     4.04122400000E-01  2.05198800000E-02 -2.52389820000E-01

  21  21   1    1 H    -3.08967600000E-01  9.70041200000E-02  2.51956700000E-01

  22  22   1    1 H    -1.58138000000E-03 -2.88160940000E-01 -2.48043300000E-01

  23  23   1    1 H     3.08929720000E-01 -9.65626900000E-02  2.52345020000E-01

  24  24   1    1 H    -3.83684060000E-01 -4.81727750000E-01 -2.47654980000E-01

  25  25   1    1 H     4.05869990000E-01  9.70499800000E-02  2.52404810000E-01

  26  26   1    1 H    -2.86743790000E-01 -2.88115080000E-01 -2.47595190000E-01

  27  27   1    1 H    -4.05687790000E-01 -9.66526800000E-02  2.52389810000E-01

  28  28   1    1 H    -9.83015700000E-02 -4.81817740000E-01 -2.47610190000E-01

  29  29   1    1 H    -3.08927260000E-01 -4.05945790000E-01  2.48043340000E-01

  30  30   1    1 H    -1.54104000000E-03  2.08889150000E-01 -2.51956660000E-01

  31  31   1    1 H     3.08961830000E-01  4.05609330000E-01  2.47655010000E-01

  32  32   1    1 H    -3.83651950000E-01  2.04442700000E-02 -2.52344990000E-01

  33  33   1    1 H     4.05840570000E-01  3.08823250000E-01  2.47595220000E-01

  34  34   1    1 H    -2.86773210000E-01 -7.63418100000E-02 -2.52404780000E-01

  35  35   1    1 H    -4.05709120000E-01 -3.09042070000E-01  2.47610220000E-01

  36  36   1    1 H    -9.83229000000E-02  3.05792870000E-01 -2.52389780000E-01

  37  37   1    6 C    -1.08109690000E-01  4.45943690000E-01  2.49312940000E-01

  38  38   1    6 C     1.99276530000E-01  6.07786300000E-02 -2.50687060000E-01

  39  39   1    6 C    -5.35108900000E-02  3.92785630000E-01  2.48103070000E-01

  40  40   1    6 C     2.53875330000E-01  7.62057000000E-03 -2.51896920000E-01

  41  41   1    6 C     5.33881200000E-02 -3.92814700000E-01  2.47998560000E-01

  42  42   1    6 C     3.60774340000E-01  2.22020240000E-01 -2.52001440000E-01

  43  43   1    6 C    -5.35478900000E-02 -4.46307810000E-01  2.48312220000E-01

  44  44   1    6 C     2.53838330000E-01  1.68527130000E-01 -2.51687780000E-01

  45  45   1    6 C     5.34263400000E-02  4.46249970000E-01  2.47505620000E-01

  46  46   1    6 C     3.60812560000E-01  6.10849100000E-02 -2.52494380000E-01

  47  47   1    6 C     1.08035890000E-01 -4.45964370000E-01  2.48327140000E-01

  48  48   1    6 C     4.15422110000E-01  1.68870570000E-01 -2.51672860000E-01

  49  49   1    6 C    -4.45960580000E-01  1.08168460000E-01  2.50687100000E-01

  50  50   1    6 C    -1.38574360000E-01 -2.76996600000E-01 -2.49312900000E-01

  51  51   1    6 C    -3.92822150000E-01  5.35559400000E-02  2.51896930000E-01

  52  52   1    6 C    -8.54359300000E-02 -3.31609120000E-01 -2.48103070000E-01

  53  53   1    6 C     3.92798670000E-01 -5.33368400000E-02  2.52001490000E-01

  54  54   1    6 C    -2.99815110000E-01 -4.38501900000E-01 -2.47998510000E-01

  55  55   1    6 C     4.46287580000E-01  5.36028600000E-02  2.51687840000E-01

  56  56   1    6 C    -2.46326200000E-01 -3.31562200000E-01 -2.48312160000E-01

  57  57   1    6 C    -4.46283150000E-01 -5.33764400000E-02  2.52494380000E-01

  58  58   1    6 C    -1.38896930000E-01 -4.38541500000E-01 -2.47505620000E-01

  59  59   1    6 C     4.45927910000E-01 -1.08007940000E-01  2.51672890000E-01

  60  60   1    6 C    -2.46685870000E-01 -4.93173000000E-01 -2.48327120000E-01

  61  61   1    6 C    -4.45955130000E-01  4.45874550000E-01  2.49312940000E-01

  62  62   1    6 C    -1.38568910000E-01  6.07094900000E-02 -2.50687060000E-01

  63  63   1    6 C    -3.92789780000E-01 -4.46374220000E-01  2.48103100000E-01

  64  64   1    6 C    -8.54035600000E-02  1.68460720000E-01 -2.51896900000E-01

  65  65   1    6 C     3.92823370000E-01  4.46172030000E-01  2.47998540000E-01

  66  66   1    6 C    -2.99790410000E-01  6.10069700000E-02 -2.52001460000E-01

  67  67   1    6 C     4.46287260000E-01  3.92689990000E-01  2.48312180000E-01

  68  68   1    6 C    -2.46326520000E-01  7.52493000000E-03 -2.51687810000E-01

  69  69   1    6 C    -4.46257040000E-01 -3.92902000000E-01  2.47505650000E-01

  70  70   1    6 C    -1.38870820000E-01  2.21932940000E-01 -2.52494350000E-01

  71  71   1    6 C     4.45959980000E-01 -4.46041770000E-01  2.48327140000E-01

  72  72   1    6 C    -2.46653800000E-01  1.68793170000E-01 -2.51672860000E-01

  73  73   1    8 O    -4.39263320000E-01  2.80370630000E-01  2.49686350000E-01

  74  74   1    8 O    -1.31877100000E-01 -1.04794430000E-01 -2.50313650000E-01

  75  75   1    8 O    -2.80318300000E-01  2.80378330000E-01  2.52270340000E-01

  76  76   1    8 O     2.70679200000E-02 -1.04786730000E-01 -2.47729670000E-01

  77  77   1    8 O    -2.80320580000E-01  4.39323460000E-01  2.48371960000E-01

  78  78   1    8 O     2.70656400000E-02  5.41584000000E-02 -2.51628040000E-01

  79  79   1    8 O     2.80324510000E-01 -2.80348890000E-01  2.49686360000E-01

  80  80   1    8 O    -4.12289270000E-01  3.34486050000E-01 -2.50313640000E-01

  81  81   1    8 O     2.80343970000E-01 -4.39304390000E-01  2.52270340000E-01

  82  82   1    8 O    -4.12269810000E-01  1.75530550000E-01 -2.47729660000E-01

  83  83   1    8 O     4.39263840000E-01 -2.80364580000E-01  2.48371950000E-01

  84  84   1    8 O    -2.53349940000E-01  3.34470360000E-01 -2.51628050000E-01

 NUMBER OF SYMMETRY OPERATORS         :    1
 *******************************************************************************
 * GEOMETRY EDITING - INPUT COORDINATES ARE GIVEN IN ANGSTROM         
 *******************************************************************************

 GCALCO - MAX INDICES DIRECT LATTICE VECTOR    12    12    20
 NO.OF VECTORS CREATED 6999 STARS 3500 RMAX   262.87005 BOHR

 GEOMETRY FOR WAVE FUNCTION - DIMENSIONALITY OF THE SYSTEM    3
 (NON PERIODIC DIRECTION: LATTICE PARAMETER FORMALLY SET TO 500)
 *******************************************************************************
 LATTICE PARAMETERS (ANGSTROMS AND DEGREES) - BOHR = 0.5291772083 ANGSTROM
 PRIMITIVE CELL - CENTRING CODE 1/0 VOLUME=  1602.948694 - DENSITY  0.808 g/cm^3
         A              B              C           ALPHA      BETA       GAMMA 
    15.02361100    15.02391600     8.20000000    90.000323  89.999944 119.995964
 *******************************************************************************
 ATOMS IN THE ASYMMETRIC UNIT   84 - ATOMS IN THE UNIT CELL:   84
     ATOM                 X/A                 Y/B                 Z/C    
 *******************************************************************************
      1 T   5 B    -3.863194600000E-01  2.273182200000E-01  2.505825300000E-01
      2 T   5 B    -7.893324000000E-02 -1.578468400000E-01 -2.494174700000E-01
      3 T   5 B    -2.272638000000E-01  3.863778800000E-01  2.505825300000E-01
      4 T   5 B     8.012242000000E-02  1.212820000000E-03 -2.494174700000E-01
      5 T   5 B    -3.863237300000E-01  3.863606700000E-01  2.493577500000E-01
      6 T   5 B    -7.893751000000E-02  1.195610000000E-03 -2.506422400000E-01
      7 T   5 B     2.272552500000E-01 -3.863667800000E-01  2.505825300000E-01
      8 T   5 B    -4.653585300000E-01  2.284681600000E-01 -2.494174600000E-01
      9 T   5 B     3.863632200000E-01 -3.863875500000E-01  2.505825300000E-01
     10 T   5 B    -3.062505600000E-01  2.284473900000E-01 -2.494174700000E-01
     11 T   5 B     3.863435000000E-01 -2.272483500000E-01  2.493577500000E-01
     12 T   5 B    -3.062702800000E-01  3.875865900000E-01 -2.506422400000E-01
     13 T   1 H    -9.695638000000E-02  3.089300500000E-01  2.480433200000E-01
     14 T   1 H     2.104298400000E-01 -7.623501000000E-02 -2.519566800000E-01
     15 T   1 H     9.663453000000E-02 -3.089465600000E-01  2.476550300000E-01
     16 T   1 H     4.040207500000E-01  3.058883800000E-01 -2.523449700000E-01
     17 T   1 H    -9.702858000000E-02 -4.059275700000E-01  2.475952700000E-01
     18 T   1 H     2.103576400000E-01  2.089073700000E-01 -2.524047300000E-01
     19 T   1 H     9.673618000000E-02  4.056849400000E-01  2.476101700000E-01
     20 T   1 H     4.041224000000E-01  2.051988000000E-02 -2.523898200000E-01
     21 T   1 H    -3.089676000000E-01  9.700412000000E-02  2.519567000000E-01
     22 T   1 H    -1.581380000000E-03 -2.881609400000E-01 -2.480433000000E-01
     23 T   1 H     3.089297200000E-01 -9.656269000000E-02  2.523450200000E-01
     24 T   1 H    -3.836840600000E-01 -4.817277500000E-01 -2.476549800000E-01
     25 T   1 H     4.058699900000E-01  9.704998000000E-02  2.524048100000E-01
     26 T   1 H    -2.867437900000E-01 -2.881150800000E-01 -2.475951900000E-01
     27 T   1 H    -4.056877900000E-01 -9.665268000000E-02  2.523898100000E-01
     28 T   1 H    -9.830157000000E-02 -4.818177400000E-01 -2.476101900000E-01
     29 T   1 H    -3.089272600000E-01 -4.059457900000E-01  2.480433400000E-01
     30 T   1 H    -1.541040000000E-03  2.088891500000E-01 -2.519566600000E-01
     31 T   1 H     3.089618300000E-01  4.056093300000E-01  2.476550100000E-01
     32 T   1 H    -3.836519500000E-01  2.044427000000E-02 -2.523449900000E-01
     33 T   1 H     4.058405700000E-01  3.088232500000E-01  2.475952200000E-01
     34 T   1 H    -2.867732100000E-01 -7.634181000000E-02 -2.524047800000E-01
     35 T   1 H    -4.057091200000E-01 -3.090420700000E-01  2.476102200000E-01
     36 T   1 H    -9.832290000000E-02  3.057928700000E-01 -2.523897800000E-01
     37 T   6 C    -1.081096900000E-01  4.459436900000E-01  2.493129400000E-01
     38 T   6 C     1.992765300000E-01  6.077863000000E-02 -2.506870600000E-01
     39 T   6 C    -5.351089000000E-02  3.927856300000E-01  2.481030700000E-01
     40 T   6 C     2.538753300000E-01  7.620570000000E-03 -2.518969200000E-01
     41 T   6 C     5.338812000000E-02 -3.928147000000E-01  2.479985600000E-01
     42 T   6 C     3.607743400000E-01  2.220202400000E-01 -2.520014400000E-01
     43 T   6 C    -5.354789000000E-02 -4.463078100000E-01  2.483122200000E-01
     44 T   6 C     2.538383300000E-01  1.685271300000E-01 -2.516877800000E-01
     45 T   6 C     5.342634000000E-02  4.462499700000E-01  2.475056200000E-01
     46 T   6 C     3.608125600000E-01  6.108491000000E-02 -2.524943800000E-01
     47 T   6 C     1.080358900000E-01 -4.459643700000E-01  2.483271400000E-01
     48 T   6 C     4.154221100000E-01  1.688705700000E-01 -2.516728600000E-01
     49 T   6 C    -4.459605800000E-01  1.081684600000E-01  2.506871000000E-01
     50 T   6 C    -1.385743600000E-01 -2.769966000000E-01 -2.493129000000E-01
     51 T   6 C    -3.928221500000E-01  5.355594000000E-02  2.518969300000E-01
     52 T   6 C    -8.543593000000E-02 -3.316091200000E-01 -2.481030700000E-01
     53 T   6 C     3.927986700000E-01 -5.333684000000E-02  2.520014900000E-01
     54 T   6 C    -2.998151100000E-01 -4.385019000000E-01 -2.479985100000E-01
     55 T   6 C     4.462875800000E-01  5.360286000000E-02  2.516878400000E-01
     56 T   6 C    -2.463262000000E-01 -3.315622000000E-01 -2.483121600000E-01
     57 T   6 C    -4.462831500000E-01 -5.337644000000E-02  2.524943800000E-01
     58 T   6 C    -1.388969300000E-01 -4.385415000000E-01 -2.475056200000E-01
     59 T   6 C     4.459279100000E-01 -1.080079400000E-01  2.516728900000E-01
     60 T   6 C    -2.466858700000E-01 -4.931730000000E-01 -2.483271200000E-01
     61 T   6 C    -4.459551300000E-01  4.458745500000E-01  2.493129400000E-01
     62 T   6 C    -1.385689100000E-01  6.070949000000E-02 -2.506870600000E-01
     63 T   6 C    -3.927897800000E-01 -4.463742200000E-01  2.481031000000E-01
     64 T   6 C    -8.540356000000E-02  1.684607200000E-01 -2.518969000000E-01
     65 T   6 C     3.928233700000E-01  4.461720300000E-01  2.479985400000E-01
     66 T   6 C    -2.997904100000E-01  6.100697000000E-02 -2.520014600000E-01
     67 T   6 C     4.462872600000E-01  3.926899900000E-01  2.483121800000E-01
     68 T   6 C    -2.463265200000E-01  7.524930000000E-03 -2.516878100000E-01
     69 T   6 C    -4.462570400000E-01 -3.929020000000E-01  2.475056500000E-01
     70 T   6 C    -1.388708200000E-01  2.219329400000E-01 -2.524943500000E-01
     71 T   6 C     4.459599800000E-01 -4.460417700000E-01  2.483271400000E-01
     72 T   6 C    -2.466538000000E-01  1.687931700000E-01 -2.516728600000E-01
     73 T   8 O    -4.392633200000E-01  2.803706300000E-01  2.496863500000E-01
     74 T   8 O    -1.318771000000E-01 -1.047944300000E-01 -2.503136500000E-01
     75 T   8 O    -2.803183000000E-01  2.803783300000E-01  2.522703400000E-01
     76 T   8 O     2.706792000000E-02 -1.047867300000E-01 -2.477296700000E-01
     77 T   8 O    -2.803205800000E-01  4.393234600000E-01  2.483719600000E-01
     78 T   8 O     2.706564000000E-02  5.415840000000E-02 -2.516280400000E-01
     79 T   8 O     2.803245100000E-01 -2.803488900000E-01  2.496863600000E-01
     80 T   8 O    -4.122892700000E-01  3.344860500000E-01 -2.503136400000E-01
     81 T   8 O     2.803439700000E-01 -4.393043900000E-01  2.522703400000E-01
     82 T   8 O    -4.122698100000E-01  1.755305500000E-01 -2.477296600000E-01
     83 T   8 O     4.392638400000E-01 -2.803645800000E-01  2.483719500000E-01
     84 T   8 O    -2.533499400000E-01  3.344703600000E-01 -2.516280500000E-01

 T = ATOM BELONGING TO THE ASYMMETRIC UNIT

 ****    1 SYMMOPS - TRANSLATORS IN FRACTIONAL UNITS
 **** MATRICES AND TRANSLATORS IN THE CRYSTALLOGRAPHIC REFERENCE FRAME
   V INV                    ROTATION MATRICES                   TRANSLATORS
   1   1  1.00  0.00  0.00  0.00  1.00  0.00  0.00  0.00  1.00  0.00  0.00  0.00

 DIRECT LATTICE VECTORS CARTESIAN COMPONENTS (ANGSTROM)
          X                    Y                    Z
   0.130113578931E+02  -0.751088897922E+01   0.000000000000E+00
   0.000000000000E+00   0.150239160000E+02   0.000000000000E+00
  -0.174306773528E-04  -0.462267905665E-04   0.819999999985E+01


 CARTESIAN COORDINATES - PRIMITIVE CELL
 *******************************************************************************
 *      ATOM          X(ANGSTROM)         Y(ANGSTROM)         Z(ANGSTROM)
 *******************************************************************************
    1     5 B    -5.026545122936E+00  6.316800833494E+00  2.054776745963E+00
    2     5 B    -1.027024287783E+00 -1.778607332846E+00 -2.045223253963E+00
    3     5 B    -2.957015005759E+00  7.511850400547E+00  2.054776745963E+00
    4     5 B     1.042505829393E+00 -5.835577657939E-01 -2.045223253963E+00
    5     5 B    -5.026600660085E+00 -6.317642629158E+00  2.044733549963E+00
    6     5 B    -1.027079824933E+00  6.108652045009E-01 -2.055266367963E+00
    7     5 B     2.956895023003E+00 -7.511642584231E+00  2.054776745963E+00
    8     5 B     6.956415858155E+00 -5.831347505718E-01 -2.045223171963E+00
    9     5 B     5.027105764311E+00  6.316919070655E+00  2.054776745963E+00
   10     5 B    -3.984731293594E+00  5.732399883531E+00 -2.045223253963E+00
   11     5 B     5.026849201682E+00 -6.315954784889E+00  2.044733549963E+00
   12     5 B    -3.984987856223E+00 -6.900473972014E+00 -2.055266367963E+00
   13     1 H    -1.261538483758E+00  5.369556260836E+00  2.033955223963E+00
   14     1 H     2.737982351394E+00 -2.725851905505E+00 -2.066044775963E+00
   15     1 H     1.257342137862E+00 -5.367409840615E+00  2.030771245963E+00
   16     1 H     5.256862973015E+00  1.561097993044E+00 -2.069228753962E+00
   17     1 H    -1.262477895988E+00 -5.369862267108E+00  2.030281213963E+00
   18     1 H     2.737042939164E+00  1.558645566552E+00 -2.069718785962E+00
   19     1 H     1.258664743174E+00  5.368390306548E+00  2.030403393963E+00
   20     1 H     5.258185578326E+00 -2.727017859793E+00 -2.069596523962E+00
   21     1 H    -4.020092412735E+00  3.777991445159E+00  2.066044939963E+00
   22     1 H    -2.057157758219E-02 -4.317416721181E+00 -2.033955059963E+00
   23     1 H     4.019590752177E+00 -3.771098237695E+00  2.069229163962E+00
   24     1 H    -4.992246305727E+00 -4.355617424819E+00 -2.030770835963E+00
   25     1 H     5.280915298354E+00 -1.590385355428E+00  2.069719441962E+00
   26     1 H    -3.730921759550E+00 -2.174904542553E+00 -2.030280557963E+00
   27     1 H    -5.278553427859E+00  1.594962538248E+00  2.069596441962E+00
   28     1 H    -1.279032592706E+00 -6.500445628093E+00 -2.030403557963E+00
   29     1 H    -4.019567466345E+00 -3.778588563248E+00  2.033955387963E+00
   30     1 H    -2.004663119227E-02  3.149919270412E+00 -2.066044611963E+00
   31     1 H     4.020008628629E+00  3.773251050494E+00  2.030771081963E+00
   32     1 H    -4.991828429275E+00  3.188731863370E+00 -2.069228917962E+00
   33     1 H     5.280532588040E+00  1.591499656783E+00  2.030280803963E+00
   34     1 H    -3.731304469864E+00  1.006980469658E+00 -2.069719195962E+00
   35     1 H    -5.278830876811E+00 -1.595797388196E+00  2.030403803963E+00
   36     1 H    -1.279310041658E+00  5.332710445463E+00 -2.069596195962E+00
   37     6 C    -1.406658213991E+00  7.511808893520E+00  2.044366107963E+00
   38     6 C     2.592862621162E+00 -5.835992728202E-01 -2.055633891963E+00
   39     6 C    -6.962536655705E-01  6.303081196087E+00  2.034445173963E+00
   40     6 C     3.303267169582E+00 -1.792326970254E+00 -2.065554743963E+00
   41     6 C     6.946476137746E-01 -6.302618762672E+00  2.033588191963E+00
   42     6 C     4.694168448927E+00  6.258890709875E-01 -2.066411807962E+00
   43     6 C    -6.967350894582E-01 -6.303110269400E+00  2.036160203963E+00
   44     6 C     3.302785745694E+00  6.253975642597E-01 -2.063839795963E+00
   45     6 C     6.951449164655E-01  6.303131314586E+00  2.029546083963E+00
   46     6 C     4.694665751618E+00 -1.792276851754E+00 -2.070453915962E+00
   47     6 C     1.405689301575E+00 -7.511588288800E+00  2.036282547963E+00
   48     6 C     5.405210136727E+00 -5.830804551411E-01 -2.063717451963E+00
   49     6 C     7.208800810836E+00 -2.536226305300E+00  2.055634219963E+00
   50     6 C    -1.803036247069E+00 -3.120745492424E+00 -2.044365779963E+00
   51     6 C    -5.111153972704E+00  3.755051856702E+00  2.065554825963E+00
   52     6 C    -1.111633137552E+00 -4.340356309639E+00 -2.034445173963E+00
   53     6 C     5.110839682730E+00 -3.751607054639E+00  2.066412217962E+00
   54     6 C    -3.900997375174E+00 -4.336126241764E+00 -2.033587781963E+00
   55     6 C     5.806803039517E+00 -2.546703234904E+00  2.063840287963E+00
   56     6 C    -3.205034018387E+00 -3.131222422029E+00 -2.036159711963E+00
   57     6 C    -5.806754187439E+00  2.550048370001E+00  2.070453915962E+00
   58     6 C    -1.807233352286E+00 -5.545359796340E+00 -2.029546083963E+00
   59     6 C     5.802123244684E+00 -4.972028876667E+00  2.063717697963E+00
   60     6 C    -3.209713813220E+00 -5.556548063791E+00 -2.036282383963E+00
   61     6 C     7.208871746689E+00  2.537400752726E+00  2.044366107963E+00
   62     6 C    -1.802965311215E+00  1.952881565602E+00 -2.055633891963E+00
   63     6 C    -5.110732728920E+00 -3.756099825105E+00  2.034445419963E+00
   64     6 C    -1.111211893768E+00  3.172408008555E+00 -2.065554579963E+00
   65     6 C     5.111161133044E+00  3.752786915581E+00  2.033588027963E+00
   66     6 C    -3.900675924860E+00  3.168267728457E+00 -2.066411971962E+00
   67     6 C     5.806798934722E+00  2.547715882427E+00  2.036159875963E+00
   68     6 C    -3.205038123182E+00  1.963196695302E+00 -2.063840041963E+00
   69     6 C    -5.806414373927E+00 -2.551151001990E+00  2.029546329963E+00
   70     6 C    -1.806893538775E+00  4.377356831669E+00 -2.070453669962E+00
   71     6 C     5.802540577250E+00  4.973054536708E+00  2.036282547963E+00
   72     6 C    -3.209296480654E+00  4.388535349584E+00 -2.063717451963E+00
   73     8 O     7.295941275042E+00  6.223017340462E-04  2.047428069963E+00
   74     8 O    -1.715895782862E+00 -5.838968853902E-01 -2.052571929963E+00
   75     8 O    -3.647326122516E+00  6.317808446635E+00  2.068616787962E+00
   76     8 O     3.521947126366E-01 -1.777599719705E+00 -2.031383293963E+00
   77     8 O    -3.647355720461E+00 -6.318111966600E+00  2.036650071963E+00
   78     8 O     3.521651146918E-01  6.103958670597E-01 -2.063349927963E+00
   79     8 O     3.647398173603E+00 -6.317435989016E+00  2.047428151963E+00
   80     8 O     7.646919008756E+00  6.110718446438E-01 -2.052571847963E+00
   81     8 O     3.647651329587E+00  6.318199649898E+00  2.068616787962E+00
   82     8 O     7.647172164740E+00 -1.777208516443E+00 -2.031383211963E+00
   83     8 O    -7.295943190630E+00 -5.583363412392E-04  2.036649989963E+00
   84     8 O    -3.296422355477E+00  6.927949497318E+00 -2.063350009963E+00

 *******************************************************************************
 STARTING BASIS SET HANDLING 
 *******************************************************************************

 Loading internal basis set: SOLDEF2MSVP         

 Please cite in your publication:
 L. Dona', J. G. Brandenburg and B. Civalleri, J. Chem. Phys., 151, 121101 (2019
 )                                                                              
                                                                                
                    

 *******************************************************************************
 LOCAL ATOMIC FUNCTIONS BASIS SET
 *******************************************************************************
   ATOM   X(AU)   Y(AU)   Z(AU)  N. TYPE  EXPONENT  S COEF   P COEF   D/F/G COEF
 *******************************************************************************
   1 B   -9.499  11.937   3.883
                                  1 S  
                                         2.410E+03 1.755E-03 0.000E+00 0.000E+00
                                         3.619E+02 1.344E-02 0.000E+00 0.000E+00
                                         8.231E+01 6.637E-02 0.000E+00 0.000E+00
                                         2.311E+01 2.303E-01 0.000E+00 0.000E+00
                                         7.252E+00 5.150E-01 0.000E+00 0.000E+00
                                  2 S  
                                         2.367E+00 1.000E+00 0.000E+00 0.000E+00
                                  3 S  
                                         5.533E-01 1.000E+00 0.000E+00 0.000E+00
                                  4 S  
                                         1.716E-01 1.000E+00 0.000E+00 0.000E+00
                           5-     7 P  
                                         6.002E+00 0.000E+00-3.555E-02 0.000E+00
                                         1.240E+00 0.000E+00-1.983E-01 0.000E+00
                                         3.367E-01 0.000E+00-5.048E-01 0.000E+00
                           8-    10 P  
                                         1.256E-01 0.000E+00 1.000E+00 0.000E+00
                          11-    15 D  
                                         8.880E-01 0.000E+00 0.000E+00 1.000E+00
   2 B   -1.941  -3.361  -3.865
   3 B   -5.588  14.195   3.883
   4 B    1.970  -1.103  -3.865
   5 B   -9.499 -11.939   3.864
   6 B   -1.941   1.154  -3.884
   7 B    5.588 -14.195   3.883
   8 B   13.146  -1.102  -3.865
   9 B    9.500  11.937   3.883
  10 B   -7.530  10.833  -3.865
  11 B    9.499 -11.935   3.864
  12 B   -7.531 -13.040  -3.884
  13 H   -2.384  10.147   3.844
                                181 S  
                                         1.874E+01 1.968E-02 0.000E+00 0.000E+00
                                         2.826E+00 1.380E-01 0.000E+00 0.000E+00
                                         6.401E-01 4.783E-01 0.000E+00 0.000E+00
                                182 S  
                                         1.756E-01 1.000E+00 0.000E+00 0.000E+00
  14 H    5.174  -5.151  -3.904
  15 H    2.376 -10.143   3.838
  16 H    9.934   2.950  -3.910
  17 H   -2.386 -10.148   3.837
  18 H    5.172   2.945  -3.911
  19 H    2.379  10.145   3.837
  20 H    9.937  -5.153  -3.911
  21 H   -7.597   7.139   3.904
  22 H   -0.039  -8.159  -3.844
  23 H    7.596  -7.126   3.910
  24 H   -9.434  -8.231  -3.838
  25 H    9.979  -3.005   3.911
  26 H   -7.050  -4.110  -3.837
  27 H   -9.975   3.014   3.911
  28 H   -2.417 -12.284  -3.837
  29 H   -7.596  -7.140   3.844
  30 H   -0.038   5.952  -3.904
  31 H    7.597   7.130   3.838
  32 H   -9.433   6.026  -3.910
  33 H    9.979   3.007   3.837
  34 H   -7.051   1.903  -3.911
  35 H   -9.976  -3.016   3.837
  36 H   -2.418  10.077  -3.911
  37 C   -2.658  14.195   3.863
                                229 S  
                                         3.624E+03 1.634E-03 0.000E+00 0.000E+00
                                         5.440E+02 1.252E-02 0.000E+00 0.000E+00
                                         1.237E+02 6.211E-02 0.000E+00 0.000E+00
                                         3.476E+01 2.182E-01 0.000E+00 0.000E+00
                                         1.093E+01 4.980E-01 0.000E+00 0.000E+00
                                230 S  
                                         3.574E+00 1.000E+00 0.000E+00 0.000E+00
                                231 S  
                                         7.742E-01 1.000E+00 0.000E+00 0.000E+00
                                232 S  
                                         2.330E-01 1.000E+00 0.000E+00 0.000E+00
                         233-   235 P  
                                         9.443E+00 0.000E+00 3.790E-02 0.000E+00
                                         2.002E+00 0.000E+00 2.082E-01 0.000E+00
                                         5.463E-01 0.000E+00 5.047E-01 0.000E+00
                         236-   238 P  
                                         1.820E-01 0.000E+00 1.000E+00 0.000E+00
                         239-   243 D  
                                         8.880E-01 0.000E+00 0.000E+00 1.000E+00
  38 C    4.900  -1.103  -3.885
  39 C   -1.316  11.911   3.845
  40 C    6.242  -3.387  -3.903
  41 C    1.313 -11.910   3.843
  42 C    8.871   1.183  -3.905
  43 C   -1.317 -11.911   3.848
  44 C    6.241   1.182  -3.900
  45 C    1.314  11.911   3.835
  46 C    8.872  -3.387  -3.913
  47 C    2.656 -14.195   3.848
  48 C   10.214  -1.102  -3.900
  49 C   13.623  -4.793   3.885
  50 C   -3.407  -5.897  -3.863
  51 C   -9.659   7.096   3.903
  52 C   -2.101  -8.202  -3.845
  53 C    9.658  -7.090   3.905
  54 C   -7.372  -8.194  -3.843
  55 C   10.973  -4.813   3.900
  56 C   -6.057  -5.917  -3.848
  57 C  -10.973   4.819   3.913
  58 C   -3.415 -10.479  -3.835
  59 C   10.964  -9.396   3.900
  60 C   -6.065 -10.500  -3.848
  61 C   13.623   4.795   3.863
  62 C   -3.407   3.690  -3.885
  63 C   -9.658  -7.098   3.845
  64 C   -2.100   5.995  -3.903
  65 C    9.659   7.092   3.843
  66 C   -7.371   5.987  -3.905
  67 C   10.973   4.814   3.848
  68 C   -6.057   3.710  -3.900
  69 C  -10.973  -4.821   3.835
  70 C   -3.415   8.272  -3.913
  71 C   10.965   9.398   3.848
  72 C   -6.065   8.293  -3.900
  73 O   13.787   0.001   3.869
                                769 S  
                                         6.773E+03 1.727E-03 0.000E+00 0.000E+00
                                         1.017E+03 1.325E-02 0.000E+00 0.000E+00
                                         2.313E+02 6.603E-02 0.000E+00 0.000E+00
                                         6.501E+01 2.353E-01 0.000E+00 0.000E+00
                                         2.050E+01 5.498E-01 0.000E+00 0.000E+00
                                770 S  
                                         6.716E+00 1.000E+00 0.000E+00 0.000E+00
                                771 S  
                                         1.147E+00 1.000E+00 0.000E+00 0.000E+00
                                772 S  
                                         3.342E-01 1.000E+00 0.000E+00 0.000E+00
                         773-   775 P  
                                         1.769E+01 0.000E+00 4.359E-02 0.000E+00
                                         3.854E+00 0.000E+00 2.318E-01 0.000E+00
                                         1.047E+00 0.000E+00 5.146E-01 0.000E+00
                         776-   778 P  
                                         2.759E-01 0.000E+00 1.000E+00 0.000E+00
                         779-   783 D  
                                         8.000E-01 0.000E+00 0.000E+00 1.000E+00
  74 O   -3.243  -1.103  -3.879
  75 O   -6.892  11.939   3.909
  76 O    0.666  -3.359  -3.839
  77 O   -6.893 -11.940   3.849
  78 O    0.665   1.153  -3.899
  79 O    6.893 -11.938   3.869
  80 O   14.451   1.155  -3.879
  81 O    6.893  11.940   3.909
  82 O   14.451  -3.358  -3.839
  83 O  -13.787  -0.001   3.849
  84 O   -6.229  13.092  -3.899

 *******************************************************************************
 FINISHED BASIS SET HANDLING 
 *******************************************************************************

 INFORMATION **** SET_MPP **** PCRYSTAL CALCULATION
 INFORMATION **** READM2 **** NEW DEFAULT: FOCK/KS MATRIX MIXING SET TO 30 %
 INFORMATION **** READM2 **** NEW DEFAULT: FULL DIRECT SCF MODE
 INFORMATION **** READM2 **** NEW DEFAULT: COULOMB BIPOLAR BUFFER SET TO 32 Mb
 INFORMATION **** READM2 **** NEW DEFAULT: EXCHANGE BIPOLAR BUFFER SET TO 32 Mb

 *******************************************************************************
 NEW DEFAULT: DFT INTEGRATION GRID INCREASED TO XLGRID
 NEW DEFAULT: DIIS ACCELERATOR ACTIVE
 USE KEYWORD NODIIS TO TURN IT OFF
 *******************************************************************************

 WARNING **** RDDFTP **** HSEsol-HJS ACTIVE
 RANGE SEPARATION - OMEGA:   0.110000000000000     
 WARNING **** RDDFTP **** HSEsol-3c has to be combined with sol-def2-mSVP basis set
 *******************************************************************************
 N. OF ATOMS PER CELL        84  COULOMB OVERLAP TOL         (T1) 10**   -6
 NUMBER OF SHELLS           468  COULOMB PENETRATION TOL     (T2) 10**   -6
 NUMBER OF AO               948  EXCHANGE OVERLAP TOL        (T3) 10**   -6
 N. OF ELECTRONS PER CELL   396  EXCHANGE PSEUDO OVP (F(G))  (T4) 10**   -6
 CORE ELECTRONS PER CELL    120  EXCHANGE PSEUDO OVP (P(G))  (T5) 10**  -12
 N. OF SYMMETRY OPERATORS     1  POLE ORDER IN MONO ZONE                  4
 *******************************************************************************
 TYPE OF CALCULATION :  RESTRICTED CLOSED SHELL
 KOHN-SHAM HAMILTONIAN

 (EXCHANGE)[CORRELATION] FUNCTIONAL:(HSEsol GGA)[PBEsol]

 RANGE-SEPARATED HYBRID FUNCTIONAL 
 OMEGA (SHORT-RANGE)[LONG-RANGE]:(    0.1100)[    0.0000]

 HYBRID EXCHANGE - PERCENTAGE OF FOCK EXCHANGE    25.0000

 CAPPA:IS1  2;IS2  2;IS3  8; K PTS MONK NET  20; SYMMOPS:K SPACE   2;G SPACE   1

 *******************************************************************************
 MAX NUMBER OF SCF CYCLES      50  CONVERGENCE ON DELTAP        10**-16
 WEIGHT OF F(I) IN F(I+1)      30% CONVERGENCE ON ENERGY        10**- 6
 SHRINK. FACT.(MONKH.)    2  2  8  NUMBER OF K POINTS IN THE IBZ     20
 SHRINKING FACTOR(GILAT NET)    8  NUMBER OF K POINTS(GILAT NET)   1028
 *******************************************************************************
 *** K POINTS COORDINATES (OBLIQUE COORDINATES IN UNITS OF IS =  2)
   1-R(  0  0  0)   2-R(  1  0  0)   3-R(  0  1  0)   4-R(  1  1  0)
   5-C(  0  0  1)   6-C(  1  0  1)   7-C(  0  1  1)   8-C(  1  1  1)
   9-C(  0  0  2)  10-C(  1  0  2)  11-C(  0  1  2)  12-C(  1  1  2)
  13-C(  0  0  3)  14-C(  1  0  3)  15-C(  0  1  3)  16-C(  1  1  3)
  17-R(  0  0  4)  18-R(  1  0  4)  19-R(  0  1  4)  20-R(  1  1  4)

 DIRECT LATTICE VECTORS COMPON. (A.U.)     RECIP. LATTICE VECTORS COMPON. (A.U.) 
        X            Y            Z              X            Y            Z
   24.5879030  -14.1935232    0.0000000      0.2555397    0.0000000    0.0000005
    0.0000000   28.3910867    0.0000000      0.1277517    0.2213084    0.0000015
   -0.0000329   -0.0000874   15.4957543      0.0000000    0.0000000    0.4054779

 DISK SPACE FOR EIGENVECTORS (FTN 10)    28758528 REALS

 SYMMETRY ADAPTION OF THE BLOCH FUNCTIONS DISABLED
 TTTTTTTTTTTTTTTTTTTTTTTTTTTTTT gordsh1     TELAPSE        0.06 TCPU        0.06

 MATRIX SIZE: P(G)  585050, F(G)  113625, P(G) IRR  294427, F(G) IRR  114585
 MAX G-VECTOR INDEX FOR 1- AND 2-ELECTRON INTEGRALS  53

 TTTTTTTTTTTTTTTTTTTTTTTTTTTTTT INPUT       TELAPSE        2.54 TCPU        2.53

 NEIGHBORS OF THE NON-EQUIVALENT ATOMS

 N = NUMBER OF NEIGHBORS AT DISTANCE R
    ATOM  N     R/ANG      R/AU   NEIGHBORS (ATOM LABELS AND CELL INDICES)
   1 B    1     1.3791     2.6061   73 O   -1 0 0
   1 B    1     1.3793     2.6065   75 O    0 0 0
   1 B    1     1.5503     2.9297   49 C   -1 0 0
   1 B    1     2.3895     4.5155    5 B    0 1 0
   1 B    1     2.3898     4.5160    3 B    0 0 0
   1 B    1     2.5632     4.8437   51 C    0 0 0

   2 B    1     1.3791     2.6061   74 O    0 0 0
   2 B    1     1.3793     2.6065   76 O    0 0 0
   2 B    1     1.5503     2.9297   50 C    0 0 0
   2 B    1     2.3895     4.5155    6 B    0 0 0
   2 B    1     2.3898     4.5160    4 B    0 0 0
   2 B    1     2.5632     4.8437   52 C    0 0 0

   3 B    1     1.3793     2.6065   77 O    0 1 0
   3 B    1     1.3793     2.6065   75 O    0 0 0
   3 B    1     1.5504     2.9298   37 C    0 0 0
   3 B    1     2.3895     4.5156    5 B    0 1 0
   3 B    1     2.3898     4.5160    1 B    0 0 0
   3 B    1     2.5634     4.8440   43 C    0 1 0

   4 B    1     1.3793     2.6065   78 O    0 0 0
   4 B    1     1.3793     2.6065   76 O    0 0 0
   4 B    1     1.5504     2.9298   38 C    0 0 0
   4 B    1     2.3895     4.5156    6 B    0 0 0
   4 B    1     2.3898     4.5160    2 B    0 0 0
   4 B    1     2.5634     4.8440   44 C    0 0 0

   5 B    1     1.3791     2.6061   73 O   -1-1 0
   5 B    1     1.3793     2.6064   77 O    0 0 0
   5 B    1     1.5502     2.9294   61 C   -1-1 0
   5 B    1     2.3895     4.5155    1 B    0-1 0
   5 B    1     2.3895     4.5156    3 B    0-1 0
   5 B    1     2.5629     4.8433   63 C    0 0 0

   6 B    1     1.3791     2.6061   74 O    0 0 0
   6 B    1     1.3793     2.6064   78 O    0 0 0
   6 B    1     1.5502     2.9294   62 C    0 0 0
   6 B    1     2.3895     4.5155    2 B    0 0 0
   6 B    1     2.3895     4.5156    4 B    0 0 0
   6 B    1     2.5629     4.8433   64 C    0 0 0

   7 B    1     1.3795     2.6068   79 O    0 0 0
   7 B    1     1.3795     2.6070   81 O    0-1 0
   7 B    1     1.5513     2.9316   47 C    0 0 0
   7 B    1     2.3905     4.5174   11 B    0 0 0
   7 B    1     2.3905     4.5175    9 B    0-1 0
   7 B    1     2.5648     4.8468   45 C    0-1 0

   8 B    1     1.3795     2.6068   80 O    0 0 0
   8 B    1     1.3795     2.6070   82 O    0 0 0
   8 B    1     1.5513     2.9316   48 C    0 0 0
   8 B    1     2.3905     4.5174   12 B    1 1 0
   8 B    1     2.3905     4.5175   10 B    1 0 0
   8 B    1     2.5648     4.8468   46 C    0 0 0

   9 B    1     1.3795     2.6069   81 O    0 0 0
   9 B    1     1.3797     2.6072   83 O    1 1 0
   9 B    1     1.5516     2.9322   71 C    0 0 0
   9 B    1     2.3905     4.5175    7 B    0 1 0
   9 B    1     2.3911     4.5185   11 B    0 1 0
   9 B    1     2.5651     4.8473   69 C    1 1 0

  10 B    1     1.3795     2.6069   82 O   -1 0 0
  10 B    1     1.3797     2.6072   84 O    0 0 0
  10 B    1     1.5516     2.9322   72 C    0 0 0
  10 B    1     2.3905     4.5175    8 B   -1 0 0
  10 B    1     2.3911     4.5185   12 B    0 1 0
  10 B    1     2.5651     4.8473   70 C    0 0 0

  11 B    1     1.3795     2.6068   79 O    0 0 0
  11 B    1     1.3796     2.6071   83 O    1 0 0
  11 B    1     1.5516     2.9322   59 C    0 0 0
  11 B    1     2.3905     4.5174    7 B    0 0 0
  11 B    1     2.3911     4.5185    9 B    0-1 0
  11 B    1     2.5651     4.8473   57 C    1 0 0

  12 B    1     1.3795     2.6068   80 O   -1-1 0
  12 B    1     1.3796     2.6071   84 O    0-1 0
  12 B    1     1.5516     2.9322   60 C    0 0 0
  12 B    1     2.3905     4.5174    8 B   -1-1 0
  12 B    1     2.3911     4.5185   10 B    0-1 0
  12 B    1     2.5651     4.8473   58 C    0 0 0

  13 H    1     1.0913     2.0623   39 C    0 0 0
  13 H    1     2.1472     4.0576   37 C    0 0 0
  13 H    1     2.1680     4.0969   45 C    0 0 0
  13 H    1     2.5202     4.7625   19 H    0 0 0
  13 H    1     2.5676     4.8520   75 O    0 0 0
  13 H    1     2.7321     5.1630    3 B    0 0 0

  14 H    1     1.0913     2.0623   40 C    0 0 0
  14 H    1     2.1472     4.0576   38 C    0 0 0
  14 H    1     2.1680     4.0969   46 C    0 0 0
  14 H    1     2.5202     4.7625   20 H    0 0 0
  14 H    1     2.5676     4.8520   76 O    0 0 0
  14 H    1     2.7321     5.1630    4 B    0 0 0

  15 H    1     1.0914     2.0625   41 C    0 0 0
  15 H    1     2.1493     4.0616   47 C    0 0 0
  15 H    1     2.1666     4.0942   43 C    0 0 0
  15 H    1     2.5198     4.7618   17 H    0 0 0
  15 H    1     2.5720     4.8604   79 O    0 0 0
  15 H    1     2.7362     5.1707    7 B    0 0 0

  16 H    1     1.0914     2.0625   42 C    0 0 0
  16 H    1     2.1493     4.0616   48 C    0 0 0
  16 H    1     2.1666     4.0942   44 C    0 0 0
  16 H    1     2.5198     4.7618   18 H    0 0 0
  16 H    1     2.5720     4.8604   80 O    0 0 0
  16 H    1     2.7362     5.1707    8 B    0 0 0

  17 H    1     1.0914     2.0624   43 C    0 0 0
  17 H    1     2.1471     4.0575   37 C    0-1 0
  17 H    1     2.1680     4.0970   41 C    0 0 0
  17 H    1     2.5198     4.7618   15 H    0 0 0
  17 H    1     2.5665     4.8500   77 O    0 0 0
  17 H    1     2.7315     5.1618    3 B    0-1 0

  18 H    1     1.0914     2.0624   44 C    0 0 0
  18 H    1     2.1471     4.0575   38 C    0 0 0
  18 H    1     2.1680     4.0970   42 C    0 0 0
  18 H    1     2.5198     4.7618   16 H    0 0 0
  18 H    1     2.5665     4.8500   78 O    0 0 0
  18 H    1     2.7315     5.1618    4 B    0 0 0

  19 H    1     1.0915     2.0626   45 C    0 0 0
  19 H    1     2.1490     4.0610   47 C    0 1 0
  19 H    1     2.1669     4.0948   39 C    0 0 0
  19 H    1     2.5202     4.7625   13 H    0 0 0
  19 H    1     2.5712     4.8588   81 O    0 0 0
  19 H    1     2.7351     5.1686    7 B    0 1 0

  20 H    1     1.0915     2.0626   46 C    0 0 0
  20 H    1     2.1490     4.0610   48 C    0 0 0
  20 H    1     2.1669     4.0948   40 C    0 0 0
  20 H    1     2.5202     4.7625   14 H    0 0 0
  20 H    1     2.5712     4.8588   82 O    0 0 0
  20 H    1     2.7351     5.1686    8 B    0 0 0

  21 H    1     1.0913     2.0623   51 C    0 0 0
  21 H    1     2.1469     4.0571   49 C   -1 0 0
  21 H    1     2.1680     4.0968   57 C    0 0 0
  21 H    1     2.5198     4.7617   27 H    0 0 0
  21 H    1     2.5670     4.8510   75 O    0 0 0
  21 H    1     2.7310     5.1609    1 B    0 0 0

  22 H    1     1.0913     2.0623   52 C    0 0 0
  22 H    1     2.1469     4.0571   50 C    0 0 0
  22 H    1     2.1680     4.0968   58 C    0 0 0
  22 H    1     2.5198     4.7617   28 H    0 0 0
  22 H    1     2.5670     4.8510   76 O    0 0 0
  22 H    1     2.7310     5.1609    2 B    0 0 0

  23 H    1     1.0914     2.0625   53 C    0 0 0
  23 H    1     2.1493     4.0617   59 C    0 0 0
  23 H    1     2.1664     4.0939   55 C    0 0 0
  23 H    1     2.5192     4.7606   25 H    0 0 0
  23 H    1     2.5735     4.8632   79 O    0 0 0
  23 H    1     2.7371     5.1723   11 B    0 0 0

  24 H    1     1.0914     2.0625   54 C    0 0 0
  24 H    1     2.1493     4.0617   60 C    0 0 0
  24 H    1     2.1664     4.0939   56 C    0 0 0
  24 H    1     2.5192     4.7606   26 H    0 0 0
  24 H    1     2.5735     4.8632   80 O   -1-1 0
  24 H    1     2.7371     5.1723   12 B    0 0 0

  25 H    1     1.0914     2.0624   55 C    0 0 0
  25 H    1     2.1475     4.0581   49 C    0 0 0
  25 H    1     2.1679     4.0967   53 C    0 0 0
  25 H    1     2.5192     4.7606   23 H    0 0 0
  25 H    1     2.5675     4.8519   73 O    0 0 0
  25 H    1     2.7328     5.1643    1 B    1 0 0

  26 H    1     1.0914     2.0624   56 C    0 0 0
  26 H    1     2.1475     4.0581   50 C    0 0 0
  26 H    1     2.1679     4.0967   54 C    0 0 0
  26 H    1     2.5192     4.7606   24 H    0 0 0
  26 H    1     2.5675     4.8519   74 O    0 0 0
  26 H    1     2.7328     5.1643    2 B    0 0 0

  27 H    1     1.0914     2.0625   57 C    0 0 0
  27 H    1     2.1491     4.0612   59 C   -1 0 0
  27 H    1     2.1666     4.0942   51 C    0 0 0
  27 H    1     2.5198     4.7617   21 H    0 0 0
  27 H    1     2.5723     4.8609   83 O    0 0 0
  27 H    1     2.7355     5.1693   11 B   -1 0 0

  28 H    1     1.0914     2.0625   58 C    0 0 0
  28 H    1     2.1491     4.0612   60 C    0 0 0
  28 H    1     2.1666     4.0942   52 C    0 0 0
  28 H    1     2.5198     4.7617   22 H    0 0 0
  28 H    1     2.5723     4.8609   84 O    0-1 0
  28 H    1     2.7355     5.1693   12 B    0 0 0

  29 H    1     1.0914     2.0624   63 C    0 0 0
  29 H    1     2.1475     4.0582   61 C   -1-1 0
  29 H    1     2.1678     4.0966   69 C    0 0 0
  29 H    1     2.5200     4.7621   35 H    0 0 0
  29 H    1     2.5667     4.8503   77 O    0 0 0
  29 H    1     2.7315     5.1618    5 B    0 0 0

  30 H    1     1.0914     2.0624   64 C    0 0 0
  30 H    1     2.1475     4.0582   62 C    0 0 0
  30 H    1     2.1678     4.0966   70 C    0 0 0
  30 H    1     2.5200     4.7621   36 H    0 0 0
  30 H    1     2.5667     4.8503   78 O    0 0 0
  30 H    1     2.7315     5.1618    6 B    0 0 0

  31 H    1     1.0913     2.0623   65 C    0 0 0
  31 H    1     2.1487     4.0605   71 C    0 0 0
  31 H    1     2.1667     4.0945   67 C    0 0 0
  31 H    1     2.5197     4.7616   33 H    0 0 0
  31 H    1     2.5723     4.8610   81 O    0 0 0
  31 H    1     2.7359     5.1701    9 B    0 0 0

  32 H    1     1.0913     2.0623   66 C    0 0 0
  32 H    1     2.1487     4.0605   72 C    0 0 0
  32 H    1     2.1667     4.0945   68 C    0 0 0
  32 H    1     2.5197     4.7616   34 H    0 0 0
  32 H    1     2.5723     4.8610   82 O   -1 0 0
  32 H    1     2.7359     5.1701   10 B    0 0 0

  33 H    1     1.0915     2.0626   67 C    0 0 0
  33 H    1     2.1479     4.0589   61 C    0 0 0
  33 H    1     2.1679     4.0968   65 C    0 0 0
  33 H    1     2.5197     4.7616   31 H    0 0 0
  33 H    1     2.5677     4.8522   73 O    0 0 0
  33 H    1     2.7331     5.1648    5 B    1 1 0

  34 H    1     1.0915     2.0626   68 C    0 0 0
  34 H    1     2.1479     4.0589   62 C    0 0 0
  34 H    1     2.1679     4.0968   66 C    0 0 0
  34 H    1     2.5197     4.7616   32 H    0 0 0
  34 H    1     2.5677     4.8522   74 O    0 0 0
  34 H    1     2.7331     5.1648    6 B    0 0 0

  35 H    1     1.0914     2.0624   69 C    0 0 0
  35 H    1     2.1486     4.0602   71 C   -1-1 0
  35 H    1     2.1668     4.0947   63 C    0 0 0
  35 H    1     2.5200     4.7621   29 H    0 0 0
  35 H    1     2.5717     4.8598   83 O    0 0 0
  35 H    1     2.7349     5.1682    9 B   -1-1 0

  36 H    1     1.0914     2.0624   70 C    0 0 0
  36 H    1     2.1486     4.0602   72 C    0 0 0
  36 H    1     2.1668     4.0947   64 C    0 0 0
  36 H    1     2.5200     4.7621   30 H    0 0 0
  36 H    1     2.5717     4.8598   84 O    0 0 0
  36 H    1     2.7349     5.1682   10 B    0 0 0

  37 C    1     1.4020     2.6495   43 C    0 1 0
  37 C    1     1.4021     2.6495   39 C    0 0 0
  37 C    1     1.5504     2.9298    3 B    0 0 0
  37 C    1     2.1471     4.0575   17 H    0 1 0
  37 C    1     2.1472     4.0576   13 H    0 0 0
  37 C    1     2.4246     4.5817   41 C    0 1 0

  38 C    1     1.4020     2.6495   44 C    0 0 0
  38 C    1     1.4021     2.6495   40 C    0 0 0
  38 C    1     1.5504     2.9298    4 B    0 0 0
  38 C    1     2.1471     4.0575   18 H    0 0 0
  38 C    1     2.1472     4.0576   14 H    0 0 0
  38 C    1     2.4246     4.5817   42 C    0 0 0

  39 C    1     1.0913     2.0623   13 H    0 0 0
  39 C    1     1.3914     2.6294   45 C    0 0 0
  39 C    1     1.4021     2.6495   37 C    0 0 0
  39 C    1     2.1669     4.0948   19 H    0 0 0
  39 C    1     2.4177     4.5688   43 C    0 1 0
  39 C    1     2.4250     4.5825   47 C    0 1 0

  40 C    1     1.0913     2.0623   14 H    0 0 0
  40 C    1     1.3914     2.6294   46 C    0 0 0
  40 C    1     1.4021     2.6495   38 C    0 0 0
  40 C    1     2.1669     4.0948   20 H    0 0 0
  40 C    1     2.4177     4.5688   44 C    0 0 0
  40 C    1     2.4250     4.5825   48 C    0 0 0

  41 C    1     1.0914     2.0625   15 H    0 0 0
  41 C    1     1.3914     2.6293   43 C    0 0 0
  41 C    1     1.4026     2.6505   47 C    0 0 0
  41 C    1     2.1680     4.0970   17 H    0 0 0
  41 C    1     2.4182     4.5697   45 C    0-1 0
  41 C    1     2.4246     4.5817   37 C    0-1 0

  42 C    1     1.0914     2.0625   16 H    0 0 0
  42 C    1     1.3914     2.6293   44 C    0 0 0
  42 C    1     1.4026     2.6505   48 C    0 0 0
  42 C    1     2.1680     4.0970   18 H    0 0 0
  42 C    1     2.4182     4.5697   46 C    0 0 0
  42 C    1     2.4246     4.5817   38 C    0 0 0

  43 C    1     1.0914     2.0624   17 H    0 0 0
  43 C    1     1.3914     2.6293   41 C    0 0 0
  43 C    1     1.4020     2.6495   37 C    0-1 0
  43 C    1     2.1666     4.0942   15 H    0 0 0
  43 C    1     2.4177     4.5688   39 C    0-1 0
  43 C    1     2.4250     4.5826   47 C    0 0 0

  44 C    1     1.0914     2.0624   18 H    0 0 0
  44 C    1     1.3914     2.6293   42 C    0 0 0
  44 C    1     1.4020     2.6495   38 C    0 0 0
  44 C    1     2.1666     4.0942   16 H    0 0 0
  44 C    1     2.4177     4.5688   40 C    0 0 0
  44 C    1     2.4250     4.5826   48 C    0 0 0

  45 C    1     1.0915     2.0626   19 H    0 0 0
  45 C    1     1.3914     2.6294   39 C    0 0 0
  45 C    1     1.4025     2.6504   47 C    0 1 0
  45 C    1     2.1680     4.0969   13 H    0 0 0
  45 C    1     2.4182     4.5697   41 C    0 1 0
  45 C    1     2.4246     4.5818   37 C    0 0 0

  46 C    1     1.0915     2.0626   20 H    0 0 0
  46 C    1     1.3914     2.6294   40 C    0 0 0
  46 C    1     1.4025     2.6504   48 C    0 0 0
  46 C    1     2.1680     4.0969   14 H    0 0 0
  46 C    1     2.4182     4.5697   42 C    0 0 0
  46 C    1     2.4246     4.5818   38 C    0 0 0

  47 C    1     1.4025     2.6504   45 C    0-1 0
  47 C    1     1.4026     2.6505   41 C    0 0 0
  47 C    1     1.5513     2.9316    7 B    0 0 0
  47 C    1     2.1490     4.0610   19 H    0-1 0
  47 C    1     2.1493     4.0616   15 H    0 0 0
  47 C    1     2.4250     4.5825   39 C    0-1 0

  48 C    1     1.4025     2.6504   46 C    0 0 0
  48 C    1     1.4026     2.6505   42 C    0 0 0
  48 C    1     1.5513     2.9316    8 B    0 0 0
  48 C    1     2.1490     4.0610   20 H    0 0 0
  48 C    1     2.1493     4.0616   16 H    0 0 0
  48 C    1     2.4250     4.5825   40 C    0 0 0

  49 C    1     1.4020     2.6494   51 C    1 0 0
  49 C    1     1.4021     2.6495   55 C    0 0 0
  49 C    1     1.5503     2.9297    1 B    1 0 0
  49 C    1     2.1469     4.0571   21 H    1 0 0
  49 C    1     2.1475     4.0581   25 H    0 0 0
  49 C    1     2.4246     4.5818   53 C    0 0 0

  50 C    1     1.4020     2.6494   52 C    0 0 0
  50 C    1     1.4021     2.6495   56 C    0 0 0
  50 C    1     1.5503     2.9297    2 B    0 0 0
  50 C    1     2.1469     4.0571   22 H    0 0 0
  50 C    1     2.1475     4.0581   26 H    0 0 0
  50 C    1     2.4246     4.5818   54 C    0 0 0

  51 C    1     1.0913     2.0623   21 H    0 0 0
  51 C    1     1.3914     2.6293   57 C    0 0 0
  51 C    1     1.4020     2.6494   49 C   -1 0 0
  51 C    1     2.1666     4.0942   27 H    0 0 0
  51 C    1     2.4175     4.5684   55 C   -1 0 0
  51 C    1     2.4251     4.5828   59 C   -1 0 0

  52 C    1     1.0913     2.0623   22 H    0 0 0
  52 C    1     1.3914     2.6293   58 C    0 0 0
  52 C    1     1.4020     2.6494   50 C    0 0 0
  52 C    1     2.1666     4.0942   28 H    0 0 0
  52 C    1     2.4175     4.5684   56 C    0 0 0
  52 C    1     2.4251     4.5828   60 C    0 0 0

  53 C    1     1.0914     2.0625   23 H    0 0 0
  53 C    1     1.3915     2.6295   55 C    0 0 0
  53 C    1     1.4026     2.6505   59 C    0 0 0
  53 C    1     2.1679     4.0967   25 H    0 0 0
  53 C    1     2.4179     4.5691   57 C    1 0 0
  53 C    1     2.4246     4.5818   49 C    0 0 0

  54 C    1     1.0914     2.0625   24 H    0 0 0
  54 C    1     1.3915     2.6295   56 C    0 0 0
  54 C    1     1.4026     2.6505   60 C    0 0 0
  54 C    1     2.1679     4.0967   26 H    0 0 0
  54 C    1     2.4179     4.5691   58 C    0 0 0
  54 C    1     2.4246     4.5818   50 C    0 0 0

  55 C    1     1.0914     2.0624   25 H    0 0 0
  55 C    1     1.3915     2.6295   53 C    0 0 0
  55 C    1     1.4021     2.6495   49 C    0 0 0
  55 C    1     2.1664     4.0939   23 H    0 0 0
  55 C    1     2.4175     4.5684   51 C    1 0 0
  55 C    1     2.4253     4.5832   59 C    0 0 0

  56 C    1     1.0914     2.0624   26 H    0 0 0
  56 C    1     1.3915     2.6295   54 C    0 0 0
  56 C    1     1.4021     2.6495   50 C    0 0 0
  56 C    1     2.1664     4.0939   24 H    0 0 0
  56 C    1     2.4175     4.5684   52 C    0 0 0
  56 C    1     2.4253     4.5832   60 C    0 0 0

  57 C    1     1.0914     2.0625   27 H    0 0 0
  57 C    1     1.3914     2.6293   51 C    0 0 0
  57 C    1     1.4025     2.6504   59 C   -1 0 0
  57 C    1     2.1680     4.0968   21 H    0 0 0
  57 C    1     2.4179     4.5691   53 C   -1 0 0
  57 C    1     2.4247     4.5819   49 C   -1 0 0

  58 C    1     1.0914     2.0625   28 H    0 0 0
  58 C    1     1.3914     2.6293   52 C    0 0 0
  58 C    1     1.4025     2.6504   60 C    0 0 0
  58 C    1     2.1680     4.0968   22 H    0 0 0
  58 C    1     2.4179     4.5691   54 C    0 0 0
  58 C    1     2.4247     4.5819   50 C    0 0 0

  59 C    1     1.4025     2.6504   57 C    1 0 0
  59 C    1     1.4026     2.6505   53 C    0 0 0
  59 C    1     1.5516     2.9322   11 B    0 0 0
  59 C    1     2.1491     4.0612   27 H    1 0 0
  59 C    1     2.1493     4.0617   23 H    0 0 0
  59 C    1     2.4251     4.5828   51 C    1 0 0

  60 C    1     1.4025     2.6504   58 C    0 0 0
  60 C    1     1.4026     2.6505   54 C    0 0 0
  60 C    1     1.5516     2.9322   12 B    0 0 0
  60 C    1     2.1491     4.0612   28 H    0 0 0
  60 C    1     2.1493     4.0617   24 H    0 0 0
  60 C    1     2.4251     4.5828   52 C    0 0 0

  61 C    1     1.4021     2.6496   63 C    1 1 0
  61 C    1     1.4021     2.6497   67 C    0 0 0
  61 C    1     1.5502     2.9294    5 B    1 1 0
  61 C    1     2.1475     4.0582   29 H    1 1 0
  61 C    1     2.1479     4.0589   33 H    0 0 0
  61 C    1     2.4244     4.5814   65 C    0 0 0

  62 C    1     1.4021     2.6496   64 C    0 0 0
  62 C    1     1.4021     2.6497   68 C    0 0 0
  62 C    1     1.5502     2.9294    6 B    0 0 0
  62 C    1     2.1475     4.0582   30 H    0 0 0
  62 C    1     2.1479     4.0589   34 H    0 0 0
  62 C    1     2.4244     4.5814   66 C    0 0 0

  63 C    1     1.0914     2.0624   29 H    0 0 0
  63 C    1     1.3914     2.6293   69 C    0 0 0
  63 C    1     1.4021     2.6496   61 C   -1-1 0
  63 C    1     2.1668     4.0947   35 H    0 0 0
  63 C    1     2.4179     4.5692   67 C   -1-1 0
  63 C    1     2.4251     4.5827   71 C   -1-1 0

  64 C    1     1.0914     2.0624   30 H    0 0 0
  64 C    1     1.3914     2.6293   70 C    0 0 0
  64 C    1     1.4021     2.6496   62 C    0 0 0
  64 C    1     2.1668     4.0947   36 H    0 0 0
  64 C    1     2.4179     4.5692   68 C    0 0 0
  64 C    1     2.4251     4.5827   72 C    0 0 0

  65 C    1     1.0913     2.0623   31 H    0 0 0
  65 C    1     1.3914     2.6294   67 C    0 0 0
  65 C    1     1.4025     2.6504   71 C    0 0 0
  65 C    1     2.1679     4.0968   33 H    0 0 0
  65 C    1     2.4178     4.5690   69 C    1 1 0
  65 C    1     2.4244     4.5814   61 C    0 0 0

  66 C    1     1.0913     2.0623   32 H    0 0 0
  66 C    1     1.3914     2.6294   68 C    0 0 0
  66 C    1     1.4025     2.6504   72 C    0 0 0
  66 C    1     2.1679     4.0968   34 H    0 0 0
  66 C    1     2.4178     4.5690   70 C    0 0 0
  66 C    1     2.4244     4.5814   62 C    0 0 0

  67 C    1     1.0915     2.0626   33 H    0 0 0
  67 C    1     1.3914     2.6294   65 C    0 0 0
  67 C    1     1.4021     2.6497   61 C    0 0 0
  67 C    1     2.1667     4.0945   31 H    0 0 0
  67 C    1     2.4179     4.5692   63 C    1 1 0
  67 C    1     2.4253     4.5832   71 C    0 0 0

  68 C    1     1.0915     2.0626   34 H    0 0 0
  68 C    1     1.3914     2.6294   66 C    0 0 0
  68 C    1     1.4021     2.6497   62 C    0 0 0
  68 C    1     2.1667     4.0945   32 H    0 0 0
  68 C    1     2.4179     4.5692   64 C    0 0 0
  68 C    1     2.4253     4.5832   72 C    0 0 0

  69 C    1     1.0914     2.0624   35 H    0 0 0
  69 C    1     1.3914     2.6293   63 C    0 0 0
  69 C    1     1.4025     2.6503   71 C   -1-1 0
  69 C    1     2.1678     4.0966   29 H    0 0 0
  69 C    1     2.4178     4.5690   65 C   -1-1 0
  69 C    1     2.4245     4.5817   61 C   -1-1 0

  70 C    1     1.0914     2.0624   36 H    0 0 0
  70 C    1     1.3914     2.6293   64 C    0 0 0
  70 C    1     1.4025     2.6503   72 C    0 0 0
  70 C    1     2.1678     4.0966   30 H    0 0 0
  70 C    1     2.4178     4.5690   66 C    0 0 0
  70 C    1     2.4245     4.5817   62 C    0 0 0

  71 C    1     1.4025     2.6503   69 C    1 1 0
  71 C    1     1.4025     2.6504   65 C    0 0 0
  71 C    1     1.5516     2.9322    9 B    0 0 0
  71 C    1     2.1486     4.0602   35 H    1 1 0
  71 C    1     2.1487     4.0605   31 H    0 0 0
  71 C    1     2.4251     4.5827   63 C    1 1 0

  72 C    1     1.4025     2.6503   70 C    0 0 0
  72 C    1     1.4025     2.6504   66 C    0 0 0
  72 C    1     1.5516     2.9322   10 B    0 0 0
  72 C    1     2.1486     4.0602   36 H    0 0 0
  72 C    1     2.1487     4.0605   32 H    0 0 0
  72 C    1     2.4251     4.5827   64 C    0 0 0

  73 O    1     1.3791     2.6061    1 B    1 0 0
  73 O    1     1.3791     2.6061    5 B    1 1 0
  73 O    1     2.3880     4.5126   75 O    1 0 0
  73 O    1     2.3882     4.5130   77 O    1 1 0
  73 O    1     2.5383     4.7966   61 C    0 0 0
  73 O    1     2.5384     4.7968   49 C    0 0 0

  74 O    1     1.3791     2.6061    2 B    0 0 0
  74 O    1     1.3791     2.6061    6 B    0 0 0
  74 O    1     2.3880     4.5126   76 O    0 0 0
  74 O    1     2.3882     4.5130   78 O    0 0 0
  74 O    1     2.5383     4.7966   62 C    0 0 0
  74 O    1     2.5384     4.7968   50 C    0 0 0

  75 O    1     1.3793     2.6065    1 B    0 0 0
  75 O    1     1.3793     2.6065    3 B    0 0 0
  75 O    1     2.3880     4.5126   73 O   -1 0 0
  75 O    1     2.3882     4.5131   77 O    0 1 0
  75 O    1     2.5391     4.7981   37 C    0 0 0
  75 O    1     2.5395     4.7990   49 C   -1 0 0

  76 O    1     1.3793     2.6065    2 B    0 0 0
  76 O    1     1.3793     2.6065    4 B    0 0 0
  76 O    1     2.3880     4.5126   74 O    0 0 0
  76 O    1     2.3882     4.5131   78 O    0 0 0
  76 O    1     2.5391     4.7981   38 C    0 0 0
  76 O    1     2.5395     4.7990   50 C    0 0 0

  77 O    1     1.3793     2.6064    5 B    0 0 0
  77 O    1     1.3793     2.6065    3 B    0-1 0
  77 O    1     2.3882     4.5130   73 O   -1-1 0
  77 O    1     2.3882     4.5131   75 O    0-1 0
  77 O    1     2.5390     4.7980   37 C    0-1 0
  77 O    1     2.5391     4.7982   61 C   -1-1 0

  78 O    1     1.3793     2.6064    6 B    0 0 0
  78 O    1     1.3793     2.6065    4 B    0 0 0
  78 O    1     2.3882     4.5130   74 O    0 0 0
  78 O    1     2.3882     4.5131   76 O    0 0 0
  78 O    1     2.5390     4.7980   38 C    0 0 0
  78 O    1     2.5391     4.7982   62 C    0 0 0

  79 O    1     1.3795     2.6068   11 B    0 0 0
  79 O    1     1.3795     2.6068    7 B    0 0 0
  79 O    1     2.3880     4.5126   83 O    1 0 0
  79 O    1     2.3884     4.5134   81 O    0-1 0
  79 O    1     2.5400     4.7998   47 C    0 0 0
  79 O    1     2.5403     4.8005   59 C    0 0 0

  80 O    1     1.3795     2.6068   12 B    1 1 0
  80 O    1     1.3795     2.6068    8 B    0 0 0
  80 O    1     2.3880     4.5126   84 O    1 0 0
  80 O    1     2.3884     4.5134   82 O    0 0 0
  80 O    1     2.5400     4.7998   48 C    0 0 0
  80 O    1     2.5403     4.8005   60 C    1 1 0

  81 O    1     1.3795     2.6069    9 B    0 0 0
  81 O    1     1.3795     2.6070    7 B    0 1 0
  81 O    1     2.3881     4.5128   83 O    1 1 0
  81 O    1     2.3884     4.5134   79 O    0 1 0
  81 O    1     2.5404     4.8006   47 C    0 1 0
  81 O    1     2.5405     4.8008   71 C    0 0 0

  82 O    1     1.3795     2.6069   10 B    1 0 0
  82 O    1     1.3795     2.6070    8 B    0 0 0
  82 O    1     2.3881     4.5128   84 O    1 0 0
  82 O    1     2.3884     4.5134   80 O    0 0 0
  82 O    1     2.5404     4.8006   48 C    0 0 0
  82 O    1     2.5405     4.8008   72 C    1 0 0

  83 O    1     1.3796     2.6071   11 B   -1 0 0
  83 O    1     1.3797     2.6072    9 B   -1-1 0
  83 O    1     2.3880     4.5126   79 O   -1 0 0
  83 O    1     2.3881     4.5128   81 O   -1-1 0
  83 O    1     2.5409     4.8016   71 C   -1-1 0
  83 O    1     2.5410     4.8019   59 C   -1 0 0

  84 O    1     1.3796     2.6071   12 B    0 1 0
  84 O    1     1.3797     2.6072   10 B    0 0 0
  84 O    1     2.3880     4.5126   80 O   -1 0 0
  84 O    1     2.3881     4.5128   82 O   -1 0 0
  84 O    1     2.5409     4.8016   72 C    0 0 0
  84 O    1     2.5410     4.8019   60 C    0 1 0


 SYMMETRY ALLOWED INTERNAL DEGREE(S) OF FREEDOM: 249
 TTTTTTTTTTTTTTTTTTTTTTTTTTTTTT SYMM        TELAPSE        2.55 TCPU        2.54
 TTTTTTTTTTTTTTTTTTTTTTTTTTTTTT INT_SCREEN  TELAPSE        2.74 TCPU        2.73

 DFT PARAMETERS

     ATOM       ELECTRONS   NET CHARGE   R(ANGSTROM)
   1   5  B       5.0000      0.0000     0.89000000
  13   1  H       1.0000      0.0000     1.11000000
  37   6  C       6.0000      0.0000     0.77000000
  73   8  O       8.0000      0.0000     0.74000000

 SIZE OF GRID=    2662058
 TTTTTTTTTTTTTTTTTTTTTTTTTTTTTT MAKE_GRID2  TELAPSE       19.23 TCPU       19.17
 BECKE WEIGHT FUNCTION
 RADSAFE =     2.00
 TOLERANCES - DENSITY:10**- 6; POTENTIAL:10**- 9; GRID WGT:10**-14

 RADIAL INTEGRATION  - INTERVALS (POINTS,UPPER LIMIT):            1( 75,  4.0*R)

 ANGULAR INTEGRATION - INTERVALS (ACCURACY LEVEL [N. POINTS] UPPER LIMIT):
  1(  4[  86]   0.2)  2(  8[ 194]   0.5)  3( 12[ 350]   0.9)  4( 16[ 974]   3.5)
  5( 12[ 350]9999.0)
 TTTTTTTTTTTTTTTTTTTTTTTTTTTTTT INT_CALC    TELAPSE       19.45 TCPU       19.39
 EEEEEEEEEE INT_CALC TERMINATION  DATE 19 02 2026 TIME 20:26:53.3

 *******************************************************************************
 cof-1_z41_L080_serr                                                             
 CRYSTAL - SCF - TYPE OF CALCULATION :  RESTRICTED CLOSED SHELL
 *******************************************************************************

 CAPPA:IS1  2;IS2  2;IS3  8; K PTS MONK NET  20; SYMMOPS:K SPACE   2;G SPACE   1

 TTTTTTTTTTTTTTTTTTTTTTTTTTTTTT SDIK        TELAPSE       21.43 TCPU       47.77

 AAAAAAAAAAAAAAAAAAAAAAAAAAAAAAAAAAAAAAAAAAAAAAAAAAAAAAAAAAAAAAAAAAAAAAAAAAAAAAA
         ATOMIC WAVEFUNCTION(S)


 NUCLEAR CHARGE  5.0  SYMMETRY SPECIES            S    P
 N. ELECTRONS    5.0  NUMBER OF PRIMITIVE GTOS    8    4
                      NUMBER OF CONTRACTED GTOS   4    2
                      NUMBER OF CLOSED SHELLS     2    0
                      OPEN SHELL OCCUPATION       0    1

  ZNUC  SCFIT    TOTAL HF ENERGY   KINETIC ENERGY   VIRIAL THEOREM ACCURACY
   5.0    11    -2.451164084E+01  2.462155050E+01 -1.995536038E+00  1.5E-06

 NUCLEAR CHARGE  1.0  SYMMETRY SPECIES            S
 N. ELECTRONS    1.0  NUMBER OF PRIMITIVE GTOS    4
                      NUMBER OF CONTRACTED GTOS   2
                      NUMBER OF CLOSED SHELLS     0
                      OPEN SHELL OCCUPATION       1

  ZNUC  SCFIT    TOTAL HF ENERGY   KINETIC ENERGY   VIRIAL THEOREM ACCURACY
   1.0     1    -4.977266687E-01  5.190767460E-01 -1.958869132E+00  0.0E+00

 NUCLEAR CHARGE  6.0  SYMMETRY SPECIES            S    P
 N. ELECTRONS    6.0  NUMBER OF PRIMITIVE GTOS    8    4
                      NUMBER OF CONTRACTED GTOS   4    2
                      NUMBER OF CLOSED SHELLS     2    0
                      OPEN SHELL OCCUPATION       0    2

  ZNUC  SCFIT    TOTAL HF ENERGY   KINETIC ENERGY   VIRIAL THEOREM ACCURACY
   6.0     9    -3.766704647E+01  3.775180683E+01 -1.997754800E+00  1.1E-06

 NUCLEAR CHARGE  8.0  SYMMETRY SPECIES            S    P
 N. ELECTRONS    8.0  NUMBER OF PRIMITIVE GTOS    8    4
                      NUMBER OF CONTRACTED GTOS   4    2
                      NUMBER OF CLOSED SHELLS     2    0
                      OPEN SHELL OCCUPATION       0    4

  ZNUC  SCFIT    TOTAL HF ENERGY   KINETIC ENERGY   VIRIAL THEOREM ACCURACY
   8.0    12    -7.477373220E+01  7.477365593E+01 -2.000001020E+00  3.8E-06

 AAAAAAAAAAAAAAAAAAAAAAAAAAAAAAAAAAAAAAAAAAAAAAAAAAAAAAAAAAAAAAAAAAAAAAAAAAAAAAA

 CHARGE NORMALIZATION FACTOR   1.00000000
 TOTAL ATOMIC CHARGES:
   5.0000000   5.0000000   5.0000000   5.0000000   5.0000000   5.0000000
   5.0000000   5.0000000   5.0000000   5.0000000   5.0000000   5.0000000
   1.0000000   1.0000000   1.0000000   1.0000000   1.0000000   1.0000000
   1.0000000   1.0000000   1.0000000   1.0000000   1.0000000   1.0000000
   1.0000000   1.0000000   1.0000000   1.0000000   1.0000000   1.0000000
   1.0000000   1.0000000   1.0000000   1.0000000   1.0000000   1.0000000
   6.0000000   6.0000000   6.0000000   6.0000000   6.0000000   6.0000000
   6.0000000   6.0000000   6.0000000   6.0000000   6.0000000   6.0000000
   6.0000000   6.0000000   6.0000000   6.0000000   6.0000000   6.0000000
   6.0000000   6.0000000   6.0000000   6.0000000   6.0000000   6.0000000
   6.0000000   6.0000000   6.0000000   6.0000000   6.0000000   6.0000000
   6.0000000   6.0000000   6.0000000   6.0000000   6.0000000   6.0000000
   8.0000000   8.0000000   8.0000000   8.0000000   8.0000000   8.0000000
   8.0000000   8.0000000   8.0000000   8.0000000   8.0000000   8.0000000
 TTTTTTTTTTTTTTTTTTTTTTTTTTTTTT MOQGAD      TELAPSE       21.51 TCPU       50.47
 TTTTTTTTTTTTTTTTTTTTTTTTTTTTTT SHELLXN     TELAPSE       32.95 TCPU      415.72
 TTTTTTTTTTTTTTTTTTTTTTTTTTTTTT MONMO3      TELAPSE       33.46 TCPU      431.98
 NUMERICALLY INTEGRATED DENSITY    395.9999104861
 TTTTTTTTTTTTTTTTTTTTTTTTTTTTTT NUMDFT      TELAPSE       34.87 TCPU      477.21
 CYC   0 ETOT(AU) -2.591909592960E+03 DETOT -2.59E+03 tst  0.00E+00 PX  1.00E+00
 TTTTTTTTTTTTTTTTTTTTTTTTTTTTTT DIIS        TELAPSE       34.99 TCPU      480.90
 TTTTTTTTTTTTTTTTTTTTTTTTTTTTTT FDIK        TELAPSE       36.96 TCPU      543.82
 INSULATING STATE
 TOP OF VALENCE BANDS -    BAND    198; K    2; EIG -3.1274999E-01 AU
 TOP OF VALENCE BANDS -    BAND    198; K    1; EIG -3.1283734E-01 AU
 BOTTOM OF VIRTUAL BANDS - BAND    199; K    1; EIG -1.5761753E-01 AU
 INDIRECT ENERGY BAND GAP:   4.2214 eV
 TTTTTTTTTTTTTTTTTTTTTTTTTTTTTT PDIG        TELAPSE       38.51 TCPU      550.44
 CHARGE NORMALIZATION FACTOR   1.00000000
 TOTAL ATOMIC CHARGES:
   4.1520893   4.1661341   4.1609013   4.1659806   4.1611115   4.1662248
   4.1658112   4.1607065   4.1655856   4.1604777   4.1657437   4.1517206
   0.7853046   0.7850605   0.7851762   0.7854207   0.7853314   0.7850066
   0.7851262   0.7854501   0.7855100   0.7850682   0.7852345   0.7856743
   0.7854985   0.7850581   0.7851978   0.7856366   0.7853336   0.7850092
   0.7851913   0.7855161   0.7852573   0.7850122   0.7851694   0.7854147
   6.0436617   6.0430002   6.2658975   6.2649927   6.2649565   6.2658627
   6.2656398   6.2647885   6.2647317   6.2655854   6.0422798   6.0429314
   6.0473271   6.0427812   6.2661236   6.2648234   6.2649042   6.2662080
   6.2660400   6.2647304   6.2649217   6.2662234   6.0415825   6.0461062
   6.0440225   6.0433578   6.2654100   6.2645572   6.2651014   6.2659585
   6.2655299   6.2646224   6.2652360   6.2661393   6.0418179   6.0424723
   8.6954666   8.6907708   8.6955672   8.6908791   8.6954257   8.6908304
   8.6911989   8.6958862   8.6912358   8.6958350   8.6913751   8.6960595
 TTTTTTTTTTTTTTTTTTTTTTTTTTTTTT MOQGAD      TELAPSE       38.60 TCPU      550.52
 TTTTTTTTTTTTTTTTTTTTTTTTTTTTTT SHELLXN     TELAPSE       50.51 TCPU      929.86
 TTTTTTTTTTTTTTTTTTTTTTTTTTTTTT MONMO3      TELAPSE       51.01 TCPU      946.12
 NUMERICALLY INTEGRATED DENSITY    395.9999537468
 TTTTTTTTTTTTTTTTTTTTTTTTTTTTTT NUMDFT      TELAPSE       52.47 TCPU      992.61
 CYC   1 ETOT(AU) -2.577622429275E+03 DETOT  1.43E+01 tst  0.00E+00 PX  1.00E+00
 TTTTTTTTTTTTTTTTTTTTTTTTTTTTTT DIIS        TELAPSE       52.63 TCPU      997.65
 DIIS TEST: 0.22348E+01 AT SCF   CYCLE   1 - MIX   30 %
 TTTTTTTTTTTTTTTTTTTTTTTTTTTTTT FDIK        TELAPSE       54.63 TCPU     1061.57
 INSULATING STATE
 TOP OF VALENCE BANDS -    BAND    198; K    2; EIG -2.2395535E-01 AU
 TOP OF VALENCE BANDS -    BAND    198; K    1; EIG -2.2411101E-01 AU
 BOTTOM OF VIRTUAL BANDS - BAND    199; K    1; EIG -8.1869594E-02 AU
 INDIRECT ENERGY BAND GAP:   3.8664 eV
 TTTTTTTTTTTTTTTTTTTTTTTTTTTTTT PDIG        TELAPSE       56.18 TCPU     1068.18
 CHARGE NORMALIZATION FACTOR   1.00000000
 TOTAL ATOMIC CHARGES:
   4.7149012   4.7155051   4.7066743   4.7150218   4.7066187   4.7150314
   4.7151298   4.7065271   4.7151059   4.7065408   4.7155488   4.7148201
   0.9046737   0.9114192   0.9114051   0.9047086   0.9043017   0.9118571
   0.9118303   0.9043576   0.9047662   0.9113111   0.9112627   0.9048238
   0.9047419   0.9112929   0.9112440   0.9048111   0.9042987   0.9118536
   0.9119100   0.9044640   0.9046072   0.9113716   0.9114175   0.9047304
   5.8642888   5.8765729   6.1325019   6.1394593   6.1398219   6.1329484
   6.1193822   6.1419176   6.1425046   6.1200046   5.8791156   5.8667703
   5.8766503   5.8763217   6.1220634   6.1346739   6.1353231   6.1226747
   6.1222770   6.1349301   6.1352063   6.1225681   5.8794928   5.8796612
   5.8642715   5.8765371   6.1194699   6.1419788   6.1423205   6.1198336
   6.1326863   6.1396400   6.1395605   6.1327067   5.8793348   5.8668996
   8.3366944   8.3331064   8.3370394   8.3334668   8.3288170   8.3347815
   8.3329349   8.3365470   8.3345060   8.3285841   8.3333189   8.3369488
 TTTTTTTTTTTTTTTTTTTTTTTTTTTTTT MOQGAD      TELAPSE       56.26 TCPU     1068.26
 TTTTTTTTTTTTTTTTTTTTTTTTTTTTTT SHELLXN     TELAPSE       68.16 TCPU     1447.25
 TTTTTTTTTTTTTTTTTTTTTTTTTTTTTT MONMO3      TELAPSE       68.67 TCPU     1463.51
 NUMERICALLY INTEGRATED DENSITY    395.9999425155
 TTTTTTTTTTTTTTTTTTTTTTTTTTTTTT NUMDFT      TELAPSE       70.14 TCPU     1510.33
 CYC   2 ETOT(AU) -2.578011919531E+03 DETOT -3.89E-01 tst  2.92E-03 PX  1.60E-01
 TTTTTTTTTTTTTTTTTTTTTTTTTTTTTT DIIS        TELAPSE       70.30 TCPU     1515.54
 DIIS TEST: 0.92945E+00 AT SCF   CYCLE   2 - DIIS ACTIVE - HISTORY:     2 CYCLES
 TTTTTTTTTTTTTTTTTTTTTTTTTTTTTT FDIK        TELAPSE       72.31 TCPU     1579.95
 INSULATING STATE
 TOP OF VALENCE BANDS -    BAND    198; K    2; EIG -2.3795763E-01 AU
 TOP OF VALENCE BANDS -    BAND    198; K    1; EIG -2.3812050E-01 AU
 BOTTOM OF VIRTUAL BANDS - BAND    199; K    1; EIG -7.7318762E-02 AU
 INDIRECT ENERGY BAND GAP:   4.3712 eV
 TTTTTTTTTTTTTTTTTTTTTTTTTTTTTT PDIG        TELAPSE       73.86 TCPU     1586.57
 CHARGE NORMALIZATION FACTOR   1.00000000
 TOTAL ATOMIC CHARGES:
   4.5016508   4.5093522   4.4988880   4.5087416   4.4989291   4.5088525
   4.5086196   4.4987829   4.5084573   4.4986439   4.5090212   4.5014265
   0.8838446   0.8890085   0.8892102   0.8839498   0.8825499   0.8899640
   0.8901588   0.8825985   0.8822349   0.8878124   0.8880982   0.8824164
   0.8822688   0.8878373   0.8880374   0.8823543   0.8825458   0.8899766
   0.8902108   0.8826973   0.8838236   0.8890157   0.8891699   0.8839264
   5.9007047   5.8801351   6.1622684   6.1605174   6.1602693   6.1620201
   6.1667913   6.1555746   6.1552441   6.1663546   5.8797032   5.9005722
   5.8973195   5.8841982   6.1641137   6.1598422   6.1595259   6.1637988
   6.1641640   6.1598645   6.1594906   6.1637349   5.8835301   5.8968656
   5.9010419   5.8804442   6.1667444   6.1554923   6.1553440   6.1664769
   6.1622066   6.1603552   6.1602875   6.1620806   5.8794316   5.9002061
   8.5118749   8.5084248   8.5120118   8.5086098   8.5153214   8.5071990
   8.5086823   8.5121234   8.5073549   8.5154291   8.5088901   8.5122887
 TTTTTTTTTTTTTTTTTTTTTTTTTTTTTT MOQGAD      TELAPSE       73.94 TCPU     1586.65
 TTTTTTTTTTTTTTTTTTTTTTTTTTTTTT SHELLXN     TELAPSE       85.86 TCPU     1965.99
 TTTTTTTTTTTTTTTTTTTTTTTTTTTTTT MONMO3      TELAPSE       86.37 TCPU     1982.25
 NUMERICALLY INTEGRATED DENSITY    395.9999450416
 TTTTTTTTTTTTTTTTTTTTTTTTTTTTTT NUMDFT      TELAPSE       87.83 TCPU     2029.07
 CYC   3 ETOT(AU) -2.578203452764E+03 DETOT -1.92E-01 tst  6.61E-04 PX  6.56E-02
 TTTTTTTTTTTTTTTTTTTTTTTTTTTTTT DIIS        TELAPSE       88.02 TCPU     2034.93
 DIIS TEST: 0.27334E-01 AT SCF   CYCLE   3 - DIIS ACTIVE - HISTORY:     3 CYCLES
 TTTTTTTTTTTTTTTTTTTTTTTTTTTTTT FDIK        TELAPSE       90.05 TCPU     2099.84
 INSULATING STATE
 TOP OF VALENCE BANDS -    BAND    198; K    2; EIG -2.4652341E-01 AU
 TOP OF VALENCE BANDS -    BAND    198; K    1; EIG -2.4665290E-01 AU
 BOTTOM OF VIRTUAL BANDS - BAND    199; K    1; EIG -8.4709258E-02 AU
 INDIRECT ENERGY BAND GAP:   4.4032 eV
 TTTTTTTTTTTTTTTTTTTTTTTTTTTTTT PDIG        TELAPSE       91.59 TCPU     2106.45
 CHARGE NORMALIZATION FACTOR   1.00000000
 TOTAL ATOMIC CHARGES:
   4.5082271   4.5122320   4.5049993   4.5113003   4.5050330   4.5114105
   4.5112404   4.5047536   4.5110784   4.5046290   4.5119753   4.5079211
   0.8677376   0.8717353   0.8717906   0.8677952   0.8687338   0.8713556
   0.8713613   0.8687587   0.8680738   0.8716013   0.8716199   0.8681921
   0.8680885   0.8716089   0.8715665   0.8681446   0.8687447   0.8713686
   0.8714265   0.8688507   0.8677168   0.8717264   0.8717615   0.8677749
   5.9282677   5.9500146   6.1655354   6.1708361   6.1710185   6.1658660
   6.1532216   6.1768141   6.1773594   6.1539112   5.9518124   5.9298685
   5.9395016   5.9461514   6.1587961   6.1684056   6.1689148   6.1592808
   6.1588110   6.1684981   6.1688780   6.1592595   5.9482744   5.9413209
   5.9283399   5.9500764   6.1531837   6.1767115   6.1773992   6.1539732
   6.1654255   6.1707183   6.1710439   6.1659470   5.9518430   5.9297887
   8.4819310   8.4764522   8.4821951   8.4767109   8.4750151   8.4789323
   8.4764390   8.4819521   8.4788905   8.4750476   8.4767515   8.4822807
 TTTTTTTTTTTTTTTTTTTTTTTTTTTTTT MOQGAD      TELAPSE       91.68 TCPU     2106.53
 TTTTTTTTTTTTTTTTTTTTTTTTTTTTTT SHELLXN     TELAPSE      103.59 TCPU     2486.08
 TTTTTTTTTTTTTTTTTTTTTTTTTTTTTT MONMO3      TELAPSE      104.10 TCPU     2502.33
 NUMERICALLY INTEGRATED DENSITY    395.9999454639
 TTTTTTTTTTTTTTTTTTTTTTTTTTTTTT NUMDFT      TELAPSE      105.57 TCPU     2548.99
 CYC   4 ETOT(AU) -2.578208856489E+03 DETOT -5.40E-03 tst  2.61E-05 PX  1.64E-02
 TTTTTTTTTTTTTTTTTTTTTTTTTTTTTT DIIS        TELAPSE      105.78 TCPU     2555.51
 DIIS TEST: 0.92720E-02 AT SCF   CYCLE   4 - DIIS ACTIVE - HISTORY:     4 CYCLES
 TTTTTTTTTTTTTTTTTTTTTTTTTTTTTT FDIK        TELAPSE      107.87 TCPU     2622.16
 INSULATING STATE
 TOP OF VALENCE BANDS -    BAND    198; K    2; EIG -2.4547147E-01 AU
 TOP OF VALENCE BANDS -    BAND    198; K    1; EIG -2.4561387E-01 AU
 BOTTOM OF VIRTUAL BANDS - BAND    199; K    1; EIG -8.5345235E-02 AU
 INDIRECT ENERGY BAND GAP:   4.3573 eV
 TTTTTTTTTTTTTTTTTTTTTTTTTTTTTT PDIG        TELAPSE      109.43 TCPU     2628.79
 CHARGE NORMALIZATION FACTOR   1.00000000
 TOTAL ATOMIC CHARGES:
   4.5121726   4.5155231   4.5069863   4.5151394   4.5070178   4.5152443
   4.5151161   4.5068828   4.5149667   4.5067644   4.5153113   4.5119910
   0.8698481   0.8747606   0.8749034   0.8699386   0.8690242   0.8754632
   0.8756152   0.8691031   0.8688816   0.8739488   0.8741499   0.8690473
   0.8688960   0.8739584   0.8740988   0.8689988   0.8690228   0.8754720
   0.8756789   0.8692057   0.8698107   0.8747475   0.8748818   0.8699320
   5.9300491   5.9157042   6.1679617   6.1681303   6.1680444   6.1679124
   6.1670147   6.1643255   6.1641742   6.1667948   5.9158794   5.9304162
   5.9318463   5.9192357   6.1656075   6.1655500   6.1654602   6.1655135
   6.1656909   6.1656198   6.1654046   6.1654457   5.9194292   5.9321247
   5.9303069   5.9159337   6.1669875   6.1642664   6.1642092   6.1668535
   6.1679520   6.1680426   6.1680028   6.1679220   5.9157146   5.9301508
   8.4890433   8.4857865   8.4892203   8.4860102   8.4886744   8.4848473
   8.4859240   8.4891825   8.4848787   8.4886732   8.4861751   8.4894051
 TTTTTTTTTTTTTTTTTTTTTTTTTTTTTT MOQGAD      TELAPSE      109.52 TCPU     2628.87
 TTTTTTTTTTTTTTTTTTTTTTTTTTTTTT SHELLXN     TELAPSE      121.46 TCPU     3008.93
 TTTTTTTTTTTTTTTTTTTTTTTTTTTTTT MONMO3      TELAPSE      121.96 TCPU     3025.20
 NUMERICALLY INTEGRATED DENSITY    395.9999455191
 TTTTTTTTTTTTTTTTTTTTTTTTTTTTTT NUMDFT      TELAPSE      123.43 TCPU     3071.94
 CYC   5 ETOT(AU) -2.578210878769E+03 DETOT -2.02E-03 tst  1.57E-05 PX  8.76E-03
 TTTTTTTTTTTTTTTTTTTTTTTTTTTTTT DIIS        TELAPSE      123.67 TCPU     3078.60
 DIIS TEST: 0.88087E-03 AT SCF   CYCLE   5 - DIIS ACTIVE - HISTORY:     5 CYCLES
 TTTTTTTTTTTTTTTTTTTTTTTTTTTTTT FDIK        TELAPSE      125.73 TCPU     3144.30
 INSULATING STATE
 TOP OF VALENCE BANDS -    BAND    198; K    2; EIG -2.4492976E-01 AU
 TOP OF VALENCE BANDS -    BAND    198; K    1; EIG -2.4506860E-01 AU
 BOTTOM OF VIRTUAL BANDS - BAND    199; K    1; EIG -8.4384378E-02 AU
 INDIRECT ENERGY BAND GAP:   4.3687 eV
 TTTTTTTTTTTTTTTTTTTTTTTTTTTTTT PDIG        TELAPSE      127.28 TCPU     3150.92
 CHARGE NORMALIZATION FACTOR   1.00000000
 TOTAL ATOMIC CHARGES:
   4.5104755   4.5158642   4.5063996   4.5149962   4.5064317   4.5151025
   4.5149213   4.5062022   4.5147671   4.5060821   4.5155974   4.5102065
   0.8709209   0.8757955   0.8759054   0.8710028   0.8709544   0.8759163
   0.8759920   0.8709994   0.8705049   0.8752245   0.8753440   0.8706555
   0.8705239   0.8752367   0.8752889   0.8706054   0.8709589   0.8759274
   0.8760539   0.8710938   0.8708962   0.8757884   0.8758760   0.8709849
   5.9155635   5.9240775   6.1660505   6.1697287   6.1697368   6.1661389
   6.1600879   6.1716474   6.1718698   6.1603489   5.9250024   5.9164919
   5.9202925   5.9236596   6.1622628   6.1682150   6.1683930   6.1624172
   6.1622880   6.1682842   6.1683606   6.1623798   5.9246642   5.9211917
   5.9157369   5.9242338   6.1600508   6.1715558   6.1719286   6.1604330
   6.1659579   6.1696001   6.1697557   6.1662090   5.9249197   5.9163009
   8.4904526   8.4861638   8.4906718   8.4863942   8.4879490   8.4873914
   8.4862578   8.4905668   8.4874341   8.4880268   8.4865288   8.4908311
 TTTTTTTTTTTTTTTTTTTTTTTTTTTTTT MOQGAD      TELAPSE      127.37 TCPU     3151.00
 TTTTTTTTTTTTTTTTTTTTTTTTTTTTTT SHELLXN     TELAPSE      139.26 TCPU     3529.88
 TTTTTTTTTTTTTTTTTTTTTTTTTTTTTT MONMO3      TELAPSE      139.77 TCPU     3546.17
 NUMERICALLY INTEGRATED DENSITY    395.9999454597
 TTTTTTTTTTTTTTTTTTTTTTTTTTTTTT NUMDFT      TELAPSE      141.24 TCPU     3593.07
 CYC   6 ETOT(AU) -2.578210995294E+03 DETOT -1.17E-04 tst  6.03E-06 PX  3.56E-03
 TTTTTTTTTTTTTTTTTTTTTTTTTTTTTT DIIS        TELAPSE      141.54 TCPU     3599.91
 DIIS TEST: 0.50147E-03 AT SCF   CYCLE   6 - DIIS ACTIVE - HISTORY:     6 CYCLES
 TTTTTTTTTTTTTTTTTTTTTTTTTTTTTT FDIK        TELAPSE      143.59 TCPU     3665.37
 INSULATING STATE
 TOP OF VALENCE BANDS -    BAND    198; K    2; EIG -2.4506900E-01 AU
 TOP OF VALENCE BANDS -    BAND    198; K    1; EIG -2.4520894E-01 AU
 BOTTOM OF VIRTUAL BANDS - BAND    199; K    1; EIG -8.4492729E-02 AU
 INDIRECT ENERGY BAND GAP:   4.3695 eV
 TTTTTTTTTTTTTTTTTTTTTTTTTTTTTT PDIG        TELAPSE      145.13 TCPU     3671.98
 CHARGE NORMALIZATION FACTOR   1.00000000
 TOTAL ATOMIC CHARGES:
   4.5108490   4.5156752   4.5066934   4.5149558   4.5067258   4.5150625
   4.5148933   4.5065202   4.5147396   4.5063986   4.5154192   4.5106001
   0.8709475   0.8758862   0.8760011   0.8710269   0.8707103   0.8762038
   0.8763002   0.8707626   0.8703343   0.8752686   0.8754054   0.8704821
   0.8703516   0.8752801   0.8753523   0.8704325   0.8707132   0.8762150
   0.8763617   0.8708596   0.8709192   0.8758784   0.8759736   0.8710123
   5.9220384   5.9205577   6.1668838   6.1681752   6.1681762   6.1669614
   6.1621288   6.1685283   6.1686463   6.1622583   5.9213190   5.9228488
   5.9264054   5.9208871   6.1635715   6.1661885   6.1663181   6.1636896
   6.1636214   6.1662578   6.1662734   6.1636407   5.9217485   5.9272132
   5.9222358   5.9207334   6.1620921   6.1684456   6.1686998   6.1623345
   6.1668194   6.1680577   6.1681753   6.1670123   5.9212135   5.9226389
   8.4898125   8.4855319   8.4900182   8.4857631   8.4874969   8.4860760
   8.4856352   8.4899292   8.4861058   8.4875365   8.4859031   8.4901845
 TTTTTTTTTTTTTTTTTTTTTTTTTTTTTT MOQGAD      TELAPSE      145.22 TCPU     3672.06
 TTTTTTTTTTTTTTTTTTTTTTTTTTTTTT SHELLXN     TELAPSE      157.10 TCPU     4050.66
 TTTTTTTTTTTTTTTTTTTTTTTTTTTTTT MONMO3      TELAPSE      157.61 TCPU     4066.92
 NUMERICALLY INTEGRATED DENSITY    395.9999454459
 TTTTTTTTTTTTTTTTTTTTTTTTTTTTTT NUMDFT      TELAPSE      159.07 TCPU     4113.33
 CYC   7 ETOT(AU) -2.578211129423E+03 DETOT -1.34E-04 tst  1.23E-06 PX  1.50E-03
 TTTTTTTTTTTTTTTTTTTTTTTTTTTTTT DIIS        TELAPSE      159.35 TCPU     4119.92
 DIIS TEST: 0.51412E-05 AT SCF   CYCLE   7 - DIIS ACTIVE - HISTORY:     7 CYCLES
 TTTTTTTTTTTTTTTTTTTTTTTTTTTTTT FDIK        TELAPSE      161.42 TCPU     4185.52
 INSULATING STATE
 TOP OF VALENCE BANDS -    BAND    198; K    2; EIG -2.4507245E-01 AU
 TOP OF VALENCE BANDS -    BAND    198; K    1; EIG -2.4521342E-01 AU
 BOTTOM OF VIRTUAL BANDS - BAND    199; K    1; EIG -8.4531378E-02 AU
 INDIRECT ENERGY BAND GAP:   4.3685 eV
 TTTTTTTTTTTTTTTTTTTTTTTTTTTTTT PDIG        TELAPSE      162.97 TCPU     4192.13
 CHARGE NORMALIZATION FACTOR   1.00000000
 TOTAL ATOMIC CHARGES:
   4.5111110   4.5156795   4.5066963   4.5150077   4.5067282   4.5151137
   4.5149533   4.5065402   4.5148005   4.5064200   4.5154332   4.5108792
   0.8709838   0.8758248   0.8759480   0.8710675   0.8706538   0.8762201
   0.8763284   0.8707112   0.8703172   0.8751709   0.8753242   0.8704721
   0.8703348   0.8751822   0.8752709   0.8704224   0.8706558   0.8762306
   0.8763906   0.8708091   0.8709543   0.8758158   0.8759216   0.8710539
   5.9220285   5.9207029   6.1663525   6.1686707   6.1686427   6.1663893
   6.1626138   6.1679710   6.1680309   6.1626688   5.9213226   5.9227284
   5.9256760   5.9219339   6.1632102   6.1665770   6.1666452   6.1632648
   6.1632615   6.1666480   6.1666013   6.1632137   5.9226182   5.9263331
   5.9222376   5.9208900   6.1625811   6.1678928   6.1680794   6.1627410
   6.1662966   6.1685607   6.1686347   6.1664325   5.9212058   5.9225068
   8.4896044   8.4857144   8.4898060   8.4859429   8.4879015   8.4859277
   8.4858242   8.4897258   8.4859612   8.4879387   8.4860882   8.4899741
 TTTTTTTTTTTTTTTTTTTTTTTTTTTTTT MOQGAD      TELAPSE      163.06 TCPU     4192.22
 TTTTTTTTTTTTTTTTTTTTTTTTTTTTTT SHELLXN     TELAPSE      175.01 TCPU     4573.12
 TTTTTTTTTTTTTTTTTTTTTTTTTTTTTT MONMO3      TELAPSE      175.52 TCPU     4589.40
 NUMERICALLY INTEGRATED DENSITY    395.9999454477
 TTTTTTTTTTTTTTTTTTTTTTTTTTTTTT NUMDFT      TELAPSE      176.98 TCPU     4635.79
 CYC   8 ETOT(AU) -2.578211129774E+03 DETOT -3.51E-07 tst  2.33E-08 PX  2.41E-04
 TTTTTTTTTTTTTTTTTTTTTTTTTTTTTT DIIS        TELAPSE      177.29 TCPU     4642.59
 DIIS TEST: 0.20075E-05 AT SCF   CYCLE   8 - DIIS ACTIVE - HISTORY:     8 CYCLES
 TTTTTTTTTTTTTTTTTTTTTTTTTTTTTT FDIK        TELAPSE      179.35 TCPU     4708.13
 INSULATING STATE
 TOP OF VALENCE BANDS -    BAND    198; K    2; EIG -2.4506805E-01 AU
 TOP OF VALENCE BANDS -    BAND    198; K    1; EIG -2.4520832E-01 AU
 BOTTOM OF VIRTUAL BANDS - BAND    199; K    1; EIG -8.4533821E-02 AU
 INDIRECT ENERGY BAND GAP:   4.3684 eV
 TTTTTTTTTTTTTTTTTTTTTTTTTTTTTT PDIG        TELAPSE      180.89 TCPU     4714.73
 CHARGE NORMALIZATION FACTOR   1.00000000
 TOTAL ATOMIC CHARGES:
   4.5111136   4.5157190   4.5067429   4.5150210   4.5067748   4.5151271
   4.5149635   4.5065792   4.5148106   4.5064589   4.5154695   4.5108750
   0.8709365   0.8758287   0.8759489   0.8710189   0.8706658   0.8761724
   0.8762752   0.8707209   0.8703090   0.8751801   0.8753267   0.8704617
   0.8703264   0.8751915   0.8752733   0.8704119   0.8706682   0.8761831
   0.8763374   0.8708184   0.8709075   0.8758200   0.8759220   0.8710049
   5.9219346   5.9206820   6.1666203   6.1684150   6.1683967   6.1666709
   6.1623249   6.1682925   6.1683801   6.1624144   5.9213582   5.9226788
   5.9258790   5.9215381   6.1633370   6.1664288   6.1665203   6.1634150
   6.1633867   6.1664983   6.1664773   6.1633659   5.9222881   5.9265908
   5.9221384   5.9208639   6.1622907   6.1682128   6.1684301   6.1624881
   6.1665603   6.1683016   6.1683921   6.1667179   5.9212466   5.9224624
   8.4897060   8.4856574   8.4899098   8.4858870   8.4877752   8.4860771
   8.4857647   8.4898258   8.4861106   8.4878163   8.4860301   8.4900767
 TTTTTTTTTTTTTTTTTTTTTTTTTTTTTT MOQGAD      TELAPSE      180.98 TCPU     4714.81
 TTTTTTTTTTTTTTTTTTTTTTTTTTTTTT SHELLXN     TELAPSE      192.84 TCPU     5092.93
 +++ ENERGIES IN A.U. +++
 ::: EXT EL-POLE                                  -2.5324126692072E+03
 ::: EXT EL-SPHEROPOLE                             2.7879999209098E+01
 ::: BIELET ZONE E-E                               3.9590041737996E+03
 ::: TOTAL E-E                                     1.4544715038015E+03
 ::: TOTAL E-N + N-E                              -6.5697799731957E+03
 ::: TOTAL N-N                                     2.4463280934376E+02
 ::: KINETIC ENERGY                                2.5599059713756E+03
 ::: PSEUDO TOTAL   ENERGY                        -2.3107696886748E+03
 ::: VIRIAL COEFFICIENT                            1.0511502510307E+00
 TTTTTTTTTTTTTTTTTTTTTTTTTTTTTT MONMO3      TELAPSE      193.35 TCPU     5109.21
 NUMERICALLY INTEGRATED DENSITY    395.9999454483
 EXCHANGE ENERGY: -0.252061726214E+03  CORRELATION ENERGY: -0.153797153111E+02
 TTTTTTTTTTTTTTTTTTTTTTTTTTTTTT NUMDFT      TELAPSE      194.82 TCPU     5156.18
 CYC   9 ETOT(AU) -2.578211130200E+03 DETOT -4.26E-07 tst  3.44E-09 PX  2.41E-04

 == SCF ENDED - CONVERGENCE ON ENERGY      E(AU) -2.5782111301999E+03 CYCLES   9


 ENERGY EXPRESSION=HARTREE+FOCK EXCH*0.00000+(HSESOL     EXCH)*1.00000+PBESOL     CORR


 TOTAL ENERGY(DFT)(AU)(  9) -2.5782111301999E+03 DE-4.3E-07 tester 3.4E-09
 TTTTTTTTTTTTTTTTTTTTTTTTTTTTTT EDFT        TELAPSE      194.82 TCPU     5156.19
 
 INFORMATION **** DFTD3 ENERGY **** CALCULATE DFTD3 ENERGY

           DFT-D V3(BJ)
 DF                                         hsesol3c  
 parameters
 s6       :    1.0000
 s8       :    0.0000
 a1       :    0.5196
 a2       :    4.9385
 k1 k3    :   16.0000   -4.0000
 Cutoff   :   50.2022
 CN-Cutoff:   21.1671
 ABC-Cutoff:   21.1671
 
 Edisp /kcal,au:   -45.0331 -0.07176482

 E6    /kcal :   -47.3789
 E8    /kcal :     0.0000
 E6(ABC) "   :   2.345830
 
 INFORMATION **** DFTD3 ENERGY **** NORMAL TERMINATION OF DFTD3 MODULE

 GCP ENERGY CALCULATION
  level        hsesol3c            basis:hsesol3c
  Nbf            948
  Atoms           84

  Parameters: 
  sigma     1.0000
  eta       1.4281
  alpha     0.2936
  beta      1.9467

  dmp_scal      4.0000
  dmp_exp       6.0000
 cutoffs: 
   distance [bohr] 60.0
   noise    [a.u.] 2.2E-16
 SR-damping   T
 ** gCP correction **
  Egcp:        0.1658703639 / (a.u.) ||     104.0852 / (kcal/mol)
 INFORMATION **** GCP **** NORMAL TERMINATION OF GCP MODULE

 *******************************************************************************

 DFT-D3-GCP DISPERSION AND COUNTERPOISE CORRECTION

 D3 DISPERSION ENERGY (AU)      -7.1764821041342E-02
 GCP ENERGY (AU)                 1.6587036388992E-01
 TOTAL ENERGY + DISP + GCP (AU) -2.5781170246570E+03

 *******************************************************************************

 EIGENVECTORS IN FORTRAN UNIT 10
 TTTTTTTTTTTTTTTTTTTTTTTTTTTTTT END         TELAPSE      197.60 TCPU     5164.61
 EEEEEEEEEE TERMINATION  DATE 19 02 2026 TIME 20:29:51.5
