 Default number of threads is:           32

         
 *******************************************************************************
 *                                                                             *
 *                               CRYSTAL23                                     *
 *                      public : 1.0.1 - October 2022                          *
 *                       HTTP://WWW.CRYSTAL.UNITO.IT                           *
 *                                                                             *
 *                              MAIN AUTHORS                                   *
 *                                                                             *
 *  R. DOVESI(1,11), V.R. SAUNDERS(2), C. ROETTI(1,11), R. ORLANDO(1,11),      *
 *  C.M. ZICOVICH-WILSON(1,3), F. PASCALE(4), B. CIVALLERI(1,11),              *
 *  K. DOLL(5), N.M. HARRISON(6), I.J. BUSH(7), Ph. D'ARCO(8),                 *
 *  M. LLUNELL(9), M. CAUSA'(10), Y. NOEL(8), L. MASCHIO(1,11), A. ERBA(1,11)  *
 *  M. RE'RAT(14), S. CASASSA(1,11), B.G. SEARLE(2), J.K. DESMARAIS(1)         *
 *                                                                             *
 *        CONTRIBUTIONS TO THE CODE HAVE ALSO BEEN GIVEN BY                    *
 *                                                                             *
 *  M. FERRABONE(1,11), M. DE LA PIERRE(1,11), M. FERRERO(1,11),               *
 *  J. BAIMA(1,11), E. ALBANESE(1,11), M.F. PEINTINGER(12), R. BAST(13),       *
 *  B. KIRTMAN(15), V. LACIVITA(1,11), R. DEMICHELIS(1,16)                     *
 *  G. BRANDEBURG(17), S. SALUSTRO(1,11), G. SANSONE(1,11)                     *
 *  M.T. RUGGIERO(18), L.E. DAGA(1), L. DONA'(1), A. COSSARD(1)                *
 *                                                                             *
 * (1) THEORETICAL CHEMISTRY GROUP - UNIVERSITA' DI TORINO - TORINO (ITALY)    *
 * (2) SCIENTIFIC COMPUTING DEPARTMENT - STFC DARESBURY (UK)                   *
 * (3) UNIVERSIDAD AUTONOMA DEL ESTADO DE MORELOS - CUERNAVACA (MEXICO)        *
 * (4) UNIVERSITE' DE LORRAINE - NANCY (FRANCE)                                *
 * (5) UNIVERSITAET STUTTGART- STUTTGART (GERMANY)                             *
 * (6) IMPERIAL COLLEGE - LONDON (UK)                                          *
 * (7) SCIENTIFIC COMPUTING DEPARTMENT - STFC RAL (UK)                         *
 * (8) UPMC - SORBONNE UNIVERSITES - PARIS (FRANCE)                            *
 * (9) UNIVERSIDAD DE BARCELONA - BARCELONA (SPAIN)                            *
 *(10) UNIVERSITA' DI NAPOLI "FEDERICO II" - NAPOLI (ITALY)                    *
 *(11) NIS - NANOSTRUCTURED INTERFACES AND SURFACES - TORINO (ITALY)           *
 *(12) MPI FUER CHEMISCHE ENERGIEKONVERSION - MUELHEIM AN DER RUHR (GERMANY)   *
 *(13) UNIVERSITY OF TROMSO - TROMSO (NORWAY)                                  *
 *(14) UNIVERSITE' DE PAU ET DES PAYS DE L'ADOUR - PAU (FRANCE)                *
 *(15) UNIVERSITY OF CALIFORNIA SANTA BARBARA - SANTA BARBARA (USA)            *
 *(16) CURTIN UNIVERSITY - PERTH (AUSTRALIA)                                   *
 *(17) UNIVERSITY COLLEGE LONDON - LONDON (UK)                                 *
 *(18) UNIVERSITY OF VERMONT - BURLINGTON (USA)                                *
 *                                                                             *
 *******************************************************************************
 EEEEEEEEEE STARTING  DATE 19 02 2026 TIME 19:16:22.9
 cof-1_z43_L070_incl                                                             

 CRYSTAL CALCULATION
 (INPUT ACCORDING TO THE INTERNATIONAL TABLES FOR X-RAY CRYSTALLOGRAPHY)
 CRYSTAL FAMILY                       :  TRICLINIC   
 CRYSTAL CLASS  (GROTH - 1921)        :  TRICLINIC PEDIAL                     

 SPACE GROUP (NONCENTROSYMMETRIC)     :  P 1             

 LATTICE PARAMETERS  (ANGSTROMS AND DEGREES) - CONVENTIONAL CELL
        A           B           C        ALPHA        BETA       GAMMA
    15.02361    15.02392     8.21523    42.44322    89.99997   119.99596


 NUMBER OF IRREDUCIBLE ATOMS IN THE CONVENTIONAL CELL:   42

 INPUT COORDINATES

 ATOM AT. N.              COORDINATES
   1   5     4.789015900000E-01 -4.226709000000E-02  5.011060300000E-01
   2   5     6.379572400000E-01  1.167925700000E-01  5.011060400000E-01
   3   5     4.795255100000E-01  1.180318700000E-01  4.987704300000E-01
   4   5     9.247629000000E-02  3.440479100000E-01  5.011060400000E-01
   5   5     2.515842700000E-01  3.440271400000E-01  5.011060300000E-01
   6   5     2.521927300000E-01  5.044228400000E-01  4.987704400000E-01
   7   1     7.695670300000E-01  4.194973000000E-02  4.962638700000E-01
   8   1    -3.664291000000E-02  4.244714700000E-01  4.955234200000E-01
   9   1     7.697246300000E-01  3.275517700000E-01  4.954094600000E-01
  10   1    -3.651825000000E-02  1.391489900000E-01  4.954378800000E-01
  11   1     5.555486300000E-01 -1.739909600000E-01  5.037265200000E-01
  12   1     1.732467900000E-01  6.320438600000E-01  5.044670100000E-01
  13   1     2.701563900000E-01 -1.744048100000E-01  5.045810400000E-01
  14   1     4.586063000000E-01  6.319079200000E-01  5.045524300000E-01
  15   1     5.575961400000E-01  3.270738700000E-01  4.962639100000E-01
  16   1     1.756844100000E-01  1.390273900000E-01  4.955233700000E-01
  17   1     2.725938100000E-01  4.230264000000E-02  4.954093700000E-01
  18   1     4.610364300000E-01  4.244219300000E-01  4.954379700000E-01
  19   6     7.577625300000E-01  1.776608600000E-01  4.986849700000E-01
  20   6     8.129818700000E-01  1.257440100000E-01  4.963778200000E-01
  21   6    -8.006551000000E-02  3.402509000000E-01  4.961785100000E-01
  22   6     8.128376000000E-01  2.864360100000E-01  4.967766400000E-01
  23   6    -7.977446000000E-02  1.798212800000E-01  4.952385000000E-01
  24   6    -2.558627000000E-02  2.867641400000E-01  4.968051000000E-01
  25   6     4.192068400000E-01 -1.615241200000E-01  5.013054300000E-01
  26   6     4.717247400000E-01 -2.173778200000E-01  5.036125500000E-01
  27   6     2.572919300000E-01  6.756221300000E-01  5.038119400000E-01
  28   6     3.109417100000E-01 -2.171163900000E-01  5.032138100000E-01
  29   6     4.179573100000E-01  6.750768700000E-01  5.047518500000E-01
  30   6     3.105897100000E-01  6.212881500000E-01  5.031852900000E-01
  31   6     4.199170900000E-01  1.775917200000E-01  4.986849700000E-01
  32   6     4.737029700000E-01  2.865841400000E-01  4.963778600000E-01
  33   6     2.593697500000E-01  1.792376600000E-01  4.961784600000E-01
  34   6     3.126727700000E-01  1.254338400000E-01  4.967765800000E-01
  35   6     4.205421400000E-01  3.406692800000E-01  4.952385600000E-01
  36   6     3.123378200000E-01  2.866867400000E-01  4.968051000000E-01
  37   8     4.264173800000E-01  1.170472000000E-02  4.993970500000E-01
  38   8     5.840370700000E-01  9.061490000000E-03  5.043246100000E-01
  39   8     5.860342700000E-01  1.720059900000E-01  4.968905700000E-01
  40   8     1.460052000000E-01  4.509851900000E-01  4.993970800000E-01
  41   8     1.446993400000E-01  2.893787700000E-01  5.043246000000E-01
  42   8     3.056186900000E-01  4.523179600000E-01  4.968905500000E-01

 *******************************************************************************

 << INFORMATION >>: FROM NOW ON, ALL COORDINATES REFER TO THE PRIMITIVE CELL

 *******************************************************************************

 LATTICE PARAMETERS  (ANGSTROMS AND DEGREES) - PRIMITIVE CELL
       A          B          C        ALPHA      BETA     GAMMA        VOLUME
   15.02361   15.02392    8.21523    42.44322  89.99997 119.99596    840.578803

 COORDINATES OF THE EQUIVALENT ATOMS (FRACTIONAL UNITS)

 N. ATOM EQUIV AT. N.          X                  Y                  Z

   1   1   1    5 B     4.78901590000E-01 -4.22670900000E-02 -4.98893970000E-01

   2   2   1    5 B    -3.62042760000E-01  1.16792570000E-01 -4.98893960000E-01

   3   3   1    5 B     4.79525510000E-01  1.18031870000E-01  4.98770430000E-01

   4   4   1    5 B     9.24762900000E-02  3.44047910000E-01 -4.98893960000E-01

   5   5   1    5 B     2.51584270000E-01  3.44027140000E-01 -4.98893970000E-01

   6   6   1    5 B     2.52192730000E-01 -4.95577160000E-01  4.98770440000E-01

   7   7   1    1 H    -2.30432970000E-01  4.19497300000E-02  4.96263870000E-01

   8   8   1    1 H    -3.66429100000E-02  4.24471470000E-01  4.95523420000E-01

   9   9   1    1 H    -2.30275370000E-01  3.27551770000E-01  4.95409460000E-01

  10  10   1    1 H    -3.65182500000E-02  1.39148990000E-01  4.95437880000E-01

  11  11   1    1 H    -4.44451370000E-01 -1.73990960000E-01 -4.96273480000E-01

  12  12   1    1 H     1.73246790000E-01 -3.67956140000E-01 -4.95532990000E-01

  13  13   1    1 H     2.70156390000E-01 -1.74404810000E-01 -4.95418960000E-01

  14  14   1    1 H     4.58606300000E-01 -3.68092080000E-01 -4.95447570000E-01

  15  15   1    1 H    -4.42403860000E-01  3.27073870000E-01  4.96263910000E-01

  16  16   1    1 H     1.75684410000E-01  1.39027390000E-01  4.95523370000E-01

  17  17   1    1 H     2.72593810000E-01  4.23026400000E-02  4.95409370000E-01

  18  18   1    1 H     4.61036430000E-01  4.24421930000E-01  4.95437970000E-01

  19  19   1    6 C    -2.42237470000E-01  1.77660860000E-01  4.98684970000E-01

  20  20   1    6 C    -1.87018130000E-01  1.25744010000E-01  4.96377820000E-01

  21  21   1    6 C    -8.00655100000E-02  3.40250900000E-01  4.96178510000E-01

  22  22   1    6 C    -1.87162400000E-01  2.86436010000E-01  4.96776640000E-01

  23  23   1    6 C    -7.97744600000E-02  1.79821280000E-01  4.95238500000E-01

  24  24   1    6 C    -2.55862700000E-02  2.86764140000E-01  4.96805100000E-01

  25  25   1    6 C     4.19206840000E-01 -1.61524120000E-01 -4.98694570000E-01

  26  26   1    6 C     4.71724740000E-01 -2.17377820000E-01 -4.96387450000E-01

  27  27   1    6 C     2.57291930000E-01 -3.24377870000E-01 -4.96188060000E-01

  28  28   1    6 C     3.10941710000E-01 -2.17116390000E-01 -4.96786190000E-01

  29  29   1    6 C     4.17957310000E-01 -3.24923130000E-01 -4.95248150000E-01

  30  30   1    6 C     3.10589710000E-01 -3.78711850000E-01 -4.96814710000E-01

  31  31   1    6 C     4.19917090000E-01  1.77591720000E-01  4.98684970000E-01

  32  32   1    6 C     4.73702970000E-01  2.86584140000E-01  4.96377860000E-01

  33  33   1    6 C     2.59369750000E-01  1.79237660000E-01  4.96178460000E-01

  34  34   1    6 C     3.12672770000E-01  1.25433840000E-01  4.96776580000E-01

  35  35   1    6 C     4.20542140000E-01  3.40669280000E-01  4.95238560000E-01

  36  36   1    6 C     3.12337820000E-01  2.86686740000E-01  4.96805100000E-01

  37  37   1    8 O     4.26417380000E-01  1.17047200000E-02  4.99397050000E-01

  38  38   1    8 O    -4.15962930000E-01  9.06149000000E-03 -4.95675390000E-01

  39  39   1    8 O    -4.13965730000E-01  1.72005990000E-01  4.96890570000E-01

  40  40   1    8 O     1.46005200000E-01  4.50985190000E-01  4.99397080000E-01

  41  41   1    8 O     1.44699340000E-01  2.89378770000E-01 -4.95675400000E-01

  42  42   1    8 O     3.05618690000E-01  4.52317960000E-01  4.96890550000E-01

 NUMBER OF SYMMETRY OPERATORS         :    1
 *******************************************************************************
 * GEOMETRY EDITING - INPUT COORDINATES ARE GIVEN IN ANGSTROM         
 *******************************************************************************

 GCALCO - MAX INDICES DIRECT LATTICE VECTOR     9    14    23
 NO.OF VECTORS CREATED 6999 STARS 3500 RMAX   217.23881 BOHR

 GEOMETRY FOR WAVE FUNCTION - DIMENSIONALITY OF THE SYSTEM    3
 (NON PERIODIC DIRECTION: LATTICE PARAMETER FORMALLY SET TO 500)
 *******************************************************************************
 LATTICE PARAMETERS (ANGSTROMS AND DEGREES) - BOHR = 0.5291772083 ANGSTROM
 PRIMITIVE CELL - CENTRING CODE 1/0 VOLUME=   840.578803 - DENSITY  0.771 g/cm^3
         A              B              C           ALPHA      BETA       GAMMA 
    15.02361100    15.02391600     8.21523000    42.443218  89.999970 119.995964
 *******************************************************************************
 ATOMS IN THE ASYMMETRIC UNIT   42 - ATOMS IN THE UNIT CELL:   42
     ATOM                 X/A                 Y/B                 Z/C    
 *******************************************************************************
      1 T   5 B     4.789015900000E-01 -4.226709000000E-02 -4.988939700000E-01
      2 T   5 B    -3.620427600000E-01  1.167925700000E-01 -4.988939600000E-01
      3 T   5 B     4.795255100000E-01  1.180318700000E-01  4.987704300000E-01
      4 T   5 B     9.247629000000E-02  3.440479100000E-01 -4.988939600000E-01
      5 T   5 B     2.515842700000E-01  3.440271400000E-01 -4.988939700000E-01
      6 T   5 B     2.521927300000E-01 -4.955771600000E-01  4.987704400000E-01
      7 T   1 H    -2.304329700000E-01  4.194973000000E-02  4.962638700000E-01
      8 T   1 H    -3.664291000000E-02  4.244714700000E-01  4.955234200000E-01
      9 T   1 H    -2.302753700000E-01  3.275517700000E-01  4.954094600000E-01
     10 T   1 H    -3.651825000000E-02  1.391489900000E-01  4.954378800000E-01
     11 T   1 H    -4.444513700000E-01 -1.739909600000E-01 -4.962734800000E-01
     12 T   1 H     1.732467900000E-01 -3.679561400000E-01 -4.955329900000E-01
     13 T   1 H     2.701563900000E-01 -1.744048100000E-01 -4.954189600000E-01
     14 T   1 H     4.586063000000E-01 -3.680920800000E-01 -4.954475700000E-01
     15 T   1 H    -4.424038600000E-01  3.270738700000E-01  4.962639100000E-01
     16 T   1 H     1.756844100000E-01  1.390273900000E-01  4.955233700000E-01
     17 T   1 H     2.725938100000E-01  4.230264000000E-02  4.954093700000E-01
     18 T   1 H     4.610364300000E-01  4.244219300000E-01  4.954379700000E-01
     19 T   6 C    -2.422374700000E-01  1.776608600000E-01  4.986849700000E-01
     20 T   6 C    -1.870181300000E-01  1.257440100000E-01  4.963778200000E-01
     21 T   6 C    -8.006551000000E-02  3.402509000000E-01  4.961785100000E-01
     22 T   6 C    -1.871624000000E-01  2.864360100000E-01  4.967766400000E-01
     23 T   6 C    -7.977446000000E-02  1.798212800000E-01  4.952385000000E-01
     24 T   6 C    -2.558627000000E-02  2.867641400000E-01  4.968051000000E-01
     25 T   6 C     4.192068400000E-01 -1.615241200000E-01 -4.986945700000E-01
     26 T   6 C     4.717247400000E-01 -2.173778200000E-01 -4.963874500000E-01
     27 T   6 C     2.572919300000E-01 -3.243778700000E-01 -4.961880600000E-01
     28 T   6 C     3.109417100000E-01 -2.171163900000E-01 -4.967861900000E-01
     29 T   6 C     4.179573100000E-01 -3.249231300000E-01 -4.952481500000E-01
     30 T   6 C     3.105897100000E-01 -3.787118500000E-01 -4.968147100000E-01
     31 T   6 C     4.199170900000E-01  1.775917200000E-01  4.986849700000E-01
     32 T   6 C     4.737029700000E-01  2.865841400000E-01  4.963778600000E-01
     33 T   6 C     2.593697500000E-01  1.792376600000E-01  4.961784600000E-01
     34 T   6 C     3.126727700000E-01  1.254338400000E-01  4.967765800000E-01
     35 T   6 C     4.205421400000E-01  3.406692800000E-01  4.952385600000E-01
     36 T   6 C     3.123378200000E-01  2.866867400000E-01  4.968051000000E-01
     37 T   8 O     4.264173800000E-01  1.170472000000E-02  4.993970500000E-01
     38 T   8 O    -4.159629300000E-01  9.061490000000E-03 -4.956753900000E-01
     39 T   8 O    -4.139657300000E-01  1.720059900000E-01  4.968905700000E-01
     40 T   8 O     1.460052000000E-01  4.509851900000E-01  4.993970800000E-01
     41 T   8 O     1.446993400000E-01  2.893787700000E-01 -4.956754000000E-01
     42 T   8 O     3.056186900000E-01  4.523179600000E-01  4.968905500000E-01

 T = ATOM BELONGING TO THE ASYMMETRIC UNIT

 ****    1 SYMMOPS - TRANSLATORS IN FRACTIONAL UNITS
 **** MATRICES AND TRANSLATORS IN THE CRYSTALLOGRAPHIC REFERENCE FRAME
   V INV                    ROTATION MATRICES                   TRANSLATORS
   1   1  1.00  0.00  0.00  0.00  1.00  0.00  0.00  0.00  1.00  0.00  0.00  0.00

 DIRECT LATTICE VECTORS CARTESIAN COMPONENTS (ANGSTROM)
          X                    Y                    Z
   0.130113578931E+02  -0.751088897922E+01   0.000000000000E+00
   0.000000000000E+00   0.150239160000E+02   0.000000000000E+00
   0.349956403111E+01   0.606240028054E+01   0.430004167231E+01


 CARTESIAN COORDINATES - PRIMITIVE CELL
 *******************************************************************************
 *      ATOM          X(ANGSTROM)         Y(ANGSTROM)         Z(ANGSTROM)
 *******************************************************************************
    1     5 B     9.856845591769E-01  1.705026891594E+00 -6.445306533371E+00
    2     5 B    -6.456579280706E+00  1.449449854132E+00 -2.145264818063E+00
    3     5 B    -1.527036775870E+00 -2.552427136020E-01  6.444775306223E+00
    4     5 B    -5.426692519444E-01  1.449872869354E+00 -2.145264818063E+00
    5     5 B     1.527541584481E+00  2.545183885074E-01 -2.145264861063E+00
    6     5 B     1.527284928549E+00  2.645560555089E+00 -2.155307995393E+00
    7     1 H    -4.761102684751E+00 -6.928443812642E-01 -2.166086350847E+00
    8     1 H    -2.242222110161E+00  3.594105578446E+00 -2.169270316703E+00
    9     1 H    -1.262478126136E+00 -5.369862533867E+00  2.130281322856E+00
   10     1 H    -2.240899466993E+00 -6.940102791256E-01 -2.169638142268E+00
   11     1 H    -4.020092630219E+00  3.777991125093E+00  2.166045027447E+00
   12     1 H     5.200265604784E-01  5.190417117669E+00 -2.130812507003E+00
   13     1 H     5.280915135753E+00 -1.590385629303E+00  2.169719499057E+00
   14     1 H     4.233240206035E+00  3.045589017987E+00 -2.130445197444E+00
   15     1 H    -4.019567626353E+00 -3.778588907684E+00  2.133955493463E+00
   16     1 H     5.204444658545E-01 -2.289149533066E+00 -2.169270531706E+00
   17     1 H     1.780968402156E+00 -4.470900910261E+00 -2.169760736456E+00
   18     1 H     4.232962860813E+00 -1.451710084461E-01 -2.169637755264E+00
   19     6 C    -4.906222464524E+00  1.449408202395E+00 -2.155675519954E+00
   20     6 C    -4.195817888320E+00  2.406806099578E-01 -2.165596361099E+00
   21     6 C    -2.804916570007E+00  2.658896554883E+00 -2.166453402404E+00
   22     6 C    -4.196299340796E+00  2.658405122263E+00 -2.163881418479E+00
   23     6 C    -2.804419239477E+00  2.407306589657E-01 -2.170495484577E+00
   24     6 C    -2.093874888799E+00  1.449927081610E+00 -2.163759039293E+00
   25     6 C     2.096726156582E-01  3.628887729724E-01 -6.444449105062E+00
   26     6 C     9.010757225174E-01 -8.567219555031E-01 -6.434528392919E+00
   27     6 C     1.611275496781E+00  5.209908373240E+00 -2.133629335302E+00
   28     6 C    -1.192325240104E+00  3.524119134409E-01 -6.436242991535E+00
   29     6 C     3.705039532213E+00  4.000674711466E+00 -2.129587683134E+00
   30     6 C     2.302558985466E+00  3.989486510220E+00 -2.136323956416E+00
   31     6 C     3.709307496156E+00 -3.524999938399E+00 -2.155675519954E+00
   32     6 C     4.401060951257E+00 -2.305473373323E+00 -2.165596189097E+00
   33     6 C     1.611596904398E+00 -2.309613694377E+00 -2.166453617406E+00
   34     6 C     2.307234733637E+00 -3.514684789157E+00 -2.163881676481E+00
   35     6 C     3.705379312934E+00 -1.100524573581E+00 -2.170495226574E+00
   36     6 C     2.302976386877E+00 -1.089346092881E+00 -2.163759039293E+00
   37     8 O    -2.215852765517E+00 -1.450004794134E+00  6.447469798336E+00
   38     8 O     2.364903543514E+00  1.706034568151E+00 -6.431466505246E+00
   39     8 O    -1.477918712034E-01 -2.557120040134E-01  6.436691829885E+00
   40     8 O     1.478339387442E-01  2.644079481571E+00 -2.152613417279E+00
   41     8 O     1.480870986806E-01  2.557989705427E-01 -2.131424875938E+00
   42     8 O     2.215850419463E+00  1.450068114948E+00 -2.163391600732E+00

 *******************************************************************************
 STARTING BASIS SET HANDLING 
 *******************************************************************************

 Loading internal basis set: SOLDEF2MSVP         

 Please cite in your publication:
 L. Dona', J. G. Brandenburg and B. Civalleri, J. Chem. Phys., 151, 121101 (2019
 )                                                                              
                                                                                
                    

 *******************************************************************************
 LOCAL ATOMIC FUNCTIONS BASIS SET
 *******************************************************************************
   ATOM   X(AU)   Y(AU)   Z(AU)  N. TYPE  EXPONENT  S COEF   P COEF   D/F/G COEF
 *******************************************************************************
   1 B    1.863   3.222 -12.180
                                  1 S  
                                         2.410E+03 1.755E-03 0.000E+00 0.000E+00
                                         3.619E+02 1.344E-02 0.000E+00 0.000E+00
                                         8.231E+01 6.637E-02 0.000E+00 0.000E+00
                                         2.311E+01 2.303E-01 0.000E+00 0.000E+00
                                         7.252E+00 5.150E-01 0.000E+00 0.000E+00
                                  2 S  
                                         2.367E+00 1.000E+00 0.000E+00 0.000E+00
                                  3 S  
                                         5.533E-01 1.000E+00 0.000E+00 0.000E+00
                                  4 S  
                                         1.716E-01 1.000E+00 0.000E+00 0.000E+00
                           5-     7 P  
                                         6.002E+00 0.000E+00-3.555E-02 0.000E+00
                                         1.240E+00 0.000E+00-1.983E-01 0.000E+00
                                         3.367E-01 0.000E+00-5.048E-01 0.000E+00
                           8-    10 P  
                                         1.256E-01 0.000E+00 1.000E+00 0.000E+00
                          11-    15 D  
                                         8.880E-01 0.000E+00 0.000E+00 1.000E+00
   2 B  -12.201   2.739  -4.054
   3 B   -2.886  -0.482  12.179
   4 B   -1.025   2.740  -4.054
   5 B    2.887   0.481  -4.054
   6 B    2.886   4.999  -4.073
   7 H   -8.997  -1.309  -4.093
                                 91 S  
                                         1.874E+01 1.968E-02 0.000E+00 0.000E+00
                                         2.826E+00 1.380E-01 0.000E+00 0.000E+00
                                         6.401E-01 4.783E-01 0.000E+00 0.000E+00
                                 92 S  
                                         1.756E-01 1.000E+00 0.000E+00 0.000E+00
   8 H   -4.237   6.792  -4.099
   9 H   -2.386 -10.148   4.026
  10 H   -4.235  -1.311  -4.100
  11 H   -7.597   7.139   4.093
  12 H    0.983   9.808  -4.027
  13 H    9.979  -3.005   4.100
  14 H    8.000   5.755  -4.026
  15 H   -7.596  -7.140   4.033
  16 H    0.983  -4.326  -4.099
  17 H    3.366  -8.449  -4.100
  18 H    7.999  -0.274  -4.100
  19 C   -9.271   2.739  -4.074
                                115 S  
                                         3.624E+03 1.634E-03 0.000E+00 0.000E+00
                                         5.440E+02 1.252E-02 0.000E+00 0.000E+00
                                         1.237E+02 6.211E-02 0.000E+00 0.000E+00
                                         3.476E+01 2.182E-01 0.000E+00 0.000E+00
                                         1.093E+01 4.980E-01 0.000E+00 0.000E+00
                                116 S  
                                         3.574E+00 1.000E+00 0.000E+00 0.000E+00
                                117 S  
                                         7.742E-01 1.000E+00 0.000E+00 0.000E+00
                                118 S  
                                         2.330E-01 1.000E+00 0.000E+00 0.000E+00
                         119-   121 P  
                                         9.443E+00 0.000E+00 3.790E-02 0.000E+00
                                         2.002E+00 0.000E+00 2.082E-01 0.000E+00
                                         5.463E-01 0.000E+00 5.047E-01 0.000E+00
                         122-   124 P  
                                         1.820E-01 0.000E+00 1.000E+00 0.000E+00
                         125-   129 D  
                                         8.880E-01 0.000E+00 0.000E+00 1.000E+00
  20 C   -7.929   0.455  -4.092
  21 C   -5.301   5.025  -4.094
  22 C   -7.930   5.024  -4.089
  23 C   -5.300   0.455  -4.102
  24 C   -3.957   2.740  -4.089
  25 C    0.396   0.686 -12.178
  26 C    1.703  -1.619 -12.159
  27 C    3.045   9.845  -4.032
  28 C   -2.253   0.666 -12.163
  29 C    7.002   7.560  -4.024
  30 C    4.351   7.539  -4.037
  31 C    7.010  -6.661  -4.074
  32 C    8.317  -4.357  -4.092
  33 C    3.045  -4.365  -4.094
  34 C    4.360  -6.642  -4.089
  35 C    7.002  -2.080  -4.102
  36 C    4.352  -2.059  -4.089
  37 O   -4.187  -2.740  12.184
                                385 S  
                                         6.773E+03 1.727E-03 0.000E+00 0.000E+00
                                         1.017E+03 1.325E-02 0.000E+00 0.000E+00
                                         2.313E+02 6.603E-02 0.000E+00 0.000E+00
                                         6.501E+01 2.353E-01 0.000E+00 0.000E+00
                                         2.050E+01 5.498E-01 0.000E+00 0.000E+00
                                386 S  
                                         6.716E+00 1.000E+00 0.000E+00 0.000E+00
                                387 S  
                                         1.147E+00 1.000E+00 0.000E+00 0.000E+00
                                388 S  
                                         3.342E-01 1.000E+00 0.000E+00 0.000E+00
                         389-   391 P  
                                         1.769E+01 0.000E+00 4.359E-02 0.000E+00
                                         3.854E+00 0.000E+00 2.318E-01 0.000E+00
                                         1.047E+00 0.000E+00 5.146E-01 0.000E+00
                         392-   394 P  
                                         2.759E-01 0.000E+00 1.000E+00 0.000E+00
                         395-   399 D  
                                         8.000E-01 0.000E+00 0.000E+00 1.000E+00
  38 O    4.469   3.224 -12.154
  39 O   -0.279  -0.483  12.164
  40 O    0.279   4.997  -4.068
  41 O    0.280   0.483  -4.028
  42 O    4.187   2.740  -4.088

 *******************************************************************************
 FINISHED BASIS SET HANDLING 
 *******************************************************************************

 INFORMATION **** SET_MPP **** PCRYSTAL CALCULATION
 INFORMATION **** READM2 **** NEW DEFAULT: FOCK/KS MATRIX MIXING SET TO 30 %
 INFORMATION **** READM2 **** NEW DEFAULT: FULL DIRECT SCF MODE
 INFORMATION **** READM2 **** NEW DEFAULT: COULOMB BIPOLAR BUFFER SET TO 32 Mb
 INFORMATION **** READM2 **** NEW DEFAULT: EXCHANGE BIPOLAR BUFFER SET TO 32 Mb

 *******************************************************************************
 NEW DEFAULT: DFT INTEGRATION GRID INCREASED TO XLGRID
 NEW DEFAULT: DIIS ACCELERATOR ACTIVE
 USE KEYWORD NODIIS TO TURN IT OFF
 *******************************************************************************

 WARNING **** RDDFTP **** HSEsol-HJS ACTIVE
 RANGE SEPARATION - OMEGA:   0.110000000000000     
 WARNING **** RDDFTP **** HSEsol-3c has to be combined with sol-def2-mSVP basis set
 *******************************************************************************
 N. OF ATOMS PER CELL        42  COULOMB OVERLAP TOL         (T1) 10**   -6
 NUMBER OF SHELLS           234  COULOMB PENETRATION TOL     (T2) 10**   -6
 NUMBER OF AO               474  EXCHANGE OVERLAP TOL        (T3) 10**   -6
 N. OF ELECTRONS PER CELL   198  EXCHANGE PSEUDO OVP (F(G))  (T4) 10**   -6
 CORE ELECTRONS PER CELL     60  EXCHANGE PSEUDO OVP (P(G))  (T5) 10**  -12
 N. OF SYMMETRY OPERATORS     1  POLE ORDER IN MONO ZONE                  4
 *******************************************************************************
 TYPE OF CALCULATION :  RESTRICTED CLOSED SHELL
 KOHN-SHAM HAMILTONIAN

 (EXCHANGE)[CORRELATION] FUNCTIONAL:(HSEsol GGA)[PBEsol]

 RANGE-SEPARATED HYBRID FUNCTIONAL 
 OMEGA (SHORT-RANGE)[LONG-RANGE]:(    0.1100)[    0.0000]

 HYBRID EXCHANGE - PERCENTAGE OF FOCK EXCHANGE    25.0000

 CAPPA:IS1  2;IS2  2;IS3  8; K PTS MONK NET  20; SYMMOPS:K SPACE   2;G SPACE   1

 *******************************************************************************
 MAX NUMBER OF SCF CYCLES      50  CONVERGENCE ON DELTAP        10**-16
 WEIGHT OF F(I) IN F(I+1)      30% CONVERGENCE ON ENERGY        10**- 6
 SHRINK. FACT.(MONKH.)    2  2  8  NUMBER OF K POINTS IN THE IBZ     20
 SHRINKING FACTOR(GILAT NET)    8  NUMBER OF K POINTS(GILAT NET)   1028
 *******************************************************************************
 *** K POINTS COORDINATES (OBLIQUE COORDINATES IN UNITS OF IS =  2)
   1-R(  0  0  0)   2-R(  1  0  0)   3-R(  0  1  0)   4-R(  1  1  0)
   5-C(  0  0  1)   6-C(  1  0  1)   7-C(  0  1  1)   8-C(  1  1  1)
   9-C(  0  0  2)  10-C(  1  0  2)  11-C(  0  1  2)  12-C(  1  1  2)
  13-C(  0  0  3)  14-C(  1  0  3)  15-C(  0  1  3)  16-C(  1  1  3)
  17-R(  0  0  4)  18-R(  1  0  4)  19-R(  0  1  4)  20-R(  1  1  4)

 DIRECT LATTICE VECTORS COMPON. (A.U.)     RECIP. LATTICE VECTORS COMPON. (A.U.) 
        X            Y            Z              X            Y            Z
   24.5879030  -14.1935232    0.0000000      0.2555397    0.0000000   -0.2079695
    0.0000000   28.3910867    0.0000000      0.1277517    0.2213084   -0.4159809
    6.6132176   11.4562762    8.1259011      0.0000000    0.0000000    0.7732294

 DISK SPACE FOR EIGENVECTORS (FTN 10)     7189632 REALS

 SYMMETRY ADAPTION OF THE BLOCH FUNCTIONS DISABLED
 TTTTTTTTTTTTTTTTTTTTTTTTTTTTTT gordsh1     TELAPSE        0.04 TCPU        0.04

 MATRIX SIZE: P(G)  276916, F(G)   55102, P(G) IRR  139517, F(G) IRR   55582
 MAX G-VECTOR INDEX FOR 1- AND 2-ELECTRON INTEGRALS  63

 TTTTTTTTTTTTTTTTTTTTTTTTTTTTTT INPUT       TELAPSE        0.38 TCPU        0.38

 NEIGHBORS OF THE NON-EQUIVALENT ATOMS

 N = NUMBER OF NEIGHBORS AT DISTANCE R
    ATOM  N     R/ANG      R/AU   NEIGHBORS (ATOM LABELS AND CELL INDICES)
   1 B    1     1.3791     2.6061   37 O    1 2-3
   1 B    1     1.3793     2.6065   38 O    0 0 0
   1 B    1     1.5503     2.9297   25 C    0 0 0
   1 B    1     2.3895     4.5155    3 B    1 2-3
   1 B    1     2.3898     4.5160    2 B    1 1-1
   1 B    1     2.5632     4.8437   26 C    0 0 0

   2 B    1     1.3793     2.6065   39 O    0 1-2
   2 B    1     1.3793     2.6065   38 O   -1-1 1
   2 B    1     1.5504     2.9298   19 C    0 0 0
   2 B    1     2.3895     4.5156    3 B    0 1-2
   2 B    1     2.3898     4.5160    1 B   -1-1 1
   2 B    1     2.5634     4.8440   22 C    0 0 0

   3 B    1     1.3791     2.6061   37 O    0 0 0
   3 B    1     1.3793     2.6064   39 O    0 0 0
   3 B    1     1.5502     2.9294   31 C   -1-1 2
   3 B    1     2.3895     4.5155    1 B   -1-2 3
   3 B    1     2.3895     4.5156    2 B    0-1 2
   3 B    1     2.5629     4.8433   32 C   -1-1 2

   4 B    1     1.3795     2.6068   40 O    0 0 0
   4 B    1     1.3795     2.6070   41 O    0 0 0
   4 B    1     1.5513     2.9316   24 C    0 0 0
   4 B    1     2.3905     4.5174    6 B    0 0 0
   4 B    1     2.3905     4.5175    5 B    0 0 0
   4 B    1     2.5648     4.8468   23 C    0 0 0

   5 B    1     1.3795     2.6069   41 O    0 0 0
   5 B    1     1.3797     2.6072   42 O    0 0 0
   5 B    1     1.5516     2.9322   36 C    0 0 0
   5 B    1     2.3905     4.5175    4 B    0 0 0
   5 B    1     2.3911     4.5185    6 B    0 0 0
   5 B    1     2.5651     4.8473   35 C    0 0 0

   6 B    1     1.3795     2.6068   40 O    0 0 0
   6 B    1     1.3796     2.6071   42 O    0 0 0
   6 B    1     1.5516     2.9322   30 C    0 0 0
   6 B    1     2.3905     4.5174    4 B    0 0 0
   6 B    1     2.3911     4.5185    5 B    0 0 0
   6 B    1     2.5651     4.8473   29 C    0 0 0

   7 H    1     1.0913     2.0623   20 C    0 0 0
   7 H    1     2.1472     4.0576   19 C    0 0 0
   7 H    1     2.1680     4.0969   23 C    0 0 0
   7 H    1     2.5202     4.7625   10 H    0 0 0
   7 H    1     2.5676     4.8520   38 O   -1-1 1
   7 H    1     2.7321     5.1630    2 B    0 0 0

   8 H    1     1.0914     2.0625   21 C    0 0 0
   8 H    1     2.1493     4.0616   24 C    0 0 0
   8 H    1     2.1666     4.0942   22 C    0 0 0
   8 H    1     2.5198     4.7618    9 H    0 1-1
   8 H    1     2.5720     4.8604   40 O    0 0 0
   8 H    1     2.7362     5.1707    4 B    0 0 0

   9 H    1     1.0914     2.0624   22 C    0-1 1
   9 H    1     2.1471     4.0575   19 C    0-1 1
   9 H    1     2.1680     4.0970   21 C    0-1 1
   9 H    1     2.5198     4.7618    8 H    0-1 1
   9 H    1     2.5665     4.8500   39 O    0 0-1
   9 H    1     2.7315     5.1618    2 B    0-1 1

  10 H    1     1.0915     2.0626   23 C    0 0 0
  10 H    1     2.1490     4.0610   24 C    0 0 0
  10 H    1     2.1669     4.0948   20 C    0 0 0
  10 H    1     2.5202     4.7625    7 H    0 0 0
  10 H    1     2.5712     4.8588   41 O    0 0 0
  10 H    1     2.7351     5.1686    4 B    0 0 0

  11 H    1     1.0913     2.0623   26 C   -1-1 2
  11 H    1     2.1469     4.0571   25 C   -1-1 2
  11 H    1     2.1680     4.0968   29 C   -1-1 1
  11 H    1     2.5198     4.7617   14 H   -1-1 1
  11 H    1     2.5670     4.8510   38 O   -1-1 2
  11 H    1     2.7310     5.1609    1 B   -1-1 2

  12 H    1     1.0914     2.0625   27 C    0 0 0
  12 H    1     2.1493     4.0617   30 C    0 0 0
  12 H    1     2.1664     4.0939   28 C    0 0 1
  12 H    1     2.5192     4.7606   13 H    0 1-1
  12 H    1     2.5735     4.8632   40 O    0 0 0
  12 H    1     2.7371     5.1723    6 B    0 0 0

  13 H    1     1.0914     2.0624   28 C    0-1 2
  13 H    1     2.1475     4.0581   25 C    0-1 2
  13 H    1     2.1679     4.0967   27 C    0-1 1
  13 H    1     2.5192     4.7606   12 H    0-1 1
  13 H    1     2.5675     4.8519   37 O    1 1-1
  13 H    1     2.7328     5.1643    1 B    0-1 2

  14 H    1     1.0914     2.0625   29 C    0 0 0
  14 H    1     2.1491     4.0612   30 C    0 0 0
  14 H    1     2.1666     4.0942   26 C    0 0 1
  14 H    1     2.5198     4.7617   11 H    1 1-1
  14 H    1     2.5723     4.8609   42 O    0 0 0
  14 H    1     2.7355     5.1693    6 B    0 0 0

  15 H    1     1.0914     2.0624   32 C   -1-1 1
  15 H    1     2.1475     4.0582   31 C   -1-1 1
  15 H    1     2.1678     4.0966   35 C   -1-1 1
  15 H    1     2.5200     4.7621   18 H   -1-1 1
  15 H    1     2.5667     4.8503   39 O    0 0-1
  15 H    1     2.7315     5.1618    3 B    0 0-1

  16 H    1     1.0913     2.0623   33 C    0 0 0
  16 H    1     2.1487     4.0605   36 C    0 0 0
  16 H    1     2.1667     4.0945   34 C    0 0 0
  16 H    1     2.5197     4.7616   17 H    0 0 0
  16 H    1     2.5723     4.8610   41 O    0 0 0
  16 H    1     2.7359     5.1701    5 B    0 0 0

  17 H    1     1.0915     2.0626   34 C    0 0 0
  17 H    1     2.1479     4.0589   31 C    0 0 0
  17 H    1     2.1679     4.0968   33 C    0 0 0
  17 H    1     2.5197     4.7616   16 H    0 0 0
  17 H    1     2.5677     4.8522   37 O    1 1-2
  17 H    1     2.7331     5.1648    3 B    1 1-2

  18 H    1     1.0914     2.0624   35 C    0 0 0
  18 H    1     2.1486     4.0602   36 C    0 0 0
  18 H    1     2.1668     4.0947   32 C    0 0 0
  18 H    1     2.5200     4.7621   15 H    1 1-1
  18 H    1     2.5717     4.8598   42 O    0 0 0
  18 H    1     2.7349     5.1682    5 B    0 0 0

  19 C    1     1.4020     2.6495   22 C    0 0 0
  19 C    1     1.4021     2.6495   20 C    0 0 0
  19 C    1     1.5504     2.9298    2 B    0 0 0
  19 C    1     2.1471     4.0575    9 H    0 1-1
  19 C    1     2.1472     4.0576    7 H    0 0 0
  19 C    1     2.4246     4.5817   21 C    0 0 0

  20 C    1     1.0913     2.0623    7 H    0 0 0
  20 C    1     1.3914     2.6294   23 C    0 0 0
  20 C    1     1.4021     2.6495   19 C    0 0 0
  20 C    1     2.1669     4.0948   10 H    0 0 0
  20 C    1     2.4177     4.5688   22 C    0 0 0
  20 C    1     2.4250     4.5825   24 C    0 0 0

  21 C    1     1.0914     2.0625    8 H    0 0 0
  21 C    1     1.3914     2.6293   22 C    0 0 0
  21 C    1     1.4026     2.6505   24 C    0 0 0
  21 C    1     2.1680     4.0970    9 H    0 1-1
  21 C    1     2.4182     4.5697   23 C    0 0 0
  21 C    1     2.4246     4.5817   19 C    0 0 0

  22 C    1     1.0914     2.0624    9 H    0 1-1
  22 C    1     1.3914     2.6293   21 C    0 0 0
  22 C    1     1.4020     2.6495   19 C    0 0 0
  22 C    1     2.1666     4.0942    8 H    0 0 0
  22 C    1     2.4177     4.5688   20 C    0 0 0
  22 C    1     2.4250     4.5826   24 C    0 0 0

  23 C    1     1.0915     2.0626   10 H    0 0 0
  23 C    1     1.3914     2.6294   20 C    0 0 0
  23 C    1     1.4025     2.6504   24 C    0 0 0
  23 C    1     2.1680     4.0969    7 H    0 0 0
  23 C    1     2.4182     4.5697   21 C    0 0 0
  23 C    1     2.4246     4.5818   19 C    0 0 0

  24 C    1     1.4025     2.6504   23 C    0 0 0
  24 C    1     1.4026     2.6505   21 C    0 0 0
  24 C    1     1.5513     2.9316    4 B    0 0 0
  24 C    1     2.1490     4.0610   10 H    0 0 0
  24 C    1     2.1493     4.0616    8 H    0 0 0
  24 C    1     2.4250     4.5825   20 C    0 0 0

  25 C    1     1.4020     2.6494   26 C    0 0 0
  25 C    1     1.4021     2.6495   28 C    0 0 0
  25 C    1     1.5503     2.9297    1 B    0 0 0
  25 C    1     2.1469     4.0571   11 H    1 1-2
  25 C    1     2.1475     4.0581   13 H    0 1-2
  25 C    1     2.4246     4.5818   27 C    0 0-1

  26 C    1     1.0913     2.0623   11 H    1 1-2
  26 C    1     1.3914     2.6293   29 C    0 0-1
  26 C    1     1.4020     2.6494   25 C    0 0 0
  26 C    1     2.1666     4.0942   14 H    0 0-1
  26 C    1     2.4175     4.5684   28 C    0 0 0
  26 C    1     2.4251     4.5828   30 C    0 0-1

  27 C    1     1.0914     2.0625   12 H    0 0 0
  27 C    1     1.3915     2.6295   28 C    0 0 1
  27 C    1     1.4026     2.6505   30 C    0 0 0
  27 C    1     2.1679     4.0967   13 H    0 1-1
  27 C    1     2.4179     4.5691   29 C    0 0 0
  27 C    1     2.4246     4.5818   25 C    0 0 1

  28 C    1     1.0914     2.0624   13 H    0 1-2
  28 C    1     1.3915     2.6295   27 C    0 0-1
  28 C    1     1.4021     2.6495   25 C    0 0 0
  28 C    1     2.1664     4.0939   12 H    0 0-1
  28 C    1     2.4175     4.5684   26 C    0 0 0
  28 C    1     2.4253     4.5832   30 C    0 0-1

  29 C    1     1.0914     2.0625   14 H    0 0 0
  29 C    1     1.3914     2.6293   26 C    0 0 1
  29 C    1     1.4025     2.6504   30 C    0 0 0
  29 C    1     2.1680     4.0968   11 H    1 1-1
  29 C    1     2.4179     4.5691   27 C    0 0 0
  29 C    1     2.4247     4.5819   25 C    0 0 1

  30 C    1     1.4025     2.6504   29 C    0 0 0
  30 C    1     1.4026     2.6505   27 C    0 0 0
  30 C    1     1.5516     2.9322    6 B    0 0 0
  30 C    1     2.1491     4.0612   14 H    0 0 0
  30 C    1     2.1493     4.0617   12 H    0 0 0
  30 C    1     2.4251     4.5828   26 C    0 0 1

  31 C    1     1.4021     2.6496   32 C    0 0 0
  31 C    1     1.4021     2.6497   34 C    0 0 0
  31 C    1     1.5502     2.9294    3 B    1 1-2
  31 C    1     2.1475     4.0582   15 H    1 1-1
  31 C    1     2.1479     4.0589   17 H    0 0 0
  31 C    1     2.4244     4.5814   33 C    0 0 0

  32 C    1     1.0914     2.0624   15 H    1 1-1
  32 C    1     1.3914     2.6293   35 C    0 0 0
  32 C    1     1.4021     2.6496   31 C    0 0 0
  32 C    1     2.1668     4.0947   18 H    0 0 0
  32 C    1     2.4179     4.5692   34 C    0 0 0
  32 C    1     2.4251     4.5827   36 C    0 0 0

  33 C    1     1.0913     2.0623   16 H    0 0 0
  33 C    1     1.3914     2.6294   34 C    0 0 0
  33 C    1     1.4025     2.6504   36 C    0 0 0
  33 C    1     2.1679     4.0968   17 H    0 0 0
  33 C    1     2.4178     4.5690   35 C    0 0 0
  33 C    1     2.4244     4.5814   31 C    0 0 0

  34 C    1     1.0915     2.0626   17 H    0 0 0
  34 C    1     1.3914     2.6294   33 C    0 0 0
  34 C    1     1.4021     2.6497   31 C    0 0 0
  34 C    1     2.1667     4.0945   16 H    0 0 0
  34 C    1     2.4179     4.5692   32 C    0 0 0
  34 C    1     2.4253     4.5832   36 C    0 0 0

  35 C    1     1.0914     2.0624   18 H    0 0 0
  35 C    1     1.3914     2.6293   32 C    0 0 0
  35 C    1     1.4025     2.6503   36 C    0 0 0
  35 C    1     2.1678     4.0966   15 H    1 1-1
  35 C    1     2.4178     4.5690   33 C    0 0 0
  35 C    1     2.4245     4.5817   31 C    0 0 0

  36 C    1     1.4025     2.6503   35 C    0 0 0
  36 C    1     1.4025     2.6504   33 C    0 0 0
  36 C    1     1.5516     2.9322    5 B    0 0 0
  36 C    1     2.1486     4.0602   18 H    0 0 0
  36 C    1     2.1487     4.0605   16 H    0 0 0
  36 C    1     2.4251     4.5827   32 C    0 0 0

  37 O    2     1.3791     2.6061    1 B   -1-2 3    3 B    0 0 0
  37 O    1     2.3880     4.5126   38 O   -1-2 3
  37 O    1     2.3882     4.5130   39 O    0 0 0
  37 O    1     2.5383     4.7966   31 C   -1-1 2
  37 O    1     2.5384     4.7968   25 C   -1-2 3
  37 O    1     2.5675     4.8519   13 H   -1-1 1

  38 O    1     1.3793     2.6065    1 B    0 0 0
  38 O    1     1.3793     2.6065    2 B    1 1-1
  38 O    1     2.3880     4.5126   37 O    1 2-3
  38 O    1     2.3882     4.5131   39 O    1 2-3
  38 O    1     2.5391     4.7981   19 C    1 1-1
  38 O    1     2.5395     4.7990   25 C    0 0 0

  39 O    1     1.3793     2.6064    3 B    0 0 0
  39 O    1     1.3793     2.6065    2 B    0-1 2
  39 O    1     2.3882     4.5130   37 O    0 0 0
  39 O    1     2.3882     4.5131   38 O   -1-2 3
  39 O    1     2.5390     4.7980   19 C    0-1 2
  39 O    1     2.5391     4.7982   31 C   -1-1 2

  40 O    1     1.3795     2.6068    6 B    0 0 0
  40 O    1     1.3795     2.6068    4 B    0 0 0
  40 O    1     2.3880     4.5126   42 O    0 0 0
  40 O    1     2.3884     4.5134   41 O    0 0 0
  40 O    1     2.5400     4.7998   24 C    0 0 0
  40 O    1     2.5403     4.8005   30 C    0 0 0

  41 O    1     1.3795     2.6069    5 B    0 0 0
  41 O    1     1.3795     2.6070    4 B    0 0 0
  41 O    1     2.3881     4.5128   42 O    0 0 0
  41 O    1     2.3884     4.5134   40 O    0 0 0
  41 O    1     2.5404     4.8006   24 C    0 0 0
  41 O    1     2.5405     4.8008   36 C    0 0 0

  42 O    1     1.3796     2.6071    6 B    0 0 0
  42 O    1     1.3797     2.6072    5 B    0 0 0
  42 O    1     2.3880     4.5126   40 O    0 0 0
  42 O    1     2.3881     4.5128   41 O    0 0 0
  42 O    1     2.5409     4.8016   36 C    0 0 0
  42 O    1     2.5410     4.8019   30 C    0 0 0


 SYMMETRY ALLOWED INTERNAL DEGREE(S) OF FREEDOM: 123
 TTTTTTTTTTTTTTTTTTTTTTTTTTTTTT SYMM        TELAPSE        0.38 TCPU        0.38
 TTTTTTTTTTTTTTTTTTTTTTTTTTTTTT INT_SCREEN  TELAPSE        0.42 TCPU        0.42

 DFT PARAMETERS

     ATOM       ELECTRONS   NET CHARGE   R(ANGSTROM)
   1   5  B       5.0000      0.0000     0.89000000
   7   1  H       1.0000      0.0000     1.11000000
  19   6  C       6.0000      0.0000     0.77000000
  37   8  O       8.0000      0.0000     0.74000000

 SIZE OF GRID=    1338065
 TTTTTTTTTTTTTTTTTTTTTTTTTTTTTT MAKE_GRID2  TELAPSE        7.60 TCPU        7.59
 BECKE WEIGHT FUNCTION
 RADSAFE =     2.00
 TOLERANCES - DENSITY:10**- 6; POTENTIAL:10**- 9; GRID WGT:10**-14

 RADIAL INTEGRATION  - INTERVALS (POINTS,UPPER LIMIT):            1( 75,  4.0*R)

 ANGULAR INTEGRATION - INTERVALS (ACCURACY LEVEL [N. POINTS] UPPER LIMIT):
  1(  4[  86]   0.2)  2(  8[ 194]   0.5)  3( 12[ 350]   0.9)  4( 16[ 974]   3.5)
  5( 12[ 350]9999.0)
 TTTTTTTTTTTTTTTTTTTTTTTTTTTTTT INT_CALC    TELAPSE        7.66 TCPU        7.66
 EEEEEEEEEE INT_CALC TERMINATION  DATE 19 02 2026 TIME 19:16:30.5

 *******************************************************************************
 cof-1_z43_L070_incl                                                             
 CRYSTAL - SCF - TYPE OF CALCULATION :  RESTRICTED CLOSED SHELL
 *******************************************************************************

 CAPPA:IS1  2;IS2  2;IS3  8; K PTS MONK NET  20; SYMMOPS:K SPACE   2;G SPACE   1

 TTTTTTTTTTTTTTTTTTTTTTTTTTTTTT SDIK        TELAPSE        8.24 TCPU       15.49

 AAAAAAAAAAAAAAAAAAAAAAAAAAAAAAAAAAAAAAAAAAAAAAAAAAAAAAAAAAAAAAAAAAAAAAAAAAAAAAA
         ATOMIC WAVEFUNCTION(S)


 NUCLEAR CHARGE  5.0  SYMMETRY SPECIES            S    P
 N. ELECTRONS    5.0  NUMBER OF PRIMITIVE GTOS    8    4
                      NUMBER OF CONTRACTED GTOS   4    2
                      NUMBER OF CLOSED SHELLS     2    0
                      OPEN SHELL OCCUPATION       0    1

  ZNUC  SCFIT    TOTAL HF ENERGY   KINETIC ENERGY   VIRIAL THEOREM ACCURACY
   5.0    11    -2.451164084E+01  2.462155050E+01 -1.995536038E+00  1.5E-06

 NUCLEAR CHARGE  1.0  SYMMETRY SPECIES            S
 N. ELECTRONS    1.0  NUMBER OF PRIMITIVE GTOS    4
                      NUMBER OF CONTRACTED GTOS   2
                      NUMBER OF CLOSED SHELLS     0
                      OPEN SHELL OCCUPATION       1

  ZNUC  SCFIT    TOTAL HF ENERGY   KINETIC ENERGY   VIRIAL THEOREM ACCURACY
   1.0     1    -4.977266687E-01  5.190767460E-01 -1.958869132E+00  0.0E+00

 NUCLEAR CHARGE  6.0  SYMMETRY SPECIES            S    P
 N. ELECTRONS    6.0  NUMBER OF PRIMITIVE GTOS    8    4
                      NUMBER OF CONTRACTED GTOS   4    2
                      NUMBER OF CLOSED SHELLS     2    0
                      OPEN SHELL OCCUPATION       0    2

  ZNUC  SCFIT    TOTAL HF ENERGY   KINETIC ENERGY   VIRIAL THEOREM ACCURACY
   6.0     9    -3.766704647E+01  3.775180683E+01 -1.997754800E+00  1.1E-06

 NUCLEAR CHARGE  8.0  SYMMETRY SPECIES            S    P
 N. ELECTRONS    8.0  NUMBER OF PRIMITIVE GTOS    8    4
                      NUMBER OF CONTRACTED GTOS   4    2
                      NUMBER OF CLOSED SHELLS     2    0
                      OPEN SHELL OCCUPATION       0    4

  ZNUC  SCFIT    TOTAL HF ENERGY   KINETIC ENERGY   VIRIAL THEOREM ACCURACY
   8.0    12    -7.477373220E+01  7.477365593E+01 -2.000001020E+00  3.8E-06

 AAAAAAAAAAAAAAAAAAAAAAAAAAAAAAAAAAAAAAAAAAAAAAAAAAAAAAAAAAAAAAAAAAAAAAAAAAAAAAA

 CHARGE NORMALIZATION FACTOR   1.00000000
 TOTAL ATOMIC CHARGES:
   5.0000000   5.0000000   5.0000000   5.0000000   5.0000000   5.0000000
   1.0000000   1.0000000   1.0000000   1.0000000   1.0000000   1.0000000
   1.0000000   1.0000000   1.0000000   1.0000000   1.0000000   1.0000000
   6.0000000   6.0000000   6.0000000   6.0000000   6.0000000   6.0000000
   6.0000000   6.0000000   6.0000000   6.0000000   6.0000000   6.0000000
   6.0000000   6.0000000   6.0000000   6.0000000   6.0000000   6.0000000
   8.0000000   8.0000000   8.0000000   8.0000000   8.0000000   8.0000000
 TTTTTTTTTTTTTTTTTTTTTTTTTTTTTT MOQGAD      TELAPSE        8.28 TCPU       16.72
 TTTTTTTTTTTTTTTTTTTTTTTTTTTTTT SHELLXN     TELAPSE       13.23 TCPU      174.68
 TTTTTTTTTTTTTTTTTTTTTTTTTTTTTT MONMO3      TELAPSE       13.35 TCPU      178.68
 NUMERICALLY INTEGRATED DENSITY    197.9999798865
 TTTTTTTTTTTTTTTTTTTTTTTTTTTTTT NUMDFT      TELAPSE       13.88 TCPU      195.72
 CYC   0 ETOT(AU) -1.295954195292E+03 DETOT -1.30E+03 tst  0.00E+00 PX  1.00E+00
 TTTTTTTTTTTTTTTTTTTTTTTTTTTTTT DIIS        TELAPSE       13.92 TCPU      196.77
 TTTTTTTTTTTTTTTTTTTTTTTTTTTTTT FDIK        TELAPSE       14.41 TCPU      212.47
 INSULATING STATE
 TOP OF VALENCE BANDS -    BAND     99; K    1; EIG -3.1379557E-01 AU
 BOTTOM OF VIRTUAL BANDS - BAND    100; K    1; EIG -1.5624084E-01 AU
 DIRECT ENERGY BAND GAP:   4.2873 eV
 TTTTTTTTTTTTTTTTTTTTTTTTTTTTTT PDIG        TELAPSE       14.73 TCPU      218.64
 CHARGE NORMALIZATION FACTOR   1.00000000
 TOTAL ATOMIC CHARGES:
   4.1607079   4.1660015   4.1662671   4.1658298   4.1655855   4.1602684
   0.7850968   0.7852144   0.7850543   0.7851841   0.7852646   0.7854329
   0.7852533   0.7853936   0.7850572   0.7852498   0.7850468   0.7852073
   6.0429513   6.2652599   6.2652320   6.2651256   6.2651029   6.0423002
   6.0442747   6.2651706   6.2652800   6.2650836   6.2652756   6.0430402
   6.0433362   6.2648866   6.2654720   6.2648872   6.2655124   6.0418407
   8.6919291   8.6921021   8.6917119   8.6923787   8.6921363   8.6925950
 TTTTTTTTTTTTTTTTTTTTTTTTTTTTTT MOQGAD      TELAPSE       14.77 TCPU      218.68
 TTTTTTTTTTTTTTTTTTTTTTTTTTTTTT SHELLXN     TELAPSE       19.96 TCPU      384.05
 TTTTTTTTTTTTTTTTTTTTTTTTTTTTTT MONMO3      TELAPSE       20.08 TCPU      387.98
 NUMERICALLY INTEGRATED DENSITY    197.9999932763
 TTTTTTTTTTTTTTTTTTTTTTTTTTTTTT NUMDFT      TELAPSE       20.62 TCPU      405.22
 CYC   1 ETOT(AU) -1.288810262342E+03 DETOT  7.14E+00 tst  0.00E+00 PX  1.00E+00
 TTTTTTTTTTTTTTTTTTTTTTTTTTTTTT DIIS        TELAPSE       20.67 TCPU      406.75
 DIIS TEST: 0.11146E+01 AT SCF   CYCLE   1 - MIX   30 %
 TTTTTTTTTTTTTTTTTTTTTTTTTTTTTT FDIK        TELAPSE       21.16 TCPU      422.62
 INSULATING STATE
 TOP OF VALENCE BANDS -    BAND     99; K    1; EIG -2.2556425E-01 AU
 BOTTOM OF VIRTUAL BANDS - BAND    100; K    1; EIG -8.0466477E-02 AU
 DIRECT ENERGY BAND GAP:   3.9483 eV
 TTTTTTTTTTTTTTTTTTTTTTTTTTTTTT PDIG        TELAPSE       21.48 TCPU      428.79
 CHARGE NORMALIZATION FACTOR   1.00000000
 TOTAL ATOMIC CHARGES:
   4.7168843   4.7083371   4.7087230   4.7086168   4.7083380   4.7173027
   0.9090114   0.9090805   0.9101008   0.9099996   0.9072622   0.9074045
   0.9073154   0.9073175   0.9100557   0.9100658   0.9090527   0.9090610
   5.8676456   6.1383782   6.1388996   6.1313044   6.1313926   5.8701480
   5.8795837   6.1273100   6.1282892   6.1277170   6.1282003   5.8831781
   5.8675825   6.1313415   6.1314595   6.1387604   6.1383375   5.8701113
   8.3341111   8.3344307   8.3299425   8.3340815   8.3294819   8.3343841
 TTTTTTTTTTTTTTTTTTTTTTTTTTTTTT MOQGAD      TELAPSE       21.52 TCPU      428.83
 TTTTTTTTTTTTTTTTTTTTTTTTTTTTTT SHELLXN     TELAPSE       26.67 TCPU      592.93
 TTTTTTTTTTTTTTTTTTTTTTTTTTTTTT MONMO3      TELAPSE       26.80 TCPU      596.93
 NUMERICALLY INTEGRATED DENSITY    197.9999906787
 TTTTTTTTTTTTTTTTTTTTTTTTTTTTTT NUMDFT      TELAPSE       27.34 TCPU      614.38
 CYC   2 ETOT(AU) -1.289005557867E+03 DETOT -1.95E-01 tst  3.60E-03 PX  1.59E-01
 TTTTTTTTTTTTTTTTTTTTTTTTTTTTTT DIIS        TELAPSE       27.39 TCPU      615.86
 DIIS TEST: 0.46160E+00 AT SCF   CYCLE   2 - DIIS ACTIVE - HISTORY:     2 CYCLES
 TTTTTTTTTTTTTTTTTTTTTTTTTTTTTT FDIK        TELAPSE       27.89 TCPU      631.88
 INSULATING STATE
 TOP OF VALENCE BANDS -    BAND     99; K    1; EIG -2.3887356E-01 AU
 BOTTOM OF VIRTUAL BANDS - BAND    100; K    1; EIG -7.4993721E-02 AU
 DIRECT ENERGY BAND GAP:   4.4594 eV
 TTTTTTTTTTTTTTTTTTTTTTTTTTTTTT PDIG        TELAPSE       28.21 TCPU      638.06
 CHARGE NORMALIZATION FACTOR   1.00000000
 TOTAL ATOMIC CHARGES:
   4.5068248   4.5032369   4.5035844   4.5034255   4.5030638   4.5068035
   0.8874655   0.8876679   0.8883344   0.8883085   0.8851903   0.8855899
   0.8852854   0.8854640   0.8882888   0.8883818   0.8875708   0.8875564
   5.8908252   6.1605119   6.1600822   6.1602909   6.1600630   5.8905997
   5.8900818   6.1611417   6.1605040   6.1610713   6.1606644   5.8892831
   5.8908370   6.1602951   6.1602087   6.1602274   6.1602191   5.8904993
   8.5090894   8.5094124   8.5114335   8.5093241   8.5116549   8.5096372
 TTTTTTTTTTTTTTTTTTTTTTTTTTTTTT MOQGAD      TELAPSE       28.25 TCPU      638.10
 TTTTTTTTTTTTTTTTTTTTTTTTTTTTTT SHELLXN     TELAPSE       33.47 TCPU      804.49
 TTTTTTTTTTTTTTTTTTTTTTTTTTTTTT MONMO3      TELAPSE       33.60 TCPU      808.49
 NUMERICALLY INTEGRATED DENSITY    197.9999917725
 TTTTTTTTTTTTTTTTTTTTTTTTTTTTTT NUMDFT      TELAPSE       34.14 TCPU      825.88
 CYC   3 ETOT(AU) -1.289100839765E+03 DETOT -9.53E-02 tst  6.66E-04 PX  6.41E-02
 TTTTTTTTTTTTTTTTTTTTTTTTTTTTTT DIIS        TELAPSE       34.20 TCPU      827.76
 DIIS TEST: 0.13317E-01 AT SCF   CYCLE   3 - DIIS ACTIVE - HISTORY:     3 CYCLES
 TTTTTTTTTTTTTTTTTTTTTTTTTTTTTT FDIK        TELAPSE       34.70 TCPU      843.76
 INSULATING STATE
 TOP OF VALENCE BANDS -    BAND     99; K    1; EIG -2.4841615E-01 AU
 BOTTOM OF VIRTUAL BANDS - BAND    100; K    1; EIG -8.3634689E-02 AU
 DIRECT ENERGY BAND GAP:   4.4839 eV
 TTTTTTTTTTTTTTTTTTTTTTTTTTTTTT PDIG        TELAPSE       35.02 TCPU      849.93
 CHARGE NORMALIZATION FACTOR   1.00000000
 TOTAL ATOMIC CHARGES:
   4.5125390   4.5081474   4.5085079   4.5082409   4.5078556   4.5124983
   0.8703096   0.8703638   0.8713628   0.8713440   0.8686099   0.8687332
   0.8686604   0.8686472   0.8713543   0.8714039   0.8703499   0.8703265
   5.9382303   6.1691188   6.1696013   6.1647346   6.1648609   5.9398264
   5.9453353   6.1630604   6.1638198   6.1633155   6.1637322   5.9478756
   5.9383817   6.1646111   6.1650919   6.1692651   6.1693029   5.9395871
   8.4778797   8.4781119   8.4744762   8.4780026   8.4742798   8.4782442
 TTTTTTTTTTTTTTTTTTTTTTTTTTTTTT MOQGAD      TELAPSE       35.06 TCPU      849.96
 TTTTTTTTTTTTTTTTTTTTTTTTTTTTTT SHELLXN     TELAPSE       40.18 TCPU     1013.25
 TTTTTTTTTTTTTTTTTTTTTTTTTTTTTT MONMO3      TELAPSE       40.31 TCPU     1017.10
 NUMERICALLY INTEGRATED DENSITY    197.9999915868
 TTTTTTTTTTTTTTTTTTTTTTTTTTTTTT NUMDFT      TELAPSE       40.85 TCPU     1034.36
 CYC   4 ETOT(AU) -1.289103635862E+03 DETOT -2.80E-03 tst  2.87E-05 PX  1.35E-02
 TTTTTTTTTTTTTTTTTTTTTTTTTTTTTT DIIS        TELAPSE       40.90 TCPU     1036.16
 DIIS TEST: 0.39858E-02 AT SCF   CYCLE   4 - DIIS ACTIVE - HISTORY:     4 CYCLES
 TTTTTTTTTTTTTTTTTTTTTTTTTTTTTT FDIK        TELAPSE       41.40 TCPU     1052.01
 INSULATING STATE
 TOP OF VALENCE BANDS -    BAND     99; K    1; EIG -2.4661517E-01 AU
 BOTTOM OF VIRTUAL BANDS - BAND    100; K    1; EIG -8.3303691E-02 AU
 DIRECT ENERGY BAND GAP:   4.4439 eV
 TTTTTTTTTTTTTTTTTTTTTTTTTTTTTT PDIG        TELAPSE       41.72 TCPU     1058.18
 CHARGE NORMALIZATION FACTOR   1.00000000
 TOTAL ATOMIC CHARGES:
   4.5155387   4.5100218   4.5104034   4.5102501   4.5098720   4.5156184
   0.8734685   0.8736309   0.8744098   0.8744078   0.8714244   0.8717522
   0.8715036   0.8716395   0.8743727   0.8744829   0.8735509   0.8735512
   5.9207278   6.1684583   6.1682518   6.1656344   6.1653702   5.9209647
   5.9250236   6.1649218   6.1645886   6.1649363   6.1647269   5.9252237
   5.9207018   6.1656258   6.1655131   6.1683002   6.1682548   5.9208876
   8.4868114   8.4871368   8.4868715   8.4869756   8.4868954   8.4872992
 TTTTTTTTTTTTTTTTTTTTTTTTTTTTTT MOQGAD      TELAPSE       41.76 TCPU     1058.22
 TTTTTTTTTTTTTTTTTTTTTTTTTTTTTT SHELLXN     TELAPSE       46.95 TCPU     1223.78
 TTTTTTTTTTTTTTTTTTTTTTTTTTTTTT MONMO3      TELAPSE       47.08 TCPU     1227.73
 NUMERICALLY INTEGRATED DENSITY    197.9999916702
 TTTTTTTTTTTTTTTTTTTTTTTTTTTTTT NUMDFT      TELAPSE       47.62 TCPU     1245.01
 CYC   5 ETOT(AU) -1.289104549596E+03 DETOT -9.14E-04 tst  6.94E-06 PX  6.60E-03
 TTTTTTTTTTTTTTTTTTTTTTTTTTTTTT DIIS        TELAPSE       47.69 TCPU     1247.23
 DIIS TEST: 0.63978E-04 AT SCF   CYCLE   5 - DIIS ACTIVE - HISTORY:     5 CYCLES
 TTTTTTTTTTTTTTTTTTTTTTTTTTTTTT FDIK        TELAPSE       48.18 TCPU     1263.05
 INSULATING STATE
 TOP OF VALENCE BANDS -    BAND     99; K    1; EIG -2.4645395E-01 AU
 BOTTOM OF VIRTUAL BANDS - BAND    100; K    1; EIG -8.2726473E-02 AU
 DIRECT ENERGY BAND GAP:   4.4553 eV
 TTTTTTTTTTTTTTTTTTTTTTTTTTTTTT PDIG        TELAPSE       48.50 TCPU     1269.22
 CHARGE NORMALIZATION FACTOR   1.00000000
 TOTAL ATOMIC CHARGES:
   4.5148343   4.5101608   4.5105243   4.5102555   4.5098871   4.5147643
   0.8743557   0.8744363   0.8752910   0.8752451   0.8724116   0.8725860
   0.8724640   0.8725007   0.8752685   0.8753048   0.8744052   0.8743888
   5.9201948   6.1678561   6.1681688   6.1648733   6.1650529   5.9214924
   5.9238632   6.1640710   6.1646275   6.1642922   6.1645508   5.9257318
   5.9203558   6.1647830   6.1652734   6.1679261   6.1679456   5.9212367
   8.4868324   8.4870648   8.4852738   8.4869965   8.4852219   8.4872310
 TTTTTTTTTTTTTTTTTTTTTTTTTTTTTT MOQGAD      TELAPSE       48.54 TCPU     1269.26
 TTTTTTTTTTTTTTTTTTTTTTTTTTTTTT SHELLXN     TELAPSE       53.71 TCPU     1434.07
 TTTTTTTTTTTTTTTTTTTTTTTTTTTTTT MONMO3      TELAPSE       53.83 TCPU     1438.01
 NUMERICALLY INTEGRATED DENSITY    197.9999916603
 TTTTTTTTTTTTTTTTTTTTTTTTTTTTTT NUMDFT      TELAPSE       54.38 TCPU     1455.28
 CYC   6 ETOT(AU) -1.289104568291E+03 DETOT -1.87E-05 tst  1.73E-07 PX  1.02E-03
 TTTTTTTTTTTTTTTTTTTTTTTTTTTTTT DIIS        TELAPSE       54.44 TCPU     1457.46
 DIIS TEST: 0.53927E-05 AT SCF   CYCLE   6 - DIIS ACTIVE - HISTORY:     6 CYCLES
 TTTTTTTTTTTTTTTTTTTTTTTTTTTTTT FDIK        TELAPSE       54.94 TCPU     1473.34
 INSULATING STATE
 TOP OF VALENCE BANDS -    BAND     99; K    1; EIG -2.4643480E-01 AU
 BOTTOM OF VIRTUAL BANDS - BAND    100; K    1; EIG -8.2816045E-02 AU
 DIRECT ENERGY BAND GAP:   4.4523 eV
 TTTTTTTTTTTTTTTTTTTTTTTTTTTTTT PDIG        TELAPSE       55.26 TCPU     1479.52
 CHARGE NORMALIZATION FACTOR   1.00000000
 TOTAL ATOMIC CHARGES:
   4.5152545   4.5100575   4.5104342   4.5102864   4.5099065   4.5153193
   0.8743107   0.8744654   0.8752694   0.8752737   0.8722854   0.8726118
   0.8723676   0.8724959   0.8752344   0.8753463   0.8743945   0.8743841
   5.9208839   6.1678105   6.1676393   6.1649669   6.1646625   5.9211232
   5.9252114   6.1642217   6.1638916   6.1642233   6.1640403   5.9255054
   5.9208482   6.1649458   6.1648158   6.1676504   6.1676456   5.9210607
   8.4864541   8.4867839   8.4861759   8.4866202   8.4861712   8.4869504
 TTTTTTTTTTTTTTTTTTTTTTTTTTTTTT MOQGAD      TELAPSE       55.30 TCPU     1479.56
 TTTTTTTTTTTTTTTTTTTTTTTTTTTTTT SHELLXN     TELAPSE       60.49 TCPU     1644.82
 TTTTTTTTTTTTTTTTTTTTTTTTTTTTTT MONMO3      TELAPSE       60.61 TCPU     1648.82
 NUMERICALLY INTEGRATED DENSITY    197.9999916612
 TTTTTTTTTTTTTTTTTTTTTTTTTTTTTT NUMDFT      TELAPSE       61.16 TCPU     1666.29
 CYC   7 ETOT(AU) -1.289104568624E+03 DETOT -3.32E-07 tst  1.45E-08 PX  3.78E-04
 TTTTTTTTTTTTTTTTTTTTTTTTTTTTTT DIIS        TELAPSE       61.24 TCPU     1668.86
 DIIS TEST: 0.11735E-05 AT SCF   CYCLE   7 - DIIS ACTIVE - HISTORY:     7 CYCLES
 TTTTTTTTTTTTTTTTTTTTTTTTTTTTTT FDIK        TELAPSE       61.74 TCPU     1684.88
 INSULATING STATE
 TOP OF VALENCE BANDS -    BAND     99; K    1; EIG -2.4644552E-01 AU
 BOTTOM OF VIRTUAL BANDS - BAND    100; K    1; EIG -8.2819442E-02 AU
 DIRECT ENERGY BAND GAP:   4.4525 eV
 TTTTTTTTTTTTTTTTTTTTTTTTTTTTTT PDIG        TELAPSE       62.06 TCPU     1691.06
 CHARGE NORMALIZATION FACTOR   1.00000000
 TOTAL ATOMIC CHARGES:
   4.5152402   4.5101638   4.5105347   4.5103192   4.5099456   4.5152412
   0.8742952   0.8744149   0.8752496   0.8752212   0.8723017   0.8725476
   0.8723662   0.8724497   0.8752198   0.8752887   0.8743604   0.8743523
   5.9205132   6.1678055   6.1678711   6.1648465   6.1648345   5.9213312
   5.9246037   6.1640742   6.1642170   6.1642056   6.1642349   5.9256895
   5.9205945   6.1647976   6.1650150   6.1677730   6.1677495   5.9211524
   8.4866437   8.4869175   8.4858737   8.4868044   8.4858618   8.4870784
 TTTTTTTTTTTTTTTTTTTTTTTTTTTTTT MOQGAD      TELAPSE       62.10 TCPU     1691.10
 TTTTTTTTTTTTTTTTTTTTTTTTTTTTTT SHELLXN     TELAPSE       67.28 TCPU     1856.33
 +++ ENERGIES IN A.U. +++
 ::: EXT EL-POLE                                  -1.2373816259227E+03
 ::: EXT EL-SPHEROPOLE                             1.3288463264740E+01
 ::: BIELET ZONE E-E                               1.9537228264906E+03
 ::: TOTAL E-E                                     7.2962966383264E+02
 ::: TOTAL E-N + N-E                              -3.2909130376629E+03
 ::: TOTAL N-N                                     1.2594658707189E+02
 ::: KINETIC ENERGY                                1.2799531811373E+03
 ::: PSEUDO TOTAL   ENERGY                        -1.1553836056211E+03
 ::: VIRIAL COEFFICIENT                            1.0511508618412E+00
 TTTTTTTTTTTTTTTTTTTTTTTTTTTTTT MONMO3      TELAPSE       67.40 TCPU     1860.26
 NUMERICALLY INTEGRATED DENSITY    197.9999916610
 EXCHANGE ENERGY: -0.126031262430E+03  CORRELATION ENERGY: -0.768970080158E+01
 TTTTTTTTTTTTTTTTTTTTTTTTTTTTTT NUMDFT      TELAPSE       67.95 TCPU     1877.70
 CYC   8 ETOT(AU) -1.289104568853E+03 DETOT -2.29E-07 tst  3.74E-09 PX  3.78E-04

 == SCF ENDED - CONVERGENCE ON ENERGY      E(AU) -1.2891045688527E+03 CYCLES   8


 ENERGY EXPRESSION=HARTREE+FOCK EXCH*0.00000+(HSESOL     EXCH)*1.00000+PBESOL     CORR


 TOTAL ENERGY(DFT)(AU)(  8) -1.2891045688527E+03 DE-2.3E-07 tester 3.7E-09
 TTTTTTTTTTTTTTTTTTTTTTTTTTTTTT EDFT        TELAPSE       67.95 TCPU     1877.71
 
 INFORMATION **** DFTD3 ENERGY **** CALCULATE DFTD3 ENERGY

           DFT-D V3(BJ)
 DF                                         hsesol3c  
 parameters
 s6       :    1.0000
 s8       :    0.0000
 a1       :    0.5196
 a2       :    4.9385
 k1 k3    :   16.0000   -4.0000
 Cutoff   :   50.2022
 CN-Cutoff:   21.1671
 ABC-Cutoff:   21.1671
 
 Edisp /kcal,au:   -21.7827 -0.03471294

 E6    /kcal :   -22.7882
 E8    /kcal :     0.0000
 E6(ABC) "   :   1.005497
 
 INFORMATION **** DFTD3 ENERGY **** NORMAL TERMINATION OF DFTD3 MODULE

 GCP ENERGY CALCULATION
  level        hsesol3c            basis:hsesol3c
  Nbf            474
  Atoms           42

  Parameters: 
  sigma     1.0000
  eta       1.4281
  alpha     0.2936
  beta      1.9467

  dmp_scal      4.0000
  dmp_exp       6.0000
 cutoffs: 
   distance [bohr] 60.0
   noise    [a.u.] 2.2E-16
 SR-damping   T
 ** gCP correction **
  Egcp:        0.0829236277 / (a.u.) ||      52.0354 / (kcal/mol)
 INFORMATION **** GCP **** NORMAL TERMINATION OF GCP MODULE

 *******************************************************************************

 DFT-D3-GCP DISPERSION AND COUNTERPOISE CORRECTION

 D3 DISPERSION ENERGY (AU)      -3.4712944050772E-02
 GCP ENERGY (AU)                 8.2923627670058E-02
 TOTAL ENERGY + DISP + GCP (AU) -1.2890563581691E+03

 *******************************************************************************

 EIGENVECTORS IN FORTRAN UNIT  8
 TTTTTTTTTTTTTTTTTTTTTTTTTTTTTT END         TELAPSE       69.18 TCPU     1884.79
 EEEEEEEEEE TERMINATION  DATE 19 02 2026 TIME 19:17:32.0
