 Default number of threads is:           32

         
 *******************************************************************************
 *                                                                             *
 *                               CRYSTAL23                                     *
 *                      public : 1.0.1 - October 2022                          *
 *                       HTTP://WWW.CRYSTAL.UNITO.IT                           *
 *                                                                             *
 *                              MAIN AUTHORS                                   *
 *                                                                             *
 *  R. DOVESI(1,11), V.R. SAUNDERS(2), C. ROETTI(1,11), R. ORLANDO(1,11),      *
 *  C.M. ZICOVICH-WILSON(1,3), F. PASCALE(4), B. CIVALLERI(1,11),              *
 *  K. DOLL(5), N.M. HARRISON(6), I.J. BUSH(7), Ph. D'ARCO(8),                 *
 *  M. LLUNELL(9), M. CAUSA'(10), Y. NOEL(8), L. MASCHIO(1,11), A. ERBA(1,11)  *
 *  M. RE'RAT(14), S. CASASSA(1,11), B.G. SEARLE(2), J.K. DESMARAIS(1)         *
 *                                                                             *
 *        CONTRIBUTIONS TO THE CODE HAVE ALSO BEEN GIVEN BY                    *
 *                                                                             *
 *  M. FERRABONE(1,11), M. DE LA PIERRE(1,11), M. FERRERO(1,11),               *
 *  J. BAIMA(1,11), E. ALBANESE(1,11), M.F. PEINTINGER(12), R. BAST(13),       *
 *  B. KIRTMAN(15), V. LACIVITA(1,11), R. DEMICHELIS(1,16)                     *
 *  G. BRANDEBURG(17), S. SALUSTRO(1,11), G. SANSONE(1,11)                     *
 *  M.T. RUGGIERO(18), L.E. DAGA(1), L. DONA'(1), A. COSSARD(1)                *
 *                                                                             *
 * (1) THEORETICAL CHEMISTRY GROUP - UNIVERSITA' DI TORINO - TORINO (ITALY)    *
 * (2) SCIENTIFIC COMPUTING DEPARTMENT - STFC DARESBURY (UK)                   *
 * (3) UNIVERSIDAD AUTONOMA DEL ESTADO DE MORELOS - CUERNAVACA (MEXICO)        *
 * (4) UNIVERSITE' DE LORRAINE - NANCY (FRANCE)                                *
 * (5) UNIVERSITAET STUTTGART- STUTTGART (GERMANY)                             *
 * (6) IMPERIAL COLLEGE - LONDON (UK)                                          *
 * (7) SCIENTIFIC COMPUTING DEPARTMENT - STFC RAL (UK)                         *
 * (8) UPMC - SORBONNE UNIVERSITES - PARIS (FRANCE)                            *
 * (9) UNIVERSIDAD DE BARCELONA - BARCELONA (SPAIN)                            *
 *(10) UNIVERSITA' DI NAPOLI "FEDERICO II" - NAPOLI (ITALY)                    *
 *(11) NIS - NANOSTRUCTURED INTERFACES AND SURFACES - TORINO (ITALY)           *
 *(12) MPI FUER CHEMISCHE ENERGIEKONVERSION - MUELHEIM AN DER RUHR (GERMANY)   *
 *(13) UNIVERSITY OF TROMSO - TROMSO (NORWAY)                                  *
 *(14) UNIVERSITE' DE PAU ET DES PAYS DE L'ADOUR - PAU (FRANCE)                *
 *(15) UNIVERSITY OF CALIFORNIA SANTA BARBARA - SANTA BARBARA (USA)            *
 *(16) CURTIN UNIVERSITY - PERTH (AUSTRALIA)                                   *
 *(17) UNIVERSITY COLLEGE LONDON - LONDON (UK)                                 *
 *(18) UNIVERSITY OF VERMONT - BURLINGTON (USA)                                *
 *                                                                             *
 *******************************************************************************
 EEEEEEEEEE STARTING  DATE 02 12 2025 TIME 08:02:33.4
 COF-5_z39_inc_L050                                                              

 CRYSTAL CALCULATION
 (INPUT ACCORDING TO THE INTERNATIONAL TABLES FOR X-RAY CRYSTALLOGRAPHY)
 CRYSTAL FAMILY                       :  TRICLINIC   
 CRYSTAL CLASS  (GROTH - 1921)        :  TRICLINIC PEDIAL                     

 SPACE GROUP (NONCENTROSYMMETRIC)     :  P 1             

 LATTICE PARAMETERS  (ANGSTROMS AND DEGREES) - CONVENTIONAL CELL
        A           B           C        ALPHA        BETA       GAMMA
    15.02070    15.04439     6.34114    46.96368    89.99956   120.05310


 NUMBER OF IRREDUCIBLE ATOMS IN THE CONVENTIONAL CELL:   42

 INPUT COORDINATES

 ATOM AT. N.              COORDINATES
   1   5     5.191964900000E-01  3.584731000000E-02  5.006319700000E-01
   2   5     6.779739700000E-01  1.948702000000E-01  5.006419600000E-01
   3   5     5.190176500000E-01  1.951066300000E-01  4.992120500000E-01
   4   5     1.314465500000E-01  4.202901900000E-01  5.054267700000E-01
   5   5     2.892423300000E-01  4.182367000000E-01  5.094704900000E-01
   6   5     2.906638000000E-01  5.798657400000E-01  5.035051000000E-01
   7   1     8.072507000000E-01  1.158240400000E-01  5.045302100000E-01
   8   1     3.930790000000E-03  5.021655700000E-01  4.929403700000E-01
   9   1     8.095751400000E-01  4.049191900000E-01  4.928020800000E-01
  10   1     1.773170000000E-03  2.132034500000E-01  5.040988000000E-01
  11   1     4.972891200000E-01  7.096233400000E-01  5.042208600000E-01
  12   1     3.130077100000E-01 -9.126511000000E-02  4.945725200000E-01
  13   1     2.144157400000E-01  7.145212800000E-01  4.958793200000E-01
  14   1     5.957491600000E-01 -9.597198000000E-02  5.023596100000E-01
  15   1     4.981277200000E-01  4.994335500000E-01  4.977767100000E-01
  16   1     3.092222300000E-01  1.146400500000E-01  5.060594900000E-01
  17   1     2.119284500000E-01  2.107016200000E-01  5.056946300000E-01
  18   1     5.957393600000E-01  4.032159100000E-01  4.987101200000E-01
  19   6     7.973146200000E-01  2.543952700000E-01  5.003919800000E-01
  20   6     8.514987000000E-01  2.005407000000E-01  5.021580000000E-01
  21   6    -4.025302000000E-02  4.173315800000E-01  4.957653700000E-01
  22   6     8.527035700000E-01  3.636772200000E-01  4.961025200000E-01
  23   6    -4.134669000000E-02  2.543528000000E-01  5.015143200000E-01
  24   6     1.357509000000E-02  3.628631700000E-01  4.993311400000E-01
  25   6     3.499411300000E-01  6.998683400000E-01  5.018733800000E-01
  26   6     4.577392500000E-01  7.542005700000E-01  5.022635400000E-01
  27   6     3.522959300000E-01 -1.362284700000E-01  4.969874000000E-01
  28   6     2.979621800000E-01  7.563867900000E-01  4.981060300000E-01
  29   6     5.120993700000E-01 -1.383810000000E-01  5.008262000000E-01
  30   6     4.597327100000E-01 -8.276412000000E-02  4.992020100000E-01
  31   6     3.499077400000E-01  3.615444700000E-01  4.999731900000E-01
  32   6     4.578631400000E-01  4.150112000000E-01  4.994217400000E-01
  33   6     3.501543900000E-01  1.992449300000E-01  5.039450700000E-01
  34   6     2.963700100000E-01  2.525239500000E-01  5.033371600000E-01
  35   6     5.114960600000E-01  3.615863800000E-01  5.003600500000E-01
  36   6     4.585022900000E-01  2.533862600000E-01  5.016018500000E-01
  37   8     4.662781500000E-01  8.905827000000E-02  4.996019000000E-01
  38   8     6.248617500000E-01  8.820744000000E-02  5.025918100000E-01
  39   8     6.253406200000E-01  2.486865900000E-01  4.980723000000E-01
  40   8     1.848029300000E-01  5.271840800000E-01  5.027384800000E-01
  41   8     1.831211000000E-01  3.652475000000E-01  5.102259000000E-01
  42   8     3.431354100000E-01  5.259454000000E-01  5.052101000000E-01

 *******************************************************************************

 << INFORMATION >>: FROM NOW ON, ALL COORDINATES REFER TO THE PRIMITIVE CELL

 *******************************************************************************

 LATTICE PARAMETERS  (ANGSTROMS AND DEGREES) - PRIMITIVE CELL
       A          B          C        ALPHA      BETA     GAMMA        VOLUME
   15.02070   15.04439    6.34114    46.96368  89.99956 120.05310    762.887360

 COORDINATES OF THE EQUIVALENT ATOMS (FRACTIONAL UNITS)

 N. ATOM EQUIV AT. N.          X                  Y                  Z

   1   1   1    5 B    -4.80803510000E-01  3.58473100000E-02 -4.99368030000E-01

   2   2   1    5 B    -3.22026030000E-01  1.94870200000E-01 -4.99358040000E-01

   3   3   1    5 B    -4.80982350000E-01  1.95106630000E-01  4.99212050000E-01

   4   4   1    5 B     1.31446550000E-01  4.20290190000E-01 -4.94573230000E-01

   5   5   1    5 B     2.89242330000E-01  4.18236700000E-01 -4.90529510000E-01

   6   6   1    5 B     2.90663800000E-01 -4.20134260000E-01 -4.96494900000E-01

   7   7   1    1 H    -1.92749300000E-01  1.15824040000E-01 -4.95469790000E-01

   8   8   1    1 H     3.93079000000E-03 -4.97834430000E-01  4.92940370000E-01

   9   9   1    1 H    -1.90424860000E-01  4.04919190000E-01  4.92802080000E-01

  10  10   1    1 H     1.77317000000E-03  2.13203450000E-01 -4.95901200000E-01

  11  11   1    1 H     4.97289120000E-01 -2.90376660000E-01 -4.95779140000E-01

  12  12   1    1 H     3.13007710000E-01 -9.12651100000E-02  4.94572520000E-01

  13  13   1    1 H     2.14415740000E-01 -2.85478720000E-01  4.95879320000E-01

  14  14   1    1 H    -4.04250840000E-01 -9.59719800000E-02 -4.97640390000E-01

  15  15   1    1 H     4.98127720000E-01  4.99433550000E-01  4.97776710000E-01

  16  16   1    1 H     3.09222230000E-01  1.14640050000E-01 -4.93940510000E-01

  17  17   1    1 H     2.11928450000E-01  2.10701620000E-01 -4.94305370000E-01

  18  18   1    1 H    -4.04260640000E-01  4.03215910000E-01  4.98710120000E-01

  19  19   1    6 C    -2.02685380000E-01  2.54395270000E-01 -4.99608020000E-01

  20  20   1    6 C    -1.48501300000E-01  2.00540700000E-01 -4.97842000000E-01

  21  21   1    6 C    -4.02530200000E-02  4.17331580000E-01  4.95765370000E-01

  22  22   1    6 C    -1.47296430000E-01  3.63677220000E-01  4.96102520000E-01

  23  23   1    6 C    -4.13466900000E-02  2.54352800000E-01 -4.98485680000E-01

  24  24   1    6 C     1.35750900000E-02  3.62863170000E-01  4.99331140000E-01

  25  25   1    6 C     3.49941130000E-01 -3.00131660000E-01 -4.98126620000E-01

  26  26   1    6 C     4.57739250000E-01 -2.45799430000E-01 -4.97736460000E-01

  27  27   1    6 C     3.52295930000E-01 -1.36228470000E-01  4.96987400000E-01

  28  28   1    6 C     2.97962180000E-01 -2.43613210000E-01  4.98106030000E-01

  29  29   1    6 C    -4.87900630000E-01 -1.38381000000E-01 -4.99173800000E-01

  30  30   1    6 C     4.59732710000E-01 -8.27641200000E-02  4.99202010000E-01

  31  31   1    6 C     3.49907740000E-01  3.61544470000E-01  4.99973190000E-01

  32  32   1    6 C     4.57863140000E-01  4.15011200000E-01  4.99421740000E-01

  33  33   1    6 C     3.50154390000E-01  1.99244930000E-01 -4.96054930000E-01

  34  34   1    6 C     2.96370010000E-01  2.52523950000E-01 -4.96662840000E-01

  35  35   1    6 C    -4.88503940000E-01  3.61586380000E-01 -4.99639950000E-01

  36  36   1    6 C     4.58502290000E-01  2.53386260000E-01 -4.98398150000E-01

  37  37   1    8 O     4.66278150000E-01  8.90582700000E-02  4.99601900000E-01

  38  38   1    8 O    -3.75138250000E-01  8.82074400000E-02 -4.97408190000E-01

  39  39   1    8 O    -3.74659380000E-01  2.48686590000E-01  4.98072300000E-01

  40  40   1    8 O     1.84802930000E-01 -4.72815920000E-01 -4.97261520000E-01

  41  41   1    8 O     1.83121100000E-01  3.65247500000E-01 -4.89774100000E-01

  42  42   1    8 O     3.43135410000E-01 -4.74054600000E-01 -4.94789900000E-01

 NUMBER OF SYMMETRY OPERATORS         :    1
 *******************************************************************************
 * GEOMETRY EDITING - INPUT COORDINATES ARE GIVEN IN ANGSTROM         
 *******************************************************************************

 GCALCO - MAX INDICES DIRECT LATTICE VECTOR     9    13    26
 NO.OF VECTORS CREATED 6999 STARS 3500 RMAX   205.30411 BOHR

 GEOMETRY FOR WAVE FUNCTION - DIMENSIONALITY OF THE SYSTEM    3
 (NON PERIODIC DIRECTION: LATTICE PARAMETER FORMALLY SET TO 500)
 *******************************************************************************
 LATTICE PARAMETERS (ANGSTROMS AND DEGREES) - BOHR = 0.5291772083 ANGSTROM
 PRIMITIVE CELL - CENTRING CODE 1/0 VOLUME=   762.887360 - DENSITY  0.849 g/cm^3
         A              B              C           ALPHA      BETA       GAMMA 
    15.02070100    15.04438700     6.34113600    46.963679  89.999561 120.053104
 *******************************************************************************
 ATOMS IN THE ASYMMETRIC UNIT   42 - ATOMS IN THE UNIT CELL:   42
     ATOM                 X/A                 Y/B                 Z/C    
 *******************************************************************************
      1 T   5 B    -4.808035100000E-01  3.584731000000E-02 -4.993680300000E-01
      2 T   5 B    -3.220260300000E-01  1.948702000000E-01 -4.993580400000E-01
      3 T   5 B    -4.809823500000E-01  1.951066300000E-01  4.992120500000E-01
      4 T   5 B     1.314465500000E-01  4.202901900000E-01 -4.945732300000E-01
      5 T   5 B     2.892423300000E-01  4.182367000000E-01 -4.905295100000E-01
      6 T   5 B     2.906638000000E-01 -4.201342600000E-01 -4.964949000000E-01
      7 T   1 H    -1.927493000000E-01  1.158240400000E-01 -4.954697900000E-01
      8 T   1 H     3.930790000000E-03 -4.978344300000E-01  4.929403700000E-01
      9 T   1 H    -1.904248600000E-01  4.049191900000E-01  4.928020800000E-01
     10 T   1 H     1.773170000000E-03  2.132034500000E-01 -4.959012000000E-01
     11 T   1 H     4.972891200000E-01 -2.903766600000E-01 -4.957791400000E-01
     12 T   1 H     3.130077100000E-01 -9.126511000000E-02  4.945725200000E-01
     13 T   1 H     2.144157400000E-01 -2.854787200000E-01  4.958793200000E-01
     14 T   1 H    -4.042508400000E-01 -9.597198000000E-02 -4.976403900000E-01
     15 T   1 H     4.981277200000E-01  4.994335500000E-01  4.977767100000E-01
     16 T   1 H     3.092222300000E-01  1.146400500000E-01 -4.939405100000E-01
     17 T   1 H     2.119284500000E-01  2.107016200000E-01 -4.943053700000E-01
     18 T   1 H    -4.042606400000E-01  4.032159100000E-01  4.987101200000E-01
     19 T   6 C    -2.026853800000E-01  2.543952700000E-01 -4.996080200000E-01
     20 T   6 C    -1.485013000000E-01  2.005407000000E-01 -4.978420000000E-01
     21 T   6 C    -4.025302000000E-02  4.173315800000E-01  4.957653700000E-01
     22 T   6 C    -1.472964300000E-01  3.636772200000E-01  4.961025200000E-01
     23 T   6 C    -4.134669000000E-02  2.543528000000E-01 -4.984856800000E-01
     24 T   6 C     1.357509000000E-02  3.628631700000E-01  4.993311400000E-01
     25 T   6 C     3.499411300000E-01 -3.001316600000E-01 -4.981266200000E-01
     26 T   6 C     4.577392500000E-01 -2.457994300000E-01 -4.977364600000E-01
     27 T   6 C     3.522959300000E-01 -1.362284700000E-01  4.969874000000E-01
     28 T   6 C     2.979621800000E-01 -2.436132100000E-01  4.981060300000E-01
     29 T   6 C    -4.879006300000E-01 -1.383810000000E-01 -4.991738000000E-01
     30 T   6 C     4.597327100000E-01 -8.276412000000E-02  4.992020100000E-01
     31 T   6 C     3.499077400000E-01  3.615444700000E-01  4.999731900000E-01
     32 T   6 C     4.578631400000E-01  4.150112000000E-01  4.994217400000E-01
     33 T   6 C     3.501543900000E-01  1.992449300000E-01 -4.960549300000E-01
     34 T   6 C     2.963700100000E-01  2.525239500000E-01 -4.966628400000E-01
     35 T   6 C    -4.885039400000E-01  3.615863800000E-01 -4.996399500000E-01
     36 T   6 C     4.585022900000E-01  2.533862600000E-01 -4.983981500000E-01
     37 T   8 O     4.662781500000E-01  8.905827000000E-02  4.996019000000E-01
     38 T   8 O    -3.751382500000E-01  8.820744000000E-02 -4.974081900000E-01
     39 T   8 O    -3.746593800000E-01  2.486865900000E-01  4.980723000000E-01
     40 T   8 O     1.848029300000E-01 -4.728159200000E-01 -4.972615200000E-01
     41 T   8 O     1.831211000000E-01  3.652475000000E-01 -4.897741000000E-01
     42 T   8 O     3.431354100000E-01 -4.740546000000E-01 -4.947899000000E-01

 T = ATOM BELONGING TO THE ASYMMETRIC UNIT

 ****    1 SYMMOPS - TRANSLATORS IN FRACTIONAL UNITS
 **** MATRICES AND TRANSLATORS IN THE CRYSTALLOGRAPHIC REFERENCE FRAME
   V INV                    ROTATION MATRICES                   TRANSLATORS
   1   1  1.00 -0.00  0.00  0.00  1.00  0.00 -0.00 -0.00  1.00  0.00  0.00  0.00

 DIRECT LATTICE VECTORS CARTESIAN COMPONENTS (ANGSTROM)
          X                    Y                    Z
   0.130013421718E+02  -0.752240388864E+01   0.000000000000E+00
   0.000000000000E+00   0.150443870000E+02   0.000000000000E+00
   0.250393838505E+01   0.432758336442E+01   0.390029749614E+01


 CARTESIAN COORDINATES - PRIMITIVE CELL
 *******************************************************************************
 *      ATOM          X(ANGSTROM)         Y(ANGSTROM)         Z(ANGSTROM)
 *******************************************************************************
    1     5 B    -7.501477729482E+00  1.995042218494E+00 -1.947683877060E+00
    2     5 B    -5.437132368486E+00  3.193099017090E+00 -1.947644913088E+00
    3     5 B     5.493983890066E+00 -3.136202342170E+00 -1.953221987480E+00
    4     5 B     4.706006790353E-01  3.193907349159E+00 -1.928982730625E+00
    5     5 B     2.532282833804E+00  1.993509797217E+00 -1.913211019634E+00
    6     5 B     2.535826882658E+00  4.388611031434E+00 -1.936477815315E+00
    7     1 H    -3.746625428482E+00  1.048252944739E+00 -1.932479581348E+00
    8     1 H    -1.218540525270E+00  5.330861363617E+00 -1.977683405281E+00
    9     1 H    -1.241832718529E+00 -5.387531211195E+00  1.922074718715E+00
   10     1 H    -1.218652459972E+00  1.048122927116E+00 -1.934162208691E+00
   11     1 H    -5.273378198458E+00  1.595113235497E+00  1.966611357758E+00
   12     1 H     5.307899457131E+00 -1.587294239265E+00  1.928979961414E+00
   13     1 H     4.029343666453E+00 -3.761815044314E+00  1.934076870182E+00
   14     1 H    -3.997925983491E+00  3.771101573720E+00  1.959351929043E+00
   15     1 H     5.218792759270E+00  1.593140553987E+00 -1.958820240488E+00
   16     1 H     2.783507416430E+00 -2.738973961597E+00 -1.926514934393E+00
   17     1 H     1.517644104506E+00 -5.634823797429E-01 -1.927937996938E+00
   18     1 H    -4.007191494741E+00 -3.779029376062E+00  1.945117832334E+00
   19     6 C    -3.886169677352E+00  3.189806827449E+00 -1.948619909456E+00
   20     6 C    -3.177281907742E+00  1.979645899329E+00 -1.941731906072E+00
   21     6 C    -1.785915731594E+00  4.399179874466E+00 -1.966665064854E+00
   22     6 C    -3.176779529411E+00  4.398665726758E+00 -1.965350079554E+00
   23     6 C    -1.785739892909E+00  1.980370123202E+00 -1.944242449564E+00
   24     6 C    -1.077149586649E+00  3.190250418103E+00 -1.952757501052E+00
   25     6 C     7.984876216278E-01  1.413423800392E+00 -5.843139504882E+00
   26     6 C     2.200984801822E+00  1.421606347934E+00 -5.841617764811E+00
   27     6 C     5.824745759398E+00 -2.548831692316E+00  1.938398711831E+00
   28     6 C     5.121135064768E+00 -3.750807901907E+00  1.942761701620E+00
   29     6 C    -5.089325090037E+00  3.755695410522E+00  1.953371173860E+00
   30     6 C    -5.774228826775E+00  4.979311626169E+00  1.947036349669E+00
   31     6 C     3.297233933180E+00  6.431598756275E-01 -1.950253315044E+00
   32     6 C     4.699418231049E+00  6.330634867658E-01 -1.952404134098E+00
   33     6 C     3.310386057020E+00 -1.783203973160E+00 -1.934761801425E+00
   34     6 C     2.609594759959E+00 -5.796967292423E-01 -1.937132831276E+00
   35     6 C     5.399067646066E+00 -5.700680519401E-01 -1.948744445955E+00
   36     6 C     4.713186900010E+00 -1.793857996123E+00 -1.943901056524E+00
   37     8 O     4.809275764977E+00 -4.333219982466E+00 -1.951701456502E+00
   38     8 O    -6.122780209948E+00  1.996392885847E+00 -1.940039918015E+00
   39     8 O    -1.119994061698E+00 -2.001677757122E+00  5.842927640722E+00
   40     8 O     1.157573919941E+00  4.389058358776E+00 -1.939467861381E+00
   41     8 O     1.154455910980E+00  1.997875618566E+00 -1.910264695903E+00
   42     8 O     3.222297453518E+00  3.190078455832E+00 -1.929827808084E+00

 *******************************************************************************
 STARTING BASIS SET HANDLING 
 *******************************************************************************

 Loading internal basis set: SOLDEF2MSVP         

 Please cite in your publication:
 L. Dona', J. G. Brandenburg and B. Civalleri, J. Chem. Phys., 151, 121101 (2019
 )                                                                              
                                                                                
                    

 *******************************************************************************
 LOCAL ATOMIC FUNCTIONS BASIS SET
 *******************************************************************************
   ATOM   X(AU)   Y(AU)   Z(AU)  N. TYPE  EXPONENT  S COEF   P COEF   D/F/G COEF
 *******************************************************************************
   1 B  -14.176   3.770  -3.681
                                  1 S  
                                         2.410E+03 1.755E-03 0.000E+00 0.000E+00
                                         3.619E+02 1.344E-02 0.000E+00 0.000E+00
                                         8.231E+01 6.637E-02 0.000E+00 0.000E+00
                                         2.311E+01 2.303E-01 0.000E+00 0.000E+00
                                         7.252E+00 5.150E-01 0.000E+00 0.000E+00
                                  2 S  
                                         2.367E+00 1.000E+00 0.000E+00 0.000E+00
                                  3 S  
                                         5.533E-01 1.000E+00 0.000E+00 0.000E+00
                                  4 S  
                                         1.716E-01 1.000E+00 0.000E+00 0.000E+00
                           5-     7 P  
                                         6.002E+00 0.000E+00-3.555E-02 0.000E+00
                                         1.240E+00 0.000E+00-1.983E-01 0.000E+00
                                         3.367E-01 0.000E+00-5.048E-01 0.000E+00
                           8-    10 P  
                                         1.256E-01 0.000E+00 1.000E+00 0.000E+00
                          11-    15 D  
                                         8.880E-01 0.000E+00 0.000E+00 1.000E+00
   2 B  -10.275   6.034  -3.681
   3 B   10.382  -5.927  -3.691
   4 B    0.889   6.036  -3.645
   5 B    4.785   3.767  -3.615
   6 B    4.792   8.293  -3.659
   7 H   -7.080   1.981  -3.652
                                 91 S  
                                         1.874E+01 1.968E-02 0.000E+00 0.000E+00
                                         2.826E+00 1.380E-01 0.000E+00 0.000E+00
                                         6.401E-01 4.783E-01 0.000E+00 0.000E+00
                                 92 S  
                                         1.756E-01 1.000E+00 0.000E+00 0.000E+00
   8 H   -2.303  10.074  -3.737
   9 H   -2.347 -10.181   3.632
  10 H   -2.303   1.981  -3.655
  11 H   -9.965   3.014   3.716
  12 H   10.030  -3.000   3.645
  13 H    7.614  -7.109   3.655
  14 H   -7.555   7.126   3.703
  15 H    9.862   3.011  -3.702
  16 H    5.260  -5.176  -3.641
  17 H    2.868  -1.065  -3.643
  18 H   -7.572  -7.141   3.676
  19 C   -7.344   6.028  -3.682
                                115 S  
                                         3.624E+03 1.634E-03 0.000E+00 0.000E+00
                                         5.440E+02 1.252E-02 0.000E+00 0.000E+00
                                         1.237E+02 6.211E-02 0.000E+00 0.000E+00
                                         3.476E+01 2.182E-01 0.000E+00 0.000E+00
                                         1.093E+01 4.980E-01 0.000E+00 0.000E+00
                                116 S  
                                         3.574E+00 1.000E+00 0.000E+00 0.000E+00
                                117 S  
                                         7.742E-01 1.000E+00 0.000E+00 0.000E+00
                                118 S  
                                         2.330E-01 1.000E+00 0.000E+00 0.000E+00
                         119-   121 P  
                                         9.443E+00 0.000E+00 3.790E-02 0.000E+00
                                         2.002E+00 0.000E+00 2.082E-01 0.000E+00
                                         5.463E-01 0.000E+00 5.047E-01 0.000E+00
                         122-   124 P  
                                         1.820E-01 0.000E+00 1.000E+00 0.000E+00
                         125-   129 D  
                                         8.880E-01 0.000E+00 0.000E+00 1.000E+00
  20 C   -6.004   3.741  -3.669
  21 C   -3.375   8.313  -3.716
  22 C   -6.003   8.312  -3.714
  23 C   -3.375   3.742  -3.674
  24 C   -2.036   6.029  -3.690
  25 C    1.509   2.671 -11.042
  26 C    4.159   2.686 -11.039
  27 C   11.007  -4.817   3.663
  28 C    9.678  -7.088   3.671
  29 C   -9.617   7.097   3.691
  30 C  -10.912   9.410   3.679
  31 C    6.231   1.215  -3.685
  32 C    8.881   1.196  -3.690
  33 C    6.256  -3.370  -3.656
  34 C    4.931  -1.095  -3.661
  35 C   10.203  -1.077  -3.683
  36 C    8.907  -3.390  -3.673
  37 O    9.088  -8.189  -3.688
                                385 S  
                                         6.773E+03 1.727E-03 0.000E+00 0.000E+00
                                         1.017E+03 1.325E-02 0.000E+00 0.000E+00
                                         2.313E+02 6.603E-02 0.000E+00 0.000E+00
                                         6.501E+01 2.353E-01 0.000E+00 0.000E+00
                                         2.050E+01 5.498E-01 0.000E+00 0.000E+00
                                386 S  
                                         6.716E+00 1.000E+00 0.000E+00 0.000E+00
                                387 S  
                                         1.147E+00 1.000E+00 0.000E+00 0.000E+00
                                388 S  
                                         3.342E-01 1.000E+00 0.000E+00 0.000E+00
                         389-   391 P  
                                         1.769E+01 0.000E+00 4.359E-02 0.000E+00
                                         3.854E+00 0.000E+00 2.318E-01 0.000E+00
                                         1.047E+00 0.000E+00 5.146E-01 0.000E+00
                         392-   394 P  
                                         2.759E-01 0.000E+00 1.000E+00 0.000E+00
                         395-   399 D  
                                         8.000E-01 0.000E+00 0.000E+00 1.000E+00
  38 O  -11.570   3.773  -3.666
  39 O   -2.116  -3.783  11.042
  40 O    2.187   8.294  -3.665
  41 O    2.182   3.775  -3.610
  42 O    6.089   6.028  -3.647

 *******************************************************************************
 FINISHED BASIS SET HANDLING 
 *******************************************************************************

 INFORMATION **** SET_MPP **** PCRYSTAL CALCULATION
 INFORMATION **** READM2 **** NEW DEFAULT: FOCK/KS MATRIX MIXING SET TO 30 %
 INFORMATION **** READM2 **** NEW DEFAULT: FULL DIRECT SCF MODE
 INFORMATION **** READM2 **** NEW DEFAULT: COULOMB BIPOLAR BUFFER SET TO 32 Mb
 INFORMATION **** READM2 **** NEW DEFAULT: EXCHANGE BIPOLAR BUFFER SET TO 32 Mb

 *******************************************************************************
 NEW DEFAULT: DFT INTEGRATION GRID INCREASED TO XLGRID
 NEW DEFAULT: DIIS ACCELERATOR ACTIVE
 USE KEYWORD NODIIS TO TURN IT OFF
 *******************************************************************************

 WARNING **** RDDFTP **** HSEsol-HJS ACTIVE
 RANGE SEPARATION - OMEGA:   0.110000000000000     
 WARNING **** RDDFTP **** HSEsol-3c has to be combined with sol-def2-mSVP basis set
 *******************************************************************************
 N. OF ATOMS PER CELL        42  COULOMB OVERLAP TOL         (T1) 10**   -6
 NUMBER OF SHELLS           234  COULOMB PENETRATION TOL     (T2) 10**   -6
 NUMBER OF AO               474  EXCHANGE OVERLAP TOL        (T3) 10**   -6
 N. OF ELECTRONS PER CELL   198  EXCHANGE PSEUDO OVP (F(G))  (T4) 10**   -6
 CORE ELECTRONS PER CELL     60  EXCHANGE PSEUDO OVP (P(G))  (T5) 10**  -12
 N. OF SYMMETRY OPERATORS     1  POLE ORDER IN MONO ZONE                  4
 *******************************************************************************
 TYPE OF CALCULATION :  RESTRICTED CLOSED SHELL
 KOHN-SHAM HAMILTONIAN

 (EXCHANGE)[CORRELATION] FUNCTIONAL:(HSEsol GGA)[PBEsol]

 RANGE-SEPARATED HYBRID FUNCTIONAL 
 OMEGA (SHORT-RANGE)[LONG-RANGE]:(    0.1100)[    0.0000]

 HYBRID EXCHANGE - PERCENTAGE OF FOCK EXCHANGE    25.0000

 CAPPA:IS1  2;IS2  2;IS3  8; K PTS MONK NET  20; SYMMOPS:K SPACE   2;G SPACE   1

 *******************************************************************************
 MAX NUMBER OF SCF CYCLES      50  CONVERGENCE ON DELTAP        10**-16
 WEIGHT OF F(I) IN F(I+1)      30% CONVERGENCE ON ENERGY        10**- 6
 SHRINK. FACT.(MONKH.)    2  2  8  NUMBER OF K POINTS IN THE IBZ     20
 SHRINKING FACTOR(GILAT NET)    8  NUMBER OF K POINTS(GILAT NET)   1028
 *******************************************************************************
 *** K POINTS COORDINATES (OBLIQUE COORDINATES IN UNITS OF IS =  2)
   1-R(  0  0  0)   2-R(  1  0  0)   3-R(  0  1  0)   4-R(  1  1  0)
   5-C(  0  0  1)   6-C(  1  0  1)   7-C(  0  1  1)   8-C(  1  1  1)
   9-C(  0  0  2)  10-C(  1  0  2)  11-C(  0  1  2)  12-C(  1  1  2)
  13-C(  0  0  3)  14-C(  1  0  3)  15-C(  0  1  3)  16-C(  1  1  3)
  17-R(  0  0  4)  18-R(  1  0  4)  19-R(  0  1  4)  20-R(  1  1  4)

 DIRECT LATTICE VECTORS COMPON. (A.U.)     RECIP. LATTICE VECTORS COMPON. (A.U.) 
        X            Y            Z              X            Y            Z
   24.5689761  -14.2152832    0.0000000      0.2557366    0.0000000   -0.1641794
    0.0000000   28.4297713    0.0000000      0.1278719    0.2210072   -0.3273111
    4.7317578    8.1779474    7.3704941      0.0000000    0.0000000    0.8524782

 DISK SPACE FOR EIGENVECTORS (FTN 10)     7189632 REALS

 SYMMETRY ADAPTION OF THE BLOCH FUNCTIONS DISABLED
 TTTTTTTTTTTTTTTTTTTTTTTTTTTTTT gordsh1     TELAPSE        0.04 TCPU        0.04

 MATRIX SIZE: P(G)  312672, F(G)   62528, P(G) IRR  157419, F(G) IRR   63152
 MAX G-VECTOR INDEX FOR 1- AND 2-ELECTRON INTEGRALS  45

 TTTTTTTTTTTTTTTTTTTTTTTTTTTTTT INPUT       TELAPSE        0.37 TCPU        0.37

 NEIGHBORS OF THE NON-EQUIVALENT ATOMS

 N = NUMBER OF NEIGHBORS AT DISTANCE R
    ATOM  N     R/ANG      R/AU   NEIGHBORS (ATOM LABELS AND CELL INDICES)
   1 B    1     1.3787     2.6054   38 O    0 0 0
   1 B    1     1.3795     2.6068   37 O   -1 0 0
   1 B    1     1.5517     2.9323   30 C    0 0-1
   1 B    1     2.3868     4.5104    2 B    0 0 0
   1 B    1     2.3912     4.5187    3 B   -1 0 0
   1 B    1     2.5629     4.8432   27 C   -1 0-1

   2 B    1     1.3792     2.6064   38 O    0 0 0
   2 B    1     1.3798     2.6075   39 O    0 1-2
   2 B    1     1.5510     2.9309   19 C    0 0 0
   2 B    1     2.3868     4.5104    1 B    0 0 0
   2 B    1     2.3894     4.5154    3 B   -1 0 0
   2 B    1     2.5618     4.8411   22 C    0 0 0

   3 B    1     1.3790     2.6060   37 O    0 0 0
   3 B    1     1.3795     2.6069   39 O    1 1-2
   3 B    1     1.5529     2.9346   36 C    0 0 0
   3 B    1     2.3894     4.5154    2 B    1 0 0
   3 B    1     2.3912     4.5187    1 B    1 0 0
   3 B    1     2.5679     4.8526   35 C    0 0 0

   4 B    1     1.3779     2.6038   41 O    0 0 0
   4 B    1     1.3786     2.6051   40 O    0 0 0
   4 B    1     1.5479     2.9252   24 C    0 0 0
   4 B    1     2.3857     4.5084    5 B    0 0 0
   4 B    1     2.3859     4.5087    6 B    0 0 0
   4 B    1     2.5585     4.8349   21 C    0 0 0

   5 B    1     1.3778     2.6037   41 O    0 0 0
   5 B    1     1.3814     2.6104   42 O    0 0 0
   5 B    1     1.5524     2.9336   31 C    0 0 0
   5 B    1     2.3857     4.5084    4 B    0 0 0
   5 B    1     2.3952     4.5263    6 B    0 0 0
   5 B    1     2.5591     4.8359   32 C    0 0 0

   6 B    1     1.3783     2.6045   40 O    0 0 0
   6 B    1     1.3812     2.6101   42 O    0 0 0
   6 B    1     1.5546     2.9377   25 C    0 0 1
   6 B    1     2.3859     4.5087    4 B    0 0 0
   6 B    1     2.3952     4.5263    5 B    0 0 0
   6 B    1     2.5605     4.8386   26 C    0 0 1

   7 H    1     1.0917     2.0629   20 C    0 0 0
   7 H    1     2.1462     4.0556   19 C    0 0 0
   7 H    1     2.1712     4.1029   23 C    0 0 0
   7 H    1     2.5280     4.7772   10 H    0 0 0
   7 H    1     2.5583     4.8346   38 O    0 0 0
   7 H    1     2.7310     5.1609    2 B    0 0 0

   8 H    1     1.0909     2.0615   21 C    0 0 0
   8 H    1     2.1454     4.0543   24 C    0 0 0
   8 H    1     2.1688     4.0985   22 C    0 0 0
   8 H    1     2.5272     4.7758    9 H    0 1-1
   8 H    1     2.5562     4.8306   40 O    0 0 0
   8 H    1     2.7244     5.1483    4 B    0 0 0

   9 H    1     1.0908     2.0614   22 C    0-1 1
   9 H    1     2.1443     4.0521   19 C    0-1 1
   9 H    1     2.1694     4.0995   21 C    0-1 1
   9 H    1     2.5272     4.7758    8 H    0-1 1
   9 H    1     2.5616     4.8407   39 O    0 0-1
   9 H    1     2.7249     5.1492    2 B    0-1 1

  10 H    1     1.0912     2.0621   23 C    0 0 0
  10 H    1     2.1469     4.0570   24 C    0 0 0
  10 H    1     2.1689     4.0986   20 C    0 0 0
  10 H    1     2.5280     4.7772    7 H    0 0 0
  10 H    1     2.5562     4.8305   41 O    0 0 0
  10 H    1     2.7309     5.1607    4 B    0 0 0

  11 H    1     1.0911     2.0619   26 C   -1-1 2
  11 H    1     2.1443     4.0521   25 C   -1-1 2
  11 H    1     2.1684     4.0978   29 C    0 0 0
  11 H    1     2.5223     4.7664   14 H    0 0 0
  11 H    1     2.5622     4.8419   42 O   -1-1 1
  11 H    1     2.7179     5.1361    6 B   -1-1 1

  12 H    1     1.0917     2.0630   27 C    0 0 0
  12 H    1     2.1441     4.0518   30 C    1 0 0
  12 H    1     2.1716     4.1037   28 C    0 0 0
  12 H    1     2.5226     4.7669   13 H    0 0 0
  12 H    1     2.5541     4.8265   37 O    0 0 1
  12 H    1     2.7237     5.1471    1 B    1 0 1

  13 H    1     1.0919     2.0634   28 C    0 0 0
  13 H    1     2.1522     4.0671   25 C    0-1 2
  13 H    1     2.1668     4.0946   27 C    0 0 0
  13 H    1     2.5226     4.7669   12 H    0 0 0
  13 H    1     2.5923     4.8987   40 O    0-1 1
  13 H    1     2.7583     5.2124    6 B    0-1 1

  14 H    1     1.0915     2.0627   29 C    0 0 0
  14 H    1     2.1483     4.0597   30 C    0 0 0
  14 H    1     2.1679     4.0968   26 C   -1-1 2
  14 H    1     2.5223     4.7664   11 H    0 0 0
  14 H    1     2.5809     4.8771   38 O    0 0 1
  14 H    1     2.7404     5.1785    1 B    0 0 1

  15 H    1     1.0916     2.0628   32 C    0 0 0
  15 H    1     2.1436     4.0508   31 C    0 0 0
  15 H    1     2.1707     4.1021   35 C    0 0 0
  15 H    1     2.5217     4.7654   18 H    1 1-1
  15 H    1     2.5568     4.8316   42 O    0 0 0
  15 H    1     2.7166     5.1336    5 B    0 0 0

  16 H    1     1.0914     2.0625   33 C    0 0 0
  16 H    1     2.1488     4.0606   36 C    0 0 0
  16 H    1     2.1663     4.0937   34 C    0 0 0
  16 H    1     2.5170     4.7564   17 H    0 0 0
  16 H    1     2.5780     4.8717   37 O    0 0 0
  16 H    1     2.7396     5.1770    3 B    0 0 0

  17 H    1     1.0921     2.0638   34 C    0 0 0
  17 H    1     2.1502     4.0633   31 C    0 0 0
  17 H    1     2.1683     4.0976   33 C    0 0 0
  17 H    1     2.5170     4.7564   16 H    0 0 0
  17 H    1     2.5870     4.8888   41 O    0 0 0
  17 H    1     2.7510     5.1986    5 B    0 0 0

  18 H    1     1.0913     2.0622   35 C   -1-1 1
  18 H    1     2.1495     4.0619   36 C   -1-1 1
  18 H    1     2.1656     4.0923   32 C   -1-1 1
  18 H    1     2.5217     4.7654   15 H   -1-1 1
  18 H    1     2.5789     4.8734   39 O    0 0-1
  18 H    1     2.7392     5.1763    3 B   -1-1 1

  19 C    1     1.4017     2.6489   22 C    0 0 0
  19 C    1     1.4025     2.6504   20 C    0 0 0
  19 C    1     1.5510     2.9309    2 B    0 0 0
  19 C    1     2.1443     4.0521    9 H    0 1-1
  19 C    1     2.1462     4.0556    7 H    0 0 0
  19 C    1     2.4236     4.5800   21 C    0 0 0

  20 C    1     1.0917     2.0629    7 H    0 0 0
  20 C    1     1.3915     2.6296   23 C    0 0 0
  20 C    1     1.4025     2.6504   19 C    0 0 0
  20 C    1     2.1689     4.0986   10 H    0 0 0
  20 C    1     2.4191     4.5715   22 C    0 0 0
  20 C    1     2.4241     4.5809   24 C    0 0 0

  21 C    1     1.0909     2.0615    8 H    0 0 0
  21 C    1     1.3909     2.6284   22 C    0 0 0
  21 C    1     1.4014     2.6484   24 C    0 0 0
  21 C    1     2.1694     4.0995    9 H    0 1-1
  21 C    1     2.4189     4.5711   23 C    0 0 0
  21 C    1     2.4236     4.5800   19 C    0 0 0

  22 C    1     1.0908     2.0614    9 H    0 1-1
  22 C    1     1.3909     2.6284   21 C    0 0 0
  22 C    1     1.4017     2.6489   19 C    0 0 0
  22 C    1     2.1688     4.0985    8 H    0 0 0
  22 C    1     2.4191     4.5715   20 C    0 0 0
  22 C    1     2.4226     4.5780   24 C    0 0 0

  23 C    1     1.0912     2.0621   10 H    0 0 0
  23 C    1     1.3915     2.6296   20 C    0 0 0
  23 C    1     1.4021     2.6497   24 C    0 0 0
  23 C    1     2.1712     4.1029    7 H    0 0 0
  23 C    1     2.4189     4.5711   21 C    0 0 0
  23 C    1     2.4237     4.5802   19 C    0 0 0

  24 C    1     1.4014     2.6484   21 C    0 0 0
  24 C    1     1.4021     2.6497   23 C    0 0 0
  24 C    1     1.5479     2.9252    4 B    0 0 0
  24 C    1     2.1454     4.0543    8 H    0 0 0
  24 C    1     2.1469     4.0570   10 H    0 0 0
  24 C    1     2.4226     4.5780   22 C    0 0 0

  25 C    1     1.4025     2.6504   26 C    0 0 0
  25 C    1     1.4037     2.6526   28 C    0 1-2
  25 C    1     1.5546     2.9377    6 B    0 0-1
  25 C    1     2.1443     4.0521   11 H    1 1-2
  25 C    1     2.1522     4.0671   13 H    0 1-2
  25 C    1     2.4271     4.5866   27 C    0 1-2

  26 C    1     1.0911     2.0619   11 H    1 1-2
  26 C    1     1.3916     2.6298   29 C    1 1-2
  26 C    1     1.4025     2.6504   25 C    0 0 0
  26 C    1     2.1679     4.0968   14 H    1 1-2
  26 C    1     2.4165     4.5665   28 C    0 1-2
  26 C    1     2.4246     4.5819   30 C    1 1-2

  27 C    1     1.0917     2.0630   12 H    0 0 0
  27 C    1     1.3928     2.6320   28 C    0 0 0
  27 C    1     1.4024     2.6502   30 C    1 0 0
  27 C    1     2.1668     4.0946   13 H    0 0 0
  27 C    1     2.4166     4.5668   29 C    1 0 0
  27 C    1     2.4271     4.5866   25 C    0-1 2

  28 C    1     1.0919     2.0634   13 H    0 0 0
  28 C    1     1.3928     2.6320   27 C    0 0 0
  28 C    1     1.4037     2.6526   25 C    0-1 2
  28 C    1     2.1716     4.1037   12 H    0 0 0
  28 C    1     2.4165     4.5665   26 C    0-1 2
  28 C    1     2.4277     4.5877   30 C    1 0 0

  29 C    1     1.0915     2.0627   14 H    0 0 0
  29 C    1     1.3916     2.6298   26 C   -1-1 2
  29 C    1     1.4023     2.6499   30 C    0 0 0
  29 C    1     2.1684     4.0978   11 H    0 0 0
  29 C    1     2.4166     4.5668   27 C   -1 0 0
  29 C    1     2.4281     4.5884   25 C   -1-1 2

  30 C    1     1.4023     2.6499   29 C    0 0 0
  30 C    1     1.4024     2.6502   27 C   -1 0 0
  30 C    1     1.5517     2.9323    1 B    0 0 1
  30 C    1     2.1441     4.0518   12 H   -1 0 0
  30 C    1     2.1483     4.0597   14 H    0 0 0
  30 C    1     2.4246     4.5819   26 C   -1-1 2

  31 C    1     1.4022     2.6498   32 C    0 0 0
  31 C    1     1.4030     2.6513   34 C    0 0 0
  31 C    1     1.5524     2.9336    5 B    0 0 0
  31 C    1     2.1436     4.0508   15 H    0 0 0
  31 C    1     2.1502     4.0633   17 H    0 0 0
  31 C    1     2.4264     4.5853   33 C    0 0 0

  32 C    1     1.0916     2.0628   15 H    0 0 0
  32 C    1     1.3918     2.6301   35 C    0 0 0
  32 C    1     1.4022     2.6498   31 C    0 0 0
  32 C    1     2.1656     4.0923   18 H    1 1-1
  32 C    1     2.4163     4.5661   34 C    0 0 0
  32 C    1     2.4270     4.5863   36 C    0 0 0

  33 C    1     1.0914     2.0625   16 H    0 0 0
  33 C    1     1.3927     2.6318   34 C    0 0 0
  33 C    1     1.4029     2.6510   36 C    0 0 0
  33 C    1     2.1683     4.0976   17 H    0 0 0
  33 C    1     2.4155     4.5646   35 C    0 0 0
  33 C    1     2.4264     4.5853   31 C    0 0 0

  34 C    1     1.0921     2.0638   17 H    0 0 0
  34 C    1     1.3927     2.6318   33 C    0 0 0
  34 C    1     1.4030     2.6513   31 C    0 0 0
  34 C    1     2.1663     4.0937   16 H    0 0 0
  34 C    1     2.4163     4.5661   32 C    0 0 0
  34 C    1     2.4289     4.5899   36 C    0 0 0

  35 C    1     1.0913     2.0622   18 H    1 1-1
  35 C    1     1.3918     2.6301   32 C    0 0 0
  35 C    1     1.4029     2.6511   36 C    0 0 0
  35 C    1     2.1707     4.1021   15 H    0 0 0
  35 C    1     2.4155     4.5646   33 C    0 0 0
  35 C    1     2.4269     4.5861   31 C    0 0 0

  36 C    1     1.4029     2.6510   33 C    0 0 0
  36 C    1     1.4029     2.6511   35 C    0 0 0
  36 C    1     1.5529     2.9346    3 B    0 0 0
  36 C    1     2.1488     4.0606   16 H    0 0 0
  36 C    1     2.1495     4.0619   18 H    1 1-1
  36 C    1     2.4270     4.5863   32 C    0 0 0

  37 O    1     1.3790     2.6060    3 B    0 0 0
  37 O    1     1.3795     2.6068    1 B    1 0 0
  37 O    1     2.3868     4.5105   39 O    1 1-2
  37 O    1     2.3885     4.5136   38 O    1 0 0
  37 O    1     2.5389     4.7979   30 C    1 0-1
  37 O    1     2.5412     4.8022   36 C    0 0 0

  38 O    1     1.3787     2.6054    1 B    0 0 0
  38 O    1     1.3792     2.6064    2 B    0 0 0
  38 O    1     2.3885     4.5136   37 O   -1 0 0
  38 O    1     2.3912     4.5188   39 O    0 1-2
  38 O    1     2.5351     4.7906   19 C    0 0 0
  38 O    1     2.5405     4.8008   30 C    0 0-1

  39 O    1     1.3795     2.6069    3 B   -1-1 2
  39 O    1     1.3798     2.6075    2 B    0-1 2
  39 O    1     2.3868     4.5105   37 O   -1-1 2
  39 O    1     2.3912     4.5188   38 O    0-1 2
  39 O    1     2.5416     4.8030   19 C    0-1 2
  39 O    1     2.5427     4.8050   36 C   -1-1 2

  40 O    1     1.3783     2.6045    6 B    0 0 0
  40 O    1     1.3786     2.6051    4 B    0 0 0
  40 O    1     2.3876     4.5119   42 O    0 0 0
  40 O    1     2.3914     4.5190   41 O    0 0 0
  40 O    1     2.5354     4.7912   25 C    0 0 1
  40 O    1     2.5360     4.7923   24 C    0 0 0

  41 O    1     1.3778     2.6037    5 B    0 0 0
  41 O    1     1.3779     2.6038    4 B    0 0 0
  41 O    1     2.3870     4.5107   42 O    0 0 0
  41 O    1     2.3914     4.5190   40 O    0 0 0
  41 O    1     2.5305     4.7820   24 C    0 0 0
  41 O    1     2.5354     4.7912   31 C    0 0 0

  42 O    1     1.3812     2.6101    6 B    0 0 0
  42 O    1     1.3814     2.6104    5 B    0 0 0
  42 O    1     2.3870     4.5107   41 O    0 0 0
  42 O    1     2.3876     4.5119   40 O    0 0 0
  42 O    1     2.5481     4.8152   31 C    0 0 0
  42 O    1     2.5522     4.8230   25 C    0 0 1


 SYMMETRY ALLOWED INTERNAL DEGREE(S) OF FREEDOM: 123
 TTTTTTTTTTTTTTTTTTTTTTTTTTTTTT SYMM        TELAPSE        0.37 TCPU        0.37
 TTTTTTTTTTTTTTTTTTTTTTTTTTTTTT INT_SCREEN  TELAPSE        0.40 TCPU        0.40

 DFT PARAMETERS

     ATOM       ELECTRONS   NET CHARGE   R(ANGSTROM)
   1   5  B       5.0000      0.0000     0.89000000
   7   1  H       1.0000      0.0000     1.11000000
  19   6  C       6.0000      0.0000     0.77000000
  37   8  O       8.0000      0.0000     0.74000000

 SIZE OF GRID=    1314562
 TTTTTTTTTTTTTTTTTTTTTTTTTTTTTT MAKE_GRID2  TELAPSE        8.82 TCPU        8.81
 BECKE WEIGHT FUNCTION
 RADSAFE =     2.00
 TOLERANCES - DENSITY:10**- 6; POTENTIAL:10**- 9; GRID WGT:10**-14

 RADIAL INTEGRATION  - INTERVALS (POINTS,UPPER LIMIT):            1( 75,  4.0*R)

 ANGULAR INTEGRATION - INTERVALS (ACCURACY LEVEL [N. POINTS] UPPER LIMIT):
  1(  4[  86]   0.2)  2(  8[ 194]   0.5)  3( 12[ 350]   0.9)  4( 16[ 974]   3.5)
  5( 12[ 350]9999.0)
 TTTTTTTTTTTTTTTTTTTTTTTTTTTTTT INT_CALC    TELAPSE        8.90 TCPU        8.89
 EEEEEEEEEE INT_CALC TERMINATION  DATE 02 12 2025 TIME 08:02:42.3

 *******************************************************************************
 COF-5_z39_inc_L050                                                              
 CRYSTAL - SCF - TYPE OF CALCULATION :  RESTRICTED CLOSED SHELL
 *******************************************************************************

 CAPPA:IS1  2;IS2  2;IS3  8; K PTS MONK NET  20; SYMMOPS:K SPACE   2;G SPACE   1

 TTTTTTTTTTTTTTTTTTTTTTTTTTTTTT SDIK        TELAPSE        9.51 TCPU       16.79

 AAAAAAAAAAAAAAAAAAAAAAAAAAAAAAAAAAAAAAAAAAAAAAAAAAAAAAAAAAAAAAAAAAAAAAAAAAAAAAA
         ATOMIC WAVEFUNCTION(S)


 NUCLEAR CHARGE  5.0  SYMMETRY SPECIES            S    P
 N. ELECTRONS    5.0  NUMBER OF PRIMITIVE GTOS    8    4
                      NUMBER OF CONTRACTED GTOS   4    2
                      NUMBER OF CLOSED SHELLS     2    0
                      OPEN SHELL OCCUPATION       0    1

  ZNUC  SCFIT    TOTAL HF ENERGY   KINETIC ENERGY   VIRIAL THEOREM ACCURACY
   5.0    11    -2.451164084E+01  2.462155050E+01 -1.995536038E+00  1.5E-06

 NUCLEAR CHARGE  1.0  SYMMETRY SPECIES            S
 N. ELECTRONS    1.0  NUMBER OF PRIMITIVE GTOS    4
                      NUMBER OF CONTRACTED GTOS   2
                      NUMBER OF CLOSED SHELLS     0
                      OPEN SHELL OCCUPATION       1

  ZNUC  SCFIT    TOTAL HF ENERGY   KINETIC ENERGY   VIRIAL THEOREM ACCURACY
   1.0     1    -4.977266687E-01  5.190767460E-01 -1.958869132E+00  0.0E+00

 NUCLEAR CHARGE  6.0  SYMMETRY SPECIES            S    P
 N. ELECTRONS    6.0  NUMBER OF PRIMITIVE GTOS    8    4
                      NUMBER OF CONTRACTED GTOS   4    2
                      NUMBER OF CLOSED SHELLS     2    0
                      OPEN SHELL OCCUPATION       0    2

  ZNUC  SCFIT    TOTAL HF ENERGY   KINETIC ENERGY   VIRIAL THEOREM ACCURACY
   6.0     9    -3.766704647E+01  3.775180683E+01 -1.997754800E+00  1.1E-06

 NUCLEAR CHARGE  8.0  SYMMETRY SPECIES            S    P
 N. ELECTRONS    8.0  NUMBER OF PRIMITIVE GTOS    8    4
                      NUMBER OF CONTRACTED GTOS   4    2
                      NUMBER OF CLOSED SHELLS     2    0
                      OPEN SHELL OCCUPATION       0    4

  ZNUC  SCFIT    TOTAL HF ENERGY   KINETIC ENERGY   VIRIAL THEOREM ACCURACY
   8.0    12    -7.477373220E+01  7.477365593E+01 -2.000001020E+00  3.8E-06

 AAAAAAAAAAAAAAAAAAAAAAAAAAAAAAAAAAAAAAAAAAAAAAAAAAAAAAAAAAAAAAAAAAAAAAAAAAAAAAA

 CHARGE NORMALIZATION FACTOR   1.00000000
 TOTAL ATOMIC CHARGES:
   5.0000000   5.0000000   5.0000000   5.0000000   5.0000000   5.0000000
   1.0000000   1.0000000   1.0000000   1.0000000   1.0000000   1.0000000
   1.0000000   1.0000000   1.0000000   1.0000000   1.0000000   1.0000000
   6.0000000   6.0000000   6.0000000   6.0000000   6.0000000   6.0000000
   6.0000000   6.0000000   6.0000000   6.0000000   6.0000000   6.0000000
   6.0000000   6.0000000   6.0000000   6.0000000   6.0000000   6.0000000
   8.0000000   8.0000000   8.0000000   8.0000000   8.0000000   8.0000000
 TTTTTTTTTTTTTTTTTTTTTTTTTTTTTT MOQGAD      TELAPSE        9.55 TCPU       18.12
 TTTTTTTTTTTTTTTTTTTTTTTTTTTTTT SHELLXN     TELAPSE       16.01 TCPU      224.60
 TTTTTTTTTTTTTTTTTTTTTTTTTTTTTT MONMO3      TELAPSE       16.15 TCPU      229.13
 NUMERICALLY INTEGRATED DENSITY    197.9999898674
 TTTTTTTTTTTTTTTTTTTTTTTTTTTTTT NUMDFT      TELAPSE       16.72 TCPU      247.29
 CYC   0 ETOT(AU) -1.295948665091E+03 DETOT -1.30E+03 tst  0.00E+00 PX  1.00E+00
 TTTTTTTTTTTTTTTTTTTTTTTTTTTTTT DIIS        TELAPSE       16.76 TCPU      248.41
 TTTTTTTTTTTTTTTTTTTTTTTTTTTTTT FDIK        TELAPSE       17.23 TCPU      263.47
 INSULATING STATE
 TOP OF VALENCE BANDS -    BAND     99; K    1; EIG -3.1385911E-01 AU
 BOTTOM OF VIRTUAL BANDS - BAND    100; K   17; EIG -1.6349958E-01 AU
 INDIRECT ENERGY BAND GAP:   4.0915 eV
 BOTTOM OF VIRTUAL BANDS - BAND    100; K    1; EIG -1.5606502E-01 AU
 TTTTTTTTTTTTTTTTTTTTTTTTTTTTTT PDIG        TELAPSE       17.55 TCPU      269.64
 CHARGE NORMALIZATION FACTOR   1.00000000
 TOTAL ATOMIC CHARGES:
   4.1536128   4.1654700   4.1664788   4.1683563   4.1653481   4.1522960
   0.7851906   0.7851623   0.7850207   0.7850294   0.7854323   0.7853341
   0.7863046   0.7858706   0.7849268   0.7854902   0.7852108   0.7854433
   6.0440221   6.2656122   6.2656538   6.2658281   6.2645666   6.0462249
   6.0422574   6.2648454   6.2629834   6.2654554   6.2652828   6.0456588
   6.0431284   6.2657001   6.2665679   6.2654035   6.2669752   6.0407682
   8.6936126   8.6928232   8.6924076   8.6923741   8.6910422   8.6948285
 TTTTTTTTTTTTTTTTTTTTTTTTTTTTTT MOQGAD      TELAPSE       17.59 TCPU      269.69
 TTTTTTTTTTTTTTTTTTTTTTTTTTTTTT SHELLXN     TELAPSE       24.32 TCPU      484.10
 TTTTTTTTTTTTTTTTTTTTTTTTTTTTTT MONMO3      TELAPSE       24.46 TCPU      488.60
 NUMERICALLY INTEGRATED DENSITY    197.9999917114
 TTTTTTTTTTTTTTTTTTTTTTTTTTTTTT NUMDFT      TELAPSE       25.03 TCPU      507.03
 CYC   1 ETOT(AU) -1.288819494563E+03 DETOT  7.13E+00 tst  0.00E+00 PX  1.00E+00
 TTTTTTTTTTTTTTTTTTTTTTTTTTTTTT DIIS        TELAPSE       25.08 TCPU      508.51
 DIIS TEST: 0.10980E+01 AT SCF   CYCLE   1 - MIX   30 %
 TTTTTTTTTTTTTTTTTTTTTTTTTTTTTT FDIK        TELAPSE       25.56 TCPU      523.73
 INSULATING STATE
 TOP OF VALENCE BANDS -    BAND     99; K   17; EIG -2.2814653E-01 AU
 TOP OF VALENCE BANDS -    BAND     99; K    1; EIG -2.2862947E-01 AU
 BOTTOM OF VIRTUAL BANDS - BAND    100; K   17; EIG -8.9292171E-02 AU
 DIRECT ENERGY BAND GAP:   3.7784 eV
 BOTTOM OF VIRTUAL BANDS - BAND    100; K    1; EIG -7.7799468E-02 AU
 TTTTTTTTTTTTTTTTTTTTTTTTTTTTTT PDIG        TELAPSE       25.88 TCPU      529.90
 CHARGE NORMALIZATION FACTOR   1.00000000
 TOTAL ATOMIC CHARGES:
   4.6907163   4.7007113   4.7013498   4.7021043   4.7016018   4.6902064
   0.9072322   0.9076609   0.9149610   0.9150917   0.9002963   0.8999451
   0.9009253   0.9012184   0.9068027   0.9073405   0.9148927   0.9148696
   5.8690507   6.1400197   6.1382522   6.1379404   6.1395487   5.8650182
   5.8915555   6.1370430   6.1387395   6.1430306   6.1401029   5.8856287
   5.8697787   6.1353030   6.1379855   6.1399271   6.1369096   5.8715083
   8.3334925   8.3321858   8.3371086   8.3308872   8.3340838   8.3369736
 TTTTTTTTTTTTTTTTTTTTTTTTTTTTTT MOQGAD      TELAPSE       25.92 TCPU      529.95
 TTTTTTTTTTTTTTTTTTTTTTTTTTTTTT SHELLXN     TELAPSE       32.65 TCPU      744.37
 TTTTTTTTTTTTTTTTTTTTTTTTTTTTTT MONMO3      TELAPSE       32.79 TCPU      748.88
 NUMERICALLY INTEGRATED DENSITY    197.9999945300
 TTTTTTTTTTTTTTTTTTTTTTTTTTTTTT NUMDFT      TELAPSE       33.36 TCPU      767.27
 CYC   2 ETOT(AU) -1.289013844218E+03 DETOT -1.94E-01 tst  3.90E-03 PX  1.59E-01
 TTTTTTTTTTTTTTTTTTTTTTTTTTTTTT DIIS        TELAPSE       33.41 TCPU      768.85
 DIIS TEST: 0.45000E+00 AT SCF   CYCLE   2 - DIIS ACTIVE - HISTORY:     2 CYCLES
 TTTTTTTTTTTTTTTTTTTTTTTTTTTTTT FDIK        TELAPSE       33.89 TCPU      784.13
 INSULATING STATE
 TOP OF VALENCE BANDS -    BAND     99; K    1; EIG -2.3972845E-01 AU
 BOTTOM OF VIRTUAL BANDS - BAND    100; K   17; EIG -8.5079853E-02 AU
 INDIRECT ENERGY BAND GAP:   4.2082 eV
 BOTTOM OF VIRTUAL BANDS - BAND    100; K    1; EIG -7.3839968E-02 AU
 TTTTTTTTTTTTTTTTTTTTTTTTTTTTTT PDIG        TELAPSE       34.21 TCPU      790.30
 CHARGE NORMALIZATION FACTOR   1.00000000
 TOTAL ATOMIC CHARGES:
   4.4853900   4.4999385   4.5004179   4.5018387   4.5000358   4.4844915
   0.8870676   0.8869029   0.8925042   0.8927625   0.8811739   0.8809577
   0.8826602   0.8821233   0.8858253   0.8870248   0.8928815   0.8923290
   5.8931537   6.1614924   6.1619561   6.1567385   6.1564351   5.8947897
   5.8981696   6.1627533   6.1632745   6.1656922   6.1657214   5.8995641
   5.8938201   6.1613505   6.1616237   6.1574314   6.1581849   5.8933101
   8.5137046   8.5131237   8.5126592   8.5124544   8.5104544   8.5158171
 TTTTTTTTTTTTTTTTTTTTTTTTTTTTTT MOQGAD      TELAPSE       34.25 TCPU      790.35
 TTTTTTTTTTTTTTTTTTTTTTTTTTTTTT SHELLXN     TELAPSE       40.98 TCPU     1004.96
 TTTTTTTTTTTTTTTTTTTTTTTTTTTTTT MONMO3      TELAPSE       41.12 TCPU     1009.47
 NUMERICALLY INTEGRATED DENSITY    197.9999932551
 TTTTTTTTTTTTTTTTTTTTTTTTTTTTTT NUMDFT      TELAPSE       41.70 TCPU     1027.92
 CYC   3 ETOT(AU) -1.289106853508E+03 DETOT -9.30E-02 tst  6.91E-04 PX  6.45E-02
 TTTTTTTTTTTTTTTTTTTTTTTTTTTTTT DIIS        TELAPSE       41.76 TCPU     1029.74
 DIIS TEST: 0.14204E-01 AT SCF   CYCLE   3 - DIIS ACTIVE - HISTORY:     3 CYCLES
 TTTTTTTTTTTTTTTTTTTTTTTTTTTTTT FDIK        TELAPSE       42.25 TCPU     1045.30
 INSULATING STATE
 TOP OF VALENCE BANDS -    BAND     99; K   17; EIG -2.4990196E-01 AU
 TOP OF VALENCE BANDS -    BAND     99; K    1; EIG -2.5112491E-01 AU
 BOTTOM OF VIRTUAL BANDS - BAND    100; K   17; EIG -9.3528926E-02 AU
 DIRECT ENERGY BAND GAP:   4.2551 eV
 BOTTOM OF VIRTUAL BANDS - BAND    100; K    1; EIG -8.1646705E-02 AU
 TTTTTTTTTTTTTTTTTTTTTTTTTTTTTT PDIG        TELAPSE       42.56 TCPU     1051.47
 CHARGE NORMALIZATION FACTOR   1.00000000
 TOTAL ATOMIC CHARGES:
   4.4915168   4.5043065   4.5048222   4.5061574   4.5043544   4.4905772
   0.8695803   0.8699141   0.8747963   0.8750496   0.8627850   0.8626901
   0.8640647   0.8640171   0.8689879   0.8697624   0.8751341   0.8750147
   5.9394816   6.1699220   6.1682705   6.1682539   6.1682821   5.9374966
   5.9540723   6.1713242   6.1711834   6.1743171   6.1723215   5.9508333
   5.9393683   6.1672813   6.1691977   6.1691074   6.1675922   5.9392893
   8.4780753   8.4768509   8.4798359   8.4758981   8.4776293   8.4805845
 TTTTTTTTTTTTTTTTTTTTTTTTTTTTTT MOQGAD      TELAPSE       42.61 TCPU     1051.52
 TTTTTTTTTTTTTTTTTTTTTTTTTTTTTT SHELLXN     TELAPSE       49.33 TCPU     1265.97
 TTTTTTTTTTTTTTTTTTTTTTTTTTTTTT MONMO3      TELAPSE       49.47 TCPU     1270.49
 NUMERICALLY INTEGRATED DENSITY    197.9999933962
 TTTTTTTTTTTTTTTTTTTTTTTTTTTTTT NUMDFT      TELAPSE       50.05 TCPU     1288.93
 CYC   4 ETOT(AU) -1.289109891494E+03 DETOT -3.04E-03 tst  2.82E-05 PX  1.43E-02
 TTTTTTTTTTTTTTTTTTTTTTTTTTTTTT DIIS        TELAPSE       50.11 TCPU     1290.82
 DIIS TEST: 0.41134E-02 AT SCF   CYCLE   4 - DIIS ACTIVE - HISTORY:     4 CYCLES
 TTTTTTTTTTTTTTTTTTTTTTTTTTTTTT FDIK        TELAPSE       50.58 TCPU     1305.88
 INSULATING STATE
 TOP OF VALENCE BANDS -    BAND     99; K   17; EIG -2.4814199E-01 AU
 TOP OF VALENCE BANDS -    BAND     99; K    1; EIG -2.4890472E-01 AU
 BOTTOM OF VIRTUAL BANDS - BAND    100; K   17; EIG -9.3103057E-02 AU
 DIRECT ENERGY BAND GAP:   4.2188 eV
 BOTTOM OF VIRTUAL BANDS - BAND    100; K    1; EIG -8.1555086E-02 AU
 TTTTTTTTTTTTTTTTTTTTTTTTTTTTTT PDIG        TELAPSE       50.90 TCPU     1312.06
 CHARGE NORMALIZATION FACTOR   1.00000000
 TOTAL ATOMIC CHARGES:
   4.4932437   4.5061556   4.5067332   4.5079969   4.5064334   4.4923691
   0.8727230   0.8727047   0.8783869   0.8785994   0.8663452   0.8660912
   0.8676516   0.8673061   0.8717744   0.8728164   0.8787369   0.8783669
   5.9220970   6.1692279   6.1691070   6.1662992   6.1662794   5.9224191
   5.9334039   6.1699958   6.1707061   6.1731396   6.1725341   5.9332014
   5.9226661   6.1680537   6.1688301   6.1669180   6.1668305   5.9226435
   8.4888911   8.4880330   8.4890621   8.4872403   8.4867546   8.4912317
 TTTTTTTTTTTTTTTTTTTTTTTTTTTTTT MOQGAD      TELAPSE       50.95 TCPU     1312.10
 TTTTTTTTTTTTTTTTTTTTTTTTTTTTTT SHELLXN     TELAPSE       57.68 TCPU     1526.60
 TTTTTTTTTTTTTTTTTTTTTTTTTTTTTT MONMO3      TELAPSE       57.82 TCPU     1531.11
 NUMERICALLY INTEGRATED DENSITY    197.9999933820
 TTTTTTTTTTTTTTTTTTTTTTTTTTTTTT NUMDFT      TELAPSE       58.39 TCPU     1549.52
 CYC   5 ETOT(AU) -1.289110834127E+03 DETOT -9.43E-04 tst  7.74E-06 PX  6.59E-03
 TTTTTTTTTTTTTTTTTTTTTTTTTTTTTT DIIS        TELAPSE       58.46 TCPU     1551.74
 DIIS TEST: 0.53319E-04 AT SCF   CYCLE   5 - DIIS ACTIVE - HISTORY:     5 CYCLES
 TTTTTTTTTTTTTTTTTTTTTTTTTTTTTT FDIK        TELAPSE       58.94 TCPU     1567.14
 INSULATING STATE
 TOP OF VALENCE BANDS -    BAND     99; K   17; EIG -2.4798250E-01 AU
 TOP OF VALENCE BANDS -    BAND     99; K    1; EIG -2.4868703E-01 AU
 BOTTOM OF VIRTUAL BANDS - BAND    100; K   17; EIG -9.2570872E-02 AU
 DIRECT ENERGY BAND GAP:   4.2290 eV
 BOTTOM OF VIRTUAL BANDS - BAND    100; K    1; EIG -8.1104604E-02 AU
 TTTTTTTTTTTTTTTTTTTTTTTTTTTTTT PDIG        TELAPSE       59.26 TCPU     1573.31
 CHARGE NORMALIZATION FACTOR   1.00000000
 TOTAL ATOMIC CHARGES:
   4.4931947   4.5061279   4.5066558   4.5079642   4.5062758   4.4922550
   0.8735304   0.8737502   0.8791682   0.8794290   0.8671968   0.8670988
   0.8685020   0.8683495   0.8727898   0.8736557   0.8794758   0.8792667
   5.9228237   6.1689802   6.1677367   6.1658165   6.1657631   5.9217420
   5.9337667   6.1701148   6.1698935   6.1731342   6.1715958   5.9314919
   5.9228567   6.1668952   6.1684544   6.1668341   6.1657346   5.9225413
   8.4883360   8.4873265   8.4892458   8.4864166   8.4870762   8.4907373
 TTTTTTTTTTTTTTTTTTTTTTTTTTTTTT MOQGAD      TELAPSE       59.31 TCPU     1573.36
 TTTTTTTTTTTTTTTTTTTTTTTTTTTTTT SHELLXN     TELAPSE       66.03 TCPU     1787.84
 TTTTTTTTTTTTTTTTTTTTTTTTTTTTTT MONMO3      TELAPSE       66.17 TCPU     1792.35
 NUMERICALLY INTEGRATED DENSITY    197.9999933843
 TTTTTTTTTTTTTTTTTTTTTTTTTTTTTT NUMDFT      TELAPSE       66.75 TCPU     1810.81
 CYC   6 ETOT(AU) -1.289110849778E+03 DETOT -1.57E-05 tst  9.86E-08 PX  6.71E-04
 TTTTTTTTTTTTTTTTTTTTTTTTTTTTTT DIIS        TELAPSE       66.82 TCPU     1813.03
 DIIS TEST: 0.39615E-05 AT SCF   CYCLE   6 - DIIS ACTIVE - HISTORY:     6 CYCLES
 TTTTTTTTTTTTTTTTTTTTTTTTTTTTTT FDIK        TELAPSE       67.29 TCPU     1828.09
 INSULATING STATE
 TOP OF VALENCE BANDS -    BAND     99; K   17; EIG -2.4796932E-01 AU
 TOP OF VALENCE BANDS -    BAND     99; K    1; EIG -2.4869986E-01 AU
 BOTTOM OF VIRTUAL BANDS - BAND    100; K   17; EIG -9.2661256E-02 AU
 DIRECT ENERGY BAND GAP:   4.2261 eV
 BOTTOM OF VIRTUAL BANDS - BAND    100; K    1; EIG -8.1133772E-02 AU
 TTTTTTTTTTTTTTTTTTTTTTTTTTTTTT PDIG        TELAPSE       67.61 TCPU     1834.26
 CHARGE NORMALIZATION FACTOR   1.00000000
 TOTAL ATOMIC CHARGES:
   4.4932127   4.5062446   4.5068176   4.5081050   4.5064808   4.4923283
   0.8736003   0.8735985   0.8791703   0.8793889   0.8671983   0.8669357
   0.8685056   0.8681753   0.8726634   0.8736972   0.8795358   0.8791561
   5.9220863   6.1685149   6.1683667   6.1656963   6.1656365   5.9222857
   5.9332754   6.1693418   6.1701354   6.1725370   6.1718142   5.9330118
   5.9225572   6.1673033   6.1681444   6.1662359   6.1662005   5.9226483
   8.4885674   8.4876522   8.4888502   8.4868860   8.4865315   8.4909069
 TTTTTTTTTTTTTTTTTTTTTTTTTTTTTT MOQGAD      TELAPSE       67.66 TCPU     1834.31
 TTTTTTTTTTTTTTTTTTTTTTTTTTTTTT SHELLXN     TELAPSE       74.38 TCPU     2048.72
 TTTTTTTTTTTTTTTTTTTTTTTTTTTTTT MONMO3      TELAPSE       74.52 TCPU     2053.22
 NUMERICALLY INTEGRATED DENSITY    197.9999933842
 TTTTTTTTTTTTTTTTTTTTTTTTTTTTTT NUMDFT      TELAPSE       75.10 TCPU     2071.63
 CYC   7 ETOT(AU) -1.289110849963E+03 DETOT -1.85E-07 tst  2.55E-08 PX  3.14E-04
 TTTTTTTTTTTTTTTTTTTTTTTTTTTTTT DIIS        TELAPSE       75.18 TCPU     2074.20
 DIIS TEST: 0.11890E-05 AT SCF   CYCLE   7 - DIIS ACTIVE - HISTORY:     7 CYCLES
 TTTTTTTTTTTTTTTTTTTTTTTTTTTTTT FDIK        TELAPSE       75.66 TCPU     2089.60
 INSULATING STATE
 TOP OF VALENCE BANDS -    BAND     99; K   17; EIG -2.4797170E-01 AU
 TOP OF VALENCE BANDS -    BAND     99; K    1; EIG -2.4870620E-01 AU
 BOTTOM OF VIRTUAL BANDS - BAND    100; K   17; EIG -9.2664628E-02 AU
 DIRECT ENERGY BAND GAP:   4.2261 eV
 BOTTOM OF VIRTUAL BANDS - BAND    100; K    1; EIG -8.1142229E-02 AU
 TTTTTTTTTTTTTTTTTTTTTTTTTTTTTT PDIG        TELAPSE       75.98 TCPU     2095.77
 CHARGE NORMALIZATION FACTOR   1.00000000
 TOTAL ATOMIC CHARGES:
   4.4932905   4.5062547   4.5068071   4.5080938   4.5064559   4.4923830
   0.8735284   0.8736284   0.8791444   0.8793790   0.8671245   0.8669527
   0.8684419   0.8681843   0.8726799   0.8736387   0.8794740   0.8791845
   5.9223598   6.1687492   6.1680720   6.1657190   6.1657069   5.9220099
   5.9336127   6.1697280   6.1699458   6.1727643   6.1717393   5.9323876
   5.9227129   6.1671337   6.1682745   6.1665549   6.1659414   5.9224884
   8.4884938   8.4875773   8.4890146   8.4867131   8.4867781   8.4908771
 TTTTTTTTTTTTTTTTTTTTTTTTTTTTTT MOQGAD      TELAPSE       76.02 TCPU     2095.82
 TTTTTTTTTTTTTTTTTTTTTTTTTTTTTT SHELLXN     TELAPSE       82.75 TCPU     2310.46
 +++ ENERGIES IN A.U. +++
 ::: EXT EL-POLE                                  -1.3379934369417E+03
 ::: EXT EL-SPHEROPOLE                             1.4670862521018E+01
 ::: BIELET ZONE E-E                               2.0710474552010E+03
 ::: TOTAL E-E                                     7.4772488078028E+02
 ::: TOTAL E-N + N-E                              -3.3243404123248E+03
 ::: TOTAL N-N                                     1.4130352920005E+02
 ::: KINETIC ENERGY                                1.2799143847386E+03
 ::: PSEUDO TOTAL   ENERGY                        -1.1553976176059E+03
 ::: VIRIAL COEFFICIENT                            1.0511296979659E+00
 TTTTTTTTTTTTTTTTTTTTTTTTTTTTTT MONMO3      TELAPSE       82.89 TCPU     2314.98
 NUMERICALLY INTEGRATED DENSITY    197.9999933832
 EXCHANGE ENERGY: -0.126023100778E+03  CORRELATION ENERGY: -0.769013183885E+01
 TTTTTTTTTTTTTTTTTTTTTTTTTTTTTT NUMDFT      TELAPSE       83.47 TCPU     2333.45
 CYC   8 ETOT(AU) -1.289110850222E+03 DETOT -2.59E-07 tst  5.95E-09 PX  3.14E-04

 == SCF ENDED - CONVERGENCE ON ENERGY      E(AU) -1.2891108502222E+03 CYCLES   8


 ENERGY EXPRESSION=HARTREE+FOCK EXCH*0.00000+(HSESOL     EXCH)*1.00000+PBESOL     CORR


 TOTAL ENERGY(DFT)(AU)(  8) -1.2891108502222E+03 DE-2.6E-07 tester 5.9E-09
 TTTTTTTTTTTTTTTTTTTTTTTTTTTTTT EDFT        TELAPSE       83.47 TCPU     2333.46
 
 INFORMATION **** DFTD3 ENERGY **** CALCULATE DFTD3 ENERGY

           DFT-D V3(BJ)
 DF                                         hsesol3c  
 parameters
 s6       :    1.0000
 s8       :    0.0000
 a1       :    0.5196
 a2       :    4.9385
 k1 k3    :   16.0000   -4.0000
 Cutoff   :   50.2022
 CN-Cutoff:   21.1671
 ABC-Cutoff:   21.1671
 
 Edisp /kcal,au:   -24.4650 -0.03898745

 E6    /kcal :   -25.8455
 E8    /kcal :     0.0000
 E6(ABC) "   :   1.380482
 
 INFORMATION **** DFTD3 ENERGY **** NORMAL TERMINATION OF DFTD3 MODULE

 GCP ENERGY CALCULATION
  level        hsesol3c            basis:hsesol3c
  Nbf            474
  Atoms           42

  Parameters: 
  sigma     1.0000
  eta       1.4281
  alpha     0.2936
  beta      1.9467

  dmp_scal      4.0000
  dmp_exp       6.0000
 cutoffs: 
   distance [bohr] 60.0
   noise    [a.u.] 2.2E-16
 SR-damping   T
 ** gCP correction **
  Egcp:        0.0829907377 / (a.u.) ||      52.0775 / (kcal/mol)
 INFORMATION **** GCP **** NORMAL TERMINATION OF GCP MODULE

 *******************************************************************************

 DFT-D3-GCP DISPERSION AND COUNTERPOISE CORRECTION

 D3 DISPERSION ENERGY (AU)      -3.8987447183538E-02
 GCP ENERGY (AU)                 8.2990737655931E-02
 TOTAL ENERGY + DISP + GCP (AU) -1.2890668469318E+03

 *******************************************************************************

 EIGENVECTORS IN FORTRAN UNIT  8
 TTTTTTTTTTTTTTTTTTTTTTTTTTTTTT END         TELAPSE       84.83 TCPU     2340.72
 EEEEEEEEEE TERMINATION  DATE 02 12 2025 TIME 08:03:58.2
