 Default number of threads is:           32

         
 *******************************************************************************
 *                                                                             *
 *                               CRYSTAL23                                     *
 *                      public : 1.0.1 - October 2022                          *
 *                       HTTP://WWW.CRYSTAL.UNITO.IT                           *
 *                                                                             *
 *                              MAIN AUTHORS                                   *
 *                                                                             *
 *  R. DOVESI(1,11), V.R. SAUNDERS(2), C. ROETTI(1,11), R. ORLANDO(1,11),      *
 *  C.M. ZICOVICH-WILSON(1,3), F. PASCALE(4), B. CIVALLERI(1,11),              *
 *  K. DOLL(5), N.M. HARRISON(6), I.J. BUSH(7), Ph. D'ARCO(8),                 *
 *  M. LLUNELL(9), M. CAUSA'(10), Y. NOEL(8), L. MASCHIO(1,11), A. ERBA(1,11)  *
 *  M. RE'RAT(14), S. CASASSA(1,11), B.G. SEARLE(2), J.K. DESMARAIS(1)         *
 *                                                                             *
 *        CONTRIBUTIONS TO THE CODE HAVE ALSO BEEN GIVEN BY                    *
 *                                                                             *
 *  M. FERRABONE(1,11), M. DE LA PIERRE(1,11), M. FERRERO(1,11),               *
 *  J. BAIMA(1,11), E. ALBANESE(1,11), M.F. PEINTINGER(12), R. BAST(13),       *
 *  B. KIRTMAN(15), V. LACIVITA(1,11), R. DEMICHELIS(1,16)                     *
 *  G. BRANDEBURG(17), S. SALUSTRO(1,11), G. SANSONE(1,11)                     *
 *  M.T. RUGGIERO(18), L.E. DAGA(1), L. DONA'(1), A. COSSARD(1)                *
 *                                                                             *
 * (1) THEORETICAL CHEMISTRY GROUP - UNIVERSITA' DI TORINO - TORINO (ITALY)    *
 * (2) SCIENTIFIC COMPUTING DEPARTMENT - STFC DARESBURY (UK)                   *
 * (3) UNIVERSIDAD AUTONOMA DEL ESTADO DE MORELOS - CUERNAVACA (MEXICO)        *
 * (4) UNIVERSITE' DE LORRAINE - NANCY (FRANCE)                                *
 * (5) UNIVERSITAET STUTTGART- STUTTGART (GERMANY)                             *
 * (6) IMPERIAL COLLEGE - LONDON (UK)                                          *
 * (7) SCIENTIFIC COMPUTING DEPARTMENT - STFC RAL (UK)                         *
 * (8) UPMC - SORBONNE UNIVERSITES - PARIS (FRANCE)                            *
 * (9) UNIVERSIDAD DE BARCELONA - BARCELONA (SPAIN)                            *
 *(10) UNIVERSITA' DI NAPOLI "FEDERICO II" - NAPOLI (ITALY)                    *
 *(11) NIS - NANOSTRUCTURED INTERFACES AND SURFACES - TORINO (ITALY)           *
 *(12) MPI FUER CHEMISCHE ENERGIEKONVERSION - MUELHEIM AN DER RUHR (GERMANY)   *
 *(13) UNIVERSITY OF TROMSO - TROMSO (NORWAY)                                  *
 *(14) UNIVERSITE' DE PAU ET DES PAYS DE L'ADOUR - PAU (FRANCE)                *
 *(15) UNIVERSITY OF CALIFORNIA SANTA BARBARA - SANTA BARBARA (USA)            *
 *(16) CURTIN UNIVERSITY - PERTH (AUSTRALIA)                                   *
 *(17) UNIVERSITY COLLEGE LONDON - LONDON (UK)                                 *
 *(18) UNIVERSITY OF VERMONT - BURLINGTON (USA)                                *
 *                                                                             *
 *******************************************************************************
 EEEEEEEEEE STARTING  DATE 19 02 2026 TIME 18:47:27.5
 cof-1_z37_L010_incl                                                             

 CRYSTAL CALCULATION
 (INPUT ACCORDING TO THE INTERNATIONAL TABLES FOR X-RAY CRYSTALLOGRAPHY)
 CRYSTAL FAMILY                       :  TRICLINIC   
 CRYSTAL CLASS  (GROTH - 1921)        :  TRICLINIC PEDIAL                     

 SPACE GROUP (NONCENTROSYMMETRIC)     :  P 1             

 LATTICE PARAMETERS  (ANGSTROMS AND DEGREES) - CONVENTIONAL CELL
        A           B           C        ALPHA        BETA       GAMMA
    15.02361    15.02392     3.83275    76.94080    89.99995   119.99596


 NUMBER OF IRREDUCIBLE ATOMS IN THE CONVENTIONAL CELL:   42

 INPUT COORDINATES

 ATOM AT. N.              COORDINATES
   1   5     5.944193300000E-01  1.887918800000E-01  5.012902100000E-01
   2   5     7.534749900000E-01  3.478515400000E-01  5.012902200000E-01
   3   5     5.945193500000E-01  3.480429400000E-01  4.985758400000E-01
   4   5     2.079940400000E-01  5.751068800000E-01  5.012902200000E-01
   5   5     3.671020100000E-01  5.750861100000E-01  5.012902100000E-01
   6   5     3.671865800000E-01  7.344339200000E-01  4.985758500000E-01
   7   1     8.839986300000E-01  2.708362000000E-01  4.956627800000E-01
   8   1     7.762261000000E-02  6.530257300000E-01  4.948022500000E-01
   9   1     8.839645800000E-01  5.560549000000E-01  4.946698100000E-01
  10   1     7.772808000000E-02  3.676648700000E-01  4.947028400000E-01
  11   1     6.716541700000E-01  5.824372000000E-02  5.043356600000E-01
  12   1     2.895184200000E-01  8.646107700000E-01  5.051962400000E-01
  13   1     3.864536000000E-01  5.821326000000E-02  5.053287700000E-01
  14   1     5.748971000000E-01  8.645131500000E-01  5.052955100000E-01
  15   1     6.720277500000E-01  5.559603600000E-01  4.956628300000E-01
  16   1     2.899499100000E-01  3.675816200000E-01  4.948022000000E-01
  17   1     3.868337400000E-01  2.708057200000E-01  4.946697100000E-01
  18   1     5.752827700000E-01  6.529378500000E-01  4.947029500000E-01
  19   6     8.727372100000E-01  4.076335900000E-01  4.984765300000E-01
  20   6     9.274390300000E-01  3.546816000000E-01  4.957952100000E-01
  21   6     3.434694000000E-02  5.690990800000E-01  4.955635800000E-01
  22   6     9.273842200000E-01  5.155525400000E-01  4.962587100000E-01
  23   6     3.442714000000E-02  4.082477000000E-01  4.944711300000E-01
  24   6     8.896673000000E-02  5.158934400000E-01  4.962917800000E-01
  25   6     5.347693000000E-01  6.962431000000E-02  5.015219500000E-01
  26   6     5.878047100000E-01  1.480572000000E-02  5.042032100000E-01
  27   6     3.734166300000E-01  9.078951300000E-01  5.044349300000E-01
  28   6     4.269322500000E-01  1.488826000000E-02  5.037398100000E-01
  29   6     5.342928400000E-01  9.077715800000E-01  5.055272700000E-01
  30   6     4.265738500000E-01  8.532800000000E-01  5.037066700000E-01
  31   6     5.348917700000E-01  4.075644500000E-01  4.984765200000E-01
  32   6     5.881601400000E-01  5.155217500000E-01  4.957952700000E-01
  33   6     3.737822000000E-01  4.080858100000E-01  4.955635300000E-01
  34   6     4.272193800000E-01  3.545503500000E-01  4.962586400000E-01
  35   6     5.347437600000E-01  5.690957300000E-01  4.944712000000E-01
  36   6     4.268908200000E-01  5.158160400000E-01  4.962917800000E-01
  37   8     5.415517800000E-01  2.419969300000E-01  4.993040800000E-01
  38   8     7.002767600000E-01  2.415645100000E-01  5.050307400000E-01
  39   8     7.006064500000E-01  4.011736400000E-01  4.963911100000E-01
  40   8     2.611396100000E-01  6.812774100000E-01  4.993041100000E-01
  41   8     2.609390300000E-01  5.218817900000E-01  5.050307400000E-01
  42   8     4.201908700000E-01  6.814856000000E-01  4.963910900000E-01

 *******************************************************************************

 << INFORMATION >>: FROM NOW ON, ALL COORDINATES REFER TO THE PRIMITIVE CELL

 *******************************************************************************

 LATTICE PARAMETERS  (ANGSTROMS AND DEGREES) - PRIMITIVE CELL
       A          B          C        ALPHA      BETA     GAMMA        VOLUME
   15.02361   15.02392    3.83275    76.94080  89.99995 119.99596    723.282967

 COORDINATES OF THE EQUIVALENT ATOMS (FRACTIONAL UNITS)

 N. ATOM EQUIV AT. N.          X                  Y                  Z

   1   1   1    5 B    -4.05580670000E-01  1.88791880000E-01 -4.98709790000E-01

   2   2   1    5 B    -2.46525010000E-01  3.47851540000E-01 -4.98709780000E-01

   3   3   1    5 B    -4.05480650000E-01  3.48042940000E-01  4.98575840000E-01

   4   4   1    5 B     2.07994040000E-01 -4.24893120000E-01 -4.98709780000E-01

   5   5   1    5 B     3.67102010000E-01 -4.24913890000E-01 -4.98709790000E-01

   6   6   1    5 B     3.67186580000E-01 -2.65566080000E-01  4.98575850000E-01

   7   7   1    1 H    -1.16001370000E-01  2.70836200000E-01  4.95662780000E-01

   8   8   1    1 H     7.76226100000E-02 -3.46974270000E-01  4.94802250000E-01

   9   9   1    1 H    -1.16035420000E-01 -4.43945100000E-01  4.94669810000E-01

  10  10   1    1 H     7.77280800000E-02  3.67664870000E-01  4.94702840000E-01

  11  11   1    1 H    -3.28345830000E-01  5.82437200000E-02 -4.95664340000E-01

  12  12   1    1 H     2.89518420000E-01 -1.35389230000E-01 -4.94803760000E-01

  13  13   1    1 H     3.86453600000E-01  5.82132600000E-02 -4.94671230000E-01

  14  14   1    1 H    -4.25102900000E-01 -1.35486850000E-01 -4.94704490000E-01

  15  15   1    1 H    -3.27972250000E-01 -4.44039640000E-01  4.95662830000E-01

  16  16   1    1 H     2.89949910000E-01  3.67581620000E-01  4.94802200000E-01

  17  17   1    1 H     3.86833740000E-01  2.70805720000E-01  4.94669710000E-01

  18  18   1    1 H    -4.24717230000E-01 -3.47062150000E-01  4.94702950000E-01

  19  19   1    6 C    -1.27262790000E-01  4.07633590000E-01  4.98476530000E-01

  20  20   1    6 C    -7.25609700000E-02  3.54681600000E-01  4.95795210000E-01

  21  21   1    6 C     3.43469400000E-02 -4.30900920000E-01  4.95563580000E-01

  22  22   1    6 C    -7.26157800000E-02 -4.84447460000E-01  4.96258710000E-01

  23  23   1    6 C     3.44271400000E-02  4.08247700000E-01  4.94471130000E-01

  24  24   1    6 C     8.89667300000E-02 -4.84106560000E-01  4.96291780000E-01

  25  25   1    6 C    -4.65230700000E-01  6.96243100000E-02 -4.98478050000E-01

  26  26   1    6 C    -4.12195290000E-01  1.48057200000E-02 -4.95796790000E-01

  27  27   1    6 C     3.73416630000E-01 -9.21048700000E-02 -4.95565070000E-01

  28  28   1    6 C     4.26932250000E-01  1.48882600000E-02 -4.96260190000E-01

  29  29   1    6 C    -4.65707160000E-01 -9.22284200000E-02 -4.94472730000E-01

  30  30   1    6 C     4.26573850000E-01 -1.46720000000E-01 -4.96293330000E-01

  31  31   1    6 C    -4.65108230000E-01  4.07564450000E-01  4.98476520000E-01

  32  32   1    6 C    -4.11839860000E-01 -4.84478250000E-01  4.95795270000E-01

  33  33   1    6 C     3.73782200000E-01  4.08085810000E-01  4.95563530000E-01

  34  34   1    6 C     4.27219380000E-01  3.54550350000E-01  4.96258640000E-01

  35  35   1    6 C    -4.65256240000E-01 -4.30904270000E-01  4.94471200000E-01

  36  36   1    6 C     4.26890820000E-01 -4.84183960000E-01  4.96291780000E-01

  37  37   1    8 O    -4.58448220000E-01  2.41996930000E-01  4.99304080000E-01

  38  38   1    8 O    -2.99723240000E-01  2.41564510000E-01 -4.94969260000E-01

  39  39   1    8 O    -2.99393550000E-01  4.01173640000E-01  4.96391110000E-01

  40  40   1    8 O     2.61139610000E-01 -3.18722590000E-01  4.99304110000E-01

  41  41   1    8 O     2.60939030000E-01 -4.78118210000E-01 -4.94969260000E-01

  42  42   1    8 O     4.20190870000E-01 -3.18514400000E-01  4.96391090000E-01

 NUMBER OF SYMMETRY OPERATORS         :    1
 *******************************************************************************
 * GEOMETRY EDITING - INPUT COORDINATES ARE GIVEN IN ANGSTROM         
 *******************************************************************************

 GCALCO - MAX INDICES DIRECT LATTICE VECTOR     9    10    34
 NO.OF VECTORS CREATED 6999 STARS 3500 RMAX   200.98070 BOHR

 GEOMETRY FOR WAVE FUNCTION - DIMENSIONALITY OF THE SYSTEM    3
 (NON PERIODIC DIRECTION: LATTICE PARAMETER FORMALLY SET TO 500)
 *******************************************************************************
 LATTICE PARAMETERS (ANGSTROMS AND DEGREES) - BOHR = 0.5291772083 ANGSTROM
 PRIMITIVE CELL - CENTRING CODE 1/0 VOLUME=   723.282967 - DENSITY  0.896 g/cm^3
         A              B              C           ALPHA      BETA       GAMMA 
    15.02361100    15.02391600     3.83275400    76.940805  89.999946 119.995964
 *******************************************************************************
 ATOMS IN THE ASYMMETRIC UNIT   42 - ATOMS IN THE UNIT CELL:   42
     ATOM                 X/A                 Y/B                 Z/C    
 *******************************************************************************
      1 T   5 B    -4.055806700000E-01  1.887918800000E-01 -4.987097900000E-01
      2 T   5 B    -2.465250100000E-01  3.478515400000E-01 -4.987097800000E-01
      3 T   5 B    -4.054806500000E-01  3.480429400000E-01  4.985758400000E-01
      4 T   5 B     2.079940400000E-01 -4.248931200000E-01 -4.987097800000E-01
      5 T   5 B     3.671020100000E-01 -4.249138900000E-01 -4.987097900000E-01
      6 T   5 B     3.671865800000E-01 -2.655660800000E-01  4.985758500000E-01
      7 T   1 H    -1.160013700000E-01  2.708362000000E-01  4.956627800000E-01
      8 T   1 H     7.762261000000E-02 -3.469742700000E-01  4.948022500000E-01
      9 T   1 H    -1.160354200000E-01 -4.439451000000E-01  4.946698100000E-01
     10 T   1 H     7.772808000000E-02  3.676648700000E-01  4.947028400000E-01
     11 T   1 H    -3.283458300000E-01  5.824372000000E-02 -4.956643400000E-01
     12 T   1 H     2.895184200000E-01 -1.353892300000E-01 -4.948037600000E-01
     13 T   1 H     3.864536000000E-01  5.821326000000E-02 -4.946712300000E-01
     14 T   1 H    -4.251029000000E-01 -1.354868500000E-01 -4.947044900000E-01
     15 T   1 H    -3.279722500000E-01 -4.440396400000E-01  4.956628300000E-01
     16 T   1 H     2.899499100000E-01  3.675816200000E-01  4.948022000000E-01
     17 T   1 H     3.868337400000E-01  2.708057200000E-01  4.946697100000E-01
     18 T   1 H    -4.247172300000E-01 -3.470621500000E-01  4.947029500000E-01
     19 T   6 C    -1.272627900000E-01  4.076335900000E-01  4.984765300000E-01
     20 T   6 C    -7.256097000000E-02  3.546816000000E-01  4.957952100000E-01
     21 T   6 C     3.434694000000E-02 -4.309009200000E-01  4.955635800000E-01
     22 T   6 C    -7.261578000000E-02 -4.844474600000E-01  4.962587100000E-01
     23 T   6 C     3.442714000000E-02  4.082477000000E-01  4.944711300000E-01
     24 T   6 C     8.896673000000E-02 -4.841065600000E-01  4.962917800000E-01
     25 T   6 C    -4.652307000000E-01  6.962431000000E-02 -4.984780500000E-01
     26 T   6 C    -4.121952900000E-01  1.480572000000E-02 -4.957967900000E-01
     27 T   6 C     3.734166300000E-01 -9.210487000000E-02 -4.955650700000E-01
     28 T   6 C     4.269322500000E-01  1.488826000000E-02 -4.962601900000E-01
     29 T   6 C    -4.657071600000E-01 -9.222842000000E-02 -4.944727300000E-01
     30 T   6 C     4.265738500000E-01 -1.467200000000E-01 -4.962933300000E-01
     31 T   6 C    -4.651082300000E-01  4.075644500000E-01  4.984765200000E-01
     32 T   6 C    -4.118398600000E-01 -4.844782500000E-01  4.957952700000E-01
     33 T   6 C     3.737822000000E-01  4.080858100000E-01  4.955635300000E-01
     34 T   6 C     4.272193800000E-01  3.545503500000E-01  4.962586400000E-01
     35 T   6 C    -4.652562400000E-01 -4.309042700000E-01  4.944712000000E-01
     36 T   6 C     4.268908200000E-01 -4.841839600000E-01  4.962917800000E-01
     37 T   8 O    -4.584482200000E-01  2.419969300000E-01  4.993040800000E-01
     38 T   8 O    -2.997232400000E-01  2.415645100000E-01 -4.949692600000E-01
     39 T   8 O    -2.993935500000E-01  4.011736400000E-01  4.963911100000E-01
     40 T   8 O     2.611396100000E-01 -3.187225900000E-01  4.993041100000E-01
     41 T   8 O     2.609390300000E-01 -4.781182100000E-01 -4.949692600000E-01
     42 T   8 O     4.201908700000E-01 -3.185144000000E-01  4.963910900000E-01

 T = ATOM BELONGING TO THE ASYMMETRIC UNIT

 ****    1 SYMMOPS - TRANSLATORS IN FRACTIONAL UNITS
 **** MATRICES AND TRANSLATORS IN THE CRYSTALLOGRAPHIC REFERENCE FRAME
   V INV                    ROTATION MATRICES                   TRANSLATORS
   1   1  1.00  0.00  0.00  0.00  1.00  0.00 -0.00 -0.00  1.00  0.00  0.00  0.00

 DIRECT LATTICE VECTORS CARTESIAN COMPONENTS (ANGSTROM)
          X                    Y                    Z
   0.130113578931E+02  -0.751088897922E+01   0.000000000000E+00
   0.000000000000E+00   0.150239160000E+02   0.000000000000E+00
   0.499931205684E+00   0.866039903863E+00   0.370000633770E+01


 CARTESIAN COORDINATES - PRIMITIVE CELL
 *******************************************************************************
 *      ATOM          X(ANGSTROM)         Y(ANGSTROM)         Z(ANGSTROM)
 *******************************************************************************
    1     5 B    -5.526475838477E+00  5.450762152501E+00 -1.845229383673E+00
    2     5 B    -3.456945716301E+00  6.645811728214E+00 -1.845229346673E+00
    3     5 B     7.484826452329E+00  3.293457297859E-01 -1.855272569876E+00
    4     5 B     2.456964312461E+00  6.646234743436E+00 -1.845229346673E+00
    5     5 B     4.527175048769E+00  5.450880389662E+00 -1.845229383673E+00
    6     5 B     5.026849631723E+00 -6.315953534205E+00  1.844733804824E+00
    7     1 H    -1.761469255621E+00  4.503517572543E+00 -1.866050910338E+00
    8     1 H     1.257342644721E+00 -5.367408599607E+00  1.830771460908E+00
    9     1 H    -1.262477503362E+00 -5.369860939038E+00  1.830281432069E+00
   10     1 H     7.587340487926E-01  4.502351639714E+00 -1.869602694421E+00
   11     1 H    -4.520023177934E+00  2.911952735364E+00 -1.833961199372E+00
   12     1 H     4.019591144623E+00 -3.771097025761E+00  1.869229289782E+00
   13     1 H     4.780984514229E+00 -2.456423981366E+00 -1.830286686078E+00
   14     1 H    -5.278552979735E+00  1.594963708041E+00  1.869596589411E+00
   15     1 H    -4.019567007526E+00 -3.778587304375E+00  1.833955612362E+00
   16     1 H     3.520077904807E+00  2.907212344336E+00 -1.869235061792E+00
   17     1 H     4.780601855101E+00  7.254609192735E-01 -1.869725275631E+00
   18     1 H    -5.278830440629E+00 -1.595796131030E+00  1.830404050279E+00
   19     6 C    -1.906588940195E+00  6.645770164070E+00 -1.855640017505E+00
   20     6 C    -1.196184458314E+00  5.437042487181E+00 -1.865560918498E+00
   21     6 C     6.946480269138E-01 -6.302617444337E+00  1.833588386733E+00
   22     6 C    -6.967346870419E-01 -6.303109038234E+00  1.836160372139E+00
   23     6 C     1.952141822872E-01  5.437092551606E+00 -1.870460022890E+00
   24     6 C     9.057585068674E-01  6.646289057213E+00 -1.863723606351E+00
   25     6 C     6.708870019976E+00 -3.402264939295E+00 -1.844371944204E+00
   26     6 C    -5.611084727021E+00  2.889013150198E+00 -1.834451265211E+00
   27     6 C     5.110840178893E+00 -3.751605902711E+00  1.866412437957E+00
   28     6 C     5.306872345718E+00 -3.412741891010E+00 -1.836165848148E+00
   29     6 C    -5.806753674522E+00  2.550049529005E+00  1.870454102880E+00
   30     6 C     5.802123713013E+00 -4.972027708245E+00  1.863717871341E+00
   31     6 C     6.708941015485E+00  1.671362014615E+00 -1.855640054505E+00
   32     6 C    -5.110732285983E+00 -3.756098578184E+00  1.834445641201E+00
   33     6 C     4.611230445616E+00  2.886748211641E+00 -1.866418135967E+00
   34     6 C     5.306868226572E+00  1.681677224234E+00 -1.863846224561E+00
   35     6 C    -5.806413867426E+00 -2.551149800482E+00  1.829546573810E+00
   36     6 C     5.302609782543E+00  4.107015882722E+00 -1.863723606351E+00
   37     8 O     6.796010512235E+00 -8.654163939208E-01 -1.852578077260E+00
   38     8 O    -4.147256923435E+00  5.451769756606E+00 -1.831389398966E+00
   39     8 O    -3.647355223810E+00 -6.318110706899E+00  1.836650252978E+00
   40     8 O     3.647398631479E+00 -6.317434754825E+00  1.847428371439E+00
   41     8 O     3.147720528669E+00  5.452160959869E+00 -1.831389398966E+00
   42     8 O    -7.295942703977E+00 -5.570939620401E-04  1.836650178977E+00

 *******************************************************************************
 STARTING BASIS SET HANDLING 
 *******************************************************************************

 Loading internal basis set: SOLDEF2MSVP         

 Please cite in your publication:
 L. Dona', J. G. Brandenburg and B. Civalleri, J. Chem. Phys., 151, 121101 (2019
 )                                                                              
                                                                                
                    

 *******************************************************************************
 LOCAL ATOMIC FUNCTIONS BASIS SET
 *******************************************************************************
   ATOM   X(AU)   Y(AU)   Z(AU)  N. TYPE  EXPONENT  S COEF   P COEF   D/F/G COEF
 *******************************************************************************
   1 B  -10.444  10.300  -3.487
                                  1 S  
                                         2.410E+03 1.755E-03 0.000E+00 0.000E+00
                                         3.619E+02 1.344E-02 0.000E+00 0.000E+00
                                         8.231E+01 6.637E-02 0.000E+00 0.000E+00
                                         2.311E+01 2.303E-01 0.000E+00 0.000E+00
                                         7.252E+00 5.150E-01 0.000E+00 0.000E+00
                                  2 S  
                                         2.367E+00 1.000E+00 0.000E+00 0.000E+00
                                  3 S  
                                         5.533E-01 1.000E+00 0.000E+00 0.000E+00
                                  4 S  
                                         1.716E-01 1.000E+00 0.000E+00 0.000E+00
                           5-     7 P  
                                         6.002E+00 0.000E+00-3.555E-02 0.000E+00
                                         1.240E+00 0.000E+00-1.983E-01 0.000E+00
                                         3.367E-01 0.000E+00-5.048E-01 0.000E+00
                           8-    10 P  
                                         1.256E-01 0.000E+00 1.000E+00 0.000E+00
                          11-    15 D  
                                         8.880E-01 0.000E+00 0.000E+00 1.000E+00
   2 B   -6.533  12.559  -3.487
   3 B   14.144   0.622  -3.506
   4 B    4.643  12.560  -3.487
   5 B    8.555  10.301  -3.487
   6 B    9.499 -11.935   3.486
   7 H   -3.329   8.510  -3.526
                                 91 S  
                                         1.874E+01 1.968E-02 0.000E+00 0.000E+00
                                         2.826E+00 1.380E-01 0.000E+00 0.000E+00
                                         6.401E-01 4.783E-01 0.000E+00 0.000E+00
                                 92 S  
                                         1.756E-01 1.000E+00 0.000E+00 0.000E+00
   8 H    2.376 -10.143   3.460
   9 H   -2.386 -10.148   3.459
  10 H    1.434   8.508  -3.533
  11 H   -8.542   5.503  -3.466
  12 H    7.596  -7.126   3.532
  13 H    9.035  -4.642  -3.459
  14 H   -9.975   3.014   3.533
  15 H   -7.596  -7.140   3.466
  16 H    6.652   5.494  -3.532
  17 H    9.034   1.371  -3.533
  18 H   -9.976  -3.016   3.459
  19 C   -3.603  12.559  -3.507
                                115 S  
                                         3.624E+03 1.634E-03 0.000E+00 0.000E+00
                                         5.440E+02 1.252E-02 0.000E+00 0.000E+00
                                         1.237E+02 6.211E-02 0.000E+00 0.000E+00
                                         3.476E+01 2.182E-01 0.000E+00 0.000E+00
                                         1.093E+01 4.980E-01 0.000E+00 0.000E+00
                                116 S  
                                         3.574E+00 1.000E+00 0.000E+00 0.000E+00
                                117 S  
                                         7.742E-01 1.000E+00 0.000E+00 0.000E+00
                                118 S  
                                         2.330E-01 1.000E+00 0.000E+00 0.000E+00
                         119-   121 P  
                                         9.443E+00 0.000E+00 3.790E-02 0.000E+00
                                         2.002E+00 0.000E+00 2.082E-01 0.000E+00
                                         5.463E-01 0.000E+00 5.047E-01 0.000E+00
                         122-   124 P  
                                         1.820E-01 0.000E+00 1.000E+00 0.000E+00
                         125-   129 D  
                                         8.880E-01 0.000E+00 0.000E+00 1.000E+00
  20 C   -2.260  10.275  -3.525
  21 C    1.313 -11.910   3.465
  22 C   -1.317 -11.911   3.470
  23 C    0.369  10.275  -3.535
  24 C    1.712  12.560  -3.522
  25 C   12.678  -6.429  -3.485
  26 C  -10.603   5.459  -3.467
  27 C    9.658  -7.090   3.527
  28 C   10.029  -6.449  -3.470
  29 C  -10.973   4.819   3.535
  30 C   10.964  -9.396   3.522
  31 C   12.678   3.158  -3.507
  32 C   -9.658  -7.098   3.467
  33 C    8.714   5.455  -3.527
  34 C   10.029   3.178  -3.522
  35 C  -10.973  -4.821   3.457
  36 C   10.020   7.761  -3.522
  37 O   12.843  -1.635  -3.501
                                385 S  
                                         6.773E+03 1.727E-03 0.000E+00 0.000E+00
                                         1.017E+03 1.325E-02 0.000E+00 0.000E+00
                                         2.313E+02 6.603E-02 0.000E+00 0.000E+00
                                         6.501E+01 2.353E-01 0.000E+00 0.000E+00
                                         2.050E+01 5.498E-01 0.000E+00 0.000E+00
                                386 S  
                                         6.716E+00 1.000E+00 0.000E+00 0.000E+00
                                387 S  
                                         1.147E+00 1.000E+00 0.000E+00 0.000E+00
                                388 S  
                                         3.342E-01 1.000E+00 0.000E+00 0.000E+00
                         389-   391 P  
                                         1.769E+01 0.000E+00 4.359E-02 0.000E+00
                                         3.854E+00 0.000E+00 2.318E-01 0.000E+00
                                         1.047E+00 0.000E+00 5.146E-01 0.000E+00
                         392-   394 P  
                                         2.759E-01 0.000E+00 1.000E+00 0.000E+00
                         395-   399 D  
                                         8.000E-01 0.000E+00 0.000E+00 1.000E+00
  38 O   -7.837  10.302  -3.461
  39 O   -6.893 -11.939   3.471
  40 O    6.893 -11.938   3.491
  41 O    5.948  10.303  -3.461
  42 O  -13.787  -0.001   3.471

 *******************************************************************************
 FINISHED BASIS SET HANDLING 
 *******************************************************************************

 INFORMATION **** SET_MPP **** PCRYSTAL CALCULATION
 INFORMATION **** READM2 **** NEW DEFAULT: FOCK/KS MATRIX MIXING SET TO 30 %
 INFORMATION **** READM2 **** NEW DEFAULT: FULL DIRECT SCF MODE
 INFORMATION **** READM2 **** NEW DEFAULT: COULOMB BIPOLAR BUFFER SET TO 32 Mb
 INFORMATION **** READM2 **** NEW DEFAULT: EXCHANGE BIPOLAR BUFFER SET TO 32 Mb

 *******************************************************************************
 NEW DEFAULT: DFT INTEGRATION GRID INCREASED TO XLGRID
 NEW DEFAULT: DIIS ACCELERATOR ACTIVE
 USE KEYWORD NODIIS TO TURN IT OFF
 *******************************************************************************

 WARNING **** RDDFTP **** HSEsol-HJS ACTIVE
 RANGE SEPARATION - OMEGA:   0.110000000000000     
 WARNING **** RDDFTP **** HSEsol-3c has to be combined with sol-def2-mSVP basis set
 *******************************************************************************
 N. OF ATOMS PER CELL        42  COULOMB OVERLAP TOL         (T1) 10**   -6
 NUMBER OF SHELLS           234  COULOMB PENETRATION TOL     (T2) 10**   -6
 NUMBER OF AO               474  EXCHANGE OVERLAP TOL        (T3) 10**   -6
 N. OF ELECTRONS PER CELL   198  EXCHANGE PSEUDO OVP (F(G))  (T4) 10**   -6
 CORE ELECTRONS PER CELL     60  EXCHANGE PSEUDO OVP (P(G))  (T5) 10**  -12
 N. OF SYMMETRY OPERATORS     1  POLE ORDER IN MONO ZONE                  4
 *******************************************************************************
 TYPE OF CALCULATION :  RESTRICTED CLOSED SHELL
 KOHN-SHAM HAMILTONIAN

 (EXCHANGE)[CORRELATION] FUNCTIONAL:(HSEsol GGA)[PBEsol]

 RANGE-SEPARATED HYBRID FUNCTIONAL 
 OMEGA (SHORT-RANGE)[LONG-RANGE]:(    0.1100)[    0.0000]

 HYBRID EXCHANGE - PERCENTAGE OF FOCK EXCHANGE    25.0000

 CAPPA:IS1  2;IS2  2;IS3  8; K PTS MONK NET  20; SYMMOPS:K SPACE   2;G SPACE   1

 *******************************************************************************
 MAX NUMBER OF SCF CYCLES      50  CONVERGENCE ON DELTAP        10**-16
 WEIGHT OF F(I) IN F(I+1)      30% CONVERGENCE ON ENERGY        10**- 6
 SHRINK. FACT.(MONKH.)    2  2  8  NUMBER OF K POINTS IN THE IBZ     20
 SHRINKING FACTOR(GILAT NET)    8  NUMBER OF K POINTS(GILAT NET)   1028
 *******************************************************************************
 *** K POINTS COORDINATES (OBLIQUE COORDINATES IN UNITS OF IS =  2)
   1-R(  0  0  0)   2-R(  1  0  0)   3-R(  0  1  0)   4-R(  1  1  0)
   5-C(  0  0  1)   6-C(  1  0  1)   7-C(  0  1  1)   8-C(  1  1  1)
   9-C(  0  0  2)  10-C(  1  0  2)  11-C(  0  1  2)  12-C(  1  1  2)
  13-C(  0  0  3)  14-C(  1  0  3)  15-C(  0  1  3)  16-C(  1  1  3)
  17-R(  0  0  4)  18-R(  1  0  4)  19-R(  0  1  4)  20-R(  1  1  4)

 DIRECT LATTICE VECTORS COMPON. (A.U.)     RECIP. LATTICE VECTORS COMPON. (A.U.) 
        X            Y            Z              X            Y            Z
   24.5879030  -14.1935232    0.0000000      0.2555397    0.0000000   -0.0345276
    0.0000000   28.3910867    0.0000000      0.1277517    0.2213084   -0.0690618
    0.9447331    1.6365782    6.9919987      0.0000000    0.0000000    0.8986251

 DISK SPACE FOR EIGENVECTORS (FTN 10)     7189632 REALS

 SYMMETRY ADAPTION OF THE BLOCH FUNCTIONS DISABLED
 TTTTTTTTTTTTTTTTTTTTTTTTTTTTTT gordsh1     TELAPSE        0.04 TCPU        0.04

 MATRIX SIZE: P(G)  360840, F(G)   75497, P(G) IRR  182757, F(G) IRR   76229
 MAX G-VECTOR INDEX FOR 1- AND 2-ELECTRON INTEGRALS  97

 TTTTTTTTTTTTTTTTTTTTTTTTTTTTTT INPUT       TELAPSE        0.29 TCPU        0.29

 NEIGHBORS OF THE NON-EQUIVALENT ATOMS

 N = NUMBER OF NEIGHBORS AT DISTANCE R
    ATOM  N     R/ANG      R/AU   NEIGHBORS (ATOM LABELS AND CELL INDICES)
   1 B    1     1.3791     2.6061   37 O   -1 0 0
   1 B    1     1.3793     2.6065   38 O    0 0 0
   1 B    1     1.5503     2.9297   25 C   -1 0 0
   1 B    1     2.3895     4.5155    3 B   -1 0 0
   1 B    1     2.3898     4.5160    2 B    0 0 0
   1 B    1     2.5632     4.8437   26 C    0 0 0

   2 B    1     1.3793     2.6065   39 O    0 1-1
   2 B    1     1.3793     2.6065   38 O    0 0 0
   2 B    1     1.5504     2.9298   19 C    0 0 0
   2 B    1     2.3895     4.5156    3 B   -1 0 0
   2 B    1     2.3898     4.5160    1 B    0 0 0
   2 B    1     2.5634     4.8440   22 C    0 1-1

   3 B    1     1.3791     2.6061   37 O    0 0 0
   3 B    1     1.3793     2.6064   39 O    1 1-1
   3 B    1     1.5502     2.9294   31 C    0 0 0
   3 B    1     2.3895     4.5155    1 B    1 0 0
   3 B    1     2.3895     4.5156    2 B    1 0 0
   3 B    1     2.5629     4.8433   32 C    1 1-1

   4 B    1     1.3795     2.6068   40 O    0 1-1
   4 B    1     1.3795     2.6070   41 O    0 0 0
   4 B    1     1.5513     2.9316   24 C    0 0 0
   4 B    1     2.3905     4.5174    6 B    0 1-1
   4 B    1     2.3905     4.5175    5 B    0 0 0
   4 B    1     2.5648     4.8468   23 C    0 0 0

   5 B    1     1.3795     2.6069   41 O    0 0 0
   5 B    1     1.3797     2.6072   42 O    1 1-1
   5 B    1     1.5516     2.9322   36 C    0 0 0
   5 B    1     2.3905     4.5175    4 B    0 0 0
   5 B    1     2.3911     4.5185    6 B    0 1-1
   5 B    1     2.5651     4.8473   35 C    1 1-1

   6 B    1     1.3795     2.6068   40 O    0 0 0
   6 B    1     1.3796     2.6071   42 O    1 0 0
   6 B    1     1.5516     2.9322   30 C    0 0 0
   6 B    1     2.3905     4.5174    4 B    0-1 1
   6 B    1     2.3911     4.5185    5 B    0-1 1
   6 B    1     2.5651     4.8473   29 C    1 0 0

   7 H    1     1.0913     2.0623   20 C    0 0 0
   7 H    1     2.1472     4.0576   19 C    0 0 0
   7 H    1     2.1680     4.0969   23 C    0 0 0
   7 H    1     2.5202     4.7625   10 H    0 0 0
   7 H    1     2.5676     4.8520   38 O    0 0 0
   7 H    1     2.7321     5.1630    2 B    0 0 0

   8 H    1     1.0914     2.0625   21 C    0 0 0
   8 H    1     2.1493     4.0616   24 C    0-1 1
   8 H    1     2.1666     4.0942   22 C    0 0 0
   8 H    1     2.5198     4.7618    9 H    0 0 0
   8 H    1     2.5720     4.8604   40 O    0 0 0
   8 H    1     2.7362     5.1707    4 B    0-1 1

   9 H    1     1.0914     2.0624   22 C    0 0 0
   9 H    1     2.1471     4.0575   19 C    0-1 1
   9 H    1     2.1680     4.0970   21 C    0 0 0
   9 H    1     2.5198     4.7618    8 H    0 0 0
   9 H    1     2.5665     4.8500   39 O    0 0 0
   9 H    1     2.7315     5.1618    2 B    0-1 1

  10 H    1     1.0915     2.0626   23 C    0 0 0
  10 H    1     2.1490     4.0610   24 C    0 0 0
  10 H    1     2.1669     4.0948   20 C    0 0 0
  10 H    1     2.5202     4.7625    7 H    0 0 0
  10 H    1     2.5712     4.8588   41 O    0 0 0
  10 H    1     2.7351     5.1686    4 B    0 0 0

  11 H    1     1.0913     2.0623   26 C    0 0 0
  11 H    1     2.1469     4.0571   25 C   -1 0 0
  11 H    1     2.1680     4.0968   29 C    0 0-1
  11 H    1     2.5198     4.7617   14 H    0 0-1
  11 H    1     2.5670     4.8510   38 O    0 0 0
  11 H    1     2.7310     5.1609    1 B    0 0 0

  12 H    1     1.0914     2.0625   27 C    0 0 0
  12 H    1     2.1493     4.0617   30 C    0 0 0
  12 H    1     2.1664     4.0939   28 C    0 0 1
  12 H    1     2.5192     4.7606   13 H    0 0 1
  12 H    1     2.5735     4.8632   40 O    0 0 0
  12 H    1     2.7371     5.1723    6 B    0 0 0

  13 H    1     1.0914     2.0624   28 C    0 0 0
  13 H    1     2.1475     4.0581   25 C    0 0 0
  13 H    1     2.1679     4.0967   27 C    0 0-1
  13 H    1     2.5192     4.7606   12 H    0 0-1
  13 H    1     2.5675     4.8519   37 O    0 0 0
  13 H    1     2.7328     5.1643    1 B    1 0 0

  14 H    1     1.0914     2.0625   29 C    0 0 0
  14 H    1     2.1491     4.0612   30 C   -1 0 0
  14 H    1     2.1666     4.0942   26 C    0 0 1
  14 H    1     2.5198     4.7617   11 H    0 0 1
  14 H    1     2.5723     4.8609   42 O    0 0 0
  14 H    1     2.7355     5.1693    6 B   -1 0 0

  15 H    1     1.0914     2.0624   32 C    0 0 0
  15 H    1     2.1475     4.0582   31 C   -1-1 1
  15 H    1     2.1678     4.0966   35 C    0 0 0
  15 H    1     2.5200     4.7621   18 H    0 0 0
  15 H    1     2.5667     4.8503   39 O    0 0 0
  15 H    1     2.7315     5.1618    3 B   -1-1 1

  16 H    1     1.0913     2.0623   33 C    0 0 0
  16 H    1     2.1487     4.0605   36 C    0 0 0
  16 H    1     2.1667     4.0945   34 C    0 0 0
  16 H    1     2.5197     4.7616   17 H    0 0 0
  16 H    1     2.5723     4.8610   41 O    0 0 0
  16 H    1     2.7359     5.1701    5 B    0 0 0

  17 H    1     1.0915     2.0626   34 C    0 0 0
  17 H    1     2.1479     4.0589   31 C    0 0 0
  17 H    1     2.1679     4.0968   33 C    0 0 0
  17 H    1     2.5197     4.7616   16 H    0 0 0
  17 H    1     2.5677     4.8522   37 O    0 0 0
  17 H    1     2.7331     5.1648    3 B    0 0 0

  18 H    1     1.0914     2.0624   35 C    0 0 0
  18 H    1     2.1486     4.0602   36 C   -1-1 1
  18 H    1     2.1668     4.0947   32 C    0 0 0
  18 H    1     2.5200     4.7621   15 H    0 0 0
  18 H    1     2.5717     4.8598   42 O    0 0 0
  18 H    1     2.7349     5.1682    5 B   -1-1 1

  19 C    1     1.4020     2.6495   22 C    0 1-1
  19 C    1     1.4021     2.6495   20 C    0 0 0
  19 C    1     1.5504     2.9298    2 B    0 0 0
  19 C    1     2.1471     4.0575    9 H    0 1-1
  19 C    1     2.1472     4.0576    7 H    0 0 0
  19 C    1     2.4246     4.5817   21 C    0 1-1

  20 C    1     1.0913     2.0623    7 H    0 0 0
  20 C    1     1.3914     2.6294   23 C    0 0 0
  20 C    1     1.4021     2.6495   19 C    0 0 0
  20 C    1     2.1669     4.0948   10 H    0 0 0
  20 C    1     2.4177     4.5688   22 C    0 1-1
  20 C    1     2.4250     4.5825   24 C    0 0 0

  21 C    1     1.0914     2.0625    8 H    0 0 0
  21 C    1     1.3914     2.6293   22 C    0 0 0
  21 C    1     1.4026     2.6505   24 C    0-1 1
  21 C    1     2.1680     4.0970    9 H    0 0 0
  21 C    1     2.4182     4.5697   23 C    0-1 1
  21 C    1     2.4246     4.5817   19 C    0-1 1

  22 C    1     1.0914     2.0624    9 H    0 0 0
  22 C    1     1.3914     2.6293   21 C    0 0 0
  22 C    1     1.4020     2.6495   19 C    0-1 1
  22 C    1     2.1666     4.0942    8 H    0 0 0
  22 C    1     2.4177     4.5688   20 C    0-1 1
  22 C    1     2.4250     4.5826   24 C    0-1 1

  23 C    1     1.0915     2.0626   10 H    0 0 0
  23 C    1     1.3914     2.6294   20 C    0 0 0
  23 C    1     1.4025     2.6504   24 C    0 0 0
  23 C    1     2.1680     4.0969    7 H    0 0 0
  23 C    1     2.4182     4.5697   21 C    0 1-1
  23 C    1     2.4246     4.5818   19 C    0 0 0

  24 C    1     1.4025     2.6504   23 C    0 0 0
  24 C    1     1.4026     2.6505   21 C    0 1-1
  24 C    1     1.5513     2.9316    4 B    0 0 0
  24 C    1     2.1490     4.0610   10 H    0 0 0
  24 C    1     2.1493     4.0616    8 H    0 1-1
  24 C    1     2.4250     4.5825   20 C    0 0 0

  25 C    1     1.4020     2.6494   26 C    1 0 0
  25 C    1     1.4021     2.6495   28 C    0 0 0
  25 C    1     1.5503     2.9297    1 B    1 0 0
  25 C    1     2.1469     4.0571   11 H    1 0 0
  25 C    1     2.1475     4.0581   13 H    0 0 0
  25 C    1     2.4246     4.5818   27 C    0 0-1

  26 C    1     1.0913     2.0623   11 H    0 0 0
  26 C    1     1.3914     2.6293   29 C    0 0-1
  26 C    1     1.4020     2.6494   25 C   -1 0 0
  26 C    1     2.1666     4.0942   14 H    0 0-1
  26 C    1     2.4175     4.5684   28 C   -1 0 0
  26 C    1     2.4251     4.5828   30 C   -1 0-1

  27 C    1     1.0914     2.0625   12 H    0 0 0
  27 C    1     1.3915     2.6295   28 C    0 0 1
  27 C    1     1.4026     2.6505   30 C    0 0 0
  27 C    1     2.1679     4.0967   13 H    0 0 1
  27 C    1     2.4179     4.5691   29 C    1 0 0
  27 C    1     2.4246     4.5818   25 C    0 0 1

  28 C    1     1.0914     2.0624   13 H    0 0 0
  28 C    1     1.3915     2.6295   27 C    0 0-1
  28 C    1     1.4021     2.6495   25 C    0 0 0
  28 C    1     2.1664     4.0939   12 H    0 0-1
  28 C    1     2.4175     4.5684   26 C    1 0 0
  28 C    1     2.4253     4.5832   30 C    0 0-1

  29 C    1     1.0914     2.0625   14 H    0 0 0
  29 C    1     1.3914     2.6293   26 C    0 0 1
  29 C    1     1.4025     2.6504   30 C   -1 0 0
  29 C    1     2.1680     4.0968   11 H    0 0 1
  29 C    1     2.4179     4.5691   27 C   -1 0 0
  29 C    1     2.4247     4.5819   25 C   -1 0 1

  30 C    1     1.4025     2.6504   29 C    1 0 0
  30 C    1     1.4026     2.6505   27 C    0 0 0
  30 C    1     1.5516     2.9322    6 B    0 0 0
  30 C    1     2.1491     4.0612   14 H    1 0 0
  30 C    1     2.1493     4.0617   12 H    0 0 0
  30 C    1     2.4251     4.5828   26 C    1 0 1

  31 C    1     1.4021     2.6496   32 C    1 1-1
  31 C    1     1.4021     2.6497   34 C    0 0 0
  31 C    1     1.5502     2.9294    3 B    0 0 0
  31 C    1     2.1475     4.0582   15 H    1 1-1
  31 C    1     2.1479     4.0589   17 H    0 0 0
  31 C    1     2.4244     4.5814   33 C    0 0 0

  32 C    1     1.0914     2.0624   15 H    0 0 0
  32 C    1     1.3914     2.6293   35 C    0 0 0
  32 C    1     1.4021     2.6496   31 C   -1-1 1
  32 C    1     2.1668     4.0947   18 H    0 0 0
  32 C    1     2.4179     4.5692   34 C   -1-1 1
  32 C    1     2.4251     4.5827   36 C   -1-1 1

  33 C    1     1.0913     2.0623   16 H    0 0 0
  33 C    1     1.3914     2.6294   34 C    0 0 0
  33 C    1     1.4025     2.6504   36 C    0 0 0
  33 C    1     2.1679     4.0968   17 H    0 0 0
  33 C    1     2.4178     4.5690   35 C    1 1-1
  33 C    1     2.4244     4.5814   31 C    0 0 0

  34 C    1     1.0915     2.0626   17 H    0 0 0
  34 C    1     1.3914     2.6294   33 C    0 0 0
  34 C    1     1.4021     2.6497   31 C    0 0 0
  34 C    1     2.1667     4.0945   16 H    0 0 0
  34 C    1     2.4179     4.5692   32 C    1 1-1
  34 C    1     2.4253     4.5832   36 C    0 0 0

  35 C    1     1.0914     2.0624   18 H    0 0 0
  35 C    1     1.3914     2.6293   32 C    0 0 0
  35 C    1     1.4025     2.6503   36 C   -1-1 1
  35 C    1     2.1678     4.0966   15 H    0 0 0
  35 C    1     2.4178     4.5690   33 C   -1-1 1
  35 C    1     2.4245     4.5817   31 C   -1-1 1

  36 C    1     1.4025     2.6503   35 C    1 1-1
  36 C    1     1.4025     2.6504   33 C    0 0 0
  36 C    1     1.5516     2.9322    5 B    0 0 0
  36 C    1     2.1486     4.0602   18 H    1 1-1
  36 C    1     2.1487     4.0605   16 H    0 0 0
  36 C    1     2.4251     4.5827   32 C    1 1-1

  37 O    1     1.3791     2.6061    1 B    1 0 0
  37 O    1     1.3791     2.6061    3 B    0 0 0
  37 O    1     2.3880     4.5126   38 O    1 0 0
  37 O    1     2.3882     4.5130   39 O    1 1-1
  37 O    1     2.5383     4.7966   31 C    0 0 0
  37 O    1     2.5384     4.7968   25 C    0 0 0

  38 O    1     1.3793     2.6065    1 B    0 0 0
  38 O    1     1.3793     2.6065    2 B    0 0 0
  38 O    1     2.3880     4.5126   37 O   -1 0 0
  38 O    1     2.3882     4.5131   39 O    0 1-1
  38 O    1     2.5391     4.7981   19 C    0 0 0
  38 O    1     2.5395     4.7990   25 C   -1 0 0

  39 O    1     1.3793     2.6064    3 B   -1-1 1
  39 O    1     1.3793     2.6065    2 B    0-1 1
  39 O    1     2.3882     4.5130   37 O   -1-1 1
  39 O    1     2.3882     4.5131   38 O    0-1 1
  39 O    1     2.5390     4.7980   19 C    0-1 1
  39 O    1     2.5391     4.7982   31 C   -1-1 1

  40 O    1     1.3795     2.6068    6 B    0 0 0
  40 O    1     1.3795     2.6068    4 B    0-1 1
  40 O    1     2.3880     4.5126   42 O    1 0 0
  40 O    1     2.3884     4.5134   41 O    0-1 1
  40 O    1     2.5400     4.7998   24 C    0-1 1
  40 O    1     2.5403     4.8005   30 C    0 0 0

  41 O    1     1.3795     2.6069    5 B    0 0 0
  41 O    1     1.3795     2.6070    4 B    0 0 0
  41 O    1     2.3881     4.5128   42 O    1 1-1
  41 O    1     2.3884     4.5134   40 O    0 1-1
  41 O    1     2.5404     4.8006   24 C    0 0 0
  41 O    1     2.5405     4.8008   36 C    0 0 0

  42 O    1     1.3796     2.6071    6 B   -1 0 0
  42 O    1     1.3797     2.6072    5 B   -1-1 1
  42 O    1     2.3880     4.5126   40 O   -1 0 0
  42 O    1     2.3881     4.5128   41 O   -1-1 1
  42 O    1     2.5409     4.8016   36 C   -1-1 1
  42 O    1     2.5410     4.8019   30 C   -1 0 0


 SYMMETRY ALLOWED INTERNAL DEGREE(S) OF FREEDOM: 123
 TTTTTTTTTTTTTTTTTTTTTTTTTTTTTT SYMM        TELAPSE        0.30 TCPU        0.29
 TTTTTTTTTTTTTTTTTTTTTTTTTTTTTT INT_SCREEN  TELAPSE        0.32 TCPU        0.32

 DFT PARAMETERS

     ATOM       ELECTRONS   NET CHARGE   R(ANGSTROM)
   1   5  B       5.0000      0.0000     0.89000000
   7   1  H       1.0000      0.0000     1.11000000
  19   6  C       6.0000      0.0000     0.77000000
  37   8  O       8.0000      0.0000     0.74000000

 SIZE OF GRID=    1279789
 TTTTTTTTTTTTTTTTTTTTTTTTTTTTTT MAKE_GRID2  TELAPSE       10.99 TCPU       10.98
 BECKE WEIGHT FUNCTION
 RADSAFE =     2.00
 TOLERANCES - DENSITY:10**- 6; POTENTIAL:10**- 9; GRID WGT:10**-14

 RADIAL INTEGRATION  - INTERVALS (POINTS,UPPER LIMIT):            1( 75,  4.0*R)

 ANGULAR INTEGRATION - INTERVALS (ACCURACY LEVEL [N. POINTS] UPPER LIMIT):
  1(  4[  86]   0.2)  2(  8[ 194]   0.5)  3( 12[ 350]   0.9)  4( 16[ 974]   3.5)
  5( 12[ 350]9999.0)
 TTTTTTTTTTTTTTTTTTTTTTTTTTTTTT INT_CALC    TELAPSE       11.10 TCPU       11.08
 EEEEEEEEEE INT_CALC TERMINATION  DATE 19 02 2026 TIME 18:47:38.6

 *******************************************************************************
 cof-1_z37_L010_incl                                                             
 CRYSTAL - SCF - TYPE OF CALCULATION :  RESTRICTED CLOSED SHELL
 *******************************************************************************

 CAPPA:IS1  2;IS2  2;IS3  8; K PTS MONK NET  20; SYMMOPS:K SPACE   2;G SPACE   1

 TTTTTTTTTTTTTTTTTTTTTTTTTTTTTT SDIK        TELAPSE       11.69 TCPU       19.21

 AAAAAAAAAAAAAAAAAAAAAAAAAAAAAAAAAAAAAAAAAAAAAAAAAAAAAAAAAAAAAAAAAAAAAAAAAAAAAAA
         ATOMIC WAVEFUNCTION(S)


 NUCLEAR CHARGE  5.0  SYMMETRY SPECIES            S    P
 N. ELECTRONS    5.0  NUMBER OF PRIMITIVE GTOS    8    4
                      NUMBER OF CONTRACTED GTOS   4    2
                      NUMBER OF CLOSED SHELLS     2    0
                      OPEN SHELL OCCUPATION       0    1

  ZNUC  SCFIT    TOTAL HF ENERGY   KINETIC ENERGY   VIRIAL THEOREM ACCURACY
   5.0    11    -2.451164084E+01  2.462155050E+01 -1.995536038E+00  1.5E-06

 NUCLEAR CHARGE  1.0  SYMMETRY SPECIES            S
 N. ELECTRONS    1.0  NUMBER OF PRIMITIVE GTOS    4
                      NUMBER OF CONTRACTED GTOS   2
                      NUMBER OF CLOSED SHELLS     0
                      OPEN SHELL OCCUPATION       1

  ZNUC  SCFIT    TOTAL HF ENERGY   KINETIC ENERGY   VIRIAL THEOREM ACCURACY
   1.0     1    -4.977266687E-01  5.190767460E-01 -1.958869132E+00  0.0E+00

 NUCLEAR CHARGE  6.0  SYMMETRY SPECIES            S    P
 N. ELECTRONS    6.0  NUMBER OF PRIMITIVE GTOS    8    4
                      NUMBER OF CONTRACTED GTOS   4    2
                      NUMBER OF CLOSED SHELLS     2    0
                      OPEN SHELL OCCUPATION       0    2

  ZNUC  SCFIT    TOTAL HF ENERGY   KINETIC ENERGY   VIRIAL THEOREM ACCURACY
   6.0     9    -3.766704647E+01  3.775180683E+01 -1.997754800E+00  1.1E-06

 NUCLEAR CHARGE  8.0  SYMMETRY SPECIES            S    P
 N. ELECTRONS    8.0  NUMBER OF PRIMITIVE GTOS    8    4
                      NUMBER OF CONTRACTED GTOS   4    2
                      NUMBER OF CLOSED SHELLS     2    0
                      OPEN SHELL OCCUPATION       0    4

  ZNUC  SCFIT    TOTAL HF ENERGY   KINETIC ENERGY   VIRIAL THEOREM ACCURACY
   8.0    12    -7.477373220E+01  7.477365593E+01 -2.000001020E+00  3.8E-06

 AAAAAAAAAAAAAAAAAAAAAAAAAAAAAAAAAAAAAAAAAAAAAAAAAAAAAAAAAAAAAAAAAAAAAAAAAAAAAAA

 CHARGE NORMALIZATION FACTOR   1.00000000
 TOTAL ATOMIC CHARGES:
   5.0000000   5.0000000   5.0000000   5.0000000   5.0000000   5.0000000
   1.0000000   1.0000000   1.0000000   1.0000000   1.0000000   1.0000000
   1.0000000   1.0000000   1.0000000   1.0000000   1.0000000   1.0000000
   6.0000000   6.0000000   6.0000000   6.0000000   6.0000000   6.0000000
   6.0000000   6.0000000   6.0000000   6.0000000   6.0000000   6.0000000
   6.0000000   6.0000000   6.0000000   6.0000000   6.0000000   6.0000000
   8.0000000   8.0000000   8.0000000   8.0000000   8.0000000   8.0000000
 TTTTTTTTTTTTTTTTTTTTTTTTTTTTTT MOQGAD      TELAPSE       11.74 TCPU       20.87
 TTTTTTTTTTTTTTTTTTTTTTTTTTTTTT SHELLXN     TELAPSE       20.92 TCPU      314.20
 TTTTTTTTTTTTTTTTTTTTTTTTTTTTTT MONMO3      TELAPSE       21.08 TCPU      319.49
 NUMERICALLY INTEGRATED DENSITY    197.9999217941
 TTTTTTTTTTTTTTTTTTTTTTTTTTTTTT NUMDFT      TELAPSE       21.67 TCPU      338.16
 CYC   0 ETOT(AU) -1.295967242864E+03 DETOT -1.30E+03 tst  0.00E+00 PX  1.00E+00
 TTTTTTTTTTTTTTTTTTTTTTTTTTTTTT DIIS        TELAPSE       21.70 TCPU      339.27
 TTTTTTTTTTTTTTTTTTTTTTTTTTTTTT FDIK        TELAPSE       22.20 TCPU      355.10
 INSULATING STATE
 TOP OF VALENCE BANDS -    BAND     99; K    1; EIG -3.0193717E-01 AU
 BOTTOM OF VIRTUAL BANDS - BAND    100; K   17; EIG -1.6770146E-01 AU
 INDIRECT ENERGY BAND GAP:   3.6527 eV
 BOTTOM OF VIRTUAL BANDS - BAND    100; K    1; EIG -1.4457947E-01 AU
 TTTTTTTTTTTTTTTTTTTTTTTTTTTTTT PDIG        TELAPSE       22.50 TCPU      360.89
 CHARGE NORMALIZATION FACTOR   1.00000000
 TOTAL ATOMIC CHARGES:
   4.1392122   4.1380366   4.1383974   4.1381500   4.1379202   4.1391458
   0.7860339   0.7861400   0.7858834   0.7860061   0.7858409   0.7860268
   0.7858306   0.7859938   0.7858809   0.7860666   0.7859835   0.7861333
   6.0517843   6.2691705   6.2691689   6.2687619   6.2686573   6.0509787
   6.0508315   6.2685268   6.2685454   6.2684233   6.2685576   6.0495572
   6.0520941   6.2685421   6.2690480   6.2687881   6.2694263   6.0505184
   8.7012851   8.7014442   8.6996629   8.7016831   8.7000211   8.7018412
 TTTTTTTTTTTTTTTTTTTTTTTTTTTTTT MOQGAD      TELAPSE       22.55 TCPU      360.94
 TTTTTTTTTTTTTTTTTTTTTTTTTTTTTT SHELLXN     TELAPSE       32.07 TCPU      664.49
 TTTTTTTTTTTTTTTTTTTTTTTTTTTTTT MONMO3      TELAPSE       32.24 TCPU      669.77
 NUMERICALLY INTEGRATED DENSITY    197.9999481958
 TTTTTTTTTTTTTTTTTTTTTTTTTTTTTT NUMDFT      TELAPSE       32.83 TCPU      688.72
 CYC   1 ETOT(AU) -1.288813125767E+03 DETOT  7.15E+00 tst  0.00E+00 PX  1.00E+00
 TTTTTTTTTTTTTTTTTTTTTTTTTTTTTT DIIS        TELAPSE       32.87 TCPU      690.08
 DIIS TEST: 0.11083E+01 AT SCF   CYCLE   1 - MIX   30 %
 TTTTTTTTTTTTTTTTTTTTTTTTTTTTTT FDIK        TELAPSE       33.38 TCPU      706.18
 INSULATING STATE
 TOP OF VALENCE BANDS -    BAND     99; K    1; EIG -2.0452912E-01 AU
 BOTTOM OF VIRTUAL BANDS - BAND    100; K   17; EIG -9.0393271E-02 AU
 INDIRECT ENERGY BAND GAP:   3.1058 eV
 BOTTOM OF VIRTUAL BANDS - BAND    100; K    1; EIG -6.3447638E-02 AU
 TTTTTTTTTTTTTTTTTTTTTTTTTTTTTT PDIG        TELAPSE       33.66 TCPU      711.97
 CHARGE NORMALIZATION FACTOR   1.00000000
 TOTAL ATOMIC CHARGES:
   4.6990756   4.6970106   4.6960635   4.6964466   4.6968489   4.6985118
   0.9199973   0.9201342   0.9208114   0.9208250   0.9191794   0.9191232
   0.9191263   0.9190541   0.9207403   0.9208313   0.9199152   0.9199657
   5.8657053   6.1194249   6.1197767   6.1283572   6.1300149   5.8686185
   5.8667960   6.1237094   6.1256465   6.1245197   6.1252722   5.8701015
   5.8655593   6.1285892   6.1300557   6.1195751   6.1197937   5.8690028
   8.3449592   8.3452462   8.3479875   8.3446208   8.3482295   8.3447778
 TTTTTTTTTTTTTTTTTTTTTTTTTTTTTT MOQGAD      TELAPSE       33.71 TCPU      712.03
 TTTTTTTTTTTTTTTTTTTTTTTTTTTTTT SHELLXN     TELAPSE       43.23 TCPU     1015.61
 TTTTTTTTTTTTTTTTTTTTTTTTTTTTTT MONMO3      TELAPSE       43.40 TCPU     1020.89
 NUMERICALLY INTEGRATED DENSITY    197.9999375242
 TTTTTTTTTTTTTTTTTTTTTTTTTTTTTT NUMDFT      TELAPSE       43.99 TCPU     1039.80
 CYC   2 ETOT(AU) -1.289006913270E+03 DETOT -1.94E-01 tst  4.53E-03 PX  1.57E-01
 TTTTTTTTTTTTTTTTTTTTTTTTTTTTTT DIIS        TELAPSE       44.04 TCPU     1041.34
 DIIS TEST: 0.48243E+00 AT SCF   CYCLE   2 - DIIS ACTIVE - HISTORY:     2 CYCLES
 TTTTTTTTTTTTTTTTTTTTTTTTTTTTTT FDIK        TELAPSE       44.54 TCPU     1057.27
 INSULATING STATE
 TOP OF VALENCE BANDS -    BAND     99; K    1; EIG -2.2124927E-01 AU
 BOTTOM OF VIRTUAL BANDS - BAND    100; K   17; EIG -8.6039199E-02 AU
 INDIRECT ENERGY BAND GAP:   3.6793 eV
 BOTTOM OF VIRTUAL BANDS - BAND    100; K    1; EIG -5.7399657E-02 AU
 TTTTTTTTTTTTTTTTTTTTTTTTTTTTTT PDIG        TELAPSE       44.82 TCPU     1063.06
 CHARGE NORMALIZATION FACTOR   1.00000000
 TOTAL ATOMIC CHARGES:
   4.4837871   4.4814306   4.4810732   4.4804888   4.4805426   4.4827437
   0.8920004   0.8921734   0.8926259   0.8927060   0.8914917   0.8917628
   0.8916086   0.8915916   0.8925713   0.8927365   0.8919684   0.8920552
   5.8943351   6.1637885   6.1635727   6.1628541   6.1614747   5.8931505
   5.8971260   6.1617407   6.1611707   6.1616353   6.1613225   5.8959544
   5.8949955   6.1629379   6.1616191   6.1637441   6.1635704   5.8926278
   8.5152664   8.5154042   8.5126717   8.5155691   8.5124036   8.5157074
 TTTTTTTTTTTTTTTTTTTTTTTTTTTTTT MOQGAD      TELAPSE       44.87 TCPU     1063.12
 TTTTTTTTTTTTTTTTTTTTTTTTTTTTTT SHELLXN     TELAPSE       54.40 TCPU     1366.92
 TTTTTTTTTTTTTTTTTTTTTTTTTTTTTT MONMO3      TELAPSE       54.56 TCPU     1372.20
 NUMERICALLY INTEGRATED DENSITY    197.9999387403
 TTTTTTTTTTTTTTTTTTTTTTTTTTTTTT NUMDFT      TELAPSE       55.16 TCPU     1391.11
 CYC   3 ETOT(AU) -1.289108570347E+03 DETOT -1.02E-01 tst  7.39E-04 PX  5.95E-02
 TTTTTTTTTTTTTTTTTTTTTTTTTTTTTT DIIS        TELAPSE       55.21 TCPU     1392.87
 DIIS TEST: 0.10113E-01 AT SCF   CYCLE   3 - DIIS ACTIVE - HISTORY:     3 CYCLES
 TTTTTTTTTTTTTTTTTTTTTTTTTTTTTT FDIK        TELAPSE       55.72 TCPU     1408.98
 INSULATING STATE
 TOP OF VALENCE BANDS -    BAND     99; K    1; EIG -2.3054787E-01 AU
 BOTTOM OF VIRTUAL BANDS - BAND    100; K   17; EIG -9.5886678E-02 AU
 INDIRECT ENERGY BAND GAP:   3.6643 eV
 BOTTOM OF VIRTUAL BANDS - BAND    100; K    1; EIG -6.7989449E-02 AU
 TTTTTTTTTTTTTTTTTTTTTTTTTTTTTT PDIG        TELAPSE       56.00 TCPU     1414.77
 CHARGE NORMALIZATION FACTOR   1.00000000
 TOTAL ATOMIC CHARGES:
   4.4915242   4.4882999   4.4876628   4.4882648   4.4884851   4.4915299
   0.8761883   0.8764151   0.8764348   0.8763275   0.8752066   0.8751320
   0.8751692   0.8750809   0.8764120   0.8763152   0.8761852   0.8762369
   5.9457358   6.1574001   6.1578512   6.1632140   6.1664468   5.9505918
   5.9474474   6.1598403   6.1623760   6.1604491   6.1619916   5.9518796
   5.9454988   6.1631821   6.1667338   6.1571383   6.1581513   5.9509742
   8.4867739   8.4869978   8.4892200   8.4865856   8.4899218   8.4867281
 TTTTTTTTTTTTTTTTTTTTTTTTTTTTTT MOQGAD      TELAPSE       56.05 TCPU     1414.82
 TTTTTTTTTTTTTTTTTTTTTTTTTTTTTT SHELLXN     TELAPSE       65.57 TCPU     1718.38
 TTTTTTTTTTTTTTTTTTTTTTTTTTTTTT MONMO3      TELAPSE       65.73 TCPU     1723.67
 NUMERICALLY INTEGRATED DENSITY    197.9999393377
 TTTTTTTTTTTTTTTTTTTTTTTTTTTTTT NUMDFT      TELAPSE       66.33 TCPU     1742.58
 CYC   4 ETOT(AU) -1.289110610759E+03 DETOT -2.04E-03 tst  3.00E-05 PX  1.25E-02
 TTTTTTTTTTTTTTTTTTTTTTTTTTTTTT DIIS        TELAPSE       66.38 TCPU     1744.45
 DIIS TEST: 0.37147E-02 AT SCF   CYCLE   4 - DIIS ACTIVE - HISTORY:     4 CYCLES
 TTTTTTTTTTTTTTTTTTTTTTTTTTTTTT FDIK        TELAPSE       66.88 TCPU     1760.46
 INSULATING STATE
 TOP OF VALENCE BANDS -    BAND     99; K    1; EIG -2.2894009E-01 AU
 BOTTOM OF VIRTUAL BANDS - BAND    100; K   17; EIG -9.4655568E-02 AU
 INDIRECT ENERGY BAND GAP:   3.6541 eV
 BOTTOM OF VIRTUAL BANDS - BAND    100; K    1; EIG -6.6566767E-02 AU
 TTTTTTTTTTTTTTTTTTTTTTTTTTTTTT PDIG        TELAPSE       67.17 TCPU     1766.25
 CHARGE NORMALIZATION FACTOR   1.00000000
 TOTAL ATOMIC CHARGES:
   4.4926324   4.4902564   4.4897217   4.4891170   4.4892494   4.4914253
   0.8792271   0.8793966   0.8796513   0.8798292   0.8785007   0.8787454
   0.8785667   0.8786004   0.8795860   0.8798606   0.8791669   0.8792798
   5.9245293   6.1643879   6.1638596   6.1679709   6.1657325   5.9213113
   5.9259966   6.1651389   6.1644291   6.1652297   6.1644978   5.9232436
   5.9250882   6.1681188   6.1658299   6.1644242   6.1638406   5.9209081
   8.4973240   8.4974702   8.4966297   8.4974605   8.4961816   8.4975840
 TTTTTTTTTTTTTTTTTTTTTTTTTTTTTT MOQGAD      TELAPSE       67.22 TCPU     1766.30
 TTTTTTTTTTTTTTTTTTTTTTTTTTTTTT SHELLXN     TELAPSE       76.74 TCPU     2069.85
 TTTTTTTTTTTTTTTTTTTTTTTTTTTTTT MONMO3      TELAPSE       76.90 TCPU     2075.13
 NUMERICALLY INTEGRATED DENSITY    197.9999394194
 TTTTTTTTTTTTTTTTTTTTTTTTTTTTTT NUMDFT      TELAPSE       77.50 TCPU     2094.03
 CYC   5 ETOT(AU) -1.289111436531E+03 DETOT -8.26E-04 tst  6.35E-06 PX  7.46E-03
 TTTTTTTTTTTTTTTTTTTTTTTTTTTTTT DIIS        TELAPSE       77.56 TCPU     2096.05
 DIIS TEST: 0.14943E-03 AT SCF   CYCLE   5 - DIIS ACTIVE - HISTORY:     5 CYCLES
 TTTTTTTTTTTTTTTTTTTTTTTTTTTTTT FDIK        TELAPSE       78.06 TCPU     2111.91
 INSULATING STATE
 TOP OF VALENCE BANDS -    BAND     99; K    1; EIG -2.2869741E-01 AU
 BOTTOM OF VIRTUAL BANDS - BAND    100; K   17; EIG -9.4110596E-02 AU
 INDIRECT ENERGY BAND GAP:   3.6623 eV
 BOTTOM OF VIRTUAL BANDS - BAND    100; K    1; EIG -6.6009711E-02 AU
 TTTTTTTTTTTTTTTTTTTTTTTTTTTTTT PDIG        TELAPSE       78.34 TCPU     2117.69
 CHARGE NORMALIZATION FACTOR   1.00000000
 TOTAL ATOMIC CHARGES:
   4.4916572   4.4888876   4.4883271   4.4891879   4.4893705   4.4919428
   0.8802439   0.8804410   0.8808138   0.8806172   0.8796043   0.8795405
   0.8796086   0.8794592   0.8807888   0.8806093   0.8802379   0.8802739
   5.9202475   6.1619603   6.1631784   6.1638722   6.1684940   5.9283132
   5.9227051   6.1622065   6.1652627   6.1625895   6.1650294   5.9296748
   5.9202191   6.1638227   6.1687947   6.1616944   6.1634497   5.9284891
   8.4960900   8.4963013   8.4963745   8.4960791   8.4973035   8.4962368
 TTTTTTTTTTTTTTTTTTTTTTTTTTTTTT MOQGAD      TELAPSE       78.39 TCPU     2117.74
 TTTTTTTTTTTTTTTTTTTTTTTTTTTTTT SHELLXN     TELAPSE       87.90 TCPU     2421.21
 TTTTTTTTTTTTTTTTTTTTTTTTTTTTTT MONMO3      TELAPSE       88.07 TCPU     2426.49
 NUMERICALLY INTEGRATED DENSITY    197.9999393455
 TTTTTTTTTTTTTTTTTTTTTTTTTTTTTT NUMDFT      TELAPSE       88.66 TCPU     2445.42
 CYC   6 ETOT(AU) -1.289111427653E+03 DETOT  8.88E-06 tst  2.24E-06 PX  1.75E-03
 TTTTTTTTTTTTTTTTTTTTTTTTTTTTTT DIIS        TELAPSE       88.73 TCPU     2447.61
 DIIS TEST: 0.17623E-03 AT SCF   CYCLE   6 - DIIS ACTIVE - HISTORY:     6 CYCLES
 TTTTTTTTTTTTTTTTTTTTTTTTTTTTTT FDIK        TELAPSE       89.23 TCPU     2463.42
 INSULATING STATE
 TOP OF VALENCE BANDS -    BAND     99; K    1; EIG -2.2871146E-01 AU
 BOTTOM OF VIRTUAL BANDS - BAND    100; K   17; EIG -9.4141564E-02 AU
 INDIRECT ENERGY BAND GAP:   3.6618 eV
 BOTTOM OF VIRTUAL BANDS - BAND    100; K    1; EIG -6.6037926E-02 AU
 TTTTTTTTTTTTTTTTTTTTTTTTTTTTTT PDIG        TELAPSE       89.51 TCPU     2469.21
 CHARGE NORMALIZATION FACTOR   1.00000000
 TOTAL ATOMIC CHARGES:
   4.4922056   4.4895377   4.4889924   4.4888269   4.4889855   4.4914690
   0.8802335   0.8804443   0.8806786   0.8807305   0.8795055   0.8796291
   0.8795351   0.8795220   0.8806347   0.8807402   0.8802041   0.8802985
   5.9246310   6.1625936   6.1623581   6.1659401   6.1659299   5.9247259
   5.9264607   6.1633009   6.1638196   6.1635821   6.1636939   5.9266124
   5.9248681   6.1659834   6.1661361   6.1624751   6.1624889   5.9246379
   8.4961194   8.4962957   8.4963419   8.4961522   8.4963924   8.4962876
 TTTTTTTTTTTTTTTTTTTTTTTTTTTTTT MOQGAD      TELAPSE       89.56 TCPU     2469.26
 TTTTTTTTTTTTTTTTTTTTTTTTTTTTTT SHELLXN     TELAPSE       99.07 TCPU     2772.68
 TTTTTTTTTTTTTTTTTTTTTTTTTTTTTT MONMO3      TELAPSE       99.24 TCPU     2777.96
 NUMERICALLY INTEGRATED DENSITY    197.9999393531
 TTTTTTTTTTTTTTTTTTTTTTTTTTTTTT NUMDFT      TELAPSE       99.83 TCPU     2796.87
 CYC   7 ETOT(AU) -1.289111473671E+03 DETOT -4.60E-05 tst  1.08E-06 PX  1.13E-03
 TTTTTTTTTTTTTTTTTTTTTTTTTTTTTT DIIS        TELAPSE       99.91 TCPU     2799.31
 DIIS TEST: 0.31123E-05 AT SCF   CYCLE   7 - DIIS ACTIVE - HISTORY:     7 CYCLES
 TTTTTTTTTTTTTTTTTTTTTTTTTTTTTT FDIK        TELAPSE      100.40 TCPU     2815.18
 INSULATING STATE
 TOP OF VALENCE BANDS -    BAND     99; K    1; EIG -2.2873379E-01 AU
 BOTTOM OF VIRTUAL BANDS - BAND    100; K   17; EIG -9.4215933E-02 AU
 INDIRECT ENERGY BAND GAP:   3.6604 eV
 BOTTOM OF VIRTUAL BANDS - BAND    100; K    1; EIG -6.6111211E-02 AU
 TTTTTTTTTTTTTTTTTTTTTTTTTTTTTT PDIG        TELAPSE      100.68 TCPU     2820.96
 CHARGE NORMALIZATION FACTOR   1.00000000
 TOTAL ATOMIC CHARGES:
   4.4922809   4.4897047   4.4891627   4.4891057   4.4892553   4.4916387
   0.8801618   0.8803352   0.8806009   0.8806369   0.8794255   0.8795522
   0.8794704   0.8794293   0.8805482   0.8806551   0.8801214   0.8801997
   5.9240499   6.1625057   6.1626908   6.1657377   6.1660199   5.9250499
   5.9258780   6.1632260   6.1639507   6.1634243   6.1639120   5.9268045
   5.9243968   6.1658250   6.1661812   6.1624398   6.1627718   5.9248535
   8.4963087   8.4964796   8.4961243   8.4963922   8.4961664   8.4965266
 TTTTTTTTTTTTTTTTTTTTTTTTTTTTTT MOQGAD      TELAPSE      100.74 TCPU     2821.02
 TTTTTTTTTTTTTTTTTTTTTTTTTTTTTT SHELLXN     TELAPSE      110.25 TCPU     3124.54
 TTTTTTTTTTTTTTTTTTTTTTTTTTTTTT MONMO3      TELAPSE      110.42 TCPU     3129.82
 NUMERICALLY INTEGRATED DENSITY    197.9999393503
 TTTTTTTTTTTTTTTTTTTTTTTTTTTTTT NUMDFT      TELAPSE      111.01 TCPU     3148.77
 CYC   8 ETOT(AU) -1.289111474196E+03 DETOT -5.26E-07 tst  1.04E-08 PX  1.51E-04
 TTTTTTTTTTTTTTTTTTTTTTTTTTTTTT DIIS        TELAPSE      111.09 TCPU     3151.31
 DIIS TEST: 0.21882E-06 AT SCF   CYCLE   8 - DIIS ACTIVE - HISTORY:     8 CYCLES
 TTTTTTTTTTTTTTTTTTTTTTTTTTTTTT FDIK        TELAPSE      111.59 TCPU     3167.21
 INSULATING STATE
 TOP OF VALENCE BANDS -    BAND     99; K    1; EIG -2.2873716E-01 AU
 BOTTOM OF VIRTUAL BANDS - BAND    100; K   17; EIG -9.4210751E-02 AU
 INDIRECT ENERGY BAND GAP:   3.6607 eV
 BOTTOM OF VIRTUAL BANDS - BAND    100; K    1; EIG -6.6105892E-02 AU
 TTTTTTTTTTTTTTTTTTTTTTTTTTTTTT PDIG        TELAPSE      111.87 TCPU     3173.00
 CHARGE NORMALIZATION FACTOR   1.00000000
 TOTAL ATOMIC CHARGES:
   4.4923095   4.4896763   4.4891258   4.4890589   4.4892192   4.4916600
   0.8801338   0.8803393   0.8805937   0.8806225   0.8794190   0.8795309
   0.8794496   0.8794224   0.8805501   0.8806319   0.8801035   0.8801942
   5.9240790   6.1626273   6.1625397   6.1657617   6.1661873   5.9249297
   5.9259480   6.1632723   6.1639928   6.1635415   6.1638803   5.9266982
   5.9243164   6.1658034   6.1663947   6.1625066   6.1626732   5.9248430
   8.4962284   8.4964068   8.4962691   8.4962610   8.4963991   8.4963996
 TTTTTTTTTTTTTTTTTTTTTTTTTTTTTT MOQGAD      TELAPSE      111.92 TCPU     3173.05
 TTTTTTTTTTTTTTTTTTTTTTTTTTTTTT SHELLXN     TELAPSE      121.44 TCPU     3476.54
 +++ ENERGIES IN A.U. +++
 ::: EXT EL-POLE                                  -1.3567809421314E+03
 ::: EXT EL-SPHEROPOLE                             1.5478084566707E+01
 ::: BIELET ZONE E-E                               2.2827982653384E+03
 ::: TOTAL E-E                                     9.4149540777376E+02
 ::: TOTAL E-N + N-E                              -3.7098972674231E+03
 ::: TOTAL N-N                                     3.3307976277529E+02
 ::: KINETIC ENERGY                                1.2799234363296E+03
 ::: PSEUDO TOTAL   ENERGY                        -1.1553986605445E+03
 ::: VIRIAL COEFFICIENT                            1.0511327745701E+00
 TTTTTTTTTTTTTTTTTTTTTTTTTTTTTT MONMO3      TELAPSE      121.61 TCPU     3481.83
 NUMERICALLY INTEGRATED DENSITY    197.9999393498
 EXCHANGE ENERGY: -0.126017011878E+03  CORRELATION ENERGY: -0.769580186172E+01
 TTTTTTTTTTTTTTTTTTTTTTTTTTTTTT NUMDFT      TELAPSE      122.20 TCPU     3500.73
 CYC   9 ETOT(AU) -1.289111474284E+03 DETOT -8.74E-08 tst  6.35E-10 PX  1.51E-04

 == SCF ENDED - CONVERGENCE ON ENERGY      E(AU) -1.2891114742837E+03 CYCLES   9


 ENERGY EXPRESSION=HARTREE+FOCK EXCH*0.00000+(HSESOL     EXCH)*1.00000+PBESOL     CORR


 TOTAL ENERGY(DFT)(AU)(  9) -1.2891114742837E+03 DE-8.7E-08 tester 6.4E-10
 TTTTTTTTTTTTTTTTTTTTTTTTTTTTTT EDFT        TELAPSE      122.20 TCPU     3500.74
 
 INFORMATION **** DFTD3 ENERGY **** CALCULATE DFTD3 ENERGY

           DFT-D V3(BJ)
 DF                                         hsesol3c  
 parameters
 s6       :    1.0000
 s8       :    0.0000
 a1       :    0.5196
 a2       :    4.9385
 k1 k3    :   16.0000   -4.0000
 Cutoff   :   50.2022
 CN-Cutoff:   21.1671
 ABC-Cutoff:   21.1671
 
 Edisp /kcal,au:   -28.5595 -0.04551250

 E6    /kcal :   -30.5316
 E8    /kcal :     0.0000
 E6(ABC) "   :   1.972066
 
 INFORMATION **** DFTD3 ENERGY **** NORMAL TERMINATION OF DFTD3 MODULE

 GCP ENERGY CALCULATION
  level        hsesol3c            basis:hsesol3c
  Nbf            474
  Atoms           42

  Parameters: 
  sigma     1.0000
  eta       1.4281
  alpha     0.2936
  beta      1.9467

  dmp_scal      4.0000
  dmp_exp       6.0000
 cutoffs: 
   distance [bohr] 60.0
   noise    [a.u.] 2.2E-16
 SR-damping   T
 ** gCP correction **
  Egcp:        0.0831944378 / (a.u.) ||      52.2053 / (kcal/mol)
 INFORMATION **** GCP **** NORMAL TERMINATION OF GCP MODULE

 *******************************************************************************

 DFT-D3-GCP DISPERSION AND COUNTERPOISE CORRECTION

 D3 DISPERSION ENERGY (AU)      -4.5512495914378E-02
 GCP ENERGY (AU)                 8.3194437776644E-02
 TOTAL ENERGY + DISP + GCP (AU) -1.2890737923418E+03

 *******************************************************************************

 EIGENVECTORS IN FORTRAN UNIT 10
 TTTTTTTTTTTTTTTTTTTTTTTTTTTTTT END         TELAPSE      123.51 TCPU     3507.67
 EEEEEEEEEE TERMINATION  DATE 19 02 2026 TIME 18:49:31.0
