 Default number of threads is:           32

         
 *******************************************************************************
 *                                                                             *
 *                               CRYSTAL23                                     *
 *                      public : 1.0.1 - October 2022                          *
 *                       HTTP://WWW.CRYSTAL.UNITO.IT                           *
 *                                                                             *
 *                              MAIN AUTHORS                                   *
 *                                                                             *
 *  R. DOVESI(1,11), V.R. SAUNDERS(2), C. ROETTI(1,11), R. ORLANDO(1,11),      *
 *  C.M. ZICOVICH-WILSON(1,3), F. PASCALE(4), B. CIVALLERI(1,11),              *
 *  K. DOLL(5), N.M. HARRISON(6), I.J. BUSH(7), Ph. D'ARCO(8),                 *
 *  M. LLUNELL(9), M. CAUSA'(10), Y. NOEL(8), L. MASCHIO(1,11), A. ERBA(1,11)  *
 *  M. RE'RAT(14), S. CASASSA(1,11), B.G. SEARLE(2), J.K. DESMARAIS(1)         *
 *                                                                             *
 *        CONTRIBUTIONS TO THE CODE HAVE ALSO BEEN GIVEN BY                    *
 *                                                                             *
 *  M. FERRABONE(1,11), M. DE LA PIERRE(1,11), M. FERRERO(1,11),               *
 *  J. BAIMA(1,11), E. ALBANESE(1,11), M.F. PEINTINGER(12), R. BAST(13),       *
 *  B. KIRTMAN(15), V. LACIVITA(1,11), R. DEMICHELIS(1,16)                     *
 *  G. BRANDEBURG(17), S. SALUSTRO(1,11), G. SANSONE(1,11)                     *
 *  M.T. RUGGIERO(18), L.E. DAGA(1), L. DONA'(1), A. COSSARD(1)                *
 *                                                                             *
 * (1) THEORETICAL CHEMISTRY GROUP - UNIVERSITA' DI TORINO - TORINO (ITALY)    *
 * (2) SCIENTIFIC COMPUTING DEPARTMENT - STFC DARESBURY (UK)                   *
 * (3) UNIVERSIDAD AUTONOMA DEL ESTADO DE MORELOS - CUERNAVACA (MEXICO)        *
 * (4) UNIVERSITE' DE LORRAINE - NANCY (FRANCE)                                *
 * (5) UNIVERSITAET STUTTGART- STUTTGART (GERMANY)                             *
 * (6) IMPERIAL COLLEGE - LONDON (UK)                                          *
 * (7) SCIENTIFIC COMPUTING DEPARTMENT - STFC RAL (UK)                         *
 * (8) UPMC - SORBONNE UNIVERSITES - PARIS (FRANCE)                            *
 * (9) UNIVERSIDAD DE BARCELONA - BARCELONA (SPAIN)                            *
 *(10) UNIVERSITA' DI NAPOLI "FEDERICO II" - NAPOLI (ITALY)                    *
 *(11) NIS - NANOSTRUCTURED INTERFACES AND SURFACES - TORINO (ITALY)           *
 *(12) MPI FUER CHEMISCHE ENERGIEKONVERSION - MUELHEIM AN DER RUHR (GERMANY)   *
 *(13) UNIVERSITY OF TROMSO - TROMSO (NORWAY)                                  *
 *(14) UNIVERSITE' DE PAU ET DES PAYS DE L'ADOUR - PAU (FRANCE)                *
 *(15) UNIVERSITY OF CALIFORNIA SANTA BARBARA - SANTA BARBARA (USA)            *
 *(16) CURTIN UNIVERSITY - PERTH (AUSTRALIA)                                   *
 *(17) UNIVERSITY COLLEGE LONDON - LONDON (UK)                                 *
 *(18) UNIVERSITY OF VERMONT - BURLINGTON (USA)                                *
 *                                                                             *
 *******************************************************************************
 EEEEEEEEEE STARTING  DATE 19 02 2026 TIME 18:32:21.1
 cof-1_z35_L080_incl                                                             

 CRYSTAL CALCULATION
 (INPUT ACCORDING TO THE INTERNATIONAL TABLES FOR X-RAY CRYSTALLOGRAPHY)
 CRYSTAL FAMILY                       :  TRICLINIC   
 CRYSTAL CLASS  (GROTH - 1921)        :  TRICLINIC PEDIAL                     

 SPACE GROUP (NONCENTROSYMMETRIC)     :  P 1             

 LATTICE PARAMETERS  (ANGSTROMS AND DEGREES) - CONVENTIONAL CELL
        A           B           C        ALPHA        BETA       GAMMA
    15.02361    15.02392     8.73212    37.49132    89.99998   119.99596


 NUMBER OF IRREDUCIBLE ATOMS IN THE CONVENTIONAL CELL:   42

 INPUT COORDINATES

 ATOM AT. N.              COORDINATES
   1   5     4.595700000000E-01 -8.093418000000E-02  5.013579800000E-01
   2   5     6.186256600000E-01  7.812546000000E-02  5.013580000000E-01
   3   5     4.604477600000E-01  7.987249000000E-02  4.984885500000E-01
   4   5     7.314471000000E-02  3.053808100000E-01  5.013579900000E-01
   5   5     2.322526800000E-01  3.053600500000E-01  5.013579800000E-01
   6   5     2.331149900000E-01  4.662634700000E-01  4.984885500000E-01
   7   1     7.507617000000E-01  4.335250000000E-03  4.954090600000E-01
   8   1    -5.536776000000E-02  3.870179500000E-01  4.944993700000E-01
   9   1     7.510121600000E-01  2.901230200000E-01  4.943593700000E-01
  10   1    -5.523381000000E-02  1.017140600000E-01  4.943942900000E-01
  11   1     5.359322500000E-01 -2.132277000000E-01  5.045774200000E-01
  12   1     1.535499300000E-01  5.926461300000E-01  5.054871800000E-01
  13   1     2.504471400000E-01 -2.138273300000E-01  5.056272700000E-01
  14   1     4.389001600000E-01  5.924916200000E-01  5.055921200000E-01
  15   1     5.387908100000E-01  2.894593800000E-01  4.954091100000E-01
  16   1     1.569595500000E-01  1.015738800000E-01  4.944993200000E-01
  17   1     2.538813500000E-01  4.873910000000E-03  4.943592500000E-01
  18   1     4.423208500000E-01  3.869869800000E-01  4.943944000000E-01
  19   6     7.386940700000E-01  1.395200600000E-01  4.983835600000E-01
  20   6     7.941641600000E-01  8.810476000000E-02  4.955490500000E-01
  21   6    -9.886156000000E-02  3.026549800000E-01  4.953041900000E-01
  22   6     7.939765400000E-01  2.487100600000E-01  4.960390500000E-01
  23   6    -9.846835000000E-02  1.424297000000E-01  4.941493300000E-01
  24   6    -4.445042000000E-02  2.490320000000E-01  4.960740000000E-01
  25   6     3.998535800000E-01 -2.002345600000E-01  5.016029600000E-01
  26   6     4.521207400000E-01 -2.565898000000E-01  5.044374100000E-01
  27   6     2.376662600000E-01  6.363668100000E-01  5.046823700000E-01
  28   6     2.913810500000E-01 -2.562416900000E-01  5.039475400000E-01
  29   6     3.982294900000E-01  6.356172300000E-01  5.058371100000E-01
  30   6     2.910321500000E-01  5.821690500000E-01  5.039125000000E-01
  31   6     4.008486300000E-01  1.394509300000E-01  4.983835500000E-01
  32   6     4.548852500000E-01  2.489448700000E-01  4.955491100000E-01
  33   6     2.405737000000E-01  1.416417400000E-01  4.953041300000E-01
  34   6     2.938117200000E-01  8.770791000000E-02  4.960389700000E-01
  35   6     4.018482400000E-01  3.032776900000E-01  4.941494000000E-01
  36   6     2.934736700000E-01  2.489546000000E-01  4.960740000000E-01
  37   8     4.072715300000E-01 -2.659087000000E-02  4.992583900000E-01
  38   8     5.643556900000E-01 -3.030528000000E-02  5.053122200000E-01
  39   8     5.671608300000E-01  1.342552700000E-01  4.961790100000E-01
  40   8     1.268593500000E-01  4.126895900000E-01  4.992584200000E-01
  41   8     1.250179600000E-01  2.500120000000E-01  5.053122200000E-01
  42   8     2.867452600000E-01  4.145672500000E-01  4.961789800000E-01

 *******************************************************************************

 << INFORMATION >>: FROM NOW ON, ALL COORDINATES REFER TO THE PRIMITIVE CELL

 *******************************************************************************

 LATTICE PARAMETERS  (ANGSTROMS AND DEGREES) - PRIMITIVE CELL
       A          B          C        ALPHA      BETA     GAMMA        VOLUME
   15.02361   15.02392    8.73212    37.49132  89.99998 119.99596    684.194716

 COORDINATES OF THE EQUIVALENT ATOMS (FRACTIONAL UNITS)

 N. ATOM EQUIV AT. N.          X                  Y                  Z

   1   1   1    5 B     4.59570000000E-01 -8.09341800000E-02 -4.98642020000E-01

   2   2   1    5 B    -3.81374340000E-01  7.81254600000E-02 -4.98642000000E-01

   3   3   1    5 B     4.60447760000E-01  7.98724900000E-02  4.98488550000E-01

   4   4   1    5 B     7.31447100000E-02  3.05380810000E-01 -4.98642010000E-01

   5   5   1    5 B     2.32252680000E-01  3.05360050000E-01 -4.98642020000E-01

   6   6   1    5 B     2.33114990000E-01  4.66263470000E-01  4.98488550000E-01

   7   7   1    1 H    -2.49238300000E-01  4.33525000000E-03  4.95409060000E-01

   8   8   1    1 H    -5.53677600000E-02  3.87017950000E-01  4.94499370000E-01

   9   9   1    1 H    -2.48987840000E-01  2.90123020000E-01  4.94359370000E-01

  10  10   1    1 H    -5.52338100000E-02  1.01714060000E-01  4.94394290000E-01

  11  11   1    1 H    -4.64067750000E-01 -2.13227700000E-01 -4.95422580000E-01

  12  12   1    1 H     1.53549930000E-01 -4.07353870000E-01 -4.94512820000E-01

  13  13   1    1 H     2.50447140000E-01 -2.13827330000E-01 -4.94372730000E-01

  14  14   1    1 H     4.38900160000E-01 -4.07508380000E-01 -4.94407880000E-01

  15  15   1    1 H    -4.61209190000E-01  2.89459380000E-01  4.95409110000E-01

  16  16   1    1 H     1.56959550000E-01  1.01573880000E-01  4.94499320000E-01

  17  17   1    1 H     2.53881350000E-01  4.87391000000E-03  4.94359250000E-01

  18  18   1    1 H     4.42320850000E-01  3.86986980000E-01  4.94394400000E-01

  19  19   1    6 C    -2.61305930000E-01  1.39520060000E-01  4.98383560000E-01

  20  20   1    6 C    -2.05835840000E-01  8.81047600000E-02  4.95549050000E-01

  21  21   1    6 C    -9.88615600000E-02  3.02654980000E-01  4.95304190000E-01

  22  22   1    6 C    -2.06023460000E-01  2.48710060000E-01  4.96039050000E-01

  23  23   1    6 C    -9.84683500000E-02  1.42429700000E-01  4.94149330000E-01

  24  24   1    6 C    -4.44504200000E-02  2.49032000000E-01  4.96074000000E-01

  25  25   1    6 C     3.99853580000E-01 -2.00234560000E-01 -4.98397040000E-01

  26  26   1    6 C     4.52120740000E-01 -2.56589800000E-01 -4.95562590000E-01

  27  27   1    6 C     2.37666260000E-01 -3.63633190000E-01 -4.95317630000E-01

  28  28   1    6 C     2.91381050000E-01 -2.56241690000E-01 -4.96052460000E-01

  29  29   1    6 C     3.98229490000E-01 -3.64382770000E-01 -4.94162890000E-01

  30  30   1    6 C     2.91032150000E-01 -4.17830950000E-01 -4.96087500000E-01

  31  31   1    6 C     4.00848630000E-01  1.39450930000E-01  4.98383550000E-01

  32  32   1    6 C     4.54885250000E-01  2.48944870000E-01  4.95549110000E-01

  33  33   1    6 C     2.40573700000E-01  1.41641740000E-01  4.95304130000E-01

  34  34   1    6 C     2.93811720000E-01  8.77079100000E-02  4.96038970000E-01

  35  35   1    6 C     4.01848240000E-01  3.03277690000E-01  4.94149400000E-01

  36  36   1    6 C     2.93473670000E-01  2.48954600000E-01  4.96074000000E-01

  37  37   1    8 O     4.07271530000E-01 -2.65908700000E-02  4.99258390000E-01

  38  38   1    8 O    -4.35644310000E-01 -3.03052800000E-02 -4.94687780000E-01

  39  39   1    8 O    -4.32839170000E-01  1.34255270000E-01  4.96179010000E-01

  40  40   1    8 O     1.26859350000E-01  4.12689590000E-01  4.99258420000E-01

  41  41   1    8 O     1.25017960000E-01  2.50012000000E-01 -4.94687780000E-01

  42  42   1    8 O     2.86745260000E-01  4.14567250000E-01  4.96178980000E-01

 NUMBER OF SYMMETRY OPERATORS         :    1
 *******************************************************************************
 * GEOMETRY EDITING - INPUT COORDINATES ARE GIVEN IN ANGSTROM         
 *******************************************************************************

 GCALCO - MAX INDICES DIRECT LATTICE VECTOR     9    15    23
 NO.OF VECTORS CREATED 6999 STARS 3500 RMAX   212.81715 BOHR

 GEOMETRY FOR WAVE FUNCTION - DIMENSIONALITY OF THE SYSTEM    3
 (NON PERIODIC DIRECTION: LATTICE PARAMETER FORMALLY SET TO 500)
 *******************************************************************************
 LATTICE PARAMETERS (ANGSTROMS AND DEGREES) - BOHR = 0.5291772083 ANGSTROM
 PRIMITIVE CELL - CENTRING CODE 1/0 VOLUME=   684.194716 - DENSITY  0.947 g/cm^3
         A              B              C           ALPHA      BETA       GAMMA 
    15.02361100    15.02391600     8.73212500    37.491322  89.999977 119.995964
 *******************************************************************************
 ATOMS IN THE ASYMMETRIC UNIT   42 - ATOMS IN THE UNIT CELL:   42
     ATOM                 X/A                 Y/B                 Z/C    
 *******************************************************************************
      1 T   5 B     4.595700000000E-01 -8.093418000000E-02 -4.986420200000E-01
      2 T   5 B    -3.813743400000E-01  7.812546000000E-02 -4.986420000000E-01
      3 T   5 B     4.604477600000E-01  7.987249000000E-02  4.984885500000E-01
      4 T   5 B     7.314471000000E-02  3.053808100000E-01 -4.986420100000E-01
      5 T   5 B     2.322526800000E-01  3.053600500000E-01 -4.986420200000E-01
      6 T   5 B     2.331149900000E-01  4.662634700000E-01  4.984885500000E-01
      7 T   1 H    -2.492383000000E-01  4.335250000000E-03  4.954090600000E-01
      8 T   1 H    -5.536776000000E-02  3.870179500000E-01  4.944993700000E-01
      9 T   1 H    -2.489878400000E-01  2.901230200000E-01  4.943593700000E-01
     10 T   1 H    -5.523381000000E-02  1.017140600000E-01  4.943942900000E-01
     11 T   1 H    -4.640677500000E-01 -2.132277000000E-01 -4.954225800000E-01
     12 T   1 H     1.535499300000E-01 -4.073538700000E-01 -4.945128200000E-01
     13 T   1 H     2.504471400000E-01 -2.138273300000E-01 -4.943727300000E-01
     14 T   1 H     4.389001600000E-01 -4.075083800000E-01 -4.944078800000E-01
     15 T   1 H    -4.612091900000E-01  2.894593800000E-01  4.954091100000E-01
     16 T   1 H     1.569595500000E-01  1.015738800000E-01  4.944993200000E-01
     17 T   1 H     2.538813500000E-01  4.873910000000E-03  4.943592500000E-01
     18 T   1 H     4.423208500000E-01  3.869869800000E-01  4.943944000000E-01
     19 T   6 C    -2.613059300000E-01  1.395200600000E-01  4.983835600000E-01
     20 T   6 C    -2.058358400000E-01  8.810476000000E-02  4.955490500000E-01
     21 T   6 C    -9.886156000000E-02  3.026549800000E-01  4.953041900000E-01
     22 T   6 C    -2.060234600000E-01  2.487100600000E-01  4.960390500000E-01
     23 T   6 C    -9.846835000000E-02  1.424297000000E-01  4.941493300000E-01
     24 T   6 C    -4.445042000000E-02  2.490320000000E-01  4.960740000000E-01
     25 T   6 C     3.998535800000E-01 -2.002345600000E-01 -4.983970400000E-01
     26 T   6 C     4.521207400000E-01 -2.565898000000E-01 -4.955625900000E-01
     27 T   6 C     2.376662600000E-01 -3.636331900000E-01 -4.953176300000E-01
     28 T   6 C     2.913810500000E-01 -2.562416900000E-01 -4.960524600000E-01
     29 T   6 C     3.982294900000E-01 -3.643827700000E-01 -4.941628900000E-01
     30 T   6 C     2.910321500000E-01 -4.178309500000E-01 -4.960875000000E-01
     31 T   6 C     4.008486300000E-01  1.394509300000E-01  4.983835500000E-01
     32 T   6 C     4.548852500000E-01  2.489448700000E-01  4.955491100000E-01
     33 T   6 C     2.405737000000E-01  1.416417400000E-01  4.953041300000E-01
     34 T   6 C     2.938117200000E-01  8.770791000000E-02  4.960389700000E-01
     35 T   6 C     4.018482400000E-01  3.032776900000E-01  4.941494000000E-01
     36 T   6 C     2.934736700000E-01  2.489546000000E-01  4.960740000000E-01
     37 T   8 O     4.072715300000E-01 -2.659087000000E-02  4.992583900000E-01
     38 T   8 O    -4.356443100000E-01 -3.030528000000E-02 -4.946877800000E-01
     39 T   8 O    -4.328391700000E-01  1.342552700000E-01  4.961790100000E-01
     40 T   8 O     1.268593500000E-01  4.126895900000E-01  4.992584200000E-01
     41 T   8 O     1.250179600000E-01  2.500120000000E-01 -4.946877800000E-01
     42 T   8 O     2.867452600000E-01  4.145672500000E-01  4.961789800000E-01

 T = ATOM BELONGING TO THE ASYMMETRIC UNIT

 ****    1 SYMMOPS - TRANSLATORS IN FRACTIONAL UNITS
 **** MATRICES AND TRANSLATORS IN THE CRYSTALLOGRAPHIC REFERENCE FRAME
   V INV                    ROTATION MATRICES                   TRANSLATORS
   1   1  1.00 -0.00  0.00  0.00  1.00  0.00 -0.00  0.00  1.00  0.00  0.00  0.00

 DIRECT LATTICE VECTORS CARTESIAN COMPONENTS (ANGSTROM)
          X                    Y                    Z
   0.130113578931E+02  -0.751088897922E+01   0.000000000000E+00
   0.000000000000E+00   0.150239160000E+02   0.000000000000E+00
   0.399950480837E+01   0.692846558356E+01   0.350004756552E+01


 CARTESIAN COORDINATES - PRIMITIVE CELL
 *******************************************************************************
 *      ATOM          X(ANGSTROM)         Y(ANGSTROM)         Z(ANGSTROM)
 *******************************************************************************
    1     5 B    -1.419621810317E-02 -2.710122767461E-02 -5.245318353680E+00
    2     5 B     2.055333979063E+00  1.167948177469E+00 -5.245318283680E+00
    3     5 B    -1.027095135628E+00  6.108248996325E-01  5.244781201381E+00
    4     5 B    -1.042609116856E+00  5.838098364227E-01 -1.745270753164E+00
    5     5 B     1.027601584456E+00 -6.115444277367E-01 -1.745270788165E+00
    6     5 B     1.027345109399E+00  1.779497576781E+00 -1.755313929651E+00
    7     1 H    -5.261042612747E+00 -1.558907329059E+00 -1.766092291128E+00
    8     1 H    -2.742161941416E+00  2.728042552257E+00 -1.769276249398E+00
    9     1 H    -1.262477219881E+00 -5.369860213483E+00  1.730281309458E+00
   10     1 H    -2.740839337991E+00 -1.560073252318E+00 -1.769644034396E+00
   11     1 H    -4.020091764391E+00  3.777993584123E+00  1.766044970485E+00
   12     1 H     2.008669229323E-02  4.324354143849E+00 -1.730818391757E+00
   13     1 H     5.280916069440E+00 -1.590383369822E+00  1.769719495422E+00
   14     1 H     3.733300367724E+00  2.179525974043E+00 -1.730451096766E+00
   15     1 H    -4.019566717101E+00 -3.778586598766E+00  1.733955449390E+00
   16     1 H     2.050447948885E-02 -3.155212377210E+00 -1.769276424401E+00
   17     1 H     1.281028496290E+00 -5.336963953333E+00 -1.769766676063E+00
   18     1 H     3.733022854572E+00 -1.011233915384E+00 -1.769643649391E+00
   19     6 C    -5.406162338545E+00  5.833452509078E-01 -1.755681399645E+00
   20     6 C    -4.695757781570E+00 -6.253823900454E-01 -1.765602319470E+00
   21     6 C    -3.304856457885E+00  1.792833648222E+00 -1.766459341116E+00
   22     6 C    -4.696239215181E+00  1.792342287436E+00 -1.763887296162E+00
   23     6 C    -3.304359129971E+00 -6.253322639941E-01 -1.770501406048E+00
   24     6 C    -2.593814783179E+00  5.838640713504E-01 -1.763764969500E+00
   25     6 C    -7.902081321273E-01 -1.369239379208E+00 -5.244460912028E+00
   26     6 C    -9.880501090956E-02 -2.588850217873E+00 -5.234540202206E+00
   27     6 C     1.111335525109E+00  4.343845453277E+00 -1.733635265038E+00
   28     6 C    -2.192205882539E+00 -1.379716323766E+00 -5.236254770507E+00
   29     6 C     3.205099563286E+00  3.134611807995E+00 -1.729593620113E+00
   30     6 C     1.802619120414E+00  3.123423566783E+00 -1.736329846658E+00
   31     6 C     3.209367582139E+00 -4.391062808932E+00 -1.755681434645E+00
   32     6 C     3.901121027881E+00 -3.171536425484E+00 -1.765602109467E+00
   33     6 C     1.111656951527E+00 -3.175676713625E+00 -1.766459551119E+00
   34     6 C     1.807294879378E+00 -4.380747589148E+00 -1.763887576166E+00
   35     6 C     3.205439362318E+00 -1.966587450423E+00 -1.770501161045E+00
   36     6 C     1.803036492496E+00 -1.955409103141E+00 -1.763764969500E+00
   37     8 O    -1.715911116780E+00 -5.839371082771E-01  5.247475677998E+00
   38     8 O     1.365022898451E+00 -2.609375535367E-02 -5.231478325595E+00
   39     8 O     3.521497936736E-01  6.103556283938E-01  5.236697701526E+00
   40     8 O    -3.521059520302E-01  1.778016437121E+00 -1.752619348031E+00
   41     8 O    -3.518527341320E-01 -6.102639893140E-01 -1.731430760079E+00
   42     8 O     1.715910609950E+00  5.840051298302E-01 -1.763397534507E+00

 *******************************************************************************
 STARTING BASIS SET HANDLING 
 *******************************************************************************

 Loading internal basis set: SOLDEF2MSVP         

 Please cite in your publication:
 L. Dona', J. G. Brandenburg and B. Civalleri, J. Chem. Phys., 151, 121101 (2019
 )                                                                              
                                                                                
                    

 *******************************************************************************
 LOCAL ATOMIC FUNCTIONS BASIS SET
 *******************************************************************************
   ATOM   X(AU)   Y(AU)   Z(AU)  N. TYPE  EXPONENT  S COEF   P COEF   D/F/G COEF
 *******************************************************************************
   1 B   -0.027  -0.051  -9.912
                                  1 S  
                                         2.410E+03 1.755E-03 0.000E+00 0.000E+00
                                         3.619E+02 1.344E-02 0.000E+00 0.000E+00
                                         8.231E+01 6.637E-02 0.000E+00 0.000E+00
                                         2.311E+01 2.303E-01 0.000E+00 0.000E+00
                                         7.252E+00 5.150E-01 0.000E+00 0.000E+00
                                  2 S  
                                         2.367E+00 1.000E+00 0.000E+00 0.000E+00
                                  3 S  
                                         5.533E-01 1.000E+00 0.000E+00 0.000E+00
                                  4 S  
                                         1.716E-01 1.000E+00 0.000E+00 0.000E+00
                           5-     7 P  
                                         6.002E+00 0.000E+00-3.555E-02 0.000E+00
                                         1.240E+00 0.000E+00-1.983E-01 0.000E+00
                                         3.367E-01 0.000E+00-5.048E-01 0.000E+00
                           8-    10 P  
                                         1.256E-01 0.000E+00 1.000E+00 0.000E+00
                          11-    15 D  
                                         8.880E-01 0.000E+00 0.000E+00 1.000E+00
   2 B    3.884   2.207  -9.912
   3 B   -1.941   1.154   9.911
   4 B   -1.970   1.103  -3.298
   5 B    1.942  -1.156  -3.298
   6 B    1.941   3.363  -3.317
   7 H   -9.942  -2.946  -3.337
                                 91 S  
                                         1.874E+01 1.968E-02 0.000E+00 0.000E+00
                                         2.826E+00 1.380E-01 0.000E+00 0.000E+00
                                         6.401E-01 4.783E-01 0.000E+00 0.000E+00
                                 92 S  
                                         1.756E-01 1.000E+00 0.000E+00 0.000E+00
   8 H   -5.182   5.155  -3.343
   9 H   -2.386 -10.148   3.270
  10 H   -5.179  -2.948  -3.344
  11 H   -7.597   7.139   3.337
  12 H    0.038   8.172  -3.271
  13 H    9.979  -3.005   3.344
  14 H    7.055   4.119  -3.270
  15 H   -7.596  -7.140   3.277
  16 H    0.039  -5.962  -3.343
  17 H    2.421 -10.085  -3.344
  18 H    7.054  -1.911  -3.344
  19 C  -10.216   1.102  -3.318
                                115 S  
                                         3.624E+03 1.634E-03 0.000E+00 0.000E+00
                                         5.440E+02 1.252E-02 0.000E+00 0.000E+00
                                         1.237E+02 6.211E-02 0.000E+00 0.000E+00
                                         3.476E+01 2.182E-01 0.000E+00 0.000E+00
                                         1.093E+01 4.980E-01 0.000E+00 0.000E+00
                                116 S  
                                         3.574E+00 1.000E+00 0.000E+00 0.000E+00
                                117 S  
                                         7.742E-01 1.000E+00 0.000E+00 0.000E+00
                                118 S  
                                         2.330E-01 1.000E+00 0.000E+00 0.000E+00
                         119-   121 P  
                                         9.443E+00 0.000E+00 3.790E-02 0.000E+00
                                         2.002E+00 0.000E+00 2.082E-01 0.000E+00
                                         5.463E-01 0.000E+00 5.047E-01 0.000E+00
                         122-   124 P  
                                         1.820E-01 0.000E+00 1.000E+00 0.000E+00
                         125-   129 D  
                                         8.880E-01 0.000E+00 0.000E+00 1.000E+00
  20 C   -8.874  -1.182  -3.337
  21 C   -6.245   3.388  -3.338
  22 C   -8.875   3.387  -3.333
  23 C   -6.244  -1.182  -3.346
  24 C   -4.902   1.103  -3.333
  25 C   -1.493  -2.587  -9.911
  26 C   -0.187  -4.892  -9.892
  27 C    2.100   8.209  -3.276
  28 C   -4.143  -2.607  -9.895
  29 C    6.057   5.924  -3.268
  30 C    3.406   5.902  -3.281
  31 C    6.065  -8.298  -3.318
  32 C    7.372  -5.993  -3.337
  33 C    2.101  -6.001  -3.338
  34 C    3.415  -8.278  -3.333
  35 C    6.057  -3.716  -3.346
  36 C    3.407  -3.695  -3.333
  37 O   -3.243  -1.103   9.916
                                385 S  
                                         6.773E+03 1.727E-03 0.000E+00 0.000E+00
                                         1.017E+03 1.325E-02 0.000E+00 0.000E+00
                                         2.313E+02 6.603E-02 0.000E+00 0.000E+00
                                         6.501E+01 2.353E-01 0.000E+00 0.000E+00
                                         2.050E+01 5.498E-01 0.000E+00 0.000E+00
                                386 S  
                                         6.716E+00 1.000E+00 0.000E+00 0.000E+00
                                387 S  
                                         1.147E+00 1.000E+00 0.000E+00 0.000E+00
                                388 S  
                                         3.342E-01 1.000E+00 0.000E+00 0.000E+00
                         389-   391 P  
                                         1.769E+01 0.000E+00 4.359E-02 0.000E+00
                                         3.854E+00 0.000E+00 2.318E-01 0.000E+00
                                         1.047E+00 0.000E+00 5.146E-01 0.000E+00
                         392-   394 P  
                                         2.759E-01 0.000E+00 1.000E+00 0.000E+00
                         395-   399 D  
                                         8.000E-01 0.000E+00 0.000E+00 1.000E+00
  38 O    2.580  -0.049  -9.886
  39 O    0.665   1.153   9.896
  40 O   -0.665   3.360  -3.312
  41 O   -0.665  -1.153  -3.272
  42 O    3.243   1.104  -3.332

 *******************************************************************************
 FINISHED BASIS SET HANDLING 
 *******************************************************************************

 INFORMATION **** SET_MPP **** PCRYSTAL CALCULATION
 INFORMATION **** READM2 **** NEW DEFAULT: FOCK/KS MATRIX MIXING SET TO 30 %
 INFORMATION **** READM2 **** NEW DEFAULT: FULL DIRECT SCF MODE
 INFORMATION **** READM2 **** NEW DEFAULT: COULOMB BIPOLAR BUFFER SET TO 32 Mb
 INFORMATION **** READM2 **** NEW DEFAULT: EXCHANGE BIPOLAR BUFFER SET TO 32 Mb

 *******************************************************************************
 NEW DEFAULT: DFT INTEGRATION GRID INCREASED TO XLGRID
 NEW DEFAULT: DIIS ACCELERATOR ACTIVE
 USE KEYWORD NODIIS TO TURN IT OFF
 *******************************************************************************

 WARNING **** RDDFTP **** HSEsol-HJS ACTIVE
 RANGE SEPARATION - OMEGA:   0.110000000000000     
 WARNING **** RDDFTP **** HSEsol-3c has to be combined with sol-def2-mSVP basis set
 *******************************************************************************
 N. OF ATOMS PER CELL        42  COULOMB OVERLAP TOL         (T1) 10**   -6
 NUMBER OF SHELLS           234  COULOMB PENETRATION TOL     (T2) 10**   -6
 NUMBER OF AO               474  EXCHANGE OVERLAP TOL        (T3) 10**   -6
 N. OF ELECTRONS PER CELL   198  EXCHANGE PSEUDO OVP (F(G))  (T4) 10**   -6
 CORE ELECTRONS PER CELL     60  EXCHANGE PSEUDO OVP (P(G))  (T5) 10**  -12
 N. OF SYMMETRY OPERATORS     1  POLE ORDER IN MONO ZONE                  4
 *******************************************************************************
 TYPE OF CALCULATION :  RESTRICTED CLOSED SHELL
 KOHN-SHAM HAMILTONIAN

 (EXCHANGE)[CORRELATION] FUNCTIONAL:(HSEsol GGA)[PBEsol]

 RANGE-SEPARATED HYBRID FUNCTIONAL 
 OMEGA (SHORT-RANGE)[LONG-RANGE]:(    0.1100)[    0.0000]

 HYBRID EXCHANGE - PERCENTAGE OF FOCK EXCHANGE    25.0000

 CAPPA:IS1  2;IS2  2;IS3  8; K PTS MONK NET  20; SYMMOPS:K SPACE   2;G SPACE   1

 *******************************************************************************
 MAX NUMBER OF SCF CYCLES      50  CONVERGENCE ON DELTAP        10**-16
 WEIGHT OF F(I) IN F(I+1)      30% CONVERGENCE ON ENERGY        10**- 6
 SHRINK. FACT.(MONKH.)    2  2  8  NUMBER OF K POINTS IN THE IBZ     20
 SHRINKING FACTOR(GILAT NET)    8  NUMBER OF K POINTS(GILAT NET)   1028
 *******************************************************************************
 *** K POINTS COORDINATES (OBLIQUE COORDINATES IN UNITS OF IS =  2)
   1-R(  0  0  0)   2-R(  1  0  0)   3-R(  0  1  0)   4-R(  1  1  0)
   5-C(  0  0  1)   6-C(  1  0  1)   7-C(  0  1  1)   8-C(  1  1  1)
   9-C(  0  0  2)  10-C(  1  0  2)  11-C(  0  1  2)  12-C(  1  1  2)
  13-C(  0  0  3)  14-C(  1  0  3)  15-C(  0  1  3)  16-C(  1  1  3)
  17-R(  0  0  4)  18-R(  1  0  4)  19-R(  0  1  4)  20-R(  1  1  4)

 DIRECT LATTICE VECTORS COMPON. (A.U.)     RECIP. LATTICE VECTORS COMPON. (A.U.) 
        X            Y            Z              X            Y            Z
   24.5879030  -14.1935232    0.0000000      0.2555397    0.0000000   -0.2920052
    0.0000000   28.3910867    0.0000000      0.1277517    0.2213084   -0.5840695
    7.5579688   13.0929025    6.6141314      0.0000000    0.0000000    0.9499638

 DISK SPACE FOR EIGENVECTORS (FTN 10)     7189632 REALS

 SYMMETRY ADAPTION OF THE BLOCH FUNCTIONS DISABLED
 TTTTTTTTTTTTTTTTTTTTTTTTTTTTTT gordsh1     TELAPSE        0.04 TCPU        0.04

 MATRIX SIZE: P(G)  331792, F(G)   64201, P(G) IRR  167117, F(G) IRR   64681
 MAX G-VECTOR INDEX FOR 1- AND 2-ELECTRON INTEGRALS  59

 TTTTTTTTTTTTTTTTTTTTTTTTTTTTTT INPUT       TELAPSE        0.43 TCPU        0.43

 NEIGHBORS OF THE NON-EQUIVALENT ATOMS

 N = NUMBER OF NEIGHBORS AT DISTANCE R
    ATOM  N     R/ANG      R/AU   NEIGHBORS (ATOM LABELS AND CELL INDICES)
   1 B    1     1.3791     2.6061   37 O    1 2-3
   1 B    1     1.3793     2.6065   38 O    0 0 0
   1 B    1     1.5503     2.9297   25 C    0 0 0
   1 B    1     2.3895     4.5155    3 B    1 2-3
   1 B    1     2.3898     4.5160    2 B    0 0 0
   1 B    1     2.5632     4.8437   26 C    0 0 0

   2 B    1     1.3793     2.6065   39 O    1 2-3
   2 B    1     1.3793     2.6065   38 O    0 0 0
   2 B    1     1.5504     2.9298   19 C    1 1-1
   2 B    1     2.3895     4.5156    3 B    1 2-3
   2 B    1     2.3898     4.5160    1 B    0 0 0
   2 B    1     2.5634     4.8440   22 C    1 1-1

   3 B    1     1.3791     2.6061   37 O    0 0 0
   3 B    1     1.3793     2.6064   39 O    0 0 0
   3 B    1     1.5502     2.9294   31 C   -1-1 2
   3 B    1     2.3895     4.5155    1 B   -1-2 3
   3 B    1     2.3895     4.5156    2 B   -1-2 3
   3 B    1     2.5629     4.8433   32 C   -1-1 2

   4 B    1     1.3795     2.6068   40 O    0 0 0
   4 B    1     1.3795     2.6070   41 O    0 0 0
   4 B    1     1.5513     2.9316   24 C    0 0 0
   4 B    1     2.3905     4.5174    6 B    0 0 0
   4 B    1     2.3905     4.5175    5 B    0 0 0
   4 B    1     2.5648     4.8468   23 C    0 0 0

   5 B    1     1.3795     2.6069   41 O    0 0 0
   5 B    1     1.3797     2.6072   42 O    0 0 0
   5 B    1     1.5516     2.9322   36 C    0 0 0
   5 B    1     2.3905     4.5175    4 B    0 0 0
   5 B    1     2.3911     4.5185    6 B    0 0 0
   5 B    1     2.5651     4.8473   35 C    0 0 0

   6 B    1     1.3795     2.6068   40 O    0 0 0
   6 B    1     1.3796     2.6071   42 O    0 0 0
   6 B    1     1.5516     2.9322   30 C    0 0 0
   6 B    1     2.3905     4.5174    4 B    0 0 0
   6 B    1     2.3911     4.5185    5 B    0 0 0
   6 B    1     2.5651     4.8473   29 C    0 0 0

   7 H    1     1.0913     2.0623   20 C    0 0 0
   7 H    1     2.1472     4.0576   19 C    0 0 0
   7 H    1     2.1680     4.0969   23 C    0 0 0
   7 H    1     2.5202     4.7625   10 H    0 0 0
   7 H    1     2.5676     4.8520   38 O   -1-1 1
   7 H    1     2.7321     5.1630    2 B   -1-1 1

   8 H    1     1.0914     2.0625   21 C    0 0 0
   8 H    1     2.1493     4.0616   24 C    0 0 0
   8 H    1     2.1666     4.0942   22 C    0 0 0
   8 H    1     2.5198     4.7618    9 H    0 1-1
   8 H    1     2.5720     4.8604   40 O    0 0 0
   8 H    1     2.7362     5.1707    4 B    0 0 0

   9 H    1     1.0914     2.0624   22 C    0-1 1
   9 H    1     2.1471     4.0575   19 C    0-1 1
   9 H    1     2.1680     4.0970   21 C    0-1 1
   9 H    1     2.5198     4.7618    8 H    0-1 1
   9 H    1     2.5665     4.8500   39 O    0 0-1
   9 H    1     2.7315     5.1618    2 B   -1-2 2

  10 H    1     1.0915     2.0626   23 C    0 0 0
  10 H    1     2.1490     4.0610   24 C    0 0 0
  10 H    1     2.1669     4.0948   20 C    0 0 0
  10 H    1     2.5202     4.7625    7 H    0 0 0
  10 H    1     2.5712     4.8588   41 O    0 0 0
  10 H    1     2.7351     5.1686    4 B    0 0 0

  11 H    1     1.0913     2.0623   26 C   -1-1 2
  11 H    1     2.1469     4.0571   25 C   -1-1 2
  11 H    1     2.1680     4.0968   29 C   -1-1 1
  11 H    1     2.5198     4.7617   14 H   -1-1 1
  11 H    1     2.5670     4.8510   38 O   -1-1 2
  11 H    1     2.7310     5.1609    1 B   -1-1 2

  12 H    1     1.0914     2.0625   27 C    0 0 0
  12 H    1     2.1493     4.0617   30 C    0 0 0
  12 H    1     2.1664     4.0939   28 C    0 0 1
  12 H    1     2.5192     4.7606   13 H    0 1-1
  12 H    1     2.5735     4.8632   40 O    0 0 0
  12 H    1     2.7371     5.1723    6 B    0 0 0

  13 H    1     1.0914     2.0624   28 C    0-1 2
  13 H    1     2.1475     4.0581   25 C    0-1 2
  13 H    1     2.1679     4.0967   27 C    0-1 1
  13 H    1     2.5192     4.7606   12 H    0-1 1
  13 H    1     2.5675     4.8519   37 O    1 1-1
  13 H    1     2.7328     5.1643    1 B    0-1 2

  14 H    1     1.0914     2.0625   29 C    0 0 0
  14 H    1     2.1491     4.0612   30 C    0 0 0
  14 H    1     2.1666     4.0942   26 C    0 0 1
  14 H    1     2.5198     4.7617   11 H    1 1-1
  14 H    1     2.5723     4.8609   42 O    0 0 0
  14 H    1     2.7355     5.1693    6 B    0 0 0

  15 H    1     1.0914     2.0624   32 C   -1-1 1
  15 H    1     2.1475     4.0582   31 C   -1-1 1
  15 H    1     2.1678     4.0966   35 C   -1-1 1
  15 H    1     2.5200     4.7621   18 H   -1-1 1
  15 H    1     2.5667     4.8503   39 O    0 0-1
  15 H    1     2.7315     5.1618    3 B    0 0-1

  16 H    1     1.0913     2.0623   33 C    0 0 0
  16 H    1     2.1487     4.0605   36 C    0 0 0
  16 H    1     2.1667     4.0945   34 C    0 0 0
  16 H    1     2.5197     4.7616   17 H    0 0 0
  16 H    1     2.5723     4.8610   41 O    0 0 0
  16 H    1     2.7359     5.1701    5 B    0 0 0

  17 H    1     1.0915     2.0626   34 C    0 0 0
  17 H    1     2.1479     4.0589   31 C    0 0 0
  17 H    1     2.1679     4.0968   33 C    0 0 0
  17 H    1     2.5197     4.7616   16 H    0 0 0
  17 H    1     2.5677     4.8522   37 O    1 1-2
  17 H    1     2.7331     5.1648    3 B    1 1-2

  18 H    1     1.0914     2.0624   35 C    0 0 0
  18 H    1     2.1486     4.0602   36 C    0 0 0
  18 H    1     2.1668     4.0947   32 C    0 0 0
  18 H    1     2.5200     4.7621   15 H    1 1-1
  18 H    1     2.5717     4.8598   42 O    0 0 0
  18 H    1     2.7349     5.1682    5 B    0 0 0

  19 C    1     1.4020     2.6495   22 C    0 0 0
  19 C    1     1.4021     2.6495   20 C    0 0 0
  19 C    1     1.5504     2.9298    2 B   -1-1 1
  19 C    1     2.1471     4.0575    9 H    0 1-1
  19 C    1     2.1472     4.0576    7 H    0 0 0
  19 C    1     2.4246     4.5817   21 C    0 0 0

  20 C    1     1.0913     2.0623    7 H    0 0 0
  20 C    1     1.3914     2.6294   23 C    0 0 0
  20 C    1     1.4021     2.6495   19 C    0 0 0
  20 C    1     2.1669     4.0948   10 H    0 0 0
  20 C    1     2.4177     4.5688   22 C    0 0 0
  20 C    1     2.4250     4.5825   24 C    0 0 0

  21 C    1     1.0914     2.0625    8 H    0 0 0
  21 C    1     1.3914     2.6293   22 C    0 0 0
  21 C    1     1.4026     2.6505   24 C    0 0 0
  21 C    1     2.1680     4.0970    9 H    0 1-1
  21 C    1     2.4182     4.5697   23 C    0 0 0
  21 C    1     2.4246     4.5817   19 C    0 0 0

  22 C    1     1.0914     2.0624    9 H    0 1-1
  22 C    1     1.3914     2.6293   21 C    0 0 0
  22 C    1     1.4020     2.6495   19 C    0 0 0
  22 C    1     2.1666     4.0942    8 H    0 0 0
  22 C    1     2.4177     4.5688   20 C    0 0 0
  22 C    1     2.4250     4.5826   24 C    0 0 0

  23 C    1     1.0915     2.0626   10 H    0 0 0
  23 C    1     1.3914     2.6294   20 C    0 0 0
  23 C    1     1.4025     2.6504   24 C    0 0 0
  23 C    1     2.1680     4.0969    7 H    0 0 0
  23 C    1     2.4182     4.5697   21 C    0 0 0
  23 C    1     2.4246     4.5818   19 C    0 0 0

  24 C    1     1.4025     2.6504   23 C    0 0 0
  24 C    1     1.4026     2.6505   21 C    0 0 0
  24 C    1     1.5513     2.9316    4 B    0 0 0
  24 C    1     2.1490     4.0610   10 H    0 0 0
  24 C    1     2.1493     4.0616    8 H    0 0 0
  24 C    1     2.4250     4.5825   20 C    0 0 0

  25 C    1     1.4020     2.6494   26 C    0 0 0
  25 C    1     1.4021     2.6495   28 C    0 0 0
  25 C    1     1.5503     2.9297    1 B    0 0 0
  25 C    1     2.1469     4.0571   11 H    1 1-2
  25 C    1     2.1475     4.0581   13 H    0 1-2
  25 C    1     2.4246     4.5818   27 C    0 0-1

  26 C    1     1.0913     2.0623   11 H    1 1-2
  26 C    1     1.3914     2.6293   29 C    0 0-1
  26 C    1     1.4020     2.6494   25 C    0 0 0
  26 C    1     2.1666     4.0942   14 H    0 0-1
  26 C    1     2.4175     4.5684   28 C    0 0 0
  26 C    1     2.4251     4.5828   30 C    0 0-1

  27 C    1     1.0914     2.0625   12 H    0 0 0
  27 C    1     1.3915     2.6295   28 C    0 0 1
  27 C    1     1.4026     2.6505   30 C    0 0 0
  27 C    1     2.1679     4.0967   13 H    0 1-1
  27 C    1     2.4179     4.5691   29 C    0 0 0
  27 C    1     2.4246     4.5818   25 C    0 0 1

  28 C    1     1.0914     2.0624   13 H    0 1-2
  28 C    1     1.3915     2.6295   27 C    0 0-1
  28 C    1     1.4021     2.6495   25 C    0 0 0
  28 C    1     2.1664     4.0939   12 H    0 0-1
  28 C    1     2.4175     4.5684   26 C    0 0 0
  28 C    1     2.4253     4.5832   30 C    0 0-1

  29 C    1     1.0914     2.0625   14 H    0 0 0
  29 C    1     1.3914     2.6293   26 C    0 0 1
  29 C    1     1.4025     2.6504   30 C    0 0 0
  29 C    1     2.1680     4.0968   11 H    1 1-1
  29 C    1     2.4179     4.5691   27 C    0 0 0
  29 C    1     2.4247     4.5819   25 C    0 0 1

  30 C    1     1.4025     2.6504   29 C    0 0 0
  30 C    1     1.4026     2.6505   27 C    0 0 0
  30 C    1     1.5516     2.9322    6 B    0 0 0
  30 C    1     2.1491     4.0612   14 H    0 0 0
  30 C    1     2.1493     4.0617   12 H    0 0 0
  30 C    1     2.4251     4.5828   26 C    0 0 1

  31 C    1     1.4021     2.6496   32 C    0 0 0
  31 C    1     1.4021     2.6497   34 C    0 0 0
  31 C    1     1.5502     2.9294    3 B    1 1-2
  31 C    1     2.1475     4.0582   15 H    1 1-1
  31 C    1     2.1479     4.0589   17 H    0 0 0
  31 C    1     2.4244     4.5814   33 C    0 0 0

  32 C    1     1.0914     2.0624   15 H    1 1-1
  32 C    1     1.3914     2.6293   35 C    0 0 0
  32 C    1     1.4021     2.6496   31 C    0 0 0
  32 C    1     2.1668     4.0947   18 H    0 0 0
  32 C    1     2.4179     4.5692   34 C    0 0 0
  32 C    1     2.4251     4.5827   36 C    0 0 0

  33 C    1     1.0913     2.0623   16 H    0 0 0
  33 C    1     1.3914     2.6294   34 C    0 0 0
  33 C    1     1.4025     2.6504   36 C    0 0 0
  33 C    1     2.1679     4.0968   17 H    0 0 0
  33 C    1     2.4178     4.5690   35 C    0 0 0
  33 C    1     2.4244     4.5814   31 C    0 0 0

  34 C    1     1.0915     2.0626   17 H    0 0 0
  34 C    1     1.3914     2.6294   33 C    0 0 0
  34 C    1     1.4021     2.6497   31 C    0 0 0
  34 C    1     2.1667     4.0945   16 H    0 0 0
  34 C    1     2.4179     4.5692   32 C    0 0 0
  34 C    1     2.4253     4.5832   36 C    0 0 0

  35 C    1     1.0914     2.0624   18 H    0 0 0
  35 C    1     1.3914     2.6293   32 C    0 0 0
  35 C    1     1.4025     2.6503   36 C    0 0 0
  35 C    1     2.1678     4.0966   15 H    1 1-1
  35 C    1     2.4178     4.5690   33 C    0 0 0
  35 C    1     2.4245     4.5817   31 C    0 0 0

  36 C    1     1.4025     2.6503   35 C    0 0 0
  36 C    1     1.4025     2.6504   33 C    0 0 0
  36 C    1     1.5516     2.9322    5 B    0 0 0
  36 C    1     2.1486     4.0602   18 H    0 0 0
  36 C    1     2.1487     4.0605   16 H    0 0 0
  36 C    1     2.4251     4.5827   32 C    0 0 0

  37 O    1     1.3791     2.6061    1 B   -1-2 3
  37 O    1     1.3791     2.6061    3 B    0 0 0
  37 O    1     2.3880     4.5126   38 O   -1-2 3
  37 O    1     2.3882     4.5130   39 O    0 0 0
  37 O    1     2.5383     4.7966   31 C   -1-1 2
  37 O    1     2.5384     4.7968   25 C   -1-2 3

  38 O    1     1.3793     2.6065    1 B    0 0 0
  38 O    1     1.3793     2.6065    2 B    0 0 0
  38 O    1     2.3880     4.5126   37 O    1 2-3
  38 O    1     2.3882     4.5131   39 O    1 2-3
  38 O    1     2.5391     4.7981   19 C    1 1-1
  38 O    1     2.5395     4.7990   25 C    0 0 0

  39 O    1     1.3793     2.6064    3 B    0 0 0
  39 O    1     1.3793     2.6065    2 B   -1-2 3
  39 O    1     2.3882     4.5130   37 O    0 0 0
  39 O    1     2.3882     4.5131   38 O   -1-2 3
  39 O    1     2.5390     4.7980   19 C    0-1 2
  39 O    1     2.5391     4.7982   31 C   -1-1 2

  40 O    1     1.3795     2.6068    6 B    0 0 0
  40 O    1     1.3795     2.6068    4 B    0 0 0
  40 O    1     2.3880     4.5126   42 O    0 0 0
  40 O    1     2.3884     4.5134   41 O    0 0 0
  40 O    1     2.5400     4.7998   24 C    0 0 0
  40 O    1     2.5403     4.8005   30 C    0 0 0

  41 O    1     1.3795     2.6069    5 B    0 0 0
  41 O    1     1.3795     2.6070    4 B    0 0 0
  41 O    1     2.3881     4.5128   42 O    0 0 0
  41 O    1     2.3884     4.5134   40 O    0 0 0
  41 O    1     2.5404     4.8006   24 C    0 0 0
  41 O    1     2.5405     4.8008   36 C    0 0 0

  42 O    1     1.3796     2.6071    6 B    0 0 0
  42 O    1     1.3797     2.6072    5 B    0 0 0
  42 O    1     2.3880     4.5126   40 O    0 0 0
  42 O    1     2.3881     4.5128   41 O    0 0 0
  42 O    1     2.5409     4.8016   36 C    0 0 0
  42 O    1     2.5410     4.8019   30 C    0 0 0


 SYMMETRY ALLOWED INTERNAL DEGREE(S) OF FREEDOM: 123
 TTTTTTTTTTTTTTTTTTTTTTTTTTTTTT SYMM        TELAPSE        0.43 TCPU        0.43
 TTTTTTTTTTTTTTTTTTTTTTTTTTTTTT INT_SCREEN  TELAPSE        0.47 TCPU        0.46

 DFT PARAMETERS

     ATOM       ELECTRONS   NET CHARGE   R(ANGSTROM)
   1   5  B       5.0000      0.0000     0.89000000
   7   1  H       1.0000      0.0000     1.11000000
  19   6  C       6.0000      0.0000     0.77000000
  37   8  O       8.0000      0.0000     0.74000000

 SIZE OF GRID=    1293981
 TTTTTTTTTTTTTTTTTTTTTTTTTTTTTT MAKE_GRID2  TELAPSE        9.44 TCPU        9.43
 BECKE WEIGHT FUNCTION
 RADSAFE =     2.00
 TOLERANCES - DENSITY:10**- 6; POTENTIAL:10**- 9; GRID WGT:10**-14

 RADIAL INTEGRATION  - INTERVALS (POINTS,UPPER LIMIT):            1( 75,  4.0*R)

 ANGULAR INTEGRATION - INTERVALS (ACCURACY LEVEL [N. POINTS] UPPER LIMIT):
  1(  4[  86]   0.2)  2(  8[ 194]   0.5)  3( 12[ 350]   0.9)  4( 16[ 974]   3.5)
  5( 12[ 350]9999.0)
 TTTTTTTTTTTTTTTTTTTTTTTTTTTTTT INT_CALC    TELAPSE        9.51 TCPU        9.50
 EEEEEEEEEE INT_CALC TERMINATION  DATE 19 02 2026 TIME 18:32:30.7

 *******************************************************************************
 cof-1_z35_L080_incl                                                             
 CRYSTAL - SCF - TYPE OF CALCULATION :  RESTRICTED CLOSED SHELL
 *******************************************************************************

 CAPPA:IS1  2;IS2  2;IS3  8; K PTS MONK NET  20; SYMMOPS:K SPACE   2;G SPACE   1

 TTTTTTTTTTTTTTTTTTTTTTTTTTTTTT SDIK        TELAPSE       10.09 TCPU       17.56

 AAAAAAAAAAAAAAAAAAAAAAAAAAAAAAAAAAAAAAAAAAAAAAAAAAAAAAAAAAAAAAAAAAAAAAAAAAAAAAA
         ATOMIC WAVEFUNCTION(S)


 NUCLEAR CHARGE  5.0  SYMMETRY SPECIES            S    P
 N. ELECTRONS    5.0  NUMBER OF PRIMITIVE GTOS    8    4
                      NUMBER OF CONTRACTED GTOS   4    2
                      NUMBER OF CLOSED SHELLS     2    0
                      OPEN SHELL OCCUPATION       0    1

  ZNUC  SCFIT    TOTAL HF ENERGY   KINETIC ENERGY   VIRIAL THEOREM ACCURACY
   5.0    11    -2.451164084E+01  2.462155050E+01 -1.995536038E+00  1.5E-06

 NUCLEAR CHARGE  1.0  SYMMETRY SPECIES            S
 N. ELECTRONS    1.0  NUMBER OF PRIMITIVE GTOS    4
                      NUMBER OF CONTRACTED GTOS   2
                      NUMBER OF CLOSED SHELLS     0
                      OPEN SHELL OCCUPATION       1

  ZNUC  SCFIT    TOTAL HF ENERGY   KINETIC ENERGY   VIRIAL THEOREM ACCURACY
   1.0     1    -4.977266687E-01  5.190767460E-01 -1.958869132E+00  0.0E+00

 NUCLEAR CHARGE  6.0  SYMMETRY SPECIES            S    P
 N. ELECTRONS    6.0  NUMBER OF PRIMITIVE GTOS    8    4
                      NUMBER OF CONTRACTED GTOS   4    2
                      NUMBER OF CLOSED SHELLS     2    0
                      OPEN SHELL OCCUPATION       0    2

  ZNUC  SCFIT    TOTAL HF ENERGY   KINETIC ENERGY   VIRIAL THEOREM ACCURACY
   6.0     9    -3.766704647E+01  3.775180683E+01 -1.997754800E+00  1.1E-06

 NUCLEAR CHARGE  8.0  SYMMETRY SPECIES            S    P
 N. ELECTRONS    8.0  NUMBER OF PRIMITIVE GTOS    8    4
                      NUMBER OF CONTRACTED GTOS   4    2
                      NUMBER OF CLOSED SHELLS     2    0
                      OPEN SHELL OCCUPATION       0    4

  ZNUC  SCFIT    TOTAL HF ENERGY   KINETIC ENERGY   VIRIAL THEOREM ACCURACY
   8.0    12    -7.477373220E+01  7.477365593E+01 -2.000001020E+00  3.8E-06

 AAAAAAAAAAAAAAAAAAAAAAAAAAAAAAAAAAAAAAAAAAAAAAAAAAAAAAAAAAAAAAAAAAAAAAAAAAAAAAA

 CHARGE NORMALIZATION FACTOR   1.00000000
 TOTAL ATOMIC CHARGES:
   5.0000000   5.0000000   5.0000000   5.0000000   5.0000000   5.0000000
   1.0000000   1.0000000   1.0000000   1.0000000   1.0000000   1.0000000
   1.0000000   1.0000000   1.0000000   1.0000000   1.0000000   1.0000000
   6.0000000   6.0000000   6.0000000   6.0000000   6.0000000   6.0000000
   6.0000000   6.0000000   6.0000000   6.0000000   6.0000000   6.0000000
   6.0000000   6.0000000   6.0000000   6.0000000   6.0000000   6.0000000
   8.0000000   8.0000000   8.0000000   8.0000000   8.0000000   8.0000000
 TTTTTTTTTTTTTTTTTTTTTTTTTTTTTT MOQGAD      TELAPSE       10.13 TCPU       19.01
 TTTTTTTTTTTTTTTTTTTTTTTTTTTTTT SHELLXN     TELAPSE       17.32 TCPU      248.67
 TTTTTTTTTTTTTTTTTTTTTTTTTTTTTT MONMO3      TELAPSE       17.46 TCPU      253.25
 NUMERICALLY INTEGRATED DENSITY    197.9999807685
 TTTTTTTTTTTTTTTTTTTTTTTTTTTTTT NUMDFT      TELAPSE       18.11 TCPU      273.99
 CYC   0 ETOT(AU) -1.295964338117E+03 DETOT -1.30E+03 tst  0.00E+00 PX  1.00E+00
 TTTTTTTTTTTTTTTTTTTTTTTTTTTTTT DIIS        TELAPSE       18.15 TCPU      275.20
 TTTTTTTTTTTTTTTTTTTTTTTTTTTTTT FDIK        TELAPSE       18.62 TCPU      290.22
 INSULATING STATE
 TOP OF VALENCE BANDS -    BAND     99; K    1; EIG -3.0791988E-01 AU
 BOTTOM OF VIRTUAL BANDS - BAND    100; K    1; EIG -1.6021772E-01 AU
 DIRECT ENERGY BAND GAP:   4.0192 eV
 TTTTTTTTTTTTTTTTTTTTTTTTTTTTTT PDIG        TELAPSE       18.96 TCPU      296.30
 CHARGE NORMALIZATION FACTOR   1.00000000
 TOTAL ATOMIC CHARGES:
   4.1475442   4.1559256   4.1565115   4.1559339   4.1556254   4.1464014
   0.7854828   0.7856129   0.7855545   0.7857133   0.7856956   0.7858582
   0.7856882   0.7858118   0.7855594   0.7857862   0.7854327   0.7856020
   6.0432786   6.2670117   6.2669162   6.2661001   6.2660420   6.0428711
   6.0470790   6.2671405   6.2673714   6.2670771   6.2673444   6.0456806
   6.0438109   6.2657968   6.2664164   6.2665765   6.2671865   6.0424298
   8.6976451   8.6979317   8.6977960   8.6981610   8.6981306   8.6984663
 TTTTTTTTTTTTTTTTTTTTTTTTTTTTTT MOQGAD      TELAPSE       19.01 TCPU      296.35
 TTTTTTTTTTTTTTTTTTTTTTTTTTTTTT SHELLXN     TELAPSE       26.48 TCPU      534.70
 TTTTTTTTTTTTTTTTTTTTTTTTTTTTTT MONMO3      TELAPSE       26.63 TCPU      539.26
 NUMERICALLY INTEGRATED DENSITY    197.9999946692
 TTTTTTTTTTTTTTTTTTTTTTTTTTTTTT NUMDFT      TELAPSE       27.28 TCPU      560.29
 CYC   1 ETOT(AU) -1.288819528253E+03 DETOT  7.14E+00 tst  0.00E+00 PX  1.00E+00
 TTTTTTTTTTTTTTTTTTTTTTTTTTTTTT DIIS        TELAPSE       27.33 TCPU      561.82
 DIIS TEST: 0.11122E+01 AT SCF   CYCLE   1 - MIX   30 %
 TTTTTTTTTTTTTTTTTTTTTTTTTTTTTT FDIK        TELAPSE       27.81 TCPU      577.22
 INSULATING STATE
 TOP OF VALENCE BANDS -    BAND     99; K    1; EIG -2.1898109E-01 AU
 BOTTOM OF VIRTUAL BANDS - BAND    100; K    1; EIG -8.5980796E-02 AU
 DIRECT ENERGY BAND GAP:   3.6191 eV
 TTTTTTTTTTTTTTTTTTTTTTTTTTTTTT PDIG        TELAPSE       28.16 TCPU      583.30
 CHARGE NORMALIZATION FACTOR   1.00000000
 TOTAL ATOMIC CHARGES:
   4.7086666   4.7011309   4.7021090   4.7019088   4.7009613   4.7086628
   0.9053657   0.9054523   0.9053547   0.9049457   0.9042739   0.9047341
   0.9042666   0.9045937   0.9052321   0.9050153   0.9054453   0.9054720
   5.8725998   6.1409607   6.1411545   6.1311789   6.1314063   5.8755710
   5.8838353   6.1294264   6.1311663   6.1299578   6.1312460   5.8873149
   5.8729309   6.1312923   6.1314542   6.1412233   6.1406151   5.8752406
   8.3412026   8.3418174   8.3360759   8.3414267   8.3351689   8.3421432
 TTTTTTTTTTTTTTTTTTTTTTTTTTTTTT MOQGAD      TELAPSE       28.21 TCPU      583.34
 TTTTTTTTTTTTTTTTTTTTTTTTTTTTTT SHELLXN     TELAPSE       35.68 TCPU      821.70
 TTTTTTTTTTTTTTTTTTTTTTTTTTTTTT MONMO3      TELAPSE       35.82 TCPU      826.26
 NUMERICALLY INTEGRATED DENSITY    197.9999918685
 TTTTTTTTTTTTTTTTTTTTTTTTTTTTTT NUMDFT      TELAPSE       36.49 TCPU      847.32
 CYC   2 ETOT(AU) -1.289012675269E+03 DETOT -1.93E-01 tst  3.39E-03 PX  1.58E-01
 TTTTTTTTTTTTTTTTTTTTTTTTTTTTTT DIIS        TELAPSE       36.54 TCPU      848.93
 DIIS TEST: 0.46323E+00 AT SCF   CYCLE   2 - DIIS ACTIVE - HISTORY:     2 CYCLES
 TTTTTTTTTTTTTTTTTTTTTTTTTTTTTT FDIK        TELAPSE       37.02 TCPU      864.30
 INSULATING STATE
 TOP OF VALENCE BANDS -    BAND     99; K    1; EIG -2.3227080E-01 AU
 BOTTOM OF VIRTUAL BANDS - BAND    100; K    1; EIG -8.0098803E-02 AU
 DIRECT ENERGY BAND GAP:   4.1408 eV
 TTTTTTTTTTTTTTTTTTTTTTTTTTTTTT PDIG        TELAPSE       37.36 TCPU      870.38
 CHARGE NORMALIZATION FACTOR   1.00000000
 TOTAL ATOMIC CHARGES:
   4.4942218   4.4931075   4.4939291   4.4938638   4.4930924   4.4937172
   0.8847136   0.8848938   0.8848999   0.8847012   0.8831613   0.8838683
   0.8831907   0.8837139   0.8848076   0.8847445   0.8848476   0.8848081
   5.8908599   6.1654362   6.1648501   6.1643255   6.1645080   5.8907962
   5.8916226   6.1663831   6.1657922   6.1663250   6.1659033   5.8902385
   5.8908877   6.1642557   6.1647622   6.1649952   6.1650499   5.8908325
   8.5151293   8.5156471   8.5178153   8.5153713   8.5180627   8.5158683
 TTTTTTTTTTTTTTTTTTTTTTTTTTTTTT MOQGAD      TELAPSE       37.41 TCPU      870.43
 TTTTTTTTTTTTTTTTTTTTTTTTTTTTTT SHELLXN     TELAPSE       44.88 TCPU     1108.72
 TTTTTTTTTTTTTTTTTTTTTTTTTTTTTT MONMO3      TELAPSE       45.02 TCPU     1113.28
 NUMERICALLY INTEGRATED DENSITY    197.9999925044
 TTTTTTTTTTTTTTTTTTTTTTTTTTTTTT NUMDFT      TELAPSE       45.68 TCPU     1134.34
 CYC   3 ETOT(AU) -1.289107723699E+03 DETOT -9.50E-02 tst  7.22E-04 PX  6.39E-02
 TTTTTTTTTTTTTTTTTTTTTTTTTTTTTT DIIS        TELAPSE       45.74 TCPU     1136.23
 DIIS TEST: 0.13382E-01 AT SCF   CYCLE   3 - DIIS ACTIVE - HISTORY:     3 CYCLES
 TTTTTTTTTTTTTTTTTTTTTTTTTTTTTT FDIK        TELAPSE       46.22 TCPU     1151.61
 INSULATING STATE
 TOP OF VALENCE BANDS -    BAND     99; K    1; EIG -2.4110313E-01 AU
 BOTTOM OF VIRTUAL BANDS - BAND    100; K    1; EIG -8.8519781E-02 AU
 DIRECT ENERGY BAND GAP:   4.1520 eV
 TTTTTTTTTTTTTTTTTTTTTTTTTTTTTT PDIG        TELAPSE       46.57 TCPU     1157.69
 CHARGE NORMALIZATION FACTOR   1.00000000
 TOTAL ATOMIC CHARGES:
   4.5009593   4.4984920   4.4993870   4.4991498   4.4982113   4.5004396
   0.8680762   0.8681159   0.8685252   0.8683382   0.8674060   0.8677437
   0.8673993   0.8676189   0.8684419   0.8684078   0.8681285   0.8681229
   5.9417142   6.1716406   6.1720843   6.1653322   6.1654271   5.9433453
   5.9487293   6.1649303   6.1662264   6.1652376   6.1661878   5.9513667
   5.9422951   6.1652773   6.1655822   6.1717516   6.1717777   5.9428053
   8.4854725   8.4859544   8.4811828   8.4858143   8.4805165   8.4863854
 TTTTTTTTTTTTTTTTTTTTTTTTTTTTTT MOQGAD      TELAPSE       46.61 TCPU     1157.74
 TTTTTTTTTTTTTTTTTTTTTTTTTTTTTT SHELLXN     TELAPSE       54.09 TCPU     1396.10
 TTTTTTTTTTTTTTTTTTTTTTTTTTTTTT MONMO3      TELAPSE       54.23 TCPU     1400.67
 NUMERICALLY INTEGRATED DENSITY    197.9999924005
 TTTTTTTTTTTTTTTTTTTTTTTTTTTTTT NUMDFT      TELAPSE       54.89 TCPU     1421.69
 CYC   4 ETOT(AU) -1.289110528703E+03 DETOT -2.81E-03 tst  3.65E-05 PX  1.33E-02
 TTTTTTTTTTTTTTTTTTTTTTTTTTTTTT DIIS        TELAPSE       54.95 TCPU     1423.67
 DIIS TEST: 0.37646E-02 AT SCF   CYCLE   4 - DIIS ACTIVE - HISTORY:     4 CYCLES
 TTTTTTTTTTTTTTTTTTTTTTTTTTTTTT FDIK        TELAPSE       55.43 TCPU     1439.03
 INSULATING STATE
 TOP OF VALENCE BANDS -    BAND     99; K    1; EIG -2.3969331E-01 AU
 BOTTOM OF VIRTUAL BANDS - BAND    100; K    1; EIG -8.8392939E-02 AU
 DIRECT ENERGY BAND GAP:   4.1171 eV
 TTTTTTTTTTTTTTTTTTTTTTTTTTTTTT PDIG        TELAPSE       55.77 TCPU     1445.11
 CHARGE NORMALIZATION FACTOR   1.00000000
 TOTAL ATOMIC CHARGES:
   4.5045892   4.5010916   4.5019737   4.5018824   4.5010095   4.5041905
   0.8707666   0.8709350   0.8709989   0.8707745   0.8694902   0.8701125
   0.8695075   0.8699640   0.8709116   0.8708272   0.8708827   0.8708799
   5.9220909   6.1722148   6.1717900   6.1678075   6.1680248   5.9226429
   5.9268740   6.1687830   6.1686449   6.1688376   6.1687867   5.9265256
   5.9221608   6.1677355   6.1682494   6.1718918   6.1718817   5.9226166
   8.4933654   8.4939270   8.4933169   8.4935785   8.4933015   8.4941648
 TTTTTTTTTTTTTTTTTTTTTTTTTTTTTT MOQGAD      TELAPSE       55.82 TCPU     1445.16
 TTTTTTTTTTTTTTTTTTTTTTTTTTTTTT SHELLXN     TELAPSE       63.30 TCPU     1683.53
 TTTTTTTTTTTTTTTTTTTTTTTTTTTTTT MONMO3      TELAPSE       63.44 TCPU     1688.10
 NUMERICALLY INTEGRATED DENSITY    197.9999925368
 TTTTTTTTTTTTTTTTTTTTTTTTTTTTTT NUMDFT      TELAPSE       64.10 TCPU     1709.14
 CYC   5 ETOT(AU) -1.289111393449E+03 DETOT -8.65E-04 tst  6.63E-06 PX  6.85E-03
 TTTTTTTTTTTTTTTTTTTTTTTTTTTTTT DIIS        TELAPSE       64.17 TCPU     1711.38
 DIIS TEST: 0.76846E-04 AT SCF   CYCLE   5 - DIIS ACTIVE - HISTORY:     5 CYCLES
 TTTTTTTTTTTTTTTTTTTTTTTTTTTTTT FDIK        TELAPSE       64.65 TCPU     1726.75
 INSULATING STATE
 TOP OF VALENCE BANDS -    BAND     99; K    1; EIG -2.3955873E-01 AU
 BOTTOM OF VIRTUAL BANDS - BAND    100; K    1; EIG -8.7809362E-02 AU
 DIRECT ENERGY BAND GAP:   4.1293 eV
 TTTTTTTTTTTTTTTTTTTTTTTTTTTTTT PDIG        TELAPSE       65.00 TCPU     1732.84
 CHARGE NORMALIZATION FACTOR   1.00000000
 TOTAL ATOMIC CHARGES:
   4.5034607   4.5009497   4.5018280   4.5016312   4.5007554   4.5029310
   0.8716945   0.8717482   0.8718894   0.8716900   0.8705773   0.8710039
   0.8705686   0.8708805   0.8717929   0.8717524   0.8717578   0.8717456
   5.9223862   6.1714923   6.1717828   6.1670701   6.1671491   5.9235173
   5.9263279   6.1674596   6.1684531   6.1677206   6.1683922   5.9282331
   5.9229085   6.1670407   6.1673185   6.1715214   6.1715346   5.9230361
   8.4934998   8.4939439   8.4914098   8.4938607   8.4909246   8.4943601
 TTTTTTTTTTTTTTTTTTTTTTTTTTTTTT MOQGAD      TELAPSE       65.04 TCPU     1732.88
 TTTTTTTTTTTTTTTTTTTTTTTTTTTTTT SHELLXN     TELAPSE       72.52 TCPU     1971.25
 TTTTTTTTTTTTTTTTTTTTTTTTTTTTTT MONMO3      TELAPSE       72.66 TCPU     1975.82
 NUMERICALLY INTEGRATED DENSITY    197.9999925113
 TTTTTTTTTTTTTTTTTTTTTTTTTTTTTT NUMDFT      TELAPSE       73.32 TCPU     1996.89
 CYC   6 ETOT(AU) -1.289111414411E+03 DETOT -2.10E-05 tst  2.64E-07 PX  1.29E-03
 TTTTTTTTTTTTTTTTTTTTTTTTTTTTTT DIIS        TELAPSE       73.39 TCPU     1999.13
 DIIS TEST: 0.85982E-05 AT SCF   CYCLE   6 - DIIS ACTIVE - HISTORY:     6 CYCLES
 TTTTTTTTTTTTTTTTTTTTTTTTTTTTTT FDIK        TELAPSE       73.87 TCPU     2014.46
 INSULATING STATE
 TOP OF VALENCE BANDS -    BAND     99; K    1; EIG -2.3954506E-01 AU
 BOTTOM OF VIRTUAL BANDS - BAND    100; K    1; EIG -8.7911023E-02 AU
 DIRECT ENERGY BAND GAP:   4.1262 eV
 TTTTTTTTTTTTTTTTTTTTTTTTTTTTTT PDIG        TELAPSE       74.21 TCPU     2020.54
 CHARGE NORMALIZATION FACTOR   1.00000000
 TOTAL ATOMIC CHARGES:
   4.5040271   4.5008943   4.5017740   4.5016747   4.5007997   4.5035922
   0.8716339   0.8717821   0.8719020   0.8716721   0.8704083   0.8710175
   0.8704263   0.8708669   0.8718159   0.8717236   0.8717482   0.8717287
   5.9226821   6.1714594   6.1711192   6.1669213   6.1671768   5.9233904
   5.9276427   6.1678329   6.1677552   6.1678873   6.1679004   5.9275290
   5.9227705   6.1668389   6.1674064   6.1711555   6.1711977   5.9233461
   8.4930484   8.4936172   8.4923858   8.4932593   8.4923281   8.4938618
 TTTTTTTTTTTTTTTTTTTTTTTTTTTTTT MOQGAD      TELAPSE       74.25 TCPU     2020.58
 TTTTTTTTTTTTTTTTTTTTTTTTTTTTTT SHELLXN     TELAPSE       81.73 TCPU     2258.87
 TTTTTTTTTTTTTTTTTTTTTTTTTTTTTT MONMO3      TELAPSE       81.88 TCPU     2263.44
 NUMERICALLY INTEGRATED DENSITY    197.9999925111
 TTTTTTTTTTTTTTTTTTTTTTTTTTTTTT NUMDFT      TELAPSE       82.53 TCPU     2284.47
 CYC   7 ETOT(AU) -1.289111415330E+03 DETOT -9.19E-07 tst  2.64E-08 PX  5.42E-04
 TTTTTTTTTTTTTTTTTTTTTTTTTTTTTT DIIS        TELAPSE       82.62 TCPU     2287.11
 DIIS TEST: 0.15204E-05 AT SCF   CYCLE   7 - DIIS ACTIVE - HISTORY:     7 CYCLES
 TTTTTTTTTTTTTTTTTTTTTTTTTTTTTT FDIK        TELAPSE       83.09 TCPU     2302.40
 INSULATING STATE
 TOP OF VALENCE BANDS -    BAND     99; K    1; EIG -2.3955281E-01 AU
 BOTTOM OF VIRTUAL BANDS - BAND    100; K    1; EIG -8.7916058E-02 AU
 DIRECT ENERGY BAND GAP:   4.1262 eV
 TTTTTTTTTTTTTTTTTTTTTTTTTTTTTT PDIG        TELAPSE       83.44 TCPU     2308.48
 CHARGE NORMALIZATION FACTOR   1.00000000
 TOTAL ATOMIC CHARGES:
   4.5040003   4.5010068   4.5018856   4.5017402   4.5008643   4.5035340
   0.8716173   0.8717251   0.8718528   0.8716436   0.8704354   0.8709531
   0.8704383   0.8708180   0.8717601   0.8717021   0.8717059   0.8716977
   5.9225102   6.1714546   6.1714050   6.1669926   6.1671214   5.9233535
   5.9269588   6.1676243   6.1680924   6.1677954   6.1681218   5.9278094
   5.9228289   6.1669462   6.1673128   6.1713218   6.1713132   5.9230785
   8.4932348   8.4937317   8.4921434   8.4935289   8.4918734   8.4940666
 TTTTTTTTTTTTTTTTTTTTTTTTTTTTTT MOQGAD      TELAPSE       83.48 TCPU     2308.52
 TTTTTTTTTTTTTTTTTTTTTTTTTTTTTT SHELLXN     TELAPSE       90.96 TCPU     2546.84
 +++ ENERGIES IN A.U. +++
 ::: EXT EL-POLE                                  -1.4869045708563E+03
 ::: EXT EL-SPHEROPOLE                             1.6355433325713E+01
 ::: BIELET ZONE E-E                               2.1186577362430E+03
 ::: TOTAL E-E                                     6.4810859871240E+02
 ::: TOTAL E-N + N-E                              -3.1219871095420E+03
 ::: TOTAL N-N                                     3.8540451087461E+01
 ::: KINETIC ENERGY                                1.2799456051097E+03
 ::: PSEUDO TOTAL   ENERGY                        -1.1553924546325E+03
 ::: VIRIAL COEFFICIENT                            1.0511440906444E+00
 TTTTTTTTTTTTTTTTTTTTTTTTTTTTTT MONMO3      TELAPSE       91.10 TCPU     2551.40
 NUMERICALLY INTEGRATED DENSITY    197.9999925105
 EXCHANGE ENERGY: -0.126025435073E+03  CORRELATION ENERGY: -0.769352595755E+01
 TTTTTTTTTTTTTTTTTTTTTTTTTTTTTT NUMDFT      TELAPSE       91.76 TCPU     2572.46
 CYC   8 ETOT(AU) -1.289111415663E+03 DETOT -3.33E-07 tst  6.32E-09 PX  5.42E-04

 == SCF ENDED - CONVERGENCE ON ENERGY      E(AU) -1.2891114156627E+03 CYCLES   8


 ENERGY EXPRESSION=HARTREE+FOCK EXCH*0.00000+(HSESOL     EXCH)*1.00000+PBESOL     CORR


 TOTAL ENERGY(DFT)(AU)(  8) -1.2891114156627E+03 DE-3.3E-07 tester 6.3E-09
 TTTTTTTTTTTTTTTTTTTTTTTTTTTTTT EDFT        TELAPSE       91.76 TCPU     2572.47
 
 INFORMATION **** DFTD3 ENERGY **** CALCULATE DFTD3 ENERGY

           DFT-D V3(BJ)
 DF                                         hsesol3c  
 parameters
 s6       :    1.0000
 s8       :    0.0000
 a1       :    0.5196
 a2       :    4.9385
 k1 k3    :   16.0000   -4.0000
 Cutoff   :   50.2022
 CN-Cutoff:   21.1671
 ABC-Cutoff:   21.1671
 
 Edisp /kcal,au:   -25.8784 -0.04123988

 E6    /kcal :   -27.4069
 E8    /kcal :     0.0000
 E6(ABC) "   :   1.528479
 
 INFORMATION **** DFTD3 ENERGY **** NORMAL TERMINATION OF DFTD3 MODULE

 GCP ENERGY CALCULATION
  level        hsesol3c            basis:hsesol3c
  Nbf            474
  Atoms           42

  Parameters: 
  sigma     1.0000
  eta       1.4281
  alpha     0.2936
  beta      1.9467

  dmp_scal      4.0000
  dmp_exp       6.0000
 cutoffs: 
   distance [bohr] 60.0
   noise    [a.u.] 2.2E-16
 SR-damping   T
 ** gCP correction **
  Egcp:        0.0832840548 / (a.u.) ||      52.2615 / (kcal/mol)
 INFORMATION **** GCP **** NORMAL TERMINATION OF GCP MODULE

 *******************************************************************************

 DFT-D3-GCP DISPERSION AND COUNTERPOISE CORRECTION

 D3 DISPERSION ENERGY (AU)      -4.1239882918744E-02
 GCP ENERGY (AU)                 8.3284054838835E-02
 TOTAL ENERGY + DISP + GCP (AU) -1.2890693714907E+03

 *******************************************************************************

 EIGENVECTORS IN FORTRAN UNIT  8
 TTTTTTTTTTTTTTTTTTTTTTTTTTTTTT END         TELAPSE       93.67 TCPU     2580.20
 EEEEEEEEEE TERMINATION  DATE 19 02 2026 TIME 18:33:54.8
