 Default number of threads is:           32

         
 *******************************************************************************
 *                                                                             *
 *                               CRYSTAL23                                     *
 *                      public : 1.0.1 - October 2022                          *
 *                       HTTP://WWW.CRYSTAL.UNITO.IT                           *
 *                                                                             *
 *                              MAIN AUTHORS                                   *
 *                                                                             *
 *  R. DOVESI(1,11), V.R. SAUNDERS(2), C. ROETTI(1,11), R. ORLANDO(1,11),      *
 *  C.M. ZICOVICH-WILSON(1,3), F. PASCALE(4), B. CIVALLERI(1,11),              *
 *  K. DOLL(5), N.M. HARRISON(6), I.J. BUSH(7), Ph. D'ARCO(8),                 *
 *  M. LLUNELL(9), M. CAUSA'(10), Y. NOEL(8), L. MASCHIO(1,11), A. ERBA(1,11)  *
 *  M. RE'RAT(14), S. CASASSA(1,11), B.G. SEARLE(2), J.K. DESMARAIS(1)         *
 *                                                                             *
 *        CONTRIBUTIONS TO THE CODE HAVE ALSO BEEN GIVEN BY                    *
 *                                                                             *
 *  M. FERRABONE(1,11), M. DE LA PIERRE(1,11), M. FERRERO(1,11),               *
 *  J. BAIMA(1,11), E. ALBANESE(1,11), M.F. PEINTINGER(12), R. BAST(13),       *
 *  B. KIRTMAN(15), V. LACIVITA(1,11), R. DEMICHELIS(1,16)                     *
 *  G. BRANDEBURG(17), S. SALUSTRO(1,11), G. SANSONE(1,11)                     *
 *  M.T. RUGGIERO(18), L.E. DAGA(1), L. DONA'(1), A. COSSARD(1)                *
 *                                                                             *
 * (1) THEORETICAL CHEMISTRY GROUP - UNIVERSITA' DI TORINO - TORINO (ITALY)    *
 * (2) SCIENTIFIC COMPUTING DEPARTMENT - STFC DARESBURY (UK)                   *
 * (3) UNIVERSIDAD AUTONOMA DEL ESTADO DE MORELOS - CUERNAVACA (MEXICO)        *
 * (4) UNIVERSITE' DE LORRAINE - NANCY (FRANCE)                                *
 * (5) UNIVERSITAET STUTTGART- STUTTGART (GERMANY)                             *
 * (6) IMPERIAL COLLEGE - LONDON (UK)                                          *
 * (7) SCIENTIFIC COMPUTING DEPARTMENT - STFC RAL (UK)                         *
 * (8) UPMC - SORBONNE UNIVERSITES - PARIS (FRANCE)                            *
 * (9) UNIVERSIDAD DE BARCELONA - BARCELONA (SPAIN)                            *
 *(10) UNIVERSITA' DI NAPOLI "FEDERICO II" - NAPOLI (ITALY)                    *
 *(11) NIS - NANOSTRUCTURED INTERFACES AND SURFACES - TORINO (ITALY)           *
 *(12) MPI FUER CHEMISCHE ENERGIEKONVERSION - MUELHEIM AN DER RUHR (GERMANY)   *
 *(13) UNIVERSITY OF TROMSO - TROMSO (NORWAY)                                  *
 *(14) UNIVERSITE' DE PAU ET DES PAYS DE L'ADOUR - PAU (FRANCE)                *
 *(15) UNIVERSITY OF CALIFORNIA SANTA BARBARA - SANTA BARBARA (USA)            *
 *(16) CURTIN UNIVERSITY - PERTH (AUSTRALIA)                                   *
 *(17) UNIVERSITY COLLEGE LONDON - LONDON (UK)                                 *
 *(18) UNIVERSITY OF VERMONT - BURLINGTON (USA)                                *
 *                                                                             *
 *******************************************************************************
 EEEEEEEEEE STARTING  DATE 19 02 2026 TIME 17:56:21.1
 cof-1_z31_L080_incl                                                             

 CRYSTAL CALCULATION
 (INPUT ACCORDING TO THE INTERNATIONAL TABLES FOR X-RAY CRYSTALLOGRAPHY)
 CRYSTAL FAMILY                       :  TRICLINIC   
 CRYSTAL CLASS  (GROTH - 1921)        :  TRICLINIC PEDIAL                     

 SPACE GROUP (NONCENTROSYMMETRIC)     :  P 1             

 LATTICE PARAMETERS  (ANGSTROMS AND DEGREES) - CONVENTIONAL CELL
        A           B           C        ALPHA        BETA       GAMMA
    15.02361    15.02392     8.57963    36.14287    89.99998   119.99596


 NUMBER OF IRREDUCIBLE ATOMS IN THE CONVENTIONAL CELL:   42

 INPUT COORDINATES

 ATOM AT. N.              COORDINATES
   1   5     4.595161400000E-01 -8.104191000000E-02  5.015332000000E-01
   2   5     6.185718000000E-01  7.801773000000E-02  5.015332200000E-01
   3   5     4.605077000000E-01  7.999240000000E-02  4.982935300000E-01
   4   5     7.309085000000E-02  3.052730800000E-01  5.015332100000E-01
   5   5     2.321988200000E-01  3.052523200000E-01  5.015332000000E-01
   6   5     2.331749300000E-01  4.663833800000E-01  4.982935300000E-01
   7   1     7.509437900000E-01  4.699470000000E-03  4.948166900000E-01
   8   1    -5.514960000000E-02  3.874543300000E-01  4.937896200000E-01
   9   1     7.512358800000E-01  2.905705100000E-01  4.936315500000E-01
  10   1    -5.501147000000E-02  1.021587800000E-01  4.936709700000E-01
  11   1     5.357507000000E-01 -2.135908400000E-01  5.051680500000E-01
  12   1     1.533322900000E-01  5.922108200000E-01  5.061951900000E-01
  13   1     2.502239400000E-01 -2.142737500000E-01  5.063533600000E-01
  14   1     4.386783700000E-01  5.920479900000E-01  5.063136600000E-01
  15   1     5.389728900000E-01  2.898235900000E-01  4.948167500000E-01
  16   1     1.571777300000E-01  1.020102600000E-01  4.937895500000E-01
  17   1     2.541050700000E-01  5.321410000000E-03  4.936314200000E-01
  18   1     4.425431900000E-01  3.874316900000E-01  4.936711000000E-01
  19   6     7.387581800000E-01  1.396483100000E-01  4.981749800000E-01
  20   6     7.943406900000E-01  8.845786000000E-02  4.949747500000E-01
  21   6    -9.867532000000E-02  3.030275100000E-01  4.946982900000E-01
  22   6     7.941336400000E-01  2.490242900000E-01  4.955279700000E-01
  23   6    -9.823631000000E-02  1.428938500000E-01  4.933944200000E-01
  24   6    -4.429471000000E-02  2.493434600000E-01  4.955674300000E-01
  25   6     3.997900100000E-01 -2.003617300000E-01  5.018097900000E-01
  26   6     4.519447400000E-01 -2.569418300000E-01  5.050099700000E-01
  27   6     2.374805500000E-01  6.359953500000E-01  5.052865400000E-01
  28   6     2.912244800000E-01 -2.565548600000E-01  5.044568900000E-01
  29   6     3.979979800000E-01  6.351541600000E-01  5.065902800000E-01
  30   6     2.908769700000E-01  5.818586600000E-01  5.044173300000E-01
  31   6     4.009127400000E-01  1.395791700000E-01  4.981749800000E-01
  32   6     4.550617800000E-01  2.492979700000E-01  4.949748100000E-01
  33   6     2.407599500000E-01  1.420142800000E-01  4.946982300000E-01
  34   6     2.939688200000E-01  8.802214000000E-02  4.955278800000E-01
  35   6     4.020802900000E-01  3.037418300000E-01  4.933945000000E-01
  36   6     2.936293800000E-01  2.492660600000E-01  4.955674300000E-01
  37   8     4.073009400000E-01 -2.653204000000E-02  4.991627000000E-01
  38   8     5.641449900000E-01 -3.072671000000E-02  5.059976500000E-01
  39   8     5.673123800000E-01  1.345583900000E-01  4.956859900000E-01
  40   8     1.268887600000E-01  4.127484200000E-01  4.991627400000E-01
  41   8     1.248072600000E-01  2.495905700000E-01  5.059976500000E-01
  42   8     2.868968100000E-01  4.148703700000E-01  4.956859600000E-01

 *******************************************************************************

 << INFORMATION >>: FROM NOW ON, ALL COORDINATES REFER TO THE PRIMITIVE CELL

 *******************************************************************************

 LATTICE PARAMETERS  (ANGSTROMS AND DEGREES) - PRIMITIVE CELL
       A          B          C        ALPHA      BETA     GAMMA        VOLUME
   15.02361   15.02392    8.57963    36.14287  89.99998 119.99596    606.002111

 COORDINATES OF THE EQUIVALENT ATOMS (FRACTIONAL UNITS)

 N. ATOM EQUIV AT. N.          X                  Y                  Z

   1   1   1    5 B     4.59516140000E-01 -8.10419100000E-02 -4.98466800000E-01

   2   2   1    5 B    -3.81428200000E-01  7.80177300000E-02 -4.98466780000E-01

   3   3   1    5 B     4.60507700000E-01  7.99924000000E-02  4.98293530000E-01

   4   4   1    5 B     7.30908500000E-02  3.05273080000E-01 -4.98466790000E-01

   5   5   1    5 B     2.32198820000E-01  3.05252320000E-01 -4.98466800000E-01

   6   6   1    5 B     2.33174930000E-01  4.66383380000E-01  4.98293530000E-01

   7   7   1    1 H    -2.49056210000E-01  4.69947000000E-03  4.94816690000E-01

   8   8   1    1 H    -5.51496000000E-02  3.87454330000E-01  4.93789620000E-01

   9   9   1    1 H    -2.48764120000E-01  2.90570510000E-01  4.93631550000E-01

  10  10   1    1 H    -5.50114700000E-02  1.02158780000E-01  4.93670970000E-01

  11  11   1    1 H    -4.64249300000E-01 -2.13590840000E-01 -4.94831950000E-01

  12  12   1    1 H     1.53332290000E-01 -4.07789180000E-01 -4.93804810000E-01

  13  13   1    1 H     2.50223940000E-01 -2.14273750000E-01 -4.93646640000E-01

  14  14   1    1 H     4.38678370000E-01 -4.07952010000E-01 -4.93686340000E-01

  15  15   1    1 H    -4.61027110000E-01  2.89823590000E-01  4.94816750000E-01

  16  16   1    1 H     1.57177730000E-01  1.02010260000E-01  4.93789550000E-01

  17  17   1    1 H     2.54105070000E-01  5.32141000000E-03  4.93631420000E-01

  18  18   1    1 H     4.42543190000E-01  3.87431690000E-01  4.93671100000E-01

  19  19   1    6 C    -2.61241820000E-01  1.39648310000E-01  4.98174980000E-01

  20  20   1    6 C    -2.05659310000E-01  8.84578600000E-02  4.94974750000E-01

  21  21   1    6 C    -9.86753200000E-02  3.03027510000E-01  4.94698290000E-01

  22  22   1    6 C    -2.05866360000E-01  2.49024290000E-01  4.95527970000E-01

  23  23   1    6 C    -9.82363100000E-02  1.42893850000E-01  4.93394420000E-01

  24  24   1    6 C    -4.42947100000E-02  2.49343460000E-01  4.95567430000E-01

  25  25   1    6 C     3.99790010000E-01 -2.00361730000E-01 -4.98190210000E-01

  26  26   1    6 C     4.51944740000E-01 -2.56941830000E-01 -4.94990030000E-01

  27  27   1    6 C     2.37480550000E-01 -3.64004650000E-01 -4.94713460000E-01

  28  28   1    6 C     2.91224480000E-01 -2.56554860000E-01 -4.95543110000E-01

  29  29   1    6 C     3.97997980000E-01 -3.64845840000E-01 -4.93409720000E-01

  30  30   1    6 C     2.90876970000E-01 -4.18141340000E-01 -4.95582670000E-01

  31  31   1    6 C     4.00912740000E-01  1.39579170000E-01  4.98174980000E-01

  32  32   1    6 C     4.55061780000E-01  2.49297970000E-01  4.94974810000E-01

  33  33   1    6 C     2.40759950000E-01  1.42014280000E-01  4.94698230000E-01

  34  34   1    6 C     2.93968820000E-01  8.80221400000E-02  4.95527880000E-01

  35  35   1    6 C     4.02080290000E-01  3.03741830000E-01  4.93394500000E-01

  36  36   1    6 C     2.93629380000E-01  2.49266060000E-01  4.95567430000E-01

  37  37   1    8 O     4.07300940000E-01 -2.65320400000E-02  4.99162700000E-01

  38  38   1    8 O    -4.35855010000E-01 -3.07267100000E-02 -4.94002350000E-01

  39  39   1    8 O    -4.32687620000E-01  1.34558390000E-01  4.95685990000E-01

  40  40   1    8 O     1.26888760000E-01  4.12748420000E-01  4.99162740000E-01

  41  41   1    8 O     1.24807260000E-01  2.49590570000E-01 -4.94002350000E-01

  42  42   1    8 O     2.86896810000E-01  4.14870370000E-01  4.95685960000E-01

 NUMBER OF SYMMETRY OPERATORS         :    1
 *******************************************************************************
 * GEOMETRY EDITING - INPUT COORDINATES ARE GIVEN IN ANGSTROM         
 *******************************************************************************

 GCALCO - MAX INDICES DIRECT LATTICE VECTOR     9    15    23
 NO.OF VECTORS CREATED 6999 STARS 3500 RMAX   210.11473 BOHR

 GEOMETRY FOR WAVE FUNCTION - DIMENSIONALITY OF THE SYSTEM    3
 (NON PERIODIC DIRECTION: LATTICE PARAMETER FORMALLY SET TO 500)
 *******************************************************************************
 LATTICE PARAMETERS (ANGSTROMS AND DEGREES) - BOHR = 0.5291772083 ANGSTROM
 PRIMITIVE CELL - CENTRING CODE 1/0 VOLUME=   606.002111 - DENSITY  1.069 g/cm^3
         A              B              C           ALPHA      BETA       GAMMA 
    15.02361100    15.02391600     8.57962700    36.142871  89.999980 119.995964
 *******************************************************************************
 ATOMS IN THE ASYMMETRIC UNIT   42 - ATOMS IN THE UNIT CELL:   42
     ATOM                 X/A                 Y/B                 Z/C    
 *******************************************************************************
      1 T   5 B     4.595161400000E-01 -8.104191000000E-02 -4.984668000000E-01
      2 T   5 B    -3.814282000000E-01  7.801773000000E-02 -4.984667800000E-01
      3 T   5 B     4.605077000000E-01  7.999240000000E-02  4.982935300000E-01
      4 T   5 B     7.309085000000E-02  3.052730800000E-01 -4.984667900000E-01
      5 T   5 B     2.321988200000E-01  3.052523200000E-01 -4.984668000000E-01
      6 T   5 B     2.331749300000E-01  4.663833800000E-01  4.982935300000E-01
      7 T   1 H    -2.490562100000E-01  4.699470000000E-03  4.948166900000E-01
      8 T   1 H    -5.514960000000E-02  3.874543300000E-01  4.937896200000E-01
      9 T   1 H    -2.487641200000E-01  2.905705100000E-01  4.936315500000E-01
     10 T   1 H    -5.501147000000E-02  1.021587800000E-01  4.936709700000E-01
     11 T   1 H    -4.642493000000E-01 -2.135908400000E-01 -4.948319500000E-01
     12 T   1 H     1.533322900000E-01 -4.077891800000E-01 -4.938048100000E-01
     13 T   1 H     2.502239400000E-01 -2.142737500000E-01 -4.936466400000E-01
     14 T   1 H     4.386783700000E-01 -4.079520100000E-01 -4.936863400000E-01
     15 T   1 H    -4.610271100000E-01  2.898235900000E-01  4.948167500000E-01
     16 T   1 H     1.571777300000E-01  1.020102600000E-01  4.937895500000E-01
     17 T   1 H     2.541050700000E-01  5.321410000000E-03  4.936314200000E-01
     18 T   1 H     4.425431900000E-01  3.874316900000E-01  4.936711000000E-01
     19 T   6 C    -2.612418200000E-01  1.396483100000E-01  4.981749800000E-01
     20 T   6 C    -2.056593100000E-01  8.845786000000E-02  4.949747500000E-01
     21 T   6 C    -9.867532000000E-02  3.030275100000E-01  4.946982900000E-01
     22 T   6 C    -2.058663600000E-01  2.490242900000E-01  4.955279700000E-01
     23 T   6 C    -9.823631000000E-02  1.428938500000E-01  4.933944200000E-01
     24 T   6 C    -4.429471000000E-02  2.493434600000E-01  4.955674300000E-01
     25 T   6 C     3.997900100000E-01 -2.003617300000E-01 -4.981902100000E-01
     26 T   6 C     4.519447400000E-01 -2.569418300000E-01 -4.949900300000E-01
     27 T   6 C     2.374805500000E-01 -3.640046500000E-01 -4.947134600000E-01
     28 T   6 C     2.912244800000E-01 -2.565548600000E-01 -4.955431100000E-01
     29 T   6 C     3.979979800000E-01 -3.648458400000E-01 -4.934097200000E-01
     30 T   6 C     2.908769700000E-01 -4.181413400000E-01 -4.955826700000E-01
     31 T   6 C     4.009127400000E-01  1.395791700000E-01  4.981749800000E-01
     32 T   6 C     4.550617800000E-01  2.492979700000E-01  4.949748100000E-01
     33 T   6 C     2.407599500000E-01  1.420142800000E-01  4.946982300000E-01
     34 T   6 C     2.939688200000E-01  8.802214000000E-02  4.955278800000E-01
     35 T   6 C     4.020802900000E-01  3.037418300000E-01  4.933945000000E-01
     36 T   6 C     2.936293800000E-01  2.492660600000E-01  4.955674300000E-01
     37 T   8 O     4.073009400000E-01 -2.653204000000E-02  4.991627000000E-01
     38 T   8 O    -4.358550100000E-01 -3.072671000000E-02 -4.940023500000E-01
     39 T   8 O    -4.326876200000E-01  1.345583900000E-01  4.956859900000E-01
     40 T   8 O     1.268887600000E-01  4.127484200000E-01  4.991627400000E-01
     41 T   8 O     1.248072600000E-01  2.495905700000E-01 -4.940023500000E-01
     42 T   8 O     2.868968100000E-01  4.148703700000E-01  4.956859600000E-01

 T = ATOM BELONGING TO THE ASYMMETRIC UNIT

 ****    1 SYMMOPS - TRANSLATORS IN FRACTIONAL UNITS
 **** MATRICES AND TRANSLATORS IN THE CRYSTALLOGRAPHIC REFERENCE FRAME
   V INV                    ROTATION MATRICES                   TRANSLATORS
   1   1  1.00 -0.00  0.00  0.00  1.00  0.00 -0.00  0.00  1.00  0.00  0.00  0.00

 DIRECT LATTICE VECTORS CARTESIAN COMPONENTS (ANGSTROM)
          X                    Y                    Z
   0.130113578931E+02  -0.751088897922E+01   0.000000000000E+00
   0.000000000000E+00   0.150239160000E+02   0.000000000000E+00
   0.399950530570E+01   0.692846746611E+01   0.310004763510E+01


 CARTESIAN COORDINATES - PRIMITIVE CELL
 *******************************************************************************
 *      ATOM          X(ANGSTROM)         Y(ANGSTROM)         Z(ANGSTROM)
 *******************************************************************************
    1     5 B    -1.419696183343E-02 -2.710403286175E-02 -4.645318459621E+00
    2     5 B     2.055333235333E+00  1.167945372282E+00 -4.645318397620E+00
    3     5 B    -1.027094473123E+00  6.108278459668E-01  4.644781314367E+00
    4     5 B    -1.042609363261E+00  5.838089137840E-01 -1.545270793517E+00
    5     5 B     1.027601338052E+00 -6.115453503753E-01 -1.545270824518E+00
    6     5 B     1.027344777251E+00  1.779496758018E+00 -1.555313955840E+00
    7     1 H    -5.261042812492E+00 -1.558908142337E+00 -1.566092325459E+00
    8     1 H    -2.742162283867E+00  2.728041681768E+00 -1.569276291384E+00
    9     1 H     2.737028312709E+00  1.558608222178E+00  4.630328954293E+00
   10     1 H    -2.740839566306E+00 -1.560074238365E+00 -1.569644112036E+00
   11     1 H     9.922557840067E-01 -2.565913399642E+00 -4.634050251475E+00
   12     1 H     2.008634417873E-02  4.324353246159E+00 -1.530818433443E+00
   13     1 H    -2.718094424764E+00 -4.234012053898E-01 -4.630375734012E+00
   14     1 H     3.733300135833E+00  2.179524989923E+00 -1.530451170800E+00
   15     1 H    -2.006120394329E-02  3.149881930767E+00  4.634003130751E+00
   16     1 H     2.050431727445E-02 -3.155213536486E+00 -1.569276508387E+00
   17     1 H     1.281028185862E+00 -5.336964785374E+00 -1.569766718920E+00
   18     1 H     3.733022706248E+00 -1.011234913101E+00 -1.569643709030E+00
   19     6 C     2.592847964718E+00 -5.836366068014E-01  4.644413803720E+00
   20     6 C    -4.695758053335E+00 -6.253833110564E-01 -1.565602331930E+00
   21     6 C    -3.304856773854E+00  1.792832771134E+00 -1.566459371099E+00
   22     6 C    -4.696239448661E+00  1.792341342018E+00 -1.563887323577E+00
   23     6 C    -3.304359492608E+00 -6.253330617247E-01 -1.570501430209E+00
   24     6 C    -2.593815064660E+00  5.838631972753E-01 -1.563764995698E+00
   25     6 C    -7.902087916582E-01 -1.369242309272E+00 -4.644461017446E+00
   26     6 C    -9.880579692324E-02 -2.588853022699E+00 -4.634540307005E+00
   27     6 C     1.111335320621E+00  4.343844556361E+00 -1.533635291727E+00
   28     6 C    -2.192206666843E+00 -1.379719185140E+00 -4.636254881351E+00
   29     6 C     3.205099365472E+00  3.134610912676E+00 -1.529593635623E+00
   30     6 C     1.802618841442E+00  3.123422597569E+00 -1.536329884132E+00
   31     6 C    -1.802979967660E+00  1.952844231621E+00  4.644413803720E+00
   32     6 C     3.901120756116E+00 -3.171537346494E+00 -1.565602145927E+00
   33     6 C     1.111656765672E+00 -3.175677515583E+00 -1.566459557102E+00
   34     6 C     1.807294605904E+00 -4.380748603850E+00 -1.563887602582E+00
   35     6 C     3.205439169789E+00 -1.966588404217E+00 -1.570501182205E+00
   36     6 C     1.803036211015E+00 -1.955409977216E+00 -1.563764995698E+00
   37     8 O    -1.715910419787E+00 -5.839343091689E-01  4.647475782770E+00
   38     8 O     1.365022042918E+00 -2.609657433257E-02 -4.631478451957E+00
   39     8 O     3.521505729453E-01  6.103583461863E-01  4.636697816157E+00
   40     8 O    -3.521062096941E-01  1.778015540417E+00 -1.552619363435E+00
   41     8 O    -3.518530923395E-01 -6.102649257444E-01 -1.531430816853E+00
   42     8 O     1.715910394569E+00  5.840040825257E-01 -1.563397547051E+00

 *******************************************************************************
 STARTING BASIS SET HANDLING 
 *******************************************************************************

 Loading internal basis set: SOLDEF2MSVP         

 Please cite in your publication:
 L. Dona', J. G. Brandenburg and B. Civalleri, J. Chem. Phys., 151, 121101 (2019
 )                                                                              
                                                                                
                    

 *******************************************************************************
 LOCAL ATOMIC FUNCTIONS BASIS SET
 *******************************************************************************
   ATOM   X(AU)   Y(AU)   Z(AU)  N. TYPE  EXPONENT  S COEF   P COEF   D/F/G COEF
 *******************************************************************************
   1 B   -0.027  -0.051  -8.778
                                  1 S  
                                         2.410E+03 1.755E-03 0.000E+00 0.000E+00
                                         3.619E+02 1.344E-02 0.000E+00 0.000E+00
                                         8.231E+01 6.637E-02 0.000E+00 0.000E+00
                                         2.311E+01 2.303E-01 0.000E+00 0.000E+00
                                         7.252E+00 5.150E-01 0.000E+00 0.000E+00
                                  2 S  
                                         2.367E+00 1.000E+00 0.000E+00 0.000E+00
                                  3 S  
                                         5.533E-01 1.000E+00 0.000E+00 0.000E+00
                                  4 S  
                                         1.716E-01 1.000E+00 0.000E+00 0.000E+00
                           5-     7 P  
                                         6.002E+00 0.000E+00-3.555E-02 0.000E+00
                                         1.240E+00 0.000E+00-1.983E-01 0.000E+00
                                         3.367E-01 0.000E+00-5.048E-01 0.000E+00
                           8-    10 P  
                                         1.256E-01 0.000E+00 1.000E+00 0.000E+00
                          11-    15 D  
                                         8.880E-01 0.000E+00 0.000E+00 1.000E+00
   2 B    3.884   2.207  -8.778
   3 B   -1.941   1.154   8.777
   4 B   -1.970   1.103  -2.920
   5 B    1.942  -1.156  -2.920
   6 B    1.941   3.363  -2.939
   7 H   -9.942  -2.946  -2.959
                                 91 S  
                                         1.874E+01 1.968E-02 0.000E+00 0.000E+00
                                         2.826E+00 1.380E-01 0.000E+00 0.000E+00
                                         6.401E-01 4.783E-01 0.000E+00 0.000E+00
                                 92 S  
                                         1.756E-01 1.000E+00 0.000E+00 0.000E+00
   8 H   -5.182   5.155  -2.966
   9 H    5.172   2.945   8.750
  10 H   -5.179  -2.948  -2.966
  11 H    1.875  -4.849  -8.757
  12 H    0.038   8.172  -2.893
  13 H   -5.136  -0.800  -8.750
  14 H    7.055   4.119  -2.892
  15 H   -0.038   5.952   8.757
  16 H    0.039  -5.962  -2.966
  17 H    2.421 -10.085  -2.966
  18 H    7.054  -1.911  -2.966
  19 C    4.900  -1.103   8.777
                                115 S  
                                         3.624E+03 1.634E-03 0.000E+00 0.000E+00
                                         5.440E+02 1.252E-02 0.000E+00 0.000E+00
                                         1.237E+02 6.211E-02 0.000E+00 0.000E+00
                                         3.476E+01 2.182E-01 0.000E+00 0.000E+00
                                         1.093E+01 4.980E-01 0.000E+00 0.000E+00
                                116 S  
                                         3.574E+00 1.000E+00 0.000E+00 0.000E+00
                                117 S  
                                         7.742E-01 1.000E+00 0.000E+00 0.000E+00
                                118 S  
                                         2.330E-01 1.000E+00 0.000E+00 0.000E+00
                         119-   121 P  
                                         9.443E+00 0.000E+00 3.790E-02 0.000E+00
                                         2.002E+00 0.000E+00 2.082E-01 0.000E+00
                                         5.463E-01 0.000E+00 5.047E-01 0.000E+00
                         122-   124 P  
                                         1.820E-01 0.000E+00 1.000E+00 0.000E+00
                         125-   129 D  
                                         8.880E-01 0.000E+00 0.000E+00 1.000E+00
  20 C   -8.874  -1.182  -2.959
  21 C   -6.245   3.388  -2.960
  22 C   -8.875   3.387  -2.955
  23 C   -6.244  -1.182  -2.968
  24 C   -4.902   1.103  -2.955
  25 C   -1.493  -2.587  -8.777
  26 C   -0.187  -4.892  -8.758
  27 C    2.100   8.209  -2.898
  28 C   -4.143  -2.607  -8.761
  29 C    6.057   5.924  -2.891
  30 C    3.406   5.902  -2.903
  31 C   -3.407   3.690   8.777
  32 C    7.372  -5.993  -2.959
  33 C    2.101  -6.001  -2.960
  34 C    3.415  -8.278  -2.955
  35 C    6.057  -3.716  -2.968
  36 C    3.407  -3.695  -2.955
  37 O   -3.243  -1.103   8.782
                                385 S  
                                         6.773E+03 1.727E-03 0.000E+00 0.000E+00
                                         1.017E+03 1.325E-02 0.000E+00 0.000E+00
                                         2.313E+02 6.603E-02 0.000E+00 0.000E+00
                                         6.501E+01 2.353E-01 0.000E+00 0.000E+00
                                         2.050E+01 5.498E-01 0.000E+00 0.000E+00
                                386 S  
                                         6.716E+00 1.000E+00 0.000E+00 0.000E+00
                                387 S  
                                         1.147E+00 1.000E+00 0.000E+00 0.000E+00
                                388 S  
                                         3.342E-01 1.000E+00 0.000E+00 0.000E+00
                         389-   391 P  
                                         1.769E+01 0.000E+00 4.359E-02 0.000E+00
                                         3.854E+00 0.000E+00 2.318E-01 0.000E+00
                                         1.047E+00 0.000E+00 5.146E-01 0.000E+00
                         392-   394 P  
                                         2.759E-01 0.000E+00 1.000E+00 0.000E+00
                         395-   399 D  
                                         8.000E-01 0.000E+00 0.000E+00 1.000E+00
  38 O    2.580  -0.049  -8.752
  39 O    0.665   1.153   8.762
  40 O   -0.665   3.360  -2.934
  41 O   -0.665  -1.153  -2.894
  42 O    3.243   1.104  -2.954

 *******************************************************************************
 FINISHED BASIS SET HANDLING 
 *******************************************************************************

 INFORMATION **** SET_MPP **** PCRYSTAL CALCULATION
 INFORMATION **** READM2 **** NEW DEFAULT: FOCK/KS MATRIX MIXING SET TO 30 %
 INFORMATION **** READM2 **** NEW DEFAULT: FULL DIRECT SCF MODE
 INFORMATION **** READM2 **** NEW DEFAULT: COULOMB BIPOLAR BUFFER SET TO 32 Mb
 INFORMATION **** READM2 **** NEW DEFAULT: EXCHANGE BIPOLAR BUFFER SET TO 32 Mb

 *******************************************************************************
 NEW DEFAULT: DFT INTEGRATION GRID INCREASED TO XLGRID
 NEW DEFAULT: DIIS ACCELERATOR ACTIVE
 USE KEYWORD NODIIS TO TURN IT OFF
 *******************************************************************************

 WARNING **** RDDFTP **** HSEsol-HJS ACTIVE
 RANGE SEPARATION - OMEGA:   0.110000000000000     
 WARNING **** RDDFTP **** HSEsol-3c has to be combined with sol-def2-mSVP basis set
 *******************************************************************************
 N. OF ATOMS PER CELL        42  COULOMB OVERLAP TOL         (T1) 10**   -6
 NUMBER OF SHELLS           234  COULOMB PENETRATION TOL     (T2) 10**   -6
 NUMBER OF AO               474  EXCHANGE OVERLAP TOL        (T3) 10**   -6
 N. OF ELECTRONS PER CELL   198  EXCHANGE PSEUDO OVP (F(G))  (T4) 10**   -6
 CORE ELECTRONS PER CELL     60  EXCHANGE PSEUDO OVP (P(G))  (T5) 10**  -12
 N. OF SYMMETRY OPERATORS     1  POLE ORDER IN MONO ZONE                  4
 *******************************************************************************
 TYPE OF CALCULATION :  RESTRICTED CLOSED SHELL
 KOHN-SHAM HAMILTONIAN

 (EXCHANGE)[CORRELATION] FUNCTIONAL:(HSEsol GGA)[PBEsol]

 RANGE-SEPARATED HYBRID FUNCTIONAL 
 OMEGA (SHORT-RANGE)[LONG-RANGE]:(    0.1100)[    0.0000]

 HYBRID EXCHANGE - PERCENTAGE OF FOCK EXCHANGE    25.0000

 CAPPA:IS1  2;IS2  2;IS3  8; K PTS MONK NET  20; SYMMOPS:K SPACE   2;G SPACE   1

 *******************************************************************************
 MAX NUMBER OF SCF CYCLES      50  CONVERGENCE ON DELTAP        10**-16
 WEIGHT OF F(I) IN F(I+1)      30% CONVERGENCE ON ENERGY        10**- 6
 SHRINK. FACT.(MONKH.)    2  2  8  NUMBER OF K POINTS IN THE IBZ     20
 SHRINKING FACTOR(GILAT NET)    8  NUMBER OF K POINTS(GILAT NET)   1028
 *******************************************************************************
 *** K POINTS COORDINATES (OBLIQUE COORDINATES IN UNITS OF IS =  2)
   1-R(  0  0  0)   2-R(  1  0  0)   3-R(  0  1  0)   4-R(  1  1  0)
   5-C(  0  0  1)   6-C(  1  0  1)   7-C(  0  1  1)   8-C(  1  1  1)
   9-C(  0  0  2)  10-C(  1  0  2)  11-C(  0  1  2)  12-C(  1  1  2)
  13-C(  0  0  3)  14-C(  1  0  3)  15-C(  0  1  3)  16-C(  1  1  3)
  17-R(  0  0  4)  18-R(  1  0  4)  19-R(  0  1  4)  20-R(  1  1  4)

 DIRECT LATTICE VECTORS COMPON. (A.U.)     RECIP. LATTICE VECTORS COMPON. (A.U.) 
        X            Y            Z              X            Y            Z
   24.5879030  -14.1935232    0.0000000      0.2555397    0.0000000   -0.3296828
    0.0000000   28.3910867    0.0000000      0.1277517    0.2213084   -0.6594322
    7.5579697   13.0929060    5.8582410      0.0000000    0.0000000    1.0725379

 DISK SPACE FOR EIGENVECTORS (FTN 10)     7189632 REALS

 SYMMETRY ADAPTION OF THE BLOCH FUNCTIONS DISABLED
 TTTTTTTTTTTTTTTTTTTTTTTTTTTTTT gordsh1     TELAPSE        0.04 TCPU        0.04

 MATRIX SIZE: P(G)  374262, F(G)   69982, P(G) IRR  188352, F(G) IRR   70462
 MAX G-VECTOR INDEX FOR 1- AND 2-ELECTRON INTEGRALS  49

 TTTTTTTTTTTTTTTTTTTTTTTTTTTTTT INPUT       TELAPSE        0.45 TCPU        0.45

 NEIGHBORS OF THE NON-EQUIVALENT ATOMS

 N = NUMBER OF NEIGHBORS AT DISTANCE R
    ATOM  N     R/ANG      R/AU   NEIGHBORS (ATOM LABELS AND CELL INDICES)
   1 B    1     1.3791     2.6061   37 O    1 2-3
   1 B    1     1.3793     2.6065   38 O    0 0 0
   1 B    1     1.5503     2.9297   25 C    0 0 0
   1 B    1     2.3895     4.5155    3 B    1 2-3
   1 B    1     2.3898     4.5160    2 B    0 0 0
   1 B    1     2.5632     4.8437   26 C    0 0 0

   2 B    1     1.3793     2.6065   39 O    1 2-3
   2 B    1     1.3793     2.6065   38 O    0 0 0
   2 B    1     1.5504     2.9298   19 C    1 2-3
   2 B    1     2.3895     4.5156    3 B    1 2-3
   2 B    1     2.3898     4.5160    1 B    0 0 0
   2 B    1     2.5634     4.8440   22 C    1 1-1

   3 B    1     1.3791     2.6061   37 O    0 0 0
   3 B    1     1.3793     2.6064   39 O    0 0 0
   3 B    1     1.5502     2.9294   31 C    0 0 0
   3 B    1     2.3895     4.5155    1 B   -1-2 3
   3 B    1     2.3895     4.5156    2 B   -1-2 3
   3 B    1     2.5629     4.8433   32 C   -1-1 2

   4 B    1     1.3795     2.6068   40 O    0 0 0
   4 B    1     1.3795     2.6070   41 O    0 0 0
   4 B    1     1.5513     2.9316   24 C    0 0 0
   4 B    1     2.3905     4.5174    6 B    0 0 0
   4 B    1     2.3905     4.5175    5 B    0 0 0
   4 B    1     2.5648     4.8468   23 C    0 0 0

   5 B    1     1.3795     2.6069   41 O    0 0 0
   5 B    1     1.3797     2.6072   42 O    0 0 0
   5 B    1     1.5516     2.9322   36 C    0 0 0
   5 B    1     2.3905     4.5175    4 B    0 0 0
   5 B    1     2.3911     4.5185    6 B    0 0 0
   5 B    1     2.5651     4.8473   35 C    0 0 0

   6 B    1     1.3795     2.6068   40 O    0 0 0
   6 B    1     1.3796     2.6071   42 O    0 0 0
   6 B    1     1.5516     2.9322   30 C    0 0 0
   6 B    1     2.3905     4.5174    4 B    0 0 0
   6 B    1     2.3911     4.5185    5 B    0 0 0
   6 B    1     2.5651     4.8473   29 C    0 0 0

   7 H    1     1.0913     2.0623   20 C    0 0 0
   7 H    1     2.1472     4.0576   19 C    0 1-2
   7 H    1     2.1680     4.0969   23 C    0 0 0
   7 H    1     2.5202     4.7625   10 H    0 0 0
   7 H    1     2.5676     4.8520   38 O   -1-1 1
   7 H    1     2.7321     5.1630    2 B   -1-1 1

   8 H    1     1.0914     2.0625   21 C    0 0 0
   8 H    1     2.1493     4.0616   24 C    0 0 0
   8 H    1     2.1666     4.0942   22 C    0 0 0
   8 H    1     2.5198     4.7618    9 H    0 1-2
   8 H    1     2.5720     4.8604   40 O    0 0 0
   8 H    1     2.7362     5.1707    4 B    0 0 0

   9 H    1     1.0914     2.0624   22 C    0-1 2
   9 H    1     2.1471     4.0575   19 C    0 0 0
   9 H    1     2.1680     4.0970   21 C    0-1 2
   9 H    1     2.5198     4.7618    8 H    0-1 2
   9 H    1     2.5665     4.8500   39 O    0 0 0
   9 H    1     2.7315     5.1618    2 B   -1-2 3

  10 H    1     1.0915     2.0626   23 C    0 0 0
  10 H    1     2.1490     4.0610   24 C    0 0 0
  10 H    1     2.1669     4.0948   20 C    0 0 0
  10 H    1     2.5202     4.7625    7 H    0 0 0
  10 H    1     2.5712     4.8588   41 O    0 0 0
  10 H    1     2.7351     5.1686    4 B    0 0 0

  11 H    1     1.0913     2.0623   26 C    0 0 0
  11 H    1     2.1469     4.0571   25 C    0 0 0
  11 H    1     2.1680     4.0968   29 C    0 0-1
  11 H    1     2.5198     4.7617   14 H    0 0-1
  11 H    1     2.5670     4.8510   38 O    0 0 0
  11 H    1     2.7310     5.1609    1 B    0 0 0

  12 H    1     1.0914     2.0625   27 C    0 0 0
  12 H    1     2.1493     4.0617   30 C    0 0 0
  12 H    1     2.1664     4.0939   28 C    0 0 1
  12 H    1     2.5192     4.7606   13 H    0 0 1
  12 H    1     2.5735     4.8632   40 O    0 0 0
  12 H    1     2.7371     5.1723    6 B    0 0 0

  13 H    1     1.0914     2.0624   28 C    0 0 0
  13 H    1     2.1475     4.0581   25 C    0 0 0
  13 H    1     2.1679     4.0967   27 C    0 0-1
  13 H    1     2.5192     4.7606   12 H    0 0-1
  13 H    1     2.5675     4.8519   37 O    1 2-3
  13 H    1     2.7328     5.1643    1 B    0 0 0

  14 H    1     1.0914     2.0625   29 C    0 0 0
  14 H    1     2.1491     4.0612   30 C    0 0 0
  14 H    1     2.1666     4.0942   26 C    0 0 1
  14 H    1     2.5198     4.7617   11 H    0 0 1
  14 H    1     2.5723     4.8609   42 O    0 0 0
  14 H    1     2.7355     5.1693    6 B    0 0 0

  15 H    1     1.0914     2.0624   32 C   -1-1 2
  15 H    1     2.1475     4.0582   31 C    0 0 0
  15 H    1     2.1678     4.0966   35 C   -1-1 2
  15 H    1     2.5200     4.7621   18 H   -1-1 2
  15 H    1     2.5667     4.8503   39 O    0 0 0
  15 H    1     2.7315     5.1618    3 B    0 0 0

  16 H    1     1.0913     2.0623   33 C    0 0 0
  16 H    1     2.1487     4.0605   36 C    0 0 0
  16 H    1     2.1667     4.0945   34 C    0 0 0
  16 H    1     2.5197     4.7616   17 H    0 0 0
  16 H    1     2.5723     4.8610   41 O    0 0 0
  16 H    1     2.7359     5.1701    5 B    0 0 0

  17 H    1     1.0915     2.0626   34 C    0 0 0
  17 H    1     2.1479     4.0589   31 C    1 1-2
  17 H    1     2.1679     4.0968   33 C    0 0 0
  17 H    1     2.5197     4.7616   16 H    0 0 0
  17 H    1     2.5677     4.8522   37 O    1 1-2
  17 H    1     2.7331     5.1648    3 B    1 1-2

  18 H    1     1.0914     2.0624   35 C    0 0 0
  18 H    1     2.1486     4.0602   36 C    0 0 0
  18 H    1     2.1668     4.0947   32 C    0 0 0
  18 H    1     2.5200     4.7621   15 H    1 1-2
  18 H    1     2.5717     4.8598   42 O    0 0 0
  18 H    1     2.7349     5.1682    5 B    0 0 0

  19 C    1     1.4020     2.6495   22 C    0-1 2
  19 C    1     1.4021     2.6495   20 C    0-1 2
  19 C    1     1.5504     2.9298    2 B   -1-2 3
  19 C    1     2.1471     4.0575    9 H    0 0 0
  19 C    1     2.1472     4.0576    7 H    0-1 2
  19 C    1     2.4246     4.5817   21 C    0-1 2

  20 C    1     1.0913     2.0623    7 H    0 0 0
  20 C    1     1.3914     2.6294   23 C    0 0 0
  20 C    1     1.4021     2.6495   19 C    0 1-2
  20 C    1     2.1669     4.0948   10 H    0 0 0
  20 C    1     2.4177     4.5688   22 C    0 0 0
  20 C    1     2.4250     4.5825   24 C    0 0 0

  21 C    1     1.0914     2.0625    8 H    0 0 0
  21 C    1     1.3914     2.6293   22 C    0 0 0
  21 C    1     1.4026     2.6505   24 C    0 0 0
  21 C    1     2.1680     4.0970    9 H    0 1-2
  21 C    1     2.4182     4.5697   23 C    0 0 0
  21 C    1     2.4246     4.5817   19 C    0 1-2

  22 C    1     1.0914     2.0624    9 H    0 1-2
  22 C    1     1.3914     2.6293   21 C    0 0 0
  22 C    1     1.4020     2.6495   19 C    0 1-2
  22 C    1     2.1666     4.0942    8 H    0 0 0
  22 C    1     2.4177     4.5688   20 C    0 0 0
  22 C    1     2.4250     4.5826   24 C    0 0 0

  23 C    1     1.0915     2.0626   10 H    0 0 0
  23 C    1     1.3914     2.6294   20 C    0 0 0
  23 C    1     1.4025     2.6504   24 C    0 0 0
  23 C    1     2.1680     4.0969    7 H    0 0 0
  23 C    1     2.4182     4.5697   21 C    0 0 0
  23 C    1     2.4246     4.5818   19 C    0 1-2

  24 C    1     1.4025     2.6504   23 C    0 0 0
  24 C    1     1.4026     2.6505   21 C    0 0 0
  24 C    1     1.5513     2.9316    4 B    0 0 0
  24 C    1     2.1490     4.0610   10 H    0 0 0
  24 C    1     2.1493     4.0616    8 H    0 0 0
  24 C    1     2.4250     4.5825   20 C    0 0 0

  25 C    1     1.4020     2.6494   26 C    0 0 0
  25 C    1     1.4021     2.6495   28 C    0 0 0
  25 C    1     1.5503     2.9297    1 B    0 0 0
  25 C    1     2.1469     4.0571   11 H    0 0 0
  25 C    1     2.1475     4.0581   13 H    0 0 0
  25 C    1     2.4246     4.5818   27 C    0 0-1

  26 C    1     1.0913     2.0623   11 H    0 0 0
  26 C    1     1.3914     2.6293   29 C    0 0-1
  26 C    1     1.4020     2.6494   25 C    0 0 0
  26 C    1     2.1666     4.0942   14 H    0 0-1
  26 C    1     2.4175     4.5684   28 C    0 0 0
  26 C    1     2.4251     4.5828   30 C    0 0-1

  27 C    1     1.0914     2.0625   12 H    0 0 0
  27 C    1     1.3915     2.6295   28 C    0 0 1
  27 C    1     1.4026     2.6505   30 C    0 0 0
  27 C    1     2.1679     4.0967   13 H    0 0 1
  27 C    1     2.4179     4.5691   29 C    0 0 0
  27 C    1     2.4246     4.5818   25 C    0 0 1

  28 C    1     1.0914     2.0624   13 H    0 0 0
  28 C    1     1.3915     2.6295   27 C    0 0-1
  28 C    1     1.4021     2.6495   25 C    0 0 0
  28 C    1     2.1664     4.0939   12 H    0 0-1
  28 C    1     2.4175     4.5684   26 C    0 0 0
  28 C    1     2.4253     4.5832   30 C    0 0-1

  29 C    1     1.0914     2.0625   14 H    0 0 0
  29 C    1     1.3914     2.6293   26 C    0 0 1
  29 C    1     1.4025     2.6504   30 C    0 0 0
  29 C    1     2.1680     4.0968   11 H    0 0 1
  29 C    1     2.4179     4.5691   27 C    0 0 0
  29 C    1     2.4247     4.5819   25 C    0 0 1

  30 C    1     1.4025     2.6504   29 C    0 0 0
  30 C    1     1.4026     2.6505   27 C    0 0 0
  30 C    1     1.5516     2.9322    6 B    0 0 0
  30 C    1     2.1491     4.0612   14 H    0 0 0
  30 C    1     2.1493     4.0617   12 H    0 0 0
  30 C    1     2.4251     4.5828   26 C    0 0 1

  31 C    1     1.4021     2.6496   32 C   -1-1 2
  31 C    1     1.4021     2.6497   34 C   -1-1 2
  31 C    1     1.5502     2.9294    3 B    0 0 0
  31 C    1     2.1475     4.0582   15 H    0 0 0
  31 C    1     2.1479     4.0589   17 H   -1-1 2
  31 C    1     2.4244     4.5814   33 C   -1-1 2

  32 C    1     1.0914     2.0624   15 H    1 1-2
  32 C    1     1.3914     2.6293   35 C    0 0 0
  32 C    1     1.4021     2.6496   31 C    1 1-2
  32 C    1     2.1668     4.0947   18 H    0 0 0
  32 C    1     2.4179     4.5692   34 C    0 0 0
  32 C    1     2.4251     4.5827   36 C    0 0 0

  33 C    1     1.0913     2.0623   16 H    0 0 0
  33 C    1     1.3914     2.6294   34 C    0 0 0
  33 C    1     1.4025     2.6504   36 C    0 0 0
  33 C    1     2.1679     4.0968   17 H    0 0 0
  33 C    1     2.4178     4.5690   35 C    0 0 0
  33 C    1     2.4244     4.5814   31 C    1 1-2

  34 C    1     1.0915     2.0626   17 H    0 0 0
  34 C    1     1.3914     2.6294   33 C    0 0 0
  34 C    1     1.4021     2.6497   31 C    1 1-2
  34 C    1     2.1667     4.0945   16 H    0 0 0
  34 C    1     2.4179     4.5692   32 C    0 0 0
  34 C    1     2.4253     4.5832   36 C    0 0 0

  35 C    1     1.0914     2.0624   18 H    0 0 0
  35 C    1     1.3914     2.6293   32 C    0 0 0
  35 C    1     1.4025     2.6503   36 C    0 0 0
  35 C    1     2.1678     4.0966   15 H    1 1-2
  35 C    1     2.4178     4.5690   33 C    0 0 0
  35 C    1     2.4245     4.5817   31 C    1 1-2

  36 C    1     1.4025     2.6503   35 C    0 0 0
  36 C    1     1.4025     2.6504   33 C    0 0 0
  36 C    1     1.5516     2.9322    5 B    0 0 0
  36 C    1     2.1486     4.0602   18 H    0 0 0
  36 C    1     2.1487     4.0605   16 H    0 0 0
  36 C    1     2.4251     4.5827   32 C    0 0 0

  37 O    1     1.3791     2.6061    1 B   -1-2 3
  37 O    1     1.3791     2.6061    3 B    0 0 0
  37 O    1     2.3880     4.5126   38 O   -1-2 3
  37 O    1     2.3882     4.5130   39 O    0 0 0
  37 O    1     2.5383     4.7966   31 C    0 0 0
  37 O    1     2.5384     4.7968   25 C   -1-2 3

  38 O    1     1.3793     2.6065    1 B    0 0 0
  38 O    1     1.3793     2.6065    2 B    0 0 0
  38 O    1     2.3880     4.5126   37 O    1 2-3
  38 O    1     2.3882     4.5131   39 O    1 2-3
  38 O    1     2.5391     4.7981   19 C    1 2-3
  38 O    1     2.5395     4.7990   25 C    0 0 0

  39 O    1     1.3793     2.6064    3 B    0 0 0
  39 O    1     1.3793     2.6065    2 B   -1-2 3
  39 O    1     2.3882     4.5130   37 O    0 0 0
  39 O    1     2.3882     4.5131   38 O   -1-2 3
  39 O    1     2.5390     4.7980   19 C    0 0 0
  39 O    1     2.5391     4.7982   31 C    0 0 0

  40 O    1     1.3795     2.6068    6 B    0 0 0
  40 O    1     1.3795     2.6068    4 B    0 0 0
  40 O    1     2.3880     4.5126   42 O    0 0 0
  40 O    1     2.3884     4.5134   41 O    0 0 0
  40 O    1     2.5400     4.7998   24 C    0 0 0
  40 O    1     2.5403     4.8005   30 C    0 0 0

  41 O    1     1.3795     2.6069    5 B    0 0 0
  41 O    1     1.3795     2.6070    4 B    0 0 0
  41 O    1     2.3881     4.5128   42 O    0 0 0
  41 O    1     2.3884     4.5134   40 O    0 0 0
  41 O    1     2.5404     4.8006   24 C    0 0 0
  41 O    1     2.5405     4.8008   36 C    0 0 0

  42 O    1     1.3796     2.6071    6 B    0 0 0
  42 O    1     1.3797     2.6072    5 B    0 0 0
  42 O    1     2.3880     4.5126   40 O    0 0 0
  42 O    1     2.3881     4.5128   41 O    0 0 0
  42 O    1     2.5409     4.8016   36 C    0 0 0
  42 O    1     2.5410     4.8019   30 C    0 0 0


 SYMMETRY ALLOWED INTERNAL DEGREE(S) OF FREEDOM: 123
 TTTTTTTTTTTTTTTTTTTTTTTTTTTTTT SYMM        TELAPSE        0.45 TCPU        0.45
 TTTTTTTTTTTTTTTTTTTTTTTTTTTTTT INT_SCREEN  TELAPSE        0.49 TCPU        0.49

 DFT PARAMETERS

     ATOM       ELECTRONS   NET CHARGE   R(ANGSTROM)
   1   5  B       5.0000      0.0000     0.89000000
   7   1  H       1.0000      0.0000     1.11000000
  19   6  C       6.0000      0.0000     0.77000000
  37   8  O       8.0000      0.0000     0.74000000

 SIZE OF GRID=    1259333
 TTTTTTTTTTTTTTTTTTTTTTTTTTTTTT MAKE_GRID2  TELAPSE       11.01 TCPU       11.00
 BECKE WEIGHT FUNCTION
 RADSAFE =     2.00
 TOLERANCES - DENSITY:10**- 6; POTENTIAL:10**- 9; GRID WGT:10**-14

 RADIAL INTEGRATION  - INTERVALS (POINTS,UPPER LIMIT):            1( 75,  4.0*R)

 ANGULAR INTEGRATION - INTERVALS (ACCURACY LEVEL [N. POINTS] UPPER LIMIT):
  1(  4[  86]   0.2)  2(  8[ 194]   0.5)  3( 12[ 350]   0.9)  4( 16[ 974]   3.5)
  5( 12[ 350]9999.0)
 TTTTTTTTTTTTTTTTTTTTTTTTTTTTTT INT_CALC    TELAPSE       11.09 TCPU       11.08
 EEEEEEEEEE INT_CALC TERMINATION  DATE 19 02 2026 TIME 17:56:32.2

 *******************************************************************************
 cof-1_z31_L080_incl                                                             
 CRYSTAL - SCF - TYPE OF CALCULATION :  RESTRICTED CLOSED SHELL
 *******************************************************************************

 CAPPA:IS1  2;IS2  2;IS3  8; K PTS MONK NET  20; SYMMOPS:K SPACE   2;G SPACE   1

 TTTTTTTTTTTTTTTTTTTTTTTTTTTTTT SDIK        TELAPSE       11.68 TCPU       18.98

 AAAAAAAAAAAAAAAAAAAAAAAAAAAAAAAAAAAAAAAAAAAAAAAAAAAAAAAAAAAAAAAAAAAAAAAAAAAAAAA
         ATOMIC WAVEFUNCTION(S)


 NUCLEAR CHARGE  5.0  SYMMETRY SPECIES            S    P
 N. ELECTRONS    5.0  NUMBER OF PRIMITIVE GTOS    8    4
                      NUMBER OF CONTRACTED GTOS   4    2
                      NUMBER OF CLOSED SHELLS     2    0
                      OPEN SHELL OCCUPATION       0    1

  ZNUC  SCFIT    TOTAL HF ENERGY   KINETIC ENERGY   VIRIAL THEOREM ACCURACY
   5.0    11    -2.451164084E+01  2.462155050E+01 -1.995536038E+00  1.5E-06

 NUCLEAR CHARGE  1.0  SYMMETRY SPECIES            S
 N. ELECTRONS    1.0  NUMBER OF PRIMITIVE GTOS    4
                      NUMBER OF CONTRACTED GTOS   2
                      NUMBER OF CLOSED SHELLS     0
                      OPEN SHELL OCCUPATION       1

  ZNUC  SCFIT    TOTAL HF ENERGY   KINETIC ENERGY   VIRIAL THEOREM ACCURACY
   1.0     1    -4.977266687E-01  5.190767460E-01 -1.958869132E+00  0.0E+00

 NUCLEAR CHARGE  6.0  SYMMETRY SPECIES            S    P
 N. ELECTRONS    6.0  NUMBER OF PRIMITIVE GTOS    8    4
                      NUMBER OF CONTRACTED GTOS   4    2
                      NUMBER OF CLOSED SHELLS     2    0
                      OPEN SHELL OCCUPATION       0    2

  ZNUC  SCFIT    TOTAL HF ENERGY   KINETIC ENERGY   VIRIAL THEOREM ACCURACY
   6.0     9    -3.766704647E+01  3.775180683E+01 -1.997754800E+00  1.1E-06

 NUCLEAR CHARGE  8.0  SYMMETRY SPECIES            S    P
 N. ELECTRONS    8.0  NUMBER OF PRIMITIVE GTOS    8    4
                      NUMBER OF CONTRACTED GTOS   4    2
                      NUMBER OF CLOSED SHELLS     2    0
                      OPEN SHELL OCCUPATION       0    4

  ZNUC  SCFIT    TOTAL HF ENERGY   KINETIC ENERGY   VIRIAL THEOREM ACCURACY
   8.0    12    -7.477373220E+01  7.477365593E+01 -2.000001020E+00  3.8E-06

 AAAAAAAAAAAAAAAAAAAAAAAAAAAAAAAAAAAAAAAAAAAAAAAAAAAAAAAAAAAAAAAAAAAAAAAAAAAAAAA

 CHARGE NORMALIZATION FACTOR   1.00000000
 TOTAL ATOMIC CHARGES:
   5.0000000   5.0000000   5.0000000   5.0000000   5.0000000   5.0000000
   1.0000000   1.0000000   1.0000000   1.0000000   1.0000000   1.0000000
   1.0000000   1.0000000   1.0000000   1.0000000   1.0000000   1.0000000
   6.0000000   6.0000000   6.0000000   6.0000000   6.0000000   6.0000000
   6.0000000   6.0000000   6.0000000   6.0000000   6.0000000   6.0000000
   6.0000000   6.0000000   6.0000000   6.0000000   6.0000000   6.0000000
   8.0000000   8.0000000   8.0000000   8.0000000   8.0000000   8.0000000
 TTTTTTTTTTTTTTTTTTTTTTTTTTTTTT MOQGAD      TELAPSE       11.73 TCPU       20.50
 TTTTTTTTTTTTTTTTTTTTTTTTTTTTTT SHELLXN     TELAPSE       20.87 TCPU      312.54
 TTTTTTTTTTTTTTTTTTTTTTTTTTTTTT MONMO3      TELAPSE       21.02 TCPU      317.46
 NUMERICALLY INTEGRATED DENSITY    198.0000686526
 TTTTTTTTTTTTTTTTTTTTTTTTTTTTTT NUMDFT      TELAPSE       21.76 TCPU      341.08
 CYC   0 ETOT(AU) -1.295997873382E+03 DETOT -1.30E+03 tst  0.00E+00 PX  1.00E+00
 TTTTTTTTTTTTTTTTTTTTTTTTTTTTTT DIIS        TELAPSE       21.80 TCPU      342.30
 TTTTTTTTTTTTTTTTTTTTTTTTTTTTTT FDIK        TELAPSE       22.29 TCPU      358.02
 INSULATING STATE
 TOP OF VALENCE BANDS -    BAND     99; K    1; EIG -3.0139414E-01 AU
 BOTTOM OF VIRTUAL BANDS - BAND    100; K    1; EIG -1.6233173E-01 AU
 DIRECT ENERGY BAND GAP:   3.7841 eV
 TTTTTTTTTTTTTTTTTTTTTTTTTTTTTT PDIG        TELAPSE       22.64 TCPU      364.23
 CHARGE NORMALIZATION FACTOR   1.00000000
 TOTAL ATOMIC CHARGES:
   4.1465360   4.1497196   4.1505877   4.1501117   4.1497041   4.1446233
   0.7857202   0.7858525   0.7857895   0.7858464   0.7857257   0.7859891
   0.7857259   0.7859420   0.7857947   0.7859357   0.7856705   0.7858287
   6.0411657   6.2696678   6.2693082   6.2671507   6.2667592   6.0410362
   6.0465929   6.2693940   6.2698800   6.2693551   6.2698112   6.0450098
   6.0418393   6.2667154   6.2671398   6.2691655   6.2696066   6.0406013
   8.6995539   8.6998769   8.6992493   8.7000700   8.6995484   8.7003993
 TTTTTTTTTTTTTTTTTTTTTTTTTTTTTT MOQGAD      TELAPSE       22.69 TCPU      364.28
 TTTTTTTTTTTTTTTTTTTTTTTTTTTTTT SHELLXN     TELAPSE       32.20 TCPU      667.39
 TTTTTTTTTTTTTTTTTTTTTTTTTTTTTT MONMO3      TELAPSE       32.35 TCPU      672.31
 NUMERICALLY INTEGRATED DENSITY    198.0000444727
 TTTTTTTTTTTTTTTTTTTTTTTTTTTTTT NUMDFT      TELAPSE       33.10 TCPU      696.38
 CYC   1 ETOT(AU) -1.288824868611E+03 DETOT  7.17E+00 tst  0.00E+00 PX  1.00E+00
 TTTTTTTTTTTTTTTTTTTTTTTTTTTTTT DIIS        TELAPSE       33.15 TCPU      697.95
 DIIS TEST: 0.11053E+01 AT SCF   CYCLE   1 - MIX   30 %
 TTTTTTTTTTTTTTTTTTTTTTTTTTTTTT FDIK        TELAPSE       33.65 TCPU      713.84
 INSULATING STATE
 TOP OF VALENCE BANDS -    BAND     99; K    1; EIG -2.1174806E-01 AU
 BOTTOM OF VIRTUAL BANDS - BAND    100; K   17; EIG -9.1156664E-02 AU
 INDIRECT ENERGY BAND GAP:   3.2815 eV
 BOTTOM OF VIRTUAL BANDS - BAND    100; K    1; EIG -8.7668717E-02 AU
 TTTTTTTTTTTTTTTTTTTTTTTTTTTTTT PDIG        TELAPSE       34.00 TCPU      720.04
 CHARGE NORMALIZATION FACTOR   1.00000000
 TOTAL ATOMIC CHARGES:
   4.7130334   4.6902141   4.6917494   4.6914339   4.6899992   4.7123953
   0.9028300   0.9029421   0.9026004   0.9019374   0.9013918   0.9020810
   0.9013765   0.9019243   0.9024461   0.9020244   0.9029296   0.9029639
   5.8717548   6.1475328   6.1471266   6.1324184   6.1322812   5.8752091
   5.8848046   6.1323125   6.1348455   6.1329789   6.1350773   5.8880712
   5.8722286   6.1324460   6.1324303   6.1477393   6.1466502   5.8746612
   8.3459352   8.3466288   8.3391505   8.3463569   8.3378801   8.3472072
 TTTTTTTTTTTTTTTTTTTTTTTTTTTTTT MOQGAD      TELAPSE       34.05 TCPU      720.09
 TTTTTTTTTTTTTTTTTTTTTTTTTTTTTT SHELLXN     TELAPSE       43.56 TCPU     1023.39
 TTTTTTTTTTTTTTTTTTTTTTTTTTTTTT MONMO3      TELAPSE       43.71 TCPU     1028.30
 NUMERICALLY INTEGRATED DENSITY    198.0000524077
 TTTTTTTTTTTTTTTTTTTTTTTTTTTTTT NUMDFT      TELAPSE       44.47 TCPU     1052.34
 CYC   2 ETOT(AU) -1.289016056272E+03 DETOT -1.91E-01 tst  3.07E-03 PX  1.57E-01
 TTTTTTTTTTTTTTTTTTTTTTTTTTTTTT DIIS        TELAPSE       44.52 TCPU     1054.05
 DIIS TEST: 0.45939E+00 AT SCF   CYCLE   2 - DIIS ACTIVE - HISTORY:     2 CYCLES
 TTTTTTTTTTTTTTTTTTTTTTTTTTTTTT FDIK        TELAPSE       45.02 TCPU     1069.89
 INSULATING STATE
 TOP OF VALENCE BANDS -    BAND     99; K    1; EIG -2.2489348E-01 AU
 BOTTOM OF VIRTUAL BANDS - BAND    100; K   17; EIG -8.2779863E-02 AU
 INDIRECT ENERGY BAND GAP:   3.8671 eV
 BOTTOM OF VIRTUAL BANDS - BAND    100; K    1; EIG -8.1553084E-02 AU
 TTTTTTTTTTTTTTTTTTTTTTTTTTTTTT PDIG        TELAPSE       45.37 TCPU     1076.09
 CHARGE NORMALIZATION FACTOR   1.00000000
 TOTAL ATOMIC CHARGES:
   4.4934886   4.4824176   4.4836087   4.4834108   4.4823852   4.4922728
   0.8828209   0.8830104   0.8830482   0.8826889   0.8813627   0.8822726
   0.8813761   0.8821271   0.8829373   0.8827465   0.8829617   0.8829157
   5.8902000   6.1706039   6.1694868   6.1676810   6.1676212   5.8908128
   5.8893993   6.1716054   6.1714550   6.1716151   6.1716179   5.8872423
   5.8901632   6.1675348   6.1679258   6.1700437   6.1698350   5.8909411
   8.5175670   8.5182035   8.5219702   8.5178513   8.5223268   8.5184450
 TTTTTTTTTTTTTTTTTTTTTTTTTTTTTT MOQGAD      TELAPSE       45.42 TCPU     1076.14
 TTTTTTTTTTTTTTTTTTTTTTTTTTTTTT SHELLXN     TELAPSE       54.92 TCPU     1379.29
 TTTTTTTTTTTTTTTTTTTTTTTTTTTTTT MONMO3      TELAPSE       55.07 TCPU     1384.19
 NUMERICALLY INTEGRATED DENSITY    198.0000508619
 TTTTTTTTTTTTTTTTTTTTTTTTTTTTTT NUMDFT      TELAPSE       55.83 TCPU     1408.28
 CYC   3 ETOT(AU) -1.289109754816E+03 DETOT -9.37E-02 tst  8.04E-04 PX  6.39E-02
 TTTTTTTTTTTTTTTTTTTTTTTTTTTTTT DIIS        TELAPSE       55.89 TCPU     1410.20
 DIIS TEST: 0.13390E-01 AT SCF   CYCLE   3 - DIIS ACTIVE - HISTORY:     3 CYCLES
 TTTTTTTTTTTTTTTTTTTTTTTTTTTTTT FDIK        TELAPSE       56.39 TCPU     1426.16
 INSULATING STATE
 TOP OF VALENCE BANDS -    BAND     99; K    1; EIG -2.3332823E-01 AU
 BOTTOM OF VIRTUAL BANDS - BAND    100; K   17; EIG -9.0987704E-02 AU
 INDIRECT ENERGY BAND GAP:   3.8733 eV
 BOTTOM OF VIRTUAL BANDS - BAND    100; K    1; EIG -8.9975816E-02 AU
 TTTTTTTTTTTTTTTTTTTTTTTTTTTTTT PDIG        TELAPSE       56.73 TCPU     1432.37
 CHARGE NORMALIZATION FACTOR   1.00000000
 TOTAL ATOMIC CHARGES:
   4.5014458   4.4882818   4.4896286   4.4892273   4.4879217   4.5002949
   0.8665510   0.8666283   0.8672241   0.8669110   0.8660631   0.8665339
   0.8660448   0.8664114   0.8671206   0.8670061   0.8665977   0.8666493
   5.9410764   6.1766331   6.1764872   6.1663157   6.1658524   5.9431573
   5.9493538   6.1671308   6.1693186   6.1675972   6.1693575   5.9517743
   5.9418846   6.1661973   6.1660400   6.1767802   6.1762033   5.9423473
   8.4900735   8.4906399   8.4841660   8.4906116   8.4831664   8.4912941
 TTTTTTTTTTTTTTTTTTTTTTTTTTTTTT MOQGAD      TELAPSE       56.78 TCPU     1432.42
 TTTTTTTTTTTTTTTTTTTTTTTTTTTTTT SHELLXN     TELAPSE       66.28 TCPU     1735.49
 TTTTTTTTTTTTTTTTTTTTTTTTTTTTTT MONMO3      TELAPSE       66.44 TCPU     1740.41
 NUMERICALLY INTEGRATED DENSITY    198.0000507445
 TTTTTTTTTTTTTTTTTTTTTTTTTTTTTT NUMDFT      TELAPSE       67.19 TCPU     1764.42
 CYC   4 ETOT(AU) -1.289112534661E+03 DETOT -2.78E-03 tst  4.05E-05 PX  1.41E-02
 TTTTTTTTTTTTTTTTTTTTTTTTTTTTTT DIIS        TELAPSE       67.25 TCPU     1766.43
 DIIS TEST: 0.36267E-02 AT SCF   CYCLE   4 - DIIS ACTIVE - HISTORY:     4 CYCLES
 TTTTTTTTTTTTTTTTTTTTTTTTTTTTTT FDIK        TELAPSE       67.75 TCPU     1782.33
 INSULATING STATE
 TOP OF VALENCE BANDS -    BAND     99; K    1; EIG -2.3219102E-01 AU
 BOTTOM OF VIRTUAL BANDS - BAND    100; K   17; EIG -9.0927818E-02 AU
 INDIRECT ENERGY BAND GAP:   3.8440 eV
 BOTTOM OF VIRTUAL BANDS - BAND    100; K    1; EIG -8.9899724E-02 AU
 TTTTTTTTTTTTTTTTTTTTTTTTTTTTTT PDIG        TELAPSE       68.10 TCPU     1788.54
 CHARGE NORMALIZATION FACTOR   1.00000000
 TOTAL ATOMIC CHARGES:
   4.5056361   4.4910621   4.4923705   4.4921206   4.4909249   4.5045382
   0.8690022   0.8692014   0.8693123   0.8689150   0.8676196   0.8684394
   0.8676296   0.8682910   0.8692121   0.8689820   0.8691339   0.8691352
   5.9206525   6.1774997   6.1764399   6.1700907   6.1700876   5.9219362
   5.9257132   6.1729041   6.1732780   6.1730366   6.1735242   5.9245072
   5.9206666   6.1699136   6.1703925   6.1770453   6.1767036   5.9219493
   8.4965418   8.4972441   8.4969847   8.4968160   8.4970081   8.4975382
 TTTTTTTTTTTTTTTTTTTTTTTTTTTTTT MOQGAD      TELAPSE       68.15 TCPU     1788.59
 TTTTTTTTTTTTTTTTTTTTTTTTTTTTTT SHELLXN     TELAPSE       77.65 TCPU     2091.64
 TTTTTTTTTTTTTTTTTTTTTTTTTTTTTT MONMO3      TELAPSE       77.80 TCPU     2096.55
 NUMERICALLY INTEGRATED DENSITY    198.0000505844
 TTTTTTTTTTTTTTTTTTTTTTTTTTTTTT NUMDFT      TELAPSE       78.56 TCPU     2120.60
 CYC   5 ETOT(AU) -1.289113366098E+03 DETOT -8.31E-04 tst  5.88E-06 PX  7.12E-03
 TTTTTTTTTTTTTTTTTTTTTTTTTTTTTT DIIS        TELAPSE       78.62 TCPU     2122.81
 DIIS TEST: 0.89419E-04 AT SCF   CYCLE   5 - DIIS ACTIVE - HISTORY:     5 CYCLES
 TTTTTTTTTTTTTTTTTTTTTTTTTTTTTT FDIK        TELAPSE       79.12 TCPU     2138.78
 INSULATING STATE
 TOP OF VALENCE BANDS -    BAND     99; K    1; EIG -2.3200369E-01 AU
 BOTTOM OF VIRTUAL BANDS - BAND    100; K   17; EIG -9.0456535E-02 AU
 INDIRECT ENERGY BAND GAP:   3.8517 eV
 BOTTOM OF VIRTUAL BANDS - BAND    100; K    1; EIG -8.9306122E-02 AU
 TTTTTTTTTTTTTTTTTTTTTTTTTTTTTT PDIG        TELAPSE       79.47 TCPU     2144.98
 CHARGE NORMALIZATION FACTOR   1.00000000
 TOTAL ATOMIC CHARGES:
   4.5039842   4.4909179   4.4922288   4.4918649   4.4906530   4.5028234
   0.8699569   0.8700392   0.8702079   0.8698894   0.8688946   0.8694623
   0.8688700   0.8693471   0.8700873   0.8699782   0.8700127   0.8700483
   5.9216866   6.1766992   6.1764379   6.1690689   6.1685713   5.9232161
   5.9255102   6.1709012   6.1727833   6.1713235   6.1727576   5.9272124
   5.9224122   6.1689977   6.1687521   6.1767611   6.1762082   5.9225092
   8.4971512   8.4976649   8.4944473   8.4977010   8.4936783   8.4982824
 TTTTTTTTTTTTTTTTTTTTTTTTTTTTTT MOQGAD      TELAPSE       79.52 TCPU     2145.03
 TTTTTTTTTTTTTTTTTTTTTTTTTTTTTT SHELLXN     TELAPSE       89.02 TCPU     2447.95
 TTTTTTTTTTTTTTTTTTTTTTTTTTTTTT MONMO3      TELAPSE       89.17 TCPU     2452.87
 NUMERICALLY INTEGRATED DENSITY    198.0000506377
 TTTTTTTTTTTTTTTTTTTTTTTTTTTTTT NUMDFT      TELAPSE       89.92 TCPU     2476.85
 CYC   6 ETOT(AU) -1.289113387578E+03 DETOT -2.15E-05 tst  2.85E-07 PX  1.62E-03
 TTTTTTTTTTTTTTTTTTTTTTTTTTTTTT DIIS        TELAPSE       90.00 TCPU     2479.22
 DIIS TEST: 0.15719E-04 AT SCF   CYCLE   6 - DIIS ACTIVE - HISTORY:     6 CYCLES
 TTTTTTTTTTTTTTTTTTTTTTTTTTTTTT FDIK        TELAPSE       90.50 TCPU     2495.15
 INSULATING STATE
 TOP OF VALENCE BANDS -    BAND     99; K    1; EIG -2.3203049E-01 AU
 BOTTOM OF VIRTUAL BANDS - BAND    100; K   17; EIG -9.0499536E-02 AU
 INDIRECT ENERGY BAND GAP:   3.8513 eV
 BOTTOM OF VIRTUAL BANDS - BAND    100; K    1; EIG -8.9415192E-02 AU
 TTTTTTTTTTTTTTTTTTTTTTTTTTTTTT PDIG        TELAPSE       90.85 TCPU     2501.36
 CHARGE NORMALIZATION FACTOR   1.00000000
 TOTAL ATOMIC CHARGES:
   4.5047305   4.4908098   4.4921141   4.4918484   4.4906483   4.5035910
   0.8698888   0.8700565   0.8702402   0.8698436   0.8686418   0.8694260
   0.8686504   0.8692770   0.8701401   0.8699110   0.8700097   0.8700008
   5.9216397   6.1766592   6.1757561   6.1689809   6.1689702   5.9231257
   5.9269340   6.1715803   6.1721359   6.1717332   6.1723724   5.9262240
   5.9217489   6.1687969   6.1692737   6.1762813   6.1759551   5.9230416
   8.4964357   8.4971305   8.4956518   8.4967325   8.4955473   8.4974652
 TTTTTTTTTTTTTTTTTTTTTTTTTTTTTT MOQGAD      TELAPSE       90.90 TCPU     2501.41
 TTTTTTTTTTTTTTTTTTTTTTTTTTTTTT SHELLXN     TELAPSE      100.39 TCPU     2804.24
 TTTTTTTTTTTTTTTTTTTTTTTTTTTTTT MONMO3      TELAPSE      100.54 TCPU     2809.14
 NUMERICALLY INTEGRATED DENSITY    198.0000506381
 TTTTTTTTTTTTTTTTTTTTTTTTTTTTTT NUMDFT      TELAPSE      101.30 TCPU     2833.16
 CYC   7 ETOT(AU) -1.289113390380E+03 DETOT -2.80E-06 tst  3.91E-08 PX  6.94E-04
 TTTTTTTTTTTTTTTTTTTTTTTTTTTTTT DIIS        TELAPSE      101.38 TCPU     2835.76
 DIIS TEST: 0.20398E-05 AT SCF   CYCLE   7 - DIIS ACTIVE - HISTORY:     7 CYCLES
 TTTTTTTTTTTTTTTTTTTTTTTTTTTTTT FDIK        TELAPSE      101.88 TCPU     2851.78
 INSULATING STATE
 TOP OF VALENCE BANDS -    BAND     99; K    1; EIG -2.3203281E-01 AU
 BOTTOM OF VIRTUAL BANDS - BAND    100; K   17; EIG -9.0520141E-02 AU
 INDIRECT ENERGY BAND GAP:   3.8508 eV
 BOTTOM OF VIRTUAL BANDS - BAND    100; K    1; EIG -8.9428019E-02 AU
 TTTTTTTTTTTTTTTTTTTTTTTTTTTTTT PDIG        TELAPSE      102.22 TCPU     2857.98
 CHARGE NORMALIZATION FACTOR   1.00000000
 TOTAL ATOMIC CHARGES:
   4.5047311   4.4909318   4.4922402   4.4919326   4.4907258   4.5036023
   0.8698639   0.8700034   0.8701805   0.8698259   0.8686728   0.8693599
   0.8686640   0.8692290   0.8700691   0.8699051   0.8699574   0.8699754
   5.9215747   6.1766752   6.1760199   6.1690824   6.1688087   5.9229743
   5.9261979   6.1713228   6.1724866   6.1716145   6.1725864   5.9265052
   5.9219652   6.1689637   6.1690448   6.1764877   6.1760295   5.9226080
   8.4966316   8.4972352   8.4954791   8.4970511   8.4950854   8.4976997
 TTTTTTTTTTTTTTTTTTTTTTTTTTTTTT MOQGAD      TELAPSE      102.27 TCPU     2858.03
 TTTTTTTTTTTTTTTTTTTTTTTTTTTTTT SHELLXN     TELAPSE      111.78 TCPU     3161.08
 TTTTTTTTTTTTTTTTTTTTTTTTTTTTTT MONMO3      TELAPSE      111.93 TCPU     3165.98
 NUMERICALLY INTEGRATED DENSITY    198.0000506379
 TTTTTTTTTTTTTTTTTTTTTTTTTTTTTT NUMDFT      TELAPSE      112.68 TCPU     3190.03
 CYC   8 ETOT(AU) -1.289113390738E+03 DETOT -3.58E-07 tst  7.53E-09 PX  1.64E-04
 TTTTTTTTTTTTTTTTTTTTTTTTTTTTTT DIIS        TELAPSE      112.77 TCPU     3192.75
 DIIS TEST: 0.98393E-07 AT SCF   CYCLE   8 - DIIS ACTIVE - HISTORY:     8 CYCLES
 TTTTTTTTTTTTTTTTTTTTTTTTTTTTTT FDIK        TELAPSE      113.27 TCPU     3208.73
 INSULATING STATE
 TOP OF VALENCE BANDS -    BAND     99; K    1; EIG -2.3203346E-01 AU
 BOTTOM OF VIRTUAL BANDS - BAND    100; K   17; EIG -9.0518136E-02 AU
 INDIRECT ENERGY BAND GAP:   3.8508 eV
 BOTTOM OF VIRTUAL BANDS - BAND    100; K    1; EIG -8.9422015E-02 AU
 TTTTTTTTTTTTTTTTTTTTTTTTTTTTTT PDIG        TELAPSE      113.62 TCPU     3214.94
 CHARGE NORMALIZATION FACTOR   1.00000000
 TOTAL ATOMIC CHARGES:
   4.5046886   4.4909272   4.4922341   4.4919367   4.4907319   4.5035475
   0.8698587   0.8700018   0.8701827   0.8698096   0.8686558   0.8693757
   0.8686552   0.8692364   0.8700770   0.8698831   0.8699603   0.8699656
   5.9215358   6.1767100   6.1759978   6.1690389   6.1688829   5.9230280
   5.9263431   6.1714425   6.1723918   6.1716722   6.1725531   5.9263412
   5.9218254   6.1688875   6.1691516   6.1764635   6.1760673   5.9227621
   8.4966638   8.4973041   8.4953749   8.4970360   8.4950767   8.4977221
 TTTTTTTTTTTTTTTTTTTTTTTTTTTTTT MOQGAD      TELAPSE      113.67 TCPU     3214.99
 TTTTTTTTTTTTTTTTTTTTTTTTTTTTTT SHELLXN     TELAPSE      123.18 TCPU     3518.28
 +++ ENERGIES IN A.U. +++
 ::: EXT EL-POLE                                  -1.6567746498156E+03
 ::: EXT EL-SPHEROPOLE                             1.8467259828192E+01
 ::: BIELET ZONE E-E                               2.2460081827624E+03
 ::: TOTAL E-E                                     6.0770079277507E+02
 ::: TOTAL E-N + N-E                              -3.0370932542698E+03
 ::: TOTAL N-N                                    -5.9785560803539E+00
 ::: KINETIC ENERGY                                1.2799900741904E+03
 ::: PSEUDO TOTAL   ENERGY                        -1.1553809433847E+03
 ::: VIRIAL COEFFICIENT                            1.0511663848779E+00
 TTTTTTTTTTTTTTTTTTTTTTTTTTTTTT MONMO3      TELAPSE      123.33 TCPU     3523.19
 NUMERICALLY INTEGRATED DENSITY    198.0000506383
 EXCHANGE ENERGY: -0.126027455330E+03  CORRELATION ENERGY: -0.770499205123E+01
 TTTTTTTTTTTTTTTTTTTTTTTTTTTTTT NUMDFT      TELAPSE      124.08 TCPU     3547.25
 CYC   9 ETOT(AU) -1.289113390766E+03 DETOT -2.83E-08 tst  7.83E-10 PX  1.64E-04

 == SCF ENDED - CONVERGENCE ON ENERGY      E(AU) -1.2891133907660E+03 CYCLES   9


 ENERGY EXPRESSION=HARTREE+FOCK EXCH*0.00000+(HSESOL     EXCH)*1.00000+PBESOL     CORR


 TOTAL ENERGY(DFT)(AU)(  9) -1.2891133907660E+03 DE-2.8E-08 tester 7.8E-10
 TTTTTTTTTTTTTTTTTTTTTTTTTTTTTT EDFT        TELAPSE      124.08 TCPU     3547.26
 
 INFORMATION **** DFTD3 ENERGY **** CALCULATE DFTD3 ENERGY

           DFT-D V3(BJ)
 DF                                         hsesol3c  
 parameters
 s6       :    1.0000
 s8       :    0.0000
 a1       :    0.5196
 a2       :    4.9385
 k1 k3    :   16.0000   -4.0000
 Cutoff   :   50.2022
 CN-Cutoff:   21.1671
 ABC-Cutoff:   21.1671
 
 Edisp /kcal,au:   -28.7896 -0.04587919

 E6    /kcal :   -30.7209
 E8    /kcal :     0.0000
 E6(ABC) "   :   1.931306
 
 INFORMATION **** DFTD3 ENERGY **** NORMAL TERMINATION OF DFTD3 MODULE

 GCP ENERGY CALCULATION
  level        hsesol3c            basis:hsesol3c
  Nbf            474
  Atoms           42

  Parameters: 
  sigma     1.0000
  eta       1.4281
  alpha     0.2936
  beta      1.9467

  dmp_scal      4.0000
  dmp_exp       6.0000
 cutoffs: 
   distance [bohr] 60.0
   noise    [a.u.] 2.2E-16
 SR-damping   T
 ** gCP correction **
  Egcp:        0.0848973816 / (a.u.) ||      53.2739 / (kcal/mol)
 INFORMATION **** GCP **** NORMAL TERMINATION OF GCP MODULE

 *******************************************************************************

 DFT-D3-GCP DISPERSION AND COUNTERPOISE CORRECTION

 D3 DISPERSION ENERGY (AU)      -4.5879194166168E-02
 GCP ENERGY (AU)                 8.4897381553756E-02
 TOTAL ENERGY + DISP + GCP (AU) -1.2890743725786E+03

 *******************************************************************************

 EIGENVECTORS IN FORTRAN UNIT 10
 TTTTTTTTTTTTTTTTTTTTTTTTTTTTTT END         TELAPSE      127.11 TCPU     3556.25
 EEEEEEEEEE TERMINATION  DATE 19 02 2026 TIME 17:58:28.2
