 Default number of threads is:           32

         
 *******************************************************************************
 *                                                                             *
 *                               CRYSTAL23                                     *
 *                      public : 1.0.1 - October 2022                          *
 *                       HTTP://WWW.CRYSTAL.UNITO.IT                           *
 *                                                                             *
 *                              MAIN AUTHORS                                   *
 *                                                                             *
 *  R. DOVESI(1,11), V.R. SAUNDERS(2), C. ROETTI(1,11), R. ORLANDO(1,11),      *
 *  C.M. ZICOVICH-WILSON(1,3), F. PASCALE(4), B. CIVALLERI(1,11),              *
 *  K. DOLL(5), N.M. HARRISON(6), I.J. BUSH(7), Ph. D'ARCO(8),                 *
 *  M. LLUNELL(9), M. CAUSA'(10), Y. NOEL(8), L. MASCHIO(1,11), A. ERBA(1,11)  *
 *  M. RE'RAT(14), S. CASASSA(1,11), B.G. SEARLE(2), J.K. DESMARAIS(1)         *
 *                                                                             *
 *        CONTRIBUTIONS TO THE CODE HAVE ALSO BEEN GIVEN BY                    *
 *                                                                             *
 *  M. FERRABONE(1,11), M. DE LA PIERRE(1,11), M. FERRERO(1,11),               *
 *  J. BAIMA(1,11), E. ALBANESE(1,11), M.F. PEINTINGER(12), R. BAST(13),       *
 *  B. KIRTMAN(15), V. LACIVITA(1,11), R. DEMICHELIS(1,16)                     *
 *  G. BRANDEBURG(17), S. SALUSTRO(1,11), G. SANSONE(1,11)                     *
 *  M.T. RUGGIERO(18), L.E. DAGA(1), L. DONA'(1), A. COSSARD(1)                *
 *                                                                             *
 * (1) THEORETICAL CHEMISTRY GROUP - UNIVERSITA' DI TORINO - TORINO (ITALY)    *
 * (2) SCIENTIFIC COMPUTING DEPARTMENT - STFC DARESBURY (UK)                   *
 * (3) UNIVERSIDAD AUTONOMA DEL ESTADO DE MORELOS - CUERNAVACA (MEXICO)        *
 * (4) UNIVERSITE' DE LORRAINE - NANCY (FRANCE)                                *
 * (5) UNIVERSITAET STUTTGART- STUTTGART (GERMANY)                             *
 * (6) IMPERIAL COLLEGE - LONDON (UK)                                          *
 * (7) SCIENTIFIC COMPUTING DEPARTMENT - STFC RAL (UK)                         *
 * (8) UPMC - SORBONNE UNIVERSITES - PARIS (FRANCE)                            *
 * (9) UNIVERSIDAD DE BARCELONA - BARCELONA (SPAIN)                            *
 *(10) UNIVERSITA' DI NAPOLI "FEDERICO II" - NAPOLI (ITALY)                    *
 *(11) NIS - NANOSTRUCTURED INTERFACES AND SURFACES - TORINO (ITALY)           *
 *(12) MPI FUER CHEMISCHE ENERGIEKONVERSION - MUELHEIM AN DER RUHR (GERMANY)   *
 *(13) UNIVERSITY OF TROMSO - TROMSO (NORWAY)                                  *
 *(14) UNIVERSITE' DE PAU ET DES PAYS DE L'ADOUR - PAU (FRANCE)                *
 *(15) UNIVERSITY OF CALIFORNIA SANTA BARBARA - SANTA BARBARA (USA)            *
 *(16) CURTIN UNIVERSITY - PERTH (AUSTRALIA)                                   *
 *(17) UNIVERSITY COLLEGE LONDON - LONDON (UK)                                 *
 *(18) UNIVERSITY OF VERMONT - BURLINGTON (USA)                                *
 *                                                                             *
 *******************************************************************************
 EEEEEEEEEE STARTING  DATE 19 02 2026 TIME 20:17:35.5
 cof-1_z38_L020_serr                                                             

 CRYSTAL CALCULATION
 (INPUT ACCORDING TO THE INTERNATIONAL TABLES FOR X-RAY CRYSTALLOGRAPHY)
 CRYSTAL FAMILY                       :  TRICLINIC   
 CRYSTAL CLASS  (GROTH - 1921)        :  TRICLINIC PEDIAL                     

 SPACE GROUP (NONCENTROSYMMETRIC)     :  P 1             

 LATTICE PARAMETERS  (ANGSTROMS AND DEGREES) - CONVENTIONAL CELL
        A           B           C        ALPHA        BETA       GAMMA
    15.02361    15.02392     7.60000    90.00032    89.99994   119.99596


 NUMBER OF IRREDUCIBLE ATOMS IN THE CONVENTIONAL CELL:   84

 INPUT COORDINATES

 ATOM AT. N.              COORDINATES
   1   5     6.136805400000E-01  2.273182200000E-01  2.506285100000E-01
   2   5     6.905271000000E-01  3.810269500000E-01  7.506285100000E-01
   3   5     7.727362000000E-01  3.863778800000E-01  2.506285200000E-01
   4   5     8.495827600000E-01  5.400866100000E-01  7.506285200000E-01
   5   5     6.136762700000E-01  3.863606700000E-01  2.493070500000E-01
   6   5     6.905228300000E-01  5.400694000000E-01  7.493070500000E-01
   7   5     2.272552500000E-01  6.136332200000E-01  2.506285200000E-01
   8   5     3.041018100000E-01  7.673419500000E-01  7.506285200000E-01
   9   5     3.863632200000E-01  6.136124500000E-01  2.506285200000E-01
  10   5     4.632097800000E-01  7.673211800000E-01  7.506285200000E-01
  11   5     3.863435000000E-01  7.727516500000E-01  2.493070500000E-01
  12   5     4.631900600000E-01  9.264603800000E-01  7.493070500000E-01
  13   1     9.030436200000E-01  3.089300500000E-01  2.478888400000E-01
  14   1     9.798901800000E-01  4.626387800000E-01  7.478888400000E-01
  15   1     9.663453000000E-02  6.910534400000E-01  2.474699000000E-01
  16   1     1.734810900000E-01  8.447621700000E-01  7.474699000000E-01
  17   1     9.029714200000E-01  5.940724300000E-01  2.474054200000E-01
  18   1     9.798179800000E-01  7.477811600000E-01  7.474054200000E-01
  19   1     9.673618000000E-02  4.056849400000E-01  2.474215000000E-01
  20   1     1.735827400000E-01  5.593936700000E-01  7.474215000000E-01
  21   1     6.910324000000E-01  9.700412000000E-02  2.521111700000E-01
  22   1     7.678789600000E-01  2.507128500000E-01  7.521111800000E-01
  23   1     3.089297200000E-01  9.034373100000E-01  2.525301400000E-01
  24   1     3.857762800000E-01  5.714604000000E-02  7.525301400000E-01
  25   1     4.058699900000E-01  9.704998000000E-02  2.525946600000E-01
  26   1     4.827165500000E-01  2.507587100000E-01  7.525946600000E-01
  27   1     5.943122100000E-01  9.033473200000E-01  2.525784700000E-01
  28   1     6.711587700000E-01  5.705605000000E-02  7.525784700000E-01
  29   1     6.910727400000E-01  5.940542100000E-01  2.478888700000E-01
  30   1     7.679193000000E-01  7.477629400000E-01  7.478888700000E-01
  31   1     3.089618300000E-01  4.056093300000E-01  2.474698700000E-01
  32   1     3.858083900000E-01  5.593180600000E-01  7.474698700000E-01
  33   1     4.058405700000E-01  3.088232500000E-01  2.474053700000E-01
  34   1     4.826871300000E-01  4.625319800000E-01  7.474053700000E-01
  35   1     5.942908800000E-01  6.909579300000E-01  2.474215500000E-01
  36   1     6.711374400000E-01  8.446666600000E-01  7.474215500000E-01
  37   6     8.918903100000E-01  4.459436900000E-01  2.492587000000E-01
  38   6     9.687368700000E-01  5.996524200000E-01  7.492587000000E-01
  39   6     9.464891100000E-01  3.927856300000E-01  2.479533100000E-01
  40   6     2.333567000000E-02  5.464943600000E-01  7.479533100000E-01
  41   6     5.338812000000E-02  6.071853000000E-01  2.478405500000E-01
  42   6     1.302346800000E-01  7.608940300000E-01  7.478405500000E-01
  43   6     9.464521100000E-01  5.536921900000E-01  2.481789700000E-01
  44   6     2.329867000000E-02  7.074009200000E-01  7.481789700000E-01
  45   6     5.342634000000E-02  4.462499700000E-01  2.473086900000E-01
  46   6     1.302729000000E-01  5.999587000000E-01  7.473086900000E-01
  47   6     1.080358900000E-01  5.540356300000E-01  2.481950700000E-01
  48   6     1.848824500000E-01  7.077443600000E-01  7.481950700000E-01
  49   6     5.540394200000E-01  1.081684600000E-01  2.507413400000E-01
  50   6     6.308859800000E-01  2.618771900000E-01  7.507413300000E-01
  51   6     6.071778500000E-01  5.355594000000E-02  2.520466900000E-01
  52   6     6.840244100000E-01  2.072646700000E-01  7.520466900000E-01
  53   6     3.927986700000E-01  9.466631600000E-01  2.521595100000E-01
  54   6     4.696452300000E-01  1.003718900000E-01  7.521595000000E-01
  55   6     4.462875800000E-01  5.360286000000E-02  2.518210900000E-01
  56   6     5.231341400000E-01  2.073115900000E-01  7.518210900000E-01
  57   6     5.537168500000E-01  9.466235600000E-01  2.526913000000E-01
  58   6     6.305634100000E-01  1.003322900000E-01  7.526913000000E-01
  59   6     4.459279100000E-01  8.919920600000E-01  2.518049500000E-01
  60   6     5.227744700000E-01  4.570079000000E-02  7.518049500000E-01
  61   6     5.540448700000E-01  4.458745500000E-01  2.492586900000E-01
  62   6     6.308914300000E-01  5.995832800000E-01  7.492586900000E-01
  63   6     6.072102200000E-01  5.536257800000E-01  2.479533400000E-01
  64   6     6.840567800000E-01  7.073345100000E-01  7.479533400000E-01
  65   6     3.928233700000E-01  4.461720300000E-01  2.478405200000E-01
  66   6     4.696699300000E-01  5.998807600000E-01  7.478405200000E-01
  67   6     4.462872600000E-01  3.926899900000E-01  2.481789300000E-01
  68   6     5.231338200000E-01  5.463987200000E-01  7.481789300000E-01
  69   6     5.537429600000E-01  6.070980000000E-01  2.473087300000E-01
  70   6     6.305895200000E-01  7.608067300000E-01  7.473087300000E-01
  71   6     4.459599800000E-01  5.539582300000E-01  2.481950700000E-01
  72   6     5.228065400000E-01  7.076669600000E-01  7.481950700000E-01
  73   8     5.607366800000E-01  2.803706300000E-01  2.496615800000E-01
  74   8     6.375832400000E-01  4.340793600000E-01  7.496615800000E-01
  75   8     7.196817000000E-01  2.803783300000E-01  2.524495700000E-01
  76   8     7.965282600000E-01  4.340870600000E-01  7.524495700000E-01
  77   8     7.196794200000E-01  4.393234600000E-01  2.482434300000E-01
  78   8     7.965259800000E-01  5.930321900000E-01  7.482434300000E-01
  79   8     2.803245100000E-01  7.196511100000E-01  2.496616000000E-01
  80   8     3.571710700000E-01  8.733598400000E-01  7.496616000000E-01
  81   8     2.803439700000E-01  5.606956100000E-01  2.524495700000E-01
  82   8     3.571905300000E-01  7.144043400000E-01  7.524495700000E-01
  83   8     4.392638400000E-01  7.196354200000E-01  2.482434200000E-01
  84   8     5.161104000000E-01  8.733441500000E-01  7.482434200000E-01

 *******************************************************************************

 << INFORMATION >>: FROM NOW ON, ALL COORDINATES REFER TO THE PRIMITIVE CELL

 *******************************************************************************

 LATTICE PARAMETERS  (ANGSTROMS AND DEGREES) - PRIMITIVE CELL
       A          B          C        ALPHA      BETA     GAMMA        VOLUME
   15.02361   15.02392    7.60000    90.00032  89.99994 119.99596   1485.659765

 COORDINATES OF THE EQUIVALENT ATOMS (FRACTIONAL UNITS)

 N. ATOM EQUIV AT. N.          X                  Y                  Z

   1   1   1    5 B    -3.86319460000E-01  2.27318220000E-01  2.50628510000E-01

   2   2   1    5 B    -3.09472900000E-01  3.81026950000E-01 -2.49371490000E-01

   3   3   1    5 B    -2.27263800000E-01  3.86377880000E-01  2.50628520000E-01

   4   4   1    5 B    -1.50417240000E-01 -4.59913390000E-01 -2.49371480000E-01

   5   5   1    5 B    -3.86323730000E-01  3.86360670000E-01  2.49307050000E-01

   6   6   1    5 B    -3.09477170000E-01 -4.59930600000E-01 -2.50692950000E-01

   7   7   1    5 B     2.27255250000E-01 -3.86366780000E-01  2.50628520000E-01

   8   8   1    5 B     3.04101810000E-01 -2.32658050000E-01 -2.49371480000E-01

   9   9   1    5 B     3.86363220000E-01 -3.86387550000E-01  2.50628520000E-01

  10  10   1    5 B     4.63209780000E-01 -2.32678820000E-01 -2.49371480000E-01

  11  11   1    5 B     3.86343500000E-01 -2.27248350000E-01  2.49307050000E-01

  12  12   1    5 B     4.63190060000E-01 -7.35396200000E-02 -2.50692950000E-01

  13  13   1    1 H    -9.69563800000E-02  3.08930050000E-01  2.47888840000E-01

  14  14   1    1 H    -2.01098200000E-02  4.62638780000E-01 -2.52111160000E-01

  15  15   1    1 H     9.66345300000E-02 -3.08946560000E-01  2.47469900000E-01

  16  16   1    1 H     1.73481090000E-01 -1.55237830000E-01 -2.52530100000E-01

  17  17   1    1 H    -9.70285800000E-02 -4.05927570000E-01  2.47405420000E-01

  18  18   1    1 H    -2.01820200000E-02 -2.52218840000E-01 -2.52594580000E-01

  19  19   1    1 H     9.67361800000E-02  4.05684940000E-01  2.47421500000E-01

  20  20   1    1 H     1.73582740000E-01 -4.40606330000E-01 -2.52578500000E-01

  21  21   1    1 H    -3.08967600000E-01  9.70041200000E-02  2.52111170000E-01

  22  22   1    1 H    -2.32121040000E-01  2.50712850000E-01 -2.47888820000E-01

  23  23   1    1 H     3.08929720000E-01 -9.65626900000E-02  2.52530140000E-01

  24  24   1    1 H     3.85776280000E-01  5.71460400000E-02 -2.47469860000E-01

  25  25   1    1 H     4.05869990000E-01  9.70499800000E-02  2.52594660000E-01

  26  26   1    1 H     4.82716550000E-01  2.50758710000E-01 -2.47405340000E-01

  27  27   1    1 H    -4.05687790000E-01 -9.66526800000E-02  2.52578470000E-01

  28  28   1    1 H    -3.28841230000E-01  5.70560500000E-02 -2.47421530000E-01

  29  29   1    1 H    -3.08927260000E-01 -4.05945790000E-01  2.47888870000E-01

  30  30   1    1 H    -2.32080700000E-01 -2.52237060000E-01 -2.52111130000E-01

  31  31   1    1 H     3.08961830000E-01  4.05609330000E-01  2.47469870000E-01

  32  32   1    1 H     3.85808390000E-01 -4.40681940000E-01 -2.52530130000E-01

  33  33   1    1 H     4.05840570000E-01  3.08823250000E-01  2.47405370000E-01

  34  34   1    1 H     4.82687130000E-01  4.62531980000E-01 -2.52594630000E-01

  35  35   1    1 H    -4.05709120000E-01 -3.09042070000E-01  2.47421550000E-01

  36  36   1    1 H    -3.28862560000E-01 -1.55333340000E-01 -2.52578450000E-01

  37  37   1    6 C    -1.08109690000E-01  4.45943690000E-01  2.49258700000E-01

  38  38   1    6 C    -3.12631300000E-02 -4.00347580000E-01 -2.50741300000E-01

  39  39   1    6 C    -5.35108900000E-02  3.92785630000E-01  2.47953310000E-01

  40  40   1    6 C     2.33356700000E-02 -4.53505640000E-01 -2.52046690000E-01

  41  41   1    6 C     5.33881200000E-02 -3.92814700000E-01  2.47840550000E-01

  42  42   1    6 C     1.30234680000E-01 -2.39105970000E-01 -2.52159450000E-01

  43  43   1    6 C    -5.35478900000E-02 -4.46307810000E-01  2.48178970000E-01

  44  44   1    6 C     2.32986700000E-02 -2.92599080000E-01 -2.51821030000E-01

  45  45   1    6 C     5.34263400000E-02  4.46249970000E-01  2.47308690000E-01

  46  46   1    6 C     1.30272900000E-01 -4.00041300000E-01 -2.52691310000E-01

  47  47   1    6 C     1.08035890000E-01 -4.45964370000E-01  2.48195070000E-01

  48  48   1    6 C     1.84882450000E-01 -2.92255640000E-01 -2.51804930000E-01

  49  49   1    6 C    -4.45960580000E-01  1.08168460000E-01  2.50741340000E-01

  50  50   1    6 C    -3.69114020000E-01  2.61877190000E-01 -2.49258670000E-01

  51  51   1    6 C    -3.92822150000E-01  5.35559400000E-02  2.52046690000E-01

  52  52   1    6 C    -3.15975590000E-01  2.07264670000E-01 -2.47953310000E-01

  53  53   1    6 C     3.92798670000E-01 -5.33368400000E-02  2.52159510000E-01

  54  54   1    6 C     4.69645230000E-01  1.00371890000E-01 -2.47840500000E-01

  55  55   1    6 C     4.46287580000E-01  5.36028600000E-02  2.51821090000E-01

  56  56   1    6 C    -4.76865860000E-01  2.07311590000E-01 -2.48178910000E-01

  57  57   1    6 C    -4.46283150000E-01 -5.33764400000E-02  2.52691300000E-01

  58  58   1    6 C    -3.69436590000E-01  1.00332290000E-01 -2.47308700000E-01

  59  59   1    6 C     4.45927910000E-01 -1.08007940000E-01  2.51804950000E-01

  60  60   1    6 C    -4.77225530000E-01  4.57007900000E-02 -2.48195050000E-01

  61  61   1    6 C    -4.45955130000E-01  4.45874550000E-01  2.49258690000E-01

  62  62   1    6 C    -3.69108570000E-01 -4.00416720000E-01 -2.50741310000E-01

  63  63   1    6 C    -3.92789780000E-01 -4.46374220000E-01  2.47953340000E-01

  64  64   1    6 C    -3.15943220000E-01 -2.92665490000E-01 -2.52046660000E-01

  65  65   1    6 C     3.92823370000E-01  4.46172030000E-01  2.47840520000E-01

  66  66   1    6 C     4.69669930000E-01 -4.00119240000E-01 -2.52159480000E-01

  67  67   1    6 C     4.46287260000E-01  3.92689990000E-01  2.48178930000E-01

  68  68   1    6 C    -4.76866180000E-01 -4.53601280000E-01 -2.51821070000E-01

  69  69   1    6 C    -4.46257040000E-01 -3.92902000000E-01  2.47308730000E-01

  70  70   1    6 C    -3.69410480000E-01 -2.39193270000E-01 -2.52691270000E-01

  71  71   1    6 C     4.45959980000E-01 -4.46041770000E-01  2.48195070000E-01

  72  72   1    6 C    -4.77193460000E-01 -2.92333040000E-01 -2.51804930000E-01

  73  73   1    8 O    -4.39263320000E-01  2.80370630000E-01  2.49661580000E-01

  74  74   1    8 O    -3.62416760000E-01  4.34079360000E-01 -2.50338420000E-01

  75  75   1    8 O    -2.80318300000E-01  2.80378330000E-01  2.52449570000E-01

  76  76   1    8 O    -2.03471740000E-01  4.34087060000E-01 -2.47550430000E-01

  77  77   1    8 O    -2.80320580000E-01  4.39323460000E-01  2.48243430000E-01

  78  78   1    8 O    -2.03474020000E-01 -4.06967810000E-01 -2.51756570000E-01

  79  79   1    8 O     2.80324510000E-01 -2.80348890000E-01  2.49661600000E-01

  80  80   1    8 O     3.57171070000E-01 -1.26640160000E-01 -2.50338400000E-01

  81  81   1    8 O     2.80343970000E-01 -4.39304390000E-01  2.52449570000E-01

  82  82   1    8 O     3.57190530000E-01 -2.85595660000E-01 -2.47550430000E-01

  83  83   1    8 O     4.39263840000E-01 -2.80364580000E-01  2.48243420000E-01

  84  84   1    8 O    -4.83889600000E-01 -1.26655850000E-01 -2.51756580000E-01

 NUMBER OF SYMMETRY OPERATORS         :    1
 *******************************************************************************
 * GEOMETRY EDITING - INPUT COORDINATES ARE GIVEN IN ANGSTROM         
 *******************************************************************************

 GCALCO - MAX INDICES DIRECT LATTICE VECTOR    12    12    21
 NO.OF VECTORS CREATED 6999 STARS 3500 RMAX   255.76215 BOHR

 GEOMETRY FOR WAVE FUNCTION - DIMENSIONALITY OF THE SYSTEM    3
 (NON PERIODIC DIRECTION: LATTICE PARAMETER FORMALLY SET TO 500)
 *******************************************************************************
 LATTICE PARAMETERS (ANGSTROMS AND DEGREES) - BOHR = 0.5291772083 ANGSTROM
 PRIMITIVE CELL - CENTRING CODE 1/0 VOLUME=  1485.659765 - DENSITY  0.872 g/cm^3
         A              B              C           ALPHA      BETA       GAMMA 
    15.02361100    15.02391600     7.60000000    90.000323  89.999944 119.995964
 *******************************************************************************
 ATOMS IN THE ASYMMETRIC UNIT   84 - ATOMS IN THE UNIT CELL:   84
     ATOM                 X/A                 Y/B                 Z/C    
 *******************************************************************************
      1 T   5 B    -3.863194600000E-01  2.273182200000E-01  2.506285100000E-01
      2 T   5 B    -3.094729000000E-01  3.810269500000E-01 -2.493714900000E-01
      3 T   5 B    -2.272638000000E-01  3.863778800000E-01  2.506285200000E-01
      4 T   5 B    -1.504172400000E-01 -4.599133900000E-01 -2.493714800000E-01
      5 T   5 B    -3.863237300000E-01  3.863606700000E-01  2.493070500000E-01
      6 T   5 B    -3.094771700000E-01 -4.599306000000E-01 -2.506929500000E-01
      7 T   5 B     2.272552500000E-01 -3.863667800000E-01  2.506285200000E-01
      8 T   5 B     3.041018100000E-01 -2.326580500000E-01 -2.493714800000E-01
      9 T   5 B     3.863632200000E-01 -3.863875500000E-01  2.506285200000E-01
     10 T   5 B     4.632097800000E-01 -2.326788200000E-01 -2.493714800000E-01
     11 T   5 B     3.863435000000E-01 -2.272483500000E-01  2.493070500000E-01
     12 T   5 B     4.631900600000E-01 -7.353962000000E-02 -2.506929500000E-01
     13 T   1 H    -9.695638000000E-02  3.089300500000E-01  2.478888400000E-01
     14 T   1 H    -2.010982000000E-02  4.626387800000E-01 -2.521111600000E-01
     15 T   1 H     9.663453000000E-02 -3.089465600000E-01  2.474699000000E-01
     16 T   1 H     1.734810900000E-01 -1.552378300000E-01 -2.525301000000E-01
     17 T   1 H    -9.702858000000E-02 -4.059275700000E-01  2.474054200000E-01
     18 T   1 H    -2.018202000000E-02 -2.522188400000E-01 -2.525945800000E-01
     19 T   1 H     9.673618000000E-02  4.056849400000E-01  2.474215000000E-01
     20 T   1 H     1.735827400000E-01 -4.406063300000E-01 -2.525785000000E-01
     21 T   1 H    -3.089676000000E-01  9.700412000000E-02  2.521111700000E-01
     22 T   1 H    -2.321210400000E-01  2.507128500000E-01 -2.478888200000E-01
     23 T   1 H     3.089297200000E-01 -9.656269000000E-02  2.525301400000E-01
     24 T   1 H     3.857762800000E-01  5.714604000000E-02 -2.474698600000E-01
     25 T   1 H     4.058699900000E-01  9.704998000000E-02  2.525946600000E-01
     26 T   1 H     4.827165500000E-01  2.507587100000E-01 -2.474053400000E-01
     27 T   1 H    -4.056877900000E-01 -9.665268000000E-02  2.525784700000E-01
     28 T   1 H    -3.288412300000E-01  5.705605000000E-02 -2.474215300000E-01
     29 T   1 H    -3.089272600000E-01 -4.059457900000E-01  2.478888700000E-01
     30 T   1 H    -2.320807000000E-01 -2.522370600000E-01 -2.521111300000E-01
     31 T   1 H     3.089618300000E-01  4.056093300000E-01  2.474698700000E-01
     32 T   1 H     3.858083900000E-01 -4.406819400000E-01 -2.525301300000E-01
     33 T   1 H     4.058405700000E-01  3.088232500000E-01  2.474053700000E-01
     34 T   1 H     4.826871300000E-01  4.625319800000E-01 -2.525946300000E-01
     35 T   1 H    -4.057091200000E-01 -3.090420700000E-01  2.474215500000E-01
     36 T   1 H    -3.288625600000E-01 -1.553333400000E-01 -2.525784500000E-01
     37 T   6 C    -1.081096900000E-01  4.459436900000E-01  2.492587000000E-01
     38 T   6 C    -3.126313000000E-02 -4.003475800000E-01 -2.507413000000E-01
     39 T   6 C    -5.351089000000E-02  3.927856300000E-01  2.479533100000E-01
     40 T   6 C     2.333567000000E-02 -4.535056400000E-01 -2.520466900000E-01
     41 T   6 C     5.338812000000E-02 -3.928147000000E-01  2.478405500000E-01
     42 T   6 C     1.302346800000E-01 -2.391059700000E-01 -2.521594500000E-01
     43 T   6 C    -5.354789000000E-02 -4.463078100000E-01  2.481789700000E-01
     44 T   6 C     2.329867000000E-02 -2.925990800000E-01 -2.518210300000E-01
     45 T   6 C     5.342634000000E-02  4.462499700000E-01  2.473086900000E-01
     46 T   6 C     1.302729000000E-01 -4.000413000000E-01 -2.526913100000E-01
     47 T   6 C     1.080358900000E-01 -4.459643700000E-01  2.481950700000E-01
     48 T   6 C     1.848824500000E-01 -2.922556400000E-01 -2.518049300000E-01
     49 T   6 C    -4.459605800000E-01  1.081684600000E-01  2.507413400000E-01
     50 T   6 C    -3.691140200000E-01  2.618771900000E-01 -2.492586700000E-01
     51 T   6 C    -3.928221500000E-01  5.355594000000E-02  2.520466900000E-01
     52 T   6 C    -3.159755900000E-01  2.072646700000E-01 -2.479533100000E-01
     53 T   6 C     3.927986700000E-01 -5.333684000000E-02  2.521595100000E-01
     54 T   6 C     4.696452300000E-01  1.003718900000E-01 -2.478405000000E-01
     55 T   6 C     4.462875800000E-01  5.360286000000E-02  2.518210900000E-01
     56 T   6 C    -4.768658600000E-01  2.073115900000E-01 -2.481789100000E-01
     57 T   6 C    -4.462831500000E-01 -5.337644000000E-02  2.526913000000E-01
     58 T   6 C    -3.694365900000E-01  1.003322900000E-01 -2.473087000000E-01
     59 T   6 C     4.459279100000E-01 -1.080079400000E-01  2.518049500000E-01
     60 T   6 C    -4.772255300000E-01  4.570079000000E-02 -2.481950500000E-01
     61 T   6 C    -4.459551300000E-01  4.458745500000E-01  2.492586900000E-01
     62 T   6 C    -3.691085700000E-01 -4.004167200000E-01 -2.507413100000E-01
     63 T   6 C    -3.927897800000E-01 -4.463742200000E-01  2.479533400000E-01
     64 T   6 C    -3.159432200000E-01 -2.926654900000E-01 -2.520466600000E-01
     65 T   6 C     3.928233700000E-01  4.461720300000E-01  2.478405200000E-01
     66 T   6 C     4.696699300000E-01 -4.001192400000E-01 -2.521594800000E-01
     67 T   6 C     4.462872600000E-01  3.926899900000E-01  2.481789300000E-01
     68 T   6 C    -4.768661800000E-01 -4.536012800000E-01 -2.518210700000E-01
     69 T   6 C    -4.462570400000E-01 -3.929020000000E-01  2.473087300000E-01
     70 T   6 C    -3.694104800000E-01 -2.391932700000E-01 -2.526912700000E-01
     71 T   6 C     4.459599800000E-01 -4.460417700000E-01  2.481950700000E-01
     72 T   6 C    -4.771934600000E-01 -2.923330400000E-01 -2.518049300000E-01
     73 T   8 O    -4.392633200000E-01  2.803706300000E-01  2.496615800000E-01
     74 T   8 O    -3.624167600000E-01  4.340793600000E-01 -2.503384200000E-01
     75 T   8 O    -2.803183000000E-01  2.803783300000E-01  2.524495700000E-01
     76 T   8 O    -2.034717400000E-01  4.340870600000E-01 -2.475504300000E-01
     77 T   8 O    -2.803205800000E-01  4.393234600000E-01  2.482434300000E-01
     78 T   8 O    -2.034740200000E-01 -4.069678100000E-01 -2.517565700000E-01
     79 T   8 O     2.803245100000E-01 -2.803488900000E-01  2.496616000000E-01
     80 T   8 O     3.571710700000E-01 -1.266401600000E-01 -2.503384000000E-01
     81 T   8 O     2.803439700000E-01 -4.393043900000E-01  2.524495700000E-01
     82 T   8 O     3.571905300000E-01 -2.855956600000E-01 -2.475504300000E-01
     83 T   8 O     4.392638400000E-01 -2.803645800000E-01  2.482434200000E-01
     84 T   8 O    -4.838896000000E-01 -1.266558500000E-01 -2.517565800000E-01

 T = ATOM BELONGING TO THE ASYMMETRIC UNIT

 ****    1 SYMMOPS - TRANSLATORS IN FRACTIONAL UNITS
 **** MATRICES AND TRANSLATORS IN THE CRYSTALLOGRAPHIC REFERENCE FRAME
   V INV                    ROTATION MATRICES                   TRANSLATORS
   1   1  1.00  0.00  0.00  0.00  1.00  0.00  0.00  0.00  1.00  0.00  0.00  0.00

 DIRECT LATTICE VECTORS CARTESIAN COMPONENTS (ANGSTROM)
          X                    Y                    Z
   0.130113578931E+02  -0.751088897922E+01   0.000000000000E+00
   0.000000000000E+00   0.150239160000E+02   0.000000000000E+00
  -0.161552619368E-04  -0.428443424762E-04   0.759999999986E+01


 CARTESIAN COORDINATES - PRIMITIVE CELL
 *******************************************************************************
 *      ATOM          X(ANGSTROM)         Y(ANGSTROM)         Z(ANGSTROM)
 *******************************************************************************
    1     5 B    -5.026544804082E+00  6.316801679107E+00  1.904776675965E+00
    2     5 B    -4.026658631440E+00 -6.974971831330E+00 -1.895223323966E+00
    3     5 B    -2.957014686905E+00  7.511851246159E+00  1.904776751965E+00
    4     5 B    -1.957128514264E+00 -5.779922264278E+00 -1.895223247966E+00
    5     5 B    -5.026600341231E+00 -6.317641783546E+00  1.894733579966E+00
    6     5 B    -4.026714168590E+00 -4.585499293983E+00 -1.905266419965E+00
    7     5 B     2.956895341857E+00 -7.511641738619E+00  1.904776751965E+00
    8     5 B     3.956781514498E+00 -5.779499249055E+00 -1.895223247966E+00
    9     5 B     5.027106083164E+00  6.316919916267E+00  1.904776751965E+00
   10     5 B    -6.984365637251E+00  5.360353850472E-01 -1.895223247966E+00
   11     5 B     5.026849520535E+00 -6.315953939277E+00  1.894733579966E+00
   12     5 B     6.026735693177E+00 -4.583811449714E+00 -1.905266419965E+00
   13     1 H    -1.261538164904E+00  5.369557106448E+00  1.883955183966E+00
   14     1 H    -2.616519922631E-01  7.101699596011E+00 -1.916044815965E+00
   15     1 H     1.257342456716E+00 -5.367408995003E+00  1.880771239966E+00
   16     1 H     2.257228629357E+00 -3.635266505440E+00 -1.919228759965E+00
   17     1 H    -1.262477577134E+00 -5.369861421496E+00  1.880281191966E+00
   18     1 H    -2.625914044932E-01 -3.637718931932E+00 -1.919718807965E+00
   19     1 H     1.258665062028E+00  5.368391152160E+00  1.880403399966E+00
   20     1 H     2.258551234669E+00  7.100533641723E+00 -1.919596599965E+00
   21     1 H    -4.020092093881E+00  3.777992290772E+00  1.916044891965E+00
   22     1 H    -3.020205921240E+00  5.510134780334E+00 -1.883955031966E+00
   23     1 H     4.019591071031E+00 -3.771097392082E+00  1.919229063965E+00
   24     1 H     5.019477243672E+00 -2.038954902519E+00 -1.880770935966E+00
   25     1 H     5.280915617208E+00 -1.590384509816E+00  1.919719415965E+00
   26     1 H     6.280801789850E+00  1.417579797471E-01 -1.880280583966E+00
   27     1 H    -5.278553109005E+00  1.594963383860E+00  1.919596371965E+00
   28     1 H    -4.278666936363E+00  3.327105873424E+00 -1.880403627966E+00
   29     1 H    -4.019567147491E+00 -3.778587717636E+00  1.883955411966E+00
   30     1 H    -3.019680974850E+00 -2.046445228073E+00 -1.916044587965E+00
   31     1 H     4.020008947483E+00  3.773251896107E+00  1.880771011966E+00
   32     1 H     5.019895120124E+00  5.505394385670E+00 -1.919228987965E+00
   33     1 H     5.280532906894E+00  1.591500502395E+00  1.880280811966E+00
   34     1 H     6.280419079535E+00  3.323642991958E+00 -1.919719187965E+00
   35     1 H    -5.278830557957E+00 -1.595796542584E+00  1.880403779966E+00
   36     1 H    -4.278944385316E+00  1.363459469791E-01 -1.919596219965E+00
   37     6 C    -1.406657895137E+00  7.511809739132E+00  1.894366119966E+00
   38     6 C    -4.067717224958E-01 -5.779963771304E+00 -1.905633879965E+00
   39     6 C    -6.962533467167E-01  6.303082041700E+00  1.884445155966E+00
   40     6 C     3.036328259246E-01 -6.988691468737E+00 -1.915554843965E+00
   41     6 C     6.946479326284E-01 -6.302617917060E+00  1.883588179966E+00
   42     6 C     1.694534105270E+00 -4.570475427496E+00 -1.916411819965E+00
   43     6 C    -6.967347706043E-01 -6.303109423787E+00  1.886160171966E+00
   44     6 C     3.031514020369E-01 -4.570966934224E+00 -1.913839827965E+00
   45     6 C     6.951452353195E-01  6.303132160198E+00  1.879546043966E+00
   46     6 C     1.695031407961E+00 -6.988641350238E+00 -1.920453955965E+00
   47     6 C     1.405689620429E+00 -7.511587443188E+00  1.886282531966E+00
   48     6 C     2.405575793070E+00 -5.779444953625E+00 -1.913717467965E+00
   49     6 C     7.208801129689E+00 -2.536225459688E+00  1.905634183965E+00
   50     6 C     8.208687302331E+00 -8.040829701243E-01 -1.894365891966E+00
   51     6 C    -5.111153653850E+00  3.755052702313E+00  1.915554843965E+00
   52     6 C    -4.111267481209E+00  5.487195191877E+00 -1.884445155966E+00
   53     6 C     5.110840001584E+00 -3.751606209028E+00  1.916412275965E+00
   54     6 C     6.110726174225E+00 -2.019463719464E+00 -1.883587799966E+00
   55     6 C     5.806803358370E+00 -2.546702389292E+00  1.913840283965E+00
   56     6 C     6.806689531012E+00 -8.145598997292E-01 -1.886159715966E+00
   57     6 C    -5.806753868585E+00  2.550049215613E+00  1.920453879965E+00
   58     6 C    -4.806867695944E+00  4.282191705177E+00 -1.879546119966E+00
   59     6 C     5.802123563538E+00 -4.972028031055E+00  1.913717619965E+00
   60     6 C     6.802009736179E+00 -3.239885541491E+00 -1.886282379966E+00
   61     6 C     7.208872065543E+00  2.537401598339E+00  1.894366043966E+00
   62     6 C    -4.802599654873E+00 -3.243482932882E+00 -1.905633955965E+00
   63     6 C    -5.110732410066E+00 -3.756098979492E+00  1.884445383966E+00
   64     6 C    -4.110846237425E+00 -2.023956489929E+00 -1.915554615965E+00
   65     6 C     5.111161451898E+00  3.752787761194E+00  1.883587951966E+00
   66     6 C    -6.900310268517E+00 -2.028096770027E+00 -1.916412047965E+00
   67     6 C     5.806799253576E+00  2.547716728039E+00  1.886159867966E+00
   68     6 C    -6.204672466839E+00 -3.233167803181E+00 -1.913840131965E+00
   69     6 C    -5.806414055073E+00 -2.551150156378E+00  1.879546347966E+00
   70     6 C    -4.806527882432E+00 -8.190076668149E-01 -1.920453651965E+00
   71     6 C     5.802540896104E+00  4.973055382321E+00  1.886282531966E+00
   72     6 C    -6.208930824311E+00 -8.078291488998E-01 -1.913717467965E+00
   73     8 O     7.295941593896E+00  6.231473464191E-04  1.897428007966E+00
   74     8 O    -4.715530126519E+00 -5.780261383874E+00 -1.902571991965E+00
   75     8 O    -3.647325803662E+00  6.317809292247E+00  1.918616731965E+00
   76     8 O    -2.647439631021E+00 -6.973964218190E+00 -1.881383267966E+00
   77     8 O    -3.647355401607E+00 -6.318111120988E+00  1.886650067966E+00
   78     8 O    -2.647469228966E+00 -4.585968631424E+00 -1.913349931965E+00
   79     8 O     3.647398492457E+00 -6.317435143404E+00  1.897428159966E+00
   80     8 O     4.647284665098E+00 -4.585292653840E+00 -1.902571839965E+00
   81     8 O     3.647651648441E+00  6.318200495510E+00  1.918616731965E+00
   82     8 O     4.647537821083E+00 -6.973573014927E+00 -1.881383267966E+00
   83     8 O    -7.295942871776E+00 -5.574907292270E-04  1.886649991966E+00
   84     8 O    -6.296056699134E+00  1.731584998834E+00 -1.913350007965E+00

 *******************************************************************************
 STARTING BASIS SET HANDLING 
 *******************************************************************************

 Loading internal basis set: SOLDEF2MSVP         

 Please cite in your publication:
 L. Dona', J. G. Brandenburg and B. Civalleri, J. Chem. Phys., 151, 121101 (2019
 )                                                                              
                                                                                
                    

 *******************************************************************************
 LOCAL ATOMIC FUNCTIONS BASIS SET
 *******************************************************************************
   ATOM   X(AU)   Y(AU)   Z(AU)  N. TYPE  EXPONENT  S COEF   P COEF   D/F/G COEF
 *******************************************************************************
   1 B   -9.499  11.937   3.600
                                  1 S  
                                         2.410E+03 1.755E-03 0.000E+00 0.000E+00
                                         3.619E+02 1.344E-02 0.000E+00 0.000E+00
                                         8.231E+01 6.637E-02 0.000E+00 0.000E+00
                                         2.311E+01 2.303E-01 0.000E+00 0.000E+00
                                         7.252E+00 5.150E-01 0.000E+00 0.000E+00
                                  2 S  
                                         2.367E+00 1.000E+00 0.000E+00 0.000E+00
                                  3 S  
                                         5.533E-01 1.000E+00 0.000E+00 0.000E+00
                                  4 S  
                                         1.716E-01 1.000E+00 0.000E+00 0.000E+00
                           5-     7 P  
                                         6.002E+00 0.000E+00-3.555E-02 0.000E+00
                                         1.240E+00 0.000E+00-1.983E-01 0.000E+00
                                         3.367E-01 0.000E+00-5.048E-01 0.000E+00
                           8-    10 P  
                                         1.256E-01 0.000E+00 1.000E+00 0.000E+00
                          11-    15 D  
                                         8.880E-01 0.000E+00 0.000E+00 1.000E+00
   2 B   -7.609 -13.181  -3.581
   3 B   -5.588  14.195   3.600
   4 B   -3.698 -10.922  -3.581
   5 B   -9.499 -11.939   3.581
   6 B   -7.609  -8.665  -3.600
   7 B    5.588 -14.195   3.600
   8 B    7.477 -10.922  -3.581
   9 B    9.500  11.937   3.600
  10 B  -13.199   1.013  -3.581
  11 B    9.499 -11.935   3.581
  12 B   11.389  -8.662  -3.600
  13 H   -2.384  10.147   3.560
                                181 S  
                                         1.874E+01 1.968E-02 0.000E+00 0.000E+00
                                         2.826E+00 1.380E-01 0.000E+00 0.000E+00
                                         6.401E-01 4.783E-01 0.000E+00 0.000E+00
                                182 S  
                                         1.756E-01 1.000E+00 0.000E+00 0.000E+00
  14 H   -0.494  13.420  -3.621
  15 H    2.376 -10.143   3.554
  16 H    4.266  -6.870  -3.627
  17 H   -2.386 -10.148   3.553
  18 H   -0.496  -6.874  -3.628
  19 H    2.379  10.145   3.553
  20 H    4.268  13.418  -3.628
  21 H   -7.597   7.139   3.621
  22 H   -5.707  10.413  -3.560
  23 H    7.596  -7.126   3.627
  24 H    9.485  -3.853  -3.554
  25 H    9.979  -3.005   3.628
  26 H   11.869   0.268  -3.553
  27 H   -9.975   3.014   3.628
  28 H   -8.086   6.287  -3.553
  29 H   -7.596  -7.140   3.560
  30 H   -5.706  -3.867  -3.621
  31 H    7.597   7.130   3.554
  32 H    9.486  10.404  -3.627
  33 H    9.979   3.008   3.553
  34 H   11.868   6.281  -3.628
  35 H   -9.976  -3.016   3.553
  36 H   -8.086   0.258  -3.628
  37 C   -2.658  14.195   3.580
                                229 S  
                                         3.624E+03 1.634E-03 0.000E+00 0.000E+00
                                         5.440E+02 1.252E-02 0.000E+00 0.000E+00
                                         1.237E+02 6.211E-02 0.000E+00 0.000E+00
                                         3.476E+01 2.182E-01 0.000E+00 0.000E+00
                                         1.093E+01 4.980E-01 0.000E+00 0.000E+00
                                230 S  
                                         3.574E+00 1.000E+00 0.000E+00 0.000E+00
                                231 S  
                                         7.742E-01 1.000E+00 0.000E+00 0.000E+00
                                232 S  
                                         2.330E-01 1.000E+00 0.000E+00 0.000E+00
                         233-   235 P  
                                         9.443E+00 0.000E+00 3.790E-02 0.000E+00
                                         2.002E+00 0.000E+00 2.082E-01 0.000E+00
                                         5.463E-01 0.000E+00 5.047E-01 0.000E+00
                         236-   238 P  
                                         1.820E-01 0.000E+00 1.000E+00 0.000E+00
                         239-   243 D  
                                         8.880E-01 0.000E+00 0.000E+00 1.000E+00
  38 C   -0.769 -10.923  -3.601
  39 C   -1.316  11.911   3.561
  40 C    0.574 -13.207  -3.620
  41 C    1.313 -11.910   3.559
  42 C    3.202  -8.637  -3.621
  43 C   -1.317 -11.911   3.564
  44 C    0.573  -8.638  -3.617
  45 C    1.314  11.911   3.552
  46 C    3.203 -13.207  -3.629
  47 C    2.656 -14.195   3.565
  48 C    4.546 -10.922  -3.616
  49 C   13.623  -4.793   3.601
  50 C   15.512  -1.519  -3.580
  51 C   -9.659   7.096   3.620
  52 C   -7.769  10.369  -3.561
  53 C    9.658  -7.090   3.621
  54 C   11.548  -3.816  -3.559
  55 C   10.973  -4.813   3.617
  56 C   12.863  -1.539  -3.564
  57 C  -10.973   4.819   3.629
  58 C   -9.084   8.092  -3.552
  59 C   10.964  -9.396   3.616
  60 C   12.854  -6.122  -3.565
  61 C   13.623   4.795   3.580
  62 C   -9.076  -6.129  -3.601
  63 C   -9.658  -7.098   3.561
  64 C   -7.768  -3.825  -3.620
  65 C    9.659   7.092   3.559
  66 C  -13.040  -3.833  -3.621
  67 C   10.973   4.814   3.564
  68 C  -11.725  -6.110  -3.617
  69 C  -10.973  -4.821   3.552
  70 C   -9.083  -1.548  -3.629
  71 C   10.965   9.398   3.565
  72 C  -11.733  -1.527  -3.616
  73 O   13.787   0.001   3.586
                                769 S  
                                         6.773E+03 1.727E-03 0.000E+00 0.000E+00
                                         1.017E+03 1.325E-02 0.000E+00 0.000E+00
                                         2.313E+02 6.603E-02 0.000E+00 0.000E+00
                                         6.501E+01 2.353E-01 0.000E+00 0.000E+00
                                         2.050E+01 5.498E-01 0.000E+00 0.000E+00
                                770 S  
                                         6.716E+00 1.000E+00 0.000E+00 0.000E+00
                                771 S  
                                         1.147E+00 1.000E+00 0.000E+00 0.000E+00
                                772 S  
                                         3.342E-01 1.000E+00 0.000E+00 0.000E+00
                         773-   775 P  
                                         1.769E+01 0.000E+00 4.359E-02 0.000E+00
                                         3.854E+00 0.000E+00 2.318E-01 0.000E+00
                                         1.047E+00 0.000E+00 5.146E-01 0.000E+00
                         776-   778 P  
                                         2.759E-01 0.000E+00 1.000E+00 0.000E+00
                         779-   783 D  
                                         8.000E-01 0.000E+00 0.000E+00 1.000E+00
  74 O   -8.911 -10.923  -3.595
  75 O   -6.892  11.939   3.626
  76 O   -5.003 -13.179  -3.555
  77 O   -6.893 -11.939   3.565
  78 O   -5.003  -8.666  -3.616
  79 O    6.893 -11.938   3.586
  80 O    8.782  -8.665  -3.595
  81 O    6.893  11.940   3.626
  82 O    8.783 -13.178  -3.555
  83 O  -13.787  -0.001   3.565
  84 O  -11.898   3.272  -3.616

 *******************************************************************************
 FINISHED BASIS SET HANDLING 
 *******************************************************************************

 INFORMATION **** SET_MPP **** PCRYSTAL CALCULATION
 INFORMATION **** READM2 **** NEW DEFAULT: FOCK/KS MATRIX MIXING SET TO 30 %
 INFORMATION **** READM2 **** NEW DEFAULT: FULL DIRECT SCF MODE
 INFORMATION **** READM2 **** NEW DEFAULT: COULOMB BIPOLAR BUFFER SET TO 32 Mb
 INFORMATION **** READM2 **** NEW DEFAULT: EXCHANGE BIPOLAR BUFFER SET TO 32 Mb

 *******************************************************************************
 NEW DEFAULT: DFT INTEGRATION GRID INCREASED TO XLGRID
 NEW DEFAULT: DIIS ACCELERATOR ACTIVE
 USE KEYWORD NODIIS TO TURN IT OFF
 *******************************************************************************

 WARNING **** RDDFTP **** HSEsol-HJS ACTIVE
 RANGE SEPARATION - OMEGA:   0.110000000000000     
 WARNING **** RDDFTP **** HSEsol-3c has to be combined with sol-def2-mSVP basis set
 *******************************************************************************
 N. OF ATOMS PER CELL        84  COULOMB OVERLAP TOL         (T1) 10**   -6
 NUMBER OF SHELLS           468  COULOMB PENETRATION TOL     (T2) 10**   -6
 NUMBER OF AO               948  EXCHANGE OVERLAP TOL        (T3) 10**   -6
 N. OF ELECTRONS PER CELL   396  EXCHANGE PSEUDO OVP (F(G))  (T4) 10**   -6
 CORE ELECTRONS PER CELL    120  EXCHANGE PSEUDO OVP (P(G))  (T5) 10**  -12
 N. OF SYMMETRY OPERATORS     1  POLE ORDER IN MONO ZONE                  4
 *******************************************************************************
 TYPE OF CALCULATION :  RESTRICTED CLOSED SHELL
 KOHN-SHAM HAMILTONIAN

 (EXCHANGE)[CORRELATION] FUNCTIONAL:(HSEsol GGA)[PBEsol]

 RANGE-SEPARATED HYBRID FUNCTIONAL 
 OMEGA (SHORT-RANGE)[LONG-RANGE]:(    0.1100)[    0.0000]

 HYBRID EXCHANGE - PERCENTAGE OF FOCK EXCHANGE    25.0000

 CAPPA:IS1  2;IS2  2;IS3  8; K PTS MONK NET  20; SYMMOPS:K SPACE   2;G SPACE   1

 *******************************************************************************
 MAX NUMBER OF SCF CYCLES      50  CONVERGENCE ON DELTAP        10**-16
 WEIGHT OF F(I) IN F(I+1)      30% CONVERGENCE ON ENERGY        10**- 6
 SHRINK. FACT.(MONKH.)    2  2  8  NUMBER OF K POINTS IN THE IBZ     20
 SHRINKING FACTOR(GILAT NET)    8  NUMBER OF K POINTS(GILAT NET)   1028
 *******************************************************************************
 *** K POINTS COORDINATES (OBLIQUE COORDINATES IN UNITS OF IS =  2)
   1-R(  0  0  0)   2-R(  1  0  0)   3-R(  0  1  0)   4-R(  1  1  0)
   5-C(  0  0  1)   6-C(  1  0  1)   7-C(  0  1  1)   8-C(  1  1  1)
   9-C(  0  0  2)  10-C(  1  0  2)  11-C(  0  1  2)  12-C(  1  1  2)
  13-C(  0  0  3)  14-C(  1  0  3)  15-C(  0  1  3)  16-C(  1  1  3)
  17-R(  0  0  4)  18-R(  1  0  4)  19-R(  0  1  4)  20-R(  1  1  4)

 DIRECT LATTICE VECTORS COMPON. (A.U.)     RECIP. LATTICE VECTORS COMPON. (A.U.) 
        X            Y            Z              X            Y            Z
   24.5879030  -14.1935232    0.0000000      0.2555397    0.0000000    0.0000005
    0.0000000   28.3910867    0.0000000      0.1277517    0.2213084    0.0000015
   -0.0000305   -0.0000810   14.3619186      0.0000000    0.0000000    0.4374893

 DISK SPACE FOR EIGENVECTORS (FTN 10)    28758528 REALS

 SYMMETRY ADAPTION OF THE BLOCH FUNCTIONS DISABLED
 TTTTTTTTTTTTTTTTTTTTTTTTTTTTTT gordsh1     TELAPSE        0.05 TCPU        0.05

 MATRIX SIZE: P(G)  694052, F(G)  143905, P(G) IRR  348964, F(G) IRR  144937
 MAX G-VECTOR INDEX FOR 1- AND 2-ELECTRON INTEGRALS  53

 TTTTTTTTTTTTTTTTTTTTTTTTTTTTTT INPUT       TELAPSE        2.75 TCPU        2.75

 NEIGHBORS OF THE NON-EQUIVALENT ATOMS

 N = NUMBER OF NEIGHBORS AT DISTANCE R
    ATOM  N     R/ANG      R/AU   NEIGHBORS (ATOM LABELS AND CELL INDICES)
   1 B    1     1.3791     2.6061   73 O   -1 0 0
   1 B    1     1.3793     2.6065   75 O    0 0 0
   1 B    1     1.5503     2.9297   49 C   -1 0 0
   1 B    1     2.3895     4.5155    5 B    0 1 0
   1 B    1     2.3898     4.5160    3 B    0 0 0
   1 B    1     2.5632     4.8437   51 C    0 0 0

   2 B    1     1.3791     2.6061   74 O    0 0 0
   2 B    1     1.3793     2.6065   76 O    0 0 0
   2 B    1     1.5503     2.9297   50 C   -1-1 0
   2 B    1     2.3895     4.5155    6 B    0 0 0
   2 B    1     2.3898     4.5160    4 B    0 0 0
   2 B    1     2.5632     4.8437   52 C    0-1 0

   3 B    1     1.3793     2.6065   77 O    0 1 0
   3 B    1     1.3793     2.6065   75 O    0 0 0
   3 B    1     1.5504     2.9298   37 C    0 0 0
   3 B    1     2.3895     4.5156    5 B    0 1 0
   3 B    1     2.3898     4.5160    1 B    0 0 0
   3 B    1     2.5634     4.8440   43 C    0 1 0

   4 B    1     1.3793     2.6065   78 O    0 0 0
   4 B    1     1.3793     2.6065   76 O    0 0 0
   4 B    1     1.5504     2.9298   38 C    0 0 0
   4 B    1     2.3895     4.5156    6 B    0 0 0
   4 B    1     2.3898     4.5160    2 B    0 0 0
   4 B    1     2.5634     4.8440   44 C    0 0 0

   5 B    1     1.3791     2.6061   73 O   -1-1 0
   5 B    1     1.3793     2.6064   77 O    0 0 0
   5 B    1     1.5502     2.9294   61 C   -1-1 0
   5 B    1     2.3895     4.5155    1 B    0-1 0
   5 B    1     2.3895     4.5156    3 B    0-1 0
   5 B    1     2.5629     4.8433   63 C    0 0 0

   6 B    1     1.3791     2.6061   74 O    0 0 0
   6 B    1     1.3793     2.6064   78 O    0 0 0
   6 B    1     1.5502     2.9294   62 C    0 0 0
   6 B    1     2.3895     4.5155    2 B    0 0 0
   6 B    1     2.3895     4.5156    4 B    0 0 0
   6 B    1     2.5629     4.8433   64 C    0 0 0

   7 B    1     1.3795     2.6068   79 O    0 0 0
   7 B    1     1.3795     2.6070   81 O    0-1 0
   7 B    1     1.5513     2.9316   47 C    0 0 0
   7 B    1     2.3905     4.5174   11 B    0 0 0
   7 B    1     2.3905     4.5175    9 B    0-1 0
   7 B    1     2.5648     4.8468   45 C    0-1 0

   8 B    1     1.3795     2.6068   80 O    0 0 0
   8 B    1     1.3795     2.6070   82 O    0 0 0
   8 B    1     1.5513     2.9316   48 C    0 0 0
   8 B    1     2.3905     4.5174   12 B    0 0 0
   8 B    1     2.3905     4.5175   10 B    1 0 0
   8 B    1     2.5648     4.8468   46 C    0 0 0

   9 B    1     1.3795     2.6069   81 O    0 0 0
   9 B    1     1.3797     2.6072   83 O    1 1 0
   9 B    1     1.5516     2.9322   71 C    0 0 0
   9 B    1     2.3905     4.5175    7 B    0 1 0
   9 B    1     2.3911     4.5185   11 B    0 1 0
   9 B    1     2.5651     4.8473   69 C    1 1 0

  10 B    1     1.3795     2.6069   82 O   -1 0 0
  10 B    1     1.3797     2.6072   84 O    0 0 0
  10 B    1     1.5516     2.9322   72 C    0 0 0
  10 B    1     2.3905     4.5175    8 B   -1 0 0
  10 B    1     2.3911     4.5185   12 B   -1 0 0
  10 B    1     2.5651     4.8473   70 C    0 0 0

  11 B    1     1.3795     2.6068   79 O    0 0 0
  11 B    1     1.3796     2.6071   83 O    1 0 0
  11 B    1     1.5516     2.9322   59 C    0 0 0
  11 B    1     2.3905     4.5174    7 B    0 0 0
  11 B    1     2.3911     4.5185    9 B    0-1 0
  11 B    1     2.5651     4.8473   57 C    1 0 0

  12 B    1     1.3795     2.6068   80 O    0 0 0
  12 B    1     1.3796     2.6071   84 O    1 0 0
  12 B    1     1.5516     2.9322   60 C    0 0 0
  12 B    1     2.3905     4.5174    8 B    0 0 0
  12 B    1     2.3911     4.5185   10 B    1 0 0
  12 B    1     2.5651     4.8473   58 C    1 0 0

  13 H    1     1.0913     2.0623   39 C    0 0 0
  13 H    1     2.1472     4.0576   37 C    0 0 0
  13 H    1     2.1680     4.0969   45 C    0 0 0
  13 H    1     2.5202     4.7625   19 H    0 0 0
  13 H    1     2.5676     4.8520   75 O    0 0 0
  13 H    1     2.7321     5.1630    3 B    0 0 0

  14 H    1     1.0913     2.0623   40 C    0 1 0
  14 H    1     2.1472     4.0576   38 C    0 1 0
  14 H    1     2.1680     4.0969   46 C    0 1 0
  14 H    1     2.5202     4.7625   20 H    0 0 0
  14 H    1     2.5676     4.8520   76 O    0 1 0
  14 H    1     2.7321     5.1630    4 B    0 1 0

  15 H    1     1.0914     2.0625   41 C    0 0 0
  15 H    1     2.1493     4.0616   47 C    0 0 0
  15 H    1     2.1666     4.0942   43 C    0 0 0
  15 H    1     2.5198     4.7618   17 H    0 0 0
  15 H    1     2.5720     4.8604   79 O    0 0 0
  15 H    1     2.7362     5.1707    7 B    0 0 0

  16 H    1     1.0914     2.0625   42 C    0 0 0
  16 H    1     2.1493     4.0616   48 C    0 0 0
  16 H    1     2.1666     4.0942   44 C    0 0 0
  16 H    1     2.5198     4.7618   18 H    0 0 0
  16 H    1     2.5720     4.8604   80 O    0 0 0
  16 H    1     2.7362     5.1707    8 B    0 0 0

  17 H    1     1.0914     2.0624   43 C    0 0 0
  17 H    1     2.1471     4.0575   37 C    0-1 0
  17 H    1     2.1680     4.0970   41 C    0 0 0
  17 H    1     2.5198     4.7618   15 H    0 0 0
  17 H    1     2.5665     4.8500   77 O    0 0 0
  17 H    1     2.7315     5.1618    3 B    0-1 0

  18 H    1     1.0914     2.0624   44 C    0 0 0
  18 H    1     2.1471     4.0575   38 C    0 0 0
  18 H    1     2.1680     4.0970   42 C    0 0 0
  18 H    1     2.5198     4.7618   16 H    0 0 0
  18 H    1     2.5665     4.8500   78 O    0 0 0
  18 H    1     2.7315     5.1618    4 B    0 0 0

  19 H    1     1.0915     2.0626   45 C    0 0 0
  19 H    1     2.1490     4.0610   47 C    0 1 0
  19 H    1     2.1669     4.0948   39 C    0 0 0
  19 H    1     2.5202     4.7625   13 H    0 0 0
  19 H    1     2.5712     4.8588   81 O    0 0 0
  19 H    1     2.7351     5.1686    7 B    0 1 0

  20 H    1     1.0915     2.0626   46 C    0 1 0
  20 H    1     2.1490     4.0610   48 C    0 1 0
  20 H    1     2.1669     4.0948   40 C    0 1 0
  20 H    1     2.5202     4.7625   14 H    0 0 0
  20 H    1     2.5712     4.8588   82 O    0 1 0
  20 H    1     2.7351     5.1686    8 B    0 1 0

  21 H    1     1.0913     2.0623   51 C    0 0 0
  21 H    1     2.1469     4.0571   49 C   -1 0 0
  21 H    1     2.1680     4.0968   57 C    0 0 0
  21 H    1     2.5198     4.7617   27 H    0 0 0
  21 H    1     2.5670     4.8510   75 O    0 0 0
  21 H    1     2.7310     5.1609    1 B    0 0 0

  22 H    1     1.0913     2.0623   52 C    0 0 0
  22 H    1     2.1469     4.0571   50 C   -1 0 0
  22 H    1     2.1680     4.0968   58 C    0 0 0
  22 H    1     2.5198     4.7617   28 H    0 0 0
  22 H    1     2.5670     4.8510   76 O    0 1 0
  22 H    1     2.7310     5.1609    2 B    0 1 0

  23 H    1     1.0914     2.0625   53 C    0 0 0
  23 H    1     2.1493     4.0617   59 C    0 0 0
  23 H    1     2.1664     4.0939   55 C    0 0 0
  23 H    1     2.5192     4.7606   25 H    0 0 0
  23 H    1     2.5735     4.8632   79 O    0 0 0
  23 H    1     2.7371     5.1723   11 B    0 0 0

  24 H    1     1.0914     2.0625   54 C    0 0 0
  24 H    1     2.1493     4.0617   60 C    0 0 0
  24 H    1     2.1664     4.0939   56 C    0 0 0
  24 H    1     2.5192     4.7606   26 H    0 0 0
  24 H    1     2.5735     4.8632   80 O    0 0 0
  24 H    1     2.7371     5.1723   12 B    0 0 0

  25 H    1     1.0914     2.0624   55 C    0 0 0
  25 H    1     2.1475     4.0581   49 C    0 0 0
  25 H    1     2.1679     4.0967   53 C    0 0 0
  25 H    1     2.5192     4.7606   23 H    0 0 0
  25 H    1     2.5675     4.8519   73 O    0 0 0
  25 H    1     2.7328     5.1643    1 B    1 0 0

  26 H    1     1.0914     2.0624   56 C    0 0 0
  26 H    1     2.1475     4.0581   50 C    0 0 0
  26 H    1     2.1679     4.0967   54 C    0 0 0
  26 H    1     2.5192     4.7606   24 H    0 0 0
  26 H    1     2.5675     4.8519   74 O    1 1 0
  26 H    1     2.7328     5.1643    2 B    1 1 0

  27 H    1     1.0914     2.0625   57 C    0 0 0
  27 H    1     2.1491     4.0612   59 C   -1 0 0
  27 H    1     2.1666     4.0942   51 C    0 0 0
  27 H    1     2.5198     4.7617   21 H    0 0 0
  27 H    1     2.5723     4.8609   83 O    0 0 0
  27 H    1     2.7355     5.1693   11 B   -1 0 0

  28 H    1     1.0914     2.0625   58 C    0 0 0
  28 H    1     2.1491     4.0612   60 C   -1 0 0
  28 H    1     2.1666     4.0942   52 C    0 0 0
  28 H    1     2.5198     4.7617   22 H    0 0 0
  28 H    1     2.5723     4.8609   84 O    0 0 0
  28 H    1     2.7355     5.1693   12 B   -1 0 0

  29 H    1     1.0914     2.0624   63 C    0 0 0
  29 H    1     2.1475     4.0582   61 C   -1-1 0
  29 H    1     2.1678     4.0966   69 C    0 0 0
  29 H    1     2.5200     4.7621   35 H    0 0 0
  29 H    1     2.5667     4.8503   77 O    0 0 0
  29 H    1     2.7315     5.1618    5 B    0 0 0

  30 H    1     1.0914     2.0624   64 C    0 0 0
  30 H    1     2.1475     4.0582   62 C    0 0 0
  30 H    1     2.1678     4.0966   70 C    0 0 0
  30 H    1     2.5200     4.7621   36 H    0 0 0
  30 H    1     2.5667     4.8503   78 O    0 0 0
  30 H    1     2.7315     5.1618    6 B    0 0 0

  31 H    1     1.0913     2.0623   65 C    0 0 0
  31 H    1     2.1487     4.0605   71 C    0 0 0
  31 H    1     2.1667     4.0945   67 C    0 0 0
  31 H    1     2.5197     4.7616   33 H    0 0 0
  31 H    1     2.5723     4.8610   81 O    0 0 0
  31 H    1     2.7359     5.1701    9 B    0 0 0

  32 H    1     1.0913     2.0623   66 C    1 1 0
  32 H    1     2.1487     4.0605   72 C    1 1 0
  32 H    1     2.1667     4.0945   68 C    1 1 0
  32 H    1     2.5197     4.7616   34 H    0 0 0
  32 H    1     2.5723     4.8610   82 O    0 1 0
  32 H    1     2.7359     5.1701   10 B    1 1 0

  33 H    1     1.0915     2.0626   67 C    0 0 0
  33 H    1     2.1479     4.0589   61 C    0 0 0
  33 H    1     2.1679     4.0968   65 C    0 0 0
  33 H    1     2.5197     4.7616   31 H    0 0 0
  33 H    1     2.5677     4.8522   73 O    0 0 0
  33 H    1     2.7331     5.1648    5 B    1 1 0

  34 H    1     1.0915     2.0626   68 C    1 1 0
  34 H    1     2.1479     4.0589   62 C    1 1 0
  34 H    1     2.1679     4.0968   66 C    1 1 0
  34 H    1     2.5197     4.7616   32 H    0 0 0
  34 H    1     2.5677     4.8522   74 O    1 1 0
  34 H    1     2.7331     5.1648    6 B    1 1 0

  35 H    1     1.0914     2.0624   69 C    0 0 0
  35 H    1     2.1486     4.0602   71 C   -1-1 0
  35 H    1     2.1668     4.0947   63 C    0 0 0
  35 H    1     2.5200     4.7621   29 H    0 0 0
  35 H    1     2.5717     4.8598   83 O    0 0 0
  35 H    1     2.7349     5.1682    9 B   -1-1 0

  36 H    1     1.0914     2.0624   70 C    0 0 0
  36 H    1     2.1486     4.0602   72 C    0 0 0
  36 H    1     2.1668     4.0947   64 C    0 0 0
  36 H    1     2.5200     4.7621   30 H    0 0 0
  36 H    1     2.5717     4.8598   84 O    0 0 0
  36 H    1     2.7349     5.1682   10 B    0 0 0

  37 C    1     1.4020     2.6495   43 C    0 1 0
  37 C    1     1.4021     2.6495   39 C    0 0 0
  37 C    1     1.5504     2.9298    3 B    0 0 0
  37 C    1     2.1471     4.0575   17 H    0 1 0
  37 C    1     2.1472     4.0576   13 H    0 0 0
  37 C    1     2.4246     4.5817   41 C    0 1 0

  38 C    1     1.4020     2.6495   44 C    0 0 0
  38 C    1     1.4021     2.6495   40 C    0 0 0
  38 C    1     1.5504     2.9298    4 B    0 0 0
  38 C    1     2.1471     4.0575   18 H    0 0 0
  38 C    1     2.1472     4.0576   14 H    0-1 0
  38 C    1     2.4246     4.5817   42 C    0 0 0

  39 C    1     1.0913     2.0623   13 H    0 0 0
  39 C    1     1.3914     2.6294   45 C    0 0 0
  39 C    1     1.4021     2.6495   37 C    0 0 0
  39 C    1     2.1669     4.0948   19 H    0 0 0
  39 C    1     2.4177     4.5688   43 C    0 1 0
  39 C    1     2.4250     4.5825   47 C    0 1 0

  40 C    1     1.0913     2.0623   14 H    0-1 0
  40 C    1     1.3914     2.6294   46 C    0 0 0
  40 C    1     1.4021     2.6495   38 C    0 0 0
  40 C    1     2.1669     4.0948   20 H    0-1 0
  40 C    1     2.4177     4.5688   44 C    0 0 0
  40 C    1     2.4250     4.5825   48 C    0 0 0

  41 C    1     1.0914     2.0625   15 H    0 0 0
  41 C    1     1.3914     2.6293   43 C    0 0 0
  41 C    1     1.4026     2.6505   47 C    0 0 0
  41 C    1     2.1680     4.0970   17 H    0 0 0
  41 C    1     2.4182     4.5697   45 C    0-1 0
  41 C    1     2.4246     4.5817   37 C    0-1 0

  42 C    1     1.0914     2.0625   16 H    0 0 0
  42 C    1     1.3914     2.6293   44 C    0 0 0
  42 C    1     1.4026     2.6505   48 C    0 0 0
  42 C    1     2.1680     4.0970   18 H    0 0 0
  42 C    1     2.4182     4.5697   46 C    0 0 0
  42 C    1     2.4246     4.5817   38 C    0 0 0

  43 C    1     1.0914     2.0624   17 H    0 0 0
  43 C    1     1.3914     2.6293   41 C    0 0 0
  43 C    1     1.4020     2.6495   37 C    0-1 0
  43 C    1     2.1666     4.0942   15 H    0 0 0
  43 C    1     2.4177     4.5688   39 C    0-1 0
  43 C    1     2.4250     4.5826   47 C    0 0 0

  44 C    1     1.0914     2.0624   18 H    0 0 0
  44 C    1     1.3914     2.6293   42 C    0 0 0
  44 C    1     1.4020     2.6495   38 C    0 0 0
  44 C    1     2.1666     4.0942   16 H    0 0 0
  44 C    1     2.4177     4.5688   40 C    0 0 0
  44 C    1     2.4250     4.5826   48 C    0 0 0

  45 C    1     1.0915     2.0626   19 H    0 0 0
  45 C    1     1.3914     2.6294   39 C    0 0 0
  45 C    1     1.4025     2.6504   47 C    0 1 0
  45 C    1     2.1680     4.0969   13 H    0 0 0
  45 C    1     2.4182     4.5697   41 C    0 1 0
  45 C    1     2.4246     4.5818   37 C    0 0 0

  46 C    1     1.0915     2.0626   20 H    0-1 0
  46 C    1     1.3914     2.6294   40 C    0 0 0
  46 C    1     1.4025     2.6504   48 C    0 0 0
  46 C    1     2.1680     4.0969   14 H    0-1 0
  46 C    1     2.4182     4.5697   42 C    0 0 0
  46 C    1     2.4246     4.5818   38 C    0 0 0

  47 C    1     1.4025     2.6504   45 C    0-1 0
  47 C    1     1.4026     2.6505   41 C    0 0 0
  47 C    1     1.5513     2.9316    7 B    0 0 0
  47 C    1     2.1490     4.0610   19 H    0-1 0
  47 C    1     2.1493     4.0616   15 H    0 0 0
  47 C    1     2.4250     4.5825   39 C    0-1 0

  48 C    1     1.4025     2.6504   46 C    0 0 0
  48 C    1     1.4026     2.6505   42 C    0 0 0
  48 C    1     1.5513     2.9316    8 B    0 0 0
  48 C    1     2.1490     4.0610   20 H    0-1 0
  48 C    1     2.1493     4.0616   16 H    0 0 0
  48 C    1     2.4250     4.5825   40 C    0 0 0

  49 C    1     1.4020     2.6494   51 C    1 0 0
  49 C    1     1.4021     2.6495   55 C    0 0 0
  49 C    1     1.5503     2.9297    1 B    1 0 0
  49 C    1     2.1469     4.0571   21 H    1 0 0
  49 C    1     2.1475     4.0581   25 H    0 0 0
  49 C    1     2.4246     4.5818   53 C    0 0 0

  50 C    1     1.4020     2.6494   52 C    1 0 0
  50 C    1     1.4021     2.6495   56 C    0 0 0
  50 C    1     1.5503     2.9297    2 B    1 1 0
  50 C    1     2.1469     4.0571   22 H    1 0 0
  50 C    1     2.1475     4.0581   26 H    0 0 0
  50 C    1     2.4246     4.5818   54 C    0 0 0

  51 C    1     1.0913     2.0623   21 H    0 0 0
  51 C    1     1.3914     2.6293   57 C    0 0 0
  51 C    1     1.4020     2.6494   49 C   -1 0 0
  51 C    1     2.1666     4.0942   27 H    0 0 0
  51 C    1     2.4175     4.5684   55 C   -1 0 0
  51 C    1     2.4251     4.5828   59 C   -1 0 0

  52 C    1     1.0913     2.0623   22 H    0 0 0
  52 C    1     1.3914     2.6293   58 C    0 0 0
  52 C    1     1.4020     2.6494   50 C   -1 0 0
  52 C    1     2.1666     4.0942   28 H    0 0 0
  52 C    1     2.4175     4.5684   56 C   -1 0 0
  52 C    1     2.4251     4.5828   60 C   -1 0 0

  53 C    1     1.0914     2.0625   23 H    0 0 0
  53 C    1     1.3915     2.6295   55 C    0 0 0
  53 C    1     1.4026     2.6505   59 C    0 0 0
  53 C    1     2.1679     4.0967   25 H    0 0 0
  53 C    1     2.4179     4.5691   57 C    1 0 0
  53 C    1     2.4246     4.5818   49 C    0 0 0

  54 C    1     1.0914     2.0625   24 H    0 0 0
  54 C    1     1.3915     2.6295   56 C    0 0 0
  54 C    1     1.4026     2.6505   60 C    0 0 0
  54 C    1     2.1679     4.0967   26 H    0 0 0
  54 C    1     2.4179     4.5691   58 C    1 0 0
  54 C    1     2.4246     4.5818   50 C    0 0 0

  55 C    1     1.0914     2.0624   25 H    0 0 0
  55 C    1     1.3915     2.6295   53 C    0 0 0
  55 C    1     1.4021     2.6495   49 C    0 0 0
  55 C    1     2.1664     4.0939   23 H    0 0 0
  55 C    1     2.4175     4.5684   51 C    1 0 0
  55 C    1     2.4253     4.5832   59 C    0 0 0

  56 C    1     1.0914     2.0624   26 H    0 0 0
  56 C    1     1.3915     2.6295   54 C    0 0 0
  56 C    1     1.4021     2.6495   50 C    0 0 0
  56 C    1     2.1664     4.0939   24 H    0 0 0
  56 C    1     2.4175     4.5684   52 C    1 0 0
  56 C    1     2.4253     4.5832   60 C    0 0 0

  57 C    1     1.0914     2.0625   27 H    0 0 0
  57 C    1     1.3914     2.6293   51 C    0 0 0
  57 C    1     1.4025     2.6504   59 C   -1 0 0
  57 C    1     2.1680     4.0968   21 H    0 0 0
  57 C    1     2.4179     4.5691   53 C   -1 0 0
  57 C    1     2.4247     4.5819   49 C   -1 0 0

  58 C    1     1.0914     2.0625   28 H    0 0 0
  58 C    1     1.3914     2.6293   52 C    0 0 0
  58 C    1     1.4025     2.6504   60 C   -1 0 0
  58 C    1     2.1680     4.0968   22 H    0 0 0
  58 C    1     2.4179     4.5691   54 C   -1 0 0
  58 C    1     2.4247     4.5819   50 C   -1 0 0

  59 C    1     1.4025     2.6504   57 C    1 0 0
  59 C    1     1.4026     2.6505   53 C    0 0 0
  59 C    1     1.5516     2.9322   11 B    0 0 0
  59 C    1     2.1491     4.0612   27 H    1 0 0
  59 C    1     2.1493     4.0617   23 H    0 0 0
  59 C    1     2.4251     4.5828   51 C    1 0 0

  60 C    1     1.4025     2.6504   58 C    1 0 0
  60 C    1     1.4026     2.6505   54 C    0 0 0
  60 C    1     1.5516     2.9322   12 B    0 0 0
  60 C    1     2.1491     4.0612   28 H    1 0 0
  60 C    1     2.1493     4.0617   24 H    0 0 0
  60 C    1     2.4251     4.5828   52 C    1 0 0

  61 C    1     1.4021     2.6496   63 C    1 1 0
  61 C    1     1.4021     2.6497   67 C    0 0 0
  61 C    1     1.5502     2.9294    5 B    1 1 0
  61 C    1     2.1475     4.0582   29 H    1 1 0
  61 C    1     2.1479     4.0589   33 H    0 0 0
  61 C    1     2.4244     4.5814   65 C    0 0 0

  62 C    1     1.4021     2.6496   64 C    0 0 0
  62 C    1     1.4021     2.6497   68 C    0 0 0
  62 C    1     1.5502     2.9294    6 B    0 0 0
  62 C    1     2.1475     4.0582   30 H    0 0 0
  62 C    1     2.1479     4.0589   34 H   -1-1 0
  62 C    1     2.4244     4.5814   66 C    0 0 0

  63 C    1     1.0914     2.0624   29 H    0 0 0
  63 C    1     1.3914     2.6293   69 C    0 0 0
  63 C    1     1.4021     2.6496   61 C   -1-1 0
  63 C    1     2.1668     4.0947   35 H    0 0 0
  63 C    1     2.4179     4.5692   67 C   -1-1 0
  63 C    1     2.4251     4.5827   71 C   -1-1 0

  64 C    1     1.0914     2.0624   30 H    0 0 0
  64 C    1     1.3914     2.6293   70 C    0 0 0
  64 C    1     1.4021     2.6496   62 C    0 0 0
  64 C    1     2.1668     4.0947   36 H    0 0 0
  64 C    1     2.4179     4.5692   68 C    0 0 0
  64 C    1     2.4251     4.5827   72 C    0 0 0

  65 C    1     1.0913     2.0623   31 H    0 0 0
  65 C    1     1.3914     2.6294   67 C    0 0 0
  65 C    1     1.4025     2.6504   71 C    0 0 0
  65 C    1     2.1679     4.0968   33 H    0 0 0
  65 C    1     2.4178     4.5690   69 C    1 1 0
  65 C    1     2.4244     4.5814   61 C    0 0 0

  66 C    1     1.0913     2.0623   32 H   -1-1 0
  66 C    1     1.3914     2.6294   68 C    0 0 0
  66 C    1     1.4025     2.6504   72 C    0 0 0
  66 C    1     2.1679     4.0968   34 H   -1-1 0
  66 C    1     2.4178     4.5690   70 C    0 0 0
  66 C    1     2.4244     4.5814   62 C    0 0 0

  67 C    1     1.0915     2.0626   33 H    0 0 0
  67 C    1     1.3914     2.6294   65 C    0 0 0
  67 C    1     1.4021     2.6497   61 C    0 0 0
  67 C    1     2.1667     4.0945   31 H    0 0 0
  67 C    1     2.4179     4.5692   63 C    1 1 0
  67 C    1     2.4253     4.5832   71 C    0 0 0

  68 C    1     1.0915     2.0626   34 H   -1-1 0
  68 C    1     1.3914     2.6294   66 C    0 0 0
  68 C    1     1.4021     2.6497   62 C    0 0 0
  68 C    1     2.1667     4.0945   32 H   -1-1 0
  68 C    1     2.4179     4.5692   64 C    0 0 0
  68 C    1     2.4253     4.5832   72 C    0 0 0

  69 C    1     1.0914     2.0624   35 H    0 0 0
  69 C    1     1.3914     2.6293   63 C    0 0 0
  69 C    1     1.4025     2.6503   71 C   -1-1 0
  69 C    1     2.1678     4.0966   29 H    0 0 0
  69 C    1     2.4178     4.5690   65 C   -1-1 0
  69 C    1     2.4245     4.5817   61 C   -1-1 0

  70 C    1     1.0914     2.0624   36 H    0 0 0
  70 C    1     1.3914     2.6293   64 C    0 0 0
  70 C    1     1.4025     2.6503   72 C    0 0 0
  70 C    1     2.1678     4.0966   30 H    0 0 0
  70 C    1     2.4178     4.5690   66 C    0 0 0
  70 C    1     2.4245     4.5817   62 C    0 0 0

  71 C    1     1.4025     2.6503   69 C    1 1 0
  71 C    1     1.4025     2.6504   65 C    0 0 0
  71 C    1     1.5516     2.9322    9 B    0 0 0
  71 C    1     2.1486     4.0602   35 H    1 1 0
  71 C    1     2.1487     4.0605   31 H    0 0 0
  71 C    1     2.4251     4.5827   63 C    1 1 0

  72 C    1     1.4025     2.6503   70 C    0 0 0
  72 C    1     1.4025     2.6504   66 C    0 0 0
  72 C    1     1.5516     2.9322   10 B    0 0 0
  72 C    1     2.1486     4.0602   36 H    0 0 0
  72 C    1     2.1487     4.0605   32 H   -1-1 0
  72 C    1     2.4251     4.5827   64 C    0 0 0

  73 O    1     1.3791     2.6061    1 B    1 0 0
  73 O    1     1.3791     2.6061    5 B    1 1 0
  73 O    1     2.3880     4.5126   75 O    1 0 0
  73 O    1     2.3882     4.5130   77 O    1 1 0
  73 O    1     2.5383     4.7966   61 C    0 0 0
  73 O    1     2.5384     4.7968   49 C    0 0 0

  74 O    1     1.3791     2.6061    2 B    0 0 0
  74 O    1     1.3791     2.6061    6 B    0 0 0
  74 O    1     2.3880     4.5126   76 O    0 0 0
  74 O    1     2.3882     4.5130   78 O    0 0 0
  74 O    1     2.5383     4.7966   62 C    0 0 0
  74 O    1     2.5384     4.7968   50 C   -1-1 0

  75 O    1     1.3793     2.6065    1 B    0 0 0
  75 O    1     1.3793     2.6065    3 B    0 0 0
  75 O    1     2.3880     4.5126   73 O   -1 0 0
  75 O    1     2.3882     4.5131   77 O    0 1 0
  75 O    1     2.5391     4.7981   37 C    0 0 0
  75 O    1     2.5395     4.7990   49 C   -1 0 0

  76 O    1     1.3793     2.6065    2 B    0 0 0
  76 O    1     1.3793     2.6065    4 B    0 0 0
  76 O    1     2.3880     4.5126   74 O    0 0 0
  76 O    1     2.3882     4.5131   78 O    0 0 0
  76 O    1     2.5391     4.7981   38 C    0 0 0
  76 O    1     2.5395     4.7990   50 C   -1-1 0

  77 O    1     1.3793     2.6064    5 B    0 0 0
  77 O    1     1.3793     2.6065    3 B    0-1 0
  77 O    1     2.3882     4.5130   73 O   -1-1 0
  77 O    1     2.3882     4.5131   75 O    0-1 0
  77 O    1     2.5390     4.7980   37 C    0-1 0
  77 O    1     2.5391     4.7982   61 C   -1-1 0

  78 O    1     1.3793     2.6064    6 B    0 0 0
  78 O    1     1.3793     2.6065    4 B    0 0 0
  78 O    1     2.3882     4.5130   74 O    0 0 0
  78 O    1     2.3882     4.5131   76 O    0 0 0
  78 O    1     2.5390     4.7980   38 C    0 0 0
  78 O    1     2.5391     4.7982   62 C    0 0 0

  79 O    1     1.3795     2.6068   11 B    0 0 0
  79 O    1     1.3795     2.6068    7 B    0 0 0
  79 O    1     2.3880     4.5126   83 O    1 0 0
  79 O    1     2.3884     4.5134   81 O    0-1 0
  79 O    1     2.5400     4.7998   47 C    0 0 0
  79 O    1     2.5403     4.8005   59 C    0 0 0

  80 O    1     1.3795     2.6068   12 B    0 0 0
  80 O    1     1.3795     2.6068    8 B    0 0 0
  80 O    1     2.3880     4.5126   84 O    1 0 0
  80 O    1     2.3884     4.5134   82 O    0 0 0
  80 O    1     2.5400     4.7998   48 C    0 0 0
  80 O    1     2.5403     4.8005   60 C    0 0 0

  81 O    1     1.3795     2.6069    9 B    0 0 0
  81 O    1     1.3795     2.6070    7 B    0 1 0
  81 O    1     2.3881     4.5128   83 O    1 1 0
  81 O    1     2.3884     4.5134   79 O    0 1 0
  81 O    1     2.5404     4.8006   47 C    0 1 0
  81 O    1     2.5405     4.8008   71 C    0 0 0

  82 O    1     1.3795     2.6069   10 B    1 0 0
  82 O    1     1.3795     2.6070    8 B    0 0 0
  82 O    1     2.3881     4.5128   84 O    1 0 0
  82 O    1     2.3884     4.5134   80 O    0 0 0
  82 O    1     2.5404     4.8006   48 C    0 0 0
  82 O    1     2.5405     4.8008   72 C    1 0 0

  83 O    1     1.3796     2.6071   11 B   -1 0 0
  83 O    1     1.3797     2.6072    9 B   -1-1 0
  83 O    1     2.3880     4.5126   79 O   -1 0 0
  83 O    1     2.3881     4.5128   81 O   -1-1 0
  83 O    1     2.5409     4.8016   71 C   -1-1 0
  83 O    1     2.5410     4.8019   59 C   -1 0 0

  84 O    1     1.3796     2.6071   12 B   -1 0 0
  84 O    1     1.3797     2.6072   10 B    0 0 0
  84 O    1     2.3880     4.5126   80 O   -1 0 0
  84 O    1     2.3881     4.5128   82 O   -1 0 0
  84 O    1     2.5409     4.8016   72 C    0 0 0
  84 O    1     2.5410     4.8019   60 C   -1 0 0


 SYMMETRY ALLOWED INTERNAL DEGREE(S) OF FREEDOM: 249
 TTTTTTTTTTTTTTTTTTTTTTTTTTTTTT SYMM        TELAPSE        2.76 TCPU        2.76
 TTTTTTTTTTTTTTTTTTTTTTTTTTTTTT INT_SCREEN  TELAPSE        2.97 TCPU        2.96

 DFT PARAMETERS

     ATOM       ELECTRONS   NET CHARGE   R(ANGSTROM)
   1   5  B       5.0000      0.0000     0.89000000
  13   1  H       1.0000      0.0000     1.11000000
  37   6  C       6.0000      0.0000     0.77000000
  73   8  O       8.0000      0.0000     0.74000000

 SIZE OF GRID=    2584524
 TTTTTTTTTTTTTTTTTTTTTTTTTTTTTT MAKE_GRID2  TELAPSE       23.87 TCPU       23.85
 BECKE WEIGHT FUNCTION
 RADSAFE =     2.00
 TOLERANCES - DENSITY:10**- 6; POTENTIAL:10**- 9; GRID WGT:10**-14

 RADIAL INTEGRATION  - INTERVALS (POINTS,UPPER LIMIT):            1( 75,  4.0*R)

 ANGULAR INTEGRATION - INTERVALS (ACCURACY LEVEL [N. POINTS] UPPER LIMIT):
  1(  4[  86]   0.2)  2(  8[ 194]   0.5)  3( 12[ 350]   0.9)  4( 16[ 974]   3.5)
  5( 12[ 350]9999.0)
 TTTTTTTTTTTTTTTTTTTTTTTTTTTTTT INT_CALC    TELAPSE       24.14 TCPU       24.11
 EEEEEEEEEE INT_CALC TERMINATION  DATE 19 02 2026 TIME 20:17:59.7

 *******************************************************************************
 cof-1_z38_L020_serr                                                             
 CRYSTAL - SCF - TYPE OF CALCULATION :  RESTRICTED CLOSED SHELL
 *******************************************************************************

 CAPPA:IS1  2;IS2  2;IS3  8; K PTS MONK NET  20; SYMMOPS:K SPACE   2;G SPACE   1

 TTTTTTTTTTTTTTTTTTTTTTTTTTTTTT SDIK        TELAPSE       26.09 TCPU       52.60

 AAAAAAAAAAAAAAAAAAAAAAAAAAAAAAAAAAAAAAAAAAAAAAAAAAAAAAAAAAAAAAAAAAAAAAAAAAAAAAA
         ATOMIC WAVEFUNCTION(S)


 NUCLEAR CHARGE  5.0  SYMMETRY SPECIES            S    P
 N. ELECTRONS    5.0  NUMBER OF PRIMITIVE GTOS    8    4
                      NUMBER OF CONTRACTED GTOS   4    2
                      NUMBER OF CLOSED SHELLS     2    0
                      OPEN SHELL OCCUPATION       0    1

  ZNUC  SCFIT    TOTAL HF ENERGY   KINETIC ENERGY   VIRIAL THEOREM ACCURACY
   5.0    11    -2.451164084E+01  2.462155050E+01 -1.995536038E+00  1.5E-06

 NUCLEAR CHARGE  1.0  SYMMETRY SPECIES            S
 N. ELECTRONS    1.0  NUMBER OF PRIMITIVE GTOS    4
                      NUMBER OF CONTRACTED GTOS   2
                      NUMBER OF CLOSED SHELLS     0
                      OPEN SHELL OCCUPATION       1

  ZNUC  SCFIT    TOTAL HF ENERGY   KINETIC ENERGY   VIRIAL THEOREM ACCURACY
   1.0     1    -4.977266687E-01  5.190767460E-01 -1.958869132E+00  0.0E+00

 NUCLEAR CHARGE  6.0  SYMMETRY SPECIES            S    P
 N. ELECTRONS    6.0  NUMBER OF PRIMITIVE GTOS    8    4
                      NUMBER OF CONTRACTED GTOS   4    2
                      NUMBER OF CLOSED SHELLS     2    0
                      OPEN SHELL OCCUPATION       0    2

  ZNUC  SCFIT    TOTAL HF ENERGY   KINETIC ENERGY   VIRIAL THEOREM ACCURACY
   6.0     9    -3.766704647E+01  3.775180683E+01 -1.997754800E+00  1.1E-06

 NUCLEAR CHARGE  8.0  SYMMETRY SPECIES            S    P
 N. ELECTRONS    8.0  NUMBER OF PRIMITIVE GTOS    8    4
                      NUMBER OF CONTRACTED GTOS   4    2
                      NUMBER OF CLOSED SHELLS     2    0
                      OPEN SHELL OCCUPATION       0    4

  ZNUC  SCFIT    TOTAL HF ENERGY   KINETIC ENERGY   VIRIAL THEOREM ACCURACY
   8.0    12    -7.477373220E+01  7.477365593E+01 -2.000001020E+00  3.8E-06

 AAAAAAAAAAAAAAAAAAAAAAAAAAAAAAAAAAAAAAAAAAAAAAAAAAAAAAAAAAAAAAAAAAAAAAAAAAAAAAA

 CHARGE NORMALIZATION FACTOR   1.00000000
 TOTAL ATOMIC CHARGES:
   5.0000000   5.0000000   5.0000000   5.0000000   5.0000000   5.0000000
   5.0000000   5.0000000   5.0000000   5.0000000   5.0000000   5.0000000
   1.0000000   1.0000000   1.0000000   1.0000000   1.0000000   1.0000000
   1.0000000   1.0000000   1.0000000   1.0000000   1.0000000   1.0000000
   1.0000000   1.0000000   1.0000000   1.0000000   1.0000000   1.0000000
   1.0000000   1.0000000   1.0000000   1.0000000   1.0000000   1.0000000
   6.0000000   6.0000000   6.0000000   6.0000000   6.0000000   6.0000000
   6.0000000   6.0000000   6.0000000   6.0000000   6.0000000   6.0000000
   6.0000000   6.0000000   6.0000000   6.0000000   6.0000000   6.0000000
   6.0000000   6.0000000   6.0000000   6.0000000   6.0000000   6.0000000
   6.0000000   6.0000000   6.0000000   6.0000000   6.0000000   6.0000000
   6.0000000   6.0000000   6.0000000   6.0000000   6.0000000   6.0000000
   8.0000000   8.0000000   8.0000000   8.0000000   8.0000000   8.0000000
   8.0000000   8.0000000   8.0000000   8.0000000   8.0000000   8.0000000
 TTTTTTTTTTTTTTTTTTTTTTTTTTTTTT MOQGAD      TELAPSE       26.19 TCPU       55.77
 TTTTTTTTTTTTTTTTTTTTTTTTTTTTTT SHELLXN     TELAPSE       45.63 TCPU      676.93
 TTTTTTTTTTTTTTTTTTTTTTTTTTTTTT MONMO3      TELAPSE       46.25 TCPU      696.92
 NUMERICALLY INTEGRATED DENSITY    396.0000232928
 TTTTTTTTTTTTTTTTTTTTTTTTTTTTTT NUMDFT      TELAPSE       47.75 TCPU      744.80
 CYC   0 ETOT(AU) -2.591922496915E+03 DETOT -2.59E+03 tst  0.00E+00 PX  1.00E+00
 TTTTTTTTTTTTTTTTTTTTTTTTTTTTTT DIIS        TELAPSE       47.86 TCPU      748.21
 TTTTTTTTTTTTTTTTTTTTTTTTTTTTTT FDIK        TELAPSE       49.69 TCPU      806.66
 INSULATING STATE
 TOP OF VALENCE BANDS -    BAND    198; K    1; EIG -3.0916764E-01 AU
 BOTTOM OF VIRTUAL BANDS - BAND    199; K    1; EIG -1.5772785E-01 AU
 DIRECT ENERGY BAND GAP:   4.1209 eV
 TTTTTTTTTTTTTTTTTTTTTTTTTTTTTT PDIG        TELAPSE       51.25 TCPU      813.59
 CHARGE NORMALIZATION FACTOR   1.00000000
 TOTAL ATOMIC CHARGES:
   4.1636287   4.1328255   4.1479289   4.1587918   4.1481704   4.1590265
   4.1586512   4.1478224   4.1584310   4.1476150   4.1325485   4.1632574
   0.7855096   0.7857358   0.7858512   0.7856234   0.7853256   0.7853375
   0.7854553   0.7854482   0.7855380   0.7858998   0.7860618   0.7857044
   0.7855272   0.7858890   0.7860236   0.7856666   0.7853295   0.7853396
   0.7855207   0.7855144   0.7854605   0.7856871   0.7858445   0.7856167
   6.0466466   6.0461094   6.2675330   6.2672257   6.2671840   6.2674927
   6.2657023   6.2662772   6.2662162   6.2656334   6.0453786   6.0458975
   6.0436440   6.0499566   6.2662313   6.2664495   6.2665134   6.2663121
   6.2661371   6.2663643   6.2665226   6.2663198   6.0487121   6.0424112
   6.0470196   6.0464735   6.2654628   6.2660467   6.2665953   6.2660042
   6.2671535   6.2668542   6.2674640   6.2677638   6.0449033   6.0454387
   8.6977243   8.6992024   8.6978228   8.6993047   8.7009618   8.6918578
   8.6996100   8.6981439   8.6922611   8.7013519   8.6997847   8.6983169
 TTTTTTTTTTTTTTTTTTTTTTTTTTTTTT MOQGAD      TELAPSE       51.35 TCPU      813.69
 TTTTTTTTTTTTTTTTTTTTTTTTTTTTTT SHELLXN     TELAPSE       71.62 TCPU     1459.96
 TTTTTTTTTTTTTTTTTTTTTTTTTTTTTT MONMO3      TELAPSE       72.22 TCPU     1479.31
 NUMERICALLY INTEGRATED DENSITY    396.0000160657
 TTTTTTTTTTTTTTTTTTTTTTTTTTTTTT NUMDFT      TELAPSE       73.73 TCPU     1527.52
 CYC   1 ETOT(AU) -2.577638153146E+03 DETOT  1.43E+01 tst  0.00E+00 PX  1.00E+00
 TTTTTTTTTTTTTTTTTTTTTTTTTTTTTT DIIS        TELAPSE       73.87 TCPU     1531.88
 DIIS TEST: 0.22405E+01 AT SCF   CYCLE   1 - MIX   30 %
 TTTTTTTTTTTTTTTTTTTTTTTTTTTTTT FDIK        TELAPSE       75.75 TCPU     1592.11
 INSULATING STATE
 TOP OF VALENCE BANDS -    BAND    198; K    3; EIG -2.1826349E-01 AU
 TOP OF VALENCE BANDS -    BAND    198; K    1; EIG -2.1833423E-01 AU
 BOTTOM OF VIRTUAL BANDS - BAND    199; K    1; EIG -7.9557004E-02 AU
 INDIRECT ENERGY BAND GAP:   3.7744 eV
 TTTTTTTTTTTTTTTTTTTTTTTTTTTTTT PDIG        TELAPSE       77.31 TCPU     1599.05
 CHARGE NORMALIZATION FACTOR   1.00000000
 TOTAL ATOMIC CHARGES:
   4.6774028   4.7078232   4.7031928   4.6947536   4.7031796   4.6947405
   4.6950743   4.7035574   4.6950321   4.7035346   4.7082710   4.6777126
   0.9145502   0.9149139   0.9150161   0.9145886   0.9179165   0.9181357
   0.9181873   0.9179161   0.9174442   0.9091428   0.9091722   0.9175944
   0.9174316   0.9091208   0.9091448   0.9175512   0.9179027   0.9181242
   0.9182568   0.9179790   0.9144950   0.9148498   0.9150357   0.9145856
   5.8750240   5.8540686   6.1478553   6.0885170   6.0890224   6.1483556
   6.1331145   6.1465179   6.1471639   6.1339581   5.8568818   5.8778376
   5.8238465   5.9173475   6.1197587   6.1445164   6.1453535   6.1204609
   6.1199629   6.1446942   6.1452638   6.1203471   5.9206175   5.8270891
   5.8749623   5.8540393   6.1331792   6.1465825   6.1469948   6.1338050
   6.1481103   6.0887208   6.0887328   6.1480602   5.8571139   5.8781562
   8.3363333   8.3423305   8.3367126   8.3426825   8.3637402   8.3389931
   8.3422180   8.3361673   8.3386616   8.3635946   8.3426566   8.3365476
 TTTTTTTTTTTTTTTTTTTTTTTTTTTTTT MOQGAD      TELAPSE       77.42 TCPU     1599.15
 TTTTTTTTTTTTTTTTTTTTTTTTTTTTTT SHELLXN     TELAPSE       97.79 TCPU     2249.16
 TTTTTTTTTTTTTTTTTTTTTTTTTTTTTT MONMO3      TELAPSE       98.41 TCPU     2268.97
 NUMERICALLY INTEGRATED DENSITY    396.0000217482
 TTTTTTTTTTTTTTTTTTTTTTTTTTTTTT NUMDFT      TELAPSE       99.92 TCPU     2317.08
 CYC   2 ETOT(AU) -2.578023485186E+03 DETOT -3.85E-01 tst  4.30E-03 PX  1.59E-01
 TTTTTTTTTTTTTTTTTTTTTTTTTTTTTT DIIS        TELAPSE      100.07 TCPU     2322.02
 DIIS TEST: 0.95421E+00 AT SCF   CYCLE   2 - DIIS ACTIVE - HISTORY:     2 CYCLES
 TTTTTTTTTTTTTTTTTTTTTTTTTTTTTT FDIK        TELAPSE      101.91 TCPU     2380.71
 INSULATING STATE
 TOP OF VALENCE BANDS -    BAND    198; K    1; EIG -2.3178959E-01 AU
 BOTTOM OF VIRTUAL BANDS - BAND    199; K    1; EIG -7.4873799E-02 AU
 DIRECT ENERGY BAND GAP:   4.2699 eV
 TTTTTTTTTTTTTTTTTTTTTTTTTTTTTT PDIG        TELAPSE      103.47 TCPU     2387.65
 CHARGE NORMALIZATION FACTOR   1.00000000
 TOTAL ATOMIC CHARGES:
   4.4879279   4.4811531   4.4862748   4.4924484   4.4863881   4.4925323
   4.4919188   4.4857198   4.4917416   4.4855331   4.4805756   4.4871811
   0.8950213   0.8828140   0.8828205   0.8952553   0.8894627   0.8945926
   0.8947053   0.8895236   0.8883861   0.8885593   0.8889273   0.8884814
   0.8884186   0.8885976   0.8888373   0.8883876   0.8894549   0.8945967
   0.8947536   0.8895792   0.8950300   0.8828159   0.8827840   0.8952145
   5.8813068   5.9014011   6.1536736   6.1713325   6.1706968   6.1531118
   6.1671988   6.1580281   6.1572843   6.1661121   5.9000002   5.8798042
   5.9167632   5.8848775   6.1703924   6.1524043   6.1516192   6.1699298
   6.1704614   6.1524342   6.1515598   6.1698888   5.8826915   5.9150618
   5.8816217   5.9017515   6.1671748   6.1579484   6.1574008   6.1661792
   6.1536032   6.1712478   6.1706573   6.1530958   5.8997252   5.8795877
   8.5168729   8.5159669   8.5170342   8.5161109   8.5174512   8.5089671
   8.5160321   8.5171001   8.5091291   8.5173927   8.5162092   8.5172925
 TTTTTTTTTTTTTTTTTTTTTTTTTTTTTT MOQGAD      TELAPSE      103.57 TCPU     2387.75
 TTTTTTTTTTTTTTTTTTTTTTTTTTTTTT SHELLXN     TELAPSE      123.12 TCPU     3011.55
 TTTTTTTTTTTTTTTTTTTTTTTTTTTTTT MONMO3      TELAPSE      123.72 TCPU     3030.88
 NUMERICALLY INTEGRATED DENSITY    396.0000185275
 TTTTTTTTTTTTTTTTTTTTTTTTTTTTTT NUMDFT      TELAPSE      125.22 TCPU     3078.70
 CYC   3 ETOT(AU) -2.578219319425E+03 DETOT -1.96E-01 tst  6.88E-04 PX  6.42E-02
 TTTTTTTTTTTTTTTTTTTTTTTTTTTTTT DIIS        TELAPSE      125.39 TCPU     3084.31
 DIIS TEST: 0.31887E-01 AT SCF   CYCLE   3 - DIIS ACTIVE - HISTORY:     3 CYCLES
 TTTTTTTTTTTTTTTTTTTTTTTTTTTTTT FDIK        TELAPSE      127.22 TCPU     3142.63
 INSULATING STATE
 TOP OF VALENCE BANDS -    BAND    198; K    3; EIG -2.4174099E-01 AU
 TOP OF VALENCE BANDS -    BAND    198; K    1; EIG -2.4176354E-01 AU
 BOTTOM OF VIRTUAL BANDS - BAND    199; K    1; EIG -8.4255913E-02 AU
 INDIRECT ENERGY BAND GAP:   4.2854 eV
 TTTTTTTTTTTTTTTTTTTTTTTTTTTTTT PDIG        TELAPSE      128.78 TCPU     3149.57
 CHARGE NORMALIZATION FACTOR   1.00000000
 TOTAL ATOMIC CHARGES:
   4.4913718   4.4940170   4.4946981   4.4940676   4.4948023   4.4941352
   4.4944602   4.4950508   4.4942936   4.4948870   4.4943348   4.4916182
   0.8729676   0.8751711   0.8753317   0.8729379   0.8757850   0.8757172
   0.8757654   0.8757519   0.8770177   0.8691165   0.8690585   0.8772632
   0.8770389   0.8691308   0.8689831   0.8771855   0.8757968   0.8757243
   0.8758176   0.8757894   0.8729590   0.8751501   0.8753162   0.8729047
   5.9500208   5.9239762   6.1789532   6.1350329   6.1359901   6.1797785
   6.1669580   6.1721912   6.1734837   6.1688424   5.9279472   5.9540114
   5.8957649   5.9899258   6.1491902   6.1780659   6.1795602   6.1502784
   6.1491647   6.1780470   6.1796129   6.1503123   5.9939139   5.8996359
   5.9500194   5.9240150   6.1668580   6.1720950   6.1735377   6.1689262
   6.1788825   6.1349153   6.1360066   6.1797908   5.9280166   5.9541801
   8.4818152   8.4892834   8.4821158   8.4895508   8.5054774   8.4817050
   8.4894842   8.4818098   8.4815665   8.5058853   8.4898534   8.4821351
 TTTTTTTTTTTTTTTTTTTTTTTTTTTTTT MOQGAD      TELAPSE      128.88 TCPU     3149.67
 TTTTTTTTTTTTTTTTTTTTTTTTTTTTTT SHELLXN     TELAPSE      148.43 TCPU     3773.41
 TTTTTTTTTTTTTTTTTTTTTTTTTTTTTT MONMO3      TELAPSE      149.03 TCPU     3792.74
 NUMERICALLY INTEGRATED DENSITY    396.0000191097
 TTTTTTTTTTTTTTTTTTTTTTTTTTTTTT NUMDFT      TELAPSE      150.53 TCPU     3840.60
 CYC   4 ETOT(AU) -2.578224976418E+03 DETOT -5.66E-03 tst  9.00E-05 PX  2.57E-02
 TTTTTTTTTTTTTTTTTTTTTTTTTTTTTT DIIS        TELAPSE      150.72 TCPU     3846.85
 DIIS TEST: 0.12566E-01 AT SCF   CYCLE   4 - DIIS ACTIVE - HISTORY:     4 CYCLES
 TTTTTTTTTTTTTTTTTTTTTTTTTTTTTT FDIK        TELAPSE      152.55 TCPU     3905.30
 INSULATING STATE
 TOP OF VALENCE BANDS -    BAND    198; K    1; EIG -2.4131825E-01 AU
 BOTTOM OF VIRTUAL BANDS - BAND    199; K    1; EIG -8.3675405E-02 AU
 DIRECT ENERGY BAND GAP:   4.2897 eV
 TTTTTTTTTTTTTTTTTTTTTTTTTTTTTT PDIG        TELAPSE      154.12 TCPU     3912.25
 CHARGE NORMALIZATION FACTOR   1.00000000
 TOTAL ATOMIC CHARGES:
   4.4895264   4.4961366   4.4969039   4.4974855   4.4970032   4.4975613
   4.4971399   4.4965857   4.4969757   4.4964268   4.4958347   4.4890181
   0.8781299   0.8727447   0.8727856   0.8783731   0.8770587   0.8786336
   0.8787961   0.8771758   0.8752512   0.8729125   0.8732786   0.8753695
   0.8752629   0.8729279   0.8732066   0.8752938   0.8770511   0.8786353
   0.8788506   0.8772334   0.8781141   0.8727233   0.8727699   0.8783496
   5.9216715   5.9263799   6.1686659   6.1551521   6.1544348   6.1680749
   6.1715548   6.1726431   6.1716460   6.1700934   5.9245178   5.9197808
   5.9238536   5.9384003   6.1699162   6.1659217   6.1650863   6.1694103
   6.1700407   6.1659895   6.1650098   6.1693216   5.9362161   5.9220715
   5.9218914   5.9266414   6.1715346   6.1725790   6.1716974   6.1701152
   6.1686825   6.1551404   6.1543392   6.1679894   5.9243627   5.9196974
   8.4916714   8.4931772   8.4918797   8.4933613   8.5022793   8.4886328
   8.4931063   8.4918132   8.4886374   8.5019956   8.4933518   8.4920454
 TTTTTTTTTTTTTTTTTTTTTTTTTTTTTT MOQGAD      TELAPSE      154.22 TCPU     3912.35
 TTTTTTTTTTTTTTTTTTTTTTTTTTTTTT SHELLXN     TELAPSE      174.18 TCPU     4549.28
 TTTTTTTTTTTTTTTTTTTTTTTTTTTTTT MONMO3      TELAPSE      174.80 TCPU     4569.08
 NUMERICALLY INTEGRATED DENSITY    396.0000190305
 TTTTTTTTTTTTTTTTTTTTTTTTTTTTTT NUMDFT      TELAPSE      176.31 TCPU     4617.51
 CYC   5 ETOT(AU) -2.578227915230E+03 DETOT -2.94E-03 tst  3.89E-05 PX  1.31E-02
 TTTTTTTTTTTTTTTTTTTTTTTTTTTTTT DIIS        TELAPSE      176.54 TCPU     4624.33
 DIIS TEST: 0.81212E-03 AT SCF   CYCLE   5 - DIIS ACTIVE - HISTORY:     5 CYCLES
 TTTTTTTTTTTTTTTTTTTTTTTTTTTTTT FDIK        TELAPSE      178.38 TCPU     4682.86
 INSULATING STATE
 TOP OF VALENCE BANDS -    BAND    198; K    2; EIG -2.4027626E-01 AU
 TOP OF VALENCE BANDS -    BAND    198; K    1; EIG -2.4028929E-01 AU
 BOTTOM OF VIRTUAL BANDS - BAND    199; K    1; EIG -8.3111191E-02 AU
 INDIRECT ENERGY BAND GAP:   4.2767 eV
 TTTTTTTTTTTTTTTTTTTTTTTTTTTTTT PDIG        TELAPSE      179.94 TCPU     4689.80
 CHARGE NORMALIZATION FACTOR   1.00000000
 TOTAL ATOMIC CHARGES:
   4.4910558   4.4949240   4.4963038   4.4972126   4.4964058   4.4972833
   4.4974653   4.4964797   4.4973035   4.4963186   4.4950786   4.4911268
   0.8791054   0.8747591   0.8748950   0.8791109   0.8784189   0.8806139
   0.8806443   0.8783802   0.8786320   0.8740811   0.8740964   0.8788556
   0.8786571   0.8741031   0.8740145   0.8787715   0.8784225   0.8806177
   0.8806971   0.8784257   0.8791007   0.8747430   0.8748767   0.8790774
   5.9206657   5.9149049   6.1708205   6.1519041   6.1526650   6.1714643
   6.1688669   6.1686483   6.1698822   6.1706448   5.9184599   5.9241692
   5.9047626   5.9448315   6.1605693   6.1696770   6.1708661   6.1614631
   6.1605525   6.1696532   6.1709020   6.1614946   5.9479016   5.9078415
   5.9207736   5.9150545   6.1688040   6.1685649   6.1699549   6.1707164
   6.1707385   6.1517900   6.1526639   6.1714753   5.9184085   5.9242019
   8.4932895   8.4965523   8.4935468   8.4967807   8.5061897   8.4896821
   8.4967821   8.4933317   8.4896685   8.5066662   8.4970822   8.4936132
 TTTTTTTTTTTTTTTTTTTTTTTTTTTTTT MOQGAD      TELAPSE      180.04 TCPU     4689.90
 TTTTTTTTTTTTTTTTTTTTTTTTTTTTTT SHELLXN     TELAPSE      200.20 TCPU     5333.17
 TTTTTTTTTTTTTTTTTTTTTTTTTTTTTT MONMO3      TELAPSE      200.82 TCPU     5353.10
 NUMERICALLY INTEGRATED DENSITY    396.0000189661
 TTTTTTTTTTTTTTTTTTTTTTTTTTTTTT NUMDFT      TELAPSE      202.34 TCPU     5401.74
 CYC   6 ETOT(AU) -2.578228056974E+03 DETOT -1.42E-04 tst  6.05E-06 PX  4.37E-03
 TTTTTTTTTTTTTTTTTTTTTTTTTTTTTT DIIS        TELAPSE      202.59 TCPU     5408.59
 DIIS TEST: 0.29755E-03 AT SCF   CYCLE   6 - DIIS ACTIVE - HISTORY:     6 CYCLES
 TTTTTTTTTTTTTTTTTTTTTTTTTTTTTT FDIK        TELAPSE      204.44 TCPU     5467.49
 INSULATING STATE
 TOP OF VALENCE BANDS -    BAND    198; K    2; EIG -2.4056833E-01 AU
 TOP OF VALENCE BANDS -    BAND    198; K    1; EIG -2.4058210E-01 AU
 BOTTOM OF VIRTUAL BANDS - BAND    199; K    1; EIG -8.3032137E-02 AU
 INDIRECT ENERGY BAND GAP:   4.2868 eV
 TTTTTTTTTTTTTTTTTTTTTTTTTTTTTT PDIG        TELAPSE      206.01 TCPU     5474.42
 CHARGE NORMALIZATION FACTOR   1.00000000
 TOTAL ATOMIC CHARGES:
   4.4912778   4.4951112   4.4963280   4.4974843   4.4964305   4.4975573
   4.4972119   4.4960741   4.4970481   4.4959127   4.4948516   4.4908565
   0.8791697   0.8747736   0.8748270   0.8793648   0.8784098   0.8803815
   0.8805279   0.8785019   0.8780637   0.8740493   0.8743417   0.8781970
   0.8780806   0.8740660   0.8742666   0.8781190   0.8784082   0.8803862
   0.8805796   0.8785526   0.8791598   0.8747566   0.8748083   0.8793361
   5.9230114   5.9199886   6.1703744   6.1521842   6.1517639   6.1700307
   6.1699011   6.1705174   6.1698282   6.1688948   5.9190196   5.9220478
   5.9122881   5.9448301   6.1634541   6.1684473   6.1680117   6.1632217
   6.1635360   6.1684968   6.1679660   6.1631652   5.9437166   5.9114788
   5.9231839   5.9201991   6.1698515   6.1704361   6.1698962   6.1689500
   6.1703540   6.1521310   6.1517072   6.1699813   5.9189103   5.9220146
   8.4921571   8.4950965   8.4923824   8.4952962   8.5052060   8.4892432
   8.4950953   8.4923034   8.4892157   8.5050233   8.4953658   8.4925537
 TTTTTTTTTTTTTTTTTTTTTTTTTTTTTT MOQGAD      TELAPSE      206.11 TCPU     5474.52
 TTTTTTTTTTTTTTTTTTTTTTTTTTTTTT SHELLXN     TELAPSE      226.38 TCPU     6121.45
 TTTTTTTTTTTTTTTTTTTTTTTTTTTTTT MONMO3      TELAPSE      226.99 TCPU     6140.81
 NUMERICALLY INTEGRATED DENSITY    396.0000189929
 TTTTTTTTTTTTTTTTTTTTTTTTTTTTTT NUMDFT      TELAPSE      228.49 TCPU     6188.82
 CYC   7 ETOT(AU) -2.578228127923E+03 DETOT -7.09E-05 tst  9.92E-07 PX  1.67E-03
 TTTTTTTTTTTTTTTTTTTTTTTTTTTTTT DIIS        TELAPSE      228.76 TCPU     6195.67
 DIIS TEST: 0.19403E-04 AT SCF   CYCLE   7 - DIIS ACTIVE - HISTORY:     7 CYCLES
 TTTTTTTTTTTTTTTTTTTTTTTTTTTTTT FDIK        TELAPSE      230.60 TCPU     6254.22
 INSULATING STATE
 TOP OF VALENCE BANDS -    BAND    198; K    2; EIG -2.4058989E-01 AU
 TOP OF VALENCE BANDS -    BAND    198; K    1; EIG -2.4060360E-01 AU
 BOTTOM OF VIRTUAL BANDS - BAND    199; K    1; EIG -8.3060934E-02 AU
 INDIRECT ENERGY BAND GAP:   4.2866 eV
 TTTTTTTTTTTTTTTTTTTTTTTTTTTTTT PDIG        TELAPSE      232.16 TCPU     6261.14
 CHARGE NORMALIZATION FACTOR   1.00000000
 TOTAL ATOMIC CHARGES:
   4.4910038   4.4951749   4.4963846   4.4973915   4.4964865   4.4974642
   4.4973849   4.4963451   4.4972215   4.4961840   4.4951288   4.4908234
   0.8792095   0.8746431   0.8747378   0.8793153   0.8783830   0.8803654
   0.8804494   0.8784072   0.8779451   0.8740906   0.8742510   0.8781226
   0.8779649   0.8741102   0.8741730   0.8780419   0.8783822   0.8803688
   0.8805025   0.8784573   0.8792010   0.8746260   0.8747197   0.8792853
   5.9217591   5.9192070   6.1698084   6.1521807   6.1523126   6.1699267
   6.1693769   6.1698990   6.1701970   6.1697907   5.9204913   5.9230035
   5.9116408   5.9435604   6.1633717   6.1679524   6.1682899   6.1636812
   6.1634181   6.1679701   6.1682758   6.1636584   5.9444409   5.9126856
   5.9219130   5.9194022   6.1693299   6.1698221   6.1702612   6.1698430
   6.1697689   6.1521096   6.1522721   6.1698961   5.9203979   5.9229893
   8.4922257   8.4950246   8.4924630   8.4952347   8.5048271   8.4890959
   8.4951239   8.4923079   8.4890907   8.5049843   8.4954033   8.4925694
 TTTTTTTTTTTTTTTTTTTTTTTTTTTTTT MOQGAD      TELAPSE      232.26 TCPU     6261.24
 TTTTTTTTTTTTTTTTTTTTTTTTTTTTTT SHELLXN     TELAPSE      252.44 TCPU     6905.12
 TTTTTTTTTTTTTTTTTTTTTTTTTTTTTT MONMO3      TELAPSE      253.09 TCPU     6925.64
 NUMERICALLY INTEGRATED DENSITY    396.0000189950
 TTTTTTTTTTTTTTTTTTTTTTTTTTTTTT NUMDFT      TELAPSE      254.61 TCPU     6974.30
 CYC   8 ETOT(AU) -2.578228132457E+03 DETOT -4.53E-06 tst  7.46E-08 PX  3.60E-04
 TTTTTTTTTTTTTTTTTTTTTTTTTTTTTT DIIS        TELAPSE      254.90 TCPU     6981.16
 DIIS TEST: 0.23422E-05 AT SCF   CYCLE   8 - DIIS ACTIVE - HISTORY:     8 CYCLES
 TTTTTTTTTTTTTTTTTTTTTTTTTTTTTT FDIK        TELAPSE      256.77 TCPU     7040.75
 INSULATING STATE
 TOP OF VALENCE BANDS -    BAND    198; K    2; EIG -2.4058875E-01 AU
 TOP OF VALENCE BANDS -    BAND    198; K    1; EIG -2.4060241E-01 AU
 BOTTOM OF VIRTUAL BANDS - BAND    199; K    1; EIG -8.3083259E-02 AU
 INDIRECT ENERGY BAND GAP:   4.2859 eV
 TTTTTTTTTTTTTTTTTTTTTTTTTTTTTT PDIG        TELAPSE      258.34 TCPU     7047.68
 CHARGE NORMALIZATION FACTOR   1.00000000
 TOTAL ATOMIC CHARGES:
   4.4909647   4.4953294   4.4965156   4.4974503   4.4966172   4.4975228
   4.4973737   4.4964223   4.4972106   4.4962616   4.4952285   4.4907228
   0.8791604   0.8746255   0.8747090   0.8792884   0.8783581   0.8803264
   0.8804298   0.8784023   0.8779366   0.8740453   0.8742409   0.8781034
   0.8779560   0.8740644   0.8741633   0.8780231   0.8783574   0.8803301
   0.8804826   0.8784523   0.8791516   0.8746082   0.8746909   0.8792586
   5.9220254   5.9194354   6.1698889   6.1522751   6.1522704   6.1698927
   6.1696092   6.1699928   6.1700076   6.1696223   5.9200980   5.9226653
   5.9116834   5.9438396   6.1633748   6.1681469   6.1682803   6.1635368
   6.1634243   6.1681685   6.1682633   6.1635108   5.9441925   5.9122405
   5.9221802   5.9196309   6.1695610   6.1699148   6.1700728   6.1696758
   6.1698513   6.1522059   6.1522284   6.1698606   5.9200041   5.9226502
   8.4922895   8.4951073   8.4925254   8.4953163   8.5048816   8.4891013
   8.4951841   8.4923926   8.4890825   8.5049396   8.4954625   8.4926529
 TTTTTTTTTTTTTTTTTTTTTTTTTTTTTT MOQGAD      TELAPSE      258.44 TCPU     7047.78
 TTTTTTTTTTTTTTTTTTTTTTTTTTTTTT SHELLXN     TELAPSE      278.64 TCPU     7692.36
 TTTTTTTTTTTTTTTTTTTTTTTTTTTTTT MONMO3      TELAPSE      279.26 TCPU     7712.14
 NUMERICALLY INTEGRATED DENSITY    396.0000189926
 TTTTTTTTTTTTTTTTTTTTTTTTTTTTTT NUMDFT      TELAPSE      280.78 TCPU     7760.60
 CYC   9 ETOT(AU) -2.578228132697E+03 DETOT -2.39E-07 tst  5.49E-09 PX  1.18E-04
 TTTTTTTTTTTTTTTTTTTTTTTTTTTTTT DIIS        TELAPSE      281.09 TCPU     7767.52
 DIIS TEST: 0.90110E-07 AT SCF   CYCLE   9 - DIIS ACTIVE - HISTORY:     9 CYCLES
 TTTTTTTTTTTTTTTTTTTTTTTTTTTTTT FDIK        TELAPSE      282.96 TCPU     7827.05
 INSULATING STATE
 TOP OF VALENCE BANDS -    BAND    198; K    2; EIG -2.4059317E-01 AU
 TOP OF VALENCE BANDS -    BAND    198; K    1; EIG -2.4060686E-01 AU
 BOTTOM OF VIRTUAL BANDS - BAND    199; K    1; EIG -8.3079866E-02 AU
 INDIRECT ENERGY BAND GAP:   4.2862 eV
 TTTTTTTTTTTTTTTTTTTTTTTTTTTTTT PDIG        TELAPSE      284.53 TCPU     7833.99
 CHARGE NORMALIZATION FACTOR   1.00000000
 TOTAL ATOMIC CHARGES:
   4.4910029   4.4952918   4.4964663   4.4974398   4.4965681   4.4975125
   4.4973697   4.4963760   4.4972064   4.4962152   4.4951957   4.4907650
   0.8791491   0.8746405   0.8747254   0.8792770   0.8783707   0.8803212
   0.8804209   0.8784120   0.8779332   0.8740444   0.8742373   0.8780999
   0.8779520   0.8740630   0.8741602   0.8780201   0.8783698   0.8803250
   0.8804735   0.8784622   0.8791401   0.8746233   0.8747073   0.8792475
   5.9220054   5.9193494   6.1699860   6.1522125   6.1522083   6.1699908
   6.1695256   6.1700483   6.1701046   6.1695911   5.9200771   5.9227040
   5.9117430   5.9437973   6.1633843   6.1681328   6.1682816   6.1635614
   6.1634402   6.1681597   6.1682588   6.1635293   5.9441834   5.9123287
   5.9221642   5.9195484   6.1694776   6.1699700   6.1701700   6.1696446
   6.1699517   6.1521463   6.1521633   6.1699552   5.9199797   5.9226849
   8.4922680   8.4950874   8.4925018   8.4952946   8.5049255   8.4891496
   8.4951617   8.4923657   8.4891394   8.5049992   8.4954385   8.4926240
 TTTTTTTTTTTTTTTTTTTTTTTTTTTTTT MOQGAD      TELAPSE      284.63 TCPU     7834.09
 TTTTTTTTTTTTTTTTTTTTTTTTTTTTTT SHELLXN     TELAPSE      304.85 TCPU     8479.07
 +++ ENERGIES IN A.U. +++
 ::: EXT EL-POLE                                  -2.6164162317443E+03
 ::: EXT EL-SPHEROPOLE                             3.0152126517907E+01
 ::: BIELET ZONE E-E                               4.4137615773823E+03
 ::: TOTAL E-E                                     1.8274974721559E+03
 ::: TOTAL E-N + N-E                              -7.3106278875228E+03
 ::: TOTAL N-N                                     6.1249954528030E+02
 ::: KINETIC ENERGY                                2.5598262789784E+03
 ::: PSEUDO TOTAL   ENERGY                        -2.3108045911083E+03
 ::: VIRIAL COEFFICIENT                            1.0511271936864E+00
 TTTTTTTTTTTTTTTTTTTTTTTTTTTTTT MONMO3      TELAPSE      305.47 TCPU     8499.09
 NUMERICALLY INTEGRATED DENSITY    396.0000189922
 EXCHANGE ENERGY: -0.252038800895E+03  CORRELATION ENERGY: -0.153847407257E+02
 TTTTTTTTTTTTTTTTTTTTTTTTTTTTTT NUMDFT      TELAPSE      307.01 TCPU     8548.06
 CYC  10 ETOT(AU) -2.578228132729E+03 DETOT -3.19E-08 tst  2.41E-10 PX  1.18E-04

 == SCF ENDED - CONVERGENCE ON ENERGY      E(AU) -2.5782281327287E+03 CYCLES  10


 ENERGY EXPRESSION=HARTREE+FOCK EXCH*0.00000+(HSESOL     EXCH)*1.00000+PBESOL     CORR


 TOTAL ENERGY(DFT)(AU)( 10) -2.5782281327287E+03 DE-3.2E-08 tester 2.4E-10
 TTTTTTTTTTTTTTTTTTTTTTTTTTTTTT EDFT        TELAPSE      307.01 TCPU     8548.07
 
 INFORMATION **** DFTD3 ENERGY **** CALCULATE DFTD3 ENERGY

           DFT-D V3(BJ)
 DF                                         hsesol3c  
 parameters
 s6       :    1.0000
 s8       :    0.0000
 a1       :    0.5196
 a2       :    4.9385
 k1 k3    :   16.0000   -4.0000
 Cutoff   :   50.2022
 CN-Cutoff:   21.1671
 ABC-Cutoff:   21.1671
 
 Edisp /kcal,au:   -54.3054 -0.08654121

 E6    /kcal :   -58.0628
 E8    /kcal :     0.0000
 E6(ABC) "   :   3.757371
 
 INFORMATION **** DFTD3 ENERGY **** NORMAL TERMINATION OF DFTD3 MODULE

 GCP ENERGY CALCULATION
  level        hsesol3c            basis:hsesol3c
  Nbf            948
  Atoms           84

  Parameters: 
  sigma     1.0000
  eta       1.4281
  alpha     0.2936
  beta      1.9467

  dmp_scal      4.0000
  dmp_exp       6.0000
 cutoffs: 
   distance [bohr] 60.0
   noise    [a.u.] 2.2E-16
 SR-damping   T
 ** gCP correction **
  Egcp:        0.1661222916 / (a.u.) ||     104.2433 / (kcal/mol)
 INFORMATION **** GCP **** NORMAL TERMINATION OF GCP MODULE

 *******************************************************************************

 DFT-D3-GCP DISPERSION AND COUNTERPOISE CORRECTION

 D3 DISPERSION ENERGY (AU)      -8.6541210336515E-02
 GCP ENERGY (AU)                 1.6612229157841E-01
 TOTAL ENERGY + DISP + GCP (AU) -2.5781485516474E+03

 *******************************************************************************

 EIGENVECTORS IN FORTRAN UNIT  8
 TTTTTTTTTTTTTTTTTTTTTTTTTTTTTT END         TELAPSE      310.02 TCPU     8556.98
 EEEEEEEEEE TERMINATION  DATE 19 02 2026 TIME 20:22:45.6
