 Default number of threads is:           32

         
 *******************************************************************************
 *                                                                             *
 *                               CRYSTAL23                                     *
 *                      public : 1.0.1 - October 2022                          *
 *                       HTTP://WWW.CRYSTAL.UNITO.IT                           *
 *                                                                             *
 *                              MAIN AUTHORS                                   *
 *                                                                             *
 *  R. DOVESI(1,11), V.R. SAUNDERS(2), C. ROETTI(1,11), R. ORLANDO(1,11),      *
 *  C.M. ZICOVICH-WILSON(1,3), F. PASCALE(4), B. CIVALLERI(1,11),              *
 *  K. DOLL(5), N.M. HARRISON(6), I.J. BUSH(7), Ph. D'ARCO(8),                 *
 *  M. LLUNELL(9), M. CAUSA'(10), Y. NOEL(8), L. MASCHIO(1,11), A. ERBA(1,11)  *
 *  M. RE'RAT(14), S. CASASSA(1,11), B.G. SEARLE(2), J.K. DESMARAIS(1)         *
 *                                                                             *
 *        CONTRIBUTIONS TO THE CODE HAVE ALSO BEEN GIVEN BY                    *
 *                                                                             *
 *  M. FERRABONE(1,11), M. DE LA PIERRE(1,11), M. FERRERO(1,11),               *
 *  J. BAIMA(1,11), E. ALBANESE(1,11), M.F. PEINTINGER(12), R. BAST(13),       *
 *  B. KIRTMAN(15), V. LACIVITA(1,11), R. DEMICHELIS(1,16)                     *
 *  G. BRANDEBURG(17), S. SALUSTRO(1,11), G. SANSONE(1,11)                     *
 *  M.T. RUGGIERO(18), L.E. DAGA(1), L. DONA'(1), A. COSSARD(1)                *
 *                                                                             *
 * (1) THEORETICAL CHEMISTRY GROUP - UNIVERSITA' DI TORINO - TORINO (ITALY)    *
 * (2) SCIENTIFIC COMPUTING DEPARTMENT - STFC DARESBURY (UK)                   *
 * (3) UNIVERSIDAD AUTONOMA DEL ESTADO DE MORELOS - CUERNAVACA (MEXICO)        *
 * (4) UNIVERSITE' DE LORRAINE - NANCY (FRANCE)                                *
 * (5) UNIVERSITAET STUTTGART- STUTTGART (GERMANY)                             *
 * (6) IMPERIAL COLLEGE - LONDON (UK)                                          *
 * (7) SCIENTIFIC COMPUTING DEPARTMENT - STFC RAL (UK)                         *
 * (8) UPMC - SORBONNE UNIVERSITES - PARIS (FRANCE)                            *
 * (9) UNIVERSIDAD DE BARCELONA - BARCELONA (SPAIN)                            *
 *(10) UNIVERSITA' DI NAPOLI "FEDERICO II" - NAPOLI (ITALY)                    *
 *(11) NIS - NANOSTRUCTURED INTERFACES AND SURFACES - TORINO (ITALY)           *
 *(12) MPI FUER CHEMISCHE ENERGIEKONVERSION - MUELHEIM AN DER RUHR (GERMANY)   *
 *(13) UNIVERSITY OF TROMSO - TROMSO (NORWAY)                                  *
 *(14) UNIVERSITE' DE PAU ET DES PAYS DE L'ADOUR - PAU (FRANCE)                *
 *(15) UNIVERSITY OF CALIFORNIA SANTA BARBARA - SANTA BARBARA (USA)            *
 *(16) CURTIN UNIVERSITY - PERTH (AUSTRALIA)                                   *
 *(17) UNIVERSITY COLLEGE LONDON - LONDON (UK)                                 *
 *(18) UNIVERSITY OF VERMONT - BURLINGTON (USA)                                *
 *                                                                             *
 *******************************************************************************
 EEEEEEEEEE STARTING  DATE 02 12 2025 TIME 07:56:47.1
 COF-5_z32_inc_L040                                                              

 CRYSTAL CALCULATION
 (INPUT ACCORDING TO THE INTERNATIONAL TABLES FOR X-RAY CRYSTALLOGRAPHY)
 CRYSTAL FAMILY                       :  TRICLINIC   
 CRYSTAL CLASS  (GROTH - 1921)        :  TRICLINIC PEDIAL                     

 SPACE GROUP (NONCENTROSYMMETRIC)     :  P 1             

 LATTICE PARAMETERS  (ANGSTROMS AND DEGREES) - CONVENTIONAL CELL
        A           B           C        ALPHA        BETA       GAMMA
    15.02070    15.04439     5.12250    47.47949    89.99955   120.05310


 NUMBER OF IRREDUCIBLE ATOMS IN THE CONVENTIONAL CELL:   42

 INPUT COORDINATES

 ATOM AT. N.              COORDINATES
   1   5     5.384803300000E-01  7.429257000000E-02  5.006329300000E-01
   2   5     6.972581900000E-01  2.333162200000E-01  5.006429200000E-01
   3   5     5.382468000000E-01  2.334428500000E-01  4.992130000000E-01
   4   5     1.509150800000E-01  4.591036500000E-01  5.054277300000E-01
   5   5     3.088666300000E-01  4.573607000000E-01  5.094714600000E-01
   6   5     3.100583100000E-01  6.185316300000E-01  5.035060600000E-01
   7   1     8.266847000000E-01  1.545686600000E-01  5.045311700000E-01
   8   1     2.291835000000E-02  5.400201600000E-01  4.929413100000E-01
   9   1     8.285573800000E-01  4.427631600000E-01  4.928030200000E-01
  10   1     2.119055000000E-02  2.519149300000E-01  5.040997600000E-01
  11   1     5.167112000000E-01  7.483442000000E-01  5.042218200000E-01
  12   1     3.320581500000E-01 -5.328518000000E-02  4.945734700000E-01
  13   1     2.335165100000E-01  7.526015700000E-01  4.958802600000E-01
  14   1     6.150995500000E-01 -5.739405000000E-02  5.023605700000E-01
  15   1     5.173015800000E-01  5.376595400000E-01  4.977776600000E-01
  16   1     3.287151300000E-01  1.535021100000E-01  5.060604500000E-01
  17   1     2.314073000000E-01  2.495356500000E-01  5.056955900000E-01
  18   1     6.149491800000E-01  4.415135800000E-01  4.987110700000E-01
  19   6     8.165892200000E-01  2.928221000000E-01  5.003929300000E-01
  20   6     8.708413300000E-01  2.391031400000E-01  5.021589500000E-01
  21   6    -2.115664000000E-02  4.554031200000E-01  4.957663200000E-01
  22   6     8.718129400000E-01  4.017746500000E-01  4.961034600000E-01
  23   6    -2.202886000000E-02  2.928658200000E-01  5.015152700000E-01
  24   6     3.280882000000E-02  4.012085400000E-01  4.993320900000E-01
  25   6     3.692727900000E-01  7.384089300000E-01  5.018743300000E-01
  26   6     4.770859300000E-01  7.927711200000E-01  5.022645000000E-01
  27   6     3.714393900000E-01 -9.806309000000E-02  4.969883500000E-01
  28   6     3.171487200000E-01  7.946380700000E-01  4.981069700000E-01
  29   6     5.313907000000E-01 -9.992083000000E-02  5.008271500000E-01
  30   6     4.789614700000E-01 -4.442868000000E-02  4.992029600000E-01
  31   6     3.691662000000E-01  3.999391300000E-01  4.999741500000E-01
  32   6     4.771003600000E-01  4.533635200000E-01  4.994226900000E-01
  33   6     3.695658500000E-01  2.379446200000E-01  5.039460300000E-01
  34   6     3.157580500000E-01  2.911769500000E-01  5.033381200000E-01
  35   6     5.307694300000E-01  4.000107600000E-01  5.003610100000E-01
  36   6     4.778234900000E-01  2.919060000000E-01  5.016028000000E-01
  37   8     4.855223100000E-01  1.274244300000E-01  4.996028500000E-01
  38   8     6.442210800000E-01  1.268032000000E-01  5.025927700000E-01
  39   8     6.445258700000E-01  2.869352800000E-01  4.980732500000E-01
  40   8     2.041679200000E-01  5.657911000000E-01  5.027394400000E-01
  41   8     2.027744900000E-01  4.044295100000E-01  5.102268700000E-01
  42   8     3.625955900000E-01  5.647422300000E-01  5.052110700000E-01

 *******************************************************************************

 << INFORMATION >>: FROM NOW ON, ALL COORDINATES REFER TO THE PRIMITIVE CELL

 *******************************************************************************

 LATTICE PARAMETERS  (ANGSTROMS AND DEGREES) - PRIMITIVE CELL
       A          B          C        ALPHA      BETA     GAMMA        VOLUME
   15.02070   15.04439    5.12250    47.47949  89.99955 120.05310    625.957559

 COORDINATES OF THE EQUIVALENT ATOMS (FRACTIONAL UNITS)

 N. ATOM EQUIV AT. N.          X                  Y                  Z

   1   1   1    5 B    -4.61519670000E-01  7.42925700000E-02 -4.99367070000E-01

   2   2   1    5 B    -3.02741810000E-01  2.33316220000E-01 -4.99357080000E-01

   3   3   1    5 B    -4.61753200000E-01  2.33442850000E-01  4.99213000000E-01

   4   4   1    5 B     1.50915080000E-01  4.59103650000E-01 -4.94572270000E-01

   5   5   1    5 B     3.08866630000E-01  4.57360700000E-01 -4.90528540000E-01

   6   6   1    5 B     3.10058310000E-01 -3.81468370000E-01 -4.96493940000E-01

   7   7   1    1 H    -1.73315300000E-01  1.54568660000E-01 -4.95468830000E-01

   8   8   1    1 H     2.29183500000E-02 -4.59979840000E-01  4.92941310000E-01

   9   9   1    1 H    -1.71442620000E-01  4.42763160000E-01  4.92803020000E-01

  10  10   1    1 H     2.11905500000E-02  2.51914930000E-01 -4.95900240000E-01

  11  11   1    1 H    -4.83288800000E-01 -2.51655800000E-01 -4.95778180000E-01

  12  12   1    1 H     3.32058150000E-01 -5.32851800000E-02  4.94573470000E-01

  13  13   1    1 H     2.33516510000E-01 -2.47398430000E-01  4.95880260000E-01

  14  14   1    1 H    -3.84900450000E-01 -5.73940500000E-02 -4.97639430000E-01

  15  15   1    1 H    -4.82698420000E-01 -4.62340460000E-01  4.97777660000E-01

  16  16   1    1 H     3.28715130000E-01  1.53502110000E-01 -4.93939550000E-01

  17  17   1    1 H     2.31407300000E-01  2.49535650000E-01 -4.94304410000E-01

  18  18   1    1 H    -3.85050820000E-01  4.41513580000E-01  4.98711070000E-01

  19  19   1    6 C    -1.83410780000E-01  2.92822100000E-01 -4.99607070000E-01

  20  20   1    6 C    -1.29158670000E-01  2.39103140000E-01 -4.97841050000E-01

  21  21   1    6 C    -2.11566400000E-02  4.55403120000E-01  4.95766320000E-01

  22  22   1    6 C    -1.28187060000E-01  4.01774650000E-01  4.96103460000E-01

  23  23   1    6 C    -2.20288600000E-02  2.92865820000E-01 -4.98484730000E-01

  24  24   1    6 C     3.28088200000E-02  4.01208540000E-01  4.99332090000E-01

  25  25   1    6 C     3.69272790000E-01 -2.61591070000E-01 -4.98125670000E-01

  26  26   1    6 C     4.77085930000E-01 -2.07228880000E-01 -4.97735500000E-01

  27  27   1    6 C     3.71439390000E-01 -9.80630900000E-02  4.96988350000E-01

  28  28   1    6 C     3.17148720000E-01 -2.05361930000E-01  4.98106970000E-01

  29  29   1    6 C    -4.68609300000E-01 -9.99208300000E-02 -4.99172850000E-01

  30  30   1    6 C     4.78961470000E-01 -4.44286800000E-02  4.99202960000E-01

  31  31   1    6 C     3.69166200000E-01  3.99939130000E-01  4.99974150000E-01

  32  32   1    6 C     4.77100360000E-01  4.53363520000E-01  4.99422690000E-01

  33  33   1    6 C     3.69565850000E-01  2.37944620000E-01 -4.96053970000E-01

  34  34   1    6 C     3.15758050000E-01  2.91176950000E-01 -4.96661880000E-01

  35  35   1    6 C    -4.69230570000E-01  4.00010760000E-01 -4.99638990000E-01

  36  36   1    6 C     4.77823490000E-01  2.91906000000E-01 -4.98397200000E-01

  37  37   1    8 O     4.85522310000E-01  1.27424430000E-01  4.99602850000E-01

  38  38   1    8 O    -3.55778920000E-01  1.26803200000E-01 -4.97407230000E-01

  39  39   1    8 O    -3.55474130000E-01  2.86935280000E-01  4.98073250000E-01

  40  40   1    8 O     2.04167920000E-01 -4.34208900000E-01 -4.97260560000E-01

  41  41   1    8 O     2.02774490000E-01  4.04429510000E-01 -4.89773130000E-01

  42  42   1    8 O     3.62595590000E-01 -4.35257770000E-01 -4.94788930000E-01

 NUMBER OF SYMMETRY OPERATORS         :    1
 *******************************************************************************
 * GEOMETRY EDITING - INPUT COORDINATES ARE GIVEN IN ANGSTROM         
 *******************************************************************************

 GCALCO - MAX INDICES DIRECT LATTICE VECTOR     8    12    30
 NO.OF VECTORS CREATED 6999 STARS 3500 RMAX   192.59824 BOHR

 GEOMETRY FOR WAVE FUNCTION - DIMENSIONALITY OF THE SYSTEM    3
 (NON PERIODIC DIRECTION: LATTICE PARAMETER FORMALLY SET TO 500)
 *******************************************************************************
 LATTICE PARAMETERS (ANGSTROMS AND DEGREES) - BOHR = 0.5291772083 ANGSTROM
 PRIMITIVE CELL - CENTRING CODE 1/0 VOLUME=   625.957559 - DENSITY  1.035 g/cm^3
         A              B              C           ALPHA      BETA       GAMMA 
    15.02070100    15.04438700     5.12249900    47.479494  89.999554 120.053104
 *******************************************************************************
 ATOMS IN THE ASYMMETRIC UNIT   42 - ATOMS IN THE UNIT CELL:   42
     ATOM                 X/A                 Y/B                 Z/C    
 *******************************************************************************
      1 T   5 B    -4.615196700000E-01  7.429257000000E-02 -4.993670700000E-01
      2 T   5 B    -3.027418100000E-01  2.333162200000E-01 -4.993570800000E-01
      3 T   5 B    -4.617532000000E-01  2.334428500000E-01  4.992130000000E-01
      4 T   5 B     1.509150800000E-01  4.591036500000E-01 -4.945722700000E-01
      5 T   5 B     3.088666300000E-01  4.573607000000E-01 -4.905285400000E-01
      6 T   5 B     3.100583100000E-01 -3.814683700000E-01 -4.964939400000E-01
      7 T   1 H    -1.733153000000E-01  1.545686600000E-01 -4.954688300000E-01
      8 T   1 H     2.291835000000E-02 -4.599798400000E-01  4.929413100000E-01
      9 T   1 H    -1.714426200000E-01  4.427631600000E-01  4.928030200000E-01
     10 T   1 H     2.119055000000E-02  2.519149300000E-01 -4.959002400000E-01
     11 T   1 H    -4.832888000000E-01 -2.516558000000E-01 -4.957781800000E-01
     12 T   1 H     3.320581500000E-01 -5.328518000000E-02  4.945734700000E-01
     13 T   1 H     2.335165100000E-01 -2.473984300000E-01  4.958802600000E-01
     14 T   1 H    -3.849004500000E-01 -5.739405000000E-02 -4.976394300000E-01
     15 T   1 H    -4.826984200000E-01 -4.623404600000E-01  4.977776600000E-01
     16 T   1 H     3.287151300000E-01  1.535021100000E-01 -4.939395500000E-01
     17 T   1 H     2.314073000000E-01  2.495356500000E-01 -4.943044100000E-01
     18 T   1 H    -3.850508200000E-01  4.415135800000E-01  4.987110700000E-01
     19 T   6 C    -1.834107800000E-01  2.928221000000E-01 -4.996070700000E-01
     20 T   6 C    -1.291586700000E-01  2.391031400000E-01 -4.978410500000E-01
     21 T   6 C    -2.115664000000E-02  4.554031200000E-01  4.957663200000E-01
     22 T   6 C    -1.281870600000E-01  4.017746500000E-01  4.961034600000E-01
     23 T   6 C    -2.202886000000E-02  2.928658200000E-01 -4.984847300000E-01
     24 T   6 C     3.280882000000E-02  4.012085400000E-01  4.993320900000E-01
     25 T   6 C     3.692727900000E-01 -2.615910700000E-01 -4.981256700000E-01
     26 T   6 C     4.770859300000E-01 -2.072288800000E-01 -4.977355000000E-01
     27 T   6 C     3.714393900000E-01 -9.806309000000E-02  4.969883500000E-01
     28 T   6 C     3.171487200000E-01 -2.053619300000E-01  4.981069700000E-01
     29 T   6 C    -4.686093000000E-01 -9.992083000000E-02 -4.991728500000E-01
     30 T   6 C     4.789614700000E-01 -4.442868000000E-02  4.992029600000E-01
     31 T   6 C     3.691662000000E-01  3.999391300000E-01  4.999741500000E-01
     32 T   6 C     4.771003600000E-01  4.533635200000E-01  4.994226900000E-01
     33 T   6 C     3.695658500000E-01  2.379446200000E-01 -4.960539700000E-01
     34 T   6 C     3.157580500000E-01  2.911769500000E-01 -4.966618800000E-01
     35 T   6 C    -4.692305700000E-01  4.000107600000E-01 -4.996389900000E-01
     36 T   6 C     4.778234900000E-01  2.919060000000E-01 -4.983972000000E-01
     37 T   8 O     4.855223100000E-01  1.274244300000E-01  4.996028500000E-01
     38 T   8 O    -3.557789200000E-01  1.268032000000E-01 -4.974072300000E-01
     39 T   8 O    -3.554741300000E-01  2.869352800000E-01  4.980732500000E-01
     40 T   8 O     2.041679200000E-01 -4.342089000000E-01 -4.972605600000E-01
     41 T   8 O     2.027744900000E-01  4.044295100000E-01 -4.897731300000E-01
     42 T   8 O     3.625955900000E-01 -4.352577700000E-01 -4.947889300000E-01

 T = ATOM BELONGING TO THE ASYMMETRIC UNIT

 ****    1 SYMMOPS - TRANSLATORS IN FRACTIONAL UNITS
 **** MATRICES AND TRANSLATORS IN THE CRYSTALLOGRAPHIC REFERENCE FRAME
   V INV                    ROTATION MATRICES                   TRANSLATORS
   1   1  1.00  0.00  0.00  0.00  1.00  0.00 -0.00 -0.00  1.00  0.00  0.00  0.00

 DIRECT LATTICE VECTORS CARTESIAN COMPONENTS (ANGSTROM)
          X                    Y                    Z
   0.130013421718E+02  -0.752240388864E+01   0.000000000000E+00
   0.000000000000E+00   0.150443870000E+02   0.000000000000E+00
   0.200314893140E+01   0.346206161253E+01   0.320023745285E+01


 CARTESIAN COORDINATES - PRIMITIVE CELL
 *******************************************************************************
 *      ATOM          X(ANGSTROM)         Y(ANGSTROM)         Z(ANGSTROM)
 *******************************************************************************
    1     5 B    -7.000681761323E+00  2.860583970987E+00 -1.598093200135E+00
    2     5 B    -4.936336462703E+00  4.058640698241E+00 -1.598061229763E+00
    3     5 B    -3.000264433214E+00 -2.868520578633E+00  4.797837592402E+00
    4     5 B     9.713966798079E-01  4.059449128475E+00 -1.582748701596E+00
    5     5 B     3.033079021348E+00  2.859051802621E+00 -1.569807805401E+00
    6     5 B     1.033473944748E+00  1.792091153548E+00 -4.789135954754E+00
    7     1 H    -3.245829376262E+00  1.913794809243E+00 -1.585617906487E+00
    8     1 H     1.285404168734E+00 -5.385922623736E+00  1.577529242320E+00
    9     1 H     7.613226088647E-01 -1.925450009634E+00  4.777324134334E+00
   10     1 H    -7.178564444810E-01  1.913664637725E+00 -1.586998520926E+00
   11     1 H    -5.273371656662E+00  1.595133309686E+00  1.613629552909E+00
   12     1 H     5.307905947008E+00 -1.587274563035E+00  1.582752541881E+00
   13     1 H     4.029350062192E+00 -3.761795214439E+00  1.586934580182E+00
   14     1 H    -3.997919413545E+00  3.771121587170E+00  1.607673110950E+00
   15     1 H    -5.278604536489E+00 -1.601239406086E+00  1.593006710725E+00
   16     1 H     3.284303400408E+00 -1.873431978978E+00 -1.580723847355E+00
   17     1 H     2.018440137666E+00  3.020593927492E-01 -1.581891485992E+00
   18     1 H    -2.004035985988E+00 -3.169479873053E-01  4.796231297217E+00
   19     6 C    -3.385373677164E+00  4.055348500846E+00 -1.598861257124E+00
   20     6 C    -2.676485830438E+00  2.845187464187E+00 -1.593209573777E+00
   21     6 C    -1.285119873115E+00  5.264721502019E+00 -1.613667507725E+00
   22     6 C     1.330314218116E+00 -2.856056482748E+00  4.787886326033E+00
   23     6 C    -1.284943900735E+00  2.845911869111E+00 -1.595269502621E+00
   24     6 C    -5.763536938328E-01  4.055792196477E+00 -1.602256197023E+00
   25     6 C     1.800073062546E+00  3.144487262852E+00 -4.794357878213E+00
   26     6 C    -5.792474154048E+00  2.554810010086E+00  1.607365664138E+00
   27     6 C     5.824752287688E+00 -2.548811899695E+00  1.590480731301E+00
   28     6 C     5.121141472741E+00 -3.750788094820E+00  1.594060580920E+00
   29     6 C    -5.089318483835E+00  3.755715235222E+00  1.602765802835E+00
   30     6 C    -5.774222337330E+00  4.979331413064E+00  1.597568009166E+00
   31     6 C     3.798029837351E+00  1.508701489169E+00 -1.600201452564E+00
   32     6 C     5.200214127025E+00  1.498605154169E+00 -1.601966255510E+00
   33     6 C     3.811182090928E+00 -9.176620465834E-01 -1.587490493430E+00
   34     6 C     3.110390737351E+00  2.858451089328E-01 -1.589435949780E+00
   35     6 C     5.899863664841E+00  2.954736859956E-01 -1.598963408703E+00
   36     6 C     5.213982872606E+00 -9.283162615529E-01 -1.594989385836E+00
   37     8 O     5.310071668040E+00 -3.467678238628E+00 -1.601389700730E+00
   38     8 O    -5.621984237671E+00  2.861934668164E+00 -1.591821246765E+00
   39     8 O    -1.620776967441E+00 -2.867179734314E+00  4.794190121765E+00
   40     8 O    -3.447789023784E-01  1.792538405475E+00 -4.791589320790E+00
   41     8 O     1.655252006207E+00  2.863417698343E+00 -1.567390314026E+00
   42     8 O     1.719944487762E+00  5.935588137491E-01 -4.783679517894E+00

 *******************************************************************************
 STARTING BASIS SET HANDLING 
 *******************************************************************************

 Loading internal basis set: SOLDEF2MSVP         

 Please cite in your publication:
 L. Dona', J. G. Brandenburg and B. Civalleri, J. Chem. Phys., 151, 121101 (2019
 )                                                                              
                                                                                
                    

 *******************************************************************************
 LOCAL ATOMIC FUNCTIONS BASIS SET
 *******************************************************************************
   ATOM   X(AU)   Y(AU)   Z(AU)  N. TYPE  EXPONENT  S COEF   P COEF   D/F/G COEF
 *******************************************************************************
   1 B  -13.229   5.406  -3.020
                                  1 S  
                                         2.410E+03 1.755E-03 0.000E+00 0.000E+00
                                         3.619E+02 1.344E-02 0.000E+00 0.000E+00
                                         8.231E+01 6.637E-02 0.000E+00 0.000E+00
                                         2.311E+01 2.303E-01 0.000E+00 0.000E+00
                                         7.252E+00 5.150E-01 0.000E+00 0.000E+00
                                  2 S  
                                         2.367E+00 1.000E+00 0.000E+00 0.000E+00
                                  3 S  
                                         5.533E-01 1.000E+00 0.000E+00 0.000E+00
                                  4 S  
                                         1.716E-01 1.000E+00 0.000E+00 0.000E+00
                           5-     7 P  
                                         6.002E+00 0.000E+00-3.555E-02 0.000E+00
                                         1.240E+00 0.000E+00-1.983E-01 0.000E+00
                                         3.367E-01 0.000E+00-5.048E-01 0.000E+00
                           8-    10 P  
                                         1.256E-01 0.000E+00 1.000E+00 0.000E+00
                          11-    15 D  
                                         8.880E-01 0.000E+00 0.000E+00 1.000E+00
   2 B   -9.328   7.670  -3.020
   3 B   -5.670  -5.421   9.067
   4 B    1.836   7.671  -2.991
   5 B    5.732   5.403  -2.967
   6 B    1.953   3.387  -9.050
   7 H   -6.134   3.617  -2.996
                                 91 S  
                                         1.874E+01 1.968E-02 0.000E+00 0.000E+00
                                         2.826E+00 1.380E-01 0.000E+00 0.000E+00
                                         6.401E-01 4.783E-01 0.000E+00 0.000E+00
                                 92 S  
                                         1.756E-01 1.000E+00 0.000E+00 0.000E+00
   8 H    2.429 -10.178   2.981
   9 H    1.439  -3.639   9.028
  10 H   -1.357   3.616  -2.999
  11 H   -9.965   3.014   3.049
  12 H   10.030  -3.000   2.991
  13 H    7.614  -7.109   2.999
  14 H   -7.555   7.126   3.038
  15 H   -9.975  -3.026   3.010
  16 H    6.206  -3.540  -2.987
  17 H    3.814   0.571  -2.989
  18 H   -3.787  -0.599   9.064
  19 C   -6.397   7.663  -3.021
                                115 S  
                                         3.624E+03 1.634E-03 0.000E+00 0.000E+00
                                         5.440E+02 1.252E-02 0.000E+00 0.000E+00
                                         1.237E+02 6.211E-02 0.000E+00 0.000E+00
                                         3.476E+01 2.182E-01 0.000E+00 0.000E+00
                                         1.093E+01 4.980E-01 0.000E+00 0.000E+00
                                116 S  
                                         3.574E+00 1.000E+00 0.000E+00 0.000E+00
                                117 S  
                                         7.742E-01 1.000E+00 0.000E+00 0.000E+00
                                118 S  
                                         2.330E-01 1.000E+00 0.000E+00 0.000E+00
                         119-   121 P  
                                         9.443E+00 0.000E+00 3.790E-02 0.000E+00
                                         2.002E+00 0.000E+00 2.082E-01 0.000E+00
                                         5.463E-01 0.000E+00 5.047E-01 0.000E+00
                         122-   124 P  
                                         1.820E-01 0.000E+00 1.000E+00 0.000E+00
                         125-   129 D  
                                         8.880E-01 0.000E+00 0.000E+00 1.000E+00
  20 C   -5.058   5.377  -3.011
  21 C   -2.429   9.949  -3.049
  22 C    2.514  -5.397   9.048
  23 C   -2.428   5.378  -3.015
  24 C   -1.089   7.664  -3.028
  25 C    3.402   5.942  -9.060
  26 C  -10.946   4.828   3.037
  27 C   11.007  -4.817   3.006
  28 C    9.678  -7.088   3.012
  29 C   -9.617   7.097   3.029
  30 C  -10.912   9.410   3.019
  31 C    7.177   2.851  -3.024
  32 C    9.827   2.832  -3.027
  33 C    7.202  -1.734  -3.000
  34 C    5.878   0.540  -3.004
  35 C   11.149   0.558  -3.022
  36 C    9.853  -1.754  -3.014
  37 O   10.035  -6.553  -3.026
                                385 S  
                                         6.773E+03 1.727E-03 0.000E+00 0.000E+00
                                         1.017E+03 1.325E-02 0.000E+00 0.000E+00
                                         2.313E+02 6.603E-02 0.000E+00 0.000E+00
                                         6.501E+01 2.353E-01 0.000E+00 0.000E+00
                                         2.050E+01 5.498E-01 0.000E+00 0.000E+00
                                386 S  
                                         6.716E+00 1.000E+00 0.000E+00 0.000E+00
                                387 S  
                                         1.147E+00 1.000E+00 0.000E+00 0.000E+00
                                388 S  
                                         3.342E-01 1.000E+00 0.000E+00 0.000E+00
                         389-   391 P  
                                         1.769E+01 0.000E+00 4.359E-02 0.000E+00
                                         3.854E+00 0.000E+00 2.318E-01 0.000E+00
                                         1.047E+00 0.000E+00 5.146E-01 0.000E+00
                         392-   394 P  
                                         2.759E-01 0.000E+00 1.000E+00 0.000E+00
                         395-   399 D  
                                         8.000E-01 0.000E+00 0.000E+00 1.000E+00
  38 O  -10.624   5.408  -3.008
  39 O   -3.063  -5.418   9.060
  40 O   -0.652   3.387  -9.055
  41 O    3.128   5.411  -2.962
  42 O    3.250   1.122  -9.040

 *******************************************************************************
 FINISHED BASIS SET HANDLING 
 *******************************************************************************

 INFORMATION **** SET_MPP **** PCRYSTAL CALCULATION
 INFORMATION **** READM2 **** NEW DEFAULT: FOCK/KS MATRIX MIXING SET TO 30 %
 INFORMATION **** READM2 **** NEW DEFAULT: FULL DIRECT SCF MODE
 INFORMATION **** READM2 **** NEW DEFAULT: COULOMB BIPOLAR BUFFER SET TO 32 Mb
 INFORMATION **** READM2 **** NEW DEFAULT: EXCHANGE BIPOLAR BUFFER SET TO 32 Mb

 *******************************************************************************
 NEW DEFAULT: DFT INTEGRATION GRID INCREASED TO XLGRID
 NEW DEFAULT: DIIS ACCELERATOR ACTIVE
 USE KEYWORD NODIIS TO TURN IT OFF
 *******************************************************************************

 WARNING **** RDDFTP **** HSEsol-HJS ACTIVE
 RANGE SEPARATION - OMEGA:   0.110000000000000     
 WARNING **** RDDFTP **** HSEsol-3c has to be combined with sol-def2-mSVP basis set
 *******************************************************************************
 N. OF ATOMS PER CELL        42  COULOMB OVERLAP TOL         (T1) 10**   -6
 NUMBER OF SHELLS           234  COULOMB PENETRATION TOL     (T2) 10**   -6
 NUMBER OF AO               474  EXCHANGE OVERLAP TOL        (T3) 10**   -6
 N. OF ELECTRONS PER CELL   198  EXCHANGE PSEUDO OVP (F(G))  (T4) 10**   -6
 CORE ELECTRONS PER CELL     60  EXCHANGE PSEUDO OVP (P(G))  (T5) 10**  -12
 N. OF SYMMETRY OPERATORS     1  POLE ORDER IN MONO ZONE                  4
 *******************************************************************************
 TYPE OF CALCULATION :  RESTRICTED CLOSED SHELL
 KOHN-SHAM HAMILTONIAN

 (EXCHANGE)[CORRELATION] FUNCTIONAL:(HSEsol GGA)[PBEsol]

 RANGE-SEPARATED HYBRID FUNCTIONAL 
 OMEGA (SHORT-RANGE)[LONG-RANGE]:(    0.1100)[    0.0000]

 HYBRID EXCHANGE - PERCENTAGE OF FOCK EXCHANGE    25.0000

 CAPPA:IS1  2;IS2  2;IS3  8; K PTS MONK NET  20; SYMMOPS:K SPACE   2;G SPACE   1

 *******************************************************************************
 MAX NUMBER OF SCF CYCLES      50  CONVERGENCE ON DELTAP        10**-16
 WEIGHT OF F(I) IN F(I+1)      30% CONVERGENCE ON ENERGY        10**- 6
 SHRINK. FACT.(MONKH.)    2  2  8  NUMBER OF K POINTS IN THE IBZ     20
 SHRINKING FACTOR(GILAT NET)    8  NUMBER OF K POINTS(GILAT NET)   1028
 *******************************************************************************
 *** K POINTS COORDINATES (OBLIQUE COORDINATES IN UNITS OF IS =  2)
   1-R(  0  0  0)   2-R(  1  0  0)   3-R(  0  1  0)   4-R(  1  1  0)
   5-C(  0  0  1)   6-C(  1  0  1)   7-C(  0  1  1)   8-C(  1  1  1)
   9-C(  0  0  2)  10-C(  1  0  2)  11-C(  0  1  2)  12-C(  1  1  2)
  13-C(  0  0  3)  14-C(  1  0  3)  15-C(  0  1  3)  16-C(  1  1  3)
  17-R(  0  0  4)  18-R(  1  0  4)  19-R(  0  1  4)  20-R(  1  1  4)

 DIRECT LATTICE VECTORS COMPON. (A.U.)     RECIP. LATTICE VECTORS COMPON. (A.U.) 
        X            Y            Z              X            Y            Z
   24.5689761  -14.2152832    0.0000000      0.2557366    0.0000000   -0.1600751
    0.0000000   28.4297713    0.0000000      0.1278719    0.2210072   -0.3191285
    3.7854029    6.5423483    6.0475723      0.0000000    0.0000000    1.0389599

 DISK SPACE FOR EIGENVECTORS (FTN 10)     7189632 REALS

 SYMMETRY ADAPTION OF THE BLOCH FUNCTIONS DISABLED
 TTTTTTTTTTTTTTTTTTTTTTTTTTTTTT gordsh1     TELAPSE        0.04 TCPU        0.04

 MATRIX SIZE: P(G)  382754, F(G)   76856, P(G) IRR  192790, F(G) IRR   77516
 MAX G-VECTOR INDEX FOR 1- AND 2-ELECTRON INTEGRALS  55

 TTTTTTTTTTTTTTTTTTTTTTTTTTTTTT INPUT       TELAPSE        0.38 TCPU        0.38

 NEIGHBORS OF THE NON-EQUIVALENT ATOMS

 N = NUMBER OF NEIGHBORS AT DISTANCE R
    ATOM  N     R/ANG      R/AU   NEIGHBORS (ATOM LABELS AND CELL INDICES)
   1 B    1     1.3787     2.6054   38 O    0 0 0
   1 B    1     1.3795     2.6068   37 O   -1 0 0
   1 B    1     1.5517     2.9323   30 C    0 0-1
   1 B    1     2.3868     4.5104    2 B    0 0 0
   1 B    1     2.3912     4.5187    3 B    0 1-2
   1 B    1     2.5629     4.8431   27 C   -1 0-1

   2 B    1     1.3792     2.6064   38 O    0 0 0
   2 B    1     1.3798     2.6075   39 O    0 1-2
   2 B    1     1.5510     2.9309   19 C    0 0 0
   2 B    1     2.3868     4.5104    1 B    0 0 0
   2 B    1     2.3894     4.5154    3 B    0 1-2
   2 B    1     2.5618     4.8411   22 C    0 1-2

   3 B    1     1.3790     2.6060   37 O   -1-1 2
   3 B    1     1.3795     2.6069   39 O    0 0 0
   3 B    1     1.5529     2.9346   36 C   -1-1 2
   3 B    1     2.3894     4.5154    2 B    0-1 2
   3 B    1     2.3912     4.5187    1 B    0-1 2
   3 B    1     2.5679     4.8526   35 C   -1-1 2

   4 B    1     1.3778     2.6037   41 O    0 0 0
   4 B    1     1.3785     2.6051   40 O    0 0 1
   4 B    1     1.5479     2.9251   24 C    0 0 0
   4 B    1     2.3857     4.5084    5 B    0 0 0
   4 B    1     2.3859     4.5087    6 B    0 0 1
   4 B    1     2.5584     4.8347   21 C    0 0 0

   5 B    1     1.3778     2.6037   41 O    0 0 0
   5 B    1     1.3813     2.6103   42 O    0 0 1
   5 B    1     1.5523     2.9334   31 C    0 0 0
   5 B    1     2.3857     4.5084    4 B    0 0 0
   5 B    1     2.3952     4.5262    6 B    0 0 1
   5 B    1     2.5590     4.8358   32 C    0 0 0

   6 B    1     1.3783     2.6045   40 O    0 0 0
   6 B    1     1.3812     2.6101   42 O    0 0 0
   6 B    1     1.5546     2.9377   25 C    0 0 0
   6 B    1     2.3859     4.5087    4 B    0 0-1
   6 B    1     2.3952     4.5262    5 B    0 0-1
   6 B    1     2.5605     4.8386   26 C    1 1-2

   7 H    1     1.0917     2.0629   20 C    0 0 0
   7 H    1     2.1461     4.0556   19 C    0 0 0
   7 H    1     2.1712     4.1029   23 C    0 0 0
   7 H    1     2.5280     4.7772   10 H    0 0 0
   7 H    1     2.5583     4.8346   38 O    0 0 0
   7 H    1     2.7310     5.1608    2 B    0 0 0

   8 H    1     1.0909     2.0615   21 C    0-1 1
   8 H    1     2.1454     4.0542   24 C    0-1 1
   8 H    1     2.1688     4.0985   22 C    0 0-1
   8 H    1     2.5272     4.7758    9 H    0 0-1
   8 H    1     2.5561     4.8304   40 O    0-1 2
   8 H    1     2.7242     5.1480    4 B    0-1 1

   9 H    1     1.0908     2.0614   22 C    0 0 0
   9 H    1     2.1442     4.0520   19 C    0-1 2
   9 H    1     2.1694     4.0995   21 C    0-1 2
   9 H    1     2.5272     4.7758    8 H    0 0 1
   9 H    1     2.5615     4.8406   39 O    0 0 0
   9 H    1     2.7248     5.1491    2 B    0-1 2

  10 H    1     1.0912     2.0621   23 C    0 0 0
  10 H    1     2.1469     4.0570   24 C    0 0 0
  10 H    1     2.1689     4.0986   20 C    0 0 0
  10 H    1     2.5280     4.7772    7 H    0 0 0
  10 H    1     2.5562     4.8305   41 O    0 0 0
  10 H    1     2.7309     5.1607    4 B    0 0 0

  11 H    1     1.0911     2.0619   26 C    0 0 0
  11 H    1     2.1443     4.0521   25 C   -1-1 2
  11 H    1     2.1684     4.0977   29 C    0 0 0
  11 H    1     2.5222     4.7664   14 H    0 0 0
  11 H    1     2.5622     4.8419   42 O   -1-1 2
  11 H    1     2.7179     5.1361    6 B   -1-1 2

  12 H    1     1.0917     2.0630   27 C    0 0 0
  12 H    1     2.1441     4.0518   30 C    1 0 0
  12 H    1     2.1716     4.1037   28 C    0 0 0
  12 H    1     2.5226     4.7669   13 H    0 0 0
  12 H    1     2.5541     4.8265   37 O    0 0 1
  12 H    1     2.7237     5.1470    1 B    1 0 1

  13 H    1     1.0919     2.0633   28 C    0 0 0
  13 H    1     2.1522     4.0670   25 C    0-1 2
  13 H    1     2.1668     4.0946   27 C    0 0 0
  13 H    1     2.5226     4.7669   12 H    0 0 0
  13 H    1     2.5923     4.8986   40 O    0-1 2
  13 H    1     2.7582     5.2123    6 B    0-1 2

  14 H    1     1.0915     2.0627   29 C    0 0 0
  14 H    1     2.1483     4.0597   30 C    0 0 0
  14 H    1     2.1679     4.0968   26 C    0 0 0
  14 H    1     2.5222     4.7664   11 H    0 0 0
  14 H    1     2.5809     4.8771   38 O    0 0 1
  14 H    1     2.7404     5.1785    1 B    0 0 1

  15 H    1     1.0916     2.0628   32 C   -1-1 1
  15 H    1     2.1436     4.0508   31 C   -1-1 1
  15 H    1     2.1707     4.1021   35 C   -1-1 1
  15 H    1     2.5217     4.7654   18 H    0 0-1
  15 H    1     2.5567     4.8315   42 O   -1-1 2
  15 H    1     2.7164     5.1333    5 B   -1-1 1

  16 H    1     1.0914     2.0624   33 C    0 0 0
  16 H    1     2.1487     4.0605   36 C    0 0 0
  16 H    1     2.1663     4.0937   34 C    0 0 0
  16 H    1     2.5170     4.7564   17 H    0 0 0
  16 H    1     2.5779     4.8716   37 O    0 0 0
  16 H    1     2.7395     5.1769    3 B    1 1-2

  17 H    1     1.0921     2.0638   34 C    0 0 0
  17 H    1     2.1502     4.0632   31 C    0 0 0
  17 H    1     2.1683     4.0976   33 C    0 0 0
  17 H    1     2.5170     4.7564   16 H    0 0 0
  17 H    1     2.5870     4.8888   41 O    0 0 0
  17 H    1     2.7510     5.1986    5 B    0 0 0

  18 H    1     1.0913     2.0622   35 C   -1-1 2
  18 H    1     2.1495     4.0619   36 C   -1-1 2
  18 H    1     2.1656     4.0923   32 C   -1-1 2
  18 H    1     2.5217     4.7654   15 H    0 0 1
  18 H    1     2.5789     4.8734   39 O    0 0 0
  18 H    1     2.7392     5.1763    3 B    0 0 0

  19 C    1     1.4017     2.6488   22 C    0 1-2
  19 C    1     1.4025     2.6504   20 C    0 0 0
  19 C    1     1.5510     2.9309    2 B    0 0 0
  19 C    1     2.1442     4.0520    9 H    0 1-2
  19 C    1     2.1461     4.0556    7 H    0 0 0
  19 C    1     2.4236     4.5800   21 C    0 0 0

  20 C    1     1.0917     2.0629    7 H    0 0 0
  20 C    1     1.3915     2.6296   23 C    0 0 0
  20 C    1     1.4025     2.6504   19 C    0 0 0
  20 C    1     2.1689     4.0986   10 H    0 0 0
  20 C    1     2.4191     4.5714   22 C    0 1-2
  20 C    1     2.4241     4.5809   24 C    0 0 0

  21 C    1     1.0909     2.0615    8 H    0 1-1
  21 C    1     1.3909     2.6284   22 C    0 1-2
  21 C    1     1.4014     2.6483   24 C    0 0 0
  21 C    1     2.1694     4.0995    9 H    0 1-2
  21 C    1     2.4189     4.5710   23 C    0 0 0
  21 C    1     2.4236     4.5800   19 C    0 0 0

  22 C    1     1.0908     2.0614    9 H    0 0 0
  22 C    1     1.3909     2.6284   21 C    0-1 2
  22 C    1     1.4017     2.6488   19 C    0-1 2
  22 C    1     2.1688     4.0985    8 H    0 0 1
  22 C    1     2.4191     4.5714   20 C    0-1 2
  22 C    1     2.4226     4.5780   24 C    0-1 2

  23 C    1     1.0912     2.0621   10 H    0 0 0
  23 C    1     1.3915     2.6296   20 C    0 0 0
  23 C    1     1.4021     2.6496   24 C    0 0 0
  23 C    1     2.1712     4.1029    7 H    0 0 0
  23 C    1     2.4189     4.5710   21 C    0 0 0
  23 C    1     2.4237     4.5802   19 C    0 0 0

  24 C    1     1.4014     2.6483   21 C    0 0 0
  24 C    1     1.4021     2.6496   23 C    0 0 0
  24 C    1     1.5479     2.9251    4 B    0 0 0
  24 C    1     2.1454     4.0542    8 H    0 1-1
  24 C    1     2.1469     4.0570   10 H    0 0 0
  24 C    1     2.4226     4.5780   22 C    0 1-2

  25 C    1     1.4025     2.6504   26 C    1 1-2
  25 C    1     1.4037     2.6525   28 C    0 1-2
  25 C    1     1.5546     2.9377    6 B    0 0 0
  25 C    1     2.1443     4.0521   11 H    1 1-2
  25 C    1     2.1522     4.0670   13 H    0 1-2
  25 C    1     2.4271     4.5865   27 C    0 1-2

  26 C    1     1.0911     2.0619   11 H    0 0 0
  26 C    1     1.3916     2.6298   29 C    0 0 0
  26 C    1     1.4025     2.6504   25 C   -1-1 2
  26 C    1     2.1679     4.0968   14 H    0 0 0
  26 C    1     2.4165     4.5665   28 C   -1 0 0
  26 C    1     2.4246     4.5818   30 C    0 0 0

  27 C    1     1.0917     2.0630   12 H    0 0 0
  27 C    1     1.3928     2.6320   28 C    0 0 0
  27 C    1     1.4024     2.6501   30 C    1 0 0
  27 C    1     2.1668     4.0946   13 H    0 0 0
  27 C    1     2.4166     4.5668   29 C    1 0 0
  27 C    1     2.4271     4.5865   25 C    0-1 2

  28 C    1     1.0919     2.0633   13 H    0 0 0
  28 C    1     1.3928     2.6320   27 C    0 0 0
  28 C    1     1.4037     2.6525   25 C    0-1 2
  28 C    1     2.1716     4.1037   12 H    0 0 0
  28 C    1     2.4165     4.5665   26 C    1 0 0
  28 C    1     2.4277     4.5877   30 C    1 0 0

  29 C    1     1.0915     2.0627   14 H    0 0 0
  29 C    1     1.3916     2.6298   26 C    0 0 0
  29 C    1     1.4023     2.6499   30 C    0 0 0
  29 C    1     2.1684     4.0977   11 H    0 0 0
  29 C    1     2.4166     4.5668   27 C   -1 0 0
  29 C    1     2.4281     4.5884   25 C   -1-1 2

  30 C    1     1.4023     2.6499   29 C    0 0 0
  30 C    1     1.4024     2.6501   27 C   -1 0 0
  30 C    1     1.5517     2.9323    1 B    0 0 1
  30 C    1     2.1441     4.0518   12 H   -1 0 0
  30 C    1     2.1483     4.0597   14 H    0 0 0
  30 C    1     2.4246     4.5818   26 C    0 0 0

  31 C    1     1.4022     2.6498   32 C    0 0 0
  31 C    1     1.4030     2.6512   34 C    0 0 0
  31 C    1     1.5523     2.9334    5 B    0 0 0
  31 C    1     2.1436     4.0508   15 H    1 1-1
  31 C    1     2.1502     4.0632   17 H    0 0 0
  31 C    1     2.4264     4.5853   33 C    0 0 0

  32 C    1     1.0916     2.0628   15 H    1 1-1
  32 C    1     1.3918     2.6301   35 C    0 0 0
  32 C    1     1.4022     2.6498   31 C    0 0 0
  32 C    1     2.1656     4.0923   18 H    1 1-2
  32 C    1     2.4163     4.5661   34 C    0 0 0
  32 C    1     2.4270     4.5863   36 C    0 0 0

  33 C    1     1.0914     2.0624   16 H    0 0 0
  33 C    1     1.3927     2.6318   34 C    0 0 0
  33 C    1     1.4029     2.6510   36 C    0 0 0
  33 C    1     2.1683     4.0976   17 H    0 0 0
  33 C    1     2.4155     4.5645   35 C    0 0 0
  33 C    1     2.4264     4.5853   31 C    0 0 0

  34 C    1     1.0921     2.0638   17 H    0 0 0
  34 C    1     1.3927     2.6318   33 C    0 0 0
  34 C    1     1.4030     2.6512   31 C    0 0 0
  34 C    1     2.1663     4.0937   16 H    0 0 0
  34 C    1     2.4163     4.5661   32 C    0 0 0
  34 C    1     2.4289     4.5899   36 C    0 0 0

  35 C    1     1.0913     2.0622   18 H    1 1-2
  35 C    1     1.3918     2.6301   32 C    0 0 0
  35 C    1     1.4029     2.6511   36 C    0 0 0
  35 C    1     2.1707     4.1021   15 H    1 1-1
  35 C    1     2.4155     4.5645   33 C    0 0 0
  35 C    1     2.4269     4.5861   31 C    0 0 0

  36 C    1     1.4029     2.6510   33 C    0 0 0
  36 C    1     1.4029     2.6511   35 C    0 0 0
  36 C    1     1.5529     2.9346    3 B    1 1-2
  36 C    1     2.1487     4.0605   16 H    0 0 0
  36 C    1     2.1495     4.0619   18 H    1 1-2
  36 C    1     2.4270     4.5863   32 C    0 0 0

  37 O    1     1.3790     2.6060    3 B    1 1-2
  37 O    1     1.3795     2.6068    1 B    1 0 0
  37 O    1     2.3868     4.5105   39 O    1 1-2
  37 O    1     2.3885     4.5136   38 O    1 0 0
  37 O    1     2.5389     4.7979   30 C    1 0-1
  37 O    1     2.5412     4.8021   36 C    0 0 0

  38 O    1     1.3787     2.6054    1 B    0 0 0
  38 O    1     1.3792     2.6064    2 B    0 0 0
  38 O    1     2.3885     4.5136   37 O   -1 0 0
  38 O    1     2.3912     4.5187   39 O    0 1-2
  38 O    1     2.5351     4.7906   19 C    0 0 0
  38 O    1     2.5405     4.8008   30 C    0 0-1

  39 O    1     1.3795     2.6069    3 B    0 0 0
  39 O    1     1.3798     2.6075    2 B    0-1 2
  39 O    1     2.3868     4.5105   37 O   -1-1 2
  39 O    1     2.3912     4.5187   38 O    0-1 2
  39 O    1     2.5416     4.8030   19 C    0-1 2
  39 O    1     2.5427     4.8050   36 C   -1-1 2

  40 O    1     1.3783     2.6045    6 B    0 0 0
  40 O    1     1.3785     2.6051    4 B    0 0-1
  40 O    1     2.3876     4.5119   42 O    0 0 0
  40 O    1     2.3913     4.5189   41 O    0 0-1
  40 O    1     2.5354     4.7912   25 C    0 0 0
  40 O    1     2.5360     4.7923   24 C    0 0-1

  41 O    1     1.3778     2.6037    4 B    0 0 0
  41 O    1     1.3778     2.6037    5 B    0 0 0
  41 O    1     2.3870     4.5107   42 O    0 0 1
  41 O    1     2.3913     4.5189   40 O    0 0 1
  41 O    1     2.5304     4.7818   24 C    0 0 0
  41 O    1     2.5353     4.7911   31 C    0 0 0

  42 O    1     1.3812     2.6101    6 B    0 0 0
  42 O    1     1.3813     2.6103    5 B    0 0-1
  42 O    1     2.3870     4.5107   41 O    0 0-1
  42 O    1     2.3876     4.5119   40 O    0 0 0
  42 O    1     2.5481     4.8152   31 C    0 0-1
  42 O    1     2.5522     4.8230   25 C    0 0 0


 SYMMETRY ALLOWED INTERNAL DEGREE(S) OF FREEDOM: 123
 TTTTTTTTTTTTTTTTTTTTTTTTTTTTTT SYMM        TELAPSE        0.38 TCPU        0.38
 TTTTTTTTTTTTTTTTTTTTTTTTTTTTTT INT_SCREEN  TELAPSE        0.42 TCPU        0.42

 DFT PARAMETERS

     ATOM       ELECTRONS   NET CHARGE   R(ANGSTROM)
   1   5  B       5.0000      0.0000     0.89000000
   7   1  H       1.0000      0.0000     1.11000000
  19   6  C       6.0000      0.0000     0.77000000
  37   8  O       8.0000      0.0000     0.74000000

 SIZE OF GRID=    1247428
 TTTTTTTTTTTTTTTTTTTTTTTTTTTTTT MAKE_GRID2  TELAPSE       11.58 TCPU       11.56
 BECKE WEIGHT FUNCTION
 RADSAFE =     2.00
 TOLERANCES - DENSITY:10**- 6; POTENTIAL:10**- 9; GRID WGT:10**-14

 RADIAL INTEGRATION  - INTERVALS (POINTS,UPPER LIMIT):            1( 75,  4.0*R)

 ANGULAR INTEGRATION - INTERVALS (ACCURACY LEVEL [N. POINTS] UPPER LIMIT):
  1(  4[  86]   0.2)  2(  8[ 194]   0.5)  3( 12[ 350]   0.9)  4( 16[ 974]   3.5)
  5( 12[ 350]9999.0)
 TTTTTTTTTTTTTTTTTTTTTTTTTTTTTT INT_CALC    TELAPSE       11.68 TCPU       11.67
 EEEEEEEEEE INT_CALC TERMINATION  DATE 02 12 2025 TIME 07:56:58.8

 *******************************************************************************
 COF-5_z32_inc_L040                                                              
 CRYSTAL - SCF - TYPE OF CALCULATION :  RESTRICTED CLOSED SHELL
 *******************************************************************************

 CAPPA:IS1  2;IS2  2;IS3  8; K PTS MONK NET  20; SYMMOPS:K SPACE   2;G SPACE   1

 TTTTTTTTTTTTTTTTTTTTTTTTTTTTTT SDIK        TELAPSE       12.49 TCPU       22.06

 AAAAAAAAAAAAAAAAAAAAAAAAAAAAAAAAAAAAAAAAAAAAAAAAAAAAAAAAAAAAAAAAAAAAAAAAAAAAAAA
         ATOMIC WAVEFUNCTION(S)


 NUCLEAR CHARGE  5.0  SYMMETRY SPECIES            S    P
 N. ELECTRONS    5.0  NUMBER OF PRIMITIVE GTOS    8    4
                      NUMBER OF CONTRACTED GTOS   4    2
                      NUMBER OF CLOSED SHELLS     2    0
                      OPEN SHELL OCCUPATION       0    1

  ZNUC  SCFIT    TOTAL HF ENERGY   KINETIC ENERGY   VIRIAL THEOREM ACCURACY
   5.0    11    -2.451164084E+01  2.462155050E+01 -1.995536038E+00  1.5E-06

 NUCLEAR CHARGE  1.0  SYMMETRY SPECIES            S
 N. ELECTRONS    1.0  NUMBER OF PRIMITIVE GTOS    4
                      NUMBER OF CONTRACTED GTOS   2
                      NUMBER OF CLOSED SHELLS     0
                      OPEN SHELL OCCUPATION       1

  ZNUC  SCFIT    TOTAL HF ENERGY   KINETIC ENERGY   VIRIAL THEOREM ACCURACY
   1.0     1    -4.977266687E-01  5.190767460E-01 -1.958869132E+00  0.0E+00

 NUCLEAR CHARGE  6.0  SYMMETRY SPECIES            S    P
 N. ELECTRONS    6.0  NUMBER OF PRIMITIVE GTOS    8    4
                      NUMBER OF CONTRACTED GTOS   4    2
                      NUMBER OF CLOSED SHELLS     2    0
                      OPEN SHELL OCCUPATION       0    2

  ZNUC  SCFIT    TOTAL HF ENERGY   KINETIC ENERGY   VIRIAL THEOREM ACCURACY
   6.0     9    -3.766704647E+01  3.775180683E+01 -1.997754800E+00  1.1E-06

 NUCLEAR CHARGE  8.0  SYMMETRY SPECIES            S    P
 N. ELECTRONS    8.0  NUMBER OF PRIMITIVE GTOS    8    4
                      NUMBER OF CONTRACTED GTOS   4    2
                      NUMBER OF CLOSED SHELLS     2    0
                      OPEN SHELL OCCUPATION       0    4

  ZNUC  SCFIT    TOTAL HF ENERGY   KINETIC ENERGY   VIRIAL THEOREM ACCURACY
   8.0    12    -7.477373220E+01  7.477365593E+01 -2.000001020E+00  3.8E-06

 AAAAAAAAAAAAAAAAAAAAAAAAAAAAAAAAAAAAAAAAAAAAAAAAAAAAAAAAAAAAAAAAAAAAAAAAAAAAAAA

 CHARGE NORMALIZATION FACTOR   1.00000000
 TOTAL ATOMIC CHARGES:
   5.0000000   5.0000000   5.0000000   5.0000000   5.0000000   5.0000000
   1.0000000   1.0000000   1.0000000   1.0000000   1.0000000   1.0000000
   1.0000000   1.0000000   1.0000000   1.0000000   1.0000000   1.0000000
   6.0000000   6.0000000   6.0000000   6.0000000   6.0000000   6.0000000
   6.0000000   6.0000000   6.0000000   6.0000000   6.0000000   6.0000000
   6.0000000   6.0000000   6.0000000   6.0000000   6.0000000   6.0000000
   8.0000000   8.0000000   8.0000000   8.0000000   8.0000000   8.0000000
 TTTTTTTTTTTTTTTTTTTTTTTTTTTTTT MOQGAD      TELAPSE       12.60 TCPU       24.56
 TTTTTTTTTTTTTTTTTTTTTTTTTTTTTT SHELLXN     TELAPSE       24.29 TCPU      392.03
 TTTTTTTTTTTTTTTTTTTTTTTTTTTTTT MONMO3      TELAPSE       24.47 TCPU      397.50
 NUMERICALLY INTEGRATED DENSITY    197.9999874554
 TTTTTTTTTTTTTTTTTTTTTTTTTTTTTT NUMDFT      TELAPSE       25.17 TCPU      420.08
 CYC   0 ETOT(AU) -1.295995195745E+03 DETOT -1.30E+03 tst  0.00E+00 PX  1.00E+00
 TTTTTTTTTTTTTTTTTTTTTTTTTTTTTT DIIS        TELAPSE       25.21 TCPU      421.28
 TTTTTTTTTTTTTTTTTTTTTTTTTTTTTT FDIK        TELAPSE       25.72 TCPU      437.46
 INSULATING STATE
 TOP OF VALENCE BANDS -    BAND     99; K   17; EIG -3.0661835E-01 AU
 TOP OF VALENCE BANDS -    BAND     99; K    1; EIG -3.1151630E-01 AU
 BOTTOM OF VIRTUAL BANDS - BAND    100; K   17; EIG -1.7088529E-01 AU
 DIRECT ENERGY BAND GAP:   3.6935 eV
 BOTTOM OF VIRTUAL BANDS - BAND    100; K    1; EIG -1.6496248E-01 AU
 TTTTTTTTTTTTTTTTTTTTTTTTTTTTTT PDIG        TELAPSE       26.04 TCPU      443.64
 CHARGE NORMALIZATION FACTOR   1.00000000
 TOTAL ATOMIC CHARGES:
   4.1375053   4.1532317   4.1543747   4.1557651   4.1531845   4.1363255
   0.7858961   0.7858940   0.7841251   0.7840958   0.7858421   0.7856655
   0.7868608   0.7863265   0.7856762   0.7862134   0.7842566   0.7844871
   6.0455073   6.2691406   6.2690793   6.2680531   6.2666976   6.0479623
   6.0464912   6.2608887   6.2601216   6.2614082   6.2621941   6.0494038
   6.0446663   6.2690643   6.2700532   6.2674463   6.2692245   6.0420409
   8.7032384   8.7024711   8.7021273   8.7019575   8.7006752   8.7043610
 TTTTTTTTTTTTTTTTTTTTTTTTTTTTTT MOQGAD      TELAPSE       26.10 TCPU      443.69
 TTTTTTTTTTTTTTTTTTTTTTTTTTTTTT SHELLXN     TELAPSE       37.89 TCPU      819.87
 TTTTTTTTTTTTTTTTTTTTTTTTTTTTTT MONMO3      TELAPSE       38.06 TCPU      825.33
 NUMERICALLY INTEGRATED DENSITY    197.9999951458
 TTTTTTTTTTTTTTTTTTTTTTTTTTTTTT NUMDFT      TELAPSE       38.78 TCPU      848.28
 CYC   1 ETOT(AU) -1.288833244978E+03 DETOT  7.16E+00 tst  0.00E+00 PX  1.00E+00
 TTTTTTTTTTTTTTTTTTTTTTTTTTTTTT DIIS        TELAPSE       38.82 TCPU      849.81
 DIIS TEST: 0.10770E+01 AT SCF   CYCLE   1 - MIX   30 %
 TTTTTTTTTTTTTTTTTTTTTTTTTTTTTT FDIK        TELAPSE       39.34 TCPU      866.29
 INSULATING STATE
 TOP OF VALENCE BANDS -    BAND     99; K   17; EIG -2.1900647E-01 AU
 TOP OF VALENCE BANDS -    BAND     99; K    1; EIG -2.3005354E-01 AU
 BOTTOM OF VIRTUAL BANDS - BAND    100; K   17; EIG -9.8247857E-02 AU
 DIRECT ENERGY BAND GAP:   3.2860 eV
 BOTTOM OF VIRTUAL BANDS - BAND    100; K    1; EIG -8.8779139E-02 AU
 TTTTTTTTTTTTTTTTTTTTTTTTTTTTTT PDIG        TELAPSE       39.67 TCPU      872.47
 CHARGE NORMALIZATION FACTOR   1.00000000
 TOTAL ATOMIC CHARGES:
   4.6393011   4.6861119   4.6866806   4.6872521   4.6871692   4.6391571
   0.9027944   0.9032563   0.9183207   0.9185717   0.8916216   0.8911198
   0.8924220   0.8925372   0.9023252   0.9028538   0.9181806   0.9181190
   5.8764023   6.1377988   6.1360052   6.1439358   6.1455142   5.8726902
   5.9216557   6.1488276   6.1526729   6.1541485   6.1537115   5.9163048
   5.8780157   6.1329938   6.1359993   6.1460938   6.1425670   5.8788667
   8.3347490   8.3332448   8.3563139   8.3318927   8.3535661   8.3382350
 TTTTTTTTTTTTTTTTTTTTTTTTTTTTTT MOQGAD      TELAPSE       39.72 TCPU      872.53
 TTTTTTTTTTTTTTTTTTTTTTTTTTTTTT SHELLXN     TELAPSE       51.36 TCPU     1243.77
 TTTTTTTTTTTTTTTTTTTTTTTTTTTTTT MONMO3      TELAPSE       51.53 TCPU     1249.19
 NUMERICALLY INTEGRATED DENSITY    197.9999910364
 TTTTTTTTTTTTTTTTTTTTTTTTTTTTTT NUMDFT      TELAPSE       52.24 TCPU     1272.03
 CYC   2 ETOT(AU) -1.289023729553E+03 DETOT -1.90E-01 tst  2.89E-03 PX  1.60E-01
 TTTTTTTTTTTTTTTTTTTTTTTTTTTTTT DIIS        TELAPSE       52.29 TCPU     1273.63
 DIIS TEST: 0.44189E+00 AT SCF   CYCLE   2 - DIIS ACTIVE - HISTORY:     2 CYCLES
 TTTTTTTTTTTTTTTTTTTTTTTTTTTTTT FDIK        TELAPSE       52.79 TCPU     1289.69
 INSULATING STATE
 TOP OF VALENCE BANDS -    BAND     99; K   17; EIG -2.3024260E-01 AU
 TOP OF VALENCE BANDS -    BAND     99; K    1; EIG -2.3884480E-01 AU
 BOTTOM OF VIRTUAL BANDS - BAND    100; K   17; EIG -9.2717407E-02 AU
 DIRECT ENERGY BAND GAP:   3.7423 eV
 BOTTOM OF VIRTUAL BANDS - BAND    100; K    1; EIG -8.4898731E-02 AU
 TTTTTTTTTTTTTTTTTTTTTTTTTTTTTT PDIG        TELAPSE       53.12 TCPU     1295.87
 CHARGE NORMALIZATION FACTOR   1.00000000
 TOTAL ATOMIC CHARGES:
   4.4434396   4.4864598   4.4869380   4.4879761   4.4862970   4.4430231
   0.8843884   0.8843685   0.8947621   0.8950779   0.8790759   0.8788279
   0.8806598   0.8801460   0.8832903   0.8844046   0.8952083   0.8945207
   5.8976338   6.1681571   6.1684855   6.1549954   6.1546481   5.8990252
   5.9225861   6.1633154   6.1648276   6.1664833   6.1670934   5.9229527
   5.8979694   6.1677764   6.1683334   6.1552700   6.1566342   5.8979191
   8.5247897   8.5242381   8.5198922   8.5237034   8.5174866   8.5269198
 TTTTTTTTTTTTTTTTTTTTTTTTTTTTTT MOQGAD      TELAPSE       53.17 TCPU     1295.93
 TTTTTTTTTTTTTTTTTTTTTTTTTTTTTT SHELLXN     TELAPSE       64.92 TCPU     1670.80
 TTTTTTTTTTTTTTTTTTTTTTTTTTTTTT MONMO3      TELAPSE       65.09 TCPU     1676.23
 NUMERICALLY INTEGRATED DENSITY    197.9999917558
 TTTTTTTTTTTTTTTTTTTTTTTTTTTTTT NUMDFT      TELAPSE       65.82 TCPU     1699.33
 CYC   3 ETOT(AU) -1.289114517271E+03 DETOT -9.08E-02 tst  6.34E-04 PX  6.80E-02
 TTTTTTTTTTTTTTTTTTTTTTTTTTTTTT DIIS        TELAPSE       65.88 TCPU     1701.33
 DIIS TEST: 0.16136E-01 AT SCF   CYCLE   3 - DIIS ACTIVE - HISTORY:     3 CYCLES
 TTTTTTTTTTTTTTTTTTTTTTTTTTTTTT FDIK        TELAPSE       66.39 TCPU     1717.85
 INSULATING STATE
 TOP OF VALENCE BANDS -    BAND     99; K   17; EIG -2.3999378E-01 AU
 TOP OF VALENCE BANDS -    BAND     99; K    1; EIG -2.5090907E-01 AU
 BOTTOM OF VIRTUAL BANDS - BAND    100; K   17; EIG -1.0217986E-01 AU
 DIRECT ENERGY BAND GAP:   3.7501 eV
 BOTTOM OF VIRTUAL BANDS - BAND    100; K    1; EIG -9.2697632E-02 AU
 TTTTTTTTTTTTTTTTTTTTTTTTTTTTTT PDIG        TELAPSE       66.72 TCPU     1724.03
 CHARGE NORMALIZATION FACTOR   1.00000000
 TOTAL ATOMIC CHARGES:
   4.4506958   4.4901317   4.4905679   4.4917711   4.4901535   4.4503807
   0.8679075   0.8682497   0.8771993   0.8775336   0.8585693   0.8583096
   0.8599935   0.8597245   0.8673177   0.8680622   0.8774721   0.8773918
   5.9435516   6.1696038   6.1680990   6.1713206   6.1713437   5.9420705
   5.9783384   6.1757051   6.1774827   6.1780224   6.1785163   5.9758463
   5.9444848   6.1669675   6.1690745   6.1723693   6.1702948   5.9431001
   8.4826865   8.4813616   8.4974606   8.4802556   8.4954513   8.4851614
 TTTTTTTTTTTTTTTTTTTTTTTTTTTTTT MOQGAD      TELAPSE       66.77 TCPU     1724.08
 TTTTTTTTTTTTTTTTTTTTTTTTTTTTTT SHELLXN     TELAPSE       78.57 TCPU     2100.17
 TTTTTTTTTTTTTTTTTTTTTTTTTTTTTT MONMO3      TELAPSE       78.74 TCPU     2105.76
 NUMERICALLY INTEGRATED DENSITY    197.9999917478
 TTTTTTTTTTTTTTTTTTTTTTTTTTTTTT NUMDFT      TELAPSE       79.47 TCPU     2128.84
 CYC   4 ETOT(AU) -1.289118021710E+03 DETOT -3.50E-03 tst  3.36E-05 PX  1.51E-02
 TTTTTTTTTTTTTTTTTTTTTTTTTTTTTT DIIS        TELAPSE       79.53 TCPU     2130.90
 DIIS TEST: 0.42334E-02 AT SCF   CYCLE   4 - DIIS ACTIVE - HISTORY:     4 CYCLES
 TTTTTTTTTTTTTTTTTTTTTTTTTTTTTT FDIK        TELAPSE       80.04 TCPU     2147.14
 INSULATING STATE
 TOP OF VALENCE BANDS -    BAND     99; K   17; EIG -2.3861062E-01 AU
 TOP OF VALENCE BANDS -    BAND     99; K    1; EIG -2.4857854E-01 AU
 BOTTOM OF VIRTUAL BANDS - BAND    100; K   17; EIG -1.0121565E-01 AU
 DIRECT ENERGY BAND GAP:   3.7387 eV
 BOTTOM OF VIRTUAL BANDS - BAND    100; K    1; EIG -9.2630494E-02 AU
 TTTTTTTTTTTTTTTTTTTTTTTTTTTTTT PDIG        TELAPSE       80.37 TCPU     2153.33
 CHARGE NORMALIZATION FACTOR   1.00000000
 TOTAL ATOMIC CHARGES:
   4.4500338   4.4937389   4.4943196   4.4952847   4.4939149   4.4496568
   0.8699015   0.8700021   0.8807680   0.8810384   0.8623396   0.8619978
   0.8637228   0.8633521   0.8690477   0.8700158   0.8811286   0.8806582
   5.9272590   6.1720086   6.1717716   6.1679140   6.1678252   5.9273517
   5.9574288   6.1742899   6.1766131   6.1774642   6.1780200   5.9566226
   5.9276981   6.1705739   6.1717675   6.1681648   6.1685298   5.9279867
   8.4956999   8.4947272   8.4998923   8.4940285   8.4974662   8.4979753
 TTTTTTTTTTTTTTTTTTTTTTTTTTTTTT MOQGAD      TELAPSE       80.42 TCPU     2153.38
 TTTTTTTTTTTTTTTTTTTTTTTTTTTTTT SHELLXN     TELAPSE       92.00 TCPU     2522.56
 TTTTTTTTTTTTTTTTTTTTTTTTTTTTTT MONMO3      TELAPSE       92.17 TCPU     2527.98
 NUMERICALLY INTEGRATED DENSITY    197.9999917869
 TTTTTTTTTTTTTTTTTTTTTTTTTTTTTT NUMDFT      TELAPSE       92.88 TCPU     2550.76
 CYC   5 ETOT(AU) -1.289118981028E+03 DETOT -9.59E-04 tst  6.14E-06 PX  6.86E-03
 TTTTTTTTTTTTTTTTTTTTTTTTTTTTTT DIIS        TELAPSE       92.95 TCPU     2553.04
 DIIS TEST: 0.65915E-04 AT SCF   CYCLE   5 - DIIS ACTIVE - HISTORY:     5 CYCLES
 TTTTTTTTTTTTTTTTTTTTTTTTTTTTTT FDIK        TELAPSE       93.46 TCPU     2569.11
 INSULATING STATE
 TOP OF VALENCE BANDS -    BAND     99; K   17; EIG -2.3831938E-01 AU
 TOP OF VALENCE BANDS -    BAND     99; K    1; EIG -2.4827379E-01 AU
 BOTTOM OF VIRTUAL BANDS - BAND    100; K   17; EIG -1.0087448E-01 AU
 DIRECT ENERGY BAND GAP:   3.7401 eV
 BOTTOM OF VIRTUAL BANDS - BAND    100; K    1; EIG -9.2187308E-02 AU
 TTTTTTTTTTTTTTTTTTTTTTTTTTTTTT PDIG        TELAPSE       93.78 TCPU     2575.29
 CHARGE NORMALIZATION FACTOR   1.00000000
 TOTAL ATOMIC CHARGES:
   4.4515689   4.4928798   4.4933332   4.4944545   4.4929695   4.4512456
   0.8709488   0.8711879   0.8815827   0.8819290   0.8633186   0.8631117
   0.8647761   0.8644469   0.8702320   0.8710707   0.8818491   0.8816730
   5.9272883   6.1712742   6.1701295   6.1672591   6.1673206   5.9267012
   5.9589029   6.1735313   6.1746911   6.1758899   6.1765558   5.9569132
   5.9284189   6.1691931   6.1708371   6.1685454   6.1668338   5.9266584
   8.4942535   8.4932694   8.5030482   8.4921684   8.5010363   8.4967023
 TTTTTTTTTTTTTTTTTTTTTTTTTTTTTT MOQGAD      TELAPSE       93.84 TCPU     2575.35
 TTTTTTTTTTTTTTTTTTTTTTTTTTTTTT SHELLXN     TELAPSE      105.57 TCPU     2949.49
 TTTTTTTTTTTTTTTTTTTTTTTTTTTTTT MONMO3      TELAPSE      105.74 TCPU     2954.96
 NUMERICALLY INTEGRATED DENSITY    197.9999917530
 TTTTTTTTTTTTTTTTTTTTTTTTTTTTTT NUMDFT      TELAPSE      106.47 TCPU     2978.02
 CYC   6 ETOT(AU) -1.289118995041E+03 DETOT -1.40E-05 tst  1.66E-07 PX  1.08E-03
 TTTTTTTTTTTTTTTTTTTTTTTTTTTTTT DIIS        TELAPSE      106.54 TCPU     2980.44
 DIIS TEST: 0.24387E-04 AT SCF   CYCLE   6 - DIIS ACTIVE - HISTORY:     6 CYCLES
 TTTTTTTTTTTTTTTTTTTTTTTTTTTTTT FDIK        TELAPSE      107.05 TCPU     2996.70
 INSULATING STATE
 TOP OF VALENCE BANDS -    BAND     99; K   17; EIG -2.3837590E-01 AU
 TOP OF VALENCE BANDS -    BAND     99; K    1; EIG -2.4835609E-01 AU
 BOTTOM OF VIRTUAL BANDS - BAND    100; K   17; EIG -1.0089889E-01 AU
 DIRECT ENERGY BAND GAP:   3.7409 eV
 BOTTOM OF VIRTUAL BANDS - BAND    100; K    1; EIG -9.2226412E-02 AU
 TTTTTTTTTTTTTTTTTTTTTTTTTTTTTT PDIG        TELAPSE      107.38 TCPU     3002.89
 CHARGE NORMALIZATION FACTOR   1.00000000
 TOTAL ATOMIC CHARGES:
   4.4509100   4.4933119   4.4938559   4.4948821   4.4934095   4.4505377
   0.8709186   0.8710754   0.8815123   0.8818098   0.8632669   0.8629340
   0.8646618   0.8643191   0.8701170   0.8710397   0.8818677   0.8814598
   5.9272535   6.1712015   6.1707231   6.1672898   6.1671040   5.9269853
   5.9579044   6.1733194   6.1756008   6.1764462   6.1768564   5.9568677
   5.9276283   6.1695411   6.1709728   6.1676387   6.1676204   5.9277065
   8.4950348   8.4939528   8.5011369   8.4932212   8.4987975   8.4973074
 TTTTTTTTTTTTTTTTTTTTTTTTTTTTTT MOQGAD      TELAPSE      107.43 TCPU     3002.94
 TTTTTTTTTTTTTTTTTTTTTTTTTTTTTT SHELLXN     TELAPSE      119.22 TCPU     3378.78
 TTTTTTTTTTTTTTTTTTTTTTTTTTTTTT MONMO3      TELAPSE      119.39 TCPU     3384.21
 NUMERICALLY INTEGRATED DENSITY    197.9999917660
 TTTTTTTTTTTTTTTTTTTTTTTTTTTTTT NUMDFT      TELAPSE      120.11 TCPU     3407.31
 CYC   7 ETOT(AU) -1.289119000058E+03 DETOT -5.02E-06 tst  5.26E-08 PX  8.41E-04
 TTTTTTTTTTTTTTTTTTTTTTTTTTTTTT DIIS        TELAPSE      120.19 TCPU     3409.88
 DIIS TEST: 0.10551E-05 AT SCF   CYCLE   7 - DIIS ACTIVE - HISTORY:     7 CYCLES
 TTTTTTTTTTTTTTTTTTTTTTTTTTTTTT FDIK        TELAPSE      120.70 TCPU     3426.15
 INSULATING STATE
 TOP OF VALENCE BANDS -    BAND     99; K   17; EIG -2.3837419E-01 AU
 TOP OF VALENCE BANDS -    BAND     99; K    1; EIG -2.4836176E-01 AU
 BOTTOM OF VIRTUAL BANDS - BAND    100; K   17; EIG -1.0090696E-01 AU
 DIRECT ENERGY BAND GAP:   3.7407 eV
 BOTTOM OF VIRTUAL BANDS - BAND    100; K    1; EIG -9.2246145E-02 AU
 TTTTTTTTTTTTTTTTTTTTTTTTTTTTTT PDIG        TELAPSE      121.03 TCPU     3432.33
 CHARGE NORMALIZATION FACTOR   1.00000000
 TOTAL ATOMIC CHARGES:
   4.4508877   4.4933780   4.4938905   4.4949404   4.4934977   4.4505396
   0.8708815   0.8710507   0.8815042   0.8818062   0.8631901   0.8629293
   0.8646302   0.8642672   0.8700924   0.8710009   0.8818170   0.8814948
   5.9271435   6.1712490   6.1705441   6.1672304   6.1673013   5.9269737
   5.9580871   6.1736885   6.1753053   6.1763383   6.1770379   5.9566404
   5.9280527   6.1695126   6.1708713   6.1680659   6.1673328   5.9271626
   8.4949310   8.4939978   8.5012747   8.4930629   8.4990676   8.4973303
 TTTTTTTTTTTTTTTTTTTTTTTTTTTTTT MOQGAD      TELAPSE      121.08 TCPU     3432.39
 TTTTTTTTTTTTTTTTTTTTTTTTTTTTTT SHELLXN     TELAPSE      132.71 TCPU     3803.00
 TTTTTTTTTTTTTTTTTTTTTTTTTTTTTT MONMO3      TELAPSE      132.88 TCPU     3808.42
 NUMERICALLY INTEGRATED DENSITY    197.9999917641
 TTTTTTTTTTTTTTTTTTTTTTTTTTTTTT NUMDFT      TELAPSE      133.59 TCPU     3831.30
 CYC   8 ETOT(AU) -1.289118999981E+03 DETOT  7.71E-08 tst  8.67E-09 PX  1.35E-04
 TTTTTTTTTTTTTTTTTTTTTTTTTTTTTT DIIS        TELAPSE      133.68 TCPU     3834.05
 DIIS TEST: 0.32484E-06 AT SCF   CYCLE   8 - DIIS ACTIVE - HISTORY:     8 CYCLES
 TTTTTTTTTTTTTTTTTTTTTTTTTTTTTT FDIK        TELAPSE      134.18 TCPU     3850.07
 INSULATING STATE
 TOP OF VALENCE BANDS -    BAND     99; K   17; EIG -2.3837475E-01 AU
 TOP OF VALENCE BANDS -    BAND     99; K    1; EIG -2.4835786E-01 AU
 BOTTOM OF VIRTUAL BANDS - BAND    100; K   17; EIG -1.0090822E-01 AU
 DIRECT ENERGY BAND GAP:   3.7407 eV
 BOTTOM OF VIRTUAL BANDS - BAND    100; K    1; EIG -9.2245662E-02 AU
 TTTTTTTTTTTTTTTTTTTTTTTTTTTTTT PDIG        TELAPSE      134.51 TCPU     3856.25
 CHARGE NORMALIZATION FACTOR   1.00000000
 TOTAL ATOMIC CHARGES:
   4.4509289   4.4933501   4.4938740   4.4949151   4.4934585   4.4505702
   0.8708750   0.8710436   0.8815018   0.8818093   0.8632138   0.8629136
   0.8646256   0.8642808   0.8700857   0.8709939   0.8818343   0.8814789
   5.9272067   6.1712177   6.1706063   6.1673084   6.1672010   5.9269160
   5.9580450   6.1734713   6.1754586   6.1763964   6.1769058   5.9567951
   5.9278039   6.1694856   6.1709331   6.1678955   6.1674768   5.9274144
   8.4949443   8.4939112   8.5013854   8.4930847   8.4991180   8.4972656
 TTTTTTTTTTTTTTTTTTTTTTTTTTTTTT MOQGAD      TELAPSE      134.56 TCPU     3856.31
 TTTTTTTTTTTTTTTTTTTTTTTTTTTTTT SHELLXN     TELAPSE      146.23 TCPU     4228.29
 +++ ENERGIES IN A.U. +++
 ::: EXT EL-POLE                                  -1.6314526064308E+03
 ::: EXT EL-SPHEROPOLE                             1.7914153594551E+01
 ::: BIELET ZONE E-E                               2.3681244235982E+03
 ::: TOTAL E-E                                     7.5458597076195E+02
 ::: TOTAL E-N + N-E                              -3.3316170328182E+03
 ::: TOTAL N-N                                     1.4168220347539E+02
 ::: KINETIC ENERGY                                1.2799618752997E+03
 ::: PSEUDO TOTAL   ENERGY                        -1.1553869832812E+03
 ::: VIRIAL COEFFICIENT                            1.0511527913463E+00
 TTTTTTTTTTTTTTTTTTTTTTTTTTTTTT MONMO3      TELAPSE      146.40 TCPU     4233.77
 NUMERICALLY INTEGRATED DENSITY    197.9999917624
 EXCHANGE ENERGY: -0.126023142041E+03  CORRELATION ENERGY: -0.770887472573E+01
 TTTTTTTTTTTTTTTTTTTTTTTTTTTTTT NUMDFT      TELAPSE      147.12 TCPU     4256.83
 CYC   9 ETOT(AU) -1.289119000048E+03 DETOT -6.67E-08 tst  2.05E-09 PX  1.35E-04

 == SCF ENDED - CONVERGENCE ON ENERGY      E(AU) -1.2891190000478E+03 CYCLES   9


 ENERGY EXPRESSION=HARTREE+FOCK EXCH*0.00000+(HSESOL     EXCH)*1.00000+PBESOL     CORR


 TOTAL ENERGY(DFT)(AU)(  9) -1.2891190000478E+03 DE-6.7E-08 tester 2.1E-09
 TTTTTTTTTTTTTTTTTTTTTTTTTTTTTT EDFT        TELAPSE      147.12 TCPU     4256.84
 
 INFORMATION **** DFTD3 ENERGY **** CALCULATE DFTD3 ENERGY

           DFT-D V3(BJ)
 DF                                         hsesol3c  
 parameters
 s6       :    1.0000
 s8       :    0.0000
 a1       :    0.5196
 a2       :    4.9385
 k1 k3    :   16.0000   -4.0000
 Cutoff   :   50.2022
 CN-Cutoff:   21.1671
 ABC-Cutoff:   21.1671
 
 Edisp /kcal,au:   -30.5872 -0.04874376

 E6    /kcal :   -32.6262
 E8    /kcal :     0.0000
 E6(ABC) "   :   2.039055
 
 INFORMATION **** DFTD3 ENERGY **** NORMAL TERMINATION OF DFTD3 MODULE

 GCP ENERGY CALCULATION
  level        hsesol3c            basis:hsesol3c
  Nbf            474
  Atoms           42

  Parameters: 
  sigma     1.0000
  eta       1.4281
  alpha     0.2936
  beta      1.9467

  dmp_scal      4.0000
  dmp_exp       6.0000
 cutoffs: 
   distance [bohr] 60.0
   noise    [a.u.] 2.2E-16
 SR-damping   T
 ** gCP correction **
  Egcp:        0.0847927212 / (a.u.) ||      53.2082 / (kcal/mol)
 INFORMATION **** GCP **** NORMAL TERMINATION OF GCP MODULE

 *******************************************************************************

 DFT-D3-GCP DISPERSION AND COUNTERPOISE CORRECTION

 D3 DISPERSION ENERGY (AU)      -4.8743761061680E-02
 GCP ENERGY (AU)                 8.4792721249538E-02
 TOTAL ENERGY + DISP + GCP (AU) -1.2890829510876E+03

 *******************************************************************************

 EIGENVECTORS IN FORTRAN UNIT 10
 TTTTTTTTTTTTTTTTTTTTTTTTTTTTTT END         TELAPSE      149.05 TCPU     4264.74
 EEEEEEEEEE TERMINATION  DATE 02 12 2025 TIME 07:59:16.2
