 Default number of threads is:           32

         
 *******************************************************************************
 *                                                                             *
 *                               CRYSTAL23                                     *
 *                      public : 1.0.1 - October 2022                          *
 *                       HTTP://WWW.CRYSTAL.UNITO.IT                           *
 *                                                                             *
 *                              MAIN AUTHORS                                   *
 *                                                                             *
 *  R. DOVESI(1,11), V.R. SAUNDERS(2), C. ROETTI(1,11), R. ORLANDO(1,11),      *
 *  C.M. ZICOVICH-WILSON(1,3), F. PASCALE(4), B. CIVALLERI(1,11),              *
 *  K. DOLL(5), N.M. HARRISON(6), I.J. BUSH(7), Ph. D'ARCO(8),                 *
 *  M. LLUNELL(9), M. CAUSA'(10), Y. NOEL(8), L. MASCHIO(1,11), A. ERBA(1,11)  *
 *  M. RE'RAT(14), S. CASASSA(1,11), B.G. SEARLE(2), J.K. DESMARAIS(1)         *
 *                                                                             *
 *        CONTRIBUTIONS TO THE CODE HAVE ALSO BEEN GIVEN BY                    *
 *                                                                             *
 *  M. FERRABONE(1,11), M. DE LA PIERRE(1,11), M. FERRERO(1,11),               *
 *  J. BAIMA(1,11), E. ALBANESE(1,11), M.F. PEINTINGER(12), R. BAST(13),       *
 *  B. KIRTMAN(15), V. LACIVITA(1,11), R. DEMICHELIS(1,16)                     *
 *  G. BRANDEBURG(17), S. SALUSTRO(1,11), G. SANSONE(1,11)                     *
 *  M.T. RUGGIERO(18), L.E. DAGA(1), L. DONA'(1), A. COSSARD(1)                *
 *                                                                             *
 * (1) THEORETICAL CHEMISTRY GROUP - UNIVERSITA' DI TORINO - TORINO (ITALY)    *
 * (2) SCIENTIFIC COMPUTING DEPARTMENT - STFC DARESBURY (UK)                   *
 * (3) UNIVERSIDAD AUTONOMA DEL ESTADO DE MORELOS - CUERNAVACA (MEXICO)        *
 * (4) UNIVERSITE' DE LORRAINE - NANCY (FRANCE)                                *
 * (5) UNIVERSITAET STUTTGART- STUTTGART (GERMANY)                             *
 * (6) IMPERIAL COLLEGE - LONDON (UK)                                          *
 * (7) SCIENTIFIC COMPUTING DEPARTMENT - STFC RAL (UK)                         *
 * (8) UPMC - SORBONNE UNIVERSITES - PARIS (FRANCE)                            *
 * (9) UNIVERSIDAD DE BARCELONA - BARCELONA (SPAIN)                            *
 *(10) UNIVERSITA' DI NAPOLI "FEDERICO II" - NAPOLI (ITALY)                    *
 *(11) NIS - NANOSTRUCTURED INTERFACES AND SURFACES - TORINO (ITALY)           *
 *(12) MPI FUER CHEMISCHE ENERGIEKONVERSION - MUELHEIM AN DER RUHR (GERMANY)   *
 *(13) UNIVERSITY OF TROMSO - TROMSO (NORWAY)                                  *
 *(14) UNIVERSITE' DE PAU ET DES PAYS DE L'ADOUR - PAU (FRANCE)                *
 *(15) UNIVERSITY OF CALIFORNIA SANTA BARBARA - SANTA BARBARA (USA)            *
 *(16) CURTIN UNIVERSITY - PERTH (AUSTRALIA)                                   *
 *(17) UNIVERSITY COLLEGE LONDON - LONDON (UK)                                 *
 *(18) UNIVERSITY OF VERMONT - BURLINGTON (USA)                                *
 *                                                                             *
 *******************************************************************************
 EEEEEEEEEE STARTING  DATE 02 12 2025 TIME 07:59:18.5
 COF-5_z35_inc_L000                                                              

 CRYSTAL CALCULATION
 (INPUT ACCORDING TO THE INTERNATIONAL TABLES FOR X-RAY CRYSTALLOGRAPHY)
 CRYSTAL FAMILY                       :  TRICLINIC   
 CRYSTAL CLASS  (GROTH - 1921)        :  TRICLINIC PEDIAL                     

 SPACE GROUP (NONCENTROSYMMETRIC)     :  P 1             

 LATTICE PARAMETERS  (ANGSTROMS AND DEGREES) - CONVENTIONAL CELL
        A           B           C        ALPHA        BETA       GAMMA
    15.02070    15.04439     3.50000    90.00330    89.99929   120.05310


 NUMBER OF IRREDUCIBLE ATOMS IN THE CONVENTIONAL CELL:   42

 INPUT COORDINATES

 ATOM AT. N.              COORDINATES
   1   5     6.156164300000E-01  2.280750700000E-01  5.006701200000E-01
   2   5     7.743958300000E-01  3.871017900000E-01  5.006801100000E-01
   3   5     6.151641200000E-01  3.867891800000E-01  4.992500900000E-01
   4   5     2.287899500000E-01  6.143590000000E-01  5.054652800000E-01
   5   5     3.873645400000E-01  6.138581800000E-01  5.095093100000E-01
   6   5     3.876370900000E-01  7.731966900000E-01  5.035434700000E-01
   7   1     9.044214300000E-01  3.095486000000E-01  5.045686500000E-01
   8   1     9.886935000000E-02  6.914399800000E-01  4.929779300000E-01
   9   1     9.044870700000E-01  5.941405000000E-01  4.928396300000E-01
  10   1     9.886081000000E-02  4.067623600000E-01  5.041372100000E-01
  11   1     5.944002700000E-01  9.032291200000E-01  5.042592800000E-01
  12   1     4.082606200000E-01  9.863600000000E-02  4.946102100000E-01
  13   1     3.099203300000E-01  9.049241600000E-01  4.959171000000E-01
  14   1     6.925018400000E-01  9.691914000000E-02  5.023978900000E-01
  15   1     5.939977500000E-01  6.905649700000E-01  4.978146400000E-01
  16   1     4.066874900000E-01  3.089518100000E-01  5.060980500000E-01
  17   1     3.093234400000E-01  4.048732800000E-01  5.057331600000E-01
  18   1     6.917891600000E-01  5.947057300000E-01  4.987481200000E-01
  19   6     8.936883400000E-01  4.465308800000E-01  5.004301100000E-01
  20   6     9.482125500000E-01  3.933544000000E-01  5.021962600000E-01
  21   6     5.522963000000E-02  6.076907100000E-01  4.958031500000E-01
  22   6     9.482511500000E-01  5.541658000000E-01  4.961403200000E-01
  23   6     5.524319000000E-02  4.469193500000E-01  5.015525300000E-01
  24   6     1.097444900000E-01  5.545914500000E-01  4.993691900000E-01
  25   6     4.466001600000E-01  8.925727600000E-01  5.019116200000E-01
  26   6     5.544734200000E-01  9.470548000000E-01  5.023018100000E-01
  27   6     4.480139400000E-01  5.459988000000E-02  4.970252700000E-01
  28   6     3.938956300000E-01  9.476446600000E-01  4.981439800000E-01
  29   6     6.085567200000E-01  5.392133000000E-02  5.008643600000E-01
  30   6     5.558772400000E-01  1.089145700000E-01  4.992400500000E-01
  31   6     4.462008000000E-01  5.535192700000E-01  5.000112900000E-01
  32   6     5.540499900000E-01  6.067742600000E-01  4.994597900000E-01
  33   6     4.472124200000E-01  3.927448200000E-01  5.039834700000E-01
  34   6     3.933109600000E-01  4.457904200000E-01  5.033755100000E-01
  35   6     6.078636300000E-01  5.537097300000E-01  5.003981800000E-01
  36   6     5.551090200000E-01  4.459864200000E-01  5.016400700000E-01
  37   8     5.624997000000E-01  2.808905100000E-01  4.996399700000E-01
  38   8     7.216591500000E-01  2.811877200000E-01  5.026301100000E-01
  39   8     7.212675800000E-01  4.399315100000E-01  4.981102500000E-01
  40   8     2.816285800000E-01  7.202206700000E-01  5.027767900000E-01
  41   8     2.813888000000E-01  5.611590400000E-01  5.102647800000E-01
  42   8     4.404370800000E-01  7.199310200000E-01  5.052486000000E-01

 *******************************************************************************

 << INFORMATION >>: FROM NOW ON, ALL COORDINATES REFER TO THE PRIMITIVE CELL

 *******************************************************************************

 LATTICE PARAMETERS  (ANGSTROMS AND DEGREES) - PRIMITIVE CELL
       A          B          C        ALPHA      BETA     GAMMA        VOLUME
   15.02070   15.04439    3.50000    90.00330  89.99929 120.05310    684.590280

 COORDINATES OF THE EQUIVALENT ATOMS (FRACTIONAL UNITS)

 N. ATOM EQUIV AT. N.          X                  Y                  Z

   1   1   1    5 B    -3.84383570000E-01  2.28075070000E-01 -4.99329880000E-01

   2   2   1    5 B    -2.25604170000E-01  3.87101790000E-01 -4.99319890000E-01

   3   3   1    5 B    -3.84835880000E-01  3.86789180000E-01  4.99250090000E-01

   4   4   1    5 B     2.28789950000E-01 -3.85641000000E-01 -4.94534720000E-01

   5   5   1    5 B     3.87364540000E-01 -3.86141820000E-01 -4.90490690000E-01

   6   6   1    5 B     3.87637090000E-01 -2.26803310000E-01 -4.96456530000E-01

   7   7   1    1 H    -9.55785700000E-02  3.09548600000E-01 -4.95431350000E-01

   8   8   1    1 H     9.88693500000E-02 -3.08560020000E-01  4.92977930000E-01

   9   9   1    1 H    -9.55129300000E-02 -4.05859500000E-01  4.92839630000E-01

  10  10   1    1 H     9.88608100000E-02  4.06762360000E-01 -4.95862790000E-01

  11  11   1    1 H    -4.05599730000E-01 -9.67708800000E-02 -4.95740720000E-01

  12  12   1    1 H     4.08260620000E-01  9.86360000000E-02  4.94610210000E-01

  13  13   1    1 H     3.09920330000E-01 -9.50758400000E-02  4.95917100000E-01

  14  14   1    1 H    -3.07498160000E-01  9.69191400000E-02 -4.97602110000E-01

  15  15   1    1 H    -4.06002250000E-01 -3.09435030000E-01  4.97814640000E-01

  16  16   1    1 H     4.06687490000E-01  3.08951810000E-01 -4.93901950000E-01

  17  17   1    1 H     3.09323440000E-01  4.04873280000E-01 -4.94266840000E-01

  18  18   1    1 H    -3.08210840000E-01 -4.05294270000E-01  4.98748120000E-01

  19  19   1    6 C    -1.06311660000E-01  4.46530880000E-01 -4.99569890000E-01

  20  20   1    6 C    -5.17874500000E-02  3.93354400000E-01 -4.97803740000E-01

  21  21   1    6 C     5.52296300000E-02 -3.92309290000E-01  4.95803150000E-01

  22  22   1    6 C    -5.17488500000E-02 -4.45834200000E-01  4.96140320000E-01

  23  23   1    6 C     5.52431900000E-02  4.46919350000E-01 -4.98447470000E-01

  24  24   1    6 C     1.09744490000E-01 -4.45408550000E-01  4.99369190000E-01

  25  25   1    6 C     4.46600160000E-01 -1.07427240000E-01 -4.98088380000E-01

  26  26   1    6 C    -4.45526580000E-01 -5.29452000000E-02 -4.97698190000E-01

  27  27   1    6 C     4.48013940000E-01  5.45998800000E-02  4.97025270000E-01

  28  28   1    6 C     3.93895630000E-01 -5.23553400000E-02  4.98143980000E-01

  29  29   1    6 C    -3.91443280000E-01  5.39213300000E-02 -4.99135640000E-01

  30  30   1    6 C    -4.44122760000E-01  1.08914570000E-01  4.99240050000E-01

  31  31   1    6 C     4.46200800000E-01 -4.46480730000E-01 -4.99988710000E-01

  32  32   1    6 C    -4.45950010000E-01 -3.93225740000E-01  4.99459790000E-01

  33  33   1    6 C     4.47212420000E-01  3.92744820000E-01 -4.96016530000E-01

  34  34   1    6 C     3.93310960000E-01  4.45790420000E-01 -4.96624490000E-01

  35  35   1    6 C    -3.92136370000E-01 -4.46290270000E-01 -4.99601820000E-01

  36  36   1    6 C    -4.44890980000E-01  4.45986420000E-01 -4.98359930000E-01

  37  37   1    8 O    -4.37500300000E-01  2.80890510000E-01  4.99639970000E-01

  38  38   1    8 O    -2.78340850000E-01  2.81187720000E-01 -4.97369890000E-01

  39  39   1    8 O    -2.78732420000E-01  4.39931510000E-01  4.98110250000E-01

  40  40   1    8 O     2.81628580000E-01 -2.79779330000E-01 -4.97223210000E-01

  41  41   1    8 O     2.81388800000E-01 -4.38840960000E-01 -4.89735220000E-01

  42  42   1    8 O     4.40437080000E-01 -2.80068980000E-01 -4.94751400000E-01

 NUMBER OF SYMMETRY OPERATORS         :    1
 *******************************************************************************
 * GEOMETRY EDITING - INPUT COORDINATES ARE GIVEN IN ANGSTROM         
 *******************************************************************************

 GCALCO - MAX INDICES DIRECT LATTICE VECTOR     9     9    37
 NO.OF VECTORS CREATED 6999 STARS 3500 RMAX   198.59679 BOHR

 GEOMETRY FOR WAVE FUNCTION - DIMENSIONALITY OF THE SYSTEM    3
 (NON PERIODIC DIRECTION: LATTICE PARAMETER FORMALLY SET TO 500)
 *******************************************************************************
 LATTICE PARAMETERS (ANGSTROMS AND DEGREES) - BOHR = 0.5291772083 ANGSTROM
 PRIMITIVE CELL - CENTRING CODE 1/0 VOLUME=   684.590280 - DENSITY  0.946 g/cm^3
         A              B              C           ALPHA      BETA       GAMMA 
    15.02070100    15.04438700     3.50000000    90.003305  89.999286 120.053104
 *******************************************************************************
 ATOMS IN THE ASYMMETRIC UNIT   42 - ATOMS IN THE UNIT CELL:   42
     ATOM                 X/A                 Y/B                 Z/C    
 *******************************************************************************
      1 T   5 B    -3.843835700000E-01  2.280750700000E-01 -4.993298800000E-01
      2 T   5 B    -2.256041700000E-01  3.871017900000E-01 -4.993198900000E-01
      3 T   5 B    -3.848358800000E-01  3.867891800000E-01  4.992500900000E-01
      4 T   5 B     2.287899500000E-01 -3.856410000000E-01 -4.945347200000E-01
      5 T   5 B     3.873645400000E-01 -3.861418200000E-01 -4.904906900000E-01
      6 T   5 B     3.876370900000E-01 -2.268033100000E-01 -4.964565300000E-01
      7 T   1 H    -9.557857000000E-02  3.095486000000E-01 -4.954313500000E-01
      8 T   1 H     9.886935000000E-02 -3.085600200000E-01  4.929779300000E-01
      9 T   1 H    -9.551293000000E-02 -4.058595000000E-01  4.928396300000E-01
     10 T   1 H     9.886081000000E-02  4.067623600000E-01 -4.958627900000E-01
     11 T   1 H    -4.055997300000E-01 -9.677088000000E-02 -4.957407200000E-01
     12 T   1 H     4.082606200000E-01  9.863600000000E-02  4.946102100000E-01
     13 T   1 H     3.099203300000E-01 -9.507584000000E-02  4.959171000000E-01
     14 T   1 H    -3.074981600000E-01  9.691914000000E-02 -4.976021100000E-01
     15 T   1 H    -4.060022500000E-01 -3.094350300000E-01  4.978146400000E-01
     16 T   1 H     4.066874900000E-01  3.089518100000E-01 -4.939019500000E-01
     17 T   1 H     3.093234400000E-01  4.048732800000E-01 -4.942668400000E-01
     18 T   1 H    -3.082108400000E-01 -4.052942700000E-01  4.987481200000E-01
     19 T   6 C    -1.063116600000E-01  4.465308800000E-01 -4.995698900000E-01
     20 T   6 C    -5.178745000000E-02  3.933544000000E-01 -4.978037400000E-01
     21 T   6 C     5.522963000000E-02 -3.923092900000E-01  4.958031500000E-01
     22 T   6 C    -5.174885000000E-02 -4.458342000000E-01  4.961403200000E-01
     23 T   6 C     5.524319000000E-02  4.469193500000E-01 -4.984474700000E-01
     24 T   6 C     1.097444900000E-01 -4.454085500000E-01  4.993691900000E-01
     25 T   6 C     4.466001600000E-01 -1.074272400000E-01 -4.980883800000E-01
     26 T   6 C    -4.455265800000E-01 -5.294520000000E-02 -4.976981900000E-01
     27 T   6 C     4.480139400000E-01  5.459988000000E-02  4.970252700000E-01
     28 T   6 C     3.938956300000E-01 -5.235534000000E-02  4.981439800000E-01
     29 T   6 C    -3.914432800000E-01  5.392133000000E-02 -4.991356400000E-01
     30 T   6 C    -4.441227600000E-01  1.089145700000E-01  4.992400500000E-01
     31 T   6 C     4.462008000000E-01 -4.464807300000E-01 -4.999887100000E-01
     32 T   6 C    -4.459500100000E-01 -3.932257400000E-01  4.994597900000E-01
     33 T   6 C     4.472124200000E-01  3.927448200000E-01 -4.960165300000E-01
     34 T   6 C     3.933109600000E-01  4.457904200000E-01 -4.966244900000E-01
     35 T   6 C    -3.921363700000E-01 -4.462902700000E-01 -4.996018200000E-01
     36 T   6 C    -4.448909800000E-01  4.459864200000E-01 -4.983599300000E-01
     37 T   8 O    -4.375003000000E-01  2.808905100000E-01  4.996399700000E-01
     38 T   8 O    -2.783408500000E-01  2.811877200000E-01 -4.973698900000E-01
     39 T   8 O    -2.787324200000E-01  4.399315100000E-01  4.981102500000E-01
     40 T   8 O     2.816285800000E-01 -2.797793300000E-01 -4.972232100000E-01
     41 T   8 O     2.813888000000E-01 -4.388409600000E-01 -4.897352200000E-01
     42 T   8 O     4.404370800000E-01 -2.800689800000E-01 -4.947514000000E-01

 T = ATOM BELONGING TO THE ASYMMETRIC UNIT

 ****    1 SYMMOPS - TRANSLATORS IN FRACTIONAL UNITS
 **** MATRICES AND TRANSLATORS IN THE CRYSTALLOGRAPHIC REFERENCE FRAME
   V INV                    ROTATION MATRICES                   TRANSLATORS
   1   1  1.00 -0.00  0.00  0.00  1.00  0.00 -0.00  0.00  1.00  0.00  0.00  0.00

 DIRECT LATTICE VECTORS CARTESIAN COMPONENTS (ANGSTROM)
          X                    Y                    Z
   0.130013421718E+02  -0.752240388864E+01   0.000000000000E+00
   0.000000000000E+00   0.150443870000E+02   0.000000000000E+00
  -0.664212801439E-04  -0.201890961112E-03   0.349999999355E+01


 CARTESIAN COORDINATES - PRIMITIVE CELL
 *******************************************************************************
 *      ATOM          X(ANGSTROM)         Y(ANGSTROM)         Z(ANGSTROM)
 *******************************************************************************
    1     5 B    -4.997469152648E+00  6.322838890020E+00 -1.747654576778E+00
    2     5 B    -2.933123844083E+00  7.520895631027E+00 -1.747619611778E+00
    3     5 B    -5.003416116686E+00 -6.330590762547E+00  1.747375311778E+00
    4     5 B     2.974609273042E+00  7.521703985461E+00 -1.730871516809E+00
    5     5 B    -7.965050663003E+00 -1.200676584703E+00 -1.716717411835E+00
    6     5 B    -7.961506750935E+00  1.194424597009E+00 -1.737597851796E+00
    7     1 H    -1.242616785674E+00  5.376049563458E+00 -1.734009721803E+00
    8     1 H     1.285401505426E+00 -5.385931064303E+00  1.725422751819E+00
    9     1 H    -1.241829019798E+00 -5.387520049445E+00  1.724938701820E+00
   10     1 H     1.285356154030E+00  5.375919529510E+00 -1.735519761800E+00
   11     1 H    -5.273307946776E+00  1.595326502704E+00 -1.735092516801E+00
   12     1 H     5.307903163237E+00 -1.587282976666E+00  1.731135731808E+00
   13     1 H     4.029347316870E+00 -3.761803748051E+00  1.735709846800E+00
   14     1 H    -3.997855743982E+00  3.771314865770E+00 -1.741607381789E+00
   15     1 H    -5.278607240246E+00 -1.601247942755E+00  1.742351236788E+00
   16     1 H     5.287516020070E+00  1.588822752092E+00 -1.728656821813E+00
   17     1 H     4.021652715026E+00  3.764314250383E+00 -1.729933936810E+00
   18     1 H    -4.007187719378E+00 -3.779018118162E+00  1.745618416782E+00
   19     6 C    -1.382161086438E+00  7.517603469408E+00 -1.748494611776E+00
   20     6 C    -6.732732928920E-01  6.307442439091E+00 -1.742313086788E+00
   21     6 C     7.180263857705E-01 -6.317612464110E+00  1.735311021801E+00
   22     6 C    -6.728374601210E-01 -6.318126658409E+00  1.736491116798E+00
   23     6 C     7.182687233694E-01  6.308166703950E+00 -1.744566141783E+00
   24     6 C     1.426792497216E+00  7.517845204232E+00  1.747792161778E+00
   25     6 C    -7.194907593977E+00  2.546820695030E+00 -1.743309326786E+00
   26     6 C    -5.792410455449E+00  2.555003280059E+00 -1.741943661788E+00
   27     6 C     5.824749518610E+00 -2.548820424458E+00  1.739588441793E+00
   28     6 C     5.121138778236E+00 -3.750796586075E+00  1.743503926785E+00
   29     6 C    -5.089254870893E+00  3.755908578704E+00 -1.746974736779E+00
   30     6 C    -5.774225129196E+00  4.979322925824E+00  1.747340171778E+00
   31     6 C    -7.200099683764E+00 -2.551026691354E+00 -1.749960481774E+00
   32     6 C    -5.797981846275E+00 -2.561324957974E+00  1.748109261777E+00
   33     6 C     5.814394641940E+00  2.544592758322E+00 -1.736057851799E+00
   34     6 C     5.113603357303E+00  3.748099968419E+00 -1.738185711795E+00
   35     6 C    -5.098265940175E+00 -3.764254516557E+00 -1.748606366776E+00
   36     6 C    -5.784146758411E+00 -4.988044448436E+00 -1.744259751784E+00
   37     8 O     7.313217884494E+00 -5.625266366383E-03  1.748739891776E+00
   38     8 O    -3.618771595288E+00  6.324189586221E+00 -1.740794611790E+00
   39     8 O    -3.623928651907E+00 -6.329249833924E+00  1.743385871786E+00
   40     8 O     3.661582560133E+00 -6.327532055594E+00 -1.740281231791E+00
   41     8 O     3.658464600945E+00  6.325672436082E+00 -1.714073266840E+00
   42     8 O    -7.275036127536E+00 -4.107950631690E-03 -1.731629896807E+00

 *******************************************************************************
 STARTING BASIS SET HANDLING 
 *******************************************************************************

 Loading internal basis set: SOLDEF2MSVP         

 Please cite in your publication:
 L. Dona', J. G. Brandenburg and B. Civalleri, J. Chem. Phys., 151, 121101 (2019
 )                                                                              
                                                                                
                    

 *******************************************************************************
 LOCAL ATOMIC FUNCTIONS BASIS SET
 *******************************************************************************
   ATOM   X(AU)   Y(AU)   Z(AU)  N. TYPE  EXPONENT  S COEF   P COEF   D/F/G COEF
 *******************************************************************************
   1 B   -9.444  11.948  -3.303
                                  1 S  
                                         2.410E+03 1.755E-03 0.000E+00 0.000E+00
                                         3.619E+02 1.344E-02 0.000E+00 0.000E+00
                                         8.231E+01 6.637E-02 0.000E+00 0.000E+00
                                         2.311E+01 2.303E-01 0.000E+00 0.000E+00
                                         7.252E+00 5.150E-01 0.000E+00 0.000E+00
                                  2 S  
                                         2.367E+00 1.000E+00 0.000E+00 0.000E+00
                                  3 S  
                                         5.533E-01 1.000E+00 0.000E+00 0.000E+00
                                  4 S  
                                         1.716E-01 1.000E+00 0.000E+00 0.000E+00
                           5-     7 P  
                                         6.002E+00 0.000E+00-3.555E-02 0.000E+00
                                         1.240E+00 0.000E+00-1.983E-01 0.000E+00
                                         3.367E-01 0.000E+00-5.048E-01 0.000E+00
                           8-    10 P  
                                         1.256E-01 0.000E+00 1.000E+00 0.000E+00
                          11-    15 D  
                                         8.880E-01 0.000E+00 0.000E+00 1.000E+00
   2 B   -5.543  14.212  -3.303
   3 B   -9.455 -11.963   3.302
   4 B    5.621  14.214  -3.271
   5 B  -15.052  -2.269  -3.244
   6 B  -15.045   2.257  -3.284
   7 H   -2.348  10.159  -3.277
                                 91 S  
                                         1.874E+01 1.968E-02 0.000E+00 0.000E+00
                                         2.826E+00 1.380E-01 0.000E+00 0.000E+00
                                         6.401E-01 4.783E-01 0.000E+00 0.000E+00
                                 92 S  
                                         1.756E-01 1.000E+00 0.000E+00 0.000E+00
   8 H    2.429 -10.178   3.261
   9 H   -2.347 -10.181   3.260
  10 H    2.429  10.159  -3.280
  11 H   -9.965   3.015  -3.279
  12 H   10.030  -3.000   3.271
  13 H    7.614  -7.109   3.280
  14 H   -7.555   7.127  -3.291
  15 H   -9.975  -3.026   3.293
  16 H    9.992   3.002  -3.267
  17 H    7.600   7.114  -3.269
  18 H   -7.572  -7.141   3.299
  19 C   -2.612  14.206  -3.304
                                115 S  
                                         3.624E+03 1.634E-03 0.000E+00 0.000E+00
                                         5.440E+02 1.252E-02 0.000E+00 0.000E+00
                                         1.237E+02 6.211E-02 0.000E+00 0.000E+00
                                         3.476E+01 2.182E-01 0.000E+00 0.000E+00
                                         1.093E+01 4.980E-01 0.000E+00 0.000E+00
                                116 S  
                                         3.574E+00 1.000E+00 0.000E+00 0.000E+00
                                117 S  
                                         7.742E-01 1.000E+00 0.000E+00 0.000E+00
                                118 S  
                                         2.330E-01 1.000E+00 0.000E+00 0.000E+00
                         119-   121 P  
                                         9.443E+00 0.000E+00 3.790E-02 0.000E+00
                                         2.002E+00 0.000E+00 2.082E-01 0.000E+00
                                         5.463E-01 0.000E+00 5.047E-01 0.000E+00
                         122-   124 P  
                                         1.820E-01 0.000E+00 1.000E+00 0.000E+00
                         125-   129 D  
                                         8.880E-01 0.000E+00 0.000E+00 1.000E+00
  20 C   -1.272  11.919  -3.292
  21 C    1.357 -11.939   3.279
  22 C   -1.271 -11.940   3.281
  23 C    1.357  11.921  -3.297
  24 C    2.696  14.207   3.303
  25 C  -13.596   4.813  -3.294
  26 C  -10.946   4.828  -3.292
  27 C   11.007  -4.817   3.287
  28 C    9.678  -7.088   3.295
  29 C   -9.617   7.098  -3.301
  30 C  -10.912   9.410   3.302
  31 C  -13.606  -4.821  -3.307
  32 C  -10.957  -4.840   3.303
  33 C   10.988   4.809  -3.281
  34 C    9.663   7.083  -3.285
  35 C   -9.634  -7.113  -3.304
  36 C  -10.930  -9.426  -3.296
  37 O   13.820  -0.011   3.305
                                385 S  
                                         6.773E+03 1.727E-03 0.000E+00 0.000E+00
                                         1.017E+03 1.325E-02 0.000E+00 0.000E+00
                                         2.313E+02 6.603E-02 0.000E+00 0.000E+00
                                         6.501E+01 2.353E-01 0.000E+00 0.000E+00
                                         2.050E+01 5.498E-01 0.000E+00 0.000E+00
                                386 S  
                                         6.716E+00 1.000E+00 0.000E+00 0.000E+00
                                387 S  
                                         1.147E+00 1.000E+00 0.000E+00 0.000E+00
                                388 S  
                                         3.342E-01 1.000E+00 0.000E+00 0.000E+00
                         389-   391 P  
                                         1.769E+01 0.000E+00 4.359E-02 0.000E+00
                                         3.854E+00 0.000E+00 2.318E-01 0.000E+00
                                         1.047E+00 0.000E+00 5.146E-01 0.000E+00
                         392-   394 P  
                                         2.759E-01 0.000E+00 1.000E+00 0.000E+00
                         395-   399 D  
                                         8.000E-01 0.000E+00 0.000E+00 1.000E+00
  38 O   -6.838  11.951  -3.290
  39 O   -6.848 -11.961   3.295
  40 O    6.919 -11.957  -3.289
  41 O    6.913  11.954  -3.239
  42 O  -13.748  -0.008  -3.272

 *******************************************************************************
 FINISHED BASIS SET HANDLING 
 *******************************************************************************

 INFORMATION **** SET_MPP **** PCRYSTAL CALCULATION
 INFORMATION **** READM2 **** NEW DEFAULT: FOCK/KS MATRIX MIXING SET TO 30 %
 INFORMATION **** READM2 **** NEW DEFAULT: FULL DIRECT SCF MODE
 INFORMATION **** READM2 **** NEW DEFAULT: COULOMB BIPOLAR BUFFER SET TO 32 Mb
 INFORMATION **** READM2 **** NEW DEFAULT: EXCHANGE BIPOLAR BUFFER SET TO 32 Mb

 *******************************************************************************
 NEW DEFAULT: DFT INTEGRATION GRID INCREASED TO XLGRID
 NEW DEFAULT: DIIS ACCELERATOR ACTIVE
 USE KEYWORD NODIIS TO TURN IT OFF
 *******************************************************************************

 WARNING **** RDDFTP **** HSEsol-HJS ACTIVE
 RANGE SEPARATION - OMEGA:   0.110000000000000     
 WARNING **** RDDFTP **** HSEsol-3c has to be combined with sol-def2-mSVP basis set
 *******************************************************************************
 N. OF ATOMS PER CELL        42  COULOMB OVERLAP TOL         (T1) 10**   -6
 NUMBER OF SHELLS           234  COULOMB PENETRATION TOL     (T2) 10**   -6
 NUMBER OF AO               474  EXCHANGE OVERLAP TOL        (T3) 10**   -6
 N. OF ELECTRONS PER CELL   198  EXCHANGE PSEUDO OVP (F(G))  (T4) 10**   -6
 CORE ELECTRONS PER CELL     60  EXCHANGE PSEUDO OVP (P(G))  (T5) 10**  -12
 N. OF SYMMETRY OPERATORS     1  POLE ORDER IN MONO ZONE                  4
 *******************************************************************************
 TYPE OF CALCULATION :  RESTRICTED CLOSED SHELL
 KOHN-SHAM HAMILTONIAN

 (EXCHANGE)[CORRELATION] FUNCTIONAL:(HSEsol GGA)[PBEsol]

 RANGE-SEPARATED HYBRID FUNCTIONAL 
 OMEGA (SHORT-RANGE)[LONG-RANGE]:(    0.1100)[    0.0000]

 HYBRID EXCHANGE - PERCENTAGE OF FOCK EXCHANGE    25.0000

 CAPPA:IS1  2;IS2  2;IS3  8; K PTS MONK NET  20; SYMMOPS:K SPACE   2;G SPACE   1

 *******************************************************************************
 MAX NUMBER OF SCF CYCLES      50  CONVERGENCE ON DELTAP        10**-16
 WEIGHT OF F(I) IN F(I+1)      30% CONVERGENCE ON ENERGY        10**- 6
 SHRINK. FACT.(MONKH.)    2  2  8  NUMBER OF K POINTS IN THE IBZ     20
 SHRINKING FACTOR(GILAT NET)    8  NUMBER OF K POINTS(GILAT NET)   1028
 *******************************************************************************
 *** K POINTS COORDINATES (OBLIQUE COORDINATES IN UNITS OF IS =  2)
   1-R(  0  0  0)   2-R(  1  0  0)   3-R(  0  1  0)   4-R(  1  1  0)
   5-C(  0  0  1)   6-C(  1  0  1)   7-C(  0  1  1)   8-C(  1  1  1)
   9-C(  0  0  2)  10-C(  1  0  2)  11-C(  0  1  2)  12-C(  1  1  2)
  13-C(  0  0  3)  14-C(  1  0  3)  15-C(  0  1  3)  16-C(  1  1  3)
  17-R(  0  0  4)  18-R(  1  0  4)  19-R(  0  1  4)  20-R(  1  1  4)

 DIRECT LATTICE VECTORS COMPON. (A.U.)     RECIP. LATTICE VECTORS COMPON. (A.U.) 
        X            Y            Z              X            Y            Z
   24.5689761  -14.2152832    0.0000000      0.2557366    0.0000000    0.0000049
    0.0000000   28.4297713    0.0000000      0.1278719    0.2210072    0.0000152
   -0.0001255   -0.0003815    6.6140415      0.0000000    0.0000000    0.9499767

 DISK SPACE FOR EIGENVECTORS (FTN 10)     7189632 REALS

 SYMMETRY ADAPTION OF THE BLOCH FUNCTIONS DISABLED
 TTTTTTTTTTTTTTTTTTTTTTTTTTTTTT gordsh1     TELAPSE        0.04 TCPU        0.04

 MATRIX SIZE: P(G)  384880, F(G)   80050, P(G) IRR  194891, F(G) IRR   80890
 MAX G-VECTOR INDEX FOR 1- AND 2-ELECTRON INTEGRALS 121

 TTTTTTTTTTTTTTTTTTTTTTTTTTTTTT INPUT       TELAPSE        0.29 TCPU        0.29

 NEIGHBORS OF THE NON-EQUIVALENT ATOMS

 N = NUMBER OF NEIGHBORS AT DISTANCE R
    ATOM  N     R/ANG      R/AU   NEIGHBORS (ATOM LABELS AND CELL INDICES)
   1 B    1     1.3787     2.6054   38 O    0 0 0
   1 B    1     1.3795     2.6068   37 O   -1 0-1
   1 B    1     1.5517     2.9323   30 C    0 0-1
   1 B    1     2.3868     4.5104    2 B    0 0 0
   1 B    1     2.3912     4.5187    3 B    0 1-1
   1 B    1     2.5629     4.8432   27 C   -1 0-1

   2 B    1     1.3792     2.6064   38 O    0 0 0
   2 B    1     1.3798     2.6075   39 O    0 1-1
   2 B    1     1.5510     2.9309   19 C    0 0 0
   2 B    1     2.3868     4.5104    1 B    0 0 0
   2 B    1     2.3894     4.5154    3 B    0 1-1
   2 B    1     2.5618     4.8411   22 C    0 1-1

   3 B    1     1.3790     2.6060   37 O   -1-1 0
   3 B    1     1.3795     2.6069   39 O    0 0 0
   3 B    1     1.5529     2.9346   36 C    0 0 1
   3 B    1     2.3894     4.5154    2 B    0-1 1
   3 B    1     2.3912     4.5187    1 B    0-1 1
   3 B    1     2.5679     4.8526   35 C    0 0 1

   4 B    1     1.3778     2.6037   41 O    0 0 0
   4 B    1     1.3786     2.6051   40 O    0 1 0
   4 B    1     1.5479     2.9251   24 C    0 0-1
   4 B    1     2.3857     4.5084    5 B    1 1 0
   4 B    1     2.3859     4.5087    6 B    1 1 0
   4 B    1     2.5585     4.8348   21 C    0 1-1

   5 B    1     1.3778     2.6037   41 O   -1-1 0
   5 B    1     1.3813     2.6104   42 O    0 0 0
   5 B    1     1.5523     2.9335   31 C    0 0 0
   5 B    1     2.3857     4.5084    4 B   -1-1 0
   5 B    1     2.3952     4.5263    6 B    0 0 0
   5 B    1     2.5590     4.8358   32 C    0 0-1

   6 B    1     1.3783     2.6045   40 O   -1 0 0
   6 B    1     1.3812     2.6101   42 O    0 0 0
   6 B    1     1.5546     2.9377   25 C    0 0 0
   6 B    1     2.3859     4.5087    4 B   -1-1 0
   6 B    1     2.3952     4.5263    5 B    0 0 0
   6 B    1     2.5605     4.8386   26 C    0 0 0

   7 H    1     1.0917     2.0629   20 C    0 0 0
   7 H    1     2.1461     4.0556   19 C    0 0 0
   7 H    1     2.1712     4.1029   23 C    0 0 0
   7 H    1     2.5280     4.7772   10 H    0 0 0
   7 H    1     2.5583     4.8346   38 O    0 0 0
   7 H    1     2.7310     5.1608    2 B    0 0 0

   8 H    1     1.0909     2.0615   21 C    0 0 0
   8 H    1     2.1454     4.0542   24 C    0-1 0
   8 H    1     2.1688     4.0985   22 C    0 0 0
   8 H    1     2.5272     4.7758    9 H    0 0 0
   8 H    1     2.5562     4.8305   40 O    0 0 1
   8 H    1     2.7243     5.1481    4 B    0-1 1

   9 H    1     1.0908     2.0614   22 C    0 0 0
   9 H    1     2.1442     4.0520   19 C    0-1 1
   9 H    1     2.1694     4.0995   21 C    0 0 0
   9 H    1     2.5272     4.7758    8 H    0 0 0
   9 H    1     2.5616     4.8406   39 O    0 0 0
   9 H    1     2.7248     5.1492    2 B    0-1 1

  10 H    1     1.0912     2.0621   23 C    0 0 0
  10 H    1     2.1469     4.0570   24 C    0 0-1
  10 H    1     2.1689     4.0986   20 C    0 0 0
  10 H    1     2.5280     4.7772    7 H    0 0 0
  10 H    1     2.5562     4.8305   41 O    0 0 0
  10 H    1     2.7309     5.1607    4 B    0 0 0

  11 H    1     1.0911     2.0619   26 C    0 0 0
  11 H    1     2.1443     4.0521   25 C    0 0 0
  11 H    1     2.1684     4.0978   29 C    0 0 0
  11 H    1     2.5223     4.7664   14 H    0 0 0
  11 H    1     2.5622     4.8419   42 O    0 0 0
  11 H    1     2.7179     5.1361    6 B    0 0 0

  12 H    1     1.0917     2.0630   27 C    0 0 0
  12 H    1     2.1441     4.0518   30 C    1 0 0
  12 H    1     2.1716     4.1037   28 C    0 0 0
  12 H    1     2.5226     4.7669   13 H    0 0 0
  12 H    1     2.5541     4.8265   37 O    0 0 0
  12 H    1     2.7237     5.1470    1 B    1 0 1

  13 H    1     1.0919     2.0633   28 C    0 0 0
  13 H    1     2.1522     4.0671   25 C    1 0 1
  13 H    1     2.1668     4.0946   27 C    0 0 0
  13 H    1     2.5226     4.7669   12 H    0 0 0
  13 H    1     2.5923     4.8987   40 O    0 0 1
  13 H    1     2.7583     5.2123    6 B    1 0 1

  14 H    1     1.0915     2.0627   29 C    0 0 0
  14 H    1     2.1483     4.0597   30 C    0 0-1
  14 H    1     2.1679     4.0968   26 C    0 0 0
  14 H    1     2.5223     4.7664   11 H    0 0 0
  14 H    1     2.5809     4.8771   38 O    0 0 0
  14 H    1     2.7404     5.1785    1 B    0 0 0

  15 H    1     1.0916     2.0628   32 C    0 0 0
  15 H    1     2.1436     4.0508   31 C    0 0 1
  15 H    1     2.1707     4.1021   35 C    0 0 1
  15 H    1     2.5217     4.7654   18 H    0 0 0
  15 H    1     2.5567     4.8315   42 O    0 0 1
  15 H    1     2.7165     5.1334    5 B    0 0 1

  16 H    1     1.0914     2.0624   33 C    0 0 0
  16 H    1     2.1488     4.0606   36 C    1 1 0
  16 H    1     2.1663     4.0937   34 C    0 0 0
  16 H    1     2.5170     4.7564   17 H    0 0 0
  16 H    1     2.5780     4.8716   37 O    0 0-1
  16 H    1     2.7395     5.1770    3 B    1 1-1

  17 H    1     1.0921     2.0638   34 C    0 0 0
  17 H    1     2.1502     4.0633   31 C    1 1 0
  17 H    1     2.1683     4.0976   33 C    0 0 0
  17 H    1     2.5170     4.7564   16 H    0 0 0
  17 H    1     2.5870     4.8888   41 O    0 0 0
  17 H    1     2.7510     5.1986    5 B    1 1 0

  18 H    1     1.0913     2.0622   35 C    0 0 1
  18 H    1     2.1495     4.0619   36 C    0 0 1
  18 H    1     2.1656     4.0923   32 C    0 0 0
  18 H    1     2.5217     4.7654   15 H    0 0 0
  18 H    1     2.5789     4.8734   39 O    0 0 0
  18 H    1     2.7392     5.1763    3 B    0 0 0

  19 C    1     1.4017     2.6489   22 C    0 1-1
  19 C    1     1.4025     2.6504   20 C    0 0 0
  19 C    1     1.5510     2.9309    2 B    0 0 0
  19 C    1     2.1442     4.0520    9 H    0 1-1
  19 C    1     2.1461     4.0556    7 H    0 0 0
  19 C    1     2.4236     4.5800   21 C    0 1-1

  20 C    1     1.0917     2.0629    7 H    0 0 0
  20 C    1     1.3915     2.6296   23 C    0 0 0
  20 C    1     1.4025     2.6504   19 C    0 0 0
  20 C    1     2.1689     4.0986   10 H    0 0 0
  20 C    1     2.4191     4.5715   22 C    0 1-1
  20 C    1     2.4241     4.5809   24 C    0 0-1

  21 C    1     1.0909     2.0615    8 H    0 0 0
  21 C    1     1.3909     2.6284   22 C    0 0 0
  21 C    1     1.4014     2.6483   24 C    0-1 0
  21 C    1     2.1694     4.0995    9 H    0 0 0
  21 C    1     2.4189     4.5710   23 C    0-1 1
  21 C    1     2.4236     4.5800   19 C    0-1 1

  22 C    1     1.0908     2.0614    9 H    0 0 0
  22 C    1     1.3909     2.6284   21 C    0 0 0
  22 C    1     1.4017     2.6489   19 C    0-1 1
  22 C    1     2.1688     4.0985    8 H    0 0 0
  22 C    1     2.4191     4.5715   20 C    0-1 1
  22 C    1     2.4226     4.5780   24 C    0-1 0

  23 C    1     1.0912     2.0621   10 H    0 0 0
  23 C    1     1.3915     2.6296   20 C    0 0 0
  23 C    1     1.4021     2.6496   24 C    0 0-1
  23 C    1     2.1712     4.1029    7 H    0 0 0
  23 C    1     2.4189     4.5710   21 C    0 1-1
  23 C    1     2.4237     4.5802   19 C    0 0 0

  24 C    1     1.4014     2.6483   21 C    0 1 0
  24 C    1     1.4021     2.6496   23 C    0 0 1
  24 C    1     1.5479     2.9251    4 B    0 0 1
  24 C    1     2.1454     4.0542    8 H    0 1 0
  24 C    1     2.1469     4.0570   10 H    0 0 1
  24 C    1     2.4226     4.5780   22 C    0 1 0

  25 C    1     1.4025     2.6504   26 C    0 0 0
  25 C    1     1.4037     2.6526   28 C   -1 0-1
  25 C    1     1.5546     2.9377    6 B    0 0 0
  25 C    1     2.1443     4.0521   11 H    0 0 0
  25 C    1     2.1522     4.0671   13 H   -1 0-1
  25 C    1     2.4271     4.5865   27 C   -1 0-1

  26 C    1     1.0911     2.0619   11 H    0 0 0
  26 C    1     1.3916     2.6298   29 C    0 0 0
  26 C    1     1.4025     2.6504   25 C    0 0 0
  26 C    1     2.1679     4.0968   14 H    0 0 0
  26 C    1     2.4165     4.5665   28 C   -1 0-1
  26 C    1     2.4246     4.5819   30 C    0 0-1

  27 C    1     1.0917     2.0630   12 H    0 0 0
  27 C    1     1.3928     2.6320   28 C    0 0 0
  27 C    1     1.4024     2.6502   30 C    1 0 0
  27 C    1     2.1668     4.0946   13 H    0 0 0
  27 C    1     2.4166     4.5668   29 C    1 0 1
  27 C    1     2.4271     4.5865   25 C    1 0 1

  28 C    1     1.0919     2.0633   13 H    0 0 0
  28 C    1     1.3928     2.6320   27 C    0 0 0
  28 C    1     1.4037     2.6526   25 C    1 0 1
  28 C    1     2.1716     4.1037   12 H    0 0 0
  28 C    1     2.4165     4.5665   26 C    1 0 1
  28 C    1     2.4277     4.5877   30 C    1 0 0

  29 C    1     1.0915     2.0627   14 H    0 0 0
  29 C    1     1.3916     2.6298   26 C    0 0 0
  29 C    1     1.4023     2.6499   30 C    0 0-1
  29 C    1     2.1684     4.0978   11 H    0 0 0
  29 C    1     2.4166     4.5668   27 C   -1 0-1
  29 C    1     2.4281     4.5884   25 C    0 0 0

  30 C    1     1.4023     2.6499   29 C    0 0 1
  30 C    1     1.4024     2.6502   27 C   -1 0 0
  30 C    1     1.5517     2.9323    1 B    0 0 1
  30 C    1     2.1441     4.0518   12 H   -1 0 0
  30 C    1     2.1483     4.0597   14 H    0 0 1
  30 C    1     2.4246     4.5819   26 C    0 0 1

  31 C    1     1.4022     2.6498   32 C    0 0-1
  31 C    1     1.4030     2.6513   34 C   -1-1 0
  31 C    1     1.5523     2.9335    5 B    0 0 0
  31 C    1     2.1436     4.0508   15 H    0 0-1
  31 C    1     2.1502     4.0633   17 H   -1-1 0
  31 C    1     2.4264     4.5853   33 C   -1-1 0

  32 C    1     1.0916     2.0628   15 H    0 0 0
  32 C    1     1.3918     2.6301   35 C    0 0 1
  32 C    1     1.4022     2.6498   31 C    0 0 1
  32 C    1     2.1656     4.0923   18 H    0 0 0
  32 C    1     2.4163     4.5661   34 C   -1-1 1
  32 C    1     2.4270     4.5863   36 C    0 0 1

  33 C    1     1.0914     2.0624   16 H    0 0 0
  33 C    1     1.3927     2.6318   34 C    0 0 0
  33 C    1     1.4029     2.6510   36 C    1 1 0
  33 C    1     2.1683     4.0976   17 H    0 0 0
  33 C    1     2.4155     4.5646   35 C    1 1 0
  33 C    1     2.4264     4.5853   31 C    1 1 0

  34 C    1     1.0921     2.0638   17 H    0 0 0
  34 C    1     1.3927     2.6318   33 C    0 0 0
  34 C    1     1.4030     2.6513   31 C    1 1 0
  34 C    1     2.1663     4.0937   16 H    0 0 0
  34 C    1     2.4163     4.5661   32 C    1 1-1
  34 C    1     2.4289     4.5899   36 C    1 1 0

  35 C    1     1.0913     2.0622   18 H    0 0-1
  35 C    1     1.3918     2.6301   32 C    0 0-1
  35 C    1     1.4029     2.6511   36 C    0 0 0
  35 C    1     2.1707     4.1021   15 H    0 0-1
  35 C    1     2.4155     4.5646   33 C   -1-1 0
  35 C    1     2.4269     4.5861   31 C    0 0 0

  36 C    1     1.4029     2.6510   33 C   -1-1 0
  36 C    1     1.4029     2.6511   35 C    0 0 0
  36 C    1     1.5529     2.9346    3 B    0 0-1
  36 C    1     2.1488     4.0606   16 H   -1-1 0
  36 C    1     2.1495     4.0619   18 H    0 0-1
  36 C    1     2.4270     4.5863   32 C    0 0-1

  37 O    1     1.3790     2.6060    3 B    1 1 0
  37 O    1     1.3795     2.6068    1 B    1 0 1
  37 O    1     2.3868     4.5105   39 O    1 1 0
  37 O    1     2.3885     4.5136   38 O    1 0 1
  37 O    1     2.5389     4.7979   30 C    1 0 0
  37 O    1     2.5412     4.8022   36 C    1 1 1

  38 O    1     1.3787     2.6054    1 B    0 0 0
  38 O    1     1.3792     2.6064    2 B    0 0 0
  38 O    1     2.3885     4.5136   37 O   -1 0-1
  38 O    1     2.3912     4.5187   39 O    0 1-1
  38 O    1     2.5351     4.7906   19 C    0 0 0
  38 O    1     2.5405     4.8008   30 C    0 0-1

  39 O    1     1.3795     2.6069    3 B    0 0 0
  39 O    1     1.3798     2.6075    2 B    0-1 1
  39 O    1     2.3868     4.5105   37 O   -1-1 0
  39 O    1     2.3912     4.5187   38 O    0-1 1
  39 O    1     2.5416     4.8030   19 C    0-1 1
  39 O    1     2.5427     4.8050   36 C    0 0 1

  40 O    1     1.3783     2.6045    6 B    1 0 0
  40 O    1     1.3786     2.6051    4 B    0-1 0
  40 O    1     2.3876     4.5119   42 O    1 0 0
  40 O    1     2.3913     4.5190   41 O    0-1 0
  40 O    1     2.5354     4.7912   25 C    1 0 0
  40 O    1     2.5360     4.7923   24 C    0-1-1

  41 O    1     1.3778     2.6037    4 B    0 0 0
  41 O    1     1.3778     2.6037    5 B    1 1 0
  41 O    1     2.3870     4.5107   42 O    1 1 0
  41 O    1     2.3913     4.5190   40 O    0 1 0
  41 O    1     2.5305     4.7819   24 C    0 0-1
  41 O    1     2.5354     4.7911   31 C    1 1 0

  42 O    1     1.3812     2.6101    6 B    0 0 0
  42 O    1     1.3813     2.6104    5 B    0 0 0
  42 O    1     2.3870     4.5107   41 O   -1-1 0
  42 O    1     2.3876     4.5119   40 O   -1 0 0
  42 O    1     2.5481     4.8152   31 C    0 0 0
  42 O    1     2.5522     4.8230   25 C    0 0 0


 SYMMETRY ALLOWED INTERNAL DEGREE(S) OF FREEDOM: 123
 TTTTTTTTTTTTTTTTTTTTTTTTTTTTTT SYMM        TELAPSE        0.29 TCPU        0.29
 TTTTTTTTTTTTTTTTTTTTTTTTTTTTTT INT_SCREEN  TELAPSE        0.32 TCPU        0.32

 DFT PARAMETERS

     ATOM       ELECTRONS   NET CHARGE   R(ANGSTROM)
   1   5  B       5.0000      0.0000     0.89000000
   7   1  H       1.0000      0.0000     1.11000000
  19   6  C       6.0000      0.0000     0.77000000
  37   8  O       8.0000      0.0000     0.74000000

 SIZE OF GRID=    1257775
 TTTTTTTTTTTTTTTTTTTTTTTTTTTTTT MAKE_GRID2  TELAPSE       11.99 TCPU       11.97
 BECKE WEIGHT FUNCTION
 RADSAFE =     2.00
 TOLERANCES - DENSITY:10**- 6; POTENTIAL:10**- 9; GRID WGT:10**-14

 RADIAL INTEGRATION  - INTERVALS (POINTS,UPPER LIMIT):            1( 75,  4.0*R)

 ANGULAR INTEGRATION - INTERVALS (ACCURACY LEVEL [N. POINTS] UPPER LIMIT):
  1(  4[  86]   0.2)  2(  8[ 194]   0.5)  3( 12[ 350]   0.9)  4( 16[ 974]   3.5)
  5( 12[ 350]9999.0)
 TTTTTTTTTTTTTTTTTTTTTTTTTTTTTT INT_CALC    TELAPSE       12.10 TCPU       12.08
 EEEEEEEEEE INT_CALC TERMINATION  DATE 02 12 2025 TIME 07:59:30.6

 *******************************************************************************
 COF-5_z35_inc_L000                                                              
 CRYSTAL - SCF - TYPE OF CALCULATION :  RESTRICTED CLOSED SHELL
 *******************************************************************************

 CAPPA:IS1  2;IS2  2;IS3  8; K PTS MONK NET  20; SYMMOPS:K SPACE   2;G SPACE   1

 TTTTTTTTTTTTTTTTTTTTTTTTTTTTTT SDIK        TELAPSE       12.90 TCPU       19.82

 AAAAAAAAAAAAAAAAAAAAAAAAAAAAAAAAAAAAAAAAAAAAAAAAAAAAAAAAAAAAAAAAAAAAAAAAAAAAAAA
         ATOMIC WAVEFUNCTION(S)


 NUCLEAR CHARGE  5.0  SYMMETRY SPECIES            S    P
 N. ELECTRONS    5.0  NUMBER OF PRIMITIVE GTOS    8    4
                      NUMBER OF CONTRACTED GTOS   4    2
                      NUMBER OF CLOSED SHELLS     2    0
                      OPEN SHELL OCCUPATION       0    1

  ZNUC  SCFIT    TOTAL HF ENERGY   KINETIC ENERGY   VIRIAL THEOREM ACCURACY
   5.0    11    -2.451164084E+01  2.462155050E+01 -1.995536038E+00  1.5E-06

 NUCLEAR CHARGE  1.0  SYMMETRY SPECIES            S
 N. ELECTRONS    1.0  NUMBER OF PRIMITIVE GTOS    4
                      NUMBER OF CONTRACTED GTOS   2
                      NUMBER OF CLOSED SHELLS     0
                      OPEN SHELL OCCUPATION       1

  ZNUC  SCFIT    TOTAL HF ENERGY   KINETIC ENERGY   VIRIAL THEOREM ACCURACY
   1.0     1    -4.977266687E-01  5.190767460E-01 -1.958869132E+00  0.0E+00

 NUCLEAR CHARGE  6.0  SYMMETRY SPECIES            S    P
 N. ELECTRONS    6.0  NUMBER OF PRIMITIVE GTOS    8    4
                      NUMBER OF CONTRACTED GTOS   4    2
                      NUMBER OF CLOSED SHELLS     2    0
                      OPEN SHELL OCCUPATION       0    2

  ZNUC  SCFIT    TOTAL HF ENERGY   KINETIC ENERGY   VIRIAL THEOREM ACCURACY
   6.0     9    -3.766704647E+01  3.775180683E+01 -1.997754800E+00  1.1E-06

 NUCLEAR CHARGE  8.0  SYMMETRY SPECIES            S    P
 N. ELECTRONS    8.0  NUMBER OF PRIMITIVE GTOS    8    4
                      NUMBER OF CONTRACTED GTOS   4    2
                      NUMBER OF CLOSED SHELLS     2    0
                      OPEN SHELL OCCUPATION       0    4

  ZNUC  SCFIT    TOTAL HF ENERGY   KINETIC ENERGY   VIRIAL THEOREM ACCURACY
   8.0    12    -7.477373220E+01  7.477365593E+01 -2.000001020E+00  3.8E-06

 AAAAAAAAAAAAAAAAAAAAAAAAAAAAAAAAAAAAAAAAAAAAAAAAAAAAAAAAAAAAAAAAAAAAAAAAAAAAAAA

 CHARGE NORMALIZATION FACTOR   1.00000000
 TOTAL ATOMIC CHARGES:
   5.0000000   5.0000000   5.0000000   5.0000000   5.0000000   5.0000000
   1.0000000   1.0000000   1.0000000   1.0000000   1.0000000   1.0000000
   1.0000000   1.0000000   1.0000000   1.0000000   1.0000000   1.0000000
   6.0000000   6.0000000   6.0000000   6.0000000   6.0000000   6.0000000
   6.0000000   6.0000000   6.0000000   6.0000000   6.0000000   6.0000000
   6.0000000   6.0000000   6.0000000   6.0000000   6.0000000   6.0000000
   8.0000000   8.0000000   8.0000000   8.0000000   8.0000000   8.0000000
 TTTTTTTTTTTTTTTTTTTTTTTTTTTTTT MOQGAD      TELAPSE       12.95 TCPU       21.46
 TTTTTTTTTTTTTTTTTTTTTTTTTTTTTT SHELLXN     TELAPSE       23.64 TCPU      362.77
 TTTTTTTTTTTTTTTTTTTTTTTTTTTTTT MONMO3      TELAPSE       23.82 TCPU      368.60
 NUMERICALLY INTEGRATED DENSITY    197.9999938172
 TTTTTTTTTTTTTTTTTTTTTTTTTTTTTT NUMDFT      TELAPSE       24.44 TCPU      388.35
 CYC   0 ETOT(AU) -1.295978745906E+03 DETOT -1.30E+03 tst  0.00E+00 PX  1.00E+00
 TTTTTTTTTTTTTTTTTTTTTTTTTTTTTT DIIS        TELAPSE       24.48 TCPU      389.45
 TTTTTTTTTTTTTTTTTTTTTTTTTTTTTT FDIK        TELAPSE       24.95 TCPU      404.61
 INSULATING STATE
 TOP OF VALENCE BANDS -    BAND     99; K    1; EIG -2.9136842E-01 AU
 BOTTOM OF VIRTUAL BANDS - BAND    100; K   17; EIG -1.8258048E-01 AU
 INDIRECT ENERGY BAND GAP:   2.9603 eV
 BOTTOM OF VIRTUAL BANDS - BAND    100; K    1; EIG -1.2676782E-01 AU
 TTTTTTTTTTTTTTTTTTTTTTTTTTTTTT PDIG        TELAPSE       25.23 TCPU      410.75
 CHARGE NORMALIZATION FACTOR   1.00000000
 TOTAL ATOMIC CHARGES:
   4.1164989   4.1157052   4.1168676   4.1183255   4.1160901   4.1156674
   0.7863982   0.7863702   0.7864991   0.7865462   0.7863315   0.7862431
   0.7872183   0.7867822   0.7861115   0.7867050   0.7867128   0.7869489
   6.0589418   6.2726033   6.2726480   6.2736779   6.2723622   6.0613281
   6.0549810   6.2739004   6.2720534   6.2747102   6.2744813   6.0586519
   6.0575678   6.2726240   6.2735957   6.2732336   6.2749020   6.0552875
   8.7061384   8.7053390   8.7058421   8.7049953   8.7046941   8.7074194
 TTTTTTTTTTTTTTTTTTTTTTTTTTTTTT MOQGAD      TELAPSE       25.29 TCPU      410.80
 TTTTTTTTTTTTTTTTTTTTTTTTTTTTTT SHELLXN     TELAPSE       36.35 TCPU      763.66
 TTTTTTTTTTTTTTTTTTTTTTTTTTTTTT MONMO3      TELAPSE       36.53 TCPU      769.50
 NUMERICALLY INTEGRATED DENSITY    197.9999867646
 TTTTTTTTTTTTTTTTTTTTTTTTTTTTTT NUMDFT      TELAPSE       37.16 TCPU      789.61
 CYC   1 ETOT(AU) -1.288798840203E+03 DETOT  7.18E+00 tst  0.00E+00 PX  1.00E+00
 TTTTTTTTTTTTTTTTTTTTTTTTTTTTTT DIIS        TELAPSE       37.21 TCPU      790.97
 DIIS TEST: 0.11245E+01 AT SCF   CYCLE   1 - MIX   30 %
 TTTTTTTTTTTTTTTTTTTTTTTTTTTTTT FDIK        TELAPSE       37.69 TCPU      806.42
 INSULATING STATE
 TOP OF VALENCE BANDS -    BAND     99; K    1; EIG -1.8794249E-01 AU
 BOTTOM OF VIRTUAL BANDS - BAND    100; K   17; EIG -1.0730121E-01 AU
 INDIRECT ENERGY BAND GAP:   2.1944 eV
 BOTTOM OF VIRTUAL BANDS - BAND    100; K    1; EIG -4.1583195E-02 AU
 TTTTTTTTTTTTTTTTTTTTTTTTTTTTTT PDIG        TELAPSE       37.97 TCPU      812.55
 CHARGE NORMALIZATION FACTOR   1.00000000
 TOTAL ATOMIC CHARGES:
   4.6907627   4.6907247   4.6912974   4.6906408   4.6906369   4.6914319
   0.9250574   0.9254683   0.9255693   0.9254081   0.9251036   0.9246098
   0.9256450   0.9259230   0.9247070   0.9251479   0.9252660   0.9255220
   5.8678478   6.1231146   6.1210128   6.1210284   6.1225257   5.8631403
   5.8716588   6.1177804   6.1194407   6.1239032   6.1207634   5.8658979
   5.8683668   6.1178543   6.1205086   6.1223952   6.1203315   5.8701856
   8.3492669   8.3479293   8.3495672   8.3468047   8.3460912   8.3536627
 TTTTTTTTTTTTTTTTTTTTTTTTTTTTTT MOQGAD      TELAPSE       38.03 TCPU      812.61
 TTTTTTTTTTTTTTTTTTTTTTTTTTTTTT SHELLXN     TELAPSE       49.10 TCPU     1165.51
 TTTTTTTTTTTTTTTTTTTTTTTTTTTTTT MONMO3      TELAPSE       49.28 TCPU     1171.35
 NUMERICALLY INTEGRATED DENSITY    197.9999938061
 TTTTTTTTTTTTTTTTTTTTTTTTTTTTTT NUMDFT      TELAPSE       49.92 TCPU     1191.71
 CYC   2 ETOT(AU) -1.288991451312E+03 DETOT -1.93E-01 tst  4.91E-03 PX  1.56E-01
 TTTTTTTTTTTTTTTTTTTTTTTTTTTTTT DIIS        TELAPSE       49.97 TCPU     1193.25
 DIIS TEST: 0.50727E+00 AT SCF   CYCLE   2 - DIIS ACTIVE - HISTORY:     2 CYCLES
 TTTTTTTTTTTTTTTTTTTTTTTTTTTTTT FDIK        TELAPSE       50.44 TCPU     1208.44
 INSULATING STATE
 TOP OF VALENCE BANDS -    BAND     99; K    1; EIG -2.0718366E-01 AU
 BOTTOM OF VIRTUAL BANDS - BAND    100; K   17; EIG -1.0165923E-01 AU
 INDIRECT ENERGY BAND GAP:   2.8715 eV
 BOTTOM OF VIRTUAL BANDS - BAND    100; K    1; EIG -3.3616459E-02 AU
 TTTTTTTTTTTTTTTTTTTTTTTTTTTTTT PDIG        TELAPSE       50.72 TCPU     1214.58
 CHARGE NORMALIZATION FACTOR   1.00000000
 TOTAL ATOMIC CHARGES:
   4.4658609   4.4647050   4.4655787   4.4669757   4.4652162   4.4646836
   0.8944410   0.8941494   0.8943383   0.8945229   0.8937127   0.8934812
   0.8953746   0.8946282   0.8931807   0.8944548   0.8948459   0.8944307
   5.8971382   6.1659021   6.1671852   6.1662050   6.1670878   5.9008323
   5.8959806   6.1651808   6.1662196   6.1683499   6.1691754   5.8994155
   5.8984595   6.1656070   6.1665429   6.1682478   6.1679916   5.8969075
   8.5140877   8.5135432   8.5139801   8.5129310   8.5126835   8.5157654
 TTTTTTTTTTTTTTTTTTTTTTTTTTTTTT MOQGAD      TELAPSE       50.77 TCPU     1214.63
 TTTTTTTTTTTTTTTTTTTTTTTTTTTTTT SHELLXN     TELAPSE       61.84 TCPU     1567.52
 TTTTTTTTTTTTTTTTTTTTTTTTTTTTTT MONMO3      TELAPSE       62.02 TCPU     1573.35
 NUMERICALLY INTEGRATED DENSITY    197.9999906403
 TTTTTTTTTTTTTTTTTTTTTTTTTTTTTT NUMDFT      TELAPSE       62.65 TCPU     1593.46
 CYC   3 ETOT(AU) -1.289098546245E+03 DETOT -1.07E-01 tst  7.11E-04 PX  5.71E-02
 TTTTTTTTTTTTTTTTTTTTTTTTTTTTTT DIIS        TELAPSE       62.70 TCPU     1595.10
 DIIS TEST: 0.97961E-02 AT SCF   CYCLE   3 - DIIS ACTIVE - HISTORY:     3 CYCLES
 TTTTTTTTTTTTTTTTTTTTTTTTTTTTTT FDIK        TELAPSE       63.18 TCPU     1610.41
 INSULATING STATE
 TOP OF VALENCE BANDS -    BAND     99; K    1; EIG -2.1526012E-01 AU
 BOTTOM OF VIRTUAL BANDS - BAND    100; K   17; EIG -1.1246889E-01 AU
 INDIRECT ENERGY BAND GAP:   2.7971 eV
 BOTTOM OF VIRTUAL BANDS - BAND    100; K    1; EIG -4.5787063E-02 AU
 TTTTTTTTTTTTTTTTTTTTTTTTTTTTTT PDIG        TELAPSE       63.46 TCPU     1616.55
 CHARGE NORMALIZATION FACTOR   1.00000000
 TOTAL ATOMIC CHARGES:
   4.4752698   4.4753524   4.4758236   4.4760187   4.4748865   4.4754283
   0.8791179   0.8796980   0.8794765   0.8796622   0.8789363   0.8788706
   0.8800939   0.8802648   0.8787263   0.8794476   0.8798311   0.8797979
   5.9578739   6.1609256   6.1579396   6.1603290   6.1585950   5.9517658
   5.9582463   6.1587993   6.1574067   6.1613938   6.1582745   5.9528243
   5.9551212   6.1577266   6.1589072   6.1587497   6.1596278   5.9564398
   8.4923675   8.4911406   8.4928147   8.4903918   8.4894408   8.4961964
 TTTTTTTTTTTTTTTTTTTTTTTTTTTTTT MOQGAD      TELAPSE       63.52 TCPU     1616.60
 TTTTTTTTTTTTTTTTTTTTTTTTTTTTTT SHELLXN     TELAPSE       74.59 TCPU     1969.71
 TTTTTTTTTTTTTTTTTTTTTTTTTTTTTT MONMO3      TELAPSE       74.77 TCPU     1975.55
 NUMERICALLY INTEGRATED DENSITY    197.9999904252
 TTTTTTTTTTTTTTTTTTTTTTTTTTTTTT NUMDFT      TELAPSE       75.40 TCPU     1995.64
 CYC   4 ETOT(AU) -1.289100498036E+03 DETOT -1.95E-03 tst  3.63E-05 PX  1.31E-02
 TTTTTTTTTTTTTTTTTTTTTTTTTTTTTT DIIS        TELAPSE       75.46 TCPU     1997.46
 DIIS TEST: 0.35145E-02 AT SCF   CYCLE   4 - DIIS ACTIVE - HISTORY:     4 CYCLES
 TTTTTTTTTTTTTTTTTTTTTTTTTTTTTT FDIK        TELAPSE       75.93 TCPU     2012.66
 INSULATING STATE
 TOP OF VALENCE BANDS -    BAND     99; K    1; EIG -2.1456660E-01 AU
 BOTTOM OF VIRTUAL BANDS - BAND    100; K   17; EIG -1.1072339E-01 AU
 INDIRECT ENERGY BAND GAP:   2.8257 eV
 BOTTOM OF VIRTUAL BANDS - BAND    100; K    1; EIG -4.3685572E-02 AU
 TTTTTTTTTTTTTTTTTTTTTTTTTTTTTT PDIG        TELAPSE       76.21 TCPU     2018.79
 CHARGE NORMALIZATION FACTOR   1.00000000
 TOTAL ATOMIC CHARGES:
   4.4763669   4.4753057   4.4762303   4.4772661   4.4758283   4.4756013
   0.8820553   0.8818222   0.8821074   0.8820789   0.8815864   0.8811825
   0.8829464   0.8823289   0.8810574   0.8820906   0.8823424   0.8822162
   5.9237628   6.1669981   6.1680061   6.1663839   6.1686913   5.9279188
   5.9240796   6.1652840   6.1671922   6.1688929   6.1691936   5.9268913
   5.9265572   6.1656458   6.1674963   6.1693264   6.1673924   5.9247010
   8.4997270   8.4987619   8.4991677   8.4980072   8.4979729   8.5015364
 TTTTTTTTTTTTTTTTTTTTTTTTTTTTTT MOQGAD      TELAPSE       76.27 TCPU     2018.85
 TTTTTTTTTTTTTTTTTTTTTTTTTTTTTT SHELLXN     TELAPSE       87.33 TCPU     2371.71
 TTTTTTTTTTTTTTTTTTTTTTTTTTTTTT MONMO3      TELAPSE       87.51 TCPU     2377.55
 NUMERICALLY INTEGRATED DENSITY    197.9999906065
 TTTTTTTTTTTTTTTTTTTTTTTTTTTTTT NUMDFT      TELAPSE       88.14 TCPU     2397.67
 CYC   5 ETOT(AU) -1.289101269238E+03 DETOT -7.71E-04 tst  9.10E-06 PX  8.00E-03
 TTTTTTTTTTTTTTTTTTTTTTTTTTTTTT DIIS        TELAPSE       88.21 TCPU     2399.72
 DIIS TEST: 0.14978E-03 AT SCF   CYCLE   5 - DIIS ACTIVE - HISTORY:     5 CYCLES
 TTTTTTTTTTTTTTTTTTTTTTTTTTTTTT FDIK        TELAPSE       88.68 TCPU     2414.95
 INSULATING STATE
 TOP OF VALENCE BANDS -    BAND     99; K    1; EIG -2.1411352E-01 AU
 BOTTOM OF VIRTUAL BANDS - BAND    100; K   17; EIG -1.1024964E-01 AU
 INDIRECT ENERGY BAND GAP:   2.8263 eV
 BOTTOM OF VIRTUAL BANDS - BAND    100; K    1; EIG -4.3198735E-02 AU
 TTTTTTTTTTTTTTTTTTTTTTTTTTTTTT PDIG        TELAPSE       88.96 TCPU     2421.08
 CHARGE NORMALIZATION FACTOR   1.00000000
 TOTAL ATOMIC CHARGES:
   4.4753896   4.4753384   4.4758356   4.4760395   4.4748578   4.4752020
   0.8829828   0.8833887   0.8831737   0.8835046   0.8826403   0.8826310
   0.8839313   0.8839045   0.8823668   0.8832990   0.8836995   0.8834244
   5.9323808   6.1663294   6.1640692   6.1669662   6.1635408   5.9258566
   5.9310352   6.1650282   6.1629826   6.1673927   6.1653464   5.9270123
   5.9281416   6.1643242   6.1642824   6.1641780   6.1672168   5.9301862
   8.4985984   8.4979614   8.4997065   8.4973390   8.4961047   8.5024107
 TTTTTTTTTTTTTTTTTTTTTTTTTTTTTT MOQGAD      TELAPSE       89.02 TCPU     2421.14
 TTTTTTTTTTTTTTTTTTTTTTTTTTTTTT SHELLXN     TELAPSE      100.09 TCPU     2774.20
 TTTTTTTTTTTTTTTTTTTTTTTTTTTTTT MONMO3      TELAPSE      100.27 TCPU     2780.04
 NUMERICALLY INTEGRATED DENSITY    197.9999906138
 TTTTTTTTTTTTTTTTTTTTTTTTTTTTTT NUMDFT      TELAPSE      100.90 TCPU     2800.13
 CYC   6 ETOT(AU) -1.289101284628E+03 DETOT -1.54E-05 tst  1.06E-06 PX  1.80E-03
 TTTTTTTTTTTTTTTTTTTTTTTTTTTTTT DIIS        TELAPSE      100.97 TCPU     2802.30
 DIIS TEST: 0.75410E-04 AT SCF   CYCLE   6 - DIIS ACTIVE - HISTORY:     6 CYCLES
 TTTTTTTTTTTTTTTTTTTTTTTTTTTTTT FDIK        TELAPSE      101.44 TCPU     2817.56
 INSULATING STATE
 TOP OF VALENCE BANDS -    BAND     99; K    1; EIG -2.1417708E-01 AU
 BOTTOM OF VIRTUAL BANDS - BAND    100; K   17; EIG -1.1031574E-01 AU
 INDIRECT ENERGY BAND GAP:   2.8262 eV
 BOTTOM OF VIRTUAL BANDS - BAND    100; K    1; EIG -4.3264870E-02 AU
 TTTTTTTTTTTTTTTTTTTTTTTTTTTTTT PDIG        TELAPSE      101.72 TCPU     2823.70
 CHARGE NORMALIZATION FACTOR   1.00000000
 TOTAL ATOMIC CHARGES:
   4.4757542   4.4750465   4.4758180   4.4767083   4.4753207   4.4752883
   0.8830391   0.8830997   0.8831981   0.8832486   0.8826514   0.8823821
   0.8839622   0.8836288   0.8822458   0.8831780   0.8834848   0.8833888
   5.9286253   6.1654454   6.1650432   6.1646599   6.1659342   5.9298016
   5.9291617   6.1636266   6.1644070   6.1670698   6.1659693   5.9289716
   5.9298141   6.1634082   6.1652235   6.1665436   6.1651542   5.9286198
   8.4990053   8.4979312   8.4986848   8.4971918   8.4969061   8.5013580
 TTTTTTTTTTTTTTTTTTTTTTTTTTTTTT MOQGAD      TELAPSE      101.78 TCPU     2823.75
 TTTTTTTTTTTTTTTTTTTTTTTTTTTTTT SHELLXN     TELAPSE      112.86 TCPU     3177.36
 TTTTTTTTTTTTTTTTTTTTTTTTTTTTTT MONMO3      TELAPSE      113.05 TCPU     3183.20
 NUMERICALLY INTEGRATED DENSITY    197.9999906108
 TTTTTTTTTTTTTTTTTTTTTTTTTTTTTT NUMDFT      TELAPSE      113.67 TCPU     3203.26
 CYC   7 ETOT(AU) -1.289101302139E+03 DETOT -1.75E-05 tst  5.87E-07 PX  9.27E-04
 TTTTTTTTTTTTTTTTTTTTTTTTTTTTTT DIIS        TELAPSE      113.75 TCPU     3205.69
 DIIS TEST: 0.58519E-05 AT SCF   CYCLE   7 - DIIS ACTIVE - HISTORY:     7 CYCLES
 TTTTTTTTTTTTTTTTTTTTTTTTTTTTTT FDIK        TELAPSE      114.23 TCPU     3220.93
 INSULATING STATE
 TOP OF VALENCE BANDS -    BAND     99; K    1; EIG -2.1423148E-01 AU
 BOTTOM OF VIRTUAL BANDS - BAND    100; K   17; EIG -1.1037945E-01 AU
 INDIRECT ENERGY BAND GAP:   2.8260 eV
 BOTTOM OF VIRTUAL BANDS - BAND    100; K    1; EIG -4.3324647E-02 AU
 TTTTTTTTTTTTTTTTTTTTTTTTTTTTTT PDIG        TELAPSE      114.51 TCPU     3227.06
 CHARGE NORMALIZATION FACTOR   1.00000000
 TOTAL ATOMIC CHARGES:
   4.4759991   4.4753323   4.4760909   4.4767722   4.4754189   4.4754174
   0.8829421   0.8829585   0.8830456   0.8831634   0.8825219   0.8822696
   0.8838683   0.8834745   0.8820896   0.8830890   0.8834105   0.8832140
   5.9290827   6.1655745   6.1652670   6.1654767   6.1654481   5.9287913
   5.9286023   6.1639556   6.1644058   6.1669906   6.1664862   5.9289172
   5.9289542   6.1639225   6.1650558   6.1659961   6.1661325   5.9288646
   8.4988060   8.4979359   8.4988906   8.4972188   8.4967080   8.5014389
 TTTTTTTTTTTTTTTTTTTTTTTTTTTTTT MOQGAD      TELAPSE      114.56 TCPU     3227.12
 TTTTTTTTTTTTTTTTTTTTTTTTTTTTTT SHELLXN     TELAPSE      125.64 TCPU     3580.40
 TTTTTTTTTTTTTTTTTTTTTTTTTTTTTT MONMO3      TELAPSE      125.82 TCPU     3586.23
 NUMERICALLY INTEGRATED DENSITY    197.9999906077
 TTTTTTTTTTTTTTTTTTTTTTTTTTTTTT NUMDFT      TELAPSE      126.45 TCPU     3606.30
 CYC   8 ETOT(AU) -1.289101303490E+03 DETOT -1.35E-06 tst  3.04E-08 PX  2.50E-04
 TTTTTTTTTTTTTTTTTTTTTTTTTTTTTT DIIS        TELAPSE      126.53 TCPU     3608.79
 DIIS TEST: 0.72689E-06 AT SCF   CYCLE   8 - DIIS ACTIVE - HISTORY:     8 CYCLES
 TTTTTTTTTTTTTTTTTTTTTTTTTTTTTT FDIK        TELAPSE      127.01 TCPU     3624.03
 INSULATING STATE
 TOP OF VALENCE BANDS -    BAND     99; K    1; EIG -2.1422907E-01 AU
 BOTTOM OF VIRTUAL BANDS - BAND    100; K   17; EIG -1.1038348E-01 AU
 INDIRECT ENERGY BAND GAP:   2.8258 eV
 BOTTOM OF VIRTUAL BANDS - BAND    100; K    1; EIG -4.3327448E-02 AU
 TTTTTTTTTTTTTTTTTTTTTTTTTTTTTT PDIG        TELAPSE      127.28 TCPU     3630.16
 CHARGE NORMALIZATION FACTOR   1.00000000
 TOTAL ATOMIC CHARGES:
   4.4759154   4.4753121   4.4760423   4.4767822   4.4754425   4.4754768
   0.8829057   0.8829905   0.8830474   0.8831570   0.8825078   0.8822810
   0.8838279   0.8835129   0.8821086   0.8830687   0.8833888   0.8832348
   5.9290404   6.1656842   6.1651460   6.1653568   6.1655664   5.9288252
   5.9290943   6.1640800   6.1642887   6.1672368   6.1661869   5.9284401
   5.9291756   6.1638728   6.1651069   6.1661772   6.1659001   5.9286570
   8.4988552   8.4979392   8.4988967   8.4972311   8.4967314   8.5015084
 TTTTTTTTTTTTTTTTTTTTTTTTTTTTTT MOQGAD      TELAPSE      127.34 TCPU     3630.22
 TTTTTTTTTTTTTTTTTTTTTTTTTTTTTT SHELLXN     TELAPSE      138.41 TCPU     3983.16
 TTTTTTTTTTTTTTTTTTTTTTTTTTTTTT MONMO3      TELAPSE      138.59 TCPU     3989.00
 NUMERICALLY INTEGRATED DENSITY    197.9999906072
 TTTTTTTTTTTTTTTTTTTTTTTTTTTTTT NUMDFT      TELAPSE      139.22 TCPU     4009.05
 CYC   9 ETOT(AU) -1.289101303643E+03 DETOT -1.54E-07 tst  9.89E-09 PX  1.20E-04
 TTTTTTTTTTTTTTTTTTTTTTTTTTTTTT DIIS        TELAPSE      139.30 TCPU     4011.75
 DIIS TEST: 0.12137E-06 AT SCF   CYCLE   9 - DIIS ACTIVE - HISTORY:     9 CYCLES
 TTTTTTTTTTTTTTTTTTTTTTTTTTTTTT FDIK        TELAPSE      139.78 TCPU     4027.10
 INSULATING STATE
 TOP OF VALENCE BANDS -    BAND     99; K    1; EIG -2.1422528E-01 AU
 BOTTOM OF VIRTUAL BANDS - BAND    100; K   17; EIG -1.1038027E-01 AU
 INDIRECT ENERGY BAND GAP:   2.8258 eV
 BOTTOM OF VIRTUAL BANDS - BAND    100; K    1; EIG -4.3323789E-02 AU
 TTTTTTTTTTTTTTTTTTTTTTTTTTTTTT PDIG        TELAPSE      140.06 TCPU     4033.24
 CHARGE NORMALIZATION FACTOR   1.00000000
 TOTAL ATOMIC CHARGES:
   4.4759101   4.4752946   4.4760288   4.4767454   4.4753983   4.4754239
   0.8829115   0.8829952   0.8830537   0.8831612   0.8825181   0.8822822
   0.8838382   0.8835150   0.8821170   0.8830722   0.8833950   0.8832410
   5.9291226   6.1657010   6.1650988   6.1653376   6.1655578   5.9288113
   5.9289779   6.1639895   6.1643537   6.1671643   6.1662130   5.9286342
   5.9291240   6.1637880   6.1651629   6.1661575   6.1658745   5.9287869
   8.4988948   8.4979533   8.4988929   8.4972343   8.4967561   8.5015118
 TTTTTTTTTTTTTTTTTTTTTTTTTTTTTT MOQGAD      TELAPSE      140.12 TCPU     4033.29
 TTTTTTTTTTTTTTTTTTTTTTTTTTTTTT SHELLXN     TELAPSE      151.19 TCPU     4386.35
 +++ ENERGIES IN A.U. +++
 ::: EXT EL-POLE                                  -1.4451995128794E+03
 ::: EXT EL-SPHEROPOLE                             1.6340545377705E+01
 ::: BIELET ZONE E-E                               2.4087334752657E+03
 ::: TOTAL E-E                                     9.7987450776394E+02
 ::: TOTAL E-N + N-E                              -3.7847780364740E+03
 ::: TOTAL N-N                                     3.6954974094924E+02
 ::: KINETIC ENERGY                                1.2799772071867E+03
 ::: PSEUDO TOTAL   ENERGY                        -1.1553765805740E+03
 ::: VIRIAL COEFFICIENT                            1.0511632548991E+00
 TTTTTTTTTTTTTTTTTTTTTTTTTTTTTT MONMO3      TELAPSE      151.37 TCPU     4392.18
 NUMERICALLY INTEGRATED DENSITY    197.9999906072
 EXCHANGE ENERGY: -0.126019992099E+03  CORRELATION ENERGY: -0.770473099214E+01
 TTTTTTTTTTTTTTTTTTTTTTTTTTTTTT NUMDFT      TELAPSE      152.01 TCPU     4412.53
 CYC  10 ETOT(AU) -1.289101303665E+03 DETOT -2.15E-08 tst  1.21E-09 PX  1.20E-04

 == SCF ENDED - CONVERGENCE ON ENERGY      E(AU) -1.2891013036649E+03 CYCLES  10


 ENERGY EXPRESSION=HARTREE+FOCK EXCH*0.00000+(HSESOL     EXCH)*1.00000+PBESOL     CORR


 TOTAL ENERGY(DFT)(AU)( 10) -1.2891013036649E+03 DE-2.2E-08 tester 1.2E-09
 TTTTTTTTTTTTTTTTTTTTTTTTTTTTTT EDFT        TELAPSE      152.01 TCPU     4412.53
 
 INFORMATION **** DFTD3 ENERGY **** CALCULATE DFTD3 ENERGY

           DFT-D V3(BJ)
 DF                                         hsesol3c  
 parameters
 s6       :    1.0000
 s8       :    0.0000
 a1       :    0.5196
 a2       :    4.9385
 k1 k3    :   16.0000   -4.0000
 Cutoff   :   50.2022
 CN-Cutoff:   21.1671
 ABC-Cutoff:   21.1671
 
 Edisp /kcal,au:   -30.6937 -0.04891347

 E6    /kcal :   -32.8807
 E8    /kcal :     0.0000
 E6(ABC) "   :   2.187021
 
 INFORMATION **** DFTD3 ENERGY **** NORMAL TERMINATION OF DFTD3 MODULE

 GCP ENERGY CALCULATION
  level        hsesol3c            basis:hsesol3c
  Nbf            474
  Atoms           42

  Parameters: 
  sigma     1.0000
  eta       1.4281
  alpha     0.2936
  beta      1.9467

  dmp_scal      4.0000
  dmp_exp       6.0000
 cutoffs: 
   distance [bohr] 60.0
   noise    [a.u.] 2.2E-16
 SR-damping   T
 ** gCP correction **
  Egcp:        0.0837998280 / (a.u.) ||      52.5852 / (kcal/mol)
 INFORMATION **** GCP **** NORMAL TERMINATION OF GCP MODULE

 *******************************************************************************

 DFT-D3-GCP DISPERSION AND COUNTERPOISE CORRECTION

 D3 DISPERSION ENERGY (AU)      -4.8913472499138E-02
 GCP ENERGY (AU)                 8.3799828027566E-02
 TOTAL ENERGY + DISP + GCP (AU) -1.2890664173094E+03

 *******************************************************************************

 EIGENVECTORS IN FORTRAN UNIT  8
 TTTTTTTTTTTTTTTTTTTTTTTTTTTTTT END         TELAPSE      153.38 TCPU     4419.83
 EEEEEEEEEE TERMINATION  DATE 02 12 2025 TIME 08:01:51.9
