 Default number of threads is:           32

         
 *******************************************************************************
 *                                                                             *
 *                               CRYSTAL23                                     *
 *                      public : 1.0.1 - October 2022                          *
 *                       HTTP://WWW.CRYSTAL.UNITO.IT                           *
 *                                                                             *
 *                              MAIN AUTHORS                                   *
 *                                                                             *
 *  R. DOVESI(1,11), V.R. SAUNDERS(2), C. ROETTI(1,11), R. ORLANDO(1,11),      *
 *  C.M. ZICOVICH-WILSON(1,3), F. PASCALE(4), B. CIVALLERI(1,11),              *
 *  K. DOLL(5), N.M. HARRISON(6), I.J. BUSH(7), Ph. D'ARCO(8),                 *
 *  M. LLUNELL(9), M. CAUSA'(10), Y. NOEL(8), L. MASCHIO(1,11), A. ERBA(1,11)  *
 *  M. RE'RAT(14), S. CASASSA(1,11), B.G. SEARLE(2), J.K. DESMARAIS(1)         *
 *                                                                             *
 *        CONTRIBUTIONS TO THE CODE HAVE ALSO BEEN GIVEN BY                    *
 *                                                                             *
 *  M. FERRABONE(1,11), M. DE LA PIERRE(1,11), M. FERRERO(1,11),               *
 *  J. BAIMA(1,11), E. ALBANESE(1,11), M.F. PEINTINGER(12), R. BAST(13),       *
 *  B. KIRTMAN(15), V. LACIVITA(1,11), R. DEMICHELIS(1,16)                     *
 *  G. BRANDEBURG(17), S. SALUSTRO(1,11), G. SANSONE(1,11)                     *
 *  M.T. RUGGIERO(18), L.E. DAGA(1), L. DONA'(1), A. COSSARD(1)                *
 *                                                                             *
 * (1) THEORETICAL CHEMISTRY GROUP - UNIVERSITA' DI TORINO - TORINO (ITALY)    *
 * (2) SCIENTIFIC COMPUTING DEPARTMENT - STFC DARESBURY (UK)                   *
 * (3) UNIVERSIDAD AUTONOMA DEL ESTADO DE MORELOS - CUERNAVACA (MEXICO)        *
 * (4) UNIVERSITE' DE LORRAINE - NANCY (FRANCE)                                *
 * (5) UNIVERSITAET STUTTGART- STUTTGART (GERMANY)                             *
 * (6) IMPERIAL COLLEGE - LONDON (UK)                                          *
 * (7) SCIENTIFIC COMPUTING DEPARTMENT - STFC RAL (UK)                         *
 * (8) UPMC - SORBONNE UNIVERSITES - PARIS (FRANCE)                            *
 * (9) UNIVERSIDAD DE BARCELONA - BARCELONA (SPAIN)                            *
 *(10) UNIVERSITA' DI NAPOLI "FEDERICO II" - NAPOLI (ITALY)                    *
 *(11) NIS - NANOSTRUCTURED INTERFACES AND SURFACES - TORINO (ITALY)           *
 *(12) MPI FUER CHEMISCHE ENERGIEKONVERSION - MUELHEIM AN DER RUHR (GERMANY)   *
 *(13) UNIVERSITY OF TROMSO - TROMSO (NORWAY)                                  *
 *(14) UNIVERSITE' DE PAU ET DES PAYS DE L'ADOUR - PAU (FRANCE)                *
 *(15) UNIVERSITY OF CALIFORNIA SANTA BARBARA - SANTA BARBARA (USA)            *
 *(16) CURTIN UNIVERSITY - PERTH (AUSTRALIA)                                   *
 *(17) UNIVERSITY COLLEGE LONDON - LONDON (UK)                                 *
 *(18) UNIVERSITY OF VERMONT - BURLINGTON (USA)                                *
 *                                                                             *
 *******************************************************************************
 EEEEEEEEEE STARTING  DATE 19 02 2026 TIME 20:31:17.2
 cof-1_z45_L080_serr                                                             

 CRYSTAL CALCULATION
 (INPUT ACCORDING TO THE INTERNATIONAL TABLES FOR X-RAY CRYSTALLOGRAPHY)
 CRYSTAL FAMILY                       :  TRICLINIC   
 CRYSTAL CLASS  (GROTH - 1921)        :  TRICLINIC PEDIAL                     

 SPACE GROUP (NONCENTROSYMMETRIC)     :  P 1             

 LATTICE PARAMETERS  (ANGSTROMS AND DEGREES) - CONVENTIONAL CELL
        A           B           C        ALPHA        BETA       GAMMA
    15.02361    15.02392     9.00000    90.00032    89.99994   119.99596


 NUMBER OF IRREDUCIBLE ATOMS IN THE CONVENTIONAL CELL:   84

 INPUT COORDINATES

 ATOM AT. N.              COORDINATES
   1   5     6.136805400000E-01  2.273182200000E-01  2.505307500000E-01
   2   5     9.210667600000E-01  8.421531600000E-01  7.505307500000E-01
   3   5     7.727362000000E-01  3.863778800000E-01  2.505307500000E-01
   4   5     8.012242000000E-02  1.212820000000E-03  7.505307500000E-01
   5   5     6.136762700000E-01  3.863606700000E-01  2.494148400000E-01
   6   5     9.210624900000E-01  1.195610000000E-03  7.494148400000E-01
   7   5     2.272552500000E-01  6.136332200000E-01  2.505307500000E-01
   8   5     5.346414700000E-01  2.284681600000E-01  7.505307500000E-01
   9   5     3.863632200000E-01  6.136124500000E-01  2.505307500000E-01
  10   5     6.937494400000E-01  2.284473900000E-01  7.505307500000E-01
  11   5     3.863435000000E-01  7.727516500000E-01  2.494148400000E-01
  12   5     6.937297200000E-01  3.875865900000E-01  7.494148400000E-01
  13   1     9.030436200000E-01  3.089300500000E-01  2.482172400000E-01
  14   1     2.104298400000E-01  9.237649900000E-01  7.482172400000E-01
  15   1     9.663453000000E-02  6.910534400000E-01  2.478634700000E-01
  16   1     4.040207500000E-01  3.058883800000E-01  7.478634700000E-01
  17   1     9.029714200000E-01  5.940724300000E-01  2.478090200000E-01
  18   1     2.103576400000E-01  2.089073700000E-01  7.478090200000E-01
  19   1     9.673618000000E-02  4.056849400000E-01  2.478226000000E-01
  20   1     4.041224000000E-01  2.051988000000E-02  7.478226000000E-01
  21   1     6.910324000000E-01  9.700412000000E-02  2.517827700000E-01
  22   1     9.984186200000E-01  7.118390600000E-01  7.517827700000E-01
  23   1     3.089297200000E-01  9.034373100000E-01  2.521365600000E-01
  24   1     6.163159400000E-01  5.182722500000E-01  7.521365600000E-01
  25   1     4.058699900000E-01  9.704998000000E-02  2.521910500000E-01
  26   1     7.132562100000E-01  7.118849200000E-01  7.521910500000E-01
  27   1     5.943122100000E-01  9.033473200000E-01  2.521773700000E-01
  28   1     9.016984300000E-01  5.181822600000E-01  7.521773700000E-01
  29   1     6.910727400000E-01  5.940542100000E-01  2.482172600000E-01
  30   1     9.984589600000E-01  2.088891500000E-01  7.482172600000E-01
  31   1     3.089618300000E-01  4.056093300000E-01  2.478634500000E-01
  32   1     6.163480500000E-01  2.044427000000E-02  7.478634500000E-01
  33   1     4.058405700000E-01  3.088232500000E-01  2.478089800000E-01
  34   1     7.132267900000E-01  9.236581900000E-01  7.478089800000E-01
  35   1     5.942908800000E-01  6.909579300000E-01  2.478226500000E-01
  36   1     9.016771000000E-01  3.057928700000E-01  7.478226500000E-01
  37   6     8.918903100000E-01  4.459436900000E-01  2.493740100000E-01
  38   6     1.992765300000E-01  6.077863000000E-02  7.493740100000E-01
  39   6     9.464891100000E-01  3.927856300000E-01  2.482716900000E-01
  40   6     2.538753300000E-01  7.620570000000E-03  7.482716900000E-01
  41   6     5.338812000000E-02  6.071853000000E-01  2.481764600000E-01
  42   6     3.607743400000E-01  2.220202400000E-01  7.481764600000E-01
  43   6     9.464521100000E-01  5.536921900000E-01  2.484622400000E-01
  44   6     2.538383300000E-01  1.685271300000E-01  7.484622500000E-01
  45   6     5.342634000000E-02  4.462499700000E-01  2.477273400000E-01
  46   6     3.608125600000E-01  6.108491000000E-02  7.477273500000E-01
  47   6     1.080358900000E-01  5.540356300000E-01  2.484758400000E-01
  48   6     4.154221100000E-01  1.688705700000E-01  7.484758400000E-01
  49   6     5.540394200000E-01  1.081684600000E-01  2.506260200000E-01
  50   6     8.614256400000E-01  7.230034000000E-01  7.506260200000E-01
  51   6     6.071778500000E-01  5.355594000000E-02  2.517283200000E-01
  52   6     9.145640700000E-01  6.683908800000E-01  7.517283200000E-01
  53   6     3.927986700000E-01  9.466631600000E-01  2.518235800000E-01
  54   6     7.001848900000E-01  5.614981000000E-01  7.518235800000E-01
  55   6     4.462875800000E-01  5.360286000000E-02  2.515378100000E-01
  56   6     7.536738000000E-01  6.684378000000E-01  7.515378100000E-01
  57   6     5.537168500000E-01  9.466235600000E-01  2.522726500000E-01
  58   6     8.611030700000E-01  5.614585000000E-01  7.522726500000E-01
  59   6     4.459279100000E-01  8.919920600000E-01  2.515241800000E-01
  60   6     7.533141300000E-01  5.068270000000E-01  7.515241800000E-01
  61   6     5.540448700000E-01  4.458745500000E-01  2.493740100000E-01
  62   6     8.614310900000E-01  6.070949000000E-02  7.493740100000E-01
  63   6     6.072102200000E-01  5.536257800000E-01  2.482717100000E-01
  64   6     9.145964400000E-01  1.684607200000E-01  7.482717100000E-01
  65   6     3.928233700000E-01  4.461720300000E-01  2.481764400000E-01
  66   6     7.002095900000E-01  6.100697000000E-02  7.481764400000E-01
  67   6     4.462872600000E-01  3.926899900000E-01  2.484622100000E-01
  68   6     7.536734800000E-01  7.524930000000E-03  7.484622100000E-01
  69   6     5.537429600000E-01  6.070980000000E-01  2.477273700000E-01
  70   6     8.611291800000E-01  2.219329400000E-01  7.477273700000E-01
  71   6     4.459599800000E-01  5.539582300000E-01  2.484758400000E-01
  72   6     7.533462000000E-01  1.687931700000E-01  7.484758400000E-01
  73   8     5.607366800000E-01  2.803706300000E-01  2.497142300000E-01
  74   8     8.681229000000E-01  8.952055700000E-01  7.497142300000E-01
  75   8     7.196817000000E-01  2.803783300000E-01  2.520685300000E-01
  76   8     2.706792000000E-02  8.952132700000E-01  7.520685300000E-01
  77   8     7.196794200000E-01  4.393234600000E-01  2.485166700000E-01
  78   8     2.706564000000E-02  5.415840000000E-02  7.485166700000E-01
  79   8     2.803245100000E-01  7.196511100000E-01  2.497142400000E-01
  80   8     5.877107300000E-01  3.344860500000E-01  7.497142400000E-01
  81   8     2.803439700000E-01  5.606956100000E-01  2.520685200000E-01
  82   8     5.877301900000E-01  1.755305500000E-01  7.520685200000E-01
  83   8     4.392638400000E-01  7.196354200000E-01  2.485166600000E-01
  84   8     7.466500600000E-01  3.344703600000E-01  7.485166700000E-01

 *******************************************************************************

 << INFORMATION >>: FROM NOW ON, ALL COORDINATES REFER TO THE PRIMITIVE CELL

 *******************************************************************************

 LATTICE PARAMETERS  (ANGSTROMS AND DEGREES) - PRIMITIVE CELL
       A          B          C        ALPHA      BETA     GAMMA        VOLUME
   15.02361   15.02392    9.00000    90.00032  89.99994 119.99596   1759.333932

 COORDINATES OF THE EQUIVALENT ATOMS (FRACTIONAL UNITS)

 N. ATOM EQUIV AT. N.          X                  Y                  Z

   1   1   1    5 B    -3.86319460000E-01  2.27318220000E-01  2.50530750000E-01

   2   2   1    5 B    -7.89332400000E-02 -1.57846840000E-01 -2.49469250000E-01

   3   3   1    5 B    -2.27263800000E-01  3.86377880000E-01  2.50530750000E-01

   4   4   1    5 B     8.01224200000E-02  1.21282000000E-03 -2.49469250000E-01

   5   5   1    5 B    -3.86323730000E-01  3.86360670000E-01  2.49414840000E-01

   6   6   1    5 B    -7.89375100000E-02  1.19561000000E-03 -2.50585160000E-01

   7   7   1    5 B     2.27255250000E-01 -3.86366780000E-01  2.50530750000E-01

   8   8   1    5 B    -4.65358530000E-01  2.28468160000E-01 -2.49469250000E-01

   9   9   1    5 B     3.86363220000E-01 -3.86387550000E-01  2.50530750000E-01

  10  10   1    5 B    -3.06250560000E-01  2.28447390000E-01 -2.49469250000E-01

  11  11   1    5 B     3.86343500000E-01 -2.27248350000E-01  2.49414840000E-01

  12  12   1    5 B    -3.06270280000E-01  3.87586590000E-01 -2.50585160000E-01

  13  13   1    1 H    -9.69563800000E-02  3.08930050000E-01  2.48217240000E-01

  14  14   1    1 H     2.10429840000E-01 -7.62350100000E-02 -2.51782760000E-01

  15  15   1    1 H     9.66345300000E-02 -3.08946560000E-01  2.47863470000E-01

  16  16   1    1 H     4.04020750000E-01  3.05888380000E-01 -2.52136530000E-01

  17  17   1    1 H    -9.70285800000E-02 -4.05927570000E-01  2.47809020000E-01

  18  18   1    1 H     2.10357640000E-01  2.08907370000E-01 -2.52190980000E-01

  19  19   1    1 H     9.67361800000E-02  4.05684940000E-01  2.47822600000E-01

  20  20   1    1 H     4.04122400000E-01  2.05198800000E-02 -2.52177400000E-01

  21  21   1    1 H    -3.08967600000E-01  9.70041200000E-02  2.51782770000E-01

  22  22   1    1 H    -1.58138000000E-03 -2.88160940000E-01 -2.48217230000E-01

  23  23   1    1 H     3.08929720000E-01 -9.65626900000E-02  2.52136560000E-01

  24  24   1    1 H    -3.83684060000E-01 -4.81727750000E-01 -2.47863440000E-01

  25  25   1    1 H     4.05869990000E-01  9.70499800000E-02  2.52191050000E-01

  26  26   1    1 H    -2.86743790000E-01 -2.88115080000E-01 -2.47808950000E-01

  27  27   1    1 H    -4.05687790000E-01 -9.66526800000E-02  2.52177370000E-01

  28  28   1    1 H    -9.83015700000E-02 -4.81817740000E-01 -2.47822630000E-01

  29  29   1    1 H    -3.08927260000E-01 -4.05945790000E-01  2.48217260000E-01

  30  30   1    1 H    -1.54104000000E-03  2.08889150000E-01 -2.51782740000E-01

  31  31   1    1 H     3.08961830000E-01  4.05609330000E-01  2.47863450000E-01

  32  32   1    1 H    -3.83651950000E-01  2.04442700000E-02 -2.52136550000E-01

  33  33   1    1 H     4.05840570000E-01  3.08823250000E-01  2.47808980000E-01

  34  34   1    1 H    -2.86773210000E-01 -7.63418100000E-02 -2.52191020000E-01

  35  35   1    1 H    -4.05709120000E-01 -3.09042070000E-01  2.47822650000E-01

  36  36   1    1 H    -9.83229000000E-02  3.05792870000E-01 -2.52177350000E-01

  37  37   1    6 C    -1.08109690000E-01  4.45943690000E-01  2.49374010000E-01

  38  38   1    6 C     1.99276530000E-01  6.07786300000E-02 -2.50625990000E-01

  39  39   1    6 C    -5.35108900000E-02  3.92785630000E-01  2.48271690000E-01

  40  40   1    6 C     2.53875330000E-01  7.62057000000E-03 -2.51728310000E-01

  41  41   1    6 C     5.33881200000E-02 -3.92814700000E-01  2.48176460000E-01

  42  42   1    6 C     3.60774340000E-01  2.22020240000E-01 -2.51823540000E-01

  43  43   1    6 C    -5.35478900000E-02 -4.46307810000E-01  2.48462240000E-01

  44  44   1    6 C     2.53838330000E-01  1.68527130000E-01 -2.51537750000E-01

  45  45   1    6 C     5.34263400000E-02  4.46249970000E-01  2.47727340000E-01

  46  46   1    6 C     3.60812560000E-01  6.10849100000E-02 -2.52272650000E-01

  47  47   1    6 C     1.08035890000E-01 -4.45964370000E-01  2.48475840000E-01

  48  48   1    6 C     4.15422110000E-01  1.68870570000E-01 -2.51524160000E-01

  49  49   1    6 C    -4.45960580000E-01  1.08168460000E-01  2.50626020000E-01

  50  50   1    6 C    -1.38574360000E-01 -2.76996600000E-01 -2.49373980000E-01

  51  51   1    6 C    -3.92822150000E-01  5.35559400000E-02  2.51728320000E-01

  52  52   1    6 C    -8.54359300000E-02 -3.31609120000E-01 -2.48271680000E-01

  53  53   1    6 C     3.92798670000E-01 -5.33368400000E-02  2.51823580000E-01

  54  54   1    6 C    -2.99815110000E-01 -4.38501900000E-01 -2.48176420000E-01

  55  55   1    6 C     4.46287580000E-01  5.36028600000E-02  2.51537810000E-01

  56  56   1    6 C    -2.46326200000E-01 -3.31562200000E-01 -2.48462190000E-01

  57  57   1    6 C    -4.46283150000E-01 -5.33764400000E-02  2.52272650000E-01

  58  58   1    6 C    -1.38896930000E-01 -4.38541500000E-01 -2.47727350000E-01

  59  59   1    6 C     4.45927910000E-01 -1.08007940000E-01  2.51524180000E-01

  60  60   1    6 C    -2.46685870000E-01 -4.93173000000E-01 -2.48475820000E-01

  61  61   1    6 C    -4.45955130000E-01  4.45874550000E-01  2.49374010000E-01

  62  62   1    6 C    -1.38568910000E-01  6.07094900000E-02 -2.50625990000E-01

  63  63   1    6 C    -3.92789780000E-01 -4.46374220000E-01  2.48271710000E-01

  64  64   1    6 C    -8.54035600000E-02  1.68460720000E-01 -2.51728290000E-01

  65  65   1    6 C     3.92823370000E-01  4.46172030000E-01  2.48176440000E-01

  66  66   1    6 C    -2.99790410000E-01  6.10069700000E-02 -2.51823560000E-01

  67  67   1    6 C     4.46287260000E-01  3.92689990000E-01  2.48462210000E-01

  68  68   1    6 C    -2.46326520000E-01  7.52493000000E-03 -2.51537790000E-01

  69  69   1    6 C    -4.46257040000E-01 -3.92902000000E-01  2.47727370000E-01

  70  70   1    6 C    -1.38870820000E-01  2.21932940000E-01 -2.52272630000E-01

  71  71   1    6 C     4.45959980000E-01 -4.46041770000E-01  2.48475840000E-01

  72  72   1    6 C    -2.46653800000E-01  1.68793170000E-01 -2.51524160000E-01

  73  73   1    8 O    -4.39263320000E-01  2.80370630000E-01  2.49714230000E-01

  74  74   1    8 O    -1.31877100000E-01 -1.04794430000E-01 -2.50285770000E-01

  75  75   1    8 O    -2.80318300000E-01  2.80378330000E-01  2.52068530000E-01

  76  76   1    8 O     2.70679200000E-02 -1.04786730000E-01 -2.47931470000E-01

  77  77   1    8 O    -2.80320580000E-01  4.39323460000E-01  2.48516670000E-01

  78  78   1    8 O     2.70656400000E-02  5.41584000000E-02 -2.51483330000E-01

  79  79   1    8 O     2.80324510000E-01 -2.80348890000E-01  2.49714240000E-01

  80  80   1    8 O    -4.12289270000E-01  3.34486050000E-01 -2.50285760000E-01

  81  81   1    8 O     2.80343970000E-01 -4.39304390000E-01  2.52068520000E-01

  82  82   1    8 O    -4.12269810000E-01  1.75530550000E-01 -2.47931480000E-01

  83  83   1    8 O     4.39263840000E-01 -2.80364580000E-01  2.48516660000E-01

  84  84   1    8 O    -2.53349940000E-01  3.34470360000E-01 -2.51483330000E-01

 NUMBER OF SYMMETRY OPERATORS         :    1
 *******************************************************************************
 * GEOMETRY EDITING - INPUT COORDINATES ARE GIVEN IN ANGSTROM         
 *******************************************************************************

 GCALCO - MAX INDICES DIRECT LATTICE VECTOR    13    13    18
 NO.OF VECTORS CREATED 6999 STARS 3500 RMAX   271.36532 BOHR

 GEOMETRY FOR WAVE FUNCTION - DIMENSIONALITY OF THE SYSTEM    3
 (NON PERIODIC DIRECTION: LATTICE PARAMETER FORMALLY SET TO 500)
 *******************************************************************************
 LATTICE PARAMETERS (ANGSTROMS AND DEGREES) - BOHR = 0.5291772083 ANGSTROM
 PRIMITIVE CELL - CENTRING CODE 1/0 VOLUME=  1759.333932 - DENSITY  0.736 g/cm^3
         A              B              C           ALPHA      BETA       GAMMA 
    15.02361100    15.02391600     9.00000000    90.000323  89.999944 119.995964
 *******************************************************************************
 ATOMS IN THE ASYMMETRIC UNIT   84 - ATOMS IN THE UNIT CELL:   84
     ATOM                 X/A                 Y/B                 Z/C    
 *******************************************************************************
      1 T   5 B    -3.863194600000E-01  2.273182200000E-01  2.505307500000E-01
      2 T   5 B    -7.893324000000E-02 -1.578468400000E-01 -2.494692500000E-01
      3 T   5 B    -2.272638000000E-01  3.863778800000E-01  2.505307500000E-01
      4 T   5 B     8.012242000000E-02  1.212820000000E-03 -2.494692500000E-01
      5 T   5 B    -3.863237300000E-01  3.863606700000E-01  2.494148400000E-01
      6 T   5 B    -7.893751000000E-02  1.195610000000E-03 -2.505851600000E-01
      7 T   5 B     2.272552500000E-01 -3.863667800000E-01  2.505307500000E-01
      8 T   5 B    -4.653585300000E-01  2.284681600000E-01 -2.494692500000E-01
      9 T   5 B     3.863632200000E-01 -3.863875500000E-01  2.505307500000E-01
     10 T   5 B    -3.062505600000E-01  2.284473900000E-01 -2.494692500000E-01
     11 T   5 B     3.863435000000E-01 -2.272483500000E-01  2.494148400000E-01
     12 T   5 B    -3.062702800000E-01  3.875865900000E-01 -2.505851600000E-01
     13 T   1 H    -9.695638000000E-02  3.089300500000E-01  2.482172400000E-01
     14 T   1 H     2.104298400000E-01 -7.623501000000E-02 -2.517827600000E-01
     15 T   1 H     9.663453000000E-02 -3.089465600000E-01  2.478634700000E-01
     16 T   1 H     4.040207500000E-01  3.058883800000E-01 -2.521365300000E-01
     17 T   1 H    -9.702858000000E-02 -4.059275700000E-01  2.478090200000E-01
     18 T   1 H     2.103576400000E-01  2.089073700000E-01 -2.521909800000E-01
     19 T   1 H     9.673618000000E-02  4.056849400000E-01  2.478226000000E-01
     20 T   1 H     4.041224000000E-01  2.051988000000E-02 -2.521774000000E-01
     21 T   1 H    -3.089676000000E-01  9.700412000000E-02  2.517827700000E-01
     22 T   1 H    -1.581380000000E-03 -2.881609400000E-01 -2.482172300000E-01
     23 T   1 H     3.089297200000E-01 -9.656269000000E-02  2.521365600000E-01
     24 T   1 H    -3.836840600000E-01 -4.817277500000E-01 -2.478634400000E-01
     25 T   1 H     4.058699900000E-01  9.704998000000E-02  2.521910500000E-01
     26 T   1 H    -2.867437900000E-01 -2.881150800000E-01 -2.478089500000E-01
     27 T   1 H    -4.056877900000E-01 -9.665268000000E-02  2.521773700000E-01
     28 T   1 H    -9.830157000000E-02 -4.818177400000E-01 -2.478226300000E-01
     29 T   1 H    -3.089272600000E-01 -4.059457900000E-01  2.482172600000E-01
     30 T   1 H    -1.541040000000E-03  2.088891500000E-01 -2.517827400000E-01
     31 T   1 H     3.089618300000E-01  4.056093300000E-01  2.478634500000E-01
     32 T   1 H    -3.836519500000E-01  2.044427000000E-02 -2.521365500000E-01
     33 T   1 H     4.058405700000E-01  3.088232500000E-01  2.478089800000E-01
     34 T   1 H    -2.867732100000E-01 -7.634181000000E-02 -2.521910200000E-01
     35 T   1 H    -4.057091200000E-01 -3.090420700000E-01  2.478226500000E-01
     36 T   1 H    -9.832290000000E-02  3.057928700000E-01 -2.521773500000E-01
     37 T   6 C    -1.081096900000E-01  4.459436900000E-01  2.493740100000E-01
     38 T   6 C     1.992765300000E-01  6.077863000000E-02 -2.506259900000E-01
     39 T   6 C    -5.351089000000E-02  3.927856300000E-01  2.482716900000E-01
     40 T   6 C     2.538753300000E-01  7.620570000000E-03 -2.517283100000E-01
     41 T   6 C     5.338812000000E-02 -3.928147000000E-01  2.481764600000E-01
     42 T   6 C     3.607743400000E-01  2.220202400000E-01 -2.518235400000E-01
     43 T   6 C    -5.354789000000E-02 -4.463078100000E-01  2.484622400000E-01
     44 T   6 C     2.538383300000E-01  1.685271300000E-01 -2.515377500000E-01
     45 T   6 C     5.342634000000E-02  4.462499700000E-01  2.477273400000E-01
     46 T   6 C     3.608125600000E-01  6.108491000000E-02 -2.522726500000E-01
     47 T   6 C     1.080358900000E-01 -4.459643700000E-01  2.484758400000E-01
     48 T   6 C     4.154221100000E-01  1.688705700000E-01 -2.515241600000E-01
     49 T   6 C    -4.459605800000E-01  1.081684600000E-01  2.506260200000E-01
     50 T   6 C    -1.385743600000E-01 -2.769966000000E-01 -2.493739800000E-01
     51 T   6 C    -3.928221500000E-01  5.355594000000E-02  2.517283200000E-01
     52 T   6 C    -8.543593000000E-02 -3.316091200000E-01 -2.482716800000E-01
     53 T   6 C     3.927986700000E-01 -5.333684000000E-02  2.518235800000E-01
     54 T   6 C    -2.998151100000E-01 -4.385019000000E-01 -2.481764200000E-01
     55 T   6 C     4.462875800000E-01  5.360286000000E-02  2.515378100000E-01
     56 T   6 C    -2.463262000000E-01 -3.315622000000E-01 -2.484621900000E-01
     57 T   6 C    -4.462831500000E-01 -5.337644000000E-02  2.522726500000E-01
     58 T   6 C    -1.388969300000E-01 -4.385415000000E-01 -2.477273500000E-01
     59 T   6 C     4.459279100000E-01 -1.080079400000E-01  2.515241800000E-01
     60 T   6 C    -2.466858700000E-01 -4.931730000000E-01 -2.484758200000E-01
     61 T   6 C    -4.459551300000E-01  4.458745500000E-01  2.493740100000E-01
     62 T   6 C    -1.385689100000E-01  6.070949000000E-02 -2.506259900000E-01
     63 T   6 C    -3.927897800000E-01 -4.463742200000E-01  2.482717100000E-01
     64 T   6 C    -8.540356000000E-02  1.684607200000E-01 -2.517282900000E-01
     65 T   6 C     3.928233700000E-01  4.461720300000E-01  2.481764400000E-01
     66 T   6 C    -2.997904100000E-01  6.100697000000E-02 -2.518235600000E-01
     67 T   6 C     4.462872600000E-01  3.926899900000E-01  2.484622100000E-01
     68 T   6 C    -2.463265200000E-01  7.524930000000E-03 -2.515377900000E-01
     69 T   6 C    -4.462570400000E-01 -3.929020000000E-01  2.477273700000E-01
     70 T   6 C    -1.388708200000E-01  2.219329400000E-01 -2.522726300000E-01
     71 T   6 C     4.459599800000E-01 -4.460417700000E-01  2.484758400000E-01
     72 T   6 C    -2.466538000000E-01  1.687931700000E-01 -2.515241600000E-01
     73 T   8 O    -4.392633200000E-01  2.803706300000E-01  2.497142300000E-01
     74 T   8 O    -1.318771000000E-01 -1.047944300000E-01 -2.502857700000E-01
     75 T   8 O    -2.803183000000E-01  2.803783300000E-01  2.520685300000E-01
     76 T   8 O     2.706792000000E-02 -1.047867300000E-01 -2.479314700000E-01
     77 T   8 O    -2.803205800000E-01  4.393234600000E-01  2.485166700000E-01
     78 T   8 O     2.706564000000E-02  5.415840000000E-02 -2.514833300000E-01
     79 T   8 O     2.803245100000E-01 -2.803488900000E-01  2.497142400000E-01
     80 T   8 O    -4.122892700000E-01  3.344860500000E-01 -2.502857600000E-01
     81 T   8 O     2.803439700000E-01 -4.393043900000E-01  2.520685200000E-01
     82 T   8 O    -4.122698100000E-01  1.755305500000E-01 -2.479314800000E-01
     83 T   8 O     4.392638400000E-01 -2.803645800000E-01  2.485166600000E-01
     84 T   8 O    -2.533499400000E-01  3.344703600000E-01 -2.514833300000E-01

 T = ATOM BELONGING TO THE ASYMMETRIC UNIT

 ****    1 SYMMOPS - TRANSLATORS IN FRACTIONAL UNITS
 **** MATRICES AND TRANSLATORS IN THE CRYSTALLOGRAPHIC REFERENCE FRAME
   V INV                    ROTATION MATRICES                   TRANSLATORS
   1   1  1.00 -0.00  0.00  0.00  1.00  0.00  0.00  0.00  1.00  0.00  0.00  0.00

 DIRECT LATTICE VECTORS CARTESIAN COMPONENTS (ANGSTROM)
          X                    Y                    Z
   0.130113578931E+02  -0.751088897922E+01   0.000000000000E+00
   0.000000000000E+00   0.150239160000E+02   0.000000000000E+00
  -0.191312312409E-04  -0.507367213534E-04   0.899999999984E+01


 CARTESIAN COORDINATES - PRIMITIVE CELL
 *******************************************************************************
 *      ATOM          X(ANGSTROM)         Y(ANGSTROM)         Z(ANGSTROM)
 *******************************************************************************
    1     5 B    -5.026545548074E+00  6.316799706012E+00  2.254776749959E+00
    2     5 B    -1.027023862645E+00 -1.778606205364E+00 -2.245223249959E+00
    3     5 B    -2.957015430898E+00  7.511849273064E+00  2.254776749959E+00
    4     5 B     1.042506254532E+00 -5.835566383112E-01 -2.245223249959E+00
    5     5 B    -5.026601085224E+00 -6.317643756641E+00  2.244733559959E+00
    6     5 B    -1.027079399794E+00  6.108663319840E-01 -2.255266439959E+00
    7     5 B     2.956894597864E+00 -7.511643711713E+00  2.254776749959E+00
    8     5 B     6.956416283294E+00 -5.831336230887E-01 -2.245223249959E+00
    9     5 B     5.027105339172E+00  6.316917943173E+00  2.254776749959E+00
   10     5 B    -3.984730868455E+00  5.732401011014E+00 -2.245223249959E+00
   11     5 B     5.026848776543E+00 -6.315955912372E+00  2.244733559959E+00
   12     5 B    -3.984987431084E+00 -6.900472844531E+00 -2.255266439959E+00
   13     1 H    -1.261538908897E+00  5.369555133354E+00  2.233955159959E+00
   14     1 H     2.737982776533E+00 -2.725850778022E+00 -2.266044839959E+00
   15     1 H     1.257341712724E+00 -5.367410968098E+00  2.230771229960E+00
   16     1 H     5.256863398153E+00  1.561099120527E+00 -2.269228769959E+00
   17     1 H    -1.262478321127E+00 -5.369863394590E+00  2.230281179960E+00
   18     1 H     2.737043364303E+00  1.558646694034E+00 -2.269718819959E+00
   19     1 H     1.258664318036E+00  5.368389179065E+00  2.230403399960E+00
   20     1 H     5.258186003465E+00 -2.727016732310E+00 -2.269596599959E+00
   21     1 H    -4.020092837873E+00  3.777990317677E+00  2.266044929959E+00
   22     1 H    -2.057115244370E-02 -4.317415593699E+00 -2.233955069959E+00
   23     1 H     4.019590327039E+00 -3.771099365177E+00  2.269229039959E+00
   24     1 H    -4.992245880588E+00 -4.355616297336E+00 -2.230770959960E+00
   25     1 H     5.280914873216E+00 -1.590386482911E+00  2.269719449959E+00
   26     1 H    -3.730921334411E+00 -2.174903415070E+00 -2.230280549960E+00
   27     1 H    -5.278553852997E+00  1.594961410766E+00  2.269596329959E+00
   28     1 H    -1.279032167567E+00 -6.500444500609E+00 -2.230403669960E+00
   29     1 H    -4.019567891483E+00 -3.778589690730E+00  2.233955339959E+00
   30     1 H    -2.004620605369E-02  3.149920397895E+00 -2.266044659959E+00
   31     1 H     4.020008203491E+00  3.773249923012E+00  2.230771049960E+00
   32     1 H    -4.991828004136E+00  3.188732990853E+00 -2.269228949959E+00
   33     1 H     5.280532162901E+00  1.591498529300E+00  2.230280819960E+00
   34     1 H    -3.731304044726E+00  1.006981597141E+00 -2.269719179959E+00
   35     1 H    -5.278831301949E+00 -1.595798515679E+00  2.230403849960E+00
   36     1 H    -1.279309616520E+00  5.332711572945E+00 -2.269596149959E+00
   37     6 C    -1.406658639129E+00  7.511807766038E+00  2.244366089959E+00
   38     6 C     2.592863046300E+00 -5.835981453374E-01 -2.255633909959E+00
   39     6 C    -6.962540907091E-01  6.303080068605E+00  2.234445209959E+00
   40     6 C     3.303267594720E+00 -1.792325842771E+00 -2.265554789959E+00
   41     6 C     6.946471886362E-01 -6.302619890154E+00  2.233588139959E+00
   42     6 C     4.694168874066E+00  6.258901984705E-01 -2.266411859959E+00
   43     6 C    -6.967355145966E-01 -6.303111396882E+00  2.236160159959E+00
   44     6 C     3.302786170833E+00  6.253986917421E-01 -2.263839749959E+00
   45     6 C     6.951444913271E-01  6.303130187104E+00  2.229546059960E+00
   46     6 C     4.694666176756E+00 -1.792275724272E+00 -2.270453849959E+00
   47     6 C     1.405688876436E+00 -7.511589416283E+00  2.236282559959E+00
   48     6 C     5.405210561866E+00 -5.830793276585E-01 -2.263717439959E+00
   49     6 C     7.208800385697E+00 -2.536227432783E+00  2.255634179959E+00
   50     6 C    -1.803035821930E+00 -3.120744364941E+00 -2.244365819959E+00
   51     6 C    -5.111154397843E+00  3.755050729219E+00  2.265554879959E+00
   52     6 C    -1.111632712413E+00 -4.340355182157E+00 -2.234445119959E+00
   53     6 C     5.110839257591E+00 -3.751608182122E+00  2.266412219959E+00
   54     6 C    -3.900996950036E+00 -4.336125114281E+00 -2.233587779959E+00
   55     6 C     5.806802614378E+00 -2.546704362387E+00  2.263840289959E+00
   56     6 C    -3.205033593249E+00 -3.131221294546E+00 -2.236159709959E+00
   57     6 C    -5.806754612577E+00  2.550047242519E+00  2.270453849959E+00
   58     6 C    -1.807232927148E+00 -5.545358668856E+00 -2.229546149960E+00
   59     6 C     5.802122819545E+00 -4.972030004149E+00  2.263717619959E+00
   60     6 C    -3.209713388082E+00 -5.556546936308E+00 -2.236282379959E+00
   61     6 C     7.208871321550E+00  2.537399625244E+00  2.244366089959E+00
   62     6 C    -1.802964886077E+00  1.952882693085E+00 -2.255633909959E+00
   63     6 C    -5.110733154058E+00 -3.756100952587E+00  2.234445389959E+00
   64     6 C    -1.111211468629E+00  3.172409136037E+00 -2.265554609959E+00
   65     6 C     5.111160707906E+00  3.752785788099E+00  2.233587959959E+00
   66     6 C    -3.900675499721E+00  3.168268855940E+00 -2.266412039959E+00
   67     6 C     5.806798509584E+00  2.547714754944E+00  2.236159889959E+00
   68     6 C    -3.205037698044E+00  1.963197822785E+00 -2.263840109959E+00
   69     6 C    -5.806414799066E+00 -2.551152129473E+00  2.229546329960E+00
   70     6 C    -1.806893113636E+00  4.377357959152E+00 -2.270453669959E+00
   71     6 C     5.802540152112E+00  4.973053409226E+00  2.236282559959E+00
   72     6 C    -3.209296055516E+00  4.388536477067E+00 -2.263717439959E+00
   73     8 O     7.295940849904E+00  6.211742513495E-04  2.247428069959E+00
   74     8 O    -1.715895357723E+00 -5.838957579075E-01 -2.252571929959E+00
   75     8 O    -3.647326547655E+00  6.317807319152E+00  2.268616769959E+00
   76     8 O     3.521951377749E-01 -1.777598592223E+00 -2.231383229960E+00
   77     8 O    -3.647356145599E+00 -6.318113094082E+00  2.236650029959E+00
   78     8 O     3.521655398304E-01  6.103969945426E-01 -2.263349969959E+00
   79     8 O     3.647397748465E+00 -6.317437116498E+00  2.247428159959E+00
   80     8 O     7.646919433894E+00  6.110729721264E-01 -2.252571839959E+00
   81     8 O     3.647650904449E+00  6.318198522416E+00  2.268616679959E+00
   82     8 O     7.647172589879E+00 -1.777207388960E+00 -2.231383319960E+00
   83     8 O    -7.295943615768E+00 -5.594638236531E-04  2.236649939959E+00
   84     8 O    -3.296421930339E+00  6.927950624801E+00 -2.263349969959E+00

 *******************************************************************************
 STARTING BASIS SET HANDLING 
 *******************************************************************************

 Loading internal basis set: SOLDEF2MSVP         

 Please cite in your publication:
 L. Dona', J. G. Brandenburg and B. Civalleri, J. Chem. Phys., 151, 121101 (2019
 )                                                                              
                                                                                
                    

 *******************************************************************************
 LOCAL ATOMIC FUNCTIONS BASIS SET
 *******************************************************************************
   ATOM   X(AU)   Y(AU)   Z(AU)  N. TYPE  EXPONENT  S COEF   P COEF   D/F/G COEF
 *******************************************************************************
   1 B   -9.499  11.937   4.261
                                  1 S  
                                         2.410E+03 1.755E-03 0.000E+00 0.000E+00
                                         3.619E+02 1.344E-02 0.000E+00 0.000E+00
                                         8.231E+01 6.637E-02 0.000E+00 0.000E+00
                                         2.311E+01 2.303E-01 0.000E+00 0.000E+00
                                         7.252E+00 5.150E-01 0.000E+00 0.000E+00
                                  2 S  
                                         2.367E+00 1.000E+00 0.000E+00 0.000E+00
                                  3 S  
                                         5.533E-01 1.000E+00 0.000E+00 0.000E+00
                                  4 S  
                                         1.716E-01 1.000E+00 0.000E+00 0.000E+00
                           5-     7 P  
                                         6.002E+00 0.000E+00-3.555E-02 0.000E+00
                                         1.240E+00 0.000E+00-1.983E-01 0.000E+00
                                         3.367E-01 0.000E+00-5.048E-01 0.000E+00
                           8-    10 P  
                                         1.256E-01 0.000E+00 1.000E+00 0.000E+00
                          11-    15 D  
                                         8.880E-01 0.000E+00 0.000E+00 1.000E+00
   2 B   -1.941  -3.361  -4.243
   3 B   -5.588  14.195   4.261
   4 B    1.970  -1.103  -4.243
   5 B   -9.499 -11.939   4.242
   6 B   -1.941   1.154  -4.262
   7 B    5.588 -14.195   4.261
   8 B   13.146  -1.102  -4.243
   9 B    9.500  11.937   4.261
  10 B   -7.530  10.833  -4.243
  11 B    9.499 -11.935   4.242
  12 B   -7.531 -13.040  -4.262
  13 H   -2.384  10.147   4.222
                                181 S  
                                         1.874E+01 1.968E-02 0.000E+00 0.000E+00
                                         2.826E+00 1.380E-01 0.000E+00 0.000E+00
                                         6.401E-01 4.783E-01 0.000E+00 0.000E+00
                                182 S  
                                         1.756E-01 1.000E+00 0.000E+00 0.000E+00
  14 H    5.174  -5.151  -4.282
  15 H    2.376 -10.143   4.216
  16 H    9.934   2.950  -4.288
  17 H   -2.386 -10.148   4.215
  18 H    5.172   2.945  -4.289
  19 H    2.379  10.145   4.215
  20 H    9.937  -5.153  -4.289
  21 H   -7.597   7.139   4.282
  22 H   -0.039  -8.159  -4.222
  23 H    7.596  -7.126   4.288
  24 H   -9.434  -8.231  -4.216
  25 H    9.979  -3.005   4.289
  26 H   -7.050  -4.110  -4.215
  27 H   -9.975   3.014   4.289
  28 H   -2.417 -12.284  -4.215
  29 H   -7.596  -7.140   4.222
  30 H   -0.038   5.952  -4.282
  31 H    7.597   7.130   4.216
  32 H   -9.433   6.026  -4.288
  33 H    9.979   3.007   4.215
  34 H   -7.051   1.903  -4.289
  35 H   -9.976  -3.016   4.215
  36 H   -2.418  10.077  -4.289
  37 C   -2.658  14.195   4.241
                                229 S  
                                         3.624E+03 1.634E-03 0.000E+00 0.000E+00
                                         5.440E+02 1.252E-02 0.000E+00 0.000E+00
                                         1.237E+02 6.211E-02 0.000E+00 0.000E+00
                                         3.476E+01 2.182E-01 0.000E+00 0.000E+00
                                         1.093E+01 4.980E-01 0.000E+00 0.000E+00
                                230 S  
                                         3.574E+00 1.000E+00 0.000E+00 0.000E+00
                                231 S  
                                         7.742E-01 1.000E+00 0.000E+00 0.000E+00
                                232 S  
                                         2.330E-01 1.000E+00 0.000E+00 0.000E+00
                         233-   235 P  
                                         9.443E+00 0.000E+00 3.790E-02 0.000E+00
                                         2.002E+00 0.000E+00 2.082E-01 0.000E+00
                                         5.463E-01 0.000E+00 5.047E-01 0.000E+00
                         236-   238 P  
                                         1.820E-01 0.000E+00 1.000E+00 0.000E+00
                         239-   243 D  
                                         8.880E-01 0.000E+00 0.000E+00 1.000E+00
  38 C    4.900  -1.103  -4.263
  39 C   -1.316  11.911   4.222
  40 C    6.242  -3.387  -4.281
  41 C    1.313 -11.910   4.221
  42 C    8.871   1.183  -4.283
  43 C   -1.317 -11.911   4.226
  44 C    6.241   1.182  -4.278
  45 C    1.314  11.911   4.213
  46 C    8.872  -3.387  -4.291
  47 C    2.656 -14.195   4.226
  48 C   10.214  -1.102  -4.278
  49 C   13.623  -4.793   4.263
  50 C   -3.407  -5.897  -4.241
  51 C   -9.659   7.096   4.281
  52 C   -2.101  -8.202  -4.222
  53 C    9.658  -7.090   4.283
  54 C   -7.372  -8.194  -4.221
  55 C   10.973  -4.813   4.278
  56 C   -6.057  -5.917  -4.226
  57 C  -10.973   4.819   4.291
  58 C   -3.415 -10.479  -4.213
  59 C   10.964  -9.396   4.278
  60 C   -6.065 -10.500  -4.226
  61 C   13.623   4.795   4.241
  62 C   -3.407   3.690  -4.263
  63 C   -9.658  -7.098   4.222
  64 C   -2.100   5.995  -4.281
  65 C    9.659   7.092   4.221
  66 C   -7.371   5.987  -4.283
  67 C   10.973   4.814   4.226
  68 C   -6.057   3.710  -4.278
  69 C  -10.973  -4.821   4.213
  70 C   -3.415   8.272  -4.291
  71 C   10.965   9.398   4.226
  72 C   -6.065   8.293  -4.278
  73 O   13.787   0.001   4.247
                                769 S  
                                         6.773E+03 1.727E-03 0.000E+00 0.000E+00
                                         1.017E+03 1.325E-02 0.000E+00 0.000E+00
                                         2.313E+02 6.603E-02 0.000E+00 0.000E+00
                                         6.501E+01 2.353E-01 0.000E+00 0.000E+00
                                         2.050E+01 5.498E-01 0.000E+00 0.000E+00
                                770 S  
                                         6.716E+00 1.000E+00 0.000E+00 0.000E+00
                                771 S  
                                         1.147E+00 1.000E+00 0.000E+00 0.000E+00
                                772 S  
                                         3.342E-01 1.000E+00 0.000E+00 0.000E+00
                         773-   775 P  
                                         1.769E+01 0.000E+00 4.359E-02 0.000E+00
                                         3.854E+00 0.000E+00 2.318E-01 0.000E+00
                                         1.047E+00 0.000E+00 5.146E-01 0.000E+00
                         776-   778 P  
                                         2.759E-01 0.000E+00 1.000E+00 0.000E+00
                         779-   783 D  
                                         8.000E-01 0.000E+00 0.000E+00 1.000E+00
  74 O   -3.243  -1.103  -4.257
  75 O   -6.892  11.939   4.287
  76 O    0.666  -3.359  -4.217
  77 O   -6.893 -11.940   4.227
  78 O    0.665   1.153  -4.277
  79 O    6.893 -11.938   4.247
  80 O   14.451   1.155  -4.257
  81 O    6.893  11.940   4.287
  82 O   14.451  -3.358  -4.217
  83 O  -13.787  -0.001   4.227
  84 O   -6.229  13.092  -4.277

 *******************************************************************************
 FINISHED BASIS SET HANDLING 
 *******************************************************************************

 INFORMATION **** SET_MPP **** PCRYSTAL CALCULATION
 INFORMATION **** READM2 **** NEW DEFAULT: FOCK/KS MATRIX MIXING SET TO 30 %
 INFORMATION **** READM2 **** NEW DEFAULT: FULL DIRECT SCF MODE
 INFORMATION **** READM2 **** NEW DEFAULT: COULOMB BIPOLAR BUFFER SET TO 32 Mb
 INFORMATION **** READM2 **** NEW DEFAULT: EXCHANGE BIPOLAR BUFFER SET TO 32 Mb

 *******************************************************************************
 NEW DEFAULT: DFT INTEGRATION GRID INCREASED TO XLGRID
 NEW DEFAULT: DIIS ACCELERATOR ACTIVE
 USE KEYWORD NODIIS TO TURN IT OFF
 *******************************************************************************

 WARNING **** RDDFTP **** HSEsol-HJS ACTIVE
 RANGE SEPARATION - OMEGA:   0.110000000000000     
 WARNING **** RDDFTP **** HSEsol-3c has to be combined with sol-def2-mSVP basis set
 *******************************************************************************
 N. OF ATOMS PER CELL        84  COULOMB OVERLAP TOL         (T1) 10**   -6
 NUMBER OF SHELLS           468  COULOMB PENETRATION TOL     (T2) 10**   -6
 NUMBER OF AO               948  EXCHANGE OVERLAP TOL        (T3) 10**   -6
 N. OF ELECTRONS PER CELL   396  EXCHANGE PSEUDO OVP (F(G))  (T4) 10**   -6
 CORE ELECTRONS PER CELL    120  EXCHANGE PSEUDO OVP (P(G))  (T5) 10**  -12
 N. OF SYMMETRY OPERATORS     1  POLE ORDER IN MONO ZONE                  4
 *******************************************************************************
 TYPE OF CALCULATION :  RESTRICTED CLOSED SHELL
 KOHN-SHAM HAMILTONIAN

 (EXCHANGE)[CORRELATION] FUNCTIONAL:(HSEsol GGA)[PBEsol]

 RANGE-SEPARATED HYBRID FUNCTIONAL 
 OMEGA (SHORT-RANGE)[LONG-RANGE]:(    0.1100)[    0.0000]

 HYBRID EXCHANGE - PERCENTAGE OF FOCK EXCHANGE    25.0000

 CAPPA:IS1  2;IS2  2;IS3  8; K PTS MONK NET  20; SYMMOPS:K SPACE   2;G SPACE   1

 *******************************************************************************
 MAX NUMBER OF SCF CYCLES      50  CONVERGENCE ON DELTAP        10**-16
 WEIGHT OF F(I) IN F(I+1)      30% CONVERGENCE ON ENERGY        10**- 6
 SHRINK. FACT.(MONKH.)    2  2  8  NUMBER OF K POINTS IN THE IBZ     20
 SHRINKING FACTOR(GILAT NET)    8  NUMBER OF K POINTS(GILAT NET)   1028
 *******************************************************************************
 *** K POINTS COORDINATES (OBLIQUE COORDINATES IN UNITS OF IS =  2)
   1-R(  0  0  0)   2-R(  1  0  0)   3-R(  0  1  0)   4-R(  1  1  0)
   5-C(  0  0  1)   6-C(  1  0  1)   7-C(  0  1  1)   8-C(  1  1  1)
   9-C(  0  0  2)  10-C(  1  0  2)  11-C(  0  1  2)  12-C(  1  1  2)
  13-C(  0  0  3)  14-C(  1  0  3)  15-C(  0  1  3)  16-C(  1  1  3)
  17-R(  0  0  4)  18-R(  1  0  4)  19-R(  0  1  4)  20-R(  1  1  4)

 DIRECT LATTICE VECTORS COMPON. (A.U.)     RECIP. LATTICE VECTORS COMPON. (A.U.) 
        X            Y            Z              X            Y            Z
   24.5879030  -14.1935232    0.0000000      0.2555397    0.0000000    0.0000005
    0.0000000   28.3910867    0.0000000      0.1277517    0.2213084    0.0000015
   -0.0000362   -0.0000959   17.0075352      0.0000000    0.0000000    0.3694354

 DISK SPACE FOR EIGENVECTORS (FTN 10)    28758528 REALS

 SYMMETRY ADAPTION OF THE BLOCH FUNCTIONS DISABLED
 TTTTTTTTTTTTTTTTTTTTTTTTTTTTTT gordsh1     TELAPSE        0.05 TCPU        0.05

 MATRIX SIZE: P(G)  533246, F(G)  105633, P(G) IRR  268525, F(G) IRR  106593
 MAX G-VECTOR INDEX FOR 1- AND 2-ELECTRON INTEGRALS  53

 TTTTTTTTTTTTTTTTTTTTTTTTTTTTTT INPUT       TELAPSE        2.14 TCPU        2.14

 NEIGHBORS OF THE NON-EQUIVALENT ATOMS

 N = NUMBER OF NEIGHBORS AT DISTANCE R
    ATOM  N     R/ANG      R/AU   NEIGHBORS (ATOM LABELS AND CELL INDICES)
   1 B    1     1.3791     2.6061   73 O   -1 0 0
   1 B    1     1.3793     2.6065   75 O    0 0 0
   1 B    1     1.5503     2.9297   49 C   -1 0 0
   1 B    1     2.3895     4.5155    5 B    0 1 0
   1 B    1     2.3898     4.5160    3 B    0 0 0
   1 B    1     2.5632     4.8437   51 C    0 0 0

   2 B    1     1.3791     2.6061   74 O    0 0 0
   2 B    1     1.3793     2.6065   76 O    0 0 0
   2 B    1     1.5503     2.9297   50 C    0 0 0
   2 B    1     2.3895     4.5155    6 B    0 0 0
   2 B    1     2.3898     4.5160    4 B    0 0 0
   2 B    1     2.5632     4.8437   52 C    0 0 0

   3 B    1     1.3793     2.6065   77 O    0 1 0
   3 B    1     1.3793     2.6065   75 O    0 0 0
   3 B    1     1.5504     2.9298   37 C    0 0 0
   3 B    1     2.3895     4.5156    5 B    0 1 0
   3 B    1     2.3898     4.5160    1 B    0 0 0
   3 B    1     2.5634     4.8440   43 C    0 1 0

   4 B    1     1.3793     2.6065   78 O    0 0 0
   4 B    1     1.3793     2.6065   76 O    0 0 0
   4 B    1     1.5504     2.9298   38 C    0 0 0
   4 B    1     2.3895     4.5156    6 B    0 0 0
   4 B    1     2.3898     4.5160    2 B    0 0 0
   4 B    1     2.5634     4.8440   44 C    0 0 0

   5 B    1     1.3791     2.6061   73 O   -1-1 0
   5 B    1     1.3793     2.6064   77 O    0 0 0
   5 B    1     1.5502     2.9294   61 C   -1-1 0
   5 B    1     2.3895     4.5155    1 B    0-1 0
   5 B    1     2.3895     4.5156    3 B    0-1 0
   5 B    1     2.5629     4.8433   63 C    0 0 0

   6 B    1     1.3791     2.6061   74 O    0 0 0
   6 B    1     1.3793     2.6064   78 O    0 0 0
   6 B    1     1.5502     2.9294   62 C    0 0 0
   6 B    1     2.3895     4.5155    2 B    0 0 0
   6 B    1     2.3895     4.5156    4 B    0 0 0
   6 B    1     2.5629     4.8433   64 C    0 0 0

   7 B    1     1.3795     2.6068   79 O    0 0 0
   7 B    1     1.3795     2.6070   81 O    0-1 0
   7 B    1     1.5513     2.9316   47 C    0 0 0
   7 B    1     2.3905     4.5174   11 B    0 0 0
   7 B    1     2.3905     4.5175    9 B    0-1 0
   7 B    1     2.5648     4.8468   45 C    0-1 0

   8 B    1     1.3795     2.6068   80 O    0 0 0
   8 B    1     1.3795     2.6070   82 O    0 0 0
   8 B    1     1.5513     2.9316   48 C    0 0 0
   8 B    1     2.3905     4.5174   12 B    1 1 0
   8 B    1     2.3905     4.5175   10 B    1 0 0
   8 B    1     2.5648     4.8468   46 C    0 0 0

   9 B    1     1.3795     2.6069   81 O    0 0 0
   9 B    1     1.3797     2.6072   83 O    1 1 0
   9 B    1     1.5516     2.9322   71 C    0 0 0
   9 B    1     2.3905     4.5175    7 B    0 1 0
   9 B    1     2.3911     4.5185   11 B    0 1 0
   9 B    1     2.5651     4.8473   69 C    1 1 0

  10 B    1     1.3795     2.6069   82 O   -1 0 0
  10 B    1     1.3797     2.6072   84 O    0 0 0
  10 B    1     1.5516     2.9322   72 C    0 0 0
  10 B    1     2.3905     4.5175    8 B   -1 0 0
  10 B    1     2.3911     4.5185   12 B    0 1 0
  10 B    1     2.5651     4.8473   70 C    0 0 0

  11 B    1     1.3795     2.6068   79 O    0 0 0
  11 B    1     1.3796     2.6071   83 O    1 0 0
  11 B    1     1.5516     2.9322   59 C    0 0 0
  11 B    1     2.3905     4.5174    7 B    0 0 0
  11 B    1     2.3911     4.5185    9 B    0-1 0
  11 B    1     2.5651     4.8473   57 C    1 0 0

  12 B    1     1.3795     2.6068   80 O   -1-1 0
  12 B    1     1.3796     2.6071   84 O    0-1 0
  12 B    1     1.5516     2.9322   60 C    0 0 0
  12 B    1     2.3905     4.5174    8 B   -1-1 0
  12 B    1     2.3911     4.5185   10 B    0-1 0
  12 B    1     2.5651     4.8473   58 C    0 0 0

  13 H    1     1.0913     2.0623   39 C    0 0 0
  13 H    1     2.1472     4.0576   37 C    0 0 0
  13 H    1     2.1680     4.0969   45 C    0 0 0
  13 H    1     2.5202     4.7625   19 H    0 0 0
  13 H    1     2.5676     4.8520   75 O    0 0 0
  13 H    1     2.7321     5.1630    3 B    0 0 0

  14 H    1     1.0913     2.0623   40 C    0 0 0
  14 H    1     2.1472     4.0576   38 C    0 0 0
  14 H    1     2.1680     4.0969   46 C    0 0 0
  14 H    1     2.5202     4.7625   20 H    0 0 0
  14 H    1     2.5676     4.8520   76 O    0 0 0
  14 H    1     2.7321     5.1630    4 B    0 0 0

  15 H    1     1.0914     2.0625   41 C    0 0 0
  15 H    1     2.1493     4.0616   47 C    0 0 0
  15 H    1     2.1666     4.0942   43 C    0 0 0
  15 H    1     2.5198     4.7618   17 H    0 0 0
  15 H    1     2.5720     4.8604   79 O    0 0 0
  15 H    1     2.7362     5.1707    7 B    0 0 0

  16 H    1     1.0914     2.0625   42 C    0 0 0
  16 H    1     2.1493     4.0616   48 C    0 0 0
  16 H    1     2.1666     4.0942   44 C    0 0 0
  16 H    1     2.5198     4.7618   18 H    0 0 0
  16 H    1     2.5720     4.8604   80 O    0 0 0
  16 H    1     2.7362     5.1707    8 B    0 0 0

  17 H    1     1.0914     2.0624   43 C    0 0 0
  17 H    1     2.1471     4.0575   37 C    0-1 0
  17 H    1     2.1680     4.0970   41 C    0 0 0
  17 H    1     2.5198     4.7618   15 H    0 0 0
  17 H    1     2.5665     4.8500   77 O    0 0 0
  17 H    1     2.7315     5.1618    3 B    0-1 0

  18 H    1     1.0914     2.0624   44 C    0 0 0
  18 H    1     2.1471     4.0575   38 C    0 0 0
  18 H    1     2.1680     4.0970   42 C    0 0 0
  18 H    1     2.5198     4.7618   16 H    0 0 0
  18 H    1     2.5665     4.8500   78 O    0 0 0
  18 H    1     2.7315     5.1618    4 B    0 0 0

  19 H    1     1.0915     2.0626   45 C    0 0 0
  19 H    1     2.1490     4.0610   47 C    0 1 0
  19 H    1     2.1669     4.0948   39 C    0 0 0
  19 H    1     2.5202     4.7625   13 H    0 0 0
  19 H    1     2.5712     4.8588   81 O    0 0 0
  19 H    1     2.7351     5.1686    7 B    0 1 0

  20 H    1     1.0915     2.0626   46 C    0 0 0
  20 H    1     2.1490     4.0610   48 C    0 0 0
  20 H    1     2.1669     4.0948   40 C    0 0 0
  20 H    1     2.5202     4.7625   14 H    0 0 0
  20 H    1     2.5712     4.8588   82 O    0 0 0
  20 H    1     2.7351     5.1686    8 B    0 0 0

  21 H    1     1.0913     2.0623   51 C    0 0 0
  21 H    1     2.1469     4.0571   49 C   -1 0 0
  21 H    1     2.1680     4.0968   57 C    0 0 0
  21 H    1     2.5198     4.7617   27 H    0 0 0
  21 H    1     2.5670     4.8510   75 O    0 0 0
  21 H    1     2.7310     5.1609    1 B    0 0 0

  22 H    1     1.0913     2.0623   52 C    0 0 0
  22 H    1     2.1469     4.0571   50 C    0 0 0
  22 H    1     2.1680     4.0968   58 C    0 0 0
  22 H    1     2.5198     4.7617   28 H    0 0 0
  22 H    1     2.5670     4.8510   76 O    0 0 0
  22 H    1     2.7310     5.1609    2 B    0 0 0

  23 H    1     1.0914     2.0625   53 C    0 0 0
  23 H    1     2.1493     4.0617   59 C    0 0 0
  23 H    1     2.1664     4.0939   55 C    0 0 0
  23 H    1     2.5192     4.7606   25 H    0 0 0
  23 H    1     2.5735     4.8632   79 O    0 0 0
  23 H    1     2.7371     5.1723   11 B    0 0 0

  24 H    1     1.0914     2.0625   54 C    0 0 0
  24 H    1     2.1493     4.0617   60 C    0 0 0
  24 H    1     2.1664     4.0939   56 C    0 0 0
  24 H    1     2.5192     4.7606   26 H    0 0 0
  24 H    1     2.5735     4.8632   80 O   -1-1 0
  24 H    1     2.7371     5.1723   12 B    0 0 0

  25 H    1     1.0914     2.0624   55 C    0 0 0
  25 H    1     2.1475     4.0581   49 C    0 0 0
  25 H    1     2.1679     4.0967   53 C    0 0 0
  25 H    1     2.5192     4.7606   23 H    0 0 0
  25 H    1     2.5675     4.8519   73 O    0 0 0
  25 H    1     2.7328     5.1643    1 B    1 0 0

  26 H    1     1.0914     2.0624   56 C    0 0 0
  26 H    1     2.1475     4.0581   50 C    0 0 0
  26 H    1     2.1679     4.0967   54 C    0 0 0
  26 H    1     2.5192     4.7606   24 H    0 0 0
  26 H    1     2.5675     4.8519   74 O    0 0 0
  26 H    1     2.7328     5.1643    2 B    0 0 0

  27 H    1     1.0914     2.0625   57 C    0 0 0
  27 H    1     2.1491     4.0612   59 C   -1 0 0
  27 H    1     2.1666     4.0942   51 C    0 0 0
  27 H    1     2.5198     4.7617   21 H    0 0 0
  27 H    1     2.5723     4.8609   83 O    0 0 0
  27 H    1     2.7355     5.1693   11 B   -1 0 0

  28 H    1     1.0914     2.0625   58 C    0 0 0
  28 H    1     2.1491     4.0612   60 C    0 0 0
  28 H    1     2.1666     4.0942   52 C    0 0 0
  28 H    1     2.5198     4.7617   22 H    0 0 0
  28 H    1     2.5723     4.8609   84 O    0-1 0
  28 H    1     2.7355     5.1693   12 B    0 0 0

  29 H    1     1.0914     2.0624   63 C    0 0 0
  29 H    1     2.1475     4.0582   61 C   -1-1 0
  29 H    1     2.1678     4.0966   69 C    0 0 0
  29 H    1     2.5200     4.7621   35 H    0 0 0
  29 H    1     2.5667     4.8503   77 O    0 0 0
  29 H    1     2.7315     5.1618    5 B    0 0 0

  30 H    1     1.0914     2.0624   64 C    0 0 0
  30 H    1     2.1475     4.0582   62 C    0 0 0
  30 H    1     2.1678     4.0966   70 C    0 0 0
  30 H    1     2.5200     4.7621   36 H    0 0 0
  30 H    1     2.5667     4.8503   78 O    0 0 0
  30 H    1     2.7315     5.1618    6 B    0 0 0

  31 H    1     1.0913     2.0623   65 C    0 0 0
  31 H    1     2.1487     4.0605   71 C    0 0 0
  31 H    1     2.1667     4.0945   67 C    0 0 0
  31 H    1     2.5197     4.7616   33 H    0 0 0
  31 H    1     2.5723     4.8610   81 O    0 0 0
  31 H    1     2.7359     5.1701    9 B    0 0 0

  32 H    1     1.0913     2.0623   66 C    0 0 0
  32 H    1     2.1487     4.0605   72 C    0 0 0
  32 H    1     2.1667     4.0945   68 C    0 0 0
  32 H    1     2.5197     4.7616   34 H    0 0 0
  32 H    1     2.5723     4.8610   82 O   -1 0 0
  32 H    1     2.7359     5.1701   10 B    0 0 0

  33 H    1     1.0915     2.0626   67 C    0 0 0
  33 H    1     2.1479     4.0589   61 C    0 0 0
  33 H    1     2.1679     4.0968   65 C    0 0 0
  33 H    1     2.5197     4.7616   31 H    0 0 0
  33 H    1     2.5677     4.8522   73 O    0 0 0
  33 H    1     2.7331     5.1648    5 B    1 1 0

  34 H    1     1.0915     2.0626   68 C    0 0 0
  34 H    1     2.1479     4.0589   62 C    0 0 0
  34 H    1     2.1679     4.0968   66 C    0 0 0
  34 H    1     2.5197     4.7616   32 H    0 0 0
  34 H    1     2.5677     4.8522   74 O    0 0 0
  34 H    1     2.7331     5.1648    6 B    0 0 0

  35 H    1     1.0914     2.0624   69 C    0 0 0
  35 H    1     2.1486     4.0602   71 C   -1-1 0
  35 H    1     2.1668     4.0947   63 C    0 0 0
  35 H    1     2.5200     4.7621   29 H    0 0 0
  35 H    1     2.5717     4.8598   83 O    0 0 0
  35 H    1     2.7349     5.1682    9 B   -1-1 0

  36 H    1     1.0914     2.0624   70 C    0 0 0
  36 H    1     2.1486     4.0602   72 C    0 0 0
  36 H    1     2.1668     4.0947   64 C    0 0 0
  36 H    1     2.5200     4.7621   30 H    0 0 0
  36 H    1     2.5717     4.8598   84 O    0 0 0
  36 H    1     2.7349     5.1682   10 B    0 0 0

  37 C    1     1.4020     2.6495   43 C    0 1 0
  37 C    1     1.4021     2.6495   39 C    0 0 0
  37 C    1     1.5504     2.9298    3 B    0 0 0
  37 C    1     2.1471     4.0575   17 H    0 1 0
  37 C    1     2.1472     4.0576   13 H    0 0 0
  37 C    1     2.4246     4.5817   41 C    0 1 0

  38 C    1     1.4020     2.6495   44 C    0 0 0
  38 C    1     1.4021     2.6495   40 C    0 0 0
  38 C    1     1.5504     2.9298    4 B    0 0 0
  38 C    1     2.1471     4.0575   18 H    0 0 0
  38 C    1     2.1472     4.0576   14 H    0 0 0
  38 C    1     2.4246     4.5817   42 C    0 0 0

  39 C    1     1.0913     2.0623   13 H    0 0 0
  39 C    1     1.3914     2.6294   45 C    0 0 0
  39 C    1     1.4021     2.6495   37 C    0 0 0
  39 C    1     2.1669     4.0948   19 H    0 0 0
  39 C    1     2.4177     4.5688   43 C    0 1 0
  39 C    1     2.4250     4.5825   47 C    0 1 0

  40 C    1     1.0913     2.0623   14 H    0 0 0
  40 C    1     1.3914     2.6294   46 C    0 0 0
  40 C    1     1.4021     2.6495   38 C    0 0 0
  40 C    1     2.1669     4.0948   20 H    0 0 0
  40 C    1     2.4177     4.5688   44 C    0 0 0
  40 C    1     2.4250     4.5825   48 C    0 0 0

  41 C    1     1.0914     2.0625   15 H    0 0 0
  41 C    1     1.3914     2.6293   43 C    0 0 0
  41 C    1     1.4026     2.6505   47 C    0 0 0
  41 C    1     2.1680     4.0970   17 H    0 0 0
  41 C    1     2.4182     4.5697   45 C    0-1 0
  41 C    1     2.4246     4.5817   37 C    0-1 0

  42 C    1     1.0914     2.0625   16 H    0 0 0
  42 C    1     1.3914     2.6293   44 C    0 0 0
  42 C    1     1.4026     2.6505   48 C    0 0 0
  42 C    1     2.1680     4.0970   18 H    0 0 0
  42 C    1     2.4182     4.5697   46 C    0 0 0
  42 C    1     2.4246     4.5817   38 C    0 0 0

  43 C    1     1.0914     2.0624   17 H    0 0 0
  43 C    1     1.3914     2.6293   41 C    0 0 0
  43 C    1     1.4020     2.6495   37 C    0-1 0
  43 C    1     2.1666     4.0942   15 H    0 0 0
  43 C    1     2.4177     4.5688   39 C    0-1 0
  43 C    1     2.4250     4.5826   47 C    0 0 0

  44 C    1     1.0914     2.0624   18 H    0 0 0
  44 C    1     1.3914     2.6293   42 C    0 0 0
  44 C    1     1.4020     2.6495   38 C    0 0 0
  44 C    1     2.1666     4.0942   16 H    0 0 0
  44 C    1     2.4177     4.5688   40 C    0 0 0
  44 C    1     2.4250     4.5826   48 C    0 0 0

  45 C    1     1.0915     2.0626   19 H    0 0 0
  45 C    1     1.3914     2.6294   39 C    0 0 0
  45 C    1     1.4025     2.6504   47 C    0 1 0
  45 C    1     2.1680     4.0969   13 H    0 0 0
  45 C    1     2.4182     4.5697   41 C    0 1 0
  45 C    1     2.4246     4.5818   37 C    0 0 0

  46 C    1     1.0915     2.0626   20 H    0 0 0
  46 C    1     1.3914     2.6294   40 C    0 0 0
  46 C    1     1.4025     2.6504   48 C    0 0 0
  46 C    1     2.1680     4.0969   14 H    0 0 0
  46 C    1     2.4182     4.5697   42 C    0 0 0
  46 C    1     2.4246     4.5818   38 C    0 0 0

  47 C    1     1.4025     2.6504   45 C    0-1 0
  47 C    1     1.4026     2.6505   41 C    0 0 0
  47 C    1     1.5513     2.9316    7 B    0 0 0
  47 C    1     2.1490     4.0610   19 H    0-1 0
  47 C    1     2.1493     4.0616   15 H    0 0 0
  47 C    1     2.4250     4.5825   39 C    0-1 0

  48 C    1     1.4025     2.6504   46 C    0 0 0
  48 C    1     1.4026     2.6505   42 C    0 0 0
  48 C    1     1.5513     2.9316    8 B    0 0 0
  48 C    1     2.1490     4.0610   20 H    0 0 0
  48 C    1     2.1493     4.0616   16 H    0 0 0
  48 C    1     2.4250     4.5825   40 C    0 0 0

  49 C    1     1.4020     2.6494   51 C    1 0 0
  49 C    1     1.4021     2.6495   55 C    0 0 0
  49 C    1     1.5503     2.9297    1 B    1 0 0
  49 C    1     2.1469     4.0571   21 H    1 0 0
  49 C    1     2.1475     4.0581   25 H    0 0 0
  49 C    1     2.4246     4.5818   53 C    0 0 0

  50 C    1     1.4020     2.6494   52 C    0 0 0
  50 C    1     1.4021     2.6495   56 C    0 0 0
  50 C    1     1.5503     2.9297    2 B    0 0 0
  50 C    1     2.1469     4.0571   22 H    0 0 0
  50 C    1     2.1475     4.0581   26 H    0 0 0
  50 C    1     2.4246     4.5818   54 C    0 0 0

  51 C    1     1.0913     2.0623   21 H    0 0 0
  51 C    1     1.3914     2.6293   57 C    0 0 0
  51 C    1     1.4020     2.6494   49 C   -1 0 0
  51 C    1     2.1666     4.0942   27 H    0 0 0
  51 C    1     2.4175     4.5684   55 C   -1 0 0
  51 C    1     2.4251     4.5828   59 C   -1 0 0

  52 C    1     1.0913     2.0623   22 H    0 0 0
  52 C    1     1.3914     2.6293   58 C    0 0 0
  52 C    1     1.4020     2.6494   50 C    0 0 0
  52 C    1     2.1666     4.0942   28 H    0 0 0
  52 C    1     2.4175     4.5684   56 C    0 0 0
  52 C    1     2.4251     4.5828   60 C    0 0 0

  53 C    1     1.0914     2.0625   23 H    0 0 0
  53 C    1     1.3915     2.6295   55 C    0 0 0
  53 C    1     1.4026     2.6505   59 C    0 0 0
  53 C    1     2.1679     4.0967   25 H    0 0 0
  53 C    1     2.4179     4.5691   57 C    1 0 0
  53 C    1     2.4246     4.5818   49 C    0 0 0

  54 C    1     1.0914     2.0625   24 H    0 0 0
  54 C    1     1.3915     2.6295   56 C    0 0 0
  54 C    1     1.4026     2.6505   60 C    0 0 0
  54 C    1     2.1679     4.0967   26 H    0 0 0
  54 C    1     2.4179     4.5691   58 C    0 0 0
  54 C    1     2.4246     4.5818   50 C    0 0 0

  55 C    1     1.0914     2.0624   25 H    0 0 0
  55 C    1     1.3915     2.6295   53 C    0 0 0
  55 C    1     1.4021     2.6495   49 C    0 0 0
  55 C    1     2.1664     4.0939   23 H    0 0 0
  55 C    1     2.4175     4.5684   51 C    1 0 0
  55 C    1     2.4253     4.5832   59 C    0 0 0

  56 C    1     1.0914     2.0624   26 H    0 0 0
  56 C    1     1.3915     2.6295   54 C    0 0 0
  56 C    1     1.4021     2.6495   50 C    0 0 0
  56 C    1     2.1664     4.0939   24 H    0 0 0
  56 C    1     2.4175     4.5684   52 C    0 0 0
  56 C    1     2.4253     4.5832   60 C    0 0 0

  57 C    1     1.0914     2.0625   27 H    0 0 0
  57 C    1     1.3914     2.6293   51 C    0 0 0
  57 C    1     1.4025     2.6504   59 C   -1 0 0
  57 C    1     2.1680     4.0968   21 H    0 0 0
  57 C    1     2.4179     4.5691   53 C   -1 0 0
  57 C    1     2.4247     4.5819   49 C   -1 0 0

  58 C    1     1.0914     2.0625   28 H    0 0 0
  58 C    1     1.3914     2.6293   52 C    0 0 0
  58 C    1     1.4025     2.6504   60 C    0 0 0
  58 C    1     2.1680     4.0968   22 H    0 0 0
  58 C    1     2.4179     4.5691   54 C    0 0 0
  58 C    1     2.4247     4.5819   50 C    0 0 0

  59 C    1     1.4025     2.6504   57 C    1 0 0
  59 C    1     1.4026     2.6505   53 C    0 0 0
  59 C    1     1.5516     2.9322   11 B    0 0 0
  59 C    1     2.1491     4.0612   27 H    1 0 0
  59 C    1     2.1493     4.0617   23 H    0 0 0
  59 C    1     2.4251     4.5828   51 C    1 0 0

  60 C    1     1.4025     2.6504   58 C    0 0 0
  60 C    1     1.4026     2.6505   54 C    0 0 0
  60 C    1     1.5516     2.9322   12 B    0 0 0
  60 C    1     2.1491     4.0612   28 H    0 0 0
  60 C    1     2.1493     4.0617   24 H    0 0 0
  60 C    1     2.4251     4.5828   52 C    0 0 0

  61 C    1     1.4021     2.6496   63 C    1 1 0
  61 C    1     1.4021     2.6497   67 C    0 0 0
  61 C    1     1.5502     2.9294    5 B    1 1 0
  61 C    1     2.1475     4.0582   29 H    1 1 0
  61 C    1     2.1479     4.0589   33 H    0 0 0
  61 C    1     2.4244     4.5814   65 C    0 0 0

  62 C    1     1.4021     2.6496   64 C    0 0 0
  62 C    1     1.4021     2.6497   68 C    0 0 0
  62 C    1     1.5502     2.9294    6 B    0 0 0
  62 C    1     2.1475     4.0582   30 H    0 0 0
  62 C    1     2.1479     4.0589   34 H    0 0 0
  62 C    1     2.4244     4.5814   66 C    0 0 0

  63 C    1     1.0914     2.0624   29 H    0 0 0
  63 C    1     1.3914     2.6293   69 C    0 0 0
  63 C    1     1.4021     2.6496   61 C   -1-1 0
  63 C    1     2.1668     4.0947   35 H    0 0 0
  63 C    1     2.4179     4.5692   67 C   -1-1 0
  63 C    1     2.4251     4.5827   71 C   -1-1 0

  64 C    1     1.0914     2.0624   30 H    0 0 0
  64 C    1     1.3914     2.6293   70 C    0 0 0
  64 C    1     1.4021     2.6496   62 C    0 0 0
  64 C    1     2.1668     4.0947   36 H    0 0 0
  64 C    1     2.4179     4.5692   68 C    0 0 0
  64 C    1     2.4251     4.5827   72 C    0 0 0

  65 C    1     1.0913     2.0623   31 H    0 0 0
  65 C    1     1.3914     2.6294   67 C    0 0 0
  65 C    1     1.4025     2.6504   71 C    0 0 0
  65 C    1     2.1679     4.0968   33 H    0 0 0
  65 C    1     2.4178     4.5690   69 C    1 1 0
  65 C    1     2.4244     4.5814   61 C    0 0 0

  66 C    1     1.0913     2.0623   32 H    0 0 0
  66 C    1     1.3914     2.6294   68 C    0 0 0
  66 C    1     1.4025     2.6504   72 C    0 0 0
  66 C    1     2.1679     4.0968   34 H    0 0 0
  66 C    1     2.4178     4.5690   70 C    0 0 0
  66 C    1     2.4244     4.5814   62 C    0 0 0

  67 C    1     1.0915     2.0626   33 H    0 0 0
  67 C    1     1.3914     2.6294   65 C    0 0 0
  67 C    1     1.4021     2.6497   61 C    0 0 0
  67 C    1     2.1667     4.0945   31 H    0 0 0
  67 C    1     2.4179     4.5692   63 C    1 1 0
  67 C    1     2.4253     4.5832   71 C    0 0 0

  68 C    1     1.0915     2.0626   34 H    0 0 0
  68 C    1     1.3914     2.6294   66 C    0 0 0
  68 C    1     1.4021     2.6497   62 C    0 0 0
  68 C    1     2.1667     4.0945   32 H    0 0 0
  68 C    1     2.4179     4.5692   64 C    0 0 0
  68 C    1     2.4253     4.5832   72 C    0 0 0

  69 C    1     1.0914     2.0624   35 H    0 0 0
  69 C    1     1.3914     2.6293   63 C    0 0 0
  69 C    1     1.4025     2.6503   71 C   -1-1 0
  69 C    1     2.1678     4.0966   29 H    0 0 0
  69 C    1     2.4178     4.5690   65 C   -1-1 0
  69 C    1     2.4245     4.5817   61 C   -1-1 0

  70 C    1     1.0914     2.0624   36 H    0 0 0
  70 C    1     1.3914     2.6293   64 C    0 0 0
  70 C    1     1.4025     2.6503   72 C    0 0 0
  70 C    1     2.1678     4.0966   30 H    0 0 0
  70 C    1     2.4178     4.5690   66 C    0 0 0
  70 C    1     2.4245     4.5817   62 C    0 0 0

  71 C    1     1.4025     2.6503   69 C    1 1 0
  71 C    1     1.4025     2.6504   65 C    0 0 0
  71 C    1     1.5516     2.9322    9 B    0 0 0
  71 C    1     2.1486     4.0602   35 H    1 1 0
  71 C    1     2.1487     4.0605   31 H    0 0 0
  71 C    1     2.4251     4.5827   63 C    1 1 0

  72 C    1     1.4025     2.6503   70 C    0 0 0
  72 C    1     1.4025     2.6504   66 C    0 0 0
  72 C    1     1.5516     2.9322   10 B    0 0 0
  72 C    1     2.1486     4.0602   36 H    0 0 0
  72 C    1     2.1487     4.0605   32 H    0 0 0
  72 C    1     2.4251     4.5827   64 C    0 0 0

  73 O    1     1.3791     2.6061    1 B    1 0 0
  73 O    1     1.3791     2.6061    5 B    1 1 0
  73 O    1     2.3880     4.5126   75 O    1 0 0
  73 O    1     2.3882     4.5130   77 O    1 1 0
  73 O    1     2.5383     4.7966   61 C    0 0 0
  73 O    1     2.5384     4.7968   49 C    0 0 0

  74 O    1     1.3791     2.6061    2 B    0 0 0
  74 O    1     1.3791     2.6061    6 B    0 0 0
  74 O    1     2.3880     4.5126   76 O    0 0 0
  74 O    1     2.3882     4.5130   78 O    0 0 0
  74 O    1     2.5383     4.7966   62 C    0 0 0
  74 O    1     2.5384     4.7968   50 C    0 0 0

  75 O    1     1.3793     2.6065    1 B    0 0 0
  75 O    1     1.3793     2.6065    3 B    0 0 0
  75 O    1     2.3880     4.5126   73 O   -1 0 0
  75 O    1     2.3882     4.5131   77 O    0 1 0
  75 O    1     2.5391     4.7981   37 C    0 0 0
  75 O    1     2.5395     4.7990   49 C   -1 0 0

  76 O    1     1.3793     2.6065    2 B    0 0 0
  76 O    1     1.3793     2.6065    4 B    0 0 0
  76 O    1     2.3880     4.5126   74 O    0 0 0
  76 O    1     2.3882     4.5131   78 O    0 0 0
  76 O    1     2.5391     4.7981   38 C    0 0 0
  76 O    1     2.5395     4.7990   50 C    0 0 0

  77 O    1     1.3793     2.6064    5 B    0 0 0
  77 O    1     1.3793     2.6065    3 B    0-1 0
  77 O    1     2.3882     4.5130   73 O   -1-1 0
  77 O    1     2.3882     4.5131   75 O    0-1 0
  77 O    1     2.5390     4.7980   37 C    0-1 0
  77 O    1     2.5391     4.7982   61 C   -1-1 0

  78 O    1     1.3793     2.6064    6 B    0 0 0
  78 O    1     1.3793     2.6065    4 B    0 0 0
  78 O    1     2.3882     4.5130   74 O    0 0 0
  78 O    1     2.3882     4.5131   76 O    0 0 0
  78 O    1     2.5390     4.7980   38 C    0 0 0
  78 O    1     2.5391     4.7982   62 C    0 0 0

  79 O    1     1.3795     2.6068   11 B    0 0 0
  79 O    1     1.3795     2.6068    7 B    0 0 0
  79 O    1     2.3880     4.5126   83 O    1 0 0
  79 O    1     2.3884     4.5134   81 O    0-1 0
  79 O    1     2.5400     4.7998   47 C    0 0 0
  79 O    1     2.5403     4.8005   59 C    0 0 0

  80 O    1     1.3795     2.6068   12 B    1 1 0
  80 O    1     1.3795     2.6068    8 B    0 0 0
  80 O    1     2.3880     4.5126   84 O    1 0 0
  80 O    1     2.3884     4.5134   82 O    0 0 0
  80 O    1     2.5400     4.7998   48 C    0 0 0
  80 O    1     2.5403     4.8005   60 C    1 1 0

  81 O    1     1.3795     2.6069    9 B    0 0 0
  81 O    1     1.3795     2.6070    7 B    0 1 0
  81 O    1     2.3881     4.5128   83 O    1 1 0
  81 O    1     2.3884     4.5134   79 O    0 1 0
  81 O    1     2.5404     4.8006   47 C    0 1 0
  81 O    1     2.5405     4.8008   71 C    0 0 0

  82 O    1     1.3795     2.6069   10 B    1 0 0
  82 O    1     1.3795     2.6070    8 B    0 0 0
  82 O    1     2.3881     4.5128   84 O    1 0 0
  82 O    1     2.3884     4.5134   80 O    0 0 0
  82 O    1     2.5404     4.8006   48 C    0 0 0
  82 O    1     2.5405     4.8008   72 C    1 0 0

  83 O    1     1.3796     2.6071   11 B   -1 0 0
  83 O    1     1.3797     2.6072    9 B   -1-1 0
  83 O    1     2.3880     4.5126   79 O   -1 0 0
  83 O    1     2.3881     4.5128   81 O   -1-1 0
  83 O    1     2.5409     4.8016   71 C   -1-1 0
  83 O    1     2.5410     4.8019   59 C   -1 0 0

  84 O    1     1.3796     2.6071   12 B    0 1 0
  84 O    1     1.3797     2.6072   10 B    0 0 0
  84 O    1     2.3880     4.5126   80 O   -1 0 0
  84 O    1     2.3881     4.5128   82 O   -1 0 0
  84 O    1     2.5409     4.8016   72 C    0 0 0
  84 O    1     2.5410     4.8019   60 C    0 1 0


 SYMMETRY ALLOWED INTERNAL DEGREE(S) OF FREEDOM: 249
 TTTTTTTTTTTTTTTTTTTTTTTTTTTTTT SYMM        TELAPSE        2.15 TCPU        2.14
 TTTTTTTTTTTTTTTTTTTTTTTTTTTTTT INT_SCREEN  TELAPSE        2.32 TCPU        2.32

 DFT PARAMETERS

     ATOM       ELECTRONS   NET CHARGE   R(ANGSTROM)
   1   5  B       5.0000      0.0000     0.89000000
  13   1  H       1.0000      0.0000     1.11000000
  37   6  C       6.0000      0.0000     0.77000000
  73   8  O       8.0000      0.0000     0.74000000

 SIZE OF GRID=    2689429
 TTTTTTTTTTTTTTTTTTTTTTTTTTTTTT MAKE_GRID2  TELAPSE       16.50 TCPU       16.48
 BECKE WEIGHT FUNCTION
 RADSAFE =     2.00
 TOLERANCES - DENSITY:10**- 6; POTENTIAL:10**- 9; GRID WGT:10**-14

 RADIAL INTEGRATION  - INTERVALS (POINTS,UPPER LIMIT):            1( 75,  4.0*R)

 ANGULAR INTEGRATION - INTERVALS (ACCURACY LEVEL [N. POINTS] UPPER LIMIT):
  1(  4[  86]   0.2)  2(  8[ 194]   0.5)  3( 12[ 350]   0.9)  4( 16[ 974]   3.5)
  5( 12[ 350]9999.0)
 TTTTTTTTTTTTTTTTTTTTTTTTTTTTTT INT_CALC    TELAPSE       16.69 TCPU       16.67
 EEEEEEEEEE INT_CALC TERMINATION  DATE 19 02 2026 TIME 20:31:33.9

 *******************************************************************************
 cof-1_z45_L080_serr                                                             
 CRYSTAL - SCF - TYPE OF CALCULATION :  RESTRICTED CLOSED SHELL
 *******************************************************************************

 CAPPA:IS1  2;IS2  2;IS3  8; K PTS MONK NET  20; SYMMOPS:K SPACE   2;G SPACE   1

 TTTTTTTTTTTTTTTTTTTTTTTTTTTTTT SDIK        TELAPSE       18.58 TCPU       43.33

 AAAAAAAAAAAAAAAAAAAAAAAAAAAAAAAAAAAAAAAAAAAAAAAAAAAAAAAAAAAAAAAAAAAAAAAAAAAAAAA
         ATOMIC WAVEFUNCTION(S)


 NUCLEAR CHARGE  5.0  SYMMETRY SPECIES            S    P
 N. ELECTRONS    5.0  NUMBER OF PRIMITIVE GTOS    8    4
                      NUMBER OF CONTRACTED GTOS   4    2
                      NUMBER OF CLOSED SHELLS     2    0
                      OPEN SHELL OCCUPATION       0    1

  ZNUC  SCFIT    TOTAL HF ENERGY   KINETIC ENERGY   VIRIAL THEOREM ACCURACY
   5.0    11    -2.451164084E+01  2.462155050E+01 -1.995536038E+00  1.5E-06

 NUCLEAR CHARGE  1.0  SYMMETRY SPECIES            S
 N. ELECTRONS    1.0  NUMBER OF PRIMITIVE GTOS    4
                      NUMBER OF CONTRACTED GTOS   2
                      NUMBER OF CLOSED SHELLS     0
                      OPEN SHELL OCCUPATION       1

  ZNUC  SCFIT    TOTAL HF ENERGY   KINETIC ENERGY   VIRIAL THEOREM ACCURACY
   1.0     1    -4.977266687E-01  5.190767460E-01 -1.958869132E+00  0.0E+00

 NUCLEAR CHARGE  6.0  SYMMETRY SPECIES            S    P
 N. ELECTRONS    6.0  NUMBER OF PRIMITIVE GTOS    8    4
                      NUMBER OF CONTRACTED GTOS   4    2
                      NUMBER OF CLOSED SHELLS     2    0
                      OPEN SHELL OCCUPATION       0    2

  ZNUC  SCFIT    TOTAL HF ENERGY   KINETIC ENERGY   VIRIAL THEOREM ACCURACY
   6.0     9    -3.766704647E+01  3.775180683E+01 -1.997754800E+00  1.1E-06

 NUCLEAR CHARGE  8.0  SYMMETRY SPECIES            S    P
 N. ELECTRONS    8.0  NUMBER OF PRIMITIVE GTOS    8    4
                      NUMBER OF CONTRACTED GTOS   4    2
                      NUMBER OF CLOSED SHELLS     2    0
                      OPEN SHELL OCCUPATION       0    4

  ZNUC  SCFIT    TOTAL HF ENERGY   KINETIC ENERGY   VIRIAL THEOREM ACCURACY
   8.0    12    -7.477373220E+01  7.477365593E+01 -2.000001020E+00  3.8E-06

 AAAAAAAAAAAAAAAAAAAAAAAAAAAAAAAAAAAAAAAAAAAAAAAAAAAAAAAAAAAAAAAAAAAAAAAAAAAAAAA

 CHARGE NORMALIZATION FACTOR   1.00000000
 TOTAL ATOMIC CHARGES:
   5.0000000   5.0000000   5.0000000   5.0000000   5.0000000   5.0000000
   5.0000000   5.0000000   5.0000000   5.0000000   5.0000000   5.0000000
   1.0000000   1.0000000   1.0000000   1.0000000   1.0000000   1.0000000
   1.0000000   1.0000000   1.0000000   1.0000000   1.0000000   1.0000000
   1.0000000   1.0000000   1.0000000   1.0000000   1.0000000   1.0000000
   1.0000000   1.0000000   1.0000000   1.0000000   1.0000000   1.0000000
   6.0000000   6.0000000   6.0000000   6.0000000   6.0000000   6.0000000
   6.0000000   6.0000000   6.0000000   6.0000000   6.0000000   6.0000000
   6.0000000   6.0000000   6.0000000   6.0000000   6.0000000   6.0000000
   6.0000000   6.0000000   6.0000000   6.0000000   6.0000000   6.0000000
   6.0000000   6.0000000   6.0000000   6.0000000   6.0000000   6.0000000
   6.0000000   6.0000000   6.0000000   6.0000000   6.0000000   6.0000000
   8.0000000   8.0000000   8.0000000   8.0000000   8.0000000   8.0000000
   8.0000000   8.0000000   8.0000000   8.0000000   8.0000000   8.0000000
 TTTTTTTTTTTTTTTTTTTTTTTTTTTTTT MOQGAD      TELAPSE       18.65 TCPU       45.70
 TTTTTTTTTTTTTTTTTTTTTTTTTTTTTT SHELLXN     TELAPSE       27.33 TCPU      323.17
 TTTTTTTTTTTTTTTTTTTTTTTTTTTTTT MONMO3      TELAPSE       27.77 TCPU      337.08
 NUMERICALLY INTEGRATED DENSITY    395.9999188085
 TTTTTTTTTTTTTTTTTTTTTTTTTTTTTT NUMDFT      TELAPSE       28.91 TCPU      373.67
 CYC   0 ETOT(AU) -2.591907613016E+03 DETOT -2.59E+03 tst  0.00E+00 PX  1.00E+00
 TTTTTTTTTTTTTTTTTTTTTTTTTTTTTT DIIS        TELAPSE       29.01 TCPU      376.64
 TTTTTTTTTTTTTTTTTTTTTTTTTTTTTT FDIK        TELAPSE       30.75 TCPU      432.28
 INSULATING STATE
 TOP OF VALENCE BANDS -    BAND    198; K    2; EIG -3.1426252E-01 AU
 TOP OF VALENCE BANDS -    BAND    198; K    1; EIG -3.1433419E-01 AU
 BOTTOM OF VIRTUAL BANDS - BAND    199; K    1; EIG -1.5675122E-01 AU
 INDIRECT ENERGY BAND GAP:   4.2861 eV
 TTTTTTTTTTTTTTTTTTTTTTTTTTTTTT PDIG        TELAPSE       32.11 TCPU      439.02
 CHARGE NORMALIZATION FACTOR   1.00000000
 TOTAL ATOMIC CHARGES:
   4.1619652   4.1661538   4.1650323   4.1659903   4.1652788   4.1662368
   4.1658223   4.1648618   4.1655959   4.1646361   4.1657626   4.1615788
   0.7851282   0.7850433   0.7851589   0.7852440   0.7850935   0.7849979
   0.7851175   0.7852128   0.7851987   0.7850353   0.7852016   0.7853638
   0.7851877   0.7850251   0.7851646   0.7853267   0.7850959   0.7849999
   0.7851818   0.7852782   0.7850803   0.7849955   0.7851523   0.7852374
   6.0430517   6.0430318   6.2653079   6.2650611   6.2650251   6.2652715
   6.2652375   6.2649723   6.2649146   6.2651811   6.0423111   6.0423285
   6.0444527   6.0429653   6.2653953   6.2649391   6.2650169   6.2654742
   6.2653067   6.2648498   6.2650345   6.2654901   6.0417675   6.0432446
   6.0434076   6.0433864   6.2650050   6.2647430   6.2652874   6.2655520
   6.2649388   6.2646915   6.2653042   6.2655504   6.0418456   6.0418626
   8.6920728   8.6907749   8.6921841   8.6908827   8.6921083   8.6908302
   8.6912023   8.6925018   8.6912356   8.6925117   8.6913793   8.6926753
 TTTTTTTTTTTTTTTTTTTTTTTTTTTTTT MOQGAD      TELAPSE       32.18 TCPU      439.10
 TTTTTTTTTTTTTTTTTTTTTTTTTTTTTT SHELLXN     TELAPSE       41.22 TCPU      727.21
 TTTTTTTTTTTTTTTTTTTTTTTTTTTTTT MONMO3      TELAPSE       41.66 TCPU      741.09
 NUMERICALLY INTEGRATED DENSITY    395.9999905111
 TTTTTTTTTTTTTTTTTTTTTTTTTTTTTT NUMDFT      TELAPSE       42.82 TCPU      778.11
 CYC   1 ETOT(AU) -2.577616893516E+03 DETOT  1.43E+01 tst  0.00E+00 PX  1.00E+00
 TTTTTTTTTTTTTTTTTTTTTTTTTTTTTT DIIS        TELAPSE       42.94 TCPU      781.96
 DIIS TEST: 0.22348E+01 AT SCF   CYCLE   1 - MIX   30 %
 TTTTTTTTTTTTTTTTTTTTTTTTTTTTTT FDIK        TELAPSE       44.71 TCPU      838.66
 INSULATING STATE
 TOP OF VALENCE BANDS -    BAND    198; K    2; EIG -2.2584967E-01 AU
 TOP OF VALENCE BANDS -    BAND    198; K    1; EIG -2.2596253E-01 AU
 BOTTOM OF VIRTUAL BANDS - BAND    199; K    1; EIG -8.0495948E-02 AU
 INDIRECT ENERGY BAND GAP:   3.9553 eV
 TTTTTTTTTTTTTTTTTTTTTTTTTTTTTT PDIG        TELAPSE       46.08 TCPU      845.41
 CHARGE NORMALIZATION FACTOR   1.00000000
 TOTAL ATOMIC CHARGES:
   4.7192402   4.7143783   4.7106411   4.7142602   4.7106605   4.7142704
   4.7143582   4.7106061   4.7143299   4.7105945   4.7144157   4.7192013
   0.9064303   0.9113768   0.9113633   0.9064788   0.9062483   0.9117906
   0.9117652   0.9063232   0.9066736   0.9114228   0.9113874   0.9067255
   0.9066493   0.9114001   0.9113753   0.9067163   0.9062495   0.9117849
   0.9118447   0.9064031   0.9063739   0.9113230   0.9113766   0.9064849
   5.8638249   5.8750268   6.1319829   6.1374472   6.1378350   6.1324006
   6.1224960   6.1397750   6.1403538   6.1230977   5.8775799   5.8662748
   5.8712800   5.8742905   6.1247309   6.1336641   6.1342946   6.1253615
   6.1249553   6.1339103   6.1341899   6.1252494   5.8774981   5.8743060
   5.8637818   5.8749773   6.1225554   6.1398573   6.1401883   6.1229376
   6.1321574   6.1376554   6.1375810   6.1321365   5.8777755   5.8664440
   8.3325974   8.3330625   8.3329592   8.3334193   8.3274817   8.3346416
   8.3328885   8.3324436   8.3343678   8.3272309   8.3332721   8.3328392
 TTTTTTTTTTTTTTTTTTTTTTTTTTTTTT MOQGAD      TELAPSE       46.15 TCPU      845.49
 TTTTTTTTTTTTTTTTTTTTTTTTTTTTTT SHELLXN     TELAPSE       55.20 TCPU     1133.71
 TTTTTTTTTTTTTTTTTTTTTTTTTTTTTT MONMO3      TELAPSE       55.63 TCPU     1147.61
 NUMERICALLY INTEGRATED DENSITY    395.9999734168
 TTTTTTTTTTTTTTTTTTTTTTTTTTTTTT NUMDFT      TELAPSE       56.79 TCPU     1184.57
 CYC   2 ETOT(AU) -2.578007683530E+03 DETOT -3.91E-01 tst  3.37E-03 PX  1.59E-01
 TTTTTTTTTTTTTTTTTTTTTTTTTTTTTT DIIS        TELAPSE       56.93 TCPU     1189.09
 DIIS TEST: 0.92656E+00 AT SCF   CYCLE   2 - DIIS ACTIVE - HISTORY:     2 CYCLES
 TTTTTTTTTTTTTTTTTTTTTTTTTTTTTT FDIK        TELAPSE       58.71 TCPU     1245.77
 INSULATING STATE
 TOP OF VALENCE BANDS -    BAND    198; K    2; EIG -2.3964960E-01 AU
 TOP OF VALENCE BANDS -    BAND    198; K    1; EIG -2.3977301E-01 AU
 BOTTOM OF VIRTUAL BANDS - BAND    199; K    1; EIG -7.5831286E-02 AU
 INDIRECT ENERGY BAND GAP:   4.4577 eV
 TTTTTTTTTTTTTTTTTTTTTTTTTTTTTT PDIG        TELAPSE       60.07 TCPU     1252.52
 CHARGE NORMALIZATION FACTOR   1.00000000
 TOTAL ATOMIC CHARGES:
   4.5089699   4.5082099   4.5037425   4.5079691   4.5038718   4.5080780
   4.5078427   4.5037308   4.5076759   4.5035629   4.5078894   4.5087965
   0.8852018   0.8890610   0.8892463   0.8853320   0.8843011   0.8898769
   0.8900623   0.8844103   0.8842717   0.8882902   0.8885665   0.8844549
   0.8843043   0.8883118   0.8885158   0.8843990   0.8843060   0.8898866
   0.8901133   0.8844717   0.8851964   0.8890598   0.8892074   0.8852861
   5.8975079   5.8820677   6.1613904   6.1598906   6.1596301   6.1610900
   6.1646799   6.1561641   6.1558023   6.1642217   5.8816394   5.8972480
   5.8933190   5.8853309   6.1623600   6.1591713   6.1588007   6.1620242
   6.1624122   6.1591791   6.1587883   6.1619792   5.8846701   5.8927844
   5.8978009   5.8823479   6.1645762   6.1561037   6.1559372   6.1643585
   6.1612943   6.1597653   6.1596738   6.1611189   5.8813524   5.8969620
   8.5085962   8.5087509   8.5087712   8.5089331   8.5115521   8.5078235
   8.5089948   8.5088231   8.5079767   8.5116458   8.5092042   8.5090130
 TTTTTTTTTTTTTTTTTTTTTTTTTTTTTT MOQGAD      TELAPSE       60.14 TCPU     1252.59
 TTTTTTTTTTTTTTTTTTTTTTTTTTTTTT SHELLXN     TELAPSE       69.19 TCPU     1540.85
 TTTTTTTTTTTTTTTTTTTTTTTTTTTTTT MONMO3      TELAPSE       69.62 TCPU     1554.73
 NUMERICALLY INTEGRATED DENSITY    395.9999794516
 TTTTTTTTTTTTTTTTTTTTTTTTTTTTTT NUMDFT      TELAPSE       70.78 TCPU     1591.73
 CYC   3 ETOT(AU) -2.578198903012E+03 DETOT -1.91E-01 tst  6.48E-04 PX  6.49E-02
 TTTTTTTTTTTTTTTTTTTTTTTTTTTTTT DIIS        TELAPSE       70.94 TCPU     1596.95
 DIIS TEST: 0.26867E-01 AT SCF   CYCLE   3 - DIIS ACTIVE - HISTORY:     3 CYCLES
 TTTTTTTTTTTTTTTTTTTTTTTTTTTTTT FDIK        TELAPSE       72.71 TCPU     1653.51
 INSULATING STATE
 TOP OF VALENCE BANDS -    BAND    198; K    2; EIG -2.4856237E-01 AU
 TOP OF VALENCE BANDS -    BAND    198; K    1; EIG -2.4865941E-01 AU
 BOTTOM OF VIRTUAL BANDS - BAND    199; K    1; EIG -8.3612573E-02 AU
 INDIRECT ENERGY BAND GAP:   4.4885 eV
 TTTTTTTTTTTTTTTTTTTTTTTTTTTTTT PDIG        TELAPSE       74.08 TCPU     1660.26
 CHARGE NORMALIZATION FACTOR   1.00000000
 TOTAL ATOMIC CHARGES:
   4.5153989   4.5114650   4.5100407   4.5110081   4.5101641   4.5111171
   4.5109343   4.5099032   4.5107674   4.5097456   4.5112148   4.5151438
   0.8688482   0.8717334   0.8717760   0.8689237   0.8696545   0.8714527
   0.8714559   0.8697181   0.8691741   0.8716584   0.8716777   0.8692740
   0.8691875   0.8716606   0.8716374   0.8692335   0.8696712   0.8714639
   0.8715187   0.8697778   0.8688415   0.8717177   0.8717473   0.8688820
   5.9293027   5.9477388   6.1650259   6.1693991   6.1696347   6.1653398
   6.1561383   6.1738317   6.1743685   6.1567901   5.9495809   5.9308991
   5.9361145   5.9444304   6.1604222   6.1673478   6.1678620   6.1609639
   6.1604643   6.1674250   6.1678422   6.1609351   5.9466072   5.9379856
   5.9293487   5.9477854   6.1560450   6.1737596   6.1744360   6.1568620
   6.1649054   6.1693198   6.1696755   6.1653729   5.9495804   5.9308858
   8.4773131   8.4762870   8.4775953   8.4765427   8.4729316   8.4782962
   8.4762702   8.4773198   8.4782536   8.4729430   8.4765827   8.4776498
 TTTTTTTTTTTTTTTTTTTTTTTTTTTTTT MOQGAD      TELAPSE       74.15 TCPU     1660.34
 TTTTTTTTTTTTTTTTTTTTTTTTTTTTTT SHELLXN     TELAPSE       83.20 TCPU     1948.63
 TTTTTTTTTTTTTTTTTTTTTTTTTTTTTT MONMO3      TELAPSE       83.63 TCPU     1962.51
 NUMERICALLY INTEGRATED DENSITY    395.9999790548
 TTTTTTTTTTTTTTTTTTTTTTTTTTTTTT NUMDFT      TELAPSE       84.79 TCPU     1999.54
 CYC   4 ETOT(AU) -2.578204346561E+03 DETOT -5.44E-03 tst  2.48E-05 PX  1.54E-02
 TTTTTTTTTTTTTTTTTTTTTTTTTTTTTT DIIS        TELAPSE       84.97 TCPU     2005.35
 DIIS TEST: 0.87094E-02 AT SCF   CYCLE   4 - DIIS ACTIVE - HISTORY:     4 CYCLES
 TTTTTTTTTTTTTTTTTTTTTTTTTTTTTT FDIK        TELAPSE       86.74 TCPU     2061.92
 INSULATING STATE
 TOP OF VALENCE BANDS -    BAND    198; K    2; EIG -2.4722226E-01 AU
 TOP OF VALENCE BANDS -    BAND    198; K    1; EIG -2.4733115E-01 AU
 BOTTOM OF VIRTUAL BANDS - BAND    199; K    1; EIG -8.3890724E-02 AU
 INDIRECT ENERGY BAND GAP:   4.4445 eV
 TTTTTTTTTTTTTTTTTTTTTTTTTTTTTT PDIG        TELAPSE       88.10 TCPU     2068.67
 CHARGE NORMALIZATION FACTOR   1.00000000
 TOTAL ATOMIC CHARGES:
   4.5183672   4.5146813   4.5116219   4.5146288   4.5117419   4.5147321
   4.5146006   4.5116293   4.5144465   4.5114805   4.5144835   4.5182473
   0.8712409   0.8749503   0.8750853   0.8713593   0.8707197   0.8755320
   0.8756806   0.8708502   0.8707673   0.8744309   0.8746321   0.8709336
   0.8707817   0.8744367   0.8745924   0.8708907   0.8707263   0.8755381
   0.8757433   0.8709184   0.8712204   0.8749302   0.8750637   0.8713287
   5.9265425   5.9166291   6.1671898   6.1671448   6.1670406   6.1670698
   6.1666079   6.1644216   6.1642289   6.1663455   5.9167701   5.9267706
   5.9259932   5.9193901   6.1653256   6.1651477   6.1649998   6.1652023
   6.1654137   6.1652002   6.1649686   6.1651467   5.9195237   5.9261689
   5.9267592   5.9168338   6.1665259   6.1643873   6.1642955   6.1664167
   6.1671503   6.1670908   6.1670245   6.1670447   5.9165858   5.9265828
   8.4855688   8.4861057   8.4857794   8.4863252   8.4859620   8.4854918
   8.4862336   8.4856906   8.4855247   8.4859501   8.4864851   8.4859305
 TTTTTTTTTTTTTTTTTTTTTTTTTTTTTT MOQGAD      TELAPSE       88.18 TCPU     2068.74
 TTTTTTTTTTTTTTTTTTTTTTTTTTTTTT SHELLXN     TELAPSE       97.22 TCPU     2356.98
 TTTTTTTTTTTTTTTTTTTTTTTTTTTTTT MONMO3      TELAPSE       97.66 TCPU     2370.85
 NUMERICALLY INTEGRATED DENSITY    395.9999795378
 TTTTTTTTTTTTTTTTTTTTTTTTTTTTTT NUMDFT      TELAPSE       98.82 TCPU     2407.87
 CYC   5 ETOT(AU) -2.578206292531E+03 DETOT -1.95E-03 tst  9.41E-06 PX  8.34E-03
 TTTTTTTTTTTTTTTTTTTTTTTTTTTTTT DIIS        TELAPSE       99.02 TCPU     2414.49
 DIIS TEST: 0.53744E-03 AT SCF   CYCLE   5 - DIIS ACTIVE - HISTORY:     5 CYCLES
 TTTTTTTTTTTTTTTTTTTTTTTTTTTTTT FDIK        TELAPSE      100.80 TCPU     2471.12
 INSULATING STATE
 TOP OF VALENCE BANDS -    BAND    198; K    2; EIG -2.4678370E-01 AU
 TOP OF VALENCE BANDS -    BAND    198; K    1; EIG -2.4688644E-01 AU
 BOTTOM OF VIRTUAL BANDS - BAND    199; K    1; EIG -8.3056212E-02 AU
 INDIRECT ENERGY BAND GAP:   4.4553 eV
 TTTTTTTTTTTTTTTTTTTTTTTTTTTTTT PDIG        TELAPSE      102.17 TCPU     2477.87
 CHARGE NORMALIZATION FACTOR   1.00000000
 TOTAL ATOMIC CHARGES:
   4.5171959   4.5147726   4.5113619   4.5143219   4.5114845   4.5144276
   4.5142274   4.5112523   4.5140674   4.5110998   4.5145057   4.5169644
   0.8723150   0.8758577   0.8759468   0.8724143   0.8725253   0.8759349
   0.8759916   0.8726079   0.8722402   0.8755438   0.8756438   0.8723735
   0.8722585   0.8755513   0.8756012   0.8723299   0.8725379   0.8759445
   0.8760515   0.8726679   0.8723076   0.8758448   0.8759164   0.8723725
   5.9141542   5.9243676   6.1652279   6.1685187   6.1685834   6.1653248
   6.1602131   6.1706326   6.1709109   6.1605348   5.9254813   5.9151576
   5.9166745   5.9232459   6.1623501   6.1671892   6.1674148   6.1625968
   6.1623886   6.1672420   6.1674038   6.1625645   5.9244597   5.9177237
   5.9142808   5.9244923   6.1601179   6.1705645   6.1710025   6.1606331
   6.1651062   6.1684205   6.1686299   6.1653603   5.9253859   5.9150506
   8.4865084   8.4860421   8.4867588   8.4862715   8.4849016   8.4873233
   8.4861200   8.4865994   8.4873639   8.4849698   8.4863956   8.4868806
 TTTTTTTTTTTTTTTTTTTTTTTTTTTTTT MOQGAD      TELAPSE      102.24 TCPU     2477.95
 TTTTTTTTTTTTTTTTTTTTTTTTTTTTTT SHELLXN     TELAPSE      111.29 TCPU     2766.27
 TTTTTTTTTTTTTTTTTTTTTTTTTTTTTT MONMO3      TELAPSE      111.73 TCPU     2780.15
 NUMERICALLY INTEGRATED DENSITY    395.9999793287
 TTTTTTTTTTTTTTTTTTTTTTTTTTTTTT NUMDFT      TELAPSE      112.88 TCPU     2817.15
 CYC   6 ETOT(AU) -2.578206324018E+03 DETOT -3.15E-05 tst  4.46E-06 PX  3.07E-03
 TTTTTTTTTTTTTTTTTTTTTTTTTTTTTT DIIS        TELAPSE      113.11 TCPU     2823.90
 DIIS TEST: 0.45231E-03 AT SCF   CYCLE   6 - DIIS ACTIVE - HISTORY:     6 CYCLES
 TTTTTTTTTTTTTTTTTTTTTTTTTTTTTT FDIK        TELAPSE      114.88 TCPU     2880.32
 INSULATING STATE
 TOP OF VALENCE BANDS -    BAND    198; K    2; EIG -2.4690713E-01 AU
 TOP OF VALENCE BANDS -    BAND    198; K    1; EIG -2.4701310E-01 AU
 BOTTOM OF VIRTUAL BANDS - BAND    199; K    1; EIG -8.3168701E-02 AU
 INDIRECT ENERGY BAND GAP:   4.4556 eV
 TTTTTTTTTTTTTTTTTTTTTTTTTTTTTT PDIG        TELAPSE      116.25 TCPU     2887.07
 CHARGE NORMALIZATION FACTOR   1.00000000
 TOTAL ATOMIC CHARGES:
   4.5175580   4.5146893   4.5115221   4.5144000   4.5116442   4.5145055
   4.5143297   4.5114583   4.5141712   4.5113057   4.5144453   4.5173673
   0.8722835   0.8759388   0.8760430   0.8723866   0.8721867   0.8762404
   0.8763337   0.8722870   0.8720202   0.8755548   0.8756910   0.8721610
   0.8720368   0.8755616   0.8756503   0.8721177   0.8721971   0.8762492
   0.8763939   0.8723503   0.8722711   0.8759239   0.8760158   0.8723490
   5.9205313   5.9205150   6.1660538   6.1671575   6.1671701   6.1660852
   6.1627292   6.1673387   6.1674251   6.1628155   5.9212741   5.9212538
   5.9220810   5.9207249   6.1636356   6.1654628   6.1655601   6.1637604
   6.1637001   6.1655162   6.1655363   6.1637158   5.9215741   5.9228466
   5.9206933   5.9206701   6.1626370   6.1672832   6.1675083   6.1629032
   6.1659680   6.1670763   6.1671900   6.1660953   5.9211441   5.9211166
   8.4858902   8.4856653   8.4861238   8.4858929   8.4848403   8.4861348
   8.4857609   8.4859902   8.4861638   8.4848628   8.4860291   8.4862571
 TTTTTTTTTTTTTTTTTTTTTTTTTTTTTT MOQGAD      TELAPSE      116.32 TCPU     2887.15
 TTTTTTTTTTTTTTTTTTTTTTTTTTTTTT SHELLXN     TELAPSE      125.37 TCPU     3175.39
 TTTTTTTTTTTTTTTTTTTTTTTTTTTTTT MONMO3      TELAPSE      125.80 TCPU     3189.28
 NUMERICALLY INTEGRATED DENSITY    395.9999793840
 TTTTTTTTTTTTTTTTTTTTTTTTTTTTTT NUMDFT      TELAPSE      126.96 TCPU     3226.29
 CYC   7 ETOT(AU) -2.578206448289E+03 DETOT -1.24E-04 tst  1.18E-06 PX  1.50E-03
 TTTTTTTTTTTTTTTTTTTTTTTTTTTTTT DIIS        TELAPSE      127.21 TCPU     3233.06
 DIIS TEST: 0.28772E-05 AT SCF   CYCLE   7 - DIIS ACTIVE - HISTORY:     7 CYCLES
 TTTTTTTTTTTTTTTTTTTTTTTTTTTTTT FDIK        TELAPSE      128.99 TCPU     3289.55
 INSULATING STATE
 TOP OF VALENCE BANDS -    BAND    198; K    2; EIG -2.4690300E-01 AU
 TOP OF VALENCE BANDS -    BAND    198; K    1; EIG -2.4700954E-01 AU
 BOTTOM OF VIRTUAL BANDS - BAND    199; K    1; EIG -8.3206277E-02 AU
 INDIRECT ENERGY BAND GAP:   4.4544 eV
 TTTTTTTTTTTTTTTTTTTTTTTTTTTTTT PDIG        TELAPSE      130.35 TCPU     3296.30
 CHARGE NORMALIZATION FACTOR   1.00000000
 TOTAL ATOMIC CHARGES:
   4.5177767   4.5147148   4.5115567   4.5144553   4.5116783   4.5145600
   4.5143931   4.5115085   4.5142356   4.5113572   4.5144807   4.5176026
   0.8722970   0.8758823   0.8759947   0.8724048   0.8721425   0.8762319
   0.8763353   0.8722478   0.8720116   0.8754728   0.8756242   0.8721605
   0.8720286   0.8754797   0.8755831   0.8721170   0.8721521   0.8762398
   0.8763964   0.8723119   0.8722836   0.8758663   0.8759684   0.8723682
   5.9204809   5.9207113   6.1656848   6.1674713   6.1674502   6.1656731
   6.1629857   6.1670098   6.1670451   6.1630080   5.9213368   5.9210944
   5.9215183   5.9215702   6.1633324   6.1657410   6.1657760   6.1633913
   6.1633964   6.1657947   6.1657541   6.1633467   5.9222460   5.9221325
   5.9206528   5.9208763   6.1628976   6.1669588   6.1671233   6.1630914
   6.1656058   6.1673967   6.1674642   6.1656770   5.9211972   5.9209472
   8.4857726   8.4858142   8.4860035   8.4860394   8.4851426   8.4860807
   8.4859150   8.4858762   8.4861143   8.4851653   8.4861795   8.4861376
 TTTTTTTTTTTTTTTTTTTTTTTTTTTTTT MOQGAD      TELAPSE      130.43 TCPU     3296.37
 TTTTTTTTTTTTTTTTTTTTTTTTTTTTTT SHELLXN     TELAPSE      139.47 TCPU     3584.52
 TTTTTTTTTTTTTTTTTTTTTTTTTTTTTT MONMO3      TELAPSE      139.90 TCPU     3598.40
 NUMERICALLY INTEGRATED DENSITY    395.9999793857
 TTTTTTTTTTTTTTTTTTTTTTTTTTTTTT NUMDFT      TELAPSE      141.06 TCPU     3635.45
 CYC   8 ETOT(AU) -2.578206448052E+03 DETOT  2.36E-07 tst  1.50E-08 PX  1.92E-04
 TTTTTTTTTTTTTTTTTTTTTTTTTTTTTT DIIS        TELAPSE      141.33 TCPU     3642.20
 DIIS TEST: 0.12486E-05 AT SCF   CYCLE   8 - DIIS ACTIVE - HISTORY:     8 CYCLES
 TTTTTTTTTTTTTTTTTTTTTTTTTTTTTT FDIK        TELAPSE      143.11 TCPU     3698.64
 INSULATING STATE
 TOP OF VALENCE BANDS -    BAND    198; K    2; EIG -2.4690240E-01 AU
 TOP OF VALENCE BANDS -    BAND    198; K    1; EIG -2.4700843E-01 AU
 BOTTOM OF VIRTUAL BANDS - BAND    199; K    1; EIG -8.3204497E-02 AU
 INDIRECT ENERGY BAND GAP:   4.4544 eV
 TTTTTTTTTTTTTTTTTTTTTTTTTTTTTT PDIG        TELAPSE      144.46 TCPU     3705.38
 CHARGE NORMALIZATION FACTOR   1.00000000
 TOTAL ATOMIC CHARGES:
   4.5177488   4.5147448   4.5115846   4.5144653   4.5117062   4.5145702
   4.5143987   4.5115268   4.5142409   4.5113753   4.5145060   4.5175655
   0.8722608   0.8758868   0.8759949   0.8723663   0.8721532   0.8761950
   0.8762921   0.8722555   0.8719987   0.8754857   0.8756286   0.8721437
   0.8720155   0.8754927   0.8755875   0.8721003   0.8721633   0.8762033
   0.8763529   0.8723191   0.8722479   0.8758713   0.8759681   0.8723291
   5.9203865   5.9206719   6.1658973   6.1672834   6.1672798   6.1659079
   6.1627635   6.1672681   6.1673366   6.1628266   5.9213726   5.9210614
   5.9217121   5.9211667   6.1634655   6.1656092   6.1656782   6.1635598
   6.1635288   6.1656621   6.1656564   6.1635162   5.9219351   5.9224059
   5.9205524   5.9208310   6.1626735   6.1672150   6.1674170   6.1629121
   6.1658140   6.1672051   6.1672976   6.1659158   5.9212389   5.9209202
   8.4858592   8.4857579   8.4860919   8.4859843   8.4850146   8.4861826
   8.4858559   8.4859611   8.4862150   8.4850400   8.4861222   8.4862253
 TTTTTTTTTTTTTTTTTTTTTTTTTTTTTT MOQGAD      TELAPSE      144.54 TCPU     3705.45
 TTTTTTTTTTTTTTTTTTTTTTTTTTTTTT SHELLXN     TELAPSE      153.58 TCPU     3993.67
 +++ ENERGIES IN A.U. +++
 ::: EXT EL-POLE                                  -2.3571510721152E+03
 ::: EXT EL-SPHEROPOLE                             2.5385155841072E+01
 ::: BIELET ZONE E-E                               3.8372096166929E+03
 ::: TOTAL E-E                                     1.5054437004189E+03
 ::: TOTAL E-N + N-E                              -6.6765790290861E+03
 ::: TOTAL N-N                                     3.0045210727650E+02
 ::: KINETIC ENERGY                                2.5599219153223E+03
 ::: PSEUDO TOTAL   ENERGY                        -2.3107613060684E+03
 ::: VIRIAL COEFFICIENT                            1.0511551661089E+00
 TTTTTTTTTTTTTTTTTTTTTTTTTTTTTT MONMO3      TELAPSE      154.02 TCPU     4007.55
 NUMERICALLY INTEGRATED DENSITY    395.9999793856
 EXCHANGE ENERGY: -0.252065520311E+03  CORRELATION ENERGY: -0.153796220109E+02
 TTTTTTTTTTTTTTTTTTTTTTTTTTTTTT NUMDFT      TELAPSE      155.17 TCPU     4044.52
 CYC   9 ETOT(AU) -2.578206448390E+03 DETOT -3.38E-07 tst  3.05E-09 PX  1.92E-04

 == SCF ENDED - CONVERGENCE ON ENERGY      E(AU) -2.5782064483899E+03 CYCLES   9


 ENERGY EXPRESSION=HARTREE+FOCK EXCH*0.00000+(HSESOL     EXCH)*1.00000+PBESOL     CORR


 TOTAL ENERGY(DFT)(AU)(  9) -2.5782064483899E+03 DE-3.4E-07 tester 3.0E-09
 TTTTTTTTTTTTTTTTTTTTTTTTTTTTTT EDFT        TELAPSE      155.17 TCPU     4044.53
 
 INFORMATION **** DFTD3 ENERGY **** CALCULATE DFTD3 ENERGY

           DFT-D V3(BJ)
 DF                                         hsesol3c  
 parameters
 s6       :    1.0000
 s8       :    0.0000
 a1       :    0.5196
 a2       :    4.9385
 k1 k3    :   16.0000   -4.0000
 Cutoff   :   50.2022
 CN-Cutoff:   21.1671
 ABC-Cutoff:   21.1671
 
 Edisp /kcal,au:   -41.7508 -0.06653409

 E6    /kcal :   -43.5996
 E8    /kcal :     0.0000
 E6(ABC) "   :   1.848808
 
 INFORMATION **** DFTD3 ENERGY **** NORMAL TERMINATION OF DFTD3 MODULE

 GCP ENERGY CALCULATION
  level        hsesol3c            basis:hsesol3c
  Nbf            948
  Atoms           84

  Parameters: 
  sigma     1.0000
  eta       1.4281
  alpha     0.2936
  beta      1.9467

  dmp_scal      4.0000
  dmp_exp       6.0000
 cutoffs: 
   distance [bohr] 60.0
   noise    [a.u.] 2.2E-16
 SR-damping   T
 ** gCP correction **
  Egcp:        0.1658378039 / (a.u.) ||     104.0648 / (kcal/mol)
 INFORMATION **** GCP **** NORMAL TERMINATION OF GCP MODULE

 *******************************************************************************

 DFT-D3-GCP DISPERSION AND COUNTERPOISE CORRECTION

 D3 DISPERSION ENERGY (AU)      -6.6534088209366E-02
 GCP ENERGY (AU)                 1.6583780391789E-01
 TOTAL ENERGY + DISP + GCP (AU) -2.5781071446742E+03

 *******************************************************************************

 EIGENVECTORS IN FORTRAN UNIT 10
 TTTTTTTTTTTTTTTTTTTTTTTTTTTTTT END         TELAPSE      157.32 TCPU     4052.62
 EEEEEEEEEE TERMINATION  DATE 19 02 2026 TIME 20:33:54.5
