 Default number of threads is:           32

         
 *******************************************************************************
 *                                                                             *
 *                               CRYSTAL23                                     *
 *                      public : 1.0.1 - October 2022                          *
 *                       HTTP://WWW.CRYSTAL.UNITO.IT                           *
 *                                                                             *
 *                              MAIN AUTHORS                                   *
 *                                                                             *
 *  R. DOVESI(1,11), V.R. SAUNDERS(2), C. ROETTI(1,11), R. ORLANDO(1,11),      *
 *  C.M. ZICOVICH-WILSON(1,3), F. PASCALE(4), B. CIVALLERI(1,11),              *
 *  K. DOLL(5), N.M. HARRISON(6), I.J. BUSH(7), Ph. D'ARCO(8),                 *
 *  M. LLUNELL(9), M. CAUSA'(10), Y. NOEL(8), L. MASCHIO(1,11), A. ERBA(1,11)  *
 *  M. RE'RAT(14), S. CASASSA(1,11), B.G. SEARLE(2), J.K. DESMARAIS(1)         *
 *                                                                             *
 *        CONTRIBUTIONS TO THE CODE HAVE ALSO BEEN GIVEN BY                    *
 *                                                                             *
 *  M. FERRABONE(1,11), M. DE LA PIERRE(1,11), M. FERRERO(1,11),               *
 *  J. BAIMA(1,11), E. ALBANESE(1,11), M.F. PEINTINGER(12), R. BAST(13),       *
 *  B. KIRTMAN(15), V. LACIVITA(1,11), R. DEMICHELIS(1,16)                     *
 *  G. BRANDEBURG(17), S. SALUSTRO(1,11), G. SANSONE(1,11)                     *
 *  M.T. RUGGIERO(18), L.E. DAGA(1), L. DONA'(1), A. COSSARD(1)                *
 *                                                                             *
 * (1) THEORETICAL CHEMISTRY GROUP - UNIVERSITA' DI TORINO - TORINO (ITALY)    *
 * (2) SCIENTIFIC COMPUTING DEPARTMENT - STFC DARESBURY (UK)                   *
 * (3) UNIVERSIDAD AUTONOMA DEL ESTADO DE MORELOS - CUERNAVACA (MEXICO)        *
 * (4) UNIVERSITE' DE LORRAINE - NANCY (FRANCE)                                *
 * (5) UNIVERSITAET STUTTGART- STUTTGART (GERMANY)                             *
 * (6) IMPERIAL COLLEGE - LONDON (UK)                                          *
 * (7) SCIENTIFIC COMPUTING DEPARTMENT - STFC RAL (UK)                         *
 * (8) UPMC - SORBONNE UNIVERSITES - PARIS (FRANCE)                            *
 * (9) UNIVERSIDAD DE BARCELONA - BARCELONA (SPAIN)                            *
 *(10) UNIVERSITA' DI NAPOLI "FEDERICO II" - NAPOLI (ITALY)                    *
 *(11) NIS - NANOSTRUCTURED INTERFACES AND SURFACES - TORINO (ITALY)           *
 *(12) MPI FUER CHEMISCHE ENERGIEKONVERSION - MUELHEIM AN DER RUHR (GERMANY)   *
 *(13) UNIVERSITY OF TROMSO - TROMSO (NORWAY)                                  *
 *(14) UNIVERSITE' DE PAU ET DES PAYS DE L'ADOUR - PAU (FRANCE)                *
 *(15) UNIVERSITY OF CALIFORNIA SANTA BARBARA - SANTA BARBARA (USA)            *
 *(16) CURTIN UNIVERSITY - PERTH (AUSTRALIA)                                   *
 *(17) UNIVERSITY COLLEGE LONDON - LONDON (UK)                                 *
 *(18) UNIVERSITY OF VERMONT - BURLINGTON (USA)                                *
 *                                                                             *
 *******************************************************************************
 EEEEEEEEEE STARTING  DATE 19 02 2026 TIME 19:03:42.8
 cof-1_z39_L070_incl                                                             

 CRYSTAL CALCULATION
 (INPUT ACCORDING TO THE INTERNATIONAL TABLES FOR X-RAY CRYSTALLOGRAPHY)
 CRYSTAL FAMILY                       :  TRICLINIC   
 CRYSTAL CLASS  (GROTH - 1921)        :  TRICLINIC PEDIAL                     

 SPACE GROUP (NONCENTROSYMMETRIC)     :  P 1             

 LATTICE PARAMETERS  (ANGSTROMS AND DEGREES) - CONVENTIONAL CELL
        A           B           C        ALPHA        BETA       GAMMA
    15.02361    15.02392     8.01311    40.83813    89.99997   119.99596


 NUMBER OF IRREDUCIBLE ATOMS IN THE CONVENTIONAL CELL:   42

 INPUT COORDINATES

 ATOM AT. N.              COORDINATES
   1   5     4.788710800000E-01 -4.232811000000E-02  5.012194600000E-01
   2   5     6.379267300000E-01  1.167315400000E-01  5.012194800000E-01
   3   5     4.795594200000E-01  1.180997100000E-01  4.986443300000E-01
   4   5     9.244579000000E-02  3.439868800000E-01  5.012194700000E-01
   5   5     2.515537600000E-01  3.439661100000E-01  5.012194700000E-01
   6   5     2.522266500000E-01  5.044906900000E-01  4.986443300000E-01
   7   1     7.696701000000E-01  4.215588000000E-02  4.958806700000E-01
   8   1    -3.651942000000E-02  4.247184800000E-01  4.950642800000E-01
   9   1     7.698512700000E-01  3.278050600000E-01  4.949386300000E-01
  10   1    -3.639240000000E-02  1.394007100000E-01  4.949699700000E-01
  11   1     5.554458400000E-01 -1.741965700000E-01  5.041087100000E-01
  12   1     1.731235600000E-01  6.317973800000E-01  5.049251600000E-01
  13   1     2.700300200000E-01 -1.746575800000E-01  5.050508800000E-01
  14   1     4.584807200000E-01  6.316567300000E-01  5.050193300000E-01
  15   1     5.576992000000E-01  3.272800200000E-01  4.958807200000E-01
  16   1     1.758079000000E-01  1.392743900000E-01  4.950642300000E-01
  17   1     2.727204500000E-01  4.255594000000E-02  4.949385300000E-01
  18   1     4.611622700000E-01  4.246736500000E-01  4.949700700000E-01
  19   6     7.577988100000E-01  1.777334200000E-01  4.985501000000E-01
  20   6     8.130817900000E-01  1.259438700000E-01  4.960063100000E-01
  21   6    -7.996009000000E-02  3.404617600000E-01  4.957865600000E-01
  22   6     8.129265200000E-01  2.866138600000E-01  4.964460400000E-01
  23   6    -7.964311000000E-02  1.800840100000E-01  4.947501400000E-01
  24   6    -2.549814000000E-02  2.869404200000E-01  4.964774200000E-01
  25   6     4.191708200000E-01 -1.615961500000E-01  5.014393200000E-01
  26   6     4.716250800000E-01 -2.175771600000E-01  5.039830600000E-01
  27   6     2.571867800000E-01  6.754118000000E-01  5.042028900000E-01
  28   6     3.108530600000E-01 -2.172937200000E-01  5.035434300000E-01
  29   6     4.178262200000E-01  6.748146800000E-01  5.052392100000E-01
  30   6     3.105018400000E-01  6.211123900000E-01  5.035119900000E-01
  31   6     4.199533700000E-01  1.776642800000E-01  4.985501000000E-01
  32   6     4.738028900000E-01  2.867840000000E-01  4.960063600000E-01
  33   6     2.594751700000E-01  1.794485200000E-01  4.957865100000E-01
  34   6     3.127616900000E-01  1.256117000000E-01  4.964459700000E-01
  35   6     4.206734900000E-01  3.409320000000E-01  4.947502100000E-01
  36   6     3.124259500000E-01  2.868630200000E-01  4.964774200000E-01
  37   8     4.264340100000E-01  1.173799000000E-02  4.993352100000E-01
  38   8     5.839177700000E-01  8.822870000000E-03  5.047681600000E-01
  39   8     5.861200500000E-01  1.721775600000E-01  4.965716500000E-01
  40   8     1.460218400000E-01  4.510184600000E-01  4.993352300000E-01
  41   8     1.445800400000E-01  2.891401600000E-01  5.047681500000E-01
  42   8     3.057044700000E-01  4.524895300000E-01  4.965716300000E-01

 *******************************************************************************

 << INFORMATION >>: FROM NOW ON, ALL COORDINATES REFER TO THE PRIMITIVE CELL

 *******************************************************************************

 LATTICE PARAMETERS  (ANGSTROMS AND DEGREES) - PRIMITIVE CELL
       A          B          C        ALPHA      BETA     GAMMA        VOLUME
   15.02361   15.02392    8.01311    40.83813  89.99997 119.99596    762.386140

 COORDINATES OF THE EQUIVALENT ATOMS (FRACTIONAL UNITS)

 N. ATOM EQUIV AT. N.          X                  Y                  Z

   1   1   1    5 B     4.78871080000E-01 -4.23281100000E-02 -4.98780540000E-01

   2   2   1    5 B    -3.62073270000E-01  1.16731540000E-01 -4.98780520000E-01

   3   3   1    5 B     4.79559420000E-01  1.18099710000E-01  4.98644330000E-01

   4   4   1    5 B     9.24457900000E-02  3.43986880000E-01 -4.98780530000E-01

   5   5   1    5 B     2.51553760000E-01  3.43966110000E-01 -4.98780530000E-01

   6   6   1    5 B     2.52226650000E-01 -4.95509310000E-01  4.98644330000E-01

   7   7   1    1 H    -2.30329900000E-01  4.21558800000E-02  4.95880670000E-01

   8   8   1    1 H    -3.65194200000E-02  4.24718480000E-01  4.95064280000E-01

   9   9   1    1 H    -2.30148730000E-01  3.27805060000E-01  4.94938630000E-01

  10  10   1    1 H    -3.63924000000E-02  1.39400710000E-01  4.94969970000E-01

  11  11   1    1 H    -4.44554160000E-01 -1.74196570000E-01 -4.95891290000E-01

  12  12   1    1 H     1.73123560000E-01 -3.68202620000E-01 -4.95074840000E-01

  13  13   1    1 H     2.70030020000E-01 -1.74657580000E-01 -4.94949120000E-01

  14  14   1    1 H     4.58480720000E-01 -3.68343270000E-01 -4.94980670000E-01

  15  15   1    1 H    -4.42300800000E-01  3.27280020000E-01  4.95880720000E-01

  16  16   1    1 H     1.75807900000E-01  1.39274390000E-01  4.95064230000E-01

  17  17   1    1 H     2.72720450000E-01  4.25559400000E-02  4.94938530000E-01

  18  18   1    1 H     4.61162270000E-01  4.24673650000E-01  4.94970070000E-01

  19  19   1    6 C    -2.42201190000E-01  1.77733420000E-01  4.98550100000E-01

  20  20   1    6 C    -1.86918210000E-01  1.25943870000E-01  4.96006310000E-01

  21  21   1    6 C    -7.99600900000E-02  3.40461760000E-01  4.95786560000E-01

  22  22   1    6 C    -1.87073480000E-01  2.86613860000E-01  4.96446040000E-01

  23  23   1    6 C    -7.96431100000E-02  1.80084010000E-01  4.94750140000E-01

  24  24   1    6 C    -2.54981400000E-02  2.86940420000E-01  4.96477420000E-01

  25  25   1    6 C     4.19170820000E-01 -1.61596150000E-01 -4.98560680000E-01

  26  26   1    6 C     4.71625080000E-01 -2.17577160000E-01 -4.96016940000E-01

  27  27   1    6 C     2.57186780000E-01 -3.24588200000E-01 -4.95797110000E-01

  28  28   1    6 C     3.10853060000E-01 -2.17293720000E-01 -4.96456570000E-01

  29  29   1    6 C     4.17826220000E-01 -3.25185320000E-01 -4.94760790000E-01

  30  30   1    6 C     3.10501840000E-01 -3.78887610000E-01 -4.96488010000E-01

  31  31   1    6 C     4.19953370000E-01  1.77664280000E-01  4.98550100000E-01

  32  32   1    6 C     4.73802890000E-01  2.86784000000E-01  4.96006360000E-01

  33  33   1    6 C     2.59475170000E-01  1.79448520000E-01  4.95786510000E-01

  34  34   1    6 C     3.12761690000E-01  1.25611700000E-01  4.96445970000E-01

  35  35   1    6 C     4.20673490000E-01  3.40932000000E-01  4.94750210000E-01

  36  36   1    6 C     3.12425950000E-01  2.86863020000E-01  4.96477420000E-01

  37  37   1    8 O     4.26434010000E-01  1.17379900000E-02  4.99335210000E-01

  38  38   1    8 O    -4.16082230000E-01  8.82287000000E-03 -4.95231840000E-01

  39  39   1    8 O    -4.13879950000E-01  1.72177560000E-01  4.96571650000E-01

  40  40   1    8 O     1.46021840000E-01  4.51018460000E-01  4.99335230000E-01

  41  41   1    8 O     1.44580040000E-01  2.89140160000E-01 -4.95231850000E-01

  42  42   1    8 O     3.05704470000E-01  4.52489530000E-01  4.96571630000E-01

 NUMBER OF SYMMETRY OPERATORS         :    1
 *******************************************************************************
 * GEOMETRY EDITING - INPUT COORDINATES ARE GIVEN IN ANGSTROM         
 *******************************************************************************

 GCALCO - MAX INDICES DIRECT LATTICE VECTOR     9    14    24
 NO.OF VECTORS CREATED 6999 STARS 3500 RMAX   212.48722 BOHR

 GEOMETRY FOR WAVE FUNCTION - DIMENSIONALITY OF THE SYSTEM    3
 (NON PERIODIC DIRECTION: LATTICE PARAMETER FORMALLY SET TO 500)
 *******************************************************************************
 LATTICE PARAMETERS (ANGSTROMS AND DEGREES) - BOHR = 0.5291772083 ANGSTROM
 PRIMITIVE CELL - CENTRING CODE 1/0 VOLUME=   762.386140 - DENSITY  0.850 g/cm^3
         A              B              C           ALPHA      BETA       GAMMA 
    15.02361100    15.02391600     8.01311400    40.838126  89.999973 119.995964
 *******************************************************************************
 ATOMS IN THE ASYMMETRIC UNIT   42 - ATOMS IN THE UNIT CELL:   42
     ATOM                 X/A                 Y/B                 Z/C    
 *******************************************************************************
      1 T   5 B     4.788710800000E-01 -4.232811000000E-02 -4.987805400000E-01
      2 T   5 B    -3.620732700000E-01  1.167315400000E-01 -4.987805200000E-01
      3 T   5 B     4.795594200000E-01  1.180997100000E-01  4.986443300000E-01
      4 T   5 B     9.244579000000E-02  3.439868800000E-01 -4.987805300000E-01
      5 T   5 B     2.515537600000E-01  3.439661100000E-01 -4.987805300000E-01
      6 T   5 B     2.522266500000E-01 -4.955093100000E-01  4.986443300000E-01
      7 T   1 H    -2.303299000000E-01  4.215588000000E-02  4.958806700000E-01
      8 T   1 H    -3.651942000000E-02  4.247184800000E-01  4.950642800000E-01
      9 T   1 H    -2.301487300000E-01  3.278050600000E-01  4.949386300000E-01
     10 T   1 H    -3.639240000000E-02  1.394007100000E-01  4.949699700000E-01
     11 T   1 H    -4.445541600000E-01 -1.741965700000E-01 -4.958912900000E-01
     12 T   1 H     1.731235600000E-01 -3.682026200000E-01 -4.950748400000E-01
     13 T   1 H     2.700300200000E-01 -1.746575800000E-01 -4.949491200000E-01
     14 T   1 H     4.584807200000E-01 -3.683432700000E-01 -4.949806700000E-01
     15 T   1 H    -4.423008000000E-01  3.272800200000E-01  4.958807200000E-01
     16 T   1 H     1.758079000000E-01  1.392743900000E-01  4.950642300000E-01
     17 T   1 H     2.727204500000E-01  4.255594000000E-02  4.949385300000E-01
     18 T   1 H     4.611622700000E-01  4.246736500000E-01  4.949700700000E-01
     19 T   6 C    -2.422011900000E-01  1.777334200000E-01  4.985501000000E-01
     20 T   6 C    -1.869182100000E-01  1.259438700000E-01  4.960063100000E-01
     21 T   6 C    -7.996009000000E-02  3.404617600000E-01  4.957865600000E-01
     22 T   6 C    -1.870734800000E-01  2.866138600000E-01  4.964460400000E-01
     23 T   6 C    -7.964311000000E-02  1.800840100000E-01  4.947501400000E-01
     24 T   6 C    -2.549814000000E-02  2.869404200000E-01  4.964774200000E-01
     25 T   6 C     4.191708200000E-01 -1.615961500000E-01 -4.985606800000E-01
     26 T   6 C     4.716250800000E-01 -2.175771600000E-01 -4.960169400000E-01
     27 T   6 C     2.571867800000E-01 -3.245882000000E-01 -4.957971100000E-01
     28 T   6 C     3.108530600000E-01 -2.172937200000E-01 -4.964565700000E-01
     29 T   6 C     4.178262200000E-01 -3.251853200000E-01 -4.947607900000E-01
     30 T   6 C     3.105018400000E-01 -3.788876100000E-01 -4.964880100000E-01
     31 T   6 C     4.199533700000E-01  1.776642800000E-01  4.985501000000E-01
     32 T   6 C     4.738028900000E-01  2.867840000000E-01  4.960063600000E-01
     33 T   6 C     2.594751700000E-01  1.794485200000E-01  4.957865100000E-01
     34 T   6 C     3.127616900000E-01  1.256117000000E-01  4.964459700000E-01
     35 T   6 C     4.206734900000E-01  3.409320000000E-01  4.947502100000E-01
     36 T   6 C     3.124259500000E-01  2.868630200000E-01  4.964774200000E-01
     37 T   8 O     4.264340100000E-01  1.173799000000E-02  4.993352100000E-01
     38 T   8 O    -4.160822300000E-01  8.822870000000E-03 -4.952318400000E-01
     39 T   8 O    -4.138799500000E-01  1.721775600000E-01  4.965716500000E-01
     40 T   8 O     1.460218400000E-01  4.510184600000E-01  4.993352300000E-01
     41 T   8 O     1.445800400000E-01  2.891401600000E-01 -4.952318500000E-01
     42 T   8 O     3.057044700000E-01  4.524895300000E-01  4.965716300000E-01

 T = ATOM BELONGING TO THE ASYMMETRIC UNIT

 ****    1 SYMMOPS - TRANSLATORS IN FRACTIONAL UNITS
 **** MATRICES AND TRANSLATORS IN THE CRYSTALLOGRAPHIC REFERENCE FRAME
   V INV                    ROTATION MATRICES                   TRANSLATORS
   1   1  1.00  0.00  0.00  0.00  1.00  0.00 -0.00 -0.00  1.00  0.00  0.00  0.00

 DIRECT LATTICE VECTORS CARTESIAN COMPONENTS (ANGSTROM)
          X                    Y                    Z
   0.130113578931E+02  -0.751088897922E+01   0.000000000000E+00
   0.000000000000E+00   0.150239160000E+02   0.000000000000E+00
   0.349956454315E+01   0.606240221846E+01   0.390004145195E+01


 CARTESIAN COORDINATES - PRIMITIVE CELL
 *******************************************************************************
 *      ATOM          X(ANGSTROM)         Y(ANGSTROM)         Z(ANGSTROM)
 *******************************************************************************
    1     5 B     9.856837707707E-01  1.705024043000E+00 -5.845306233375E+00
    2     5 B    -6.456579522084E+00  1.449448853849E+00 -1.945264703425E+00
    3     5 B    -1.527036088393E+00 -2.552397497990E-01  5.844775008729E+00
    4     5 B    -5.426693982041E-01  1.449871733338E+00 -1.945264742425E+00
    5     5 B     1.527541343104E+00  2.545173882246E-01 -1.945264742425E+00
    6     5 B     1.527284687079E+00  2.645559657546E+00 -1.955307895170E+00
    7     1 H    -4.761102895155E+00 -6.928454370415E-01 -1.966086283729E+00
    8     1 H    -2.242222385948E+00  3.594104647264E+00 -1.969270238570E+00
    9     1 H    -1.262477814080E+00 -5.369861705933E+00  1.930281173171E+00
   10     1 H    -2.240899727200E+00 -6.940113407944E-01 -1.969638051479E+00
   11     1 H    -4.020092311199E+00  3.777992067691E+00  1.966044865289E+00
   12     1 H     5.200262426115E-01  5.190416118973E+00 -1.930812397817E+00
   13     1 H     5.280915384223E+00 -1.590384736611E+00  1.969719367344E+00
   14     1 H     4.233239932711E+00  3.045587953420E+00 -1.930445130914E+00
   15     1 H    -4.019567419843E+00 -3.778587889802E+00  1.933955363223E+00
   16     1 H     5.204441900677E-01 -2.289150614487E+00 -1.969270433572E+00
   17     1 H     1.780968167183E+00 -4.470901930639E+00 -1.969760668783E+00
   18     1 H     4.232962505488E+00 -1.451719343818E-01 -1.969637661475E+00
   19     6 C    -4.906222655419E+00  1.449407234989E+00 -1.955675396076E+00
   20     6 C    -4.195818174534E+00  2.406795827519E-01 -1.965596282521E+00
   21     6 C    -2.804916824954E+00  2.658895564976E+00 -1.966453316630E+00
   22     6 C    -4.196299584557E+00  2.658404052092E+00 -1.963881317293E+00
   23     6 C    -2.804419503412E+00  2.407297242110E-01 -1.970495397592E+00
   24     6 C    -2.093875192790E+00  1.449926059763E+00 -1.963758933993E+00
   25     6 C     2.096717358626E-01  3.628859331975E-01 -5.844448770262E+00
   26     6 C     9.010748680490E-01 -8.567250069655E-01 -5.834528078819E+00
   27     6 C     1.611275253192E+00  5.209907297536E+00 -1.933629280757E+00
   28     6 C    -1.192325936921E+00  3.524089510826E-01 -5.836242654042E+00
   29     6 C     3.705039167499E+00  4.000673805957E+00 -1.929587589799E+00
   30     6 C     2.302558730799E+00  3.989485512573E+00 -1.936323819396E+00
   31     6 C     3.709307305260E+00 -3.525000905805E+00 -1.955675396076E+00
   32     6 C     4.401060700039E+00 -2.305474339905E+00 -1.965596087519E+00
   33     6 C     1.611596649451E+00 -2.309614684283E+00 -1.966453511632E+00
   34     6 C     2.307234454880E+00 -3.514685769712E+00 -1.963881590296E+00
   35     6 C     3.705379083994E+00 -1.100525597951E+00 -1.970495124589E+00
   36     6 C     2.302976082886E+00 -1.089347114728E+00 -1.963758933993E+00
   37     8 O    -2.215852031966E+00 -1.450001847765E+00  5.847469469368E+00
   38     8 O     2.364902754536E+00  1.706031690366E+00 -5.831466156275E+00
   39     8 O    -1.477910715902E-01 -2.557091552540E-01  5.836691470813E+00
   40     8 O     1.478337433474E-01  2.644078416355E+00 -1.952613356531E+00
   41     8 O     1.480868217350E-01  2.557981809228E-01 -1.931424743326E+00
   42     8 O     2.215850195011E+00  1.450067087855E+00 -1.963391511087E+00

 *******************************************************************************
 STARTING BASIS SET HANDLING 
 *******************************************************************************

 Loading internal basis set: SOLDEF2MSVP         

 Please cite in your publication:
 L. Dona', J. G. Brandenburg and B. Civalleri, J. Chem. Phys., 151, 121101 (2019
 )                                                                              
                                                                                
                    

 *******************************************************************************
 LOCAL ATOMIC FUNCTIONS BASIS SET
 *******************************************************************************
   ATOM   X(AU)   Y(AU)   Z(AU)  N. TYPE  EXPONENT  S COEF   P COEF   D/F/G COEF
 *******************************************************************************
   1 B    1.863   3.222 -11.046
                                  1 S  
                                         2.410E+03 1.755E-03 0.000E+00 0.000E+00
                                         3.619E+02 1.344E-02 0.000E+00 0.000E+00
                                         8.231E+01 6.637E-02 0.000E+00 0.000E+00
                                         2.311E+01 2.303E-01 0.000E+00 0.000E+00
                                         7.252E+00 5.150E-01 0.000E+00 0.000E+00
                                  2 S  
                                         2.367E+00 1.000E+00 0.000E+00 0.000E+00
                                  3 S  
                                         5.533E-01 1.000E+00 0.000E+00 0.000E+00
                                  4 S  
                                         1.716E-01 1.000E+00 0.000E+00 0.000E+00
                           5-     7 P  
                                         6.002E+00 0.000E+00-3.555E-02 0.000E+00
                                         1.240E+00 0.000E+00-1.983E-01 0.000E+00
                                         3.367E-01 0.000E+00-5.048E-01 0.000E+00
                           8-    10 P  
                                         1.256E-01 0.000E+00 1.000E+00 0.000E+00
                          11-    15 D  
                                         8.880E-01 0.000E+00 0.000E+00 1.000E+00
   2 B  -12.201   2.739  -3.676
   3 B   -2.886  -0.482  11.045
   4 B   -1.025   2.740  -3.676
   5 B    2.887   0.481  -3.676
   6 B    2.886   4.999  -3.695
   7 H   -8.997  -1.309  -3.715
                                 91 S  
                                         1.874E+01 1.968E-02 0.000E+00 0.000E+00
                                         2.826E+00 1.380E-01 0.000E+00 0.000E+00
                                         6.401E-01 4.783E-01 0.000E+00 0.000E+00
                                 92 S  
                                         1.756E-01 1.000E+00 0.000E+00 0.000E+00
   8 H   -4.237   6.792  -3.721
   9 H   -2.386 -10.148   3.648
  10 H   -4.235  -1.311  -3.722
  11 H   -7.597   7.139   3.715
  12 H    0.983   9.808  -3.649
  13 H    9.979  -3.005   3.722
  14 H    8.000   5.755  -3.648
  15 H   -7.596  -7.140   3.655
  16 H    0.983  -4.326  -3.721
  17 H    3.366  -8.449  -3.722
  18 H    7.999  -0.274  -3.722
  19 C   -9.271   2.739  -3.696
                                115 S  
                                         3.624E+03 1.634E-03 0.000E+00 0.000E+00
                                         5.440E+02 1.252E-02 0.000E+00 0.000E+00
                                         1.237E+02 6.211E-02 0.000E+00 0.000E+00
                                         3.476E+01 2.182E-01 0.000E+00 0.000E+00
                                         1.093E+01 4.980E-01 0.000E+00 0.000E+00
                                116 S  
                                         3.574E+00 1.000E+00 0.000E+00 0.000E+00
                                117 S  
                                         7.742E-01 1.000E+00 0.000E+00 0.000E+00
                                118 S  
                                         2.330E-01 1.000E+00 0.000E+00 0.000E+00
                         119-   121 P  
                                         9.443E+00 0.000E+00 3.790E-02 0.000E+00
                                         2.002E+00 0.000E+00 2.082E-01 0.000E+00
                                         5.463E-01 0.000E+00 5.047E-01 0.000E+00
                         122-   124 P  
                                         1.820E-01 0.000E+00 1.000E+00 0.000E+00
                         125-   129 D  
                                         8.880E-01 0.000E+00 0.000E+00 1.000E+00
  20 C   -7.929   0.455  -3.714
  21 C   -5.301   5.025  -3.716
  22 C   -7.930   5.024  -3.711
  23 C   -5.300   0.455  -3.724
  24 C   -3.957   2.740  -3.711
  25 C    0.396   0.686 -11.044
  26 C    1.703  -1.619 -11.026
  27 C    3.045   9.845  -3.654
  28 C   -2.253   0.666 -11.029
  29 C    7.002   7.560  -3.646
  30 C    4.351   7.539  -3.659
  31 C    7.010  -6.661  -3.696
  32 C    8.317  -4.357  -3.714
  33 C    3.045  -4.365  -3.716
  34 C    4.360  -6.642  -3.711
  35 C    7.002  -2.080  -3.724
  36 C    4.352  -2.059  -3.711
  37 O   -4.187  -2.740  11.050
                                385 S  
                                         6.773E+03 1.727E-03 0.000E+00 0.000E+00
                                         1.017E+03 1.325E-02 0.000E+00 0.000E+00
                                         2.313E+02 6.603E-02 0.000E+00 0.000E+00
                                         6.501E+01 2.353E-01 0.000E+00 0.000E+00
                                         2.050E+01 5.498E-01 0.000E+00 0.000E+00
                                386 S  
                                         6.716E+00 1.000E+00 0.000E+00 0.000E+00
                                387 S  
                                         1.147E+00 1.000E+00 0.000E+00 0.000E+00
                                388 S  
                                         3.342E-01 1.000E+00 0.000E+00 0.000E+00
                         389-   391 P  
                                         1.769E+01 0.000E+00 4.359E-02 0.000E+00
                                         3.854E+00 0.000E+00 2.318E-01 0.000E+00
                                         1.047E+00 0.000E+00 5.146E-01 0.000E+00
                         392-   394 P  
                                         2.759E-01 0.000E+00 1.000E+00 0.000E+00
                         395-   399 D  
                                         8.000E-01 0.000E+00 0.000E+00 1.000E+00
  38 O    4.469   3.224 -11.020
  39 O   -0.279  -0.483  11.030
  40 O    0.279   4.997  -3.690
  41 O    0.280   0.483  -3.650
  42 O    4.187   2.740  -3.710

 *******************************************************************************
 FINISHED BASIS SET HANDLING 
 *******************************************************************************

 INFORMATION **** SET_MPP **** PCRYSTAL CALCULATION
 INFORMATION **** READM2 **** NEW DEFAULT: FOCK/KS MATRIX MIXING SET TO 30 %
 INFORMATION **** READM2 **** NEW DEFAULT: FULL DIRECT SCF MODE
 INFORMATION **** READM2 **** NEW DEFAULT: COULOMB BIPOLAR BUFFER SET TO 32 Mb
 INFORMATION **** READM2 **** NEW DEFAULT: EXCHANGE BIPOLAR BUFFER SET TO 32 Mb

 *******************************************************************************
 NEW DEFAULT: DFT INTEGRATION GRID INCREASED TO XLGRID
 NEW DEFAULT: DIIS ACCELERATOR ACTIVE
 USE KEYWORD NODIIS TO TURN IT OFF
 *******************************************************************************

 WARNING **** RDDFTP **** HSEsol-HJS ACTIVE
 RANGE SEPARATION - OMEGA:   0.110000000000000     
 WARNING **** RDDFTP **** HSEsol-3c has to be combined with sol-def2-mSVP basis set
 *******************************************************************************
 N. OF ATOMS PER CELL        42  COULOMB OVERLAP TOL         (T1) 10**   -6
 NUMBER OF SHELLS           234  COULOMB PENETRATION TOL     (T2) 10**   -6
 NUMBER OF AO               474  EXCHANGE OVERLAP TOL        (T3) 10**   -6
 N. OF ELECTRONS PER CELL   198  EXCHANGE PSEUDO OVP (F(G))  (T4) 10**   -6
 CORE ELECTRONS PER CELL     60  EXCHANGE PSEUDO OVP (P(G))  (T5) 10**  -12
 N. OF SYMMETRY OPERATORS     1  POLE ORDER IN MONO ZONE                  4
 *******************************************************************************
 TYPE OF CALCULATION :  RESTRICTED CLOSED SHELL
 KOHN-SHAM HAMILTONIAN

 (EXCHANGE)[CORRELATION] FUNCTIONAL:(HSEsol GGA)[PBEsol]

 RANGE-SEPARATED HYBRID FUNCTIONAL 
 OMEGA (SHORT-RANGE)[LONG-RANGE]:(    0.1100)[    0.0000]

 HYBRID EXCHANGE - PERCENTAGE OF FOCK EXCHANGE    25.0000

 CAPPA:IS1  2;IS2  2;IS3  8; K PTS MONK NET  20; SYMMOPS:K SPACE   2;G SPACE   1

 *******************************************************************************
 MAX NUMBER OF SCF CYCLES      50  CONVERGENCE ON DELTAP        10**-16
 WEIGHT OF F(I) IN F(I+1)      30% CONVERGENCE ON ENERGY        10**- 6
 SHRINK. FACT.(MONKH.)    2  2  8  NUMBER OF K POINTS IN THE IBZ     20
 SHRINKING FACTOR(GILAT NET)    8  NUMBER OF K POINTS(GILAT NET)   1028
 *******************************************************************************
 *** K POINTS COORDINATES (OBLIQUE COORDINATES IN UNITS OF IS =  2)
   1-R(  0  0  0)   2-R(  1  0  0)   3-R(  0  1  0)   4-R(  1  1  0)
   5-C(  0  0  1)   6-C(  1  0  1)   7-C(  0  1  1)   8-C(  1  1  1)
   9-C(  0  0  2)  10-C(  1  0  2)  11-C(  0  1  2)  12-C(  1  1  2)
  13-C(  0  0  3)  14-C(  1  0  3)  15-C(  0  1  3)  16-C(  1  1  3)
  17-R(  0  0  4)  18-R(  1  0  4)  19-R(  0  1  4)  20-R(  1  1  4)

 DIRECT LATTICE VECTORS COMPON. (A.U.)     RECIP. LATTICE VECTORS COMPON. (A.U.) 
        X            Y            Z              X            Y            Z
   24.5879030  -14.1935232    0.0000000      0.2555397    0.0000000   -0.2292995
    0.0000000   28.3910867    0.0000000      0.1277517    0.2213084   -0.4586453
    6.6132186   11.4562799    7.3700103      0.0000000    0.0000000    0.8525341

 DISK SPACE FOR EIGENVECTORS (FTN 10)     7189632 REALS

 SYMMETRY ADAPTION OF THE BLOCH FUNCTIONS DISABLED
 TTTTTTTTTTTTTTTTTTTTTTTTTTTTTT gordsh1     TELAPSE        0.04 TCPU        0.04

 MATRIX SIZE: P(G)  300096, F(G)   59924, P(G) IRR  151233, F(G) IRR   60404
 MAX G-VECTOR INDEX FOR 1- AND 2-ELECTRON INTEGRALS  51

 TTTTTTTTTTTTTTTTTTTTTTTTTTTTTT INPUT       TELAPSE        0.39 TCPU        0.39

 NEIGHBORS OF THE NON-EQUIVALENT ATOMS

 N = NUMBER OF NEIGHBORS AT DISTANCE R
    ATOM  N     R/ANG      R/AU   NEIGHBORS (ATOM LABELS AND CELL INDICES)
   1 B    1     1.3791     2.6061   37 O    1 2-3
   1 B    1     1.3793     2.6065   38 O    0 0 0
   1 B    1     1.5503     2.9297   25 C    0 0 0
   1 B    1     2.3895     4.5155    3 B    1 2-3
   1 B    1     2.3898     4.5160    2 B    1 1-1
   1 B    1     2.5632     4.8437   26 C    0 0 0

   2 B    1     1.3793     2.6065   39 O    0 1-2
   2 B    1     1.3793     2.6065   38 O   -1-1 1
   2 B    1     1.5504     2.9298   19 C    0 0 0
   2 B    1     2.3895     4.5156    3 B    0 1-2
   2 B    1     2.3898     4.5160    1 B   -1-1 1
   2 B    1     2.5634     4.8440   22 C    0 0 0

   3 B    1     1.3791     2.6061   37 O    0 0 0
   3 B    1     1.3793     2.6064   39 O    0 0 0
   3 B    1     1.5502     2.9294   31 C   -1-1 2
   3 B    1     2.3895     4.5155    1 B   -1-2 3
   3 B    1     2.3895     4.5156    2 B    0-1 2
   3 B    1     2.5629     4.8433   32 C   -1-1 2

   4 B    1     1.3795     2.6068   40 O    0 0 0
   4 B    1     1.3795     2.6070   41 O    0 0 0
   4 B    1     1.5513     2.9316   24 C    0 0 0
   4 B    1     2.3905     4.5174    6 B    0 0 0
   4 B    1     2.3905     4.5175    5 B    0 0 0
   4 B    1     2.5648     4.8468   23 C    0 0 0

   5 B    1     1.3795     2.6069   41 O    0 0 0
   5 B    1     1.3797     2.6072   42 O    0 0 0
   5 B    1     1.5516     2.9322   36 C    0 0 0
   5 B    1     2.3905     4.5175    4 B    0 0 0
   5 B    1     2.3911     4.5185    6 B    0 0 0
   5 B    1     2.5651     4.8473   35 C    0 0 0

   6 B    1     1.3795     2.6068   40 O    0 0 0
   6 B    1     1.3796     2.6071   42 O    0 0 0
   6 B    1     1.5516     2.9322   30 C    0 0 0
   6 B    1     2.3905     4.5174    4 B    0 0 0
   6 B    1     2.3911     4.5185    5 B    0 0 0
   6 B    1     2.5651     4.8473   29 C    0 0 0

   7 H    1     1.0913     2.0623   20 C    0 0 0
   7 H    1     2.1472     4.0576   19 C    0 0 0
   7 H    1     2.1680     4.0969   23 C    0 0 0
   7 H    1     2.5202     4.7625   10 H    0 0 0
   7 H    1     2.5676     4.8520   38 O   -1-1 1
   7 H    1     2.7321     5.1630    2 B    0 0 0

   8 H    1     1.0914     2.0625   21 C    0 0 0
   8 H    1     2.1493     4.0616   24 C    0 0 0
   8 H    1     2.1666     4.0942   22 C    0 0 0
   8 H    1     2.5198     4.7618    9 H    0 1-1
   8 H    1     2.5720     4.8604   40 O    0 0 0
   8 H    1     2.7362     5.1707    4 B    0 0 0

   9 H    1     1.0914     2.0624   22 C    0-1 1
   9 H    1     2.1471     4.0575   19 C    0-1 1
   9 H    1     2.1680     4.0970   21 C    0-1 1
   9 H    1     2.5198     4.7618    8 H    0-1 1
   9 H    1     2.5665     4.8500   39 O    0 0-1
   9 H    1     2.7315     5.1618    2 B    0-1 1

  10 H    1     1.0915     2.0626   23 C    0 0 0
  10 H    1     2.1490     4.0610   24 C    0 0 0
  10 H    1     2.1669     4.0948   20 C    0 0 0
  10 H    1     2.5202     4.7625    7 H    0 0 0
  10 H    1     2.5712     4.8588   41 O    0 0 0
  10 H    1     2.7351     5.1686    4 B    0 0 0

  11 H    1     1.0913     2.0623   26 C   -1-1 2
  11 H    1     2.1469     4.0571   25 C   -1-1 2
  11 H    1     2.1680     4.0968   29 C   -1-1 1
  11 H    1     2.5198     4.7617   14 H   -1-1 1
  11 H    1     2.5670     4.8510   38 O   -1-1 2
  11 H    1     2.7310     5.1609    1 B   -1-1 2

  12 H    1     1.0914     2.0625   27 C    0 0 0
  12 H    1     2.1493     4.0617   30 C    0 0 0
  12 H    1     2.1664     4.0939   28 C    0 0 1
  12 H    1     2.5192     4.7606   13 H    0 1-1
  12 H    1     2.5735     4.8632   40 O    0 0 0
  12 H    1     2.7371     5.1723    6 B    0 0 0

  13 H    1     1.0914     2.0624   28 C    0-1 2
  13 H    1     2.1475     4.0581   25 C    0-1 2
  13 H    1     2.1679     4.0967   27 C    0-1 1
  13 H    1     2.5192     4.7606   12 H    0-1 1
  13 H    1     2.5675     4.8519   37 O    1 1-1
  13 H    1     2.7328     5.1643    1 B    0-1 2

  14 H    1     1.0914     2.0625   29 C    0 0 0
  14 H    1     2.1491     4.0612   30 C    0 0 0
  14 H    1     2.1666     4.0942   26 C    0 0 1
  14 H    1     2.5198     4.7617   11 H    1 1-1
  14 H    1     2.5723     4.8609   42 O    0 0 0
  14 H    1     2.7355     5.1693    6 B    0 0 0

  15 H    1     1.0914     2.0624   32 C   -1-1 1
  15 H    1     2.1475     4.0582   31 C   -1-1 1
  15 H    1     2.1678     4.0966   35 C   -1-1 1
  15 H    1     2.5200     4.7621   18 H   -1-1 1
  15 H    1     2.5667     4.8503   39 O    0 0-1
  15 H    1     2.7315     5.1618    3 B    0 0-1

  16 H    1     1.0913     2.0623   33 C    0 0 0
  16 H    1     2.1487     4.0605   36 C    0 0 0
  16 H    1     2.1667     4.0945   34 C    0 0 0
  16 H    1     2.5197     4.7616   17 H    0 0 0
  16 H    1     2.5723     4.8610   41 O    0 0 0
  16 H    1     2.7359     5.1701    5 B    0 0 0

  17 H    1     1.0915     2.0626   34 C    0 0 0
  17 H    1     2.1479     4.0589   31 C    0 0 0
  17 H    1     2.1679     4.0968   33 C    0 0 0
  17 H    1     2.5197     4.7616   16 H    0 0 0
  17 H    1     2.5677     4.8522   37 O    1 1-2
  17 H    1     2.7331     5.1648    3 B    1 1-2

  18 H    1     1.0914     2.0624   35 C    0 0 0
  18 H    1     2.1486     4.0602   36 C    0 0 0
  18 H    1     2.1668     4.0947   32 C    0 0 0
  18 H    1     2.5200     4.7621   15 H    1 1-1
  18 H    1     2.5717     4.8598   42 O    0 0 0
  18 H    1     2.7349     5.1682    5 B    0 0 0

  19 C    1     1.4020     2.6495   22 C    0 0 0
  19 C    1     1.4021     2.6495   20 C    0 0 0
  19 C    1     1.5504     2.9298    2 B    0 0 0
  19 C    1     2.1471     4.0575    9 H    0 1-1
  19 C    1     2.1472     4.0576    7 H    0 0 0
  19 C    1     2.4246     4.5817   21 C    0 0 0

  20 C    1     1.0913     2.0623    7 H    0 0 0
  20 C    1     1.3914     2.6294   23 C    0 0 0
  20 C    1     1.4021     2.6495   19 C    0 0 0
  20 C    1     2.1669     4.0948   10 H    0 0 0
  20 C    1     2.4177     4.5688   22 C    0 0 0
  20 C    1     2.4250     4.5825   24 C    0 0 0

  21 C    1     1.0914     2.0625    8 H    0 0 0
  21 C    1     1.3914     2.6293   22 C    0 0 0
  21 C    1     1.4026     2.6505   24 C    0 0 0
  21 C    1     2.1680     4.0970    9 H    0 1-1
  21 C    1     2.4182     4.5697   23 C    0 0 0
  21 C    1     2.4246     4.5817   19 C    0 0 0

  22 C    1     1.0914     2.0624    9 H    0 1-1
  22 C    1     1.3914     2.6293   21 C    0 0 0
  22 C    1     1.4020     2.6495   19 C    0 0 0
  22 C    1     2.1666     4.0942    8 H    0 0 0
  22 C    1     2.4177     4.5688   20 C    0 0 0
  22 C    1     2.4250     4.5826   24 C    0 0 0

  23 C    1     1.0915     2.0626   10 H    0 0 0
  23 C    1     1.3914     2.6294   20 C    0 0 0
  23 C    1     1.4025     2.6504   24 C    0 0 0
  23 C    1     2.1680     4.0969    7 H    0 0 0
  23 C    1     2.4182     4.5697   21 C    0 0 0
  23 C    1     2.4246     4.5818   19 C    0 0 0

  24 C    1     1.4025     2.6504   23 C    0 0 0
  24 C    1     1.4026     2.6505   21 C    0 0 0
  24 C    1     1.5513     2.9316    4 B    0 0 0
  24 C    1     2.1490     4.0610   10 H    0 0 0
  24 C    1     2.1493     4.0616    8 H    0 0 0
  24 C    1     2.4250     4.5825   20 C    0 0 0

  25 C    1     1.4020     2.6494   26 C    0 0 0
  25 C    1     1.4021     2.6495   28 C    0 0 0
  25 C    1     1.5503     2.9297    1 B    0 0 0
  25 C    1     2.1469     4.0571   11 H    1 1-2
  25 C    1     2.1475     4.0581   13 H    0 1-2
  25 C    1     2.4246     4.5818   27 C    0 0-1

  26 C    1     1.0913     2.0623   11 H    1 1-2
  26 C    1     1.3914     2.6293   29 C    0 0-1
  26 C    1     1.4020     2.6494   25 C    0 0 0
  26 C    1     2.1666     4.0942   14 H    0 0-1
  26 C    1     2.4175     4.5684   28 C    0 0 0
  26 C    1     2.4251     4.5828   30 C    0 0-1

  27 C    1     1.0914     2.0625   12 H    0 0 0
  27 C    1     1.3915     2.6295   28 C    0 0 1
  27 C    1     1.4026     2.6505   30 C    0 0 0
  27 C    1     2.1679     4.0967   13 H    0 1-1
  27 C    1     2.4179     4.5691   29 C    0 0 0
  27 C    1     2.4246     4.5818   25 C    0 0 1

  28 C    1     1.0914     2.0624   13 H    0 1-2
  28 C    1     1.3915     2.6295   27 C    0 0-1
  28 C    1     1.4021     2.6495   25 C    0 0 0
  28 C    1     2.1664     4.0939   12 H    0 0-1
  28 C    1     2.4175     4.5684   26 C    0 0 0
  28 C    1     2.4253     4.5832   30 C    0 0-1

  29 C    1     1.0914     2.0625   14 H    0 0 0
  29 C    1     1.3914     2.6293   26 C    0 0 1
  29 C    1     1.4025     2.6504   30 C    0 0 0
  29 C    1     2.1680     4.0968   11 H    1 1-1
  29 C    1     2.4179     4.5691   27 C    0 0 0
  29 C    1     2.4247     4.5819   25 C    0 0 1

  30 C    1     1.4025     2.6504   29 C    0 0 0
  30 C    1     1.4026     2.6505   27 C    0 0 0
  30 C    1     1.5516     2.9322    6 B    0 0 0
  30 C    1     2.1491     4.0612   14 H    0 0 0
  30 C    1     2.1493     4.0617   12 H    0 0 0
  30 C    1     2.4251     4.5828   26 C    0 0 1

  31 C    1     1.4021     2.6496   32 C    0 0 0
  31 C    1     1.4021     2.6497   34 C    0 0 0
  31 C    1     1.5502     2.9294    3 B    1 1-2
  31 C    1     2.1475     4.0582   15 H    1 1-1
  31 C    1     2.1479     4.0589   17 H    0 0 0
  31 C    1     2.4244     4.5814   33 C    0 0 0

  32 C    1     1.0914     2.0624   15 H    1 1-1
  32 C    1     1.3914     2.6293   35 C    0 0 0
  32 C    1     1.4021     2.6496   31 C    0 0 0
  32 C    1     2.1668     4.0947   18 H    0 0 0
  32 C    1     2.4179     4.5692   34 C    0 0 0
  32 C    1     2.4251     4.5827   36 C    0 0 0

  33 C    1     1.0913     2.0623   16 H    0 0 0
  33 C    1     1.3914     2.6294   34 C    0 0 0
  33 C    1     1.4025     2.6504   36 C    0 0 0
  33 C    1     2.1679     4.0968   17 H    0 0 0
  33 C    1     2.4178     4.5690   35 C    0 0 0
  33 C    1     2.4244     4.5814   31 C    0 0 0

  34 C    1     1.0915     2.0626   17 H    0 0 0
  34 C    1     1.3914     2.6294   33 C    0 0 0
  34 C    1     1.4021     2.6497   31 C    0 0 0
  34 C    1     2.1667     4.0945   16 H    0 0 0
  34 C    1     2.4179     4.5692   32 C    0 0 0
  34 C    1     2.4253     4.5832   36 C    0 0 0

  35 C    1     1.0914     2.0624   18 H    0 0 0
  35 C    1     1.3914     2.6293   32 C    0 0 0
  35 C    1     1.4025     2.6503   36 C    0 0 0
  35 C    1     2.1678     4.0966   15 H    1 1-1
  35 C    1     2.4178     4.5690   33 C    0 0 0
  35 C    1     2.4245     4.5817   31 C    0 0 0

  36 C    1     1.4025     2.6503   35 C    0 0 0
  36 C    1     1.4025     2.6504   33 C    0 0 0
  36 C    1     1.5516     2.9322    5 B    0 0 0
  36 C    1     2.1486     4.0602   18 H    0 0 0
  36 C    1     2.1487     4.0605   16 H    0 0 0
  36 C    1     2.4251     4.5827   32 C    0 0 0

  37 O    2     1.3791     2.6061    1 B   -1-2 3    3 B    0 0 0
  37 O    1     2.3880     4.5126   38 O   -1-2 3
  37 O    1     2.3882     4.5130   39 O    0 0 0
  37 O    1     2.5383     4.7966   31 C   -1-1 2
  37 O    1     2.5384     4.7968   25 C   -1-2 3
  37 O    1     2.5675     4.8519   13 H   -1-1 1

  38 O    1     1.3793     2.6065    1 B    0 0 0
  38 O    1     1.3793     2.6065    2 B    1 1-1
  38 O    1     2.3880     4.5126   37 O    1 2-3
  38 O    1     2.3882     4.5131   39 O    1 2-3
  38 O    1     2.5391     4.7981   19 C    1 1-1
  38 O    1     2.5395     4.7990   25 C    0 0 0

  39 O    1     1.3793     2.6064    3 B    0 0 0
  39 O    1     1.3793     2.6065    2 B    0-1 2
  39 O    1     2.3882     4.5130   37 O    0 0 0
  39 O    1     2.3882     4.5131   38 O   -1-2 3
  39 O    1     2.5390     4.7980   19 C    0-1 2
  39 O    1     2.5391     4.7982   31 C   -1-1 2

  40 O    1     1.3795     2.6068    6 B    0 0 0
  40 O    1     1.3795     2.6068    4 B    0 0 0
  40 O    1     2.3880     4.5126   42 O    0 0 0
  40 O    1     2.3884     4.5134   41 O    0 0 0
  40 O    1     2.5400     4.7998   24 C    0 0 0
  40 O    1     2.5403     4.8005   30 C    0 0 0

  41 O    1     1.3795     2.6069    5 B    0 0 0
  41 O    1     1.3795     2.6070    4 B    0 0 0
  41 O    1     2.3881     4.5128   42 O    0 0 0
  41 O    1     2.3884     4.5134   40 O    0 0 0
  41 O    1     2.5404     4.8006   24 C    0 0 0
  41 O    1     2.5405     4.8008   36 C    0 0 0

  42 O    1     1.3796     2.6071    6 B    0 0 0
  42 O    1     1.3797     2.6072    5 B    0 0 0
  42 O    1     2.3880     4.5126   40 O    0 0 0
  42 O    1     2.3881     4.5128   41 O    0 0 0
  42 O    1     2.5409     4.8016   36 C    0 0 0
  42 O    1     2.5410     4.8019   30 C    0 0 0


 SYMMETRY ALLOWED INTERNAL DEGREE(S) OF FREEDOM: 123
 TTTTTTTTTTTTTTTTTTTTTTTTTTTTTT SYMM        TELAPSE        0.40 TCPU        0.39
 TTTTTTTTTTTTTTTTTTTTTTTTTTTTTT INT_SCREEN  TELAPSE        0.43 TCPU        0.43

 DFT PARAMETERS

     ATOM       ELECTRONS   NET CHARGE   R(ANGSTROM)
   1   5  B       5.0000      0.0000     0.89000000
   7   1  H       1.0000      0.0000     1.11000000
  19   6  C       6.0000      0.0000     0.77000000
  37   8  O       8.0000      0.0000     0.74000000

 SIZE OF GRID=    1319715
 TTTTTTTTTTTTTTTTTTTTTTTTTTTTTT MAKE_GRID2  TELAPSE        8.43 TCPU        8.43
 BECKE WEIGHT FUNCTION
 RADSAFE =     2.00
 TOLERANCES - DENSITY:10**- 6; POTENTIAL:10**- 9; GRID WGT:10**-14

 RADIAL INTEGRATION  - INTERVALS (POINTS,UPPER LIMIT):            1( 75,  4.0*R)

 ANGULAR INTEGRATION - INTERVALS (ACCURACY LEVEL [N. POINTS] UPPER LIMIT):
  1(  4[  86]   0.2)  2(  8[ 194]   0.5)  3( 12[ 350]   0.9)  4( 16[ 974]   3.5)
  5( 12[ 350]9999.0)
 TTTTTTTTTTTTTTTTTTTTTTTTTTTTTT INT_CALC    TELAPSE        8.50 TCPU        8.50
 EEEEEEEEEE INT_CALC TERMINATION  DATE 19 02 2026 TIME 19:03:51.3

 *******************************************************************************
 cof-1_z39_L070_incl                                                             
 CRYSTAL - SCF - TYPE OF CALCULATION :  RESTRICTED CLOSED SHELL
 *******************************************************************************

 CAPPA:IS1  2;IS2  2;IS3  8; K PTS MONK NET  20; SYMMOPS:K SPACE   2;G SPACE   1

 TTTTTTTTTTTTTTTTTTTTTTTTTTTTTT SDIK        TELAPSE        9.08 TCPU       16.37

 AAAAAAAAAAAAAAAAAAAAAAAAAAAAAAAAAAAAAAAAAAAAAAAAAAAAAAAAAAAAAAAAAAAAAAAAAAAAAAA
         ATOMIC WAVEFUNCTION(S)


 NUCLEAR CHARGE  5.0  SYMMETRY SPECIES            S    P
 N. ELECTRONS    5.0  NUMBER OF PRIMITIVE GTOS    8    4
                      NUMBER OF CONTRACTED GTOS   4    2
                      NUMBER OF CLOSED SHELLS     2    0
                      OPEN SHELL OCCUPATION       0    1

  ZNUC  SCFIT    TOTAL HF ENERGY   KINETIC ENERGY   VIRIAL THEOREM ACCURACY
   5.0    11    -2.451164084E+01  2.462155050E+01 -1.995536038E+00  1.5E-06

 NUCLEAR CHARGE  1.0  SYMMETRY SPECIES            S
 N. ELECTRONS    1.0  NUMBER OF PRIMITIVE GTOS    4
                      NUMBER OF CONTRACTED GTOS   2
                      NUMBER OF CLOSED SHELLS     0
                      OPEN SHELL OCCUPATION       1

  ZNUC  SCFIT    TOTAL HF ENERGY   KINETIC ENERGY   VIRIAL THEOREM ACCURACY
   1.0     1    -4.977266687E-01  5.190767460E-01 -1.958869132E+00  0.0E+00

 NUCLEAR CHARGE  6.0  SYMMETRY SPECIES            S    P
 N. ELECTRONS    6.0  NUMBER OF PRIMITIVE GTOS    8    4
                      NUMBER OF CONTRACTED GTOS   4    2
                      NUMBER OF CLOSED SHELLS     2    0
                      OPEN SHELL OCCUPATION       0    2

  ZNUC  SCFIT    TOTAL HF ENERGY   KINETIC ENERGY   VIRIAL THEOREM ACCURACY
   6.0     9    -3.766704647E+01  3.775180683E+01 -1.997754800E+00  1.1E-06

 NUCLEAR CHARGE  8.0  SYMMETRY SPECIES            S    P
 N. ELECTRONS    8.0  NUMBER OF PRIMITIVE GTOS    8    4
                      NUMBER OF CONTRACTED GTOS   4    2
                      NUMBER OF CLOSED SHELLS     2    0
                      OPEN SHELL OCCUPATION       0    4

  ZNUC  SCFIT    TOTAL HF ENERGY   KINETIC ENERGY   VIRIAL THEOREM ACCURACY
   8.0    12    -7.477373220E+01  7.477365593E+01 -2.000001020E+00  3.8E-06

 AAAAAAAAAAAAAAAAAAAAAAAAAAAAAAAAAAAAAAAAAAAAAAAAAAAAAAAAAAAAAAAAAAAAAAAAAAAAAAA

 CHARGE NORMALIZATION FACTOR   1.00000000
 TOTAL ATOMIC CHARGES:
   5.0000000   5.0000000   5.0000000   5.0000000   5.0000000   5.0000000
   1.0000000   1.0000000   1.0000000   1.0000000   1.0000000   1.0000000
   1.0000000   1.0000000   1.0000000   1.0000000   1.0000000   1.0000000
   6.0000000   6.0000000   6.0000000   6.0000000   6.0000000   6.0000000
   6.0000000   6.0000000   6.0000000   6.0000000   6.0000000   6.0000000
   6.0000000   6.0000000   6.0000000   6.0000000   6.0000000   6.0000000
   8.0000000   8.0000000   8.0000000   8.0000000   8.0000000   8.0000000
 TTTTTTTTTTTTTTTTTTTTTTTTTTTTTT MOQGAD      TELAPSE        9.13 TCPU       17.68
 TTTTTTTTTTTTTTTTTTTTTTTTTTTTTT SHELLXN     TELAPSE       15.01 TCPU      205.68
 TTTTTTTTTTTTTTTTTTTTTTTTTTTTTT MONMO3      TELAPSE       15.14 TCPU      209.88
 NUMERICALLY INTEGRATED DENSITY    197.9999861927
 TTTTTTTTTTTTTTTTTTTTTTTTTTTTTT NUMDFT      TELAPSE       15.73 TCPU      228.56
 CYC   0 ETOT(AU) -1.295956334671E+03 DETOT -1.30E+03 tst  0.00E+00 PX  1.00E+00
 TTTTTTTTTTTTTTTTTTTTTTTTTTTTTT DIIS        TELAPSE       15.76 TCPU      229.69
 TTTTTTTTTTTTTTTTTTTTTTTTTTTTTT FDIK        TELAPSE       16.25 TCPU      245.30
 INSULATING STATE
 TOP OF VALENCE BANDS -    BAND     99; K    1; EIG -3.1156696E-01 AU
 BOTTOM OF VIRTUAL BANDS - BAND    100; K   17; EIG -1.5715141E-01 AU
 INDIRECT ENERGY BAND GAP:   4.2019 eV
 BOTTOM OF VIRTUAL BANDS - BAND    100; K    1; EIG -1.5700092E-01 AU
 TTTTTTTTTTTTTTTTTTTTTTTTTTTTTT PDIG        TELAPSE       16.58 TCPU      251.47
 CHARGE NORMALIZATION FACTOR   1.00000000
 TOTAL ATOMIC CHARGES:
   4.1520319   4.1641284   4.1644917   4.1639162   4.1636324   4.1512446
   0.7852046   0.7853347   0.7851481   0.7852903   0.7855726   0.7857553
   0.7855571   0.7857057   0.7851499   0.7853581   0.7851561   0.7853263
   6.0433919   6.2658117   6.2658022   6.2653314   6.2653512   6.0428501
   6.0461184   6.2654554   6.2656478   6.2653786   6.2656311   6.0448533
   6.0438016   6.2650834   6.2657190   6.2654228   6.2660873   6.0424050
   8.6940540   8.6942875   8.6938589   8.6945361   8.6943148   8.6948024
 TTTTTTTTTTTTTTTTTTTTTTTTTTTTTT MOQGAD      TELAPSE       16.62 TCPU      251.52
 TTTTTTTTTTTTTTTTTTTTTTTTTTTTTT SHELLXN     TELAPSE       22.74 TCPU      446.70
 TTTTTTTTTTTTTTTTTTTTTTTTTTTTTT MONMO3      TELAPSE       22.87 TCPU      450.89
 NUMERICALLY INTEGRATED DENSITY    198.0000051638
 TTTTTTTTTTTTTTTTTTTTTTTTTTTTTT NUMDFT      TELAPSE       23.46 TCPU      469.80
 CYC   1 ETOT(AU) -1.288813891839E+03 DETOT  7.14E+00 tst  0.00E+00 PX  1.00E+00
 TTTTTTTTTTTTTTTTTTTTTTTTTTTTTT DIIS        TELAPSE       23.51 TCPU      471.34
 DIIS TEST: 0.11133E+01 AT SCF   CYCLE   1 - MIX   30 %
 TTTTTTTTTTTTTTTTTTTTTTTTTTTTTT FDIK        TELAPSE       24.01 TCPU      487.19
 INSULATING STATE
 TOP OF VALENCE BANDS -    BAND     99; K    1; EIG -2.2296136E-01 AU
 BOTTOM OF VIRTUAL BANDS - BAND    100; K    1; EIG -8.2383989E-02 AU
 DIRECT ENERGY BAND GAP:   3.8253 eV
 TTTTTTTTTTTTTTTTTTTTTTTTTTTTTT PDIG        TELAPSE       24.34 TCPU      493.36
 CHARGE NORMALIZATION FACTOR   1.00000000
 TOTAL ATOMIC CHARGES:
   4.7123305   4.7056739   4.7061993   4.7058705   4.7054544   4.7126697
   0.9084083   0.9085209   0.9096740   0.9094828   0.9053806   0.9055485
   0.9054430   0.9054383   0.9095947   0.9095433   0.9084728   0.9085052
   5.8680225   6.1415616   6.1420779   6.1304565   6.1305773   5.8706716
   5.8873847   6.1257235   6.1271517   6.1261720   6.1271269   5.8907260
   5.8680124   6.1304919   6.1307005   6.1419564   6.1414688   5.8705864
   8.3367582   8.3371240   8.3298181   8.3368078   8.3292729   8.3371398
 TTTTTTTTTTTTTTTTTTTTTTTTTTTTTT MOQGAD      TELAPSE       24.38 TCPU      493.40
 TTTTTTTTTTTTTTTTTTTTTTTTTTTTTT SHELLXN     TELAPSE       30.51 TCPU      688.84
 TTTTTTTTTTTTTTTTTTTTTTTTTTTTTT MONMO3      TELAPSE       30.64 TCPU      693.04
 NUMERICALLY INTEGRATED DENSITY    198.0000034187
 TTTTTTTTTTTTTTTTTTTTTTTTTTTTTT NUMDFT      TELAPSE       31.24 TCPU      712.08
 CYC   2 ETOT(AU) -1.289008351152E+03 DETOT -1.94E-01 tst  3.58E-03 PX  1.59E-01
 TTTTTTTTTTTTTTTTTTTTTTTTTTTTTT DIIS        TELAPSE       31.29 TCPU      713.59
 DIIS TEST: 0.46282E+00 AT SCF   CYCLE   2 - DIIS ACTIVE - HISTORY:     2 CYCLES
 TTTTTTTTTTTTTTTTTTTTTTTTTTTTTT FDIK        TELAPSE       31.78 TCPU      729.46
 INSULATING STATE
 TOP OF VALENCE BANDS -    BAND     99; K    1; EIG -2.3621437E-01 AU
 BOTTOM OF VIRTUAL BANDS - BAND    100; K    1; EIG -7.6500989E-02 AU
 DIRECT ENERGY BAND GAP:   4.3460 eV
 TTTTTTTTTTTTTTTTTTTTTTTTTTTTTT PDIG        TELAPSE       32.11 TCPU      735.64
 CHARGE NORMALIZATION FACTOR   1.00000000
 TOTAL ATOMIC CHARGES:
   4.4997095   4.5010042   4.5014205   4.5011648   4.5007085   4.4996102
   0.8871039   0.8873661   0.8881215   0.8879705   0.8834986   0.8839254
   0.8835941   0.8837892   0.8880345   0.8880407   0.8872351   0.8872508
   5.8916510   6.1615532   6.1611065   6.1607577   6.1607819   5.8916896
   5.8921193   6.1627803   6.1624904   6.1627009   6.1626544   5.8906926
   5.8916614   6.1607883   6.1609296   6.1611997   6.1612817   5.8916570
   8.5107340   8.5111243   8.5137198   8.5109951   8.5140182   8.5113650
 TTTTTTTTTTTTTTTTTTTTTTTTTTTTTT MOQGAD      TELAPSE       32.16 TCPU      735.68
 TTTTTTTTTTTTTTTTTTTTTTTTTTTTTT SHELLXN     TELAPSE       38.28 TCPU      930.85
 TTTTTTTTTTTTTTTTTTTTTTTTTTTTTT MONMO3      TELAPSE       38.41 TCPU      935.05
 NUMERICALLY INTEGRATED DENSITY    198.0000039294
 TTTTTTTTTTTTTTTTTTTTTTTTTTTTTT NUMDFT      TELAPSE       39.00 TCPU      953.96
 CYC   3 ETOT(AU) -1.289103748468E+03 DETOT -9.54E-02 tst  6.90E-04 PX  6.49E-02
 TTTTTTTTTTTTTTTTTTTTTTTTTTTTTT DIIS        TELAPSE       39.06 TCPU      955.81
 DIIS TEST: 0.13475E-01 AT SCF   CYCLE   3 - DIIS ACTIVE - HISTORY:     3 CYCLES
 TTTTTTTTTTTTTTTTTTTTTTTTTTTTTT FDIK        TELAPSE       39.56 TCPU      971.69
 INSULATING STATE
 TOP OF VALENCE BANDS -    BAND     99; K    1; EIG -2.4569042E-01 AU
 BOTTOM OF VIRTUAL BANDS - BAND    100; K    1; EIG -8.5215060E-02 AU
 DIRECT ENERGY BAND GAP:   4.3668 eV
 TTTTTTTTTTTTTTTTTTTTTTTTTTTTTT PDIG        TELAPSE       39.88 TCPU      977.87
 CHARGE NORMALIZATION FACTOR   1.00000000
 TOTAL ATOMIC CHARGES:
   4.5057768   4.5057187   4.5061595   4.5057742   4.5052755   4.5056798
   0.8699233   0.8700397   0.8713157   0.8712078   0.8672674   0.8673893
   0.8673199   0.8672915   0.8712721   0.8712611   0.8699765   0.8700137
   5.9385674   6.1713579   6.1718268   6.1642134   6.1644024   5.9401754
   5.9507601   6.1625499   6.1637799   6.1628329   6.1636958   5.9527938
   5.9388166   6.1640959   6.1646650   6.1715193   6.1714826   5.9398850
   8.4807793   8.4810439   8.4750714   8.4809726   8.4748137   8.4812367
 TTTTTTTTTTTTTTTTTTTTTTTTTTTTTT MOQGAD      TELAPSE       39.93 TCPU      977.92
 TTTTTTTTTTTTTTTTTTTTTTTTTTTTTT SHELLXN     TELAPSE       46.06 TCPU     1173.25
 TTTTTTTTTTTTTTTTTTTTTTTTTTTTTT MONMO3      TELAPSE       46.19 TCPU     1177.45
 NUMERICALLY INTEGRATED DENSITY    198.0000039074
 TTTTTTTTTTTTTTTTTTTTTTTTTTTTTT NUMDFT      TELAPSE       46.78 TCPU     1196.31
 CYC   4 ETOT(AU) -1.289106584005E+03 DETOT -2.84E-03 tst  3.16E-05 PX  1.34E-02
 TTTTTTTTTTTTTTTTTTTTTTTTTTTTTT DIIS        TELAPSE       46.84 TCPU     1198.23
 DIIS TEST: 0.39535E-02 AT SCF   CYCLE   4 - DIIS ACTIVE - HISTORY:     4 CYCLES
 TTTTTTTTTTTTTTTTTTTTTTTTTTTTTT FDIK        TELAPSE       47.34 TCPU     1214.06
 INSULATING STATE
 TOP OF VALENCE BANDS -    BAND     99; K    1; EIG -2.4397296E-01 AU
 BOTTOM OF VIRTUAL BANDS - BAND    100; K    1; EIG -8.4896998E-02 AU
 DIRECT ENERGY BAND GAP:   4.3287 eV
 TTTTTTTTTTTTTTTTTTTTTTTTTTTTTT PDIG        TELAPSE       47.66 TCPU     1220.24
 CHARGE NORMALIZATION FACTOR   1.00000000
 TOTAL ATOMIC CHARGES:
   4.5092335   4.5076106   4.5080728   4.5078063   4.5073204   4.5092506
   0.8730680   0.8732898   0.8742313   0.8741082   0.8698097   0.8701517
   0.8698922   0.8700269   0.8741569   0.8741768   0.8731748   0.8732102
   5.9211841   6.1702671   6.1700393   6.1655386   6.1654995   5.9216694
   5.9291082   6.1653504   6.1654231   6.1653605   6.1655848   5.9286951
   5.9211633   6.1655430   6.1656670   6.1700500   6.1700668   5.9216380
   8.4888940   8.4892809   8.4883817   8.4890940   8.4884404   8.4894700
 TTTTTTTTTTTTTTTTTTTTTTTTTTTTTT MOQGAD      TELAPSE       47.71 TCPU     1220.28
 TTTTTTTTTTTTTTTTTTTTTTTTTTTTTT SHELLXN     TELAPSE       53.83 TCPU     1415.47
 TTTTTTTTTTTTTTTTTTTTTTTTTTTTTT MONMO3      TELAPSE       53.96 TCPU     1419.67
 NUMERICALLY INTEGRATED DENSITY    198.0000039672
 TTTTTTTTTTTTTTTTTTTTTTTTTTTTTT NUMDFT      TELAPSE       54.55 TCPU     1438.57
 CYC   5 ETOT(AU) -1.289107490322E+03 DETOT -9.06E-04 tst  7.07E-06 PX  6.77E-03
 TTTTTTTTTTTTTTTTTTTTTTTTTTTTTT DIIS        TELAPSE       54.62 TCPU     1440.78
 DIIS TEST: 0.67604E-04 AT SCF   CYCLE   5 - DIIS ACTIVE - HISTORY:     5 CYCLES
 TTTTTTTTTTTTTTTTTTTTTTTTTTTTTT FDIK        TELAPSE       55.12 TCPU     1456.64
 INSULATING STATE
 TOP OF VALENCE BANDS -    BAND     99; K    1; EIG -2.4380545E-01 AU
 BOTTOM OF VIRTUAL BANDS - BAND    100; K    1; EIG -8.4313536E-02 AU
 DIRECT ENERGY BAND GAP:   4.3400 eV
 TTTTTTTTTTTTTTTTTTTTTTTTTTTTTT PDIG        TELAPSE       55.44 TCPU     1462.82
 CHARGE NORMALIZATION FACTOR   1.00000000
 TOTAL ATOMIC CHARGES:
   4.5082005   4.5078250   4.5082663   4.5078932   4.5074184   4.5080769
   0.8739454   0.8740894   0.8750897   0.8749459   0.8708378   0.8710171
   0.8708896   0.8709233   0.8750285   0.8750005   0.8740092   0.8740518
   5.9208496   6.1697499   6.1700360   6.1647547   6.1650158   5.9221649
   5.9279847   6.1644009   6.1654243   6.1646545   6.1653341   5.9292821
   5.9211000   6.1646856   6.1652510   6.1698242   6.1697761   5.9218716
   8.4892296   8.4894961   8.4862589   8.4894584   8.4861702   8.4897181
 TTTTTTTTTTTTTTTTTTTTTTTTTTTTTT MOQGAD      TELAPSE       55.49 TCPU     1462.86
 TTTTTTTTTTTTTTTTTTTTTTTTTTTTTT SHELLXN     TELAPSE       61.62 TCPU     1658.27
 TTTTTTTTTTTTTTTTTTTTTTTTTTTTTT MONMO3      TELAPSE       61.75 TCPU     1662.48
 NUMERICALLY INTEGRATED DENSITY    198.0000039546
 TTTTTTTTTTTTTTTTTTTTTTTTTTTTTT NUMDFT      TELAPSE       62.34 TCPU     1681.37
 CYC   6 ETOT(AU) -1.289107508763E+03 DETOT -1.84E-05 tst  1.86E-07 PX  1.25E-03
 TTTTTTTTTTTTTTTTTTTTTTTTTTTTTT DIIS        TELAPSE       62.41 TCPU     1683.65
 DIIS TEST: 0.81314E-05 AT SCF   CYCLE   6 - DIIS ACTIVE - HISTORY:     6 CYCLES
 TTTTTTTTTTTTTTTTTTTTTTTTTTTTTT FDIK        TELAPSE       62.91 TCPU     1699.36
 INSULATING STATE
 TOP OF VALENCE BANDS -    BAND     99; K    1; EIG -2.4379849E-01 AU
 BOTTOM OF VIRTUAL BANDS - BAND    100; K    1; EIG -8.4407873E-02 AU
 DIRECT ENERGY BAND GAP:   4.3372 eV
 TTTTTTTTTTTTTTTTTTTTTTTTTTTTTT PDIG        TELAPSE       63.23 TCPU     1705.54
 CHARGE NORMALIZATION FACTOR   1.00000000
 TOTAL ATOMIC CHARGES:
   4.5087600   4.5076683   4.5081221   4.5078540   4.5073682   4.5087504
   0.8739086   0.8741156   0.8750893   0.8749692   0.8706912   0.8710202
   0.8707751   0.8708933   0.8750188   0.8750333   0.8740130   0.8740380
   5.9213432   6.1696406   6.1694906   6.1648311   6.1647863   5.9219109
   5.9293264   6.1645818   6.1647245   6.1645907   6.1648844   5.9291459
   5.9213304   6.1648123   6.1649745   6.1694448   6.1694990   5.9218774
   8.4886528   8.4890361   8.4874616   8.4888554   8.4874804   8.4892301
 TTTTTTTTTTTTTTTTTTTTTTTTTTTTTT MOQGAD      TELAPSE       63.28 TCPU     1705.58
 TTTTTTTTTTTTTTTTTTTTTTTTTTTTTT SHELLXN     TELAPSE       69.41 TCPU     1900.92
 TTTTTTTTTTTTTTTTTTTTTTTTTTTTTT MONMO3      TELAPSE       69.54 TCPU     1905.12
 NUMERICALLY INTEGRATED DENSITY    198.0000039564
 TTTTTTTTTTTTTTTTTTTTTTTTTTTTTT NUMDFT      TELAPSE       70.13 TCPU     1924.05
 CYC   7 ETOT(AU) -1.289107509892E+03 DETOT -1.13E-06 tst  2.28E-08 PX  5.07E-04
 TTTTTTTTTTTTTTTTTTTTTTTTTTTTTT DIIS        TELAPSE       70.21 TCPU     1926.65
 DIIS TEST: 0.12502E-05 AT SCF   CYCLE   7 - DIIS ACTIVE - HISTORY:     7 CYCLES
 TTTTTTTTTTTTTTTTTTTTTTTTTTTTTT FDIK        TELAPSE       70.71 TCPU     1942.55
 INSULATING STATE
 TOP OF VALENCE BANDS -    BAND     99; K    1; EIG -2.4380488E-01 AU
 BOTTOM OF VIRTUAL BANDS - BAND    100; K    1; EIG -8.4416775E-02 AU
 DIRECT ENERGY BAND GAP:   4.3372 eV
 TTTTTTTTTTTTTTTTTTTTTTTTTTTTTT PDIG        TELAPSE       71.04 TCPU     1948.73
 CHARGE NORMALIZATION FACTOR   1.00000000
 TOTAL ATOMIC CHARGES:
   4.5087481   4.5077790   4.5082287   4.5079064   4.5074256   4.5086930
   0.8738862   0.8740682   0.8750610   0.8749241   0.8707064   0.8709619
   0.8707716   0.8708541   0.8749927   0.8749863   0.8739706   0.8740106
   5.9210881   6.1696679   6.1697067   6.1647352   6.1648649   5.9220221
   5.9287811   6.1644284   6.1650094   6.1645778   6.1650285   5.9292670
   5.9212216   6.1647058   6.1650627   6.1696095   6.1695777   5.9218426
   8.4888871   8.4892075   8.4871200   8.4890997   8.4871031   8.4894113
 TTTTTTTTTTTTTTTTTTTTTTTTTTTTTT MOQGAD      TELAPSE       71.08 TCPU     1948.78
 TTTTTTTTTTTTTTTTTTTTTTTTTTTTTT SHELLXN     TELAPSE       77.21 TCPU     2144.17
 TTTTTTTTTTTTTTTTTTTTTTTTTTTTTT MONMO3      TELAPSE       77.34 TCPU     2148.37
 NUMERICALLY INTEGRATED DENSITY    198.0000039558
 TTTTTTTTTTTTTTTTTTTTTTTTTTTTTT NUMDFT      TELAPSE       77.93 TCPU     2167.26
 CYC   8 ETOT(AU) -1.289107510076E+03 DETOT -1.84E-07 tst  2.41E-09 PX  1.35E-04
 TTTTTTTTTTTTTTTTTTTTTTTTTTTTTT DIIS        TELAPSE       78.01 TCPU     2169.87
 DIIS TEST: 0.45637E-07 AT SCF   CYCLE   8 - DIIS ACTIVE - HISTORY:     8 CYCLES
 TTTTTTTTTTTTTTTTTTTTTTTTTTTTTT FDIK        TELAPSE       78.51 TCPU     2185.59
 INSULATING STATE
 TOP OF VALENCE BANDS -    BAND     99; K    1; EIG -2.4380867E-01 AU
 BOTTOM OF VIRTUAL BANDS - BAND    100; K    1; EIG -8.4408670E-02 AU
 DIRECT ENERGY BAND GAP:   4.3375 eV
 TTTTTTTTTTTTTTTTTTTTTTTTTTTTTT PDIG        TELAPSE       78.83 TCPU     2191.77
 CHARGE NORMALIZATION FACTOR   1.00000000
 TOTAL ATOMIC CHARGES:
   4.5087015   4.5077613   4.5082123   4.5079105   4.5074278   4.5086587
   0.8738805   0.8740680   0.8750485   0.8749225   0.8706868   0.8709705
   0.8707622   0.8708526   0.8749816   0.8749830   0.8739729   0.8740022
   5.9211614   6.1696894   6.1696734   6.1648185   6.1648604   5.9219492
   5.9288498   6.1645562   6.1649626   6.1646311   6.1650550   5.9291218
   5.9212198   6.1647810   6.1650665   6.1695724   6.1696034   5.9218448
   8.4888564   8.4892070   8.4871264   8.4890681   8.4871110   8.4894105
 TTTTTTTTTTTTTTTTTTTTTTTTTTTTTT MOQGAD      TELAPSE       78.88 TCPU     2191.82
 TTTTTTTTTTTTTTTTTTTTTTTTTTTTTT SHELLXN     TELAPSE       85.01 TCPU     2387.17
 +++ ENERGIES IN A.U. +++
 ::: EXT EL-POLE                                  -1.3471679345196E+03
 ::: EXT EL-SPHEROPOLE                             1.4664532252596E+01
 ::: BIELET ZONE E-E                               2.0297412498670E+03
 ::: TOTAL E-E                                     6.9723784760004E+02
 ::: TOTAL E-N + N-E                              -3.2234483905895E+03
 ::: TOTAL N-N                                     9.0878904094548E+01
 ::: KINETIC ENERGY                                1.2799424830608E+03
 ::: PSEUDO TOTAL   ENERGY                        -1.1553891558341E+03
 ::: VIRIAL COEFFICIENT                            1.0511442980650E+00
 TTTTTTTTTTTTTTTTTTTTTTTTTTTTTT MONMO3      TELAPSE       85.14 TCPU     2391.36
 NUMERICALLY INTEGRATED DENSITY    198.0000039554
 EXCHANGE ENERGY: -0.126027972423E+03  CORRELATION ENERGY: -0.769038188338E+01
 TTTTTTTTTTTTTTTTTTTTTTTTTTTTTT NUMDFT      TELAPSE       85.73 TCPU     2410.30
 CYC   9 ETOT(AU) -1.289107510140E+03 DETOT -6.47E-08 tst  2.53E-10 PX  1.35E-04

 == SCF ENDED - CONVERGENCE ON ENERGY      E(AU) -1.2891075101404E+03 CYCLES   9


 ENERGY EXPRESSION=HARTREE+FOCK EXCH*0.00000+(HSESOL     EXCH)*1.00000+PBESOL     CORR


 TOTAL ENERGY(DFT)(AU)(  9) -1.2891075101404E+03 DE-6.5E-08 tester 2.5E-10
 TTTTTTTTTTTTTTTTTTTTTTTTTTTTTT EDFT        TELAPSE       85.73 TCPU     2410.31
 
 INFORMATION **** DFTD3 ENERGY **** CALCULATE DFTD3 ENERGY

           DFT-D V3(BJ)
 DF                                         hsesol3c  
 parameters
 s6       :    1.0000
 s8       :    0.0000
 a1       :    0.5196
 a2       :    4.9385
 k1 k3    :   16.0000   -4.0000
 Cutoff   :   50.2022
 CN-Cutoff:   21.1671
 ABC-Cutoff:   21.1671
 
 Edisp /kcal,au:   -23.7089 -0.03778249

 E6    /kcal :   -24.9593
 E8    /kcal :     0.0000
 E6(ABC) "   :   1.250395
 
 INFORMATION **** DFTD3 ENERGY **** NORMAL TERMINATION OF DFTD3 MODULE

 GCP ENERGY CALCULATION
  level        hsesol3c            basis:hsesol3c
  Nbf            474
  Atoms           42

  Parameters: 
  sigma     1.0000
  eta       1.4281
  alpha     0.2936
  beta      1.9467

  dmp_scal      4.0000
  dmp_exp       6.0000
 cutoffs: 
   distance [bohr] 60.0
   noise    [a.u.] 2.2E-16
 SR-damping   T
 ** gCP correction **
  Egcp:        0.0829739771 / (a.u.) ||      52.0670 / (kcal/mol)
 INFORMATION **** GCP **** NORMAL TERMINATION OF GCP MODULE

 *******************************************************************************

 DFT-D3-GCP DISPERSION AND COUNTERPOISE CORRECTION

 D3 DISPERSION ENERGY (AU)      -3.7782492482976E-02
 GCP ENERGY (AU)                 8.2973977052091E-02
 TOTAL ENERGY + DISP + GCP (AU) -1.2890623186559E+03

 *******************************************************************************

 EIGENVECTORS IN FORTRAN UNIT 10
 TTTTTTTTTTTTTTTTTTTTTTTTTTTTTT END         TELAPSE       87.12 TCPU     2417.68
 EEEEEEEEEE TERMINATION  DATE 19 02 2026 TIME 19:05:09.9
