 Default number of threads is:           32

         
 *******************************************************************************
 *                                                                             *
 *                               CRYSTAL23                                     *
 *                      public : 1.0.1 - October 2022                          *
 *                       HTTP://WWW.CRYSTAL.UNITO.IT                           *
 *                                                                             *
 *                              MAIN AUTHORS                                   *
 *                                                                             *
 *  R. DOVESI(1,11), V.R. SAUNDERS(2), C. ROETTI(1,11), R. ORLANDO(1,11),      *
 *  C.M. ZICOVICH-WILSON(1,3), F. PASCALE(4), B. CIVALLERI(1,11),              *
 *  K. DOLL(5), N.M. HARRISON(6), I.J. BUSH(7), Ph. D'ARCO(8),                 *
 *  M. LLUNELL(9), M. CAUSA'(10), Y. NOEL(8), L. MASCHIO(1,11), A. ERBA(1,11)  *
 *  M. RE'RAT(14), S. CASASSA(1,11), B.G. SEARLE(2), J.K. DESMARAIS(1)         *
 *                                                                             *
 *        CONTRIBUTIONS TO THE CODE HAVE ALSO BEEN GIVEN BY                    *
 *                                                                             *
 *  M. FERRABONE(1,11), M. DE LA PIERRE(1,11), M. FERRERO(1,11),               *
 *  J. BAIMA(1,11), E. ALBANESE(1,11), M.F. PEINTINGER(12), R. BAST(13),       *
 *  B. KIRTMAN(15), V. LACIVITA(1,11), R. DEMICHELIS(1,16)                     *
 *  G. BRANDEBURG(17), S. SALUSTRO(1,11), G. SANSONE(1,11)                     *
 *  M.T. RUGGIERO(18), L.E. DAGA(1), L. DONA'(1), A. COSSARD(1)                *
 *                                                                             *
 * (1) THEORETICAL CHEMISTRY GROUP - UNIVERSITA' DI TORINO - TORINO (ITALY)    *
 * (2) SCIENTIFIC COMPUTING DEPARTMENT - STFC DARESBURY (UK)                   *
 * (3) UNIVERSIDAD AUTONOMA DEL ESTADO DE MORELOS - CUERNAVACA (MEXICO)        *
 * (4) UNIVERSITE' DE LORRAINE - NANCY (FRANCE)                                *
 * (5) UNIVERSITAET STUTTGART- STUTTGART (GERMANY)                             *
 * (6) IMPERIAL COLLEGE - LONDON (UK)                                          *
 * (7) SCIENTIFIC COMPUTING DEPARTMENT - STFC RAL (UK)                         *
 * (8) UPMC - SORBONNE UNIVERSITES - PARIS (FRANCE)                            *
 * (9) UNIVERSIDAD DE BARCELONA - BARCELONA (SPAIN)                            *
 *(10) UNIVERSITA' DI NAPOLI "FEDERICO II" - NAPOLI (ITALY)                    *
 *(11) NIS - NANOSTRUCTURED INTERFACES AND SURFACES - TORINO (ITALY)           *
 *(12) MPI FUER CHEMISCHE ENERGIEKONVERSION - MUELHEIM AN DER RUHR (GERMANY)   *
 *(13) UNIVERSITY OF TROMSO - TROMSO (NORWAY)                                  *
 *(14) UNIVERSITE' DE PAU ET DES PAYS DE L'ADOUR - PAU (FRANCE)                *
 *(15) UNIVERSITY OF CALIFORNIA SANTA BARBARA - SANTA BARBARA (USA)            *
 *(16) CURTIN UNIVERSITY - PERTH (AUSTRALIA)                                   *
 *(17) UNIVERSITY COLLEGE LONDON - LONDON (UK)                                 *
 *(18) UNIVERSITY OF VERMONT - BURLINGTON (USA)                                *
 *                                                                             *
 *******************************************************************************
 EEEEEEEEEE STARTING  DATE 19 02 2026 TIME 17:50:12.5
 cof-1_z31_L020_incl                                                             

 CRYSTAL CALCULATION
 (INPUT ACCORDING TO THE INTERNATIONAL TABLES FOR X-RAY CRYSTALLOGRAPHY)
 CRYSTAL FAMILY                       :  TRICLINIC   
 CRYSTAL CLASS  (GROTH - 1921)        :  TRICLINIC PEDIAL                     

 SPACE GROUP (NONCENTROSYMMETRIC)     :  P 1             

 LATTICE PARAMETERS  (ANGSTROMS AND DEGREES) - CONVENTIONAL CELL
        A           B           C        ALPHA        BETA       GAMMA
    15.02361    15.02392     3.68917    61.99751    89.99995   119.99596


 NUMBER OF IRREDUCIBLE ATOMS IN THE CONVENTIONAL CELL:   42

 INPUT COORDINATES

 ATOM AT. N.              COORDINATES
   1   5     5.751390000000E-01  1.502273000000E-01  5.015389600000E-01
   2   5     7.341946600000E-01  3.092869600000E-01  5.015389800000E-01
   3   5     5.753836900000E-01  3.097677200000E-01  4.982992500000E-01
   4   5     1.887137100000E-01  5.365423000000E-01  5.015389700000E-01
   5   5     3.478216800000E-01  5.365215300000E-01  5.015389600000E-01
   6   5     3.480509200000E-01  6.961587000000E-01  4.982992500000E-01
   7   1     8.650182300000E-01  2.328715300000E-01  4.948223700000E-01
   8   1     5.868806000000E-02  6.151527900000E-01  4.937952900000E-01
   9   1     8.650371000000E-01  5.181960800000E-01  4.936372200000E-01
  10   1     5.879883000000E-02  3.298025300000E-01  4.936766400000E-01
  11   1     6.522115300000E-01  1.935449000000E-02  5.051738500000E-01
  12   1     2.700299200000E-01  8.256297900000E-01  5.062010000000E-01
  13   1     3.669580300000E-01  1.921815000000E-02  5.063591700000E-01
  14   1     5.554033000000E-01  8.255216000000E-01  5.063194700000E-01
  15   1     6.530473400000E-01  5.179956800000E-01  4.948224300000E-01
  16   1     2.710153700000E-01  3.297086900000E-01  4.937952200000E-01
  17   1     3.679062600000E-01  2.329469200000E-01  4.936370900000E-01
  18   1     5.563535200000E-01  6.150755000000E-01  4.936767700000E-01
  19   6     8.536068400000E-01  3.693689600000E-01  4.981807000000E-01
  20   6     9.084515700000E-01  3.167028100000E-01  4.949804400000E-01
  21   6     1.537182000000E-02  5.311449800000E-01  4.947039700000E-01
  22   6     9.083720600000E-01  4.775243400000E-01  4.955336500000E-01
  23   6     1.551024000000E-02  3.704100700000E-01  4.934000800000E-01
  24   6     6.995280000000E-02  4.778617100000E-01  4.955731200000E-01
  25   6     5.154766200000E-01  3.103503000000E-02  5.018155500000E-01
  26   6     5.683691300000E-01 -2.406939000000E-02  5.050157700000E-01
  27   6     3.539686900000E-01  8.689953100000E-01  5.052923400000E-01
  28   6     4.075213600000E-01 -2.393746000000E-02  5.044626800000E-01
  29   6     5.147866900000E-01  8.687553200000E-01  5.065960900000E-01
  30   6     4.071647300000E-01  8.144578200000E-01  5.044231200000E-01
  31   6     5.157614000000E-01  3.692998200000E-01  4.981807000000E-01
  32   6     5.691726700000E-01  4.775429500000E-01  4.949805000000E-01
  33   6     3.548070800000E-01  3.701317200000E-01  4.947039100000E-01
  34   6     4.082072100000E-01  3.165221500000E-01  4.955335600000E-01
  35   6     5.158268600000E-01  5.312580900000E-01  4.934001600000E-01
  36   6     4.078768900000E-01  4.777843100000E-01  4.955731200000E-01
  37   8     5.223773100000E-01  2.036440800000E-01  4.991684300000E-01
  38   8     6.807970800000E-01  2.026011800000E-01  5.060034600000E-01
  39   8     6.815872200000E-01  3.631313200000E-01  4.956916800000E-01
  40   8     2.419651300000E-01  6.429245600000E-01  4.991684700000E-01
  41   8     2.414593500000E-01  4.829184600000E-01  5.060034600000E-01
  42   8     4.011716400000E-01  6.434432800000E-01  4.956916500000E-01

 *******************************************************************************

 << INFORMATION >>: FROM NOW ON, ALL COORDINATES REFER TO THE PRIMITIVE CELL

 *******************************************************************************

 LATTICE PARAMETERS  (ANGSTROMS AND DEGREES) - PRIMITIVE CELL
       A          B          C        ALPHA      BETA     GAMMA        VOLUME
   15.02361   15.02392    3.68917    61.99751  89.99995 119.99596    605.995067

 COORDINATES OF THE EQUIVALENT ATOMS (FRACTIONAL UNITS)

 N. ATOM EQUIV AT. N.          X                  Y                  Z

   1   1   1    5 B    -4.24861000000E-01  1.50227300000E-01 -4.98461040000E-01

   2   2   1    5 B    -2.65805340000E-01  3.09286960000E-01 -4.98461020000E-01

   3   3   1    5 B    -4.24616310000E-01  3.09767720000E-01  4.98299250000E-01

   4   4   1    5 B     1.88713710000E-01 -4.63457700000E-01 -4.98461030000E-01

   5   5   1    5 B     3.47821680000E-01 -4.63478470000E-01 -4.98461040000E-01

   6   6   1    5 B     3.48050920000E-01 -3.03841300000E-01  4.98299250000E-01

   7   7   1    1 H    -1.34981770000E-01  2.32871530000E-01  4.94822370000E-01

   8   8   1    1 H     5.86880600000E-02 -3.84847210000E-01  4.93795290000E-01

   9   9   1    1 H    -1.34962900000E-01 -4.81803920000E-01  4.93637220000E-01

  10  10   1    1 H     5.87988300000E-02  3.29802530000E-01  4.93676640000E-01

  11  11   1    1 H    -3.47788470000E-01  1.93544900000E-02 -4.94826150000E-01

  12  12   1    1 H     2.70029920000E-01 -1.74370210000E-01 -4.93799000000E-01

  13  13   1    1 H     3.66958030000E-01  1.92181500000E-02 -4.93640830000E-01

  14  14   1    1 H    -4.44596700000E-01 -1.74478400000E-01 -4.93680530000E-01

  15  15   1    1 H    -3.46952660000E-01 -4.82004320000E-01  4.94822430000E-01

  16  16   1    1 H     2.71015370000E-01  3.29708690000E-01  4.93795220000E-01

  17  17   1    1 H     3.67906260000E-01  2.32946920000E-01  4.93637090000E-01

  18  18   1    1 H    -4.43646480000E-01 -3.84924500000E-01  4.93676770000E-01

  19  19   1    6 C    -1.46393160000E-01  3.69368960000E-01  4.98180700000E-01

  20  20   1    6 C    -9.15484300000E-02  3.16702810000E-01  4.94980440000E-01

  21  21   1    6 C     1.53718200000E-02 -4.68855020000E-01  4.94703970000E-01

  22  22   1    6 C    -9.16279400000E-02  4.77524340000E-01  4.95533650000E-01

  23  23   1    6 C     1.55102400000E-02  3.70410070000E-01  4.93400080000E-01

  24  24   1    6 C     6.99528000000E-02  4.77861710000E-01  4.95573120000E-01

  25  25   1    6 C    -4.84523380000E-01  3.10350300000E-02 -4.98184450000E-01

  26  26   1    6 C    -4.31630870000E-01 -2.40693900000E-02 -4.94984230000E-01

  27  27   1    6 C     3.53968690000E-01 -1.31004690000E-01 -4.94707660000E-01

  28  28   1    6 C     4.07521360000E-01 -2.39374600000E-02 -4.95537320000E-01

  29  29   1    6 C    -4.85213310000E-01 -1.31244680000E-01 -4.93403910000E-01

  30  30   1    6 C     4.07164730000E-01 -1.85542180000E-01 -4.95576880000E-01

  31  31   1    6 C    -4.84238600000E-01  3.69299820000E-01  4.98180700000E-01

  32  32   1    6 C    -4.30827330000E-01  4.77542950000E-01  4.94980500000E-01

  33  33   1    6 C     3.54807080000E-01  3.70131720000E-01  4.94703910000E-01

  34  34   1    6 C     4.08207210000E-01  3.16522150000E-01  4.95533560000E-01

  35  35   1    6 C    -4.84173140000E-01 -4.68741910000E-01  4.93400160000E-01

  36  36   1    6 C     4.07876890000E-01  4.77784310000E-01  4.95573120000E-01

  37  37   1    8 O    -4.77622690000E-01  2.03644080000E-01  4.99168430000E-01

  38  38   1    8 O    -3.19202920000E-01  2.02601180000E-01 -4.93996540000E-01

  39  39   1    8 O    -3.18412780000E-01  3.63131320000E-01  4.95691680000E-01

  40  40   1    8 O     2.41965130000E-01 -3.57075440000E-01  4.99168470000E-01

  41  41   1    8 O     2.41459350000E-01  4.82918460000E-01 -4.93996540000E-01

  42  42   1    8 O     4.01171640000E-01 -3.56556720000E-01  4.95691650000E-01

 NUMBER OF SYMMETRY OPERATORS         :    1
 *******************************************************************************
 * GEOMETRY EDITING - INPUT COORDINATES ARE GIVEN IN ANGSTROM         
 *******************************************************************************

 GCALCO - MAX INDICES DIRECT LATTICE VECTOR     8    10    35
 NO.OF VECTORS CREATED 6999 STARS 3500 RMAX   189.81835 BOHR

 GEOMETRY FOR WAVE FUNCTION - DIMENSIONALITY OF THE SYSTEM    3
 (NON PERIODIC DIRECTION: LATTICE PARAMETER FORMALLY SET TO 500)
 *******************************************************************************
 LATTICE PARAMETERS (ANGSTROMS AND DEGREES) - BOHR = 0.5291772083 ANGSTROM
 PRIMITIVE CELL - CENTRING CODE 1/0 VOLUME=   605.995067 - DENSITY  1.069 g/cm^3
         A              B              C           ALPHA      BETA       GAMMA 
    15.02361100    15.02391600     3.68917300    61.997506  89.999953 119.995964
 *******************************************************************************
 ATOMS IN THE ASYMMETRIC UNIT   42 - ATOMS IN THE UNIT CELL:   42
     ATOM                 X/A                 Y/B                 Z/C    
 *******************************************************************************
      1 T   5 B    -4.248610000000E-01  1.502273000000E-01 -4.984610400000E-01
      2 T   5 B    -2.658053400000E-01  3.092869600000E-01 -4.984610200000E-01
      3 T   5 B    -4.246163100000E-01  3.097677200000E-01  4.982992500000E-01
      4 T   5 B     1.887137100000E-01 -4.634577000000E-01 -4.984610300000E-01
      5 T   5 B     3.478216800000E-01 -4.634784700000E-01 -4.984610400000E-01
      6 T   5 B     3.480509200000E-01 -3.038413000000E-01  4.982992500000E-01
      7 T   1 H    -1.349817700000E-01  2.328715300000E-01  4.948223700000E-01
      8 T   1 H     5.868806000000E-02 -3.848472100000E-01  4.937952900000E-01
      9 T   1 H    -1.349629000000E-01 -4.818039200000E-01  4.936372200000E-01
     10 T   1 H     5.879883000000E-02  3.298025300000E-01  4.936766400000E-01
     11 T   1 H    -3.477884700000E-01  1.935449000000E-02 -4.948261500000E-01
     12 T   1 H     2.700299200000E-01 -1.743702100000E-01 -4.937990000000E-01
     13 T   1 H     3.669580300000E-01  1.921815000000E-02 -4.936408300000E-01
     14 T   1 H    -4.445967000000E-01 -1.744784000000E-01 -4.936805300000E-01
     15 T   1 H    -3.469526600000E-01 -4.820043200000E-01  4.948224300000E-01
     16 T   1 H     2.710153700000E-01  3.297086900000E-01  4.937952200000E-01
     17 T   1 H     3.679062600000E-01  2.329469200000E-01  4.936370900000E-01
     18 T   1 H    -4.436464800000E-01 -3.849245000000E-01  4.936767700000E-01
     19 T   6 C    -1.463931600000E-01  3.693689600000E-01  4.981807000000E-01
     20 T   6 C    -9.154843000000E-02  3.167028100000E-01  4.949804400000E-01
     21 T   6 C     1.537182000000E-02 -4.688550200000E-01  4.947039700000E-01
     22 T   6 C    -9.162794000000E-02  4.775243400000E-01  4.955336500000E-01
     23 T   6 C     1.551024000000E-02  3.704100700000E-01  4.934000800000E-01
     24 T   6 C     6.995280000000E-02  4.778617100000E-01  4.955731200000E-01
     25 T   6 C    -4.845233800000E-01  3.103503000000E-02 -4.981844500000E-01
     26 T   6 C    -4.316308700000E-01 -2.406939000000E-02 -4.949842300000E-01
     27 T   6 C     3.539686900000E-01 -1.310046900000E-01 -4.947076600000E-01
     28 T   6 C     4.075213600000E-01 -2.393746000000E-02 -4.955373200000E-01
     29 T   6 C    -4.852133100000E-01 -1.312446800000E-01 -4.934039100000E-01
     30 T   6 C     4.071647300000E-01 -1.855421800000E-01 -4.955768800000E-01
     31 T   6 C    -4.842386000000E-01  3.692998200000E-01  4.981807000000E-01
     32 T   6 C    -4.308273300000E-01  4.775429500000E-01  4.949805000000E-01
     33 T   6 C     3.548070800000E-01  3.701317200000E-01  4.947039100000E-01
     34 T   6 C     4.082072100000E-01  3.165221500000E-01  4.955335600000E-01
     35 T   6 C    -4.841731400000E-01 -4.687419100000E-01  4.934001600000E-01
     36 T   6 C     4.078768900000E-01  4.777843100000E-01  4.955731200000E-01
     37 T   8 O    -4.776226900000E-01  2.036440800000E-01  4.991684300000E-01
     38 T   8 O    -3.192029200000E-01  2.026011800000E-01 -4.939965400000E-01
     39 T   8 O    -3.184127800000E-01  3.631313200000E-01  4.956916800000E-01
     40 T   8 O     2.419651300000E-01 -3.570754400000E-01  4.991684700000E-01
     41 T   8 O     2.414593500000E-01  4.829184600000E-01 -4.939965400000E-01
     42 T   8 O     4.011716400000E-01 -3.565567200000E-01  4.956916500000E-01

 T = ATOM BELONGING TO THE ASYMMETRIC UNIT

 ****    1 SYMMOPS - TRANSLATORS IN FRACTIONAL UNITS
 **** MATRICES AND TRANSLATORS IN THE CRYSTALLOGRAPHIC REFERENCE FRAME
   V INV                    ROTATION MATRICES                   TRANSLATORS
   1   1  1.00  0.00  0.00  0.00  1.00  0.00 -0.00 -0.00  1.00  0.00  0.00  0.00

 DIRECT LATTICE VECTORS CARTESIAN COMPONENTS (ANGSTROM)
          X                    Y                    Z
   0.130113578931E+02  -0.751088897922E+01   0.000000000000E+00
   0.000000000000E+00   0.150239160000E+02   0.000000000000E+00
   0.999871297708E+00   0.173210359950E+01   0.310001160200E+01


 CARTESIAN COORDINATES - PRIMITIVE CELL
 *******************************************************************************
 *      ATOM          X(ANGSTROM)         Y(ANGSTROM)         Z(ANGSTROM)
 *******************************************************************************
    1     5 B    -6.026415412724E+00  4.584699977112E+00 -1.545235007147E+00
    2     5 B    -3.956885275550E+00  5.779749578807E+00 -1.545234945146E+00
    3     5 B     6.984886936454E+00 -5.367164861962E-01 -1.555278145734E+00
    4     5 B     9.571534455054E-01  4.048068977210E+00 -4.645246578150E+00
    5     5 B     3.027364176814E+00  2.852714614776E+00 -4.645246609150E+00
    6     5 B     4.026978905164E+00  6.975860337289E+00 -1.555278145734E+00
    7     1 H    -2.261408730989E+00  3.637455402891E+00 -1.566056514073E+00
    8     1 H     1.257343090124E+00 -5.367407059716E+00  1.530771128015E+00
    9     1 H    -1.262476906426E+00 -5.369859458729E+00  1.530281109181E+00
   10     1 H     2.587944257999E-01  3.636289508704E+00 -1.569608290365E+00
   11     1 H    -5.019962718989E+00  2.045890662864E+00 -1.533966805975E+00
   12     1 H     4.019591781725E+00 -3.771095563960E+00  1.569228972946E+00
   13     1 H     4.281044962767E+00 -3.322486210589E+00 -1.530292300223E+00
   14     1 H    -5.278552476248E+00  1.594965405294E+00  1.569596231320E+00
   15     1 H    -4.019566485989E+00 -3.778585792898E+00  1.533955273931E+00
   16     1 H     3.020138343305E+00  2.041150185778E+00 -1.569240690990E+00
   17     1 H     4.280662280023E+00 -1.406011341433E-01 -1.569730895824E+00
   18     1 H    -5.278829896607E+00 -1.595794586736E+00  1.530403714640E+00
   19     6 C    -2.406528512561E+00  5.779707984297E+00 -1.555645652109E+00
   20     6 C    -1.696123950103E+00  4.570980310663E+00 -1.565566495239E+00
   21     6 C     6.946485519529E-01 -6.302615942964E+00  1.533588046557E+00
   22     6 C     3.031372510481E-01 -4.571003924815E+00  4.636171666186E+00
   23     6 C    -3.047254357820E-01  4.571030541616E+00 -1.570465629574E+00
   24     6 C     4.058189573170E-01  5.780226861540E+00 -1.563729180362E+00
   25     6 C     6.208930455804E+00 -4.268327059483E+00 -1.544377574938E+00
   26     6 C    -5.111152953948E+00  3.755054684062E+00  1.565554746195E+00
   27     6 C     5.110840616244E+00 -3.751604309962E+00  1.566412116403E+00
   28     6 C     5.806804018522E+00 -2.546700456072E+00  1.563840160778E+00
   29     6 C    -5.806753140962E+00  2.550051165862E+00  1.570453756529E+00
   30     6 C     5.802124223048E+00 -4.972026108238E+00  1.563717524319E+00
   31     6 C     6.209001448118E+00  8.052998435023E-01 -1.555645652109E+00
   32     6 C    -4.110860488157E+00 -2.023993482736E+00  4.634456894769E+00
   33     6 C     4.111290843635E+00  2.020686106994E+00 -1.566423741447E+00
   34     6 C     4.806928589823E+00  8.156150223638E-01 -1.563851816821E+00
   35     6 C    -5.806413348476E+00 -2.551148187132E+00  1.529546220430E+00
   36     6 C     4.802670232992E+00  3.240953687048E+00 -1.563729180362E+00
   37     8 O     6.296071023793E+00 -1.731478593994E+00 -1.552583677650E+00
   38     8 O    -4.647196394142E+00  4.585707618709E+00 -1.531395005349E+00
   39     8 O    -2.647483457250E+00 -4.586005568540E+00  4.636661561020E+00
   40     8 O     3.647399129944E+00 -6.317433140852E+00  1.547428048354E+00
   41     8 O     2.647781057962E+00  4.586098821972E+00 -1.531395005349E+00
   42     8 O    -7.295942255124E+00 -5.555897431950E-04  1.536649866016E+00

 *******************************************************************************
 STARTING BASIS SET HANDLING 
 *******************************************************************************

 Loading internal basis set: SOLDEF2MSVP         

 Please cite in your publication:
 L. Dona', J. G. Brandenburg and B. Civalleri, J. Chem. Phys., 151, 121101 (2019
 )                                                                              
                                                                                
                    

 *******************************************************************************
 LOCAL ATOMIC FUNCTIONS BASIS SET
 *******************************************************************************
   ATOM   X(AU)   Y(AU)   Z(AU)  N. TYPE  EXPONENT  S COEF   P COEF   D/F/G COEF
 *******************************************************************************
   1 B  -11.388   8.664  -2.920
                                  1 S  
                                         2.410E+03 1.755E-03 0.000E+00 0.000E+00
                                         3.619E+02 1.344E-02 0.000E+00 0.000E+00
                                         8.231E+01 6.637E-02 0.000E+00 0.000E+00
                                         2.311E+01 2.303E-01 0.000E+00 0.000E+00
                                         7.252E+00 5.150E-01 0.000E+00 0.000E+00
                                  2 S  
                                         2.367E+00 1.000E+00 0.000E+00 0.000E+00
                                  3 S  
                                         5.533E-01 1.000E+00 0.000E+00 0.000E+00
                                  4 S  
                                         1.716E-01 1.000E+00 0.000E+00 0.000E+00
                           5-     7 P  
                                         6.002E+00 0.000E+00-3.555E-02 0.000E+00
                                         1.240E+00 0.000E+00-1.983E-01 0.000E+00
                                         3.367E-01 0.000E+00-5.048E-01 0.000E+00
                           8-    10 P  
                                         1.256E-01 0.000E+00 1.000E+00 0.000E+00
                          11-    15 D  
                                         8.880E-01 0.000E+00 0.000E+00 1.000E+00
   2 B   -7.477  10.922  -2.920
   3 B   13.200  -1.014  -2.939
   4 B    1.809   7.650  -8.778
   5 B    5.721   5.391  -8.778
   6 B    7.610  13.182  -2.939
   7 H   -4.273   6.874  -2.959
                                 91 S  
                                         1.874E+01 1.968E-02 0.000E+00 0.000E+00
                                         2.826E+00 1.380E-01 0.000E+00 0.000E+00
                                         6.401E-01 4.783E-01 0.000E+00 0.000E+00
                                 92 S  
                                         1.756E-01 1.000E+00 0.000E+00 0.000E+00
   8 H    2.376 -10.143   2.893
   9 H   -2.386 -10.148   2.892
  10 H    0.489   6.872  -2.966
  11 H   -9.486   3.866  -2.899
  12 H    7.596  -7.126   2.965
  13 H    8.090  -6.279  -2.892
  14 H   -9.975   3.014   2.966
  15 H   -7.596  -7.140   2.899
  16 H    5.707   3.857  -2.965
  17 H    8.089  -0.266  -2.966
  18 H   -9.976  -3.016   2.892
  19 C   -4.548  10.922  -2.940
                                115 S  
                                         3.624E+03 1.634E-03 0.000E+00 0.000E+00
                                         5.440E+02 1.252E-02 0.000E+00 0.000E+00
                                         1.237E+02 6.211E-02 0.000E+00 0.000E+00
                                         3.476E+01 2.182E-01 0.000E+00 0.000E+00
                                         1.093E+01 4.980E-01 0.000E+00 0.000E+00
                                116 S  
                                         3.574E+00 1.000E+00 0.000E+00 0.000E+00
                                117 S  
                                         7.742E-01 1.000E+00 0.000E+00 0.000E+00
                                118 S  
                                         2.330E-01 1.000E+00 0.000E+00 0.000E+00
                         119-   121 P  
                                         9.443E+00 0.000E+00 3.790E-02 0.000E+00
                                         2.002E+00 0.000E+00 2.082E-01 0.000E+00
                                         5.463E-01 0.000E+00 5.047E-01 0.000E+00
                         122-   124 P  
                                         1.820E-01 0.000E+00 1.000E+00 0.000E+00
                         125-   129 D  
                                         8.880E-01 0.000E+00 0.000E+00 1.000E+00
  20 C   -3.205   8.638  -2.958
  21 C    1.313 -11.910   2.898
  22 C    0.573  -8.638   8.761
  23 C   -0.576   8.638  -2.968
  24 C    0.767  10.923  -2.955
  25 C   11.733  -8.066  -2.918
  26 C   -9.659   7.096   2.958
  27 C    9.658  -7.090   2.960
  28 C   10.973  -4.813   2.955
  29 C  -10.973   4.819   2.968
  30 C   10.964  -9.396   2.955
  31 C   11.733   1.522  -2.940
  32 C   -7.768  -3.825   8.758
  33 C    7.769   3.819  -2.960
  34 C    9.084   1.541  -2.955
  35 C  -10.973  -4.821   2.890
  36 C    9.076   6.125  -2.955
  37 O   11.898  -3.272  -2.934
                                385 S  
                                         6.773E+03 1.727E-03 0.000E+00 0.000E+00
                                         1.017E+03 1.325E-02 0.000E+00 0.000E+00
                                         2.313E+02 6.603E-02 0.000E+00 0.000E+00
                                         6.501E+01 2.353E-01 0.000E+00 0.000E+00
                                         2.050E+01 5.498E-01 0.000E+00 0.000E+00
                                386 S  
                                         6.716E+00 1.000E+00 0.000E+00 0.000E+00
                                387 S  
                                         1.147E+00 1.000E+00 0.000E+00 0.000E+00
                                388 S  
                                         3.342E-01 1.000E+00 0.000E+00 0.000E+00
                         389-   391 P  
                                         1.769E+01 0.000E+00 4.359E-02 0.000E+00
                                         3.854E+00 0.000E+00 2.318E-01 0.000E+00
                                         1.047E+00 0.000E+00 5.146E-01 0.000E+00
                         392-   394 P  
                                         2.759E-01 0.000E+00 1.000E+00 0.000E+00
                         395-   399 D  
                                         8.000E-01 0.000E+00 0.000E+00 1.000E+00
  38 O   -8.782   8.666  -2.894
  39 O   -5.003  -8.666   8.762
  40 O    6.893 -11.938   2.924
  41 O    5.004   8.666  -2.894
  42 O  -13.787  -0.001   2.904

 *******************************************************************************
 FINISHED BASIS SET HANDLING 
 *******************************************************************************

 INFORMATION **** SET_MPP **** PCRYSTAL CALCULATION
 INFORMATION **** READM2 **** NEW DEFAULT: FOCK/KS MATRIX MIXING SET TO 30 %
 INFORMATION **** READM2 **** NEW DEFAULT: FULL DIRECT SCF MODE
 INFORMATION **** READM2 **** NEW DEFAULT: COULOMB BIPOLAR BUFFER SET TO 32 Mb
 INFORMATION **** READM2 **** NEW DEFAULT: EXCHANGE BIPOLAR BUFFER SET TO 32 Mb

 *******************************************************************************
 NEW DEFAULT: DFT INTEGRATION GRID INCREASED TO XLGRID
 NEW DEFAULT: DIIS ACCELERATOR ACTIVE
 USE KEYWORD NODIIS TO TURN IT OFF
 *******************************************************************************

 WARNING **** RDDFTP **** HSEsol-HJS ACTIVE
 RANGE SEPARATION - OMEGA:   0.110000000000000     
 WARNING **** RDDFTP **** HSEsol-3c has to be combined with sol-def2-mSVP basis set
 *******************************************************************************
 N. OF ATOMS PER CELL        42  COULOMB OVERLAP TOL         (T1) 10**   -6
 NUMBER OF SHELLS           234  COULOMB PENETRATION TOL     (T2) 10**   -6
 NUMBER OF AO               474  EXCHANGE OVERLAP TOL        (T3) 10**   -6
 N. OF ELECTRONS PER CELL   198  EXCHANGE PSEUDO OVP (F(G))  (T4) 10**   -6
 CORE ELECTRONS PER CELL     60  EXCHANGE PSEUDO OVP (P(G))  (T5) 10**  -12
 N. OF SYMMETRY OPERATORS     1  POLE ORDER IN MONO ZONE                  4
 *******************************************************************************
 TYPE OF CALCULATION :  RESTRICTED CLOSED SHELL
 KOHN-SHAM HAMILTONIAN

 (EXCHANGE)[CORRELATION] FUNCTIONAL:(HSEsol GGA)[PBEsol]

 RANGE-SEPARATED HYBRID FUNCTIONAL 
 OMEGA (SHORT-RANGE)[LONG-RANGE]:(    0.1100)[    0.0000]

 HYBRID EXCHANGE - PERCENTAGE OF FOCK EXCHANGE    25.0000

 CAPPA:IS1  2;IS2  2;IS3  8; K PTS MONK NET  20; SYMMOPS:K SPACE   2;G SPACE   1

 *******************************************************************************
 MAX NUMBER OF SCF CYCLES      50  CONVERGENCE ON DELTAP        10**-16
 WEIGHT OF F(I) IN F(I+1)      30% CONVERGENCE ON ENERGY        10**- 6
 SHRINK. FACT.(MONKH.)    2  2  8  NUMBER OF K POINTS IN THE IBZ     20
 SHRINKING FACTOR(GILAT NET)    8  NUMBER OF K POINTS(GILAT NET)   1028
 *******************************************************************************
 *** K POINTS COORDINATES (OBLIQUE COORDINATES IN UNITS OF IS =  2)
   1-R(  0  0  0)   2-R(  1  0  0)   3-R(  0  1  0)   4-R(  1  1  0)
   5-C(  0  0  1)   6-C(  1  0  1)   7-C(  0  1  1)   8-C(  1  1  1)
   9-C(  0  0  2)  10-C(  1  0  2)  11-C(  0  1  2)  12-C(  1  1  2)
  13-C(  0  0  3)  14-C(  1  0  3)  15-C(  0  1  3)  16-C(  1  1  3)
  17-R(  0  0  4)  18-R(  1  0  4)  19-R(  0  1  4)  20-R(  1  1  4)

 DIRECT LATTICE VECTORS COMPON. (A.U.)     RECIP. LATTICE VECTORS COMPON. (A.U.) 
        X            Y            Z              X            Y            Z
   24.5879030  -14.1935232    0.0000000      0.2555397    0.0000000   -0.0824212
    0.0000000   28.3910867    0.0000000      0.1277517    0.2213084   -0.1648588
    1.8894829    3.2732014    5.8581729      0.0000000    0.0000000    1.0725503

 DISK SPACE FOR EIGENVECTORS (FTN 10)     7189632 REALS

 SYMMETRY ADAPTION OF THE BLOCH FUNCTIONS DISABLED
 TTTTTTTTTTTTTTTTTTTTTTTTTTTTTT gordsh1     TELAPSE        0.04 TCPU        0.04

 MATRIX SIZE: P(G)  422126, F(G)   86082, P(G) IRR  213508, F(G) IRR   86922
 MAX G-VECTOR INDEX FOR 1- AND 2-ELECTRON INTEGRALS  79

 TTTTTTTTTTTTTTTTTTTTTTTTTTTTTT INPUT       TELAPSE        0.33 TCPU        0.33

 NEIGHBORS OF THE NON-EQUIVALENT ATOMS

 N = NUMBER OF NEIGHBORS AT DISTANCE R
    ATOM  N     R/ANG      R/AU   NEIGHBORS (ATOM LABELS AND CELL INDICES)
   1 B    1     1.3791     2.6061   37 O   -1 0 0
   1 B    1     1.3793     2.6065   38 O    0 0 0
   1 B    1     1.5503     2.9297   25 C   -1 0 0
   1 B    1     2.3895     4.5155    3 B   -1 0 0
   1 B    1     2.3898     4.5160    2 B    0 0 0
   1 B    1     2.5632     4.8437   26 C    0 0-1

   2 B    1     1.3793     2.6065   39 O    0 1-2
   2 B    1     1.3793     2.6065   38 O    0 0 0
   2 B    1     1.5504     2.9298   19 C    0 0 0
   2 B    1     2.3895     4.5156    3 B   -1 0 0
   2 B    1     2.3898     4.5160    1 B    0 0 0
   2 B    1     2.5634     4.8440   22 C    0 1-2

   3 B    1     1.3791     2.6061   37 O    0 0 0
   3 B    1     1.3793     2.6064   39 O    1 1-2
   3 B    1     1.5502     2.9294   31 C    0 0 0
   3 B    1     2.3895     4.5155    1 B    1 0 0
   3 B    1     2.3895     4.5156    2 B    1 0 0
   3 B    1     2.5629     4.8433   32 C    1 1-2

   4 B    1     1.3795     2.6068   40 O    0 1-2
   4 B    1     1.3795     2.6070   41 O    0 0-1
   4 B    1     1.5513     2.9316   24 C    0 0-1
   4 B    1     2.3905     4.5174    6 B    0 0-1
   4 B    1     2.3905     4.5175    5 B    0 0 0
   4 B    1     2.5648     4.8468   23 C    0 0-1

   5 B    1     1.3795     2.6069   41 O    0 0-1
   5 B    1     1.3797     2.6072   42 O    1 1-2
   5 B    1     1.5516     2.9322   36 C    0 0-1
   5 B    1     2.3905     4.5175    4 B    0 0 0
   5 B    1     2.3911     4.5185    6 B    0 0-1
   5 B    1     2.5651     4.8473   35 C    1 1-2

   6 B    1     1.3795     2.6068   40 O    0 1-1
   6 B    1     1.3796     2.6071   42 O    1 1-1
   6 B    1     1.5516     2.9322   30 C    0 1-1
   6 B    1     2.3905     4.5174    4 B    0 0 1
   6 B    1     2.3911     4.5185    5 B    0 0 1
   6 B    1     2.5651     4.8473   29 C    1 1-1

   7 H    1     1.0913     2.0623   20 C    0 0 0
   7 H    1     2.1472     4.0576   19 C    0 0 0
   7 H    1     2.1680     4.0969   23 C    0 0 0
   7 H    1     2.5202     4.7625   10 H    0 0 0
   7 H    1     2.5676     4.8520   38 O    0 0 0
   7 H    1     2.7321     5.1630    2 B    0 0 0

   8 H    1     1.0914     2.0625   21 C    0 0 0
   8 H    1     2.1493     4.0616   24 C    0-1 1
   8 H    1     2.1666     4.0942   22 C    0 0-1
   8 H    1     2.5198     4.7618    9 H    0 0 0
   8 H    1     2.5720     4.8604   40 O    0 0 0
   8 H    1     2.7362     5.1707    4 B    0-1 2

   9 H    1     1.0914     2.0624   22 C    0 0-1
   9 H    1     2.1471     4.0575   19 C    0-1 1
   9 H    1     2.1680     4.0970   21 C    0 0 0
   9 H    1     2.5198     4.7618    8 H    0 0 0
   9 H    1     2.5665     4.8500   39 O    0 0-1
   9 H    1     2.7315     5.1618    2 B    0-1 1

  10 H    1     1.0915     2.0626   23 C    0 0 0
  10 H    1     2.1490     4.0610   24 C    0 0 0
  10 H    1     2.1669     4.0948   20 C    0 0 0
  10 H    1     2.5202     4.7625    7 H    0 0 0
  10 H    1     2.5712     4.8588   41 O    0 0 0
  10 H    1     2.7351     5.1686    4 B    0 0 1

  11 H    1     1.0913     2.0623   26 C    0 0-1
  11 H    1     2.1469     4.0571   25 C   -1 0 0
  11 H    1     2.1680     4.0968   29 C    0 0-1
  11 H    1     2.5198     4.7617   14 H    0 0-1
  11 H    1     2.5670     4.8510   38 O    0 0 0
  11 H    1     2.7310     5.1609    1 B    0 0 0

  12 H    1     1.0914     2.0625   27 C    0 0 0
  12 H    1     2.1493     4.0617   30 C    0 0 0
  12 H    1     2.1664     4.0939   28 C    0 0 0
  12 H    1     2.5192     4.7606   13 H    0 0 1
  12 H    1     2.5735     4.8632   40 O    0 0 0
  12 H    1     2.7371     5.1723    6 B    0-1 1

  13 H    1     1.0914     2.0624   28 C    0 0-1
  13 H    1     2.1475     4.0581   25 C    0 0 0
  13 H    1     2.1679     4.0967   27 C    0 0-1
  13 H    1     2.5192     4.7606   12 H    0 0-1
  13 H    1     2.5675     4.8519   37 O    0 0 0
  13 H    1     2.7328     5.1643    1 B    1 0 0

  14 H    1     1.0914     2.0625   29 C    0 0 0
  14 H    1     2.1491     4.0612   30 C   -1 0 0
  14 H    1     2.1666     4.0942   26 C    0 0 0
  14 H    1     2.5198     4.7617   11 H    0 0 1
  14 H    1     2.5723     4.8609   42 O    0 0 0
  14 H    1     2.7355     5.1693    6 B   -1-1 1

  15 H    1     1.0914     2.0624   32 C    0 0-1
  15 H    1     2.1475     4.0582   31 C   -1-1 1
  15 H    1     2.1678     4.0966   35 C    0 0 0
  15 H    1     2.5200     4.7621   18 H    0 0 0
  15 H    1     2.5667     4.8503   39 O    0 0-1
  15 H    1     2.7315     5.1618    3 B   -1-1 1

  16 H    1     1.0913     2.0623   33 C    0 0 0
  16 H    1     2.1487     4.0605   36 C    0 0 0
  16 H    1     2.1667     4.0945   34 C    0 0 0
  16 H    1     2.5197     4.7616   17 H    0 0 0
  16 H    1     2.5723     4.8610   41 O    0 0 0
  16 H    1     2.7359     5.1701    5 B    0 0 1

  17 H    1     1.0915     2.0626   34 C    0 0 0
  17 H    1     2.1479     4.0589   31 C    0 0 0
  17 H    1     2.1679     4.0968   33 C    0 0 0
  17 H    1     2.5197     4.7616   16 H    0 0 0
  17 H    1     2.5677     4.8522   37 O    0 0 0
  17 H    1     2.7331     5.1648    3 B    0 0 0

  18 H    1     1.0914     2.0624   35 C    0 0 0
  18 H    1     2.1486     4.0602   36 C   -1-1 1
  18 H    1     2.1668     4.0947   32 C    0 0-1
  18 H    1     2.5200     4.7621   15 H    0 0 0
  18 H    1     2.5717     4.8598   42 O    0 0 0
  18 H    1     2.7349     5.1682    5 B   -1-1 2

  19 C    1     1.4020     2.6495   22 C    0 1-2
  19 C    1     1.4021     2.6495   20 C    0 0 0
  19 C    1     1.5504     2.9298    2 B    0 0 0
  19 C    1     2.1471     4.0575    9 H    0 1-1
  19 C    1     2.1472     4.0576    7 H    0 0 0
  19 C    1     2.4246     4.5817   21 C    0 1-1

  20 C    1     1.0913     2.0623    7 H    0 0 0
  20 C    1     1.3914     2.6294   23 C    0 0 0
  20 C    1     1.4021     2.6495   19 C    0 0 0
  20 C    1     2.1669     4.0948   10 H    0 0 0
  20 C    1     2.4177     4.5688   22 C    0 1-2
  20 C    1     2.4250     4.5825   24 C    0 0 0

  21 C    1     1.0914     2.0625    8 H    0 0 0
  21 C    1     1.3914     2.6293   22 C    0 0-1
  21 C    1     1.4026     2.6505   24 C    0-1 1
  21 C    1     2.1680     4.0970    9 H    0 0 0
  21 C    1     2.4182     4.5697   23 C    0-1 1
  21 C    1     2.4246     4.5817   19 C    0-1 1

  22 C    1     1.0914     2.0624    9 H    0 0 1
  22 C    1     1.3914     2.6293   21 C    0 0 1
  22 C    1     1.4020     2.6495   19 C    0-1 2
  22 C    1     2.1666     4.0942    8 H    0 0 1
  22 C    1     2.4177     4.5688   20 C    0-1 2
  22 C    1     2.4250     4.5826   24 C    0-1 2

  23 C    1     1.0915     2.0626   10 H    0 0 0
  23 C    1     1.3914     2.6294   20 C    0 0 0
  23 C    1     1.4025     2.6504   24 C    0 0 0
  23 C    1     2.1680     4.0969    7 H    0 0 0
  23 C    1     2.4182     4.5697   21 C    0 1-1
  23 C    1     2.4246     4.5818   19 C    0 0 0

  24 C    1     1.4025     2.6504   23 C    0 0 0
  24 C    1     1.4026     2.6505   21 C    0 1-1
  24 C    1     1.5513     2.9316    4 B    0 0 1
  24 C    1     2.1490     4.0610   10 H    0 0 0
  24 C    1     2.1493     4.0616    8 H    0 1-1
  24 C    1     2.4250     4.5825   20 C    0 0 0

  25 C    1     1.4020     2.6494   26 C    1 0-1
  25 C    1     1.4021     2.6495   28 C    0 0-1
  25 C    1     1.5503     2.9297    1 B    1 0 0
  25 C    1     2.1469     4.0571   11 H    1 0 0
  25 C    1     2.1475     4.0581   13 H    0 0 0
  25 C    1     2.4246     4.5818   27 C    0 0-1

  26 C    1     1.0913     2.0623   11 H    0 0 1
  26 C    1     1.3914     2.6293   29 C    0 0 0
  26 C    1     1.4020     2.6494   25 C   -1 0 1
  26 C    1     2.1666     4.0942   14 H    0 0 0
  26 C    1     2.4175     4.5684   28 C   -1 0 0
  26 C    1     2.4251     4.5828   30 C   -1 0 0

  27 C    1     1.0914     2.0625   12 H    0 0 0
  27 C    1     1.3915     2.6295   28 C    0 0 0
  27 C    1     1.4026     2.6505   30 C    0 0 0
  27 C    1     2.1679     4.0967   13 H    0 0 1
  27 C    1     2.4179     4.5691   29 C    1 0 0
  27 C    1     2.4246     4.5818   25 C    0 0 1

  28 C    1     1.0914     2.0624   13 H    0 0 1
  28 C    1     1.3915     2.6295   27 C    0 0 0
  28 C    1     1.4021     2.6495   25 C    0 0 1
  28 C    1     2.1664     4.0939   12 H    0 0 0
  28 C    1     2.4175     4.5684   26 C    1 0 0
  28 C    1     2.4253     4.5832   30 C    0 0 0

  29 C    1     1.0914     2.0625   14 H    0 0 0
  29 C    1     1.3914     2.6293   26 C    0 0 0
  29 C    1     1.4025     2.6504   30 C   -1 0 0
  29 C    1     2.1680     4.0968   11 H    0 0 1
  29 C    1     2.4179     4.5691   27 C   -1 0 0
  29 C    1     2.4247     4.5819   25 C   -1 0 1

  30 C    1     1.4025     2.6504   29 C    1 0 0
  30 C    1     1.4026     2.6505   27 C    0 0 0
  30 C    1     1.5516     2.9322    6 B    0-1 1
  30 C    1     2.1491     4.0612   14 H    1 0 0
  30 C    1     2.1493     4.0617   12 H    0 0 0
  30 C    1     2.4251     4.5828   26 C    1 0 0

  31 C    1     1.4021     2.6496   32 C    1 1-2
  31 C    1     1.4021     2.6497   34 C    0 0 0
  31 C    1     1.5502     2.9294    3 B    0 0 0
  31 C    1     2.1475     4.0582   15 H    1 1-1
  31 C    1     2.1479     4.0589   17 H    0 0 0
  31 C    1     2.4244     4.5814   33 C    0 0 0

  32 C    1     1.0914     2.0624   15 H    0 0 1
  32 C    1     1.3914     2.6293   35 C    0 0 1
  32 C    1     1.4021     2.6496   31 C   -1-1 2
  32 C    1     2.1668     4.0947   18 H    0 0 1
  32 C    1     2.4179     4.5692   34 C   -1-1 2
  32 C    1     2.4251     4.5827   36 C   -1-1 2

  33 C    1     1.0913     2.0623   16 H    0 0 0
  33 C    1     1.3914     2.6294   34 C    0 0 0
  33 C    1     1.4025     2.6504   36 C    0 0 0
  33 C    1     2.1679     4.0968   17 H    0 0 0
  33 C    1     2.4178     4.5690   35 C    1 1-1
  33 C    1     2.4244     4.5814   31 C    0 0 0

  34 C    1     1.0915     2.0626   17 H    0 0 0
  34 C    1     1.3914     2.6294   33 C    0 0 0
  34 C    1     1.4021     2.6497   31 C    0 0 0
  34 C    1     2.1667     4.0945   16 H    0 0 0
  34 C    1     2.4179     4.5692   32 C    1 1-2
  34 C    1     2.4253     4.5832   36 C    0 0 0

  35 C    1     1.0914     2.0624   18 H    0 0 0
  35 C    1     1.3914     2.6293   32 C    0 0-1
  35 C    1     1.4025     2.6503   36 C   -1-1 1
  35 C    1     2.1678     4.0966   15 H    0 0 0
  35 C    1     2.4178     4.5690   33 C   -1-1 1
  35 C    1     2.4245     4.5817   31 C   -1-1 1

  36 C    1     1.4025     2.6503   35 C    1 1-1
  36 C    1     1.4025     2.6504   33 C    0 0 0
  36 C    1     1.5516     2.9322    5 B    0 0 1
  36 C    1     2.1486     4.0602   18 H    1 1-1
  36 C    1     2.1487     4.0605   16 H    0 0 0
  36 C    1     2.4251     4.5827   32 C    1 1-2

  37 O    1     1.3791     2.6061    1 B    1 0 0
  37 O    1     1.3791     2.6061    3 B    0 0 0
  37 O    1     2.3880     4.5126   38 O    1 0 0
  37 O    1     2.3882     4.5130   39 O    1 1-2
  37 O    1     2.5383     4.7966   31 C    0 0 0
  37 O    1     2.5384     4.7968   25 C    0 0 0

  38 O    1     1.3793     2.6065    1 B    0 0 0
  38 O    1     1.3793     2.6065    2 B    0 0 0
  38 O    1     2.3880     4.5126   37 O   -1 0 0
  38 O    1     2.3882     4.5131   39 O    0 1-2
  38 O    1     2.5391     4.7981   19 C    0 0 0
  38 O    1     2.5395     4.7990   25 C   -1 0 0

  39 O    1     1.3793     2.6064    3 B   -1-1 2
  39 O    1     1.3793     2.6065    2 B    0-1 2
  39 O    1     2.3882     4.5130   37 O   -1-1 2
  39 O    1     2.3882     4.5131   38 O    0-1 2
  39 O    1     2.5390     4.7980   19 C    0-1 2
  39 O    1     2.5391     4.7982   31 C   -1-1 2

  40 O    1     1.3795     2.6068    6 B    0-1 1
  40 O    1     1.3795     2.6068    4 B    0-1 2
  40 O    1     2.3880     4.5126   42 O    1 0 0
  40 O    1     2.3884     4.5134   41 O    0-1 1
  40 O    1     2.5400     4.7998   24 C    0-1 1
  40 O    1     2.5403     4.8005   30 C    0 0 0

  41 O    1     1.3795     2.6069    5 B    0 0 1
  41 O    1     1.3795     2.6070    4 B    0 0 1
  41 O    1     2.3881     4.5128   42 O    1 1-1
  41 O    1     2.3884     4.5134   40 O    0 1-1
  41 O    1     2.5404     4.8006   24 C    0 0 0
  41 O    1     2.5405     4.8008   36 C    0 0 0

  42 O    1     1.3796     2.6071    6 B   -1-1 1
  42 O    1     1.3797     2.6072    5 B   -1-1 2
  42 O    1     2.3880     4.5126   40 O   -1 0 0
  42 O    1     2.3881     4.5128   41 O   -1-1 1
  42 O    1     2.5409     4.8016   36 C   -1-1 1
  42 O    1     2.5410     4.8019   30 C   -1 0 0


 SYMMETRY ALLOWED INTERNAL DEGREE(S) OF FREEDOM: 123
 TTTTTTTTTTTTTTTTTTTTTTTTTTTTTT SYMM        TELAPSE        0.33 TCPU        0.33
 TTTTTTTTTTTTTTTTTTTTTTTTTTTTTT INT_SCREEN  TELAPSE        0.36 TCPU        0.36

 DFT PARAMETERS

     ATOM       ELECTRONS   NET CHARGE   R(ANGSTROM)
   1   5  B       5.0000      0.0000     0.89000000
   7   1  H       1.0000      0.0000     1.11000000
  19   6  C       6.0000      0.0000     0.77000000
  37   8  O       8.0000      0.0000     0.74000000

 SIZE OF GRID=    1218326
 TTTTTTTTTTTTTTTTTTTTTTTTTTTTTT MAKE_GRID2  TELAPSE       13.36 TCPU       13.35
 BECKE WEIGHT FUNCTION
 RADSAFE =     2.00
 TOLERANCES - DENSITY:10**- 6; POTENTIAL:10**- 9; GRID WGT:10**-14

 RADIAL INTEGRATION  - INTERVALS (POINTS,UPPER LIMIT):            1( 75,  4.0*R)

 ANGULAR INTEGRATION - INTERVALS (ACCURACY LEVEL [N. POINTS] UPPER LIMIT):
  1(  4[  86]   0.2)  2(  8[ 194]   0.5)  3( 12[ 350]   0.9)  4( 16[ 974]   3.5)
  5( 12[ 350]9999.0)
 TTTTTTTTTTTTTTTTTTTTTTTTTTTTTT INT_CALC    TELAPSE       13.49 TCPU       13.47
 EEEEEEEEEE INT_CALC TERMINATION  DATE 19 02 2026 TIME 17:50:26.0

 *******************************************************************************
 cof-1_z31_L020_incl                                                             
 CRYSTAL - SCF - TYPE OF CALCULATION :  RESTRICTED CLOSED SHELL
 *******************************************************************************

 CAPPA:IS1  2;IS2  2;IS3  8; K PTS MONK NET  20; SYMMOPS:K SPACE   2;G SPACE   1

 TTTTTTTTTTTTTTTTTTTTTTTTTTTTTT SDIK        TELAPSE       14.14 TCPU       21.32

 AAAAAAAAAAAAAAAAAAAAAAAAAAAAAAAAAAAAAAAAAAAAAAAAAAAAAAAAAAAAAAAAAAAAAAAAAAAAAAA
         ATOMIC WAVEFUNCTION(S)


 NUCLEAR CHARGE  5.0  SYMMETRY SPECIES            S    P
 N. ELECTRONS    5.0  NUMBER OF PRIMITIVE GTOS    8    4
                      NUMBER OF CONTRACTED GTOS   4    2
                      NUMBER OF CLOSED SHELLS     2    0
                      OPEN SHELL OCCUPATION       0    1

  ZNUC  SCFIT    TOTAL HF ENERGY   KINETIC ENERGY   VIRIAL THEOREM ACCURACY
   5.0    11    -2.451164084E+01  2.462155050E+01 -1.995536038E+00  1.5E-06

 NUCLEAR CHARGE  1.0  SYMMETRY SPECIES            S
 N. ELECTRONS    1.0  NUMBER OF PRIMITIVE GTOS    4
                      NUMBER OF CONTRACTED GTOS   2
                      NUMBER OF CLOSED SHELLS     0
                      OPEN SHELL OCCUPATION       1

  ZNUC  SCFIT    TOTAL HF ENERGY   KINETIC ENERGY   VIRIAL THEOREM ACCURACY
   1.0     1    -4.977266687E-01  5.190767460E-01 -1.958869132E+00  0.0E+00

 NUCLEAR CHARGE  6.0  SYMMETRY SPECIES            S    P
 N. ELECTRONS    6.0  NUMBER OF PRIMITIVE GTOS    8    4
                      NUMBER OF CONTRACTED GTOS   4    2
                      NUMBER OF CLOSED SHELLS     2    0
                      OPEN SHELL OCCUPATION       0    2

  ZNUC  SCFIT    TOTAL HF ENERGY   KINETIC ENERGY   VIRIAL THEOREM ACCURACY
   6.0     9    -3.766704647E+01  3.775180683E+01 -1.997754800E+00  1.1E-06

 NUCLEAR CHARGE  8.0  SYMMETRY SPECIES            S    P
 N. ELECTRONS    8.0  NUMBER OF PRIMITIVE GTOS    8    4
                      NUMBER OF CONTRACTED GTOS   4    2
                      NUMBER OF CLOSED SHELLS     2    0
                      OPEN SHELL OCCUPATION       0    4

  ZNUC  SCFIT    TOTAL HF ENERGY   KINETIC ENERGY   VIRIAL THEOREM ACCURACY
   8.0    12    -7.477373220E+01  7.477365593E+01 -2.000001020E+00  3.8E-06

 AAAAAAAAAAAAAAAAAAAAAAAAAAAAAAAAAAAAAAAAAAAAAAAAAAAAAAAAAAAAAAAAAAAAAAAAAAAAAAA

 CHARGE NORMALIZATION FACTOR   1.00000000
 TOTAL ATOMIC CHARGES:
   5.0000000   5.0000000   5.0000000   5.0000000   5.0000000   5.0000000
   1.0000000   1.0000000   1.0000000   1.0000000   1.0000000   1.0000000
   1.0000000   1.0000000   1.0000000   1.0000000   1.0000000   1.0000000
   6.0000000   6.0000000   6.0000000   6.0000000   6.0000000   6.0000000
   6.0000000   6.0000000   6.0000000   6.0000000   6.0000000   6.0000000
   6.0000000   6.0000000   6.0000000   6.0000000   6.0000000   6.0000000
   8.0000000   8.0000000   8.0000000   8.0000000   8.0000000   8.0000000
 TTTTTTTTTTTTTTTTTTTTTTTTTTTTTT MOQGAD      TELAPSE       14.20 TCPU       23.02
 TTTTTTTTTTTTTTTTTTTTTTTTTTTTTT SHELLXN     TELAPSE       27.90 TCPU      460.09
 TTTTTTTTTTTTTTTTTTTTTTTTTTTTTT MONMO3      TELAPSE       28.10 TCPU      466.40
 NUMERICALLY INTEGRATED DENSITY    197.9999874203
 TTTTTTTTTTTTTTTTTTTTTTTTTTTTTT NUMDFT      TELAPSE       28.81 TCPU      489.02
 CYC   0 ETOT(AU) -1.296054059748E+03 DETOT -1.30E+03 tst  0.00E+00 PX  1.00E+00
 TTTTTTTTTTTTTTTTTTTTTTTTTTTTTT DIIS        TELAPSE       28.85 TCPU      490.21
 TTTTTTTTTTTTTTTTTTTTTTTTTTTTTT FDIK        TELAPSE       29.33 TCPU      505.49
 INSULATING STATE
 TOP OF VALENCE BANDS -    BAND     99; K    3; EIG -2.9427563E-01 AU
 TOP OF VALENCE BANDS -    BAND     99; K    1; EIG -2.9427767E-01 AU
 BOTTOM OF VIRTUAL BANDS - BAND    100; K    1; EIG -1.6633388E-01 AU
 INDIRECT ENERGY BAND GAP:   3.4815 eV
 TTTTTTTTTTTTTTTTTTTTTTTTTTTTTT PDIG        TELAPSE       29.63 TCPU      511.53
 CHARGE NORMALIZATION FACTOR   1.00000000
 TOTAL ATOMIC CHARGES:
   4.1238044   4.1322294   4.1328499   4.1324932   4.1323043   4.1233411
   0.7868018   0.7868997   0.7845157   0.7843403   0.7865524   0.7867399
   0.7865885   0.7867409   0.7844155   0.7844065   0.7867528   0.7869126
   6.0536705   6.2736766   6.2740257   6.2681991   6.2678923   6.0526344
   6.0466618   6.2647868   6.2646359   6.2646156   6.2645459   6.0450269
   6.0540339   6.2677721   6.2683296   6.2731550   6.2742578   6.0521355
   8.7123555   8.7126139   8.7045896   8.7130992   8.7052355   8.7133620
 TTTTTTTTTTTTTTTTTTTTTTTTTTTTTT MOQGAD      TELAPSE       29.69 TCPU      511.58
 TTTTTTTTTTTTTTTTTTTTTTTTTTTTTT SHELLXN     TELAPSE       43.85 TCPU      963.57
 TTTTTTTTTTTTTTTTTTTTTTTTTTTTTT MONMO3      TELAPSE       44.05 TCPU      969.86
 NUMERICALLY INTEGRATED DENSITY    197.9999951109
 TTTTTTTTTTTTTTTTTTTTTTTTTTTTTT NUMDFT      TELAPSE       44.77 TCPU      993.06
 CYC   1 ETOT(AU) -1.288823337271E+03 DETOT  7.23E+00 tst  0.00E+00 PX  1.00E+00
 TTTTTTTTTTTTTTTTTTTTTTTTTTTTTT DIIS        TELAPSE       44.82 TCPU      994.58
 DIIS TEST: 0.10725E+01 AT SCF   CYCLE   1 - MIX   30 %
 TTTTTTTTTTTTTTTTTTTTTTTTTTTTTT FDIK        TELAPSE       45.31 TCPU     1010.05
 INSULATING STATE
 TOP OF VALENCE BANDS -    BAND     99; K    1; EIG -2.0162398E-01 AU
 BOTTOM OF VIRTUAL BANDS - BAND    100; K    1; EIG -8.7031761E-02 AU
 DIRECT ENERGY BAND GAP:   3.1182 eV
 TTTTTTTTTTTTTTTTTTTTTTTTTTTTTT PDIG        TELAPSE       45.61 TCPU     1016.09
 CHARGE NORMALIZATION FACTOR   1.00000000
 TOTAL ATOMIC CHARGES:
   4.6621120   4.6691087   4.6674417   4.6679591   4.6688544   4.6598344
   0.9169397   0.9172718   0.9203894   0.9200831   0.9124276   0.9121671
   0.9123268   0.9121915   0.9202449   0.9200345   0.9167715   0.9169163
   5.8670084   6.1105053   6.1110819   6.1557835   6.1592537   5.8691330
   5.8751578   6.1328038   6.1348424   6.1346908   6.1334080   5.8790363
   5.8663558   6.1559293   6.1596655   6.1107735   6.1113394   5.8697421
   8.3539747   8.3543366   8.3772715   8.3533483   8.3781827   8.3533013
 TTTTTTTTTTTTTTTTTTTTTTTTTTTTTT MOQGAD      TELAPSE       45.67 TCPU     1016.15
 TTTTTTTTTTTTTTTTTTTTTTTTTTTTTT SHELLXN     TELAPSE       59.84 TCPU     1468.45
 TTTTTTTTTTTTTTTTTTTTTTTTTTTTTT MONMO3      TELAPSE       60.04 TCPU     1474.75
 NUMERICALLY INTEGRATED DENSITY    197.9999885599
 TTTTTTTTTTTTTTTTTTTTTTTTTTTTTT NUMDFT      TELAPSE       60.77 TCPU     1497.94
 CYC   2 ETOT(AU) -1.289012792861E+03 DETOT -1.89E-01 tst  3.42E-03 PX  1.56E-01
 TTTTTTTTTTTTTTTTTTTTTTTTTTTTTT DIIS        TELAPSE       60.82 TCPU     1499.49
 DIIS TEST: 0.45792E+00 AT SCF   CYCLE   2 - DIIS ACTIVE - HISTORY:     2 CYCLES
 TTTTTTTTTTTTTTTTTTTTTTTTTTTTTT FDIK        TELAPSE       61.30 TCPU     1514.86
 INSULATING STATE
 TOP OF VALENCE BANDS -    BAND     99; K    1; EIG -2.1326277E-01 AU
 BOTTOM OF VIRTUAL BANDS - BAND    100; K    1; EIG -8.1743897E-02 AU
 DIRECT ENERGY BAND GAP:   3.5788 eV
 TTTTTTTTTTTTTTTTTTTTTTTTTTTTTT PDIG        TELAPSE       61.60 TCPU     1520.90
 CHARGE NORMALIZATION FACTOR   1.00000000
 TOTAL ATOMIC CHARGES:
   4.4545478   4.4560097   4.4554800   4.4546587   4.4548236   4.4527887
   0.8899950   0.8902965   0.8920669   0.8917597   0.8884872   0.8888433
   0.8887549   0.8886308   0.8919029   0.8918281   0.8898599   0.8901339
   5.8966077   6.1739461   6.1747116   6.1685507   6.1669206   5.8951153
   5.9065064   6.1621605   6.1602938   6.1616559   6.1607703   5.9072418
   5.8976161   6.1688716   6.1667779   6.1738117   6.1748031   5.8943889
   8.5328572   8.5333008   8.5226091   8.5334949   8.5221881   8.5339325
 TTTTTTTTTTTTTTTTTTTTTTTTTTTTTT MOQGAD      TELAPSE       61.66 TCPU     1520.96
 TTTTTTTTTTTTTTTTTTTTTTTTTTTTTT SHELLXN     TELAPSE       75.83 TCPU     1973.30
 TTTTTTTTTTTTTTTTTTTTTTTTTTTTTT MONMO3      TELAPSE       76.03 TCPU     1979.60
 NUMERICALLY INTEGRATED DENSITY    197.9999905881
 TTTTTTTTTTTTTTTTTTTTTTTTTTTTTT NUMDFT      TELAPSE       76.75 TCPU     2002.72
 CYC   3 ETOT(AU) -1.289109273523E+03 DETOT -9.65E-02 tst  5.98E-04 PX  6.25E-02
 TTTTTTTTTTTTTTTTTTTTTTTTTTTTTT DIIS        TELAPSE       76.81 TCPU     2004.49
 DIIS TEST: 0.11446E-01 AT SCF   CYCLE   3 - DIIS ACTIVE - HISTORY:     3 CYCLES
 TTTTTTTTTTTTTTTTTTTTTTTTTTTTTT FDIK        TELAPSE       77.29 TCPU     2019.95
 INSULATING STATE
 TOP OF VALENCE BANDS -    BAND     99; K    1; EIG -2.2603156E-01 AU
 BOTTOM OF VIRTUAL BANDS - BAND    100; K    1; EIG -9.1526373E-02 AU
 DIRECT ENERGY BAND GAP:   3.6601 eV
 TTTTTTTTTTTTTTTTTTTTTTTTTTTTTT PDIG        TELAPSE       77.60 TCPU     2025.99
 CHARGE NORMALIZATION FACTOR   1.00000000
 TOTAL ATOMIC CHARGES:
   4.4646126   4.4620920   4.4610052   4.4618391   4.4624116   4.4638982
   0.8755366   0.8760283   0.8759821   0.8754753   0.8711302   0.8709212
   0.8710081   0.8710422   0.8759748   0.8753751   0.8754716   0.8757182
   5.9455002   6.1522924   6.1521912   6.1834692   6.1893364   5.9499141
   5.9544372   6.1642632   6.1664182   6.1662465   6.1645584   5.9584517
   5.9447312   6.1829974   6.1901409   6.1523083   6.1524187   5.9506990
   8.4958940   8.4960848   8.5149123   8.4953735   8.5165847   8.4952537
 TTTTTTTTTTTTTTTTTTTTTTTTTTTTTT MOQGAD      TELAPSE       77.65 TCPU     2026.05
 TTTTTTTTTTTTTTTTTTTTTTTTTTTTTT SHELLXN     TELAPSE       91.84 TCPU     2478.68
 TTTTTTTTTTTTTTTTTTTTTTTTTTTTTT MONMO3      TELAPSE       92.04 TCPU     2484.98
 NUMERICALLY INTEGRATED DENSITY    197.9999907052
 TTTTTTTTTTTTTTTTTTTTTTTTTTTTTT NUMDFT      TELAPSE       92.76 TCPU     2508.09
 CYC   4 ETOT(AU) -1.289111457267E+03 DETOT -2.18E-03 tst  3.33E-05 PX  1.25E-02
 TTTTTTTTTTTTTTTTTTTTTTTTTTTTTT DIIS        TELAPSE       92.82 TCPU     2510.00
 DIIS TEST: 0.43049E-02 AT SCF   CYCLE   4 - DIIS ACTIVE - HISTORY:     4 CYCLES
 TTTTTTTTTTTTTTTTTTTTTTTTTTTTTT FDIK        TELAPSE       93.30 TCPU     2525.41
 INSULATING STATE
 TOP OF VALENCE BANDS -    BAND     99; K    1; EIG -2.2298816E-01 AU
 BOTTOM OF VIRTUAL BANDS - BAND    100; K    1; EIG -9.0293559E-02 AU
 DIRECT ENERGY BAND GAP:   3.6108 eV
 TTTTTTTTTTTTTTTTTTTTTTTTTTTTTT PDIG        TELAPSE       93.60 TCPU     2531.44
 CHARGE NORMALIZATION FACTOR   1.00000000
 TOTAL ATOMIC CHARGES:
   4.4640075   4.4658837   4.4649941   4.4641685   4.4645345   4.4616841
   0.8774513   0.8776709   0.8790357   0.8788400   0.8747472   0.8750036
   0.8749194   0.8748395   0.8788611   0.8789108   0.8772889   0.8774690
   5.9281706   6.1655326   6.1663337   6.1818856   6.1792141   5.9238202
   5.9333055   6.1681405   6.1664445   6.1679076   6.1667937   5.9324177
   5.9287504   6.1823224   6.1790291   6.1653729   6.1666465   5.9234010
   8.5101874   8.5106572   8.5112642   8.5105497   8.5106224   8.5109205
 TTTTTTTTTTTTTTTTTTTTTTTTTTTTTT MOQGAD      TELAPSE       93.66 TCPU     2531.50
 TTTTTTTTTTTTTTTTTTTTTTTTTTTTTT SHELLXN     TELAPSE      107.84 TCPU     2983.89
 TTTTTTTTTTTTTTTTTTTTTTTTTTTTTT MONMO3      TELAPSE      108.03 TCPU     2990.19
 NUMERICALLY INTEGRATED DENSITY    197.9999905497
 TTTTTTTTTTTTTTTTTTTTTTTTTTTTTT NUMDFT      TELAPSE      108.75 TCPU     3013.23
 CYC   5 ETOT(AU) -1.289112418694E+03 DETOT -9.61E-04 tst  5.30E-06 PX  7.31E-03
 TTTTTTTTTTTTTTTTTTTTTTTTTTTTTT DIIS        TELAPSE      108.82 TCPU     3015.36
 DIIS TEST: 0.22049E-03 AT SCF   CYCLE   5 - DIIS ACTIVE - HISTORY:     5 CYCLES
 TTTTTTTTTTTTTTTTTTTTTTTTTTTTTT FDIK        TELAPSE      109.30 TCPU     3030.80
 INSULATING STATE
 TOP OF VALENCE BANDS -    BAND     99; K    1; EIG -2.2265659E-01 AU
 BOTTOM OF VIRTUAL BANDS - BAND    100; K    1; EIG -8.9815418E-02 AU
 DIRECT ENERGY BAND GAP:   3.6148 eV
 TTTTTTTTTTTTTTTTTTTTTTTTTTTTTT PDIG        TELAPSE      109.61 TCPU     3036.84
 CHARGE NORMALIZATION FACTOR   1.00000000
 TOTAL ATOMIC CHARGES:
   4.4638343   4.4638587   4.4629449   4.4640234   4.4644780   4.4635188
   0.8786065   0.8790992   0.8803927   0.8798204   0.8759186   0.8757970
   0.8758907   0.8758401   0.8803637   0.8797482   0.8785121   0.8788340
   5.9209404   6.1637286   6.1641989   6.1773250   6.1846393   5.9290153
   5.9305002   6.1652872   6.1675349   6.1668448   6.1660456   5.9369346
   5.9208759   6.1769222   6.1853109   6.1638899   6.1641756   5.9292148
   8.5084038   8.5085575   8.5149712   8.5082214   8.5168051   8.5081755
 TTTTTTTTTTTTTTTTTTTTTTTTTTTTTT MOQGAD      TELAPSE      109.67 TCPU     3036.90
 TTTTTTTTTTTTTTTTTTTTTTTTTTTTTT SHELLXN     TELAPSE      123.85 TCPU     3489.50
 TTTTTTTTTTTTTTTTTTTTTTTTTTTTTT MONMO3      TELAPSE      124.05 TCPU     3495.81
 NUMERICALLY INTEGRATED DENSITY    197.9999905860
 TTTTTTTTTTTTTTTTTTTTTTTTTTTTTT NUMDFT      TELAPSE      124.77 TCPU     3518.94
 CYC   6 ETOT(AU) -1.289112412087E+03 DETOT  6.61E-06 tst  3.07E-06 PX  2.04E-03
 TTTTTTTTTTTTTTTTTTTTTTTTTTTTTT DIIS        TELAPSE      124.85 TCPU     3521.23
 DIIS TEST: 0.25710E-03 AT SCF   CYCLE   6 - DIIS ACTIVE - HISTORY:     6 CYCLES
 TTTTTTTTTTTTTTTTTTTTTTTTTTTTTT FDIK        TELAPSE      125.33 TCPU     3536.65
 INSULATING STATE
 TOP OF VALENCE BANDS -    BAND     99; K    1; EIG -2.2272436E-01 AU
 BOTTOM OF VIRTUAL BANDS - BAND    100; K    1; EIG -8.9817051E-02 AU
 DIRECT ENERGY BAND GAP:   3.6166 eV
 TTTTTTTTTTTTTTTTTTTTTTTTTTTTTT PDIG        TELAPSE      125.63 TCPU     3542.69
 CHARGE NORMALIZATION FACTOR   1.00000000
 TOTAL ATOMIC CHARGES:
   4.4643897   4.4646888   4.4637889   4.4634877   4.4639065   4.4626651
   0.8787121   0.8790765   0.8802107   0.8798977   0.8757882   0.8758916
   0.8758549   0.8758399   0.8801154   0.8798890   0.8785947   0.8788315
   5.9265508   6.1635391   6.1637852   6.1805035   6.1808727   5.9254106
   5.9340418   6.1664129   6.1659889   6.1670400   6.1654380   5.9347732
   5.9266335   6.1804925   6.1811510   6.1634364   6.1640391   5.9254620
   8.5083032   8.5086582   8.5143296   8.5083582   8.5146002   8.5085505
 TTTTTTTTTTTTTTTTTTTTTTTTTTTTTT MOQGAD      TELAPSE      125.69 TCPU     3542.75
 TTTTTTTTTTTTTTTTTTTTTTTTTTTTTT SHELLXN     TELAPSE      139.86 TCPU     3994.93
 TTTTTTTTTTTTTTTTTTTTTTTTTTTTTT MONMO3      TELAPSE      140.06 TCPU     4001.23
 NUMERICALLY INTEGRATED DENSITY    197.9999905612
 TTTTTTTTTTTTTTTTTTTTTTTTTTTTTT NUMDFT      TELAPSE      140.78 TCPU     4024.32
 CYC   7 ETOT(AU) -1.289112473119E+03 DETOT -6.10E-05 tst  1.53E-06 PX  1.38E-03
 TTTTTTTTTTTTTTTTTTTTTTTTTTTTTT DIIS        TELAPSE      140.86 TCPU     4026.85
 DIIS TEST: 0.11199E-04 AT SCF   CYCLE   7 - DIIS ACTIVE - HISTORY:     7 CYCLES
 TTTTTTTTTTTTTTTTTTTTTTTTTTTTTT FDIK        TELAPSE      141.35 TCPU     4042.48
 INSULATING STATE
 TOP OF VALENCE BANDS -    BAND     99; K    1; EIG -2.2276657E-01 AU
 BOTTOM OF VIRTUAL BANDS - BAND    100; K    1; EIG -8.9863300E-02 AU
 DIRECT ENERGY BAND GAP:   3.6165 eV
 TTTTTTTTTTTTTTTTTTTTTTTTTTTTTT PDIG        TELAPSE      141.65 TCPU     4048.52
 CHARGE NORMALIZATION FACTOR   1.00000000
 TOTAL ATOMIC CHARGES:
   4.4641610   4.4648037   4.4639102   4.4638464   4.4642494   4.4626801
   0.8786231   0.8789619   0.8801240   0.8797678   0.8757298   0.8758239
   0.8758177   0.8757495   0.8800082   0.8797793   0.8784944   0.8787278
   5.9259864   6.1635079   6.1641350   6.1797990   6.1811588   5.9265590
   5.9332536   6.1662636   6.1661803   6.1667696   6.1657655   5.9353151
   5.9262387   6.1798998   6.1813224   6.1634472   6.1643490   5.9264453
   8.5086710   8.5090241   8.5132549   8.5087902   8.5136139   8.5089916
 TTTTTTTTTTTTTTTTTTTTTTTTTTTTTT MOQGAD      TELAPSE      141.71 TCPU     4048.58
 TTTTTTTTTTTTTTTTTTTTTTTTTTTTTT SHELLXN     TELAPSE      155.89 TCPU     4500.75
 TTTTTTTTTTTTTTTTTTTTTTTTTTTTTT MONMO3      TELAPSE      156.08 TCPU     4507.05
 NUMERICALLY INTEGRATED DENSITY    197.9999905712
 TTTTTTTTTTTTTTTTTTTTTTTTTTTTTT NUMDFT      TELAPSE      156.81 TCPU     4530.16
 CYC   8 ETOT(AU) -1.289112475339E+03 DETOT -2.22E-06 tst  3.53E-08 PX  3.97E-04
 TTTTTTTTTTTTTTTTTTTTTTTTTTTTTT DIIS        TELAPSE      156.89 TCPU     4532.80
 DIIS TEST: 0.80064E-06 AT SCF   CYCLE   8 - DIIS ACTIVE - HISTORY:     8 CYCLES
 TTTTTTTTTTTTTTTTTTTTTTTTTTTTTT FDIK        TELAPSE      157.37 TCPU     4548.24
 INSULATING STATE
 TOP OF VALENCE BANDS -    BAND     99; K    1; EIG -2.2277686E-01 AU
 BOTTOM OF VIRTUAL BANDS - BAND    100; K    1; EIG -8.9878999E-02 AU
 DIRECT ENERGY BAND GAP:   3.6163 eV
 TTTTTTTTTTTTTTTTTTTTTTTTTTTTTT PDIG        TELAPSE      157.67 TCPU     4554.27
 CHARGE NORMALIZATION FACTOR   1.00000000
 TOTAL ATOMIC CHARGES:
   4.4642745   4.4648448   4.4639391   4.4638457   4.4642614   4.4627428
   0.8785802   0.8789405   0.8801101   0.8797594   0.8757196   0.8758029
   0.8757881   0.8757479   0.8800119   0.8797537   0.8784568   0.8787014
   5.9259647   6.1636139   6.1640528   6.1798914   6.1812246   5.9262755
   5.9333175   6.1662929   6.1662238   6.1669562   6.1656476   5.9349996
   5.9261396   6.1798931   6.1814883   6.1635782   6.1642391   5.9262407
   8.5086361   8.5089634   8.5135378   8.5086991   8.5139729   8.5088704
 TTTTTTTTTTTTTTTTTTTTTTTTTTTTTT MOQGAD      TELAPSE      157.73 TCPU     4554.33
 TTTTTTTTTTTTTTTTTTTTTTTTTTTTTT SHELLXN     TELAPSE      171.90 TCPU     5006.45
 TTTTTTTTTTTTTTTTTTTTTTTTTTTTTT MONMO3      TELAPSE      172.09 TCPU     5012.75
 NUMERICALLY INTEGRATED DENSITY    197.9999905670
 TTTTTTTTTTTTTTTTTTTTTTTTTTTTTT NUMDFT      TELAPSE      172.82 TCPU     5035.83
 CYC   9 ETOT(AU) -1.289112475416E+03 DETOT -7.68E-08 tst  2.09E-09 PX  1.30E-04
 TTTTTTTTTTTTTTTTTTTTTTTTTTTTTT DIIS        TELAPSE      172.90 TCPU     5038.64
 DIIS TEST: 0.51325E-07 AT SCF   CYCLE   9 - DIIS ACTIVE - HISTORY:     9 CYCLES
 TTTTTTTTTTTTTTTTTTTTTTTTTTTTTT FDIK        TELAPSE      173.39 TCPU     5054.14
 INSULATING STATE
 TOP OF VALENCE BANDS -    BAND     99; K    1; EIG -2.2277371E-01 AU
 BOTTOM OF VIRTUAL BANDS - BAND    100; K    1; EIG -8.9877946E-02 AU
 DIRECT ENERGY BAND GAP:   3.6163 eV
 TTTTTTTTTTTTTTTTTTTTTTTTTTTTTT PDIG        TELAPSE      173.69 TCPU     5060.17
 CHARGE NORMALIZATION FACTOR   1.00000000
 TOTAL ATOMIC CHARGES:
   4.4642503   4.4648186   4.4639192   4.4638291   4.4642392   4.4627380
   0.8785880   0.8789355   0.8801105   0.8797614   0.8757098   0.8758009
   0.8757904   0.8757339   0.8800019   0.8797662   0.8784629   0.8786979
   5.9259440   6.1635806   6.1641118   6.1799311   6.1811914   5.9262869
   5.9332799   6.1663119   6.1661957   6.1668566   6.1657382   5.9351524
   5.9261410   6.1799932   6.1813943   6.1635036   6.1643404   5.9262290
   8.5085977   8.5089522   8.5135741   8.5086989   8.5139432   8.5088982
 TTTTTTTTTTTTTTTTTTTTTTTTTTTTTT MOQGAD      TELAPSE      173.75 TCPU     5060.23
 TTTTTTTTTTTTTTTTTTTTTTTTTTTTTT SHELLXN     TELAPSE      187.94 TCPU     5512.59
 +++ ENERGIES IN A.U. +++
 ::: EXT EL-POLE                                  -1.6720028955285E+03
 ::: EXT EL-SPHEROPOLE                             1.8471007579776E+01
 ::: BIELET ZONE E-E                               2.5653350144530E+03
 ::: TOTAL E-E                                     9.1180312650430E+02
 ::: TOTAL E-N + N-E                              -3.6445723426189E+03
 ::: TOTAL N-N                                     2.9737260062512E+02
 ::: KINETIC ENERGY                                1.2800439346052E+03
 ::: PSEUDO TOTAL   ENERGY                        -1.1553526808844E+03
 ::: VIRIAL COEFFICIENT                            1.0511995676301E+00
 TTTTTTTTTTTTTTTTTTTTTTTTTTTTTT MONMO3      TELAPSE      188.13 TCPU     5518.90
 NUMERICALLY INTEGRATED DENSITY    197.9999905676
 EXCHANGE ENERGY: -0.126031585658E+03  CORRELATION ENERGY: -0.772820891645E+01
 TTTTTTTTTTTTTTTTTTTTTTTTTTTTTT NUMDFT      TELAPSE      188.86 TCPU     5542.06
 CYC  10 ETOT(AU) -1.289112475459E+03 DETOT -4.32E-08 tst  4.04E-10 PX  1.30E-04

 == SCF ENDED - CONVERGENCE ON ENERGY      E(AU) -1.2891124754593E+03 CYCLES  10


 ENERGY EXPRESSION=HARTREE+FOCK EXCH*0.00000+(HSESOL     EXCH)*1.00000+PBESOL     CORR


 TOTAL ENERGY(DFT)(AU)( 10) -1.2891124754593E+03 DE-4.3E-08 tester 4.0E-10
 TTTTTTTTTTTTTTTTTTTTTTTTTTTTTT EDFT        TELAPSE      188.86 TCPU     5542.08
 
 INFORMATION **** DFTD3 ENERGY **** CALCULATE DFTD3 ENERGY

           DFT-D V3(BJ)
 DF                                         hsesol3c  
 parameters
 s6       :    1.0000
 s8       :    0.0000
 a1       :    0.5196
 a2       :    4.9385
 k1 k3    :   16.0000   -4.0000
 Cutoff   :   50.2022
 CN-Cutoff:   21.1671
 ABC-Cutoff:   21.1671
 
 Edisp /kcal,au:   -33.8647 -0.05396680

 E6    /kcal :   -36.2785
 E8    /kcal :     0.0000
 E6(ABC) "   :   2.413809
 
 INFORMATION **** DFTD3 ENERGY **** NORMAL TERMINATION OF DFTD3 MODULE

 GCP ENERGY CALCULATION
  level        hsesol3c            basis:hsesol3c
  Nbf            474
  Atoms           42

  Parameters: 
  sigma     1.0000
  eta       1.4281
  alpha     0.2936
  beta      1.9467

  dmp_scal      4.0000
  dmp_exp       6.0000
 cutoffs: 
   distance [bohr] 60.0
   noise    [a.u.] 2.2E-16
 SR-damping   T
 ** gCP correction **
  Egcp:        0.0863573109 / (a.u.) ||      54.1900 / (kcal/mol)
 INFORMATION **** GCP **** NORMAL TERMINATION OF GCP MODULE

 *******************************************************************************

 DFT-D3-GCP DISPERSION AND COUNTERPOISE CORRECTION

 D3 DISPERSION ENERGY (AU)      -5.3966802579953E-02
 GCP ENERGY (AU)                 8.6357310898082E-02
 TOTAL ENERGY + DISP + GCP (AU) -1.2890800849509E+03

 *******************************************************************************

 EIGENVECTORS IN FORTRAN UNIT  8
 TTTTTTTTTTTTTTTTTTTTTTTTTTTTTT END         TELAPSE      190.57 TCPU     5549.56
 EEEEEEEEEE TERMINATION  DATE 19 02 2026 TIME 17:53:23.1
