 Default number of threads is:           32

         
 *******************************************************************************
 *                                                                             *
 *                               CRYSTAL23                                     *
 *                      public : 1.0.1 - October 2022                          *
 *                       HTTP://WWW.CRYSTAL.UNITO.IT                           *
 *                                                                             *
 *                              MAIN AUTHORS                                   *
 *                                                                             *
 *  R. DOVESI(1,11), V.R. SAUNDERS(2), C. ROETTI(1,11), R. ORLANDO(1,11),      *
 *  C.M. ZICOVICH-WILSON(1,3), F. PASCALE(4), B. CIVALLERI(1,11),              *
 *  K. DOLL(5), N.M. HARRISON(6), I.J. BUSH(7), Ph. D'ARCO(8),                 *
 *  M. LLUNELL(9), M. CAUSA'(10), Y. NOEL(8), L. MASCHIO(1,11), A. ERBA(1,11)  *
 *  M. RE'RAT(14), S. CASASSA(1,11), B.G. SEARLE(2), J.K. DESMARAIS(1)         *
 *                                                                             *
 *        CONTRIBUTIONS TO THE CODE HAVE ALSO BEEN GIVEN BY                    *
 *                                                                             *
 *  M. FERRABONE(1,11), M. DE LA PIERRE(1,11), M. FERRERO(1,11),               *
 *  J. BAIMA(1,11), E. ALBANESE(1,11), M.F. PEINTINGER(12), R. BAST(13),       *
 *  B. KIRTMAN(15), V. LACIVITA(1,11), R. DEMICHELIS(1,16)                     *
 *  G. BRANDEBURG(17), S. SALUSTRO(1,11), G. SANSONE(1,11)                     *
 *  M.T. RUGGIERO(18), L.E. DAGA(1), L. DONA'(1), A. COSSARD(1)                *
 *                                                                             *
 * (1) THEORETICAL CHEMISTRY GROUP - UNIVERSITA' DI TORINO - TORINO (ITALY)    *
 * (2) SCIENTIFIC COMPUTING DEPARTMENT - STFC DARESBURY (UK)                   *
 * (3) UNIVERSIDAD AUTONOMA DEL ESTADO DE MORELOS - CUERNAVACA (MEXICO)        *
 * (4) UNIVERSITE' DE LORRAINE - NANCY (FRANCE)                                *
 * (5) UNIVERSITAET STUTTGART- STUTTGART (GERMANY)                             *
 * (6) IMPERIAL COLLEGE - LONDON (UK)                                          *
 * (7) SCIENTIFIC COMPUTING DEPARTMENT - STFC RAL (UK)                         *
 * (8) UPMC - SORBONNE UNIVERSITES - PARIS (FRANCE)                            *
 * (9) UNIVERSIDAD DE BARCELONA - BARCELONA (SPAIN)                            *
 *(10) UNIVERSITA' DI NAPOLI "FEDERICO II" - NAPOLI (ITALY)                    *
 *(11) NIS - NANOSTRUCTURED INTERFACES AND SURFACES - TORINO (ITALY)           *
 *(12) MPI FUER CHEMISCHE ENERGIEKONVERSION - MUELHEIM AN DER RUHR (GERMANY)   *
 *(13) UNIVERSITY OF TROMSO - TROMSO (NORWAY)                                  *
 *(14) UNIVERSITE' DE PAU ET DES PAYS DE L'ADOUR - PAU (FRANCE)                *
 *(15) UNIVERSITY OF CALIFORNIA SANTA BARBARA - SANTA BARBARA (USA)            *
 *(16) CURTIN UNIVERSITY - PERTH (AUSTRALIA)                                   *
 *(17) UNIVERSITY COLLEGE LONDON - LONDON (UK)                                 *
 *(18) UNIVERSITY OF VERMONT - BURLINGTON (USA)                                *
 *                                                                             *
 *******************************************************************************
 EEEEEEEEEE STARTING  DATE 19 02 2026 TIME 19:58:27.6
 cof-1_z33_L060_serr                                                             

 CRYSTAL CALCULATION
 (INPUT ACCORDING TO THE INTERNATIONAL TABLES FOR X-RAY CRYSTALLOGRAPHY)
 CRYSTAL FAMILY                       :  TRICLINIC   
 CRYSTAL CLASS  (GROTH - 1921)        :  TRICLINIC PEDIAL                     

 SPACE GROUP (NONCENTROSYMMETRIC)     :  P 1             

 LATTICE PARAMETERS  (ANGSTROMS AND DEGREES) - CONVENTIONAL CELL
        A           B           C        ALPHA        BETA       GAMMA
    15.02361    15.02392     6.60000    90.00032    89.99994   119.99596


 NUMBER OF IRREDUCIBLE ATOMS IN THE CONVENTIONAL CELL:   84

 INPUT COORDINATES

 ATOM AT. N.              COORDINATES
   1   5     6.136805400000E-01  2.273182200000E-01  2.507237400000E-01
   2   5     8.442202100000E-01  6.884444200000E-01  7.507237400000E-01
   3   5     7.727362000000E-01  3.863778800000E-01  2.507237500000E-01
   4   5     3.275870000000E-03  8.475040800000E-01  7.507237500000E-01
   5   5     6.136762700000E-01  3.863606700000E-01  2.492020600000E-01
   6   5     8.442159400000E-01  8.474868700000E-01  7.492020600000E-01
   7   5     2.272552500000E-01  6.136332200000E-01  2.507237500000E-01
   8   5     4.577949200000E-01  7.475942000000E-02  7.507237500000E-01
   9   5     3.863632200000E-01  6.136124500000E-01  2.507237500000E-01
  10   5     6.169028900000E-01  7.473865000000E-02  7.507237500000E-01
  11   5     3.863435000000E-01  7.727516500000E-01  2.492020600000E-01
  12   5     6.168831700000E-01  2.338778500000E-01  7.492020600000E-01
  13   1     9.030436200000E-01  3.089300500000E-01  2.475689700000E-01
  14   1     1.335832900000E-01  7.700562500000E-01  7.475689700000E-01
  15   1     9.663453000000E-02  6.910534400000E-01  2.470865600000E-01
  16   1     3.271742000000E-01  1.521796400000E-01  7.470865500000E-01
  17   1     9.029714200000E-01  5.940724300000E-01  2.470123000000E-01
  18   1     1.335110900000E-01  5.519863000000E-02  7.470123000000E-01
  19   1     9.673618000000E-02  4.056849400000E-01  2.470308300000E-01
  20   1     3.272758500000E-01  8.668111400000E-01  7.470308200000E-01
  21   1     6.910324000000E-01  9.700412000000E-02  2.524310500000E-01
  22   1     9.215720700000E-01  5.581303200000E-01  7.524310500000E-01
  23   1     3.089297200000E-01  9.034373100000E-01  2.529135000000E-01
  24   1     5.394693900000E-01  3.645635100000E-01  7.529135000000E-01
  25   1     4.058699900000E-01  9.704998000000E-02  2.529877900000E-01
  26   1     6.364096600000E-01  5.581761800000E-01  7.529877900000E-01
  27   1     5.943122100000E-01  9.033473200000E-01  2.529691500000E-01
  28   1     8.248518800000E-01  3.644735200000E-01  7.529691500000E-01
  29   1     6.910727400000E-01  5.940542100000E-01  2.475690000000E-01
  30   1     9.216124100000E-01  5.518041000000E-02  7.475690000000E-01
  31   1     3.089618300000E-01  4.056093300000E-01  2.470865300000E-01
  32   1     5.395015000000E-01  8.667355300000E-01  7.470865200000E-01
  33   1     4.058405700000E-01  3.088232500000E-01  2.470122500000E-01
  34   1     6.363802400000E-01  7.699494500000E-01  7.470122500000E-01
  35   1     5.942908800000E-01  6.909579300000E-01  2.470308900000E-01
  36   1     8.248305500000E-01  1.520841300000E-01  7.470308800000E-01
  37   6     8.918903100000E-01  4.459436900000E-01  2.491463800000E-01
  38   6     1.224299800000E-01  9.070698900000E-01  7.491463800000E-01
  39   6     9.464891100000E-01  3.927856300000E-01  2.476432100000E-01
  40   6     1.770287800000E-01  8.539118300000E-01  7.476432100000E-01
  41   6     5.338812000000E-02  6.071853000000E-01  2.475133600000E-01
  42   6     2.839277900000E-01  6.831150000000E-02  7.475133600000E-01
  43   6     9.464521100000E-01  5.536921900000E-01  2.479030600000E-01
  44   6     1.769917800000E-01  1.481839000000E-02  7.479030600000E-01
  45   6     5.342634000000E-02  4.462499700000E-01  2.469009200000E-01
  46   6     2.839660100000E-01  9.073761700000E-01  7.469009300000E-01
  47   6     1.080358900000E-01  5.540356300000E-01  2.479216000000E-01
  48   6     3.385755600000E-01  1.516183000000E-02  7.479216000000E-01
  49   6     5.540394200000E-01  1.081684600000E-01  2.508536600000E-01
  50   6     7.845790900000E-01  5.692946600000E-01  7.508536600000E-01
  51   6     6.071778500000E-01  5.355594000000E-02  2.523568000000E-01
  52   6     8.377175200000E-01  5.146821400000E-01  7.523568000000E-01
  53   6     3.927986700000E-01  9.466631600000E-01  2.524867000000E-01
  54   6     6.233383400000E-01  4.077893600000E-01  7.524867000000E-01
  55   6     4.462875800000E-01  5.360286000000E-02  2.520970100000E-01
  56   6     6.768272500000E-01  5.147290600000E-01  7.520970100000E-01
  57   6     5.537168500000E-01  9.466235600000E-01  2.530990800000E-01
  58   6     7.842565200000E-01  4.077497600000E-01  7.530990800000E-01
  59   6     4.459279100000E-01  8.919920600000E-01  2.520784300000E-01
  60   6     6.764675800000E-01  3.531182600000E-01  7.520784300000E-01
  61   6     5.540448700000E-01  4.458745500000E-01  2.491463800000E-01
  62   6     7.845845400000E-01  9.070007500000E-01  7.491463800000E-01
  63   6     6.072102200000E-01  5.536257800000E-01  2.476432500000E-01
  64   6     8.377498900000E-01  1.475198000000E-02  7.476432500000E-01
  65   6     3.928233700000E-01  4.461720300000E-01  2.475133300000E-01
  66   6     6.233630400000E-01  9.072982300000E-01  7.475133300000E-01
  67   6     4.462872600000E-01  3.926899900000E-01  2.479030200000E-01
  68   6     6.768269300000E-01  8.538161900000E-01  7.479030200000E-01
  69   6     5.537429600000E-01  6.070980000000E-01  2.469009700000E-01
  70   6     7.842826300000E-01  6.822420000000E-02  7.469009600000E-01
  71   6     4.459599800000E-01  5.539582300000E-01  2.479216000000E-01
  72   6     6.764996500000E-01  1.508443000000E-02  7.479216000000E-01
  73   8     5.607366800000E-01  2.803706300000E-01  2.496103100000E-01
  74   8     7.912763500000E-01  7.414968300000E-01  7.496103100000E-01
  75   8     7.196817000000E-01  2.803783300000E-01  2.528207200000E-01
  76   8     9.502213700000E-01  7.415045300000E-01  7.528207200000E-01
  77   8     7.196794200000E-01  4.393234600000E-01  2.479772800000E-01
  78   8     9.502190900000E-01  9.004496600000E-01  7.479772800000E-01
  79   8     2.803245100000E-01  7.196511100000E-01  2.496103300000E-01
  80   8     5.108641800000E-01  1.807773100000E-01  7.496103300000E-01
  81   8     2.803439700000E-01  5.606956100000E-01  2.528207100000E-01
  82   8     5.108836400000E-01  2.182181000000E-02  7.528207100000E-01
  83   8     4.392638400000E-01  7.196354200000E-01  2.479772700000E-01
  84   8     6.698035100000E-01  1.807616200000E-01  7.479772800000E-01

 *******************************************************************************

 << INFORMATION >>: FROM NOW ON, ALL COORDINATES REFER TO THE PRIMITIVE CELL

 *******************************************************************************

 LATTICE PARAMETERS  (ANGSTROMS AND DEGREES) - PRIMITIVE CELL
       A          B          C        ALPHA      BETA     GAMMA        VOLUME
   15.02361   15.02392    6.60000    90.00032  89.99994 119.99596   1290.178217

 COORDINATES OF THE EQUIVALENT ATOMS (FRACTIONAL UNITS)

 N. ATOM EQUIV AT. N.          X                  Y                  Z

   1   1   1    5 B    -3.86319460000E-01  2.27318220000E-01  2.50723740000E-01

   2   2   1    5 B    -1.55779790000E-01 -3.11555580000E-01 -2.49276260000E-01

   3   3   1    5 B    -2.27263800000E-01  3.86377880000E-01  2.50723750000E-01

   4   4   1    5 B     3.27587000000E-03 -1.52495920000E-01 -2.49276250000E-01

   5   5   1    5 B    -3.86323730000E-01  3.86360670000E-01  2.49202060000E-01

   6   6   1    5 B    -1.55784060000E-01 -1.52513130000E-01 -2.50797940000E-01

   7   7   1    5 B     2.27255250000E-01 -3.86366780000E-01  2.50723750000E-01

   8   8   1    5 B     4.57794920000E-01  7.47594200000E-02 -2.49276250000E-01

   9   9   1    5 B     3.86363220000E-01 -3.86387550000E-01  2.50723750000E-01

  10  10   1    5 B    -3.83097110000E-01  7.47386500000E-02 -2.49276250000E-01

  11  11   1    5 B     3.86343500000E-01 -2.27248350000E-01  2.49202060000E-01

  12  12   1    5 B    -3.83116830000E-01  2.33877850000E-01 -2.50797940000E-01

  13  13   1    1 H    -9.69563800000E-02  3.08930050000E-01  2.47568970000E-01

  14  14   1    1 H     1.33583290000E-01 -2.29943750000E-01 -2.52431030000E-01

  15  15   1    1 H     9.66345300000E-02 -3.08946560000E-01  2.47086560000E-01

  16  16   1    1 H     3.27174200000E-01  1.52179640000E-01 -2.52913450000E-01

  17  17   1    1 H    -9.70285800000E-02 -4.05927570000E-01  2.47012300000E-01

  18  18   1    1 H     1.33511090000E-01  5.51986300000E-02 -2.52987700000E-01

  19  19   1    1 H     9.67361800000E-02  4.05684940000E-01  2.47030830000E-01

  20  20   1    1 H     3.27275850000E-01 -1.33188860000E-01 -2.52969180000E-01

  21  21   1    1 H    -3.08967600000E-01  9.70041200000E-02  2.52431050000E-01

  22  22   1    1 H    -7.84279300000E-02 -4.41869680000E-01 -2.47568950000E-01

  23  23   1    1 H     3.08929720000E-01 -9.65626900000E-02  2.52913500000E-01

  24  24   1    1 H    -4.60530610000E-01  3.64563510000E-01 -2.47086500000E-01

  25  25   1    1 H     4.05869990000E-01  9.70499800000E-02  2.52987790000E-01

  26  26   1    1 H    -3.63590340000E-01 -4.41823820000E-01 -2.47012210000E-01

  27  27   1    1 H    -4.05687790000E-01 -9.66526800000E-02  2.52969150000E-01

  28  28   1    1 H    -1.75148120000E-01  3.64473520000E-01 -2.47030850000E-01

  29  29   1    1 H    -3.08927260000E-01 -4.05945790000E-01  2.47569000000E-01

  30  30   1    1 H    -7.83875900000E-02  5.51804100000E-02 -2.52431000000E-01

  31  31   1    1 H     3.08961830000E-01  4.05609330000E-01  2.47086530000E-01

  32  32   1    1 H    -4.60498500000E-01 -1.33264470000E-01 -2.52913480000E-01

  33  33   1    1 H     4.05840570000E-01  3.08823250000E-01  2.47012250000E-01

  34  34   1    1 H    -3.63619760000E-01 -2.30050550000E-01 -2.52987750000E-01

  35  35   1    1 H    -4.05709120000E-01 -3.09042070000E-01  2.47030890000E-01

  36  36   1    1 H    -1.75169450000E-01  1.52084130000E-01 -2.52969120000E-01

  37  37   1    6 C    -1.08109690000E-01  4.45943690000E-01  2.49146380000E-01

  38  38   1    6 C     1.22429980000E-01 -9.29301100000E-02 -2.50853620000E-01

  39  39   1    6 C    -5.35108900000E-02  3.92785630000E-01  2.47643210000E-01

  40  40   1    6 C     1.77028780000E-01 -1.46088170000E-01 -2.52356790000E-01

  41  41   1    6 C     5.33881200000E-02 -3.92814700000E-01  2.47513360000E-01

  42  42   1    6 C     2.83927790000E-01  6.83115000000E-02 -2.52486640000E-01

  43  43   1    6 C    -5.35478900000E-02 -4.46307810000E-01  2.47903060000E-01

  44  44   1    6 C     1.76991780000E-01  1.48183900000E-02 -2.52096940000E-01

  45  45   1    6 C     5.34263400000E-02  4.46249970000E-01  2.46900920000E-01

  46  46   1    6 C     2.83966010000E-01 -9.26238300000E-02 -2.53099070000E-01

  47  47   1    6 C     1.08035890000E-01 -4.45964370000E-01  2.47921600000E-01

  48  48   1    6 C     3.38575560000E-01  1.51618300000E-02 -2.52078400000E-01

  49  49   1    6 C    -4.45960580000E-01  1.08168460000E-01  2.50853660000E-01

  50  50   1    6 C    -2.15420910000E-01 -4.30705340000E-01 -2.49146340000E-01

  51  51   1    6 C    -3.92822150000E-01  5.35559400000E-02  2.52356800000E-01

  52  52   1    6 C    -1.62282480000E-01 -4.85317860000E-01 -2.47643200000E-01

  53  53   1    6 C     3.92798670000E-01 -5.33368400000E-02  2.52486700000E-01

  54  54   1    6 C    -3.76661660000E-01  4.07789360000E-01 -2.47513300000E-01

  55  55   1    6 C     4.46287580000E-01  5.36028600000E-02  2.52097010000E-01

  56  56   1    6 C    -3.23172750000E-01 -4.85270940000E-01 -2.47902990000E-01

  57  57   1    6 C    -4.46283150000E-01 -5.33764400000E-02  2.53099080000E-01

  58  58   1    6 C    -2.15743480000E-01  4.07749760000E-01 -2.46900920000E-01

  59  59   1    6 C     4.45927910000E-01 -1.08007940000E-01  2.52078430000E-01

  60  60   1    6 C    -3.23532420000E-01  3.53118260000E-01 -2.47921570000E-01

  61  61   1    6 C    -4.45955130000E-01  4.45874550000E-01  2.49146380000E-01

  62  62   1    6 C    -2.15415460000E-01 -9.29992500000E-02 -2.50853620000E-01

  63  63   1    6 C    -3.92789780000E-01 -4.46374220000E-01  2.47643250000E-01

  64  64   1    6 C    -1.62250110000E-01  1.47519800000E-02 -2.52356750000E-01

  65  65   1    6 C     3.92823370000E-01  4.46172030000E-01  2.47513330000E-01

  66  66   1    6 C    -3.76636960000E-01 -9.27017700000E-02 -2.52486670000E-01

  67  67   1    6 C     4.46287260000E-01  3.92689990000E-01  2.47903020000E-01

  68  68   1    6 C    -3.23173070000E-01 -1.46183810000E-01 -2.52096980000E-01

  69  69   1    6 C    -4.46257040000E-01 -3.92902000000E-01  2.46900970000E-01

  70  70   1    6 C    -2.15717370000E-01  6.82242000000E-02 -2.53099040000E-01

  71  71   1    6 C     4.45959980000E-01 -4.46041770000E-01  2.47921600000E-01

  72  72   1    6 C    -3.23500350000E-01  1.50844300000E-02 -2.52078400000E-01

  73  73   1    8 O    -4.39263320000E-01  2.80370630000E-01  2.49610310000E-01

  74  74   1    8 O    -2.08723650000E-01 -2.58503170000E-01 -2.50389690000E-01

  75  75   1    8 O    -2.80318300000E-01  2.80378330000E-01  2.52820720000E-01

  76  76   1    8 O    -4.97786300000E-02 -2.58495470000E-01 -2.47179280000E-01

  77  77   1    8 O    -2.80320580000E-01  4.39323460000E-01  2.47977280000E-01

  78  78   1    8 O    -4.97809100000E-02 -9.95503400000E-02 -2.52022720000E-01

  79  79   1    8 O     2.80324510000E-01 -2.80348890000E-01  2.49610330000E-01

  80  80   1    8 O    -4.89135820000E-01  1.80777310000E-01 -2.50389670000E-01

  81  81   1    8 O     2.80343970000E-01 -4.39304390000E-01  2.52820710000E-01

  82  82   1    8 O    -4.89116360000E-01  2.18218100000E-02 -2.47179290000E-01

  83  83   1    8 O     4.39263840000E-01 -2.80364580000E-01  2.47977270000E-01

  84  84   1    8 O    -3.30196490000E-01  1.80761620000E-01 -2.52022720000E-01

 NUMBER OF SYMMETRY OPERATORS         :    1
 *******************************************************************************
 * GEOMETRY EDITING - INPUT COORDINATES ARE GIVEN IN ANGSTROM         
 *******************************************************************************

 GCALCO - MAX INDICES DIRECT LATTICE VECTOR    11    11    23
 NO.OF VECTORS CREATED 6999 STARS 3500 RMAX   244.92321 BOHR

 GEOMETRY FOR WAVE FUNCTION - DIMENSIONALITY OF THE SYSTEM    3
 (NON PERIODIC DIRECTION: LATTICE PARAMETER FORMALLY SET TO 500)
 *******************************************************************************
 LATTICE PARAMETERS (ANGSTROMS AND DEGREES) - BOHR = 0.5291772083 ANGSTROM
 PRIMITIVE CELL - CENTRING CODE 1/0 VOLUME=  1290.178217 - DENSITY  1.004 g/cm^3
         A              B              C           ALPHA      BETA       GAMMA 
    15.02361100    15.02391600     6.60000000    90.000323  89.999944 119.995964
 *******************************************************************************
 ATOMS IN THE ASYMMETRIC UNIT   84 - ATOMS IN THE UNIT CELL:   84
     ATOM                 X/A                 Y/B                 Z/C    
 *******************************************************************************
      1 T   5 B    -3.863194600000E-01  2.273182200000E-01  2.507237400000E-01
      2 T   5 B    -1.557797900000E-01 -3.115555800000E-01 -2.492762600000E-01
      3 T   5 B    -2.272638000000E-01  3.863778800000E-01  2.507237500000E-01
      4 T   5 B     3.275870000000E-03 -1.524959200000E-01 -2.492762500000E-01
      5 T   5 B    -3.863237300000E-01  3.863606700000E-01  2.492020600000E-01
      6 T   5 B    -1.557840600000E-01 -1.525131300000E-01 -2.507979400000E-01
      7 T   5 B     2.272552500000E-01 -3.863667800000E-01  2.507237500000E-01
      8 T   5 B     4.577949200000E-01  7.475942000000E-02 -2.492762500000E-01
      9 T   5 B     3.863632200000E-01 -3.863875500000E-01  2.507237500000E-01
     10 T   5 B    -3.830971100000E-01  7.473865000000E-02 -2.492762500000E-01
     11 T   5 B     3.863435000000E-01 -2.272483500000E-01  2.492020600000E-01
     12 T   5 B    -3.831168300000E-01  2.338778500000E-01 -2.507979400000E-01
     13 T   1 H    -9.695638000000E-02  3.089300500000E-01  2.475689700000E-01
     14 T   1 H     1.335832900000E-01 -2.299437500000E-01 -2.524310300000E-01
     15 T   1 H     9.663453000000E-02 -3.089465600000E-01  2.470865600000E-01
     16 T   1 H     3.271742000000E-01  1.521796400000E-01 -2.529134500000E-01
     17 T   1 H    -9.702858000000E-02 -4.059275700000E-01  2.470123000000E-01
     18 T   1 H     1.335110900000E-01  5.519863000000E-02 -2.529877000000E-01
     19 T   1 H     9.673618000000E-02  4.056849400000E-01  2.470308300000E-01
     20 T   1 H     3.272758500000E-01 -1.331888600000E-01 -2.529691800000E-01
     21 T   1 H    -3.089676000000E-01  9.700412000000E-02  2.524310500000E-01
     22 T   1 H    -7.842793000000E-02 -4.418696800000E-01 -2.475689500000E-01
     23 T   1 H     3.089297200000E-01 -9.656269000000E-02  2.529135000000E-01
     24 T   1 H    -4.605306100000E-01  3.645635100000E-01 -2.470865000000E-01
     25 T   1 H     4.058699900000E-01  9.704998000000E-02  2.529877900000E-01
     26 T   1 H    -3.635903400000E-01 -4.418238200000E-01 -2.470122100000E-01
     27 T   1 H    -4.056877900000E-01 -9.665268000000E-02  2.529691500000E-01
     28 T   1 H    -1.751481200000E-01  3.644735200000E-01 -2.470308500000E-01
     29 T   1 H    -3.089272600000E-01 -4.059457900000E-01  2.475690000000E-01
     30 T   1 H    -7.838759000000E-02  5.518041000000E-02 -2.524310000000E-01
     31 T   1 H     3.089618300000E-01  4.056093300000E-01  2.470865300000E-01
     32 T   1 H    -4.604985000000E-01 -1.332644700000E-01 -2.529134800000E-01
     33 T   1 H     4.058405700000E-01  3.088232500000E-01  2.470122500000E-01
     34 T   1 H    -3.636197600000E-01 -2.300505500000E-01 -2.529877500000E-01
     35 T   1 H    -4.057091200000E-01 -3.090420700000E-01  2.470308900000E-01
     36 T   1 H    -1.751694500000E-01  1.520841300000E-01 -2.529691200000E-01
     37 T   6 C    -1.081096900000E-01  4.459436900000E-01  2.491463800000E-01
     38 T   6 C     1.224299800000E-01 -9.293011000000E-02 -2.508536200000E-01
     39 T   6 C    -5.351089000000E-02  3.927856300000E-01  2.476432100000E-01
     40 T   6 C     1.770287800000E-01 -1.460881700000E-01 -2.523567900000E-01
     41 T   6 C     5.338812000000E-02 -3.928147000000E-01  2.475133600000E-01
     42 T   6 C     2.839277900000E-01  6.831150000000E-02 -2.524866400000E-01
     43 T   6 C    -5.354789000000E-02 -4.463078100000E-01  2.479030600000E-01
     44 T   6 C     1.769917800000E-01  1.481839000000E-02 -2.520969400000E-01
     45 T   6 C     5.342634000000E-02  4.462499700000E-01  2.469009200000E-01
     46 T   6 C     2.839660100000E-01 -9.262383000000E-02 -2.530990700000E-01
     47 T   6 C     1.080358900000E-01 -4.459643700000E-01  2.479216000000E-01
     48 T   6 C     3.385755600000E-01  1.516183000000E-02 -2.520784000000E-01
     49 T   6 C    -4.459605800000E-01  1.081684600000E-01  2.508536600000E-01
     50 T   6 C    -2.154209100000E-01 -4.307053400000E-01 -2.491463400000E-01
     51 T   6 C    -3.928221500000E-01  5.355594000000E-02  2.523568000000E-01
     52 T   6 C    -1.622824800000E-01 -4.853178600000E-01 -2.476432000000E-01
     53 T   6 C     3.927986700000E-01 -5.333684000000E-02  2.524867000000E-01
     54 T   6 C    -3.766616600000E-01  4.077893600000E-01 -2.475133000000E-01
     55 T   6 C     4.462875800000E-01  5.360286000000E-02  2.520970100000E-01
     56 T   6 C    -3.231727500000E-01 -4.852709400000E-01 -2.479029900000E-01
     57 T   6 C    -4.462831500000E-01 -5.337644000000E-02  2.530990800000E-01
     58 T   6 C    -2.157434800000E-01  4.077497600000E-01 -2.469009200000E-01
     59 T   6 C     4.459279100000E-01 -1.080079400000E-01  2.520784300000E-01
     60 T   6 C    -3.235324200000E-01  3.531182600000E-01 -2.479215700000E-01
     61 T   6 C    -4.459551300000E-01  4.458745500000E-01  2.491463800000E-01
     62 T   6 C    -2.154154600000E-01 -9.299925000000E-02 -2.508536200000E-01
     63 T   6 C    -3.927897800000E-01 -4.463742200000E-01  2.476432500000E-01
     64 T   6 C    -1.622501100000E-01  1.475198000000E-02 -2.523567500000E-01
     65 T   6 C     3.928233700000E-01  4.461720300000E-01  2.475133300000E-01
     66 T   6 C    -3.766369600000E-01 -9.270177000000E-02 -2.524866700000E-01
     67 T   6 C     4.462872600000E-01  3.926899900000E-01  2.479030200000E-01
     68 T   6 C    -3.231730700000E-01 -1.461838100000E-01 -2.520969800000E-01
     69 T   6 C    -4.462570400000E-01 -3.929020000000E-01  2.469009700000E-01
     70 T   6 C    -2.157173700000E-01  6.822420000000E-02 -2.530990400000E-01
     71 T   6 C     4.459599800000E-01 -4.460417700000E-01  2.479216000000E-01
     72 T   6 C    -3.235003500000E-01  1.508443000000E-02 -2.520784000000E-01
     73 T   8 O    -4.392633200000E-01  2.803706300000E-01  2.496103100000E-01
     74 T   8 O    -2.087236500000E-01 -2.585031700000E-01 -2.503896900000E-01
     75 T   8 O    -2.803183000000E-01  2.803783300000E-01  2.528207200000E-01
     76 T   8 O    -4.977863000000E-02 -2.584954700000E-01 -2.471792800000E-01
     77 T   8 O    -2.803205800000E-01  4.393234600000E-01  2.479772800000E-01
     78 T   8 O    -4.978091000000E-02 -9.955034000000E-02 -2.520227200000E-01
     79 T   8 O     2.803245100000E-01 -2.803488900000E-01  2.496103300000E-01
     80 T   8 O    -4.891358200000E-01  1.807773100000E-01 -2.503896700000E-01
     81 T   8 O     2.803439700000E-01 -4.393043900000E-01  2.528207100000E-01
     82 T   8 O    -4.891163600000E-01  2.182181000000E-02 -2.471792900000E-01
     83 T   8 O     4.392638400000E-01 -2.803645800000E-01  2.479772700000E-01
     84 T   8 O    -3.301964900000E-01  1.807616200000E-01 -2.520227200000E-01

 T = ATOM BELONGING TO THE ASYMMETRIC UNIT

 ****    1 SYMMOPS - TRANSLATORS IN FRACTIONAL UNITS
 **** MATRICES AND TRANSLATORS IN THE CRYSTALLOGRAPHIC REFERENCE FRAME
   V INV                    ROTATION MATRICES                   TRANSLATORS
   1   1  1.00 -0.00  0.00  0.00  1.00  0.00  0.00  0.00  1.00  0.00  0.00  0.00

 DIRECT LATTICE VECTORS CARTESIAN COMPONENTS (ANGSTROM)
          X                    Y                    Z
   0.130113578931E+02  -0.751088897922E+01   0.000000000000E+00
   0.000000000000E+00   0.150239160000E+02   0.000000000000E+00
  -0.140295695767E-04  -0.372069289925E-04   0.659999999988E+01


 CARTESIAN COORDINATES - PRIMITIVE CELL
 *******************************************************************************
 *      ATOM          X(ANGSTROM)         Y(ANGSTROM)         Z(ANGSTROM)
 *******************************************************************************
    1     5 B    -5.026544272659E+00  6.316803088460E+00  1.654776683970E+00
    2     5 B    -2.026903102957E+00 -3.510730880552E+00 -1.645223315970E+00
    3     5 B    -2.957014155482E+00  7.511852655512E+00  1.654776749970E+00
    4     5 B     4.262701421962E-02 -2.315681313499E+00 -1.645223249970E+00
    5     5 B    -5.026599809808E+00 -6.317640374193E+00  1.644733595970E+00
    6     5 B    -2.026958640106E+00 -1.121258343204E+00 -1.655266403970E+00
    7     5 B     2.956895873280E+00 -7.511640329265E+00  1.654776749970E+00
    8     5 B     5.956537042982E+00 -2.315258298277E+00 -1.645223249970E+00
    9     5 B     5.027106614587E+00  6.316921325621E+00  1.654776749970E+00
   10     5 B    -4.984610108767E+00  4.000276335826E+00 -1.645223249970E+00
   11     5 B     5.026850051958E+00 -6.315952529924E+00  1.644733595970E+00
   12     5 B     8.026491221660E+00 -1.119570498935E+00 -1.655266403970E+00
   13     1 H    -1.261537633481E+00  5.369558515801E+00  1.633955201970E+00
   14     1 H     1.738103536221E+00 -4.457975453210E+00 -1.666044797970E+00
   15     1 H     1.257342988139E+00 -5.367407585650E+00  1.630771295970E+00
   16     1 H     4.256984157841E+00 -1.710255546609E-01 -1.669228769970E+00
   17     1 H    -1.262477045711E+00 -5.369860012142E+00  1.630281179970E+00
   18     1 H     1.737164123991E+00 -1.734779811537E-01 -1.669718819970E+00
   19     1 H     1.258665593451E+00  5.368392561513E+00  1.630403477970E+00
   20     1 H     4.258306763153E+00 -4.459141407498E+00 -1.669596587970E+00
   21     1 H    -4.020091562458E+00  3.777993700125E+00  1.666044929970E+00
   22     1 H    -1.020450392756E+00 -6.049540268887E+00 -1.633955069970E+00
   23     1 H     4.019591602454E+00 -3.771095982729E+00  1.669229099970E+00
   24     1 H     7.019232772156E+00  1.425286048259E+00 -1.630770899970E+00
   25     1 H     5.280916148631E+00 -1.590383100463E+00  1.669719413970E+00
   26     1 H    -4.730800574723E+00 -3.907028090258E+00 -1.630280585970E+00
   27     1 H    -5.278552577581E+00  1.594964793214E+00  1.669596389970E+00
   28     1 H    -2.278911407880E+00  6.791346824202E+00 -1.630403609970E+00
   29     1 H    -4.019566616068E+00 -3.778586308282E+00  1.633955399970E+00
   30     1 H    -1.019925446366E+00  1.417795722706E+00 -1.666044599970E+00
   31     1 H     4.020009478906E+00  3.773253305460E+00  1.630771097970E+00
   32     1 H    -5.991707244448E+00  1.456608315665E+00 -1.669228967970E+00
   33     1 H     5.280533438317E+00  1.591501911748E+00  1.630280849970E+00
   34     1 H    -4.731183285038E+00 -7.251430780472E-01 -1.669719149970E+00
   35     1 H    -5.278830026534E+00 -1.595795133231E+00  1.630403873970E+00
   36     1 H    -2.279188856832E+00  3.600586897758E+00 -1.669596191970E+00
   37     6 C    -1.406657363714E+00  7.511811148486E+00  1.644366107970E+00
   38     6 C     1.592983805988E+00 -2.315722820526E+00 -1.655633891970E+00
   39     6 C    -6.962528152936E-01  6.303083451053E+00  1.634445185970E+00
   40     6 C     2.303388354408E+00 -3.524450517959E+00 -1.665554813970E+00
   41     6 C     6.946484640515E-01 -6.302616507706E+00  1.633588175970E+00
   42     6 C     3.694289633753E+00 -1.106234476718E+00 -1.666411823970E+00
   43     6 C    -6.967342391813E-01 -6.303108014434E+00  1.636160195970E+00
   44     6 C     2.302906930521E+00 -1.106725983446E+00 -1.663839803970E+00
   45     6 C     6.951457667425E-01  6.303133569552E+00  1.629546071970E+00
   46     6 C     3.694786936444E+00 -3.524400399460E+00 -1.670453861970E+00
   47     6 C     1.405690151852E+00 -7.511586033835E+00  1.636282559970E+00
   48     6 C     4.405331321554E+00 -2.315204002847E+00 -1.663717439970E+00
   49     6 C     7.208801661113E+00 -2.536224050334E+00  1.655634155970E+00
   50     6 C    -2.802915062242E+00 -4.852869040129E+00 -1.644365843970E+00
   51     6 C    -5.111153122427E+00  3.755054111667E+00  1.665554879970E+00
   52     6 C    -2.111511952725E+00 -6.072479857345E+00 -1.634445119970E+00
   53     6 C     5.110840533007E+00 -3.751604799674E+00  1.666412219970E+00
   54     6 C    -4.900876190348E+00 -6.068249789469E+00 -1.633587779970E+00
   55     6 C     5.806803889794E+00 -2.546700979939E+00  1.663840265970E+00
   56     6 C    -4.204912833561E+00 -4.863345969734E+00 -1.636159733970E+00
   57     6 C    -5.806753337162E+00  2.550050624966E+00  1.670453927970E+00
   58     6 C    -2.807112167460E+00 -7.277483344045E+00 -1.629546071970E+00
   59     6 C     5.802124094961E+00 -4.972026621701E+00  1.663717637970E+00
   60     6 C    -4.209592628394E+00 -7.288671611496E+00 -1.636282361970E+00
   61     6 C     7.208872596966E+00  2.537403007692E+00  1.644366107970E+00
   62     6 C    -2.802844126389E+00  2.207580178967E-01 -1.655633891970E+00
   63     6 C    -5.110731878643E+00 -3.756097570139E+00  1.634445449970E+00
   64     6 C    -2.111090708941E+00  1.440284460849E+00 -1.665554549970E+00
   65     6 C     5.111161983321E+00  3.752789170547E+00  1.633587977970E+00
   66     6 C    -4.900554740034E+00  1.436144180752E+00 -1.666412021970E+00
   67     6 C     5.806799784999E+00  2.547718137392E+00  1.636159931970E+00
   68     6 C    -4.204916938356E+00  2.310731475970E-01 -1.663840067970E+00
   69     6 C    -5.806413523650E+00 -2.551148747025E+00  1.629546401970E+00
   70     6 C    -2.806772353948E+00  2.645233283964E+00 -1.670453663970E+00
   71     6 C     5.802541427527E+00  4.973056791674E+00  1.636282559970E+00
   72     6 C    -4.209175295828E+00  2.656411801879E+00 -1.663717439970E+00
   73     8 O     7.295942125319E+00  6.245566995733E-04  1.647428045970E+00
   74     8 O    -2.715774598036E+00 -2.316020433095E+00 -1.652571953970E+00
   75     8 O    -3.647325272239E+00  6.317810701600E+00  1.668616751970E+00
   76     8 O    -6.476841025371E-01 -3.509723267411E+00 -1.631383247970E+00
   77     8 O    -3.647354870184E+00 -6.318109711634E+00  1.636650047970E+00
   78     8 O    -6.477137004818E-01 -1.121727680646E+00 -1.663349951970E+00
   79     8 O     3.647399023880E+00 -6.317433734050E+00  1.647428177970E+00
   80     8 O     6.647040193582E+00 -1.121051703062E+00 -1.652571821970E+00
   81     8 O     3.647652179865E+00  6.318201904864E+00  1.668616685970E+00
   82     8 O     6.647293349567E+00 -3.509332064148E+00 -1.631383313970E+00
   83     8 O    -7.295942340353E+00 -5.560813757980E-04  1.636649981970E+00
   84     8 O    -4.296301170651E+00  5.195825949612E+00 -1.663349951970E+00

 *******************************************************************************
 STARTING BASIS SET HANDLING 
 *******************************************************************************

 Loading internal basis set: SOLDEF2MSVP         

 Please cite in your publication:
 L. Dona', J. G. Brandenburg and B. Civalleri, J. Chem. Phys., 151, 121101 (2019
 )                                                                              
                                                                                
                    

 *******************************************************************************
 LOCAL ATOMIC FUNCTIONS BASIS SET
 *******************************************************************************
   ATOM   X(AU)   Y(AU)   Z(AU)  N. TYPE  EXPONENT  S COEF   P COEF   D/F/G COEF
 *******************************************************************************
   1 B   -9.499  11.937   3.127
                                  1 S  
                                         2.410E+03 1.755E-03 0.000E+00 0.000E+00
                                         3.619E+02 1.344E-02 0.000E+00 0.000E+00
                                         8.231E+01 6.637E-02 0.000E+00 0.000E+00
                                         2.311E+01 2.303E-01 0.000E+00 0.000E+00
                                         7.252E+00 5.150E-01 0.000E+00 0.000E+00
                                  2 S  
                                         2.367E+00 1.000E+00 0.000E+00 0.000E+00
                                  3 S  
                                         5.533E-01 1.000E+00 0.000E+00 0.000E+00
                                  4 S  
                                         1.716E-01 1.000E+00 0.000E+00 0.000E+00
                           5-     7 P  
                                         6.002E+00 0.000E+00-3.555E-02 0.000E+00
                                         1.240E+00 0.000E+00-1.983E-01 0.000E+00
                                         3.367E-01 0.000E+00-5.048E-01 0.000E+00
                           8-    10 P  
                                         1.256E-01 0.000E+00 1.000E+00 0.000E+00
                          11-    15 D  
                                         8.880E-01 0.000E+00 0.000E+00 1.000E+00
   2 B   -3.830  -6.634  -3.109
   3 B   -5.588  14.195   3.127
   4 B    0.081  -4.376  -3.109
   5 B   -9.499 -11.939   3.108
   6 B   -3.830  -2.119  -3.128
   7 B    5.588 -14.195   3.127
   8 B   11.256  -4.375  -3.109
   9 B    9.500  11.937   3.127
  10 B   -9.420   7.559  -3.109
  11 B    9.499 -11.935   3.108
  12 B   15.168  -2.116  -3.128
  13 H   -2.384  10.147   3.088
                                181 S  
                                         1.874E+01 1.968E-02 0.000E+00 0.000E+00
                                         2.826E+00 1.380E-01 0.000E+00 0.000E+00
                                         6.401E-01 4.783E-01 0.000E+00 0.000E+00
                                182 S  
                                         1.756E-01 1.000E+00 0.000E+00 0.000E+00
  14 H    3.285  -8.424  -3.148
  15 H    2.376 -10.143   3.082
  16 H    8.045  -0.323  -3.154
  17 H   -2.386 -10.148   3.081
  18 H    3.283  -0.328  -3.155
  19 H    2.379  10.145   3.081
  20 H    8.047  -8.427  -3.155
  21 H   -7.597   7.139   3.148
  22 H   -1.928 -11.432  -3.088
  23 H    7.596  -7.126   3.154
  24 H   13.264   2.693  -3.082
  25 H    9.979  -3.005   3.155
  26 H   -8.940  -7.383  -3.081
  27 H   -9.975   3.014   3.155
  28 H   -4.307  12.834  -3.081
  29 H   -7.596  -7.140   3.088
  30 H   -1.927   2.679  -3.148
  31 H    7.597   7.130   3.082
  32 H  -11.323   2.753  -3.154
  33 H    9.979   3.008   3.081
  34 H   -8.941  -1.370  -3.155
  35 H   -9.976  -3.016   3.081
  36 H   -4.307   6.804  -3.155
  37 C   -2.658  14.195   3.107
                                229 S  
                                         3.624E+03 1.634E-03 0.000E+00 0.000E+00
                                         5.440E+02 1.252E-02 0.000E+00 0.000E+00
                                         1.237E+02 6.211E-02 0.000E+00 0.000E+00
                                         3.476E+01 2.182E-01 0.000E+00 0.000E+00
                                         1.093E+01 4.980E-01 0.000E+00 0.000E+00
                                230 S  
                                         3.574E+00 1.000E+00 0.000E+00 0.000E+00
                                231 S  
                                         7.742E-01 1.000E+00 0.000E+00 0.000E+00
                                232 S  
                                         2.330E-01 1.000E+00 0.000E+00 0.000E+00
                         233-   235 P  
                                         9.443E+00 0.000E+00 3.790E-02 0.000E+00
                                         2.002E+00 0.000E+00 2.082E-01 0.000E+00
                                         5.463E-01 0.000E+00 5.047E-01 0.000E+00
                         236-   238 P  
                                         1.820E-01 0.000E+00 1.000E+00 0.000E+00
                         239-   243 D  
                                         8.880E-01 0.000E+00 0.000E+00 1.000E+00
  38 C    3.010  -4.376  -3.129
  39 C   -1.316  11.911   3.089
  40 C    4.353  -6.660  -3.147
  41 C    1.313 -11.910   3.087
  42 C    6.981  -2.090  -3.149
  43 C   -1.317 -11.911   3.092
  44 C    4.352  -2.091  -3.144
  45 C    1.314  11.911   3.079
  46 C    6.982  -6.660  -3.157
  47 C    2.656 -14.195   3.092
  48 C    8.325  -4.375  -3.144
  49 C   13.623  -4.793   3.129
  50 C   -5.297  -9.171  -3.107
  51 C   -9.659   7.096   3.147
  52 C   -3.990 -11.475  -3.089
  53 C    9.658  -7.090   3.149
  54 C   -9.261 -11.467  -3.087
  55 C   10.973  -4.813   3.144
  56 C   -7.946  -9.190  -3.092
  57 C  -10.973   4.819   3.157
  58 C   -5.305 -13.752  -3.079
  59 C   10.964  -9.396   3.144
  60 C   -7.955 -13.774  -3.092
  61 C   13.623   4.795   3.107
  62 C   -5.297   0.417  -3.129
  63 C   -9.658  -7.098   3.089
  64 C   -3.989   2.722  -3.147
  65 C    9.659   7.092   3.087
  66 C   -9.261   2.714  -3.149
  67 C   10.973   4.814   3.092
  68 C   -7.946   0.437  -3.144
  69 C  -10.973  -4.821   3.079
  70 C   -5.304   4.999  -3.157
  71 C   10.965   9.398   3.092
  72 C   -7.954   5.020  -3.144
  73 O   13.787   0.001   3.113
                                769 S  
                                         6.773E+03 1.727E-03 0.000E+00 0.000E+00
                                         1.017E+03 1.325E-02 0.000E+00 0.000E+00
                                         2.313E+02 6.603E-02 0.000E+00 0.000E+00
                                         6.501E+01 2.353E-01 0.000E+00 0.000E+00
                                         2.050E+01 5.498E-01 0.000E+00 0.000E+00
                                770 S  
                                         6.716E+00 1.000E+00 0.000E+00 0.000E+00
                                771 S  
                                         1.147E+00 1.000E+00 0.000E+00 0.000E+00
                                772 S  
                                         3.342E-01 1.000E+00 0.000E+00 0.000E+00
                         773-   775 P  
                                         1.769E+01 0.000E+00 4.359E-02 0.000E+00
                                         3.854E+00 0.000E+00 2.318E-01 0.000E+00
                                         1.047E+00 0.000E+00 5.146E-01 0.000E+00
                         776-   778 P  
                                         2.759E-01 0.000E+00 1.000E+00 0.000E+00
                         779-   783 D  
                                         8.000E-01 0.000E+00 0.000E+00 1.000E+00
  74 O   -5.132  -4.377  -3.123
  75 O   -6.892  11.939   3.153
  76 O   -1.224  -6.632  -3.083
  77 O   -6.893 -11.939   3.093
  78 O   -1.224  -2.120  -3.143
  79 O    6.893 -11.938   3.113
  80 O   12.561  -2.118  -3.123
  81 O    6.893  11.940   3.153
  82 O   12.562  -6.632  -3.083
  83 O  -13.787  -0.001   3.093
  84 O   -8.119   9.819  -3.143

 *******************************************************************************
 FINISHED BASIS SET HANDLING 
 *******************************************************************************

 INFORMATION **** SET_MPP **** PCRYSTAL CALCULATION
 INFORMATION **** READM2 **** NEW DEFAULT: FOCK/KS MATRIX MIXING SET TO 30 %
 INFORMATION **** READM2 **** NEW DEFAULT: FULL DIRECT SCF MODE
 INFORMATION **** READM2 **** NEW DEFAULT: COULOMB BIPOLAR BUFFER SET TO 32 Mb
 INFORMATION **** READM2 **** NEW DEFAULT: EXCHANGE BIPOLAR BUFFER SET TO 32 Mb

 *******************************************************************************
 NEW DEFAULT: DFT INTEGRATION GRID INCREASED TO XLGRID
 NEW DEFAULT: DIIS ACCELERATOR ACTIVE
 USE KEYWORD NODIIS TO TURN IT OFF
 *******************************************************************************

 WARNING **** RDDFTP **** HSEsol-HJS ACTIVE
 RANGE SEPARATION - OMEGA:   0.110000000000000     
 WARNING **** RDDFTP **** HSEsol-3c has to be combined with sol-def2-mSVP basis set
 *******************************************************************************
 N. OF ATOMS PER CELL        84  COULOMB OVERLAP TOL         (T1) 10**   -6
 NUMBER OF SHELLS           468  COULOMB PENETRATION TOL     (T2) 10**   -6
 NUMBER OF AO               948  EXCHANGE OVERLAP TOL        (T3) 10**   -6
 N. OF ELECTRONS PER CELL   396  EXCHANGE PSEUDO OVP (F(G))  (T4) 10**   -6
 CORE ELECTRONS PER CELL    120  EXCHANGE PSEUDO OVP (P(G))  (T5) 10**  -12
 N. OF SYMMETRY OPERATORS     1  POLE ORDER IN MONO ZONE                  4
 *******************************************************************************
 TYPE OF CALCULATION :  RESTRICTED CLOSED SHELL
 KOHN-SHAM HAMILTONIAN

 (EXCHANGE)[CORRELATION] FUNCTIONAL:(HSEsol GGA)[PBEsol]

 RANGE-SEPARATED HYBRID FUNCTIONAL 
 OMEGA (SHORT-RANGE)[LONG-RANGE]:(    0.1100)[    0.0000]

 HYBRID EXCHANGE - PERCENTAGE OF FOCK EXCHANGE    25.0000

 CAPPA:IS1  2;IS2  2;IS3  8; K PTS MONK NET  20; SYMMOPS:K SPACE   2;G SPACE   1

 *******************************************************************************
 MAX NUMBER OF SCF CYCLES      50  CONVERGENCE ON DELTAP        10**-16
 WEIGHT OF F(I) IN F(I+1)      30% CONVERGENCE ON ENERGY        10**- 6
 SHRINK. FACT.(MONKH.)    2  2  8  NUMBER OF K POINTS IN THE IBZ     20
 SHRINKING FACTOR(GILAT NET)    8  NUMBER OF K POINTS(GILAT NET)   1028
 *******************************************************************************
 *** K POINTS COORDINATES (OBLIQUE COORDINATES IN UNITS OF IS =  2)
   1-R(  0  0  0)   2-R(  1  0  0)   3-R(  0  1  0)   4-R(  1  1  0)
   5-C(  0  0  1)   6-C(  1  0  1)   7-C(  0  1  1)   8-C(  1  1  1)
   9-C(  0  0  2)  10-C(  1  0  2)  11-C(  0  1  2)  12-C(  1  1  2)
  13-C(  0  0  3)  14-C(  1  0  3)  15-C(  0  1  3)  16-C(  1  1  3)
  17-R(  0  0  4)  18-R(  1  0  4)  19-R(  0  1  4)  20-R(  1  1  4)

 DIRECT LATTICE VECTORS COMPON. (A.U.)     RECIP. LATTICE VECTORS COMPON. (A.U.) 
        X            Y            Z              X            Y            Z
   24.5879030  -14.1935232    0.0000000      0.2555397    0.0000000    0.0000005
    0.0000000   28.3910867    0.0000000      0.1277517    0.2213084    0.0000015
   -0.0000265   -0.0000703   12.4721925      0.0000000    0.0000000    0.5037755

 DISK SPACE FOR EIGENVECTORS (FTN 10)    28758528 REALS

 SYMMETRY ADAPTION OF THE BLOCH FUNCTIONS DISABLED
 TTTTTTTTTTTTTTTTTTTTTTTTTTTTTT gordsh1     TELAPSE        0.05 TCPU        0.05

 MATRIX SIZE: P(G)  755858, F(G)  139066, P(G) IRR  380095, F(G) IRR  140098
 MAX G-VECTOR INDEX FOR 1- AND 2-ELECTRON INTEGRALS  55

 TTTTTTTTTTTTTTTTTTTTTTTTTTTTTT INPUT       TELAPSE        2.71 TCPU        2.70

 NEIGHBORS OF THE NON-EQUIVALENT ATOMS

 N = NUMBER OF NEIGHBORS AT DISTANCE R
    ATOM  N     R/ANG      R/AU   NEIGHBORS (ATOM LABELS AND CELL INDICES)
   1 B    1     1.3791     2.6061   73 O   -1 0 0
   1 B    1     1.3793     2.6065   75 O    0 0 0
   1 B    1     1.5503     2.9297   49 C   -1 0 0
   1 B    1     2.3895     4.5155    5 B    0 1 0
   1 B    1     2.3898     4.5160    3 B    0 0 0
   1 B    1     2.5632     4.8437   51 C    0 0 0

   2 B    1     1.3791     2.6061   74 O    0 0 0
   2 B    1     1.3793     2.6065   76 O    0 0 0
   2 B    1     1.5503     2.9297   50 C    0 0 0
   2 B    1     2.3895     4.5155    6 B    0 0 0
   2 B    1     2.3898     4.5160    4 B    0 0 0
   2 B    1     2.5632     4.8437   52 C    0 0 0

   3 B    1     1.3793     2.6065   77 O    0 1 0
   3 B    1     1.3793     2.6065   75 O    0 0 0
   3 B    1     1.5504     2.9298   37 C    0 0 0
   3 B    1     2.3895     4.5156    5 B    0 1 0
   3 B    1     2.3898     4.5160    1 B    0 0 0
   3 B    1     2.5634     4.8440   43 C    0 1 0

   4 B    1     1.3793     2.6065   78 O    0 0 0
   4 B    1     1.3793     2.6065   76 O    0 0 0
   4 B    1     1.5504     2.9298   38 C    0 0 0
   4 B    1     2.3895     4.5156    6 B    0 0 0
   4 B    1     2.3898     4.5160    2 B    0 0 0
   4 B    1     2.5634     4.8440   44 C    0 0 0

   5 B    1     1.3791     2.6061   73 O   -1-1 0
   5 B    1     1.3793     2.6064   77 O    0 0 0
   5 B    1     1.5502     2.9294   61 C   -1-1 0
   5 B    1     2.3895     4.5155    1 B    0-1 0
   5 B    1     2.3895     4.5156    3 B    0-1 0
   5 B    1     2.5629     4.8433   63 C    0 0 0

   6 B    1     1.3791     2.6061   74 O    0 0 0
   6 B    1     1.3793     2.6064   78 O    0 0 0
   6 B    1     1.5502     2.9294   62 C    0 0 0
   6 B    1     2.3895     4.5155    2 B    0 0 0
   6 B    1     2.3895     4.5156    4 B    0 0 0
   6 B    1     2.5629     4.8433   64 C    0 0 0

   7 B    1     1.3795     2.6068   79 O    0 0 0
   7 B    1     1.3795     2.6070   81 O    0-1 0
   7 B    1     1.5513     2.9316   47 C    0 0 0
   7 B    1     2.3905     4.5174   11 B    0 0 0
   7 B    1     2.3905     4.5175    9 B    0-1 0
   7 B    1     2.5648     4.8468   45 C    0-1 0

   8 B    1     1.3795     2.6068   80 O    0 0 0
   8 B    1     1.3795     2.6070   82 O    0 0 0
   8 B    1     1.5513     2.9316   48 C    0 0 0
   8 B    1     2.3905     4.5174   12 B    0 0 0
   8 B    1     2.3905     4.5175   10 B    1 0 0
   8 B    1     2.5648     4.8468   46 C    0 0 0

   9 B    1     1.3795     2.6069   81 O    0 0 0
   9 B    1     1.3797     2.6072   83 O    1 1 0
   9 B    1     1.5516     2.9322   71 C    0 0 0
   9 B    1     2.3905     4.5175    7 B    0 1 0
   9 B    1     2.3911     4.5185   11 B    0 1 0
   9 B    1     2.5651     4.8473   69 C    1 1 0

  10 B    1     1.3795     2.6069   82 O   -1 0 0
  10 B    1     1.3797     2.6072   84 O    0 0 0
  10 B    1     1.5516     2.9322   72 C    0 0 0
  10 B    1     2.3905     4.5175    8 B   -1 0 0
  10 B    1     2.3911     4.5185   12 B   -1 0 0
  10 B    1     2.5651     4.8473   70 C    0 0 0

  11 B    1     1.3795     2.6068   79 O    0 0 0
  11 B    1     1.3796     2.6071   83 O    1 0 0
  11 B    1     1.5516     2.9322   59 C    0 0 0
  11 B    1     2.3905     4.5174    7 B    0 0 0
  11 B    1     2.3911     4.5185    9 B    0-1 0
  11 B    1     2.5651     4.8473   57 C    1 0 0

  12 B    1     1.3795     2.6068   80 O    0 0 0
  12 B    1     1.3796     2.6071   84 O    1 0 0
  12 B    1     1.5516     2.9322   60 C    1 1 0
  12 B    1     2.3905     4.5174    8 B    0 0 0
  12 B    1     2.3911     4.5185   10 B    1 0 0
  12 B    1     2.5651     4.8473   58 C    1 1 0

  13 H    1     1.0913     2.0623   39 C    0 0 0
  13 H    1     2.1472     4.0576   37 C    0 0 0
  13 H    1     2.1680     4.0969   45 C    0 0 0
  13 H    1     2.5202     4.7625   19 H    0 0 0
  13 H    1     2.5676     4.8520   75 O    0 0 0
  13 H    1     2.7321     5.1630    3 B    0 0 0

  14 H    1     1.0913     2.0623   40 C    0 0 0
  14 H    1     2.1472     4.0576   38 C    0 0 0
  14 H    1     2.1680     4.0969   46 C    0 0 0
  14 H    1     2.5202     4.7625   20 H    0 0 0
  14 H    1     2.5676     4.8520   76 O    0 0 0
  14 H    1     2.7321     5.1630    4 B    0 0 0

  15 H    1     1.0914     2.0625   41 C    0 0 0
  15 H    1     2.1493     4.0616   47 C    0 0 0
  15 H    1     2.1666     4.0942   43 C    0 0 0
  15 H    1     2.5198     4.7618   17 H    0 0 0
  15 H    1     2.5720     4.8604   79 O    0 0 0
  15 H    1     2.7362     5.1707    7 B    0 0 0

  16 H    1     1.0914     2.0625   42 C    0 0 0
  16 H    1     2.1493     4.0616   48 C    0 0 0
  16 H    1     2.1666     4.0942   44 C    0 0 0
  16 H    1     2.5198     4.7618   18 H    0 0 0
  16 H    1     2.5720     4.8604   80 O    0 0 0
  16 H    1     2.7362     5.1707    8 B    0 0 0

  17 H    1     1.0914     2.0624   43 C    0 0 0
  17 H    1     2.1471     4.0575   37 C    0-1 0
  17 H    1     2.1680     4.0970   41 C    0 0 0
  17 H    1     2.5198     4.7618   15 H    0 0 0
  17 H    1     2.5665     4.8500   77 O    0 0 0
  17 H    1     2.7315     5.1618    3 B    0-1 0

  18 H    1     1.0914     2.0624   44 C    0 0 0
  18 H    1     2.1471     4.0575   38 C    0 0 0
  18 H    1     2.1680     4.0970   42 C    0 0 0
  18 H    1     2.5198     4.7618   16 H    0 0 0
  18 H    1     2.5665     4.8500   78 O    0 0 0
  18 H    1     2.7315     5.1618    4 B    0 0 0

  19 H    1     1.0915     2.0626   45 C    0 0 0
  19 H    1     2.1490     4.0610   47 C    0 1 0
  19 H    1     2.1669     4.0948   39 C    0 0 0
  19 H    1     2.5202     4.7625   13 H    0 0 0
  19 H    1     2.5712     4.8588   81 O    0 0 0
  19 H    1     2.7351     5.1686    7 B    0 1 0

  20 H    1     1.0915     2.0626   46 C    0 0 0
  20 H    1     2.1490     4.0610   48 C    0 0 0
  20 H    1     2.1669     4.0948   40 C    0 0 0
  20 H    1     2.5202     4.7625   14 H    0 0 0
  20 H    1     2.5712     4.8588   82 O    0 0 0
  20 H    1     2.7351     5.1686    8 B    0 0 0

  21 H    1     1.0913     2.0623   51 C    0 0 0
  21 H    1     2.1469     4.0571   49 C   -1 0 0
  21 H    1     2.1680     4.0968   57 C    0 0 0
  21 H    1     2.5198     4.7617   27 H    0 0 0
  21 H    1     2.5670     4.8510   75 O    0 0 0
  21 H    1     2.7310     5.1609    1 B    0 0 0

  22 H    1     1.0913     2.0623   52 C    0 0 0
  22 H    1     2.1469     4.0571   50 C    0 0 0
  22 H    1     2.1680     4.0968   58 C    0 0 0
  22 H    1     2.5198     4.7617   28 H    0-1 0
  22 H    1     2.5670     4.8510   76 O    0 0 0
  22 H    1     2.7310     5.1609    2 B    0 0 0

  23 H    1     1.0914     2.0625   53 C    0 0 0
  23 H    1     2.1493     4.0617   59 C    0 0 0
  23 H    1     2.1664     4.0939   55 C    0 0 0
  23 H    1     2.5192     4.7606   25 H    0 0 0
  23 H    1     2.5735     4.8632   79 O    0 0 0
  23 H    1     2.7371     5.1723   11 B    0 0 0

  24 H    1     1.0914     2.0625   54 C    1 1 0
  24 H    1     2.1493     4.0617   60 C    1 1 0
  24 H    1     2.1664     4.0939   56 C    1 1 0
  24 H    1     2.5192     4.7606   26 H    1 1 0
  24 H    1     2.5735     4.8632   80 O    0 0 0
  24 H    1     2.7371     5.1723   12 B    0 0 0

  25 H    1     1.0914     2.0624   55 C    0 0 0
  25 H    1     2.1475     4.0581   49 C    0 0 0
  25 H    1     2.1679     4.0967   53 C    0 0 0
  25 H    1     2.5192     4.7606   23 H    0 0 0
  25 H    1     2.5675     4.8519   73 O    0 0 0
  25 H    1     2.7328     5.1643    1 B    1 0 0

  26 H    1     1.0914     2.0624   56 C    0 0 0
  26 H    1     2.1475     4.0581   50 C    0 0 0
  26 H    1     2.1679     4.0967   54 C    0 0 0
  26 H    1     2.5192     4.7606   24 H   -1-1 0
  26 H    1     2.5675     4.8519   74 O    0 0 0
  26 H    1     2.7328     5.1643    2 B    0 0 0

  27 H    1     1.0914     2.0625   57 C    0 0 0
  27 H    1     2.1491     4.0612   59 C   -1 0 0
  27 H    1     2.1666     4.0942   51 C    0 0 0
  27 H    1     2.5198     4.7617   21 H    0 0 0
  27 H    1     2.5723     4.8609   83 O    0 0 0
  27 H    1     2.7355     5.1693   11 B   -1 0 0

  28 H    1     1.0914     2.0625   58 C    0 1 0
  28 H    1     2.1491     4.0612   60 C    0 1 0
  28 H    1     2.1666     4.0942   52 C    0 1 0
  28 H    1     2.5198     4.7617   22 H    0 1 0
  28 H    1     2.5723     4.8609   84 O    0 0 0
  28 H    1     2.7355     5.1693   12 B   -1 0 0

  29 H    1     1.0914     2.0624   63 C    0 0 0
  29 H    1     2.1475     4.0582   61 C   -1-1 0
  29 H    1     2.1678     4.0966   69 C    0 0 0
  29 H    1     2.5200     4.7621   35 H    0 0 0
  29 H    1     2.5667     4.8503   77 O    0 0 0
  29 H    1     2.7315     5.1618    5 B    0 0 0

  30 H    1     1.0914     2.0624   64 C    0 0 0
  30 H    1     2.1475     4.0582   62 C    0 0 0
  30 H    1     2.1678     4.0966   70 C    0 0 0
  30 H    1     2.5200     4.7621   36 H    0 0 0
  30 H    1     2.5667     4.8503   78 O    0 0 0
  30 H    1     2.7315     5.1618    6 B    0 0 0

  31 H    1     1.0913     2.0623   65 C    0 0 0
  31 H    1     2.1487     4.0605   71 C    0 0 0
  31 H    1     2.1667     4.0945   67 C    0 0 0
  31 H    1     2.5197     4.7616   33 H    0 0 0
  31 H    1     2.5723     4.8610   81 O    0 0 0
  31 H    1     2.7359     5.1701    9 B    0 0 0

  32 H    1     1.0913     2.0623   66 C    0 0 0
  32 H    1     2.1487     4.0605   72 C    0 0 0
  32 H    1     2.1667     4.0945   68 C    0 0 0
  32 H    1     2.5197     4.7616   34 H    0 0 0
  32 H    1     2.5723     4.8610   82 O   -1 0 0
  32 H    1     2.7359     5.1701   10 B    0 0 0

  33 H    1     1.0915     2.0626   67 C    0 0 0
  33 H    1     2.1479     4.0589   61 C    0 0 0
  33 H    1     2.1679     4.0968   65 C    0 0 0
  33 H    1     2.5197     4.7616   31 H    0 0 0
  33 H    1     2.5677     4.8522   73 O    0 0 0
  33 H    1     2.7331     5.1648    5 B    1 1 0

  34 H    1     1.0915     2.0626   68 C    0 0 0
  34 H    1     2.1479     4.0589   62 C    0 0 0
  34 H    1     2.1679     4.0968   66 C    0 0 0
  34 H    1     2.5197     4.7616   32 H    0 0 0
  34 H    1     2.5677     4.8522   74 O    0 0 0
  34 H    1     2.7331     5.1648    6 B    0 0 0

  35 H    1     1.0914     2.0624   69 C    0 0 0
  35 H    1     2.1486     4.0602   71 C   -1-1 0
  35 H    1     2.1668     4.0947   63 C    0 0 0
  35 H    1     2.5200     4.7621   29 H    0 0 0
  35 H    1     2.5717     4.8598   83 O    0 0 0
  35 H    1     2.7349     5.1682    9 B   -1-1 0

  36 H    1     1.0914     2.0624   70 C    0 0 0
  36 H    1     2.1486     4.0602   72 C    0 0 0
  36 H    1     2.1668     4.0947   64 C    0 0 0
  36 H    1     2.5200     4.7621   30 H    0 0 0
  36 H    1     2.5717     4.8598   84 O    0 0 0
  36 H    1     2.7349     5.1682   10 B    0 0 0

  37 C    1     1.4020     2.6495   43 C    0 1 0
  37 C    1     1.4021     2.6495   39 C    0 0 0
  37 C    1     1.5504     2.9298    3 B    0 0 0
  37 C    1     2.1471     4.0575   17 H    0 1 0
  37 C    1     2.1472     4.0576   13 H    0 0 0
  37 C    1     2.4246     4.5817   41 C    0 1 0

  38 C    1     1.4020     2.6495   44 C    0 0 0
  38 C    1     1.4021     2.6495   40 C    0 0 0
  38 C    1     1.5504     2.9298    4 B    0 0 0
  38 C    1     2.1471     4.0575   18 H    0 0 0
  38 C    1     2.1472     4.0576   14 H    0 0 0
  38 C    1     2.4246     4.5817   42 C    0 0 0

  39 C    1     1.0913     2.0623   13 H    0 0 0
  39 C    1     1.3914     2.6294   45 C    0 0 0
  39 C    1     1.4021     2.6495   37 C    0 0 0
  39 C    1     2.1669     4.0948   19 H    0 0 0
  39 C    1     2.4177     4.5688   43 C    0 1 0
  39 C    1     2.4250     4.5825   47 C    0 1 0

  40 C    1     1.0913     2.0623   14 H    0 0 0
  40 C    1     1.3914     2.6294   46 C    0 0 0
  40 C    1     1.4021     2.6495   38 C    0 0 0
  40 C    1     2.1669     4.0948   20 H    0 0 0
  40 C    1     2.4177     4.5688   44 C    0 0 0
  40 C    1     2.4250     4.5825   48 C    0 0 0

  41 C    1     1.0914     2.0625   15 H    0 0 0
  41 C    1     1.3914     2.6293   43 C    0 0 0
  41 C    1     1.4026     2.6505   47 C    0 0 0
  41 C    1     2.1680     4.0970   17 H    0 0 0
  41 C    1     2.4182     4.5697   45 C    0-1 0
  41 C    1     2.4246     4.5817   37 C    0-1 0

  42 C    1     1.0914     2.0625   16 H    0 0 0
  42 C    1     1.3914     2.6293   44 C    0 0 0
  42 C    1     1.4026     2.6505   48 C    0 0 0
  42 C    1     2.1680     4.0970   18 H    0 0 0
  42 C    1     2.4182     4.5697   46 C    0 0 0
  42 C    1     2.4246     4.5817   38 C    0 0 0

  43 C    1     1.0914     2.0624   17 H    0 0 0
  43 C    1     1.3914     2.6293   41 C    0 0 0
  43 C    1     1.4020     2.6495   37 C    0-1 0
  43 C    1     2.1666     4.0942   15 H    0 0 0
  43 C    1     2.4177     4.5688   39 C    0-1 0
  43 C    1     2.4250     4.5826   47 C    0 0 0

  44 C    1     1.0914     2.0624   18 H    0 0 0
  44 C    1     1.3914     2.6293   42 C    0 0 0
  44 C    1     1.4020     2.6495   38 C    0 0 0
  44 C    1     2.1666     4.0942   16 H    0 0 0
  44 C    1     2.4177     4.5688   40 C    0 0 0
  44 C    1     2.4250     4.5826   48 C    0 0 0

  45 C    1     1.0915     2.0626   19 H    0 0 0
  45 C    1     1.3914     2.6294   39 C    0 0 0
  45 C    1     1.4025     2.6504   47 C    0 1 0
  45 C    1     2.1680     4.0969   13 H    0 0 0
  45 C    1     2.4182     4.5697   41 C    0 1 0
  45 C    1     2.4246     4.5818   37 C    0 0 0

  46 C    1     1.0915     2.0626   20 H    0 0 0
  46 C    1     1.3914     2.6294   40 C    0 0 0
  46 C    1     1.4025     2.6504   48 C    0 0 0
  46 C    1     2.1680     4.0969   14 H    0 0 0
  46 C    1     2.4182     4.5697   42 C    0 0 0
  46 C    1     2.4246     4.5818   38 C    0 0 0

  47 C    1     1.4025     2.6504   45 C    0-1 0
  47 C    1     1.4026     2.6505   41 C    0 0 0
  47 C    1     1.5513     2.9316    7 B    0 0 0
  47 C    1     2.1490     4.0610   19 H    0-1 0
  47 C    1     2.1493     4.0616   15 H    0 0 0
  47 C    1     2.4250     4.5825   39 C    0-1 0

  48 C    1     1.4025     2.6504   46 C    0 0 0
  48 C    1     1.4026     2.6505   42 C    0 0 0
  48 C    1     1.5513     2.9316    8 B    0 0 0
  48 C    1     2.1490     4.0610   20 H    0 0 0
  48 C    1     2.1493     4.0616   16 H    0 0 0
  48 C    1     2.4250     4.5825   40 C    0 0 0

  49 C    1     1.4020     2.6494   51 C    1 0 0
  49 C    1     1.4021     2.6495   55 C    0 0 0
  49 C    1     1.5503     2.9297    1 B    1 0 0
  49 C    1     2.1469     4.0571   21 H    1 0 0
  49 C    1     2.1475     4.0581   25 H    0 0 0
  49 C    1     2.4246     4.5818   53 C    0 0 0

  50 C    1     1.4020     2.6494   52 C    0 0 0
  50 C    1     1.4021     2.6495   56 C    0 0 0
  50 C    1     1.5503     2.9297    2 B    0 0 0
  50 C    1     2.1469     4.0571   22 H    0 0 0
  50 C    1     2.1475     4.0581   26 H    0 0 0
  50 C    1     2.4246     4.5818   54 C    0 0 0

  51 C    1     1.0913     2.0623   21 H    0 0 0
  51 C    1     1.3914     2.6293   57 C    0 0 0
  51 C    1     1.4020     2.6494   49 C   -1 0 0
  51 C    1     2.1666     4.0942   27 H    0 0 0
  51 C    1     2.4175     4.5684   55 C   -1 0 0
  51 C    1     2.4251     4.5828   59 C   -1 0 0

  52 C    1     1.0913     2.0623   22 H    0 0 0
  52 C    1     1.3914     2.6293   58 C    0 0 0
  52 C    1     1.4020     2.6494   50 C    0 0 0
  52 C    1     2.1666     4.0942   28 H    0-1 0
  52 C    1     2.4175     4.5684   56 C    0 0 0
  52 C    1     2.4251     4.5828   60 C    0 0 0

  53 C    1     1.0914     2.0625   23 H    0 0 0
  53 C    1     1.3915     2.6295   55 C    0 0 0
  53 C    1     1.4026     2.6505   59 C    0 0 0
  53 C    1     2.1679     4.0967   25 H    0 0 0
  53 C    1     2.4179     4.5691   57 C    1 0 0
  53 C    1     2.4246     4.5818   49 C    0 0 0

  54 C    1     1.0914     2.0625   24 H   -1-1 0
  54 C    1     1.3915     2.6295   56 C    0 0 0
  54 C    1     1.4026     2.6505   60 C    0 0 0
  54 C    1     2.1679     4.0967   26 H    0 0 0
  54 C    1     2.4179     4.5691   58 C    0 0 0
  54 C    1     2.4246     4.5818   50 C    0 0 0

  55 C    1     1.0914     2.0624   25 H    0 0 0
  55 C    1     1.3915     2.6295   53 C    0 0 0
  55 C    1     1.4021     2.6495   49 C    0 0 0
  55 C    1     2.1664     4.0939   23 H    0 0 0
  55 C    1     2.4175     4.5684   51 C    1 0 0
  55 C    1     2.4253     4.5832   59 C    0 0 0

  56 C    1     1.0914     2.0624   26 H    0 0 0
  56 C    1     1.3915     2.6295   54 C    0 0 0
  56 C    1     1.4021     2.6495   50 C    0 0 0
  56 C    1     2.1664     4.0939   24 H   -1-1 0
  56 C    1     2.4175     4.5684   52 C    0 0 0
  56 C    1     2.4253     4.5832   60 C    0 0 0

  57 C    1     1.0914     2.0625   27 H    0 0 0
  57 C    1     1.3914     2.6293   51 C    0 0 0
  57 C    1     1.4025     2.6504   59 C   -1 0 0
  57 C    1     2.1680     4.0968   21 H    0 0 0
  57 C    1     2.4179     4.5691   53 C   -1 0 0
  57 C    1     2.4247     4.5819   49 C   -1 0 0

  58 C    1     1.0914     2.0625   28 H    0-1 0
  58 C    1     1.3914     2.6293   52 C    0 0 0
  58 C    1     1.4025     2.6504   60 C    0 0 0
  58 C    1     2.1680     4.0968   22 H    0 0 0
  58 C    1     2.4179     4.5691   54 C    0 0 0
  58 C    1     2.4247     4.5819   50 C    0 0 0

  59 C    1     1.4025     2.6504   57 C    1 0 0
  59 C    1     1.4026     2.6505   53 C    0 0 0
  59 C    1     1.5516     2.9322   11 B    0 0 0
  59 C    1     2.1491     4.0612   27 H    1 0 0
  59 C    1     2.1493     4.0617   23 H    0 0 0
  59 C    1     2.4251     4.5828   51 C    1 0 0

  60 C    1     1.4025     2.6504   58 C    0 0 0
  60 C    1     1.4026     2.6505   54 C    0 0 0
  60 C    1     1.5516     2.9322   12 B   -1-1 0
  60 C    1     2.1491     4.0612   28 H    0-1 0
  60 C    1     2.1493     4.0617   24 H   -1-1 0
  60 C    1     2.4251     4.5828   52 C    0 0 0

  61 C    1     1.4021     2.6496   63 C    1 1 0
  61 C    1     1.4021     2.6497   67 C    0 0 0
  61 C    1     1.5502     2.9294    5 B    1 1 0
  61 C    1     2.1475     4.0582   29 H    1 1 0
  61 C    1     2.1479     4.0589   33 H    0 0 0
  61 C    1     2.4244     4.5814   65 C    0 0 0

  62 C    1     1.4021     2.6496   64 C    0 0 0
  62 C    1     1.4021     2.6497   68 C    0 0 0
  62 C    1     1.5502     2.9294    6 B    0 0 0
  62 C    1     2.1475     4.0582   30 H    0 0 0
  62 C    1     2.1479     4.0589   34 H    0 0 0
  62 C    1     2.4244     4.5814   66 C    0 0 0

  63 C    1     1.0914     2.0624   29 H    0 0 0
  63 C    1     1.3914     2.6293   69 C    0 0 0
  63 C    1     1.4021     2.6496   61 C   -1-1 0
  63 C    1     2.1668     4.0947   35 H    0 0 0
  63 C    1     2.4179     4.5692   67 C   -1-1 0
  63 C    1     2.4251     4.5827   71 C   -1-1 0

  64 C    1     1.0914     2.0624   30 H    0 0 0
  64 C    1     1.3914     2.6293   70 C    0 0 0
  64 C    1     1.4021     2.6496   62 C    0 0 0
  64 C    1     2.1668     4.0947   36 H    0 0 0
  64 C    1     2.4179     4.5692   68 C    0 0 0
  64 C    1     2.4251     4.5827   72 C    0 0 0

  65 C    1     1.0913     2.0623   31 H    0 0 0
  65 C    1     1.3914     2.6294   67 C    0 0 0
  65 C    1     1.4025     2.6504   71 C    0 0 0
  65 C    1     2.1679     4.0968   33 H    0 0 0
  65 C    1     2.4178     4.5690   69 C    1 1 0
  65 C    1     2.4244     4.5814   61 C    0 0 0

  66 C    1     1.0913     2.0623   32 H    0 0 0
  66 C    1     1.3914     2.6294   68 C    0 0 0
  66 C    1     1.4025     2.6504   72 C    0 0 0
  66 C    1     2.1679     4.0968   34 H    0 0 0
  66 C    1     2.4178     4.5690   70 C    0 0 0
  66 C    1     2.4244     4.5814   62 C    0 0 0

  67 C    1     1.0915     2.0626   33 H    0 0 0
  67 C    1     1.3914     2.6294   65 C    0 0 0
  67 C    1     1.4021     2.6497   61 C    0 0 0
  67 C    1     2.1667     4.0945   31 H    0 0 0
  67 C    1     2.4179     4.5692   63 C    1 1 0
  67 C    1     2.4253     4.5832   71 C    0 0 0

  68 C    1     1.0915     2.0626   34 H    0 0 0
  68 C    1     1.3914     2.6294   66 C    0 0 0
  68 C    1     1.4021     2.6497   62 C    0 0 0
  68 C    1     2.1667     4.0945   32 H    0 0 0
  68 C    1     2.4179     4.5692   64 C    0 0 0
  68 C    1     2.4253     4.5832   72 C    0 0 0

  69 C    1     1.0914     2.0624   35 H    0 0 0
  69 C    1     1.3914     2.6293   63 C    0 0 0
  69 C    1     1.4025     2.6503   71 C   -1-1 0
  69 C    1     2.1678     4.0966   29 H    0 0 0
  69 C    1     2.4178     4.5690   65 C   -1-1 0
  69 C    1     2.4245     4.5817   61 C   -1-1 0

  70 C    1     1.0914     2.0624   36 H    0 0 0
  70 C    1     1.3914     2.6293   64 C    0 0 0
  70 C    1     1.4025     2.6503   72 C    0 0 0
  70 C    1     2.1678     4.0966   30 H    0 0 0
  70 C    1     2.4178     4.5690   66 C    0 0 0
  70 C    1     2.4245     4.5817   62 C    0 0 0

  71 C    1     1.4025     2.6503   69 C    1 1 0
  71 C    1     1.4025     2.6504   65 C    0 0 0
  71 C    1     1.5516     2.9322    9 B    0 0 0
  71 C    1     2.1486     4.0602   35 H    1 1 0
  71 C    1     2.1487     4.0605   31 H    0 0 0
  71 C    1     2.4251     4.5827   63 C    1 1 0

  72 C    1     1.4025     2.6503   70 C    0 0 0
  72 C    1     1.4025     2.6504   66 C    0 0 0
  72 C    1     1.5516     2.9322   10 B    0 0 0
  72 C    1     2.1486     4.0602   36 H    0 0 0
  72 C    1     2.1487     4.0605   32 H    0 0 0
  72 C    1     2.4251     4.5827   64 C    0 0 0

  73 O    1     1.3791     2.6061    1 B    1 0 0
  73 O    1     1.3791     2.6061    5 B    1 1 0
  73 O    1     2.3880     4.5126   75 O    1 0 0
  73 O    1     2.3882     4.5130   77 O    1 1 0
  73 O    1     2.5383     4.7966   61 C    0 0 0
  73 O    1     2.5384     4.7968   49 C    0 0 0

  74 O    1     1.3791     2.6061    2 B    0 0 0
  74 O    1     1.3791     2.6061    6 B    0 0 0
  74 O    1     2.3880     4.5126   76 O    0 0 0
  74 O    1     2.3882     4.5130   78 O    0 0 0
  74 O    1     2.5383     4.7966   62 C    0 0 0
  74 O    1     2.5384     4.7968   50 C    0 0 0

  75 O    1     1.3793     2.6065    1 B    0 0 0
  75 O    1     1.3793     2.6065    3 B    0 0 0
  75 O    1     2.3880     4.5126   73 O   -1 0 0
  75 O    1     2.3882     4.5131   77 O    0 1 0
  75 O    1     2.5391     4.7981   37 C    0 0 0
  75 O    1     2.5395     4.7990   49 C   -1 0 0

  76 O    1     1.3793     2.6065    2 B    0 0 0
  76 O    1     1.3793     2.6065    4 B    0 0 0
  76 O    1     2.3880     4.5126   74 O    0 0 0
  76 O    1     2.3882     4.5131   78 O    0 0 0
  76 O    1     2.5391     4.7981   38 C    0 0 0
  76 O    1     2.5395     4.7990   50 C    0 0 0

  77 O    1     1.3793     2.6064    5 B    0 0 0
  77 O    1     1.3793     2.6065    3 B    0-1 0
  77 O    1     2.3882     4.5130   73 O   -1-1 0
  77 O    1     2.3882     4.5131   75 O    0-1 0
  77 O    1     2.5390     4.7980   37 C    0-1 0
  77 O    1     2.5391     4.7982   61 C   -1-1 0

  78 O    1     1.3793     2.6064    6 B    0 0 0
  78 O    1     1.3793     2.6065    4 B    0 0 0
  78 O    1     2.3882     4.5130   74 O    0 0 0
  78 O    1     2.3882     4.5131   76 O    0 0 0
  78 O    1     2.5390     4.7980   38 C    0 0 0
  78 O    1     2.5391     4.7982   62 C    0 0 0

  79 O    1     1.3795     2.6068   11 B    0 0 0
  79 O    1     1.3795     2.6068    7 B    0 0 0
  79 O    1     2.3880     4.5126   83 O    1 0 0
  79 O    1     2.3884     4.5134   81 O    0-1 0
  79 O    1     2.5400     4.7998   47 C    0 0 0
  79 O    1     2.5403     4.8005   59 C    0 0 0

  80 O    1     1.3795     2.6068   12 B    0 0 0
  80 O    1     1.3795     2.6068    8 B    0 0 0
  80 O    1     2.3880     4.5126   84 O    1 0 0
  80 O    1     2.3884     4.5134   82 O    0 0 0
  80 O    1     2.5400     4.7998   48 C    0 0 0
  80 O    1     2.5403     4.8005   60 C    1 1 0

  81 O    1     1.3795     2.6069    9 B    0 0 0
  81 O    1     1.3795     2.6070    7 B    0 1 0
  81 O    1     2.3881     4.5128   83 O    1 1 0
  81 O    1     2.3884     4.5134   79 O    0 1 0
  81 O    1     2.5404     4.8006   47 C    0 1 0
  81 O    1     2.5405     4.8008   71 C    0 0 0

  82 O    1     1.3795     2.6069   10 B    1 0 0
  82 O    1     1.3795     2.6070    8 B    0 0 0
  82 O    1     2.3881     4.5128   84 O    1 0 0
  82 O    1     2.3884     4.5134   80 O    0 0 0
  82 O    1     2.5404     4.8006   48 C    0 0 0
  82 O    1     2.5405     4.8008   72 C    1 0 0

  83 O    1     1.3796     2.6071   11 B   -1 0 0
  83 O    1     1.3797     2.6072    9 B   -1-1 0
  83 O    1     2.3880     4.5126   79 O   -1 0 0
  83 O    1     2.3881     4.5128   81 O   -1-1 0
  83 O    1     2.5409     4.8016   71 C   -1-1 0
  83 O    1     2.5410     4.8019   59 C   -1 0 0

  84 O    1     1.3796     2.6071   12 B   -1 0 0
  84 O    1     1.3797     2.6072   10 B    0 0 0
  84 O    1     2.3880     4.5126   80 O   -1 0 0
  84 O    1     2.3881     4.5128   82 O   -1 0 0
  84 O    1     2.5409     4.8016   72 C    0 0 0
  84 O    1     2.5410     4.8019   60 C    0 1 0


 SYMMETRY ALLOWED INTERNAL DEGREE(S) OF FREEDOM: 249
 TTTTTTTTTTTTTTTTTTTTTTTTTTTTTT SYMM        TELAPSE        2.71 TCPU        2.71
 TTTTTTTTTTTTTTTTTTTTTTTTTTTTTT INT_SCREEN  TELAPSE        2.93 TCPU        2.92

 DFT PARAMETERS

     ATOM       ELECTRONS   NET CHARGE   R(ANGSTROM)
   1   5  B       5.0000      0.0000     0.89000000
  13   1  H       1.0000      0.0000     1.11000000
  37   6  C       6.0000      0.0000     0.77000000
  73   8  O       8.0000      0.0000     0.74000000

 SIZE OF GRID=    2537979
 TTTTTTTTTTTTTTTTTTTTTTTTTTTTTT MAKE_GRID2  TELAPSE       24.65 TCPU       24.62
 BECKE WEIGHT FUNCTION
 RADSAFE =     2.00
 TOLERANCES - DENSITY:10**- 6; POTENTIAL:10**- 9; GRID WGT:10**-14

 RADIAL INTEGRATION  - INTERVALS (POINTS,UPPER LIMIT):            1( 75,  4.0*R)

 ANGULAR INTEGRATION - INTERVALS (ACCURACY LEVEL [N. POINTS] UPPER LIMIT):
  1(  4[  86]   0.2)  2(  8[ 194]   0.5)  3( 12[ 350]   0.9)  4( 16[ 974]   3.5)
  5( 12[ 350]9999.0)
 TTTTTTTTTTTTTTTTTTTTTTTTTTTTTT INT_CALC    TELAPSE       24.92 TCPU       24.89
 EEEEEEEEEE INT_CALC TERMINATION  DATE 19 02 2026 TIME 19:58:52.5

 *******************************************************************************
 cof-1_z33_L060_serr                                                             
 CRYSTAL - SCF - TYPE OF CALCULATION :  RESTRICTED CLOSED SHELL
 *******************************************************************************

 CAPPA:IS1  2;IS2  2;IS3  8; K PTS MONK NET  20; SYMMOPS:K SPACE   2;G SPACE   1

 TTTTTTTTTTTTTTTTTTTTTTTTTTTTTT SDIK        TELAPSE       26.84 TCPU       51.66

 AAAAAAAAAAAAAAAAAAAAAAAAAAAAAAAAAAAAAAAAAAAAAAAAAAAAAAAAAAAAAAAAAAAAAAAAAAAAAAA
         ATOMIC WAVEFUNCTION(S)


 NUCLEAR CHARGE  5.0  SYMMETRY SPECIES            S    P
 N. ELECTRONS    5.0  NUMBER OF PRIMITIVE GTOS    8    4
                      NUMBER OF CONTRACTED GTOS   4    2
                      NUMBER OF CLOSED SHELLS     2    0
                      OPEN SHELL OCCUPATION       0    1

  ZNUC  SCFIT    TOTAL HF ENERGY   KINETIC ENERGY   VIRIAL THEOREM ACCURACY
   5.0    11    -2.451164084E+01  2.462155050E+01 -1.995536038E+00  1.5E-06

 NUCLEAR CHARGE  1.0  SYMMETRY SPECIES            S
 N. ELECTRONS    1.0  NUMBER OF PRIMITIVE GTOS    4
                      NUMBER OF CONTRACTED GTOS   2
                      NUMBER OF CLOSED SHELLS     0
                      OPEN SHELL OCCUPATION       1

  ZNUC  SCFIT    TOTAL HF ENERGY   KINETIC ENERGY   VIRIAL THEOREM ACCURACY
   1.0     1    -4.977266687E-01  5.190767460E-01 -1.958869132E+00  0.0E+00

 NUCLEAR CHARGE  6.0  SYMMETRY SPECIES            S    P
 N. ELECTRONS    6.0  NUMBER OF PRIMITIVE GTOS    8    4
                      NUMBER OF CONTRACTED GTOS   4    2
                      NUMBER OF CLOSED SHELLS     2    0
                      OPEN SHELL OCCUPATION       0    2

  ZNUC  SCFIT    TOTAL HF ENERGY   KINETIC ENERGY   VIRIAL THEOREM ACCURACY
   6.0     9    -3.766704647E+01  3.775180683E+01 -1.997754800E+00  1.1E-06

 NUCLEAR CHARGE  8.0  SYMMETRY SPECIES            S    P
 N. ELECTRONS    8.0  NUMBER OF PRIMITIVE GTOS    8    4
                      NUMBER OF CONTRACTED GTOS   4    2
                      NUMBER OF CLOSED SHELLS     2    0
                      OPEN SHELL OCCUPATION       0    4

  ZNUC  SCFIT    TOTAL HF ENERGY   KINETIC ENERGY   VIRIAL THEOREM ACCURACY
   8.0    12    -7.477373220E+01  7.477365593E+01 -2.000001020E+00  3.8E-06

 AAAAAAAAAAAAAAAAAAAAAAAAAAAAAAAAAAAAAAAAAAAAAAAAAAAAAAAAAAAAAAAAAAAAAAAAAAAAAAA

 CHARGE NORMALIZATION FACTOR   1.00000000
 TOTAL ATOMIC CHARGES:
   5.0000000   5.0000000   5.0000000   5.0000000   5.0000000   5.0000000
   5.0000000   5.0000000   5.0000000   5.0000000   5.0000000   5.0000000
   1.0000000   1.0000000   1.0000000   1.0000000   1.0000000   1.0000000
   1.0000000   1.0000000   1.0000000   1.0000000   1.0000000   1.0000000
   1.0000000   1.0000000   1.0000000   1.0000000   1.0000000   1.0000000
   1.0000000   1.0000000   1.0000000   1.0000000   1.0000000   1.0000000
   6.0000000   6.0000000   6.0000000   6.0000000   6.0000000   6.0000000
   6.0000000   6.0000000   6.0000000   6.0000000   6.0000000   6.0000000
   6.0000000   6.0000000   6.0000000   6.0000000   6.0000000   6.0000000
   6.0000000   6.0000000   6.0000000   6.0000000   6.0000000   6.0000000
   6.0000000   6.0000000   6.0000000   6.0000000   6.0000000   6.0000000
   6.0000000   6.0000000   6.0000000   6.0000000   6.0000000   6.0000000
   8.0000000   8.0000000   8.0000000   8.0000000   8.0000000   8.0000000
   8.0000000   8.0000000   8.0000000   8.0000000   8.0000000   8.0000000
 TTTTTTTTTTTTTTTTTTTTTTTTTTTTTT MOQGAD      TELAPSE       26.93 TCPU       54.66
 TTTTTTTTTTTTTTTTTTTTTTTTTTTTTT SHELLXN     TELAPSE       46.35 TCPU      675.08
 TTTTTTTTTTTTTTTTTTTTTTTTTTTTTT MONMO3      TELAPSE       46.92 TCPU      693.41
 NUMERICALLY INTEGRATED DENSITY    395.9999954816
 TTTTTTTTTTTTTTTTTTTTTTTTTTTTTT NUMDFT      TELAPSE       48.43 TCPU      741.52
 CYC   0 ETOT(AU) -2.591965522669E+03 DETOT -2.59E+03 tst  0.00E+00 PX  1.00E+00
 TTTTTTTTTTTTTTTTTTTTTTTTTTTTTT DIIS        TELAPSE       48.54 TCPU      744.98
 TTTTTTTTTTTTTTTTTTTTTTTTTTTTTT FDIK        TELAPSE       50.36 TCPU      803.01
 INSULATING STATE
 TOP OF VALENCE BANDS -    BAND    198; K    4; EIG -3.0403215E-01 AU
 TOP OF VALENCE BANDS -    BAND    198; K    1; EIG -3.0493983E-01 AU
 BOTTOM OF VIRTUAL BANDS - BAND    199; K    1; EIG -1.6742476E-01 AU
 INDIRECT ENERGY BAND GAP:   3.7173 eV
 TTTTTTTTTTTTTTTTTTTTTTTTTTTTTT PDIG        TELAPSE       51.94 TCPU      809.49
 CHARGE NORMALIZATION FACTOR   1.00000000
 TOTAL ATOMIC CHARGES:
   4.1150988   4.1592391   4.1545796   4.1662917   4.1547286   4.1665412
   4.1661275   4.1544073   4.1659038   4.1541998   4.1588967   4.1147623
   0.7860081   0.7853061   0.7854208   0.7861250   0.7840434   0.7850530
   0.7851707   0.7841633   0.7858471   0.7863844   0.7865489   0.7860213
   0.7858411   0.7863721   0.7865097   0.7859782   0.7840438   0.7850538
   0.7852372   0.7842379   0.7859637   0.7852582   0.7854148   0.7861189
   6.0491639   6.0437488   6.2714594   6.2665155   6.2664859   6.2714157
   6.2701949   6.2640665   6.2640009   6.2701557   6.0430200   6.0484098
   6.0539906   6.0426506   6.2605553   6.2581001   6.2581241   6.2606018
   6.2604687   6.2579875   6.2581550   6.2606139   6.0414793   6.0527470
   6.0495613   6.0441071   6.2699839   6.2638234   6.2643796   6.2705269
   6.2710863   6.2661360   6.2667698   6.2716989   6.0425596   6.0479247
   8.7077968   8.6913225   8.7078933   8.6914300   8.7065779   8.6908718
   8.6917487   8.7082296   8.6912775   8.7069518   8.6919259   8.7084080
 TTTTTTTTTTTTTTTTTTTTTTTTTTTTTT MOQGAD      TELAPSE       52.04 TCPU      809.59
 TTTTTTTTTTTTTTTTTTTTTTTTTTTTTT SHELLXN     TELAPSE       72.21 TCPU     1453.18
 TTTTTTTTTTTTTTTTTTTTTTTTTTTTTT MONMO3      TELAPSE       72.78 TCPU     1471.50
 NUMERICALLY INTEGRATED DENSITY    395.9999762913
 TTTTTTTTTTTTTTTTTTTTTTTTTTTTTT NUMDFT      TELAPSE       74.30 TCPU     1520.11
 CYC   1 ETOT(AU) -2.577651453108E+03 DETOT  1.43E+01 tst  0.00E+00 PX  1.00E+00
 TTTTTTTTTTTTTTTTTTTTTTTTTTTTTT DIIS        TELAPSE       74.44 TCPU     1524.39
 DIIS TEST: 0.21991E+01 AT SCF   CYCLE   1 - MIX   30 %
 TTTTTTTTTTTTTTTTTTTTTTTTTTTTTT FDIK        TELAPSE       76.26 TCPU     1582.77
 INSULATING STATE
 TOP OF VALENCE BANDS -    BAND    198; K    4; EIG -2.1445304E-01 AU
 TOP OF VALENCE BANDS -    BAND    198; K    1; EIG -2.1621044E-01 AU
 BOTTOM OF VIRTUAL BANDS - BAND    199; K    1; EIG -9.3350738E-02 AU
 INDIRECT ENERGY BAND GAP:   3.2954 eV
 TTTTTTTTTTTTTTTTTTTTTTTTTTTTTT PDIG        TELAPSE       77.83 TCPU     1589.27
 CHARGE NORMALIZATION FACTOR   1.00000000
 TOTAL ATOMIC CHARGES:
   4.6758056   4.7050794   4.6664470   4.7207685   4.6662882   4.7207916
   4.7209597   4.6663967   4.7209484   4.6664136   4.7051480   4.6757967
   0.9105395   0.9047770   0.9047911   0.9105520   0.9114081   0.9140586
   0.9140748   0.9116093   0.8962115   0.8971709   0.8970237   0.8963009
   0.8961787   0.8971705   0.8970009   0.8962782   0.9114070   0.9140476
   0.9141516   0.9116826   0.9104712   0.9047316   0.9048039   0.9105540
   5.8508168   5.8841967   6.1555799   6.1481670   6.1485922   6.1559352
   6.1218618   6.1461511   6.1467192   6.1227233   5.8868455   5.8533512
   5.9431220   5.8697035   6.1517799   6.1038608   6.1046862   6.1521593
   6.1519761   6.1040008   6.1046202   6.1521470   5.8726406   5.9461649
   5.8508401   5.8841698   6.1218898   6.1461456   6.1466151   6.1226195
   6.1557560   6.1483671   6.1483974   6.1556728   5.8870345   5.8534977
   8.3529684   8.3295979   8.3533131   8.3299513   8.3239214   8.3374036
   8.3294139   8.3527725   8.3371307   8.3238965   8.3298066   8.3531783
 TTTTTTTTTTTTTTTTTTTTTTTTTTTTTT MOQGAD      TELAPSE       77.93 TCPU     1589.36
 TTTTTTTTTTTTTTTTTTTTTTTTTTTTTT SHELLXN     TELAPSE       98.43 TCPU     2243.42
 TTTTTTTTTTTTTTTTTTTTTTTTTTTTTT MONMO3      TELAPSE       99.00 TCPU     2261.74
 NUMERICALLY INTEGRATED DENSITY    395.9999661391
 TTTTTTTTTTTTTTTTTTTTTTTTTTTTTT NUMDFT      TELAPSE      100.52 TCPU     2310.33
 CYC   2 ETOT(AU) -2.578031058033E+03 DETOT -3.80E-01 tst  2.99E-03 PX  1.63E-01
 TTTTTTTTTTTTTTTTTTTTTTTTTTTTTT DIIS        TELAPSE      100.68 TCPU     2315.29
 DIIS TEST: 0.93295E+00 AT SCF   CYCLE   2 - DIIS ACTIVE - HISTORY:     2 CYCLES
 TTTTTTTTTTTTTTTTTTTTTTTTTTTTTT FDIK        TELAPSE      102.50 TCPU     2373.51
 INSULATING STATE
 TOP OF VALENCE BANDS -    BAND    198; K    4; EIG -2.2812787E-01 AU
 TOP OF VALENCE BANDS -    BAND    198; K    1; EIG -2.2993887E-01 AU
 BOTTOM OF VIRTUAL BANDS - BAND    199; K    1; EIG -8.9214679E-02 AU
 INDIRECT ENERGY BAND GAP:   3.7800 eV
 TTTTTTTTTTTTTTTTTTTTTTTTTTTTTT PDIG        TELAPSE      104.06 TCPU     2380.00
 CHARGE NORMALIZATION FACTOR   1.00000000
 TOTAL ATOMIC CHARGES:
   4.4434937   4.5025326   4.4770493   4.5137550   4.4770467   4.5138841
   4.5135467   4.4770352   4.5133996   4.4768822   4.5021270   4.4432626
   0.8880842   0.8856340   0.8857595   0.8883108   0.8882955   0.8926808
   0.8928373   0.8883229   0.8769034   0.8726280   0.8730204   0.8769462
   0.8769164   0.8726421   0.8729625   0.8768913   0.8882835   0.8926805
   0.8928913   0.8883798   0.8880733   0.8856523   0.8857226   0.8882512
   5.9219997   5.8745903   6.1628488   6.1656814   6.1654810   6.1626980
   6.1781422   6.1443016   6.1435591   6.1771064   5.8739027   5.9213593
   5.8974314   5.9046906   6.1649591   6.1722017   6.1717731   6.1649943
   6.1651173   6.1722617   6.1716639   6.1648096   5.9037549   5.8967180
   5.9224458   5.8749345   6.1780838   6.1441533   6.1437416   6.1771984
   6.1627398   6.1655118   6.1655341   6.1627638   5.8735333   5.9210839
   8.5200999   8.5100973   8.5202031   8.5102699   8.5350983   8.5004382
   8.5103359   8.5204429   8.5005597   8.5347594   8.5105344   8.5206064
 TTTTTTTTTTTTTTTTTTTTTTTTTTTTTT MOQGAD      TELAPSE      104.16 TCPU     2380.10
 TTTTTTTTTTTTTTTTTTTTTTTTTTTTTT SHELLXN     TELAPSE      124.47 TCPU     3028.13
 TTTTTTTTTTTTTTTTTTTTTTTTTTTTTT MONMO3      TELAPSE      125.05 TCPU     3046.49
 NUMERICALLY INTEGRATED DENSITY    395.9999663470
 TTTTTTTTTTTTTTTTTTTTTTTTTTTTTT NUMDFT      TELAPSE      126.59 TCPU     3095.71
 CYC   3 ETOT(AU) -2.578220244589E+03 DETOT -1.89E-01 tst  5.64E-04 PX  7.42E-02
 TTTTTTTTTTTTTTTTTTTTTTTTTTTTTT DIIS        TELAPSE      126.77 TCPU     3101.39
 DIIS TEST: 0.41247E-01 AT SCF   CYCLE   3 - DIIS ACTIVE - HISTORY:     3 CYCLES
 TTTTTTTTTTTTTTTTTTTTTTTTTTTTTT FDIK        TELAPSE      128.62 TCPU     3160.79
 INSULATING STATE
 TOP OF VALENCE BANDS -    BAND    198; K    4; EIG -2.3598830E-01 AU
 TOP OF VALENCE BANDS -    BAND    198; K    1; EIG -2.3741921E-01 AU
 BOTTOM OF VIRTUAL BANDS - BAND    199; K    1; EIG -9.7219720E-02 AU
 INDIRECT ENERGY BAND GAP:   3.7761 eV
 TTTTTTTTTTTTTTTTTTTTTTTTTTTTTT PDIG        TELAPSE      130.19 TCPU     3167.27
 CHARGE NORMALIZATION FACTOR   1.00000000
 TOTAL ATOMIC CHARGES:
   4.4635161   4.4980578   4.4837481   4.5121692   4.4837140   4.5122985
   4.5121908   4.4836268   4.5120442   4.4835004   4.4978536   4.4633950
   0.8724370   0.8683643   0.8684702   0.8725153   0.8753792   0.8728793
   0.8728722   0.8754751   0.8611636   0.8636935   0.8635999   0.8613998
   0.8611670   0.8637322   0.8635248   0.8613348   0.8753984   0.8728795
   0.8729363   0.8755073   0.8724225   0.8683532   0.8684488   0.8724709
   5.9203541   5.9517422   6.1862746   6.1707397   6.1709075   6.1862526
   6.1453168   6.1850266   6.1858222   6.1467594   5.9539805   5.9222728
   6.0073766   5.9123740   6.1863602   6.1386413   6.1394034   6.1866462
   6.1863444   6.1385230   6.1394772   6.1867445   5.9143324   6.0091522
   5.9204911   5.9518384   6.1451906   6.1848228   6.1859779   6.1468888
   6.1861094   6.1706357   6.1710019   6.1863175   5.9539467   5.9222573
   8.5025249   8.4769487   8.5027775   8.4772013   8.4730181   8.4879049
   8.4769522   8.5023979   8.4879217   8.4734948   8.4772736   8.5027421
 TTTTTTTTTTTTTTTTTTTTTTTTTTTTTT MOQGAD      TELAPSE      130.28 TCPU     3167.37
 TTTTTTTTTTTTTTTTTTTTTTTTTTTTTT SHELLXN     TELAPSE      150.96 TCPU     3827.06
 TTTTTTTTTTTTTTTTTTTTTTTTTTTTTT MONMO3      TELAPSE      151.54 TCPU     3845.38
 NUMERICALLY INTEGRATED DENSITY    395.9999667665
 TTTTTTTTTTTTTTTTTTTTTTTTTTTTTT NUMDFT      TELAPSE      153.06 TCPU     3894.07
 CYC   4 ETOT(AU) -2.578226680843E+03 DETOT -6.44E-03 tst  1.00E-04 PX  2.61E-02
 TTTTTTTTTTTTTTTTTTTTTTTTTTTTTT DIIS        TELAPSE      153.26 TCPU     3900.38
 DIIS TEST: 0.19508E-01 AT SCF   CYCLE   4 - DIIS ACTIVE - HISTORY:     4 CYCLES
 TTTTTTTTTTTTTTTTTTTTTTTTTTTTTT FDIK        TELAPSE      155.10 TCPU     3958.89
 INSULATING STATE
 TOP OF VALENCE BANDS -    BAND    198; K    4; EIG -2.3653909E-01 AU
 TOP OF VALENCE BANDS -    BAND    198; K    1; EIG -2.3814570E-01 AU
 BOTTOM OF VIRTUAL BANDS - BAND    199; K    1; EIG -9.7148134E-02 AU
 INDIRECT ENERGY BAND GAP:   3.7930 eV
 TTTTTTTTTTTTTTTTTTTTTTTTTTTTTT PDIG        TELAPSE      156.66 TCPU     3965.38
 CHARGE NORMALIZATION FACTOR   1.00000000
 TOTAL ATOMIC CHARGES:
   4.4617866   4.5054101   4.4808316   4.5194102   4.4808058   4.5195337
   4.5193915   4.4808545   4.5192584   4.4807193   4.5051851   4.4616336
   0.8729948   0.8695841   0.8696793   0.8731242   0.8747680   0.8762837
   0.8764320   0.8748998   0.8615721   0.8605703   0.8607793   0.8616663
   0.8615645   0.8605786   0.8607276   0.8616201   0.8747660   0.8762808
   0.8764957   0.8749546   0.8729673   0.8695780   0.8696605   0.8730858
   5.9304823   5.9268411   6.1736339   6.1791662   6.1792097   6.1737080
   6.1758145   6.1605523   6.1601041   6.1753608   5.9270515   5.9306306
   5.9552413   5.9403803   6.1743800   6.1622809   6.1622867   6.1744961
   6.1745215   6.1623441   6.1621959   6.1743862   5.9405477   5.9555265
   5.9307974   5.9270824   6.1757547   6.1604026   6.1602365   6.1754198
   6.1735637   6.1790860   6.1792221   6.1737168   5.9268343   5.9304716
   8.4970335   8.4844054   8.4972016   8.4846184   8.4956698   8.4793175
   8.4844971   8.4971877   8.4792929   8.4954088   8.4847549   8.4974282
 TTTTTTTTTTTTTTTTTTTTTTTTTTTTTT MOQGAD      TELAPSE      156.76 TCPU     3965.48
 TTTTTTTTTTTTTTTTTTTTTTTTTTTTTT SHELLXN     TELAPSE      177.26 TCPU     4619.39
 TTTTTTTTTTTTTTTTTTTTTTTTTTTTTT MONMO3      TELAPSE      177.83 TCPU     4637.71
 NUMERICALLY INTEGRATED DENSITY    395.9999671504
 TTTTTTTTTTTTTTTTTTTTTTTTTTTTTT NUMDFT      TELAPSE      179.35 TCPU     4686.25
 CYC   5 ETOT(AU) -2.578230689623E+03 DETOT -4.01E-03 tst  5.39E-05 PX  1.27E-02
 TTTTTTTTTTTTTTTTTTTTTTTTTTTTTT DIIS        TELAPSE      179.58 TCPU     4692.65
 DIIS TEST: 0.28311E-02 AT SCF   CYCLE   5 - DIIS ACTIVE - HISTORY:     5 CYCLES
 TTTTTTTTTTTTTTTTTTTTTTTTTTTTTT FDIK        TELAPSE      181.40 TCPU     4750.73
 INSULATING STATE
 TOP OF VALENCE BANDS -    BAND    198; K    4; EIG -2.3556498E-01 AU
 TOP OF VALENCE BANDS -    BAND    198; K    1; EIG -2.3714849E-01 AU
 BOTTOM OF VIRTUAL BANDS - BAND    199; K    1; EIG -9.7175539E-02 AU
 INDIRECT ENERGY BAND GAP:   3.7658 eV
 TTTTTTTTTTTTTTTTTTTTTTTTTTTTTT PDIG        TELAPSE      182.96 TCPU     4757.22
 CHARGE NORMALIZATION FACTOR   1.00000000
 TOTAL ATOMIC CHARGES:
   4.4624603   4.5054436   4.4824789   4.5190458   4.4824462   4.5191704
   4.5190025   4.4824307   4.5188682   4.4823034   4.5051990   4.4623070
   0.8745597   0.8715393   0.8716521   0.8746962   0.8764331   0.8774827
   0.8775665   0.8765344   0.8633120   0.8621876   0.8623230   0.8634498
   0.8633106   0.8622085   0.8622615   0.8633972   0.8764364   0.8774805
   0.8776295   0.8765818   0.8745379   0.8715352   0.8716304   0.8746540
   5.9280009   5.9190931   6.1809808   6.1705661   6.1705616   6.1809317
   6.1647763   6.1681814   6.1681991   6.1649473   5.9198744   5.9286639
   5.9612388   5.9179720   6.1798477   6.1563400   6.1565240   6.1799944
   6.1799325   6.1563212   6.1565001   6.1799499   5.9185113   5.9618227
   5.9282830   5.9193049   6.1646917   6.1680162   6.1683500   6.1650409
   6.1808703   6.1704514   6.1706133   6.1809724   5.9196849   5.9285323
   8.5037984   8.4854773   8.5039825   8.4856987   8.4945147   8.4866957
   8.4855737   8.5038865   8.4867409   8.4945465   8.4858405   8.5041463
 TTTTTTTTTTTTTTTTTTTTTTTTTTTTTT MOQGAD      TELAPSE      183.06 TCPU     4757.31
 TTTTTTTTTTTTTTTTTTTTTTTTTTTTTT SHELLXN     TELAPSE      203.29 TCPU     5402.81
 TTTTTTTTTTTTTTTTTTTTTTTTTTTTTT MONMO3      TELAPSE      203.87 TCPU     5421.13
 NUMERICALLY INTEGRATED DENSITY    395.9999669714
 TTTTTTTTTTTTTTTTTTTTTTTTTTTTTT NUMDFT      TELAPSE      205.39 TCPU     5469.78
 CYC   6 ETOT(AU) -2.578231311059E+03 DETOT -6.21E-04 tst  9.47E-06 PX  5.20E-03
 TTTTTTTTTTTTTTTTTTTTTTTTTTTTTT DIIS        TELAPSE      205.63 TCPU     5476.18
 DIIS TEST: 0.38741E-03 AT SCF   CYCLE   6 - DIIS ACTIVE - HISTORY:     6 CYCLES
 TTTTTTTTTTTTTTTTTTTTTTTTTTTTTT FDIK        TELAPSE      207.46 TCPU     5534.13
 INSULATING STATE
 TOP OF VALENCE BANDS -    BAND    198; K    4; EIG -2.3535582E-01 AU
 TOP OF VALENCE BANDS -    BAND    198; K    1; EIG -2.3692730E-01 AU
 BOTTOM OF VIRTUAL BANDS - BAND    199; K    1; EIG -9.6603782E-02 AU
 INDIRECT ENERGY BAND GAP:   3.7756 eV
 TTTTTTTTTTTTTTTTTTTTTTTTTTTTTT PDIG        TELAPSE      209.02 TCPU     5540.61
 CHARGE NORMALIZATION FACTOR   1.00000000
 TOTAL ATOMIC CHARGES:
   4.4615678   4.5053395   4.4825911   4.5187033   4.4825612   4.5188280
   4.5186590   4.4825439   4.5185236   4.4824141   4.5050863   4.4614093
   0.8752162   0.8714056   0.8715104   0.8753449   0.8768440   0.8777665
   0.8778535   0.8769484   0.8637559   0.8631017   0.8632258   0.8638915
   0.8637549   0.8631224   0.8631653   0.8638386   0.8768478   0.8777652
   0.8779156   0.8769950   0.8751963   0.8714014   0.8714881   0.8753015
   5.9230706   5.9244999   6.1761718   6.1750461   6.1750853   6.1761613
   6.1656345   6.1674045   6.1673935   6.1658110   5.9253365   5.9237609
   5.9590600   5.9214459   6.1774381   6.1570477   6.1572677   6.1776103
   6.1775226   6.1570423   6.1572354   6.1775628   5.9220899   5.9597251
   5.9233447   5.9247099   6.1655520   6.1672317   6.1675488   6.1659046
   6.1760541   6.1749383   6.1751381   6.1762026   5.9251550   5.9236313
   8.5027749   8.4858145   8.5029628   8.4860339   8.4945343   8.4857560
   8.4859066   8.5028603   8.4857816   8.4945563   8.4861760   8.5031245
 TTTTTTTTTTTTTTTTTTTTTTTTTTTTTT MOQGAD      TELAPSE      209.12 TCPU     5540.71
 TTTTTTTTTTTTTTTTTTTTTTTTTTTTTT SHELLXN     TELAPSE      229.31 TCPU     6184.83
 TTTTTTTTTTTTTTTTTTTTTTTTTTTTTT MONMO3      TELAPSE      229.88 TCPU     6203.15
 NUMERICALLY INTEGRATED DENSITY    395.9999669307
 TTTTTTTTTTTTTTTTTTTTTTTTTTTTTT NUMDFT      TELAPSE      231.40 TCPU     6251.78
 CYC   7 ETOT(AU) -2.578231384836E+03 DETOT -7.38E-05 tst  1.07E-06 PX  1.34E-03
 TTTTTTTTTTTTTTTTTTTTTTTTTTTTTT DIIS        TELAPSE      231.67 TCPU     6258.19
 DIIS TEST: 0.10008E-03 AT SCF   CYCLE   7 - DIIS ACTIVE - HISTORY:     7 CYCLES
 TTTTTTTTTTTTTTTTTTTTTTTTTTTTTT FDIK        TELAPSE      233.50 TCPU     6316.51
 INSULATING STATE
 TOP OF VALENCE BANDS -    BAND    198; K    4; EIG -2.3555005E-01 AU
 TOP OF VALENCE BANDS -    BAND    198; K    1; EIG -2.3713056E-01 AU
 BOTTOM OF VIRTUAL BANDS - BAND    199; K    1; EIG -9.6803846E-02 AU
 INDIRECT ENERGY BAND GAP:   3.7755 eV
 TTTTTTTTTTTTTTTTTTTTTTTTTTTTTT PDIG        TELAPSE      235.06 TCPU     6323.00
 CHARGE NORMALIZATION FACTOR   1.00000000
 TOTAL ATOMIC CHARGES:
   4.4618654   4.5053170   4.4826830   4.5187584   4.4826540   4.5188831
   4.5187159   4.4826472   4.5185808   4.4825166   4.5050670   4.4617092
   0.8750165   0.8715188   0.8716240   0.8751473   0.8766446   0.8777873
   0.8778836   0.8767500   0.8635552   0.8627145   0.8628571   0.8636834
   0.8635535   0.8627338   0.8627975   0.8636312   0.8766473   0.8777856
   0.8779459   0.8767980   0.8749953   0.8715150   0.8716021   0.8751046
   5.9262014   5.9224030   6.1775879   6.1734431   6.1734710   6.1775823
   6.1664341   6.1664439   6.1663653   6.1665002   5.9231195   5.9267939
   5.9602306   5.9219030   6.1779179   6.1569877   6.1571601   6.1780745
   6.1780127   6.1569871   6.1571208   6.1780179   5.9224396   5.9608140
   5.9264853   5.9226185   6.1663535   6.1662773   6.1665160   6.1665892
   6.1774806   6.1733365   6.1735172   6.1776186   5.9229291   5.9266584
   8.5023959   8.4854567   8.5025789   8.4856765   8.4943784   8.4852212
   8.4855506   8.5024932   8.4852441   8.4943529   8.4858178   8.5027524
 TTTTTTTTTTTTTTTTTTTTTTTTTTTTTT MOQGAD      TELAPSE      235.16 TCPU     6323.10
 TTTTTTTTTTTTTTTTTTTTTTTTTTTTTT SHELLXN     TELAPSE      255.37 TCPU     6967.95
 TTTTTTTTTTTTTTTTTTTTTTTTTTTTTT MONMO3      TELAPSE      255.94 TCPU     6986.26
 NUMERICALLY INTEGRATED DENSITY    395.9999669474
 TTTTTTTTTTTTTTTTTTTTTTTTTTTTTT NUMDFT      TELAPSE      257.47 TCPU     7034.85
 CYC   8 ETOT(AU) -2.578231409959E+03 DETOT -2.51E-05 tst  2.68E-07 PX  7.50E-04
 TTTTTTTTTTTTTTTTTTTTTTTTTTTTTT DIIS        TELAPSE      257.75 TCPU     7041.22
 DIIS TEST: 0.11196E-05 AT SCF   CYCLE   8 - DIIS ACTIVE - HISTORY:     8 CYCLES
 TTTTTTTTTTTTTTTTTTTTTTTTTTTTTT FDIK        TELAPSE      259.58 TCPU     7099.31
 INSULATING STATE
 TOP OF VALENCE BANDS -    BAND    198; K    4; EIG -2.3553722E-01 AU
 TOP OF VALENCE BANDS -    BAND    198; K    1; EIG -2.3711641E-01 AU
 BOTTOM OF VIRTUAL BANDS - BAND    199; K    1; EIG -9.6797789E-02 AU
 INDIRECT ENERGY BAND GAP:   3.7753 eV
 TTTTTTTTTTTTTTTTTTTTTTTTTTTTTT PDIG        TELAPSE      261.14 TCPU     7105.80
 CHARGE NORMALIZATION FACTOR   1.00000000
 TOTAL ATOMIC CHARGES:
   4.4619896   4.5053836   4.4825563   4.5188615   4.4825260   4.5189860
   4.5188201   4.4825176   4.5186853   4.4823882   4.5051364   4.4618357
   0.8749499   0.8715281   0.8716356   0.8750822   0.8766936   0.8777350
   0.8778265   0.8767973   0.8635612   0.8626888   0.8628267   0.8636941
   0.8635598   0.8627086   0.8627664   0.8636416   0.8766967   0.8777331
   0.8778892   0.8768448   0.8749288   0.8715240   0.8716138   0.8750394
   5.9259501   5.9224912   6.1777767   6.1732934   6.1733129   6.1777576
   6.1662073   6.1666941   6.1666505   6.1663168   5.9232403   5.9265737
   5.9597898   5.9222422   6.1778405   6.1570364   6.1572176   6.1779936
   6.1779301   6.1570323   6.1571832   6.1779421   5.9227939   5.9603803
   5.9262309   5.9227048   6.1661268   6.1665274   6.1668006   6.1664060
   6.1776676   6.1731857   6.1733609   6.1777954   5.9230522   5.9264413
   8.5024301   8.4854166   8.5026150   8.4856367   8.4944930   8.4853519
   8.4855091   8.5025224   8.4853802   8.4944878   8.4857766   8.5027829
 TTTTTTTTTTTTTTTTTTTTTTTTTTTTTT MOQGAD      TELAPSE      261.24 TCPU     7105.90
 TTTTTTTTTTTTTTTTTTTTTTTTTTTTTT SHELLXN     TELAPSE      281.51 TCPU     7752.57
 TTTTTTTTTTTTTTTTTTTTTTTTTTTTTT MONMO3      TELAPSE      282.08 TCPU     7770.89
 NUMERICALLY INTEGRATED DENSITY    395.9999669454
 TTTTTTTTTTTTTTTTTTTTTTTTTTTTTT NUMDFT      TELAPSE      283.60 TCPU     7819.45
 CYC   9 ETOT(AU) -2.578231410081E+03 DETOT -1.21E-07 tst  4.34E-09 PX  1.13E-04
 TTTTTTTTTTTTTTTTTTTTTTTTTTTTTT DIIS        TELAPSE      283.92 TCPU     7825.96
 DIIS TEST: 0.32919E-06 AT SCF   CYCLE   9 - DIIS ACTIVE - HISTORY:     9 CYCLES
 TTTTTTTTTTTTTTTTTTTTTTTTTTTTTT FDIK        TELAPSE      285.75 TCPU     7884.22
 INSULATING STATE
 TOP OF VALENCE BANDS -    BAND    198; K    4; EIG -2.3554306E-01 AU
 TOP OF VALENCE BANDS -    BAND    198; K    1; EIG -2.3712325E-01 AU
 BOTTOM OF VIRTUAL BANDS - BAND    199; K    1; EIG -9.6808985E-02 AU
 INDIRECT ENERGY BAND GAP:   3.7751 eV
 TTTTTTTTTTTTTTTTTTTTTTTTTTTTTT PDIG        TELAPSE      287.31 TCPU     7890.71
 CHARGE NORMALIZATION FACTOR   1.00000000
 TOTAL ATOMIC CHARGES:
   4.4619836   4.5053681   4.4825823   4.5188591   4.4825525   4.5189837
   4.5188175   4.4825450   4.5186826   4.4824150   4.5051198   4.4618280
   0.8749731   0.8715029   0.8716089   0.8751044   0.8766664   0.8777433
   0.8778380   0.8767717   0.8635365   0.8626923   0.8628330   0.8636665
   0.8635348   0.8627117   0.8627732   0.8636142   0.8766693   0.8777416
   0.8779004   0.8768195   0.8749519   0.8714989   0.8715871   0.8750617
   5.9259974   5.9224878   6.1776249   6.1734497   6.1734749   6.1776147
   6.1663083   6.1665788   6.1665135   6.1663911   5.9232161   5.9266012
   5.9599813   5.9220156   6.1779035   6.1570064   6.1571832   6.1780600
   6.1779969   6.1570049   6.1571457   6.1780048   5.9225572   5.9605673
   5.9262804   5.9227028   6.1662277   6.1664121   6.1666640   6.1664802
   6.1775170   6.1733430   6.1735217   6.1776513   5.9230265   5.9264665
   8.5024436   8.4854619   8.5026271   8.4856816   8.4944722   8.4853002
   8.4855555   8.5025392   8.4853249   8.4944550   8.4858227   8.5027987
 TTTTTTTTTTTTTTTTTTTTTTTTTTTTTT MOQGAD      TELAPSE      287.41 TCPU     7890.81
 TTTTTTTTTTTTTTTTTTTTTTTTTTTTTT SHELLXN     TELAPSE      307.62 TCPU     8535.58
 +++ ENERGIES IN A.U. +++
 ::: EXT EL-POLE                                  -3.0333250950858E+03
 ::: EXT EL-SPHEROPOLE                             3.4736263737943E+01
 ::: BIELET ZONE E-E                               4.4540247105179E+03
 ::: TOTAL E-E                                     1.4554358791700E+03
 ::: TOTAL E-N + N-E                              -6.5581799011841E+03
 ::: TOTAL N-N                                     2.3205801381373E+02
 ::: KINETIC ENERGY                                2.5599036206965E+03
 ::: PSEUDO TOTAL   ENERGY                        -2.3107823875038E+03
 ::: VIRIAL COEFFICIENT                            1.0511470525452E+00
 TTTTTTTTTTTTTTTTTTTTTTTTTTTTTT MONMO3      TELAPSE      308.19 TCPU     8553.90
 NUMERICALLY INTEGRATED DENSITY    395.9999669452
 EXCHANGE ENERGY: -0.252046536311E+03  CORRELATION ENERGY: -0.154024862343E+02
 TTTTTTTTTTTTTTTTTTTTTTTTTTTTTT NUMDFT      TELAPSE      309.72 TCPU     8602.69
 CYC  10 ETOT(AU) -2.578231410049E+03 DETOT  3.12E-08 tst  8.95E-10 PX  1.13E-04

 == SCF ENDED - CONVERGENCE ON ENERGY      E(AU) -2.5782314100494E+03 CYCLES  10


 ENERGY EXPRESSION=HARTREE+FOCK EXCH*0.00000+(HSESOL     EXCH)*1.00000+PBESOL     CORR


 TOTAL ENERGY(DFT)(AU)( 10) -2.5782314100494E+03 DE 3.1E-08 tester 8.9E-10
 TTTTTTTTTTTTTTTTTTTTTTTTTTTTTT EDFT        TELAPSE      309.72 TCPU     8602.70
 
 INFORMATION **** DFTD3 ENERGY **** CALCULATE DFTD3 ENERGY

           DFT-D V3(BJ)
 DF                                         hsesol3c  
 parameters
 s6       :    1.0000
 s8       :    0.0000
 a1       :    0.5196
 a2       :    4.9385
 k1 k3    :   16.0000   -4.0000
 Cutoff   :   50.2022
 CN-Cutoff:   21.1671
 ABC-Cutoff:   21.1671
 
 Edisp /kcal,au:   -56.4166 -0.08990549

 E6    /kcal :   -60.4148
 E8    /kcal :     0.0000
 E6(ABC) "   :   3.998256
 
 INFORMATION **** DFTD3 ENERGY **** NORMAL TERMINATION OF DFTD3 MODULE

 GCP ENERGY CALCULATION
  level        hsesol3c            basis:hsesol3c
  Nbf            948
  Atoms           84

  Parameters: 
  sigma     1.0000
  eta       1.4281
  alpha     0.2936
  beta      1.9467

  dmp_scal      4.0000
  dmp_exp       6.0000
 cutoffs: 
   distance [bohr] 60.0
   noise    [a.u.] 2.2E-16
 SR-damping   T
 ** gCP correction **
  Egcp:        0.1674924099 / (a.u.) ||     105.1031 / (kcal/mol)
 INFORMATION **** GCP **** NORMAL TERMINATION OF GCP MODULE

 *******************************************************************************

 DFT-D3-GCP DISPERSION AND COUNTERPOISE CORRECTION

 D3 DISPERSION ENERGY (AU)      -8.9905489774994E-02
 GCP ENERGY (AU)                 1.6749240991586E-01
 TOTAL ENERGY + DISP + GCP (AU) -2.5781538231293E+03

 *******************************************************************************

 EIGENVECTORS IN FORTRAN UNIT  8
 TTTTTTTTTTTTTTTTTTTTTTTTTTTTTT END         TELAPSE      313.30 TCPU     8611.72
 EEEEEEEEEE TERMINATION  DATE 19 02 2026 TIME 20:03:40.9
