 Default number of threads is:           32

         
 *******************************************************************************
 *                                                                             *
 *                               CRYSTAL23                                     *
 *                      public : 1.0.1 - October 2022                          *
 *                       HTTP://WWW.CRYSTAL.UNITO.IT                           *
 *                                                                             *
 *                              MAIN AUTHORS                                   *
 *                                                                             *
 *  R. DOVESI(1,11), V.R. SAUNDERS(2), C. ROETTI(1,11), R. ORLANDO(1,11),      *
 *  C.M. ZICOVICH-WILSON(1,3), F. PASCALE(4), B. CIVALLERI(1,11),              *
 *  K. DOLL(5), N.M. HARRISON(6), I.J. BUSH(7), Ph. D'ARCO(8),                 *
 *  M. LLUNELL(9), M. CAUSA'(10), Y. NOEL(8), L. MASCHIO(1,11), A. ERBA(1,11)  *
 *  M. RE'RAT(14), S. CASASSA(1,11), B.G. SEARLE(2), J.K. DESMARAIS(1)         *
 *                                                                             *
 *        CONTRIBUTIONS TO THE CODE HAVE ALSO BEEN GIVEN BY                    *
 *                                                                             *
 *  M. FERRABONE(1,11), M. DE LA PIERRE(1,11), M. FERRERO(1,11),               *
 *  J. BAIMA(1,11), E. ALBANESE(1,11), M.F. PEINTINGER(12), R. BAST(13),       *
 *  B. KIRTMAN(15), V. LACIVITA(1,11), R. DEMICHELIS(1,16)                     *
 *  G. BRANDEBURG(17), S. SALUSTRO(1,11), G. SANSONE(1,11)                     *
 *  M.T. RUGGIERO(18), L.E. DAGA(1), L. DONA'(1), A. COSSARD(1)                *
 *                                                                             *
 * (1) THEORETICAL CHEMISTRY GROUP - UNIVERSITA' DI TORINO - TORINO (ITALY)    *
 * (2) SCIENTIFIC COMPUTING DEPARTMENT - STFC DARESBURY (UK)                   *
 * (3) UNIVERSIDAD AUTONOMA DEL ESTADO DE MORELOS - CUERNAVACA (MEXICO)        *
 * (4) UNIVERSITE' DE LORRAINE - NANCY (FRANCE)                                *
 * (5) UNIVERSITAET STUTTGART- STUTTGART (GERMANY)                             *
 * (6) IMPERIAL COLLEGE - LONDON (UK)                                          *
 * (7) SCIENTIFIC COMPUTING DEPARTMENT - STFC RAL (UK)                         *
 * (8) UPMC - SORBONNE UNIVERSITES - PARIS (FRANCE)                            *
 * (9) UNIVERSIDAD DE BARCELONA - BARCELONA (SPAIN)                            *
 *(10) UNIVERSITA' DI NAPOLI "FEDERICO II" - NAPOLI (ITALY)                    *
 *(11) NIS - NANOSTRUCTURED INTERFACES AND SURFACES - TORINO (ITALY)           *
 *(12) MPI FUER CHEMISCHE ENERGIEKONVERSION - MUELHEIM AN DER RUHR (GERMANY)   *
 *(13) UNIVERSITY OF TROMSO - TROMSO (NORWAY)                                  *
 *(14) UNIVERSITE' DE PAU ET DES PAYS DE L'ADOUR - PAU (FRANCE)                *
 *(15) UNIVERSITY OF CALIFORNIA SANTA BARBARA - SANTA BARBARA (USA)            *
 *(16) CURTIN UNIVERSITY - PERTH (AUSTRALIA)                                   *
 *(17) UNIVERSITY COLLEGE LONDON - LONDON (UK)                                 *
 *(18) UNIVERSITY OF VERMONT - BURLINGTON (USA)                                *
 *                                                                             *
 *******************************************************************************
 EEEEEEEEEE STARTING  DATE 19 02 2026 TIME 19:03:40.0
 cof-1_z39_L087_incl                                                             

 CRYSTAL CALCULATION
 (INPUT ACCORDING TO THE INTERNATIONAL TABLES FOR X-RAY CRYSTALLOGRAPHY)
 CRYSTAL FAMILY                       :  TRICLINIC   
 CRYSTAL CLASS  (GROTH - 1921)        :  TRICLINIC PEDIAL                     

 SPACE GROUP (NONCENTROSYMMETRIC)     :  P 1             

 LATTICE PARAMETERS  (ANGSTROMS AND DEGREES) - CONVENTIONAL CELL
        A           B           C        ALPHA        BETA       GAMMA
    15.02361    15.02392     9.51089    37.82410    89.99998   119.99596


 NUMBER OF IRREDUCIBLE ATOMS IN THE CONVENTIONAL CELL:   42

 INPUT COORDINATES

 ATOM AT. N.              COORDINATES
   1   5     4.466231000000E-01 -1.068306300000E-01  5.012181900000E-01
   2   5     6.056787500000E-01  5.222901000000E-02  5.012182100000E-01
   3   5     4.474771200000E-01  5.392859000000E-02  4.986430600000E-01
   4   5     6.019780000000E-02  2.794843600000E-01  5.012182000000E-01
   5   5     2.193057700000E-01  2.794635900000E-01  5.012182000000E-01
   6   5     2.201443500000E-01  4.403195700000E-01  4.986430600000E-01
   7   1     7.377656100000E-01 -2.165958000000E-02  4.958794100000E-01
   8   1    -6.837138000000E-02  3.610080800000E-01  4.950630200000E-01
   9   1     7.380073900000E-01  2.641108300000E-01  4.949373700000E-01
  10   1    -6.823830000000E-02  7.570245000000E-02  4.949687100000E-01
  11   1     5.230119600000E-01 -2.390709100000E-01  5.041074300000E-01
  12   1     1.406371600000E-01  5.668179700000E-01  5.049238800000E-01
  13   1     2.375355300000E-01 -2.396531700000E-01  5.050496000000E-01
  14   1     4.259882600000E-01  5.666652000000E-01  5.050180500000E-01
  15   1     5.257947100000E-01  2.634645500000E-01  4.958794600000E-01
  16   1     1.439559400000E-01  7.556400000000E-02  4.950629700000E-01
  17   1     2.408765700000E-01 -2.113828000000E-02  4.949372700000E-01
  18   1     4.293163700000E-01  3.609753700000E-01  4.949688100000E-01
  19   6     7.257225700000E-01  1.135744300000E-01  4.985488300000E-01
  20   6     7.811692200000E-01  6.211224000000E-02  4.960050500000E-01
  21   6    -1.118585300000E-01  2.766584100000E-01  4.957853000000E-01
  22   6     7.809856600000E-01  2.227256400000E-01  4.964447800000E-01
  23   6    -1.114748700000E-01  1.164140300000E-01  4.947488800000E-01
  24   6    -5.744102000000E-02  2.230481600000E-01  4.964761600000E-01
  25   6     3.869087000000E-01 -2.261269600000E-01  5.014380400000E-01
  26   6     4.391992900000E-01 -2.824353300000E-01  5.039817800000E-01
  27   6     2.247468400000E-01  6.105253400000E-01  5.042016100000E-01
  28   6     2.784555500000E-01 -2.820953100000E-01  5.035421500000E-01
  29   6     3.853196200000E-01  6.097948600000E-01  5.052379200000E-01
  30   6     2.781063600000E-01  5.563148500000E-01  5.035107100000E-01
  31   6     3.878771300000E-01  1.135052900000E-01  4.985488300000E-01
  32   6     4.418903100000E-01  2.229523600000E-01  4.960051000000E-01
  33   6     2.275767400000E-01  1.156451700000E-01  4.957852500000E-01
  34   6     2.808208300000E-01  6.172349000000E-02  4.964447100000E-01
  35   6     3.888417300000E-01  2.772620100000E-01  4.947489500000E-01
  36   6     2.804830700000E-01  2.229707600000E-01  4.964761600000E-01
  37   8     3.943072600000E-01 -5.252205000000E-02  4.993339400000E-01
  38   8     5.514414700000E-01 -5.613633000000E-02  5.047668700000E-01
  39   8     5.541711000000E-01  1.082731700000E-01  4.965703900000E-01
  40   8     1.138950800000E-01  3.867584200000E-01  4.993339600000E-01
  41   8     1.121037400000E-01  2.241809500000E-01  5.047668600000E-01
  42   8     2.737555300000E-01  3.885851500000E-01  4.965703700000E-01

 *******************************************************************************

 << INFORMATION >>: FROM NOW ON, ALL COORDINATES REFER TO THE PRIMITIVE CELL

 *******************************************************************************

 LATTICE PARAMETERS  (ANGSTROMS AND DEGREES) - PRIMITIVE CELL
       A          B          C        ALPHA      BETA     GAMMA        VOLUME
   15.02361   15.02392    9.51089    37.82410  89.99998 119.99596    762.388136

 COORDINATES OF THE EQUIVALENT ATOMS (FRACTIONAL UNITS)

 N. ATOM EQUIV AT. N.          X                  Y                  Z

   1   1   1    5 B     4.46623100000E-01 -1.06830630000E-01 -4.98781810000E-01

   2   2   1    5 B    -3.94321250000E-01  5.22290100000E-02 -4.98781790000E-01

   3   3   1    5 B     4.47477120000E-01  5.39285900000E-02  4.98643060000E-01

   4   4   1    5 B     6.01978000000E-02  2.79484360000E-01 -4.98781800000E-01

   5   5   1    5 B     2.19305770000E-01  2.79463590000E-01 -4.98781800000E-01

   6   6   1    5 B     2.20144350000E-01  4.40319570000E-01  4.98643060000E-01

   7   7   1    1 H    -2.62234390000E-01 -2.16595800000E-02  4.95879410000E-01

   8   8   1    1 H    -6.83713800000E-02  3.61008080000E-01  4.95063020000E-01

   9   9   1    1 H    -2.61992610000E-01  2.64110830000E-01  4.94937370000E-01

  10  10   1    1 H    -6.82383000000E-02  7.57024500000E-02  4.94968710000E-01

  11  11   1    1 H    -4.76988040000E-01 -2.39070910000E-01 -4.95892570000E-01

  12  12   1    1 H     1.40637160000E-01 -4.33182030000E-01 -4.95076120000E-01

  13  13   1    1 H     2.37535530000E-01 -2.39653170000E-01 -4.94950400000E-01

  14  14   1    1 H     4.25988260000E-01 -4.33334800000E-01 -4.94981950000E-01

  15  15   1    1 H    -4.74205290000E-01  2.63464550000E-01  4.95879460000E-01

  16  16   1    1 H     1.43955940000E-01  7.55640000000E-02  4.95062970000E-01

  17  17   1    1 H     2.40876570000E-01 -2.11382800000E-02  4.94937270000E-01

  18  18   1    1 H     4.29316370000E-01  3.60975370000E-01  4.94968810000E-01

  19  19   1    6 C    -2.74277430000E-01  1.13574430000E-01  4.98548830000E-01

  20  20   1    6 C    -2.18830780000E-01  6.21122400000E-02  4.96005050000E-01

  21  21   1    6 C    -1.11858530000E-01  2.76658410000E-01  4.95785300000E-01

  22  22   1    6 C    -2.19014340000E-01  2.22725640000E-01  4.96444780000E-01

  23  23   1    6 C    -1.11474870000E-01  1.16414030000E-01  4.94748880000E-01

  24  24   1    6 C    -5.74410200000E-02  2.23048160000E-01  4.96476160000E-01

  25  25   1    6 C     3.86908700000E-01 -2.26126960000E-01 -4.98561960000E-01

  26  26   1    6 C     4.39199290000E-01 -2.82435330000E-01 -4.96018220000E-01

  27  27   1    6 C     2.24746840000E-01 -3.89474660000E-01 -4.95798390000E-01

  28  28   1    6 C     2.78455550000E-01 -2.82095310000E-01 -4.96457850000E-01

  29  29   1    6 C     3.85319620000E-01 -3.90205140000E-01 -4.94762080000E-01

  30  30   1    6 C     2.78106360000E-01 -4.43685150000E-01 -4.96489290000E-01

  31  31   1    6 C     3.87877130000E-01  1.13505290000E-01  4.98548830000E-01

  32  32   1    6 C     4.41890310000E-01  2.22952360000E-01  4.96005100000E-01

  33  33   1    6 C     2.27576740000E-01  1.15645170000E-01  4.95785250000E-01

  34  34   1    6 C     2.80820830000E-01  6.17234900000E-02  4.96444710000E-01

  35  35   1    6 C     3.88841730000E-01  2.77262010000E-01  4.94748950000E-01

  36  36   1    6 C     2.80483070000E-01  2.22970760000E-01  4.96476160000E-01

  37  37   1    8 O     3.94307260000E-01 -5.25220500000E-02  4.99333940000E-01

  38  38   1    8 O    -4.48558530000E-01 -5.61363300000E-02 -4.95233130000E-01

  39  39   1    8 O    -4.45828900000E-01  1.08273170000E-01  4.96570390000E-01

  40  40   1    8 O     1.13895080000E-01  3.86758420000E-01  4.99333960000E-01

  41  41   1    8 O     1.12103740000E-01  2.24180950000E-01 -4.95233140000E-01

  42  42   1    8 O     2.73755530000E-01  3.88585150000E-01  4.96570370000E-01

 NUMBER OF SYMMETRY OPERATORS         :    1
 *******************************************************************************
 * GEOMETRY EDITING - INPUT COORDINATES ARE GIVEN IN ANGSTROM         
 *******************************************************************************

 GCALCO - MAX INDICES DIRECT LATTICE VECTOR     9    16    21
 NO.OF VECTORS CREATED 6999 STARS 3500 RMAX   221.10440 BOHR

 GEOMETRY FOR WAVE FUNCTION - DIMENSIONALITY OF THE SYSTEM    3
 (NON PERIODIC DIRECTION: LATTICE PARAMETER FORMALLY SET TO 500)
 *******************************************************************************
 LATTICE PARAMETERS (ANGSTROMS AND DEGREES) - BOHR = 0.5291772083 ANGSTROM
 PRIMITIVE CELL - CENTRING CODE 1/0 VOLUME=   762.388136 - DENSITY  0.850 g/cm^3
         A              B              C           ALPHA      BETA       GAMMA 
    15.02361100    15.02391600     9.51088900    37.824102  89.999977 119.995964
 *******************************************************************************
 ATOMS IN THE ASYMMETRIC UNIT   42 - ATOMS IN THE UNIT CELL:   42
     ATOM                 X/A                 Y/B                 Z/C    
 *******************************************************************************
      1 T   5 B     4.466231000000E-01 -1.068306300000E-01 -4.987818100000E-01
      2 T   5 B    -3.943212500000E-01  5.222901000000E-02 -4.987817900000E-01
      3 T   5 B     4.474771200000E-01  5.392859000000E-02  4.986430600000E-01
      4 T   5 B     6.019780000000E-02  2.794843600000E-01 -4.987818000000E-01
      5 T   5 B     2.193057700000E-01  2.794635900000E-01 -4.987818000000E-01
      6 T   5 B     2.201443500000E-01  4.403195700000E-01  4.986430600000E-01
      7 T   1 H    -2.622343900000E-01 -2.165958000000E-02  4.958794100000E-01
      8 T   1 H    -6.837138000000E-02  3.610080800000E-01  4.950630200000E-01
      9 T   1 H    -2.619926100000E-01  2.641108300000E-01  4.949373700000E-01
     10 T   1 H    -6.823830000000E-02  7.570245000000E-02  4.949687100000E-01
     11 T   1 H    -4.769880400000E-01 -2.390709100000E-01 -4.958925700000E-01
     12 T   1 H     1.406371600000E-01 -4.331820300000E-01 -4.950761200000E-01
     13 T   1 H     2.375355300000E-01 -2.396531700000E-01 -4.949504000000E-01
     14 T   1 H     4.259882600000E-01 -4.333348000000E-01 -4.949819500000E-01
     15 T   1 H    -4.742052900000E-01  2.634645500000E-01  4.958794600000E-01
     16 T   1 H     1.439559400000E-01  7.556400000000E-02  4.950629700000E-01
     17 T   1 H     2.408765700000E-01 -2.113828000000E-02  4.949372700000E-01
     18 T   1 H     4.293163700000E-01  3.609753700000E-01  4.949688100000E-01
     19 T   6 C    -2.742774300000E-01  1.135744300000E-01  4.985488300000E-01
     20 T   6 C    -2.188307800000E-01  6.211224000000E-02  4.960050500000E-01
     21 T   6 C    -1.118585300000E-01  2.766584100000E-01  4.957853000000E-01
     22 T   6 C    -2.190143400000E-01  2.227256400000E-01  4.964447800000E-01
     23 T   6 C    -1.114748700000E-01  1.164140300000E-01  4.947488800000E-01
     24 T   6 C    -5.744102000000E-02  2.230481600000E-01  4.964761600000E-01
     25 T   6 C     3.869087000000E-01 -2.261269600000E-01 -4.985619600000E-01
     26 T   6 C     4.391992900000E-01 -2.824353300000E-01 -4.960182200000E-01
     27 T   6 C     2.247468400000E-01 -3.894746600000E-01 -4.957983900000E-01
     28 T   6 C     2.784555500000E-01 -2.820953100000E-01 -4.964578500000E-01
     29 T   6 C     3.853196200000E-01 -3.902051400000E-01 -4.947620800000E-01
     30 T   6 C     2.781063600000E-01 -4.436851500000E-01 -4.964892900000E-01
     31 T   6 C     3.878771300000E-01  1.135052900000E-01  4.985488300000E-01
     32 T   6 C     4.418903100000E-01  2.229523600000E-01  4.960051000000E-01
     33 T   6 C     2.275767400000E-01  1.156451700000E-01  4.957852500000E-01
     34 T   6 C     2.808208300000E-01  6.172349000000E-02  4.964447100000E-01
     35 T   6 C     3.888417300000E-01  2.772620100000E-01  4.947489500000E-01
     36 T   6 C     2.804830700000E-01  2.229707600000E-01  4.964761600000E-01
     37 T   8 O     3.943072600000E-01 -5.252205000000E-02  4.993339400000E-01
     38 T   8 O    -4.485585300000E-01 -5.613633000000E-02 -4.952331300000E-01
     39 T   8 O    -4.458289000000E-01  1.082731700000E-01  4.965703900000E-01
     40 T   8 O     1.138950800000E-01  3.867584200000E-01  4.993339600000E-01
     41 T   8 O     1.121037400000E-01  2.241809500000E-01 -4.952331400000E-01
     42 T   8 O     2.737555300000E-01  3.885851500000E-01  4.965703700000E-01

 T = ATOM BELONGING TO THE ASYMMETRIC UNIT

 ****    1 SYMMOPS - TRANSLATORS IN FRACTIONAL UNITS
 **** MATRICES AND TRANSLATORS IN THE CRYSTALLOGRAPHIC REFERENCE FRAME
   V INV                    ROTATION MATRICES                   TRANSLATORS
   1   1  1.00  0.00  0.00  0.00  1.00  0.00  0.00 -0.00  1.00  0.00  0.00  0.00

 DIRECT LATTICE VECTORS CARTESIAN COMPONENTS (ANGSTROM)
          X                    Y                    Z
   0.130113578931E+02  -0.751088897922E+01   0.000000000000E+00
   0.000000000000E+00   0.150239160000E+02   0.000000000000E+00
   0.433671421293E+01   0.751262380546E+01   0.390005166162E+01


 CARTESIAN COORDINATES - PRIMITIVE CELL
 *******************************************************************************
 *      ATOM          X(ANGSTROM)         Y(ANGSTROM)         Z(ANGSTROM)
 *******************************************************************************
    1     5 B    -6.886153800990E-01 -1.195418835999E+00 -5.845326488500E+00
    2     5 B     1.380914693698E+00 -3.693440630580E-04 -5.845326410499E+00
    3     5 B    -6.898862773740E-01  1.194982144760E+00  5.844785356332E+00
    4     5 B    -1.379819001035E+00 -3.494690500603E-04 -1.945274787877E+00
    5     5 B     6.903917402724E-01 -1.195703814164E+00 -1.945274787877E+00
    6     5 B     6.901351585361E-01  1.195338378107E+00 -1.955317966913E+00
    7     1 H    -1.261538214912E+00  5.369557139511E+00  1.933955316935E+00
    8     1 H    -3.079371872621E+00  2.143883337571E+00 -1.969280307864E+00
    9     1 H    -1.262477687058E+00 -5.369861400230E+00  1.930281312268E+00
   10     1 H    -3.078049316630E+00 -2.144232546532E+00 -1.969648121736E+00
   11     1 H    -4.020092242624E+00  3.777992422098E+00  1.966045020008E+00
   12     1 H    -3.171232242623E-01  3.740194828831E+00 -1.930822444436E+00
   13     1 H     5.280915571701E+00 -1.590384441764E+00  1.969719531682E+00
   14     1 H     3.396090451392E+00  1.595366656770E+00 -1.930455176571E+00
   15     1 H    -4.019567240889E+00 -3.778587609440E+00  1.933955511938E+00
   16     1 H    -3.167053384634E-01 -3.739371846452E+00 -1.969280502866E+00
   17     1 H     5.280532753639E+00  1.591500598743E+00  1.930280922262E+00
   18     1 H     3.395812999773E+00 -1.595393295576E+00 -1.969647731731E+00
   19     6 C    -5.743372219746E+00 -8.139747156322E-04 -1.955685468781E+00
   20     6 C    -5.032967659506E+00 -1.209541689055E+00 -1.965606342197E+00
   21     6 C    -3.642066423079E+00  1.208674354458E+00 -1.966463378550E+00
   22     6 C    -5.033449041020E+00  1.208182765866E+00 -1.963891372480E+00
   23     6 C    -3.641569142854E+00 -1.209491611364E+00 -1.970505470093E+00
   24     6 C    -2.931024662438E+00 -2.952431336793E-04 -1.963768988859E+00
   25     6 C     2.872086829680E+00  4.975066807638E+00 -1.944417400520E+00
   26     6 C     3.563489884021E+00  3.755455932193E+00 -1.934496683106E+00
   27     6 C     7.741256459136E-01  3.759686072938E+00 -1.933639334749E+00
   28     6 C     1.470089004143E+00  4.964589974551E+00 -1.936211262818E+00
   29     6 C     2.867889734683E+00  2.550452486290E+00 -1.929597672212E+00
   30     6 C     1.465409221786E+00  2.539264322368E+00 -1.936333880442E+00
   31     6 C     2.872157740933E+00 -4.975222115510E+00 -1.955685468781E+00
   32     6 C     3.563911126810E+00 -3.755695614331E+00 -1.965606147194E+00
   33     6 C     7.744471395820E-01 -3.759836042421E+00 -1.966463573552E+00
   34     6 C     1.470084939817E+00 -4.964907007214E+00 -1.963891645483E+00
   35     6 C     2.868229503153E+00 -2.550746982250E+00 -1.970505197089E+00
   36     6 C     1.465826613237E+00 -2.539568417625E+00 -1.963768988859E+00
   37     8 O    -1.378702205842E+00  2.199082894192E-04  5.847479824024E+00
   38     8 O     6.906035567310E-01 -1.194411173326E+00 -5.831486453170E+00
   39     8 O     6.893587039929E-01  1.194512721222E+00  5.836701836255E+00
   40     8 O    -6.893158834602E-01  1.193857102524E+00 -1.952623421220E+00
   41     8 O    -6.890627146609E-01 -1.194423260512E+00 -1.931434830548E+00
   42     8 O     1.378700744403E+00 -1.541635416396E-04 -1.963401564992E+00

 *******************************************************************************
 STARTING BASIS SET HANDLING 
 *******************************************************************************

 Loading internal basis set: SOLDEF2MSVP         

 Please cite in your publication:
 L. Dona', J. G. Brandenburg and B. Civalleri, J. Chem. Phys., 151, 121101 (2019
 )                                                                              
                                                                                
                    

 *******************************************************************************
 LOCAL ATOMIC FUNCTIONS BASIS SET
 *******************************************************************************
   ATOM   X(AU)   Y(AU)   Z(AU)  N. TYPE  EXPONENT  S COEF   P COEF   D/F/G COEF
 *******************************************************************************
   1 B   -1.301  -2.259 -11.046
                                  1 S  
                                         2.410E+03 1.755E-03 0.000E+00 0.000E+00
                                         3.619E+02 1.344E-02 0.000E+00 0.000E+00
                                         8.231E+01 6.637E-02 0.000E+00 0.000E+00
                                         2.311E+01 2.303E-01 0.000E+00 0.000E+00
                                         7.252E+00 5.150E-01 0.000E+00 0.000E+00
                                  2 S  
                                         2.367E+00 1.000E+00 0.000E+00 0.000E+00
                                  3 S  
                                         5.533E-01 1.000E+00 0.000E+00 0.000E+00
                                  4 S  
                                         1.716E-01 1.000E+00 0.000E+00 0.000E+00
                           5-     7 P  
                                         6.002E+00 0.000E+00-3.555E-02 0.000E+00
                                         1.240E+00 0.000E+00-1.983E-01 0.000E+00
                                         3.367E-01 0.000E+00-5.048E-01 0.000E+00
                           8-    10 P  
                                         1.256E-01 0.000E+00 1.000E+00 0.000E+00
                          11-    15 D  
                                         8.880E-01 0.000E+00 0.000E+00 1.000E+00
   2 B    2.610  -0.001 -11.046
   3 B   -1.304   2.258  11.045
   4 B   -2.607  -0.001  -3.676
   5 B    1.305  -2.260  -3.676
   6 B    1.304   2.259  -3.695
   7 H   -2.384  10.147   3.655
                                 91 S  
                                         1.874E+01 1.968E-02 0.000E+00 0.000E+00
                                         2.826E+00 1.380E-01 0.000E+00 0.000E+00
                                         6.401E-01 4.783E-01 0.000E+00 0.000E+00
                                 92 S  
                                         1.756E-01 1.000E+00 0.000E+00 0.000E+00
   8 H   -5.819   4.051  -3.721
   9 H   -2.386 -10.148   3.648
  10 H   -5.817  -4.052  -3.722
  11 H   -7.597   7.139   3.715
  12 H   -0.599   7.068  -3.649
  13 H    9.979  -3.005   3.722
  14 H    6.418   3.015  -3.648
  15 H   -7.596  -7.140   3.655
  16 H   -0.598  -7.066  -3.721
  17 H    9.979   3.008   3.648
  18 H    6.417  -3.015  -3.722
  19 C  -10.853  -0.002  -3.696
                                115 S  
                                         3.624E+03 1.634E-03 0.000E+00 0.000E+00
                                         5.440E+02 1.252E-02 0.000E+00 0.000E+00
                                         1.237E+02 6.211E-02 0.000E+00 0.000E+00
                                         3.476E+01 2.182E-01 0.000E+00 0.000E+00
                                         1.093E+01 4.980E-01 0.000E+00 0.000E+00
                                116 S  
                                         3.574E+00 1.000E+00 0.000E+00 0.000E+00
                                117 S  
                                         7.742E-01 1.000E+00 0.000E+00 0.000E+00
                                118 S  
                                         2.330E-01 1.000E+00 0.000E+00 0.000E+00
                         119-   121 P  
                                         9.443E+00 0.000E+00 3.790E-02 0.000E+00
                                         2.002E+00 0.000E+00 2.082E-01 0.000E+00
                                         5.463E-01 0.000E+00 5.047E-01 0.000E+00
                         122-   124 P  
                                         1.820E-01 0.000E+00 1.000E+00 0.000E+00
                         125-   129 D  
                                         8.880E-01 0.000E+00 0.000E+00 1.000E+00
  20 C   -9.511  -2.286  -3.714
  21 C   -6.883   2.284  -3.716
  22 C   -9.512   2.283  -3.711
  23 C   -6.882  -2.286  -3.724
  24 C   -5.539  -0.001  -3.711
  25 C    5.427   9.402  -3.674
  26 C    6.734   7.097  -3.656
  27 C    1.463   7.105  -3.654
  28 C    2.778   9.382  -3.659
  29 C    5.420   4.820  -3.646
  30 C    2.769   4.799  -3.659
  31 C    5.428  -9.402  -3.696
  32 C    6.735  -7.097  -3.714
  33 C    1.463  -7.105  -3.716
  34 C    2.778  -9.382  -3.711
  35 C    5.420  -4.820  -3.724
  36 C    2.770  -4.799  -3.711
  37 O   -2.605   0.000  11.050
                                385 S  
                                         6.773E+03 1.727E-03 0.000E+00 0.000E+00
                                         1.017E+03 1.325E-02 0.000E+00 0.000E+00
                                         2.313E+02 6.603E-02 0.000E+00 0.000E+00
                                         6.501E+01 2.353E-01 0.000E+00 0.000E+00
                                         2.050E+01 5.498E-01 0.000E+00 0.000E+00
                                386 S  
                                         6.716E+00 1.000E+00 0.000E+00 0.000E+00
                                387 S  
                                         1.147E+00 1.000E+00 0.000E+00 0.000E+00
                                388 S  
                                         3.342E-01 1.000E+00 0.000E+00 0.000E+00
                         389-   391 P  
                                         1.769E+01 0.000E+00 4.359E-02 0.000E+00
                                         3.854E+00 0.000E+00 2.318E-01 0.000E+00
                                         1.047E+00 0.000E+00 5.146E-01 0.000E+00
                         392-   394 P  
                                         2.759E-01 0.000E+00 1.000E+00 0.000E+00
                         395-   399 D  
                                         8.000E-01 0.000E+00 0.000E+00 1.000E+00
  38 O    1.305  -2.257 -11.020
  39 O    1.303   2.257  11.030
  40 O   -1.303   2.256  -3.690
  41 O   -1.302  -2.257  -3.650
  42 O    2.605  -0.000  -3.710

 *******************************************************************************
 FINISHED BASIS SET HANDLING 
 *******************************************************************************

 INFORMATION **** SET_MPP **** PCRYSTAL CALCULATION
 INFORMATION **** READM2 **** NEW DEFAULT: FOCK/KS MATRIX MIXING SET TO 30 %
 INFORMATION **** READM2 **** NEW DEFAULT: FULL DIRECT SCF MODE
 INFORMATION **** READM2 **** NEW DEFAULT: COULOMB BIPOLAR BUFFER SET TO 32 Mb
 INFORMATION **** READM2 **** NEW DEFAULT: EXCHANGE BIPOLAR BUFFER SET TO 32 Mb

 *******************************************************************************
 NEW DEFAULT: DFT INTEGRATION GRID INCREASED TO XLGRID
 NEW DEFAULT: DIIS ACCELERATOR ACTIVE
 USE KEYWORD NODIIS TO TURN IT OFF
 *******************************************************************************

 WARNING **** RDDFTP **** HSEsol-HJS ACTIVE
 RANGE SEPARATION - OMEGA:   0.110000000000000     
 WARNING **** RDDFTP **** HSEsol-3c has to be combined with sol-def2-mSVP basis set
 *******************************************************************************
 N. OF ATOMS PER CELL        42  COULOMB OVERLAP TOL         (T1) 10**   -6
 NUMBER OF SHELLS           234  COULOMB PENETRATION TOL     (T2) 10**   -6
 NUMBER OF AO               474  EXCHANGE OVERLAP TOL        (T3) 10**   -6
 N. OF ELECTRONS PER CELL   198  EXCHANGE PSEUDO OVP (F(G))  (T4) 10**   -6
 CORE ELECTRONS PER CELL     60  EXCHANGE PSEUDO OVP (P(G))  (T5) 10**  -12
 N. OF SYMMETRY OPERATORS     1  POLE ORDER IN MONO ZONE                  4
 *******************************************************************************
 TYPE OF CALCULATION :  RESTRICTED CLOSED SHELL
 KOHN-SHAM HAMILTONIAN

 (EXCHANGE)[CORRELATION] FUNCTIONAL:(HSEsol GGA)[PBEsol]

 RANGE-SEPARATED HYBRID FUNCTIONAL 
 OMEGA (SHORT-RANGE)[LONG-RANGE]:(    0.1100)[    0.0000]

 HYBRID EXCHANGE - PERCENTAGE OF FOCK EXCHANGE    25.0000

 CAPPA:IS1  2;IS2  2;IS3  8; K PTS MONK NET  20; SYMMOPS:K SPACE   2;G SPACE   1

 *******************************************************************************
 MAX NUMBER OF SCF CYCLES      50  CONVERGENCE ON DELTAP        10**-16
 WEIGHT OF F(I) IN F(I+1)      30% CONVERGENCE ON ENERGY        10**- 6
 SHRINK. FACT.(MONKH.)    2  2  8  NUMBER OF K POINTS IN THE IBZ     20
 SHRINKING FACTOR(GILAT NET)    8  NUMBER OF K POINTS(GILAT NET)   1028
 *******************************************************************************
 *** K POINTS COORDINATES (OBLIQUE COORDINATES IN UNITS OF IS =  2)
   1-R(  0  0  0)   2-R(  1  0  0)   3-R(  0  1  0)   4-R(  1  1  0)
   5-C(  0  0  1)   6-C(  1  0  1)   7-C(  0  1  1)   8-C(  1  1  1)
   9-C(  0  0  2)  10-C(  1  0  2)  11-C(  0  1  2)  12-C(  1  1  2)
  13-C(  0  0  3)  14-C(  1  0  3)  15-C(  0  1  3)  16-C(  1  1  3)
  17-R(  0  0  4)  18-R(  1  0  4)  19-R(  0  1  4)  20-R(  1  1  4)

 DIRECT LATTICE VECTORS COMPON. (A.U.)     RECIP. LATTICE VECTORS COMPON. (A.U.) 
        X            Y            Z              X            Y            Z
   24.5879030  -14.1935232    0.0000000      0.2555397    0.0000000   -0.2841508
    0.0000000   28.3910867    0.0000000      0.1277517    0.2213084   -0.5683589
    8.1952022   14.1968015    7.3700295      0.0000000    0.0000000    0.8525319

 DISK SPACE FOR EIGENVECTORS (FTN 10)     7189632 REALS

 SYMMETRY ADAPTION OF THE BLOCH FUNCTIONS DISABLED
 TTTTTTTTTTTTTTTTTTTTTTTTTTTTTT gordsh1     TELAPSE        0.04 TCPU        0.04

 MATRIX SIZE: P(G)  298348, F(G)   59293, P(G) IRR  150053, F(G) IRR   59773
 MAX G-VECTOR INDEX FOR 1- AND 2-ELECTRON INTEGRALS  57

 TTTTTTTTTTTTTTTTTTTTTTTTTTTTTT INPUT       TELAPSE        0.41 TCPU        0.41

 NEIGHBORS OF THE NON-EQUIVALENT ATOMS

 N = NUMBER OF NEIGHBORS AT DISTANCE R
    ATOM  N     R/ANG      R/AU   NEIGHBORS (ATOM LABELS AND CELL INDICES)
   1 B    1     1.3791     2.6061   37 O    1 2-3
   1 B    1     1.3793     2.6065   38 O    0 0 0
   1 B    1     1.5503     2.9297   25 C    0 0-1
   1 B    1     2.3895     4.5155    3 B    1 2-3
   1 B    1     2.3898     4.5160    2 B    0 0 0
   1 B    1     2.5632     4.8437   26 C    0 0-1

   2 B    1     1.3793     2.6065   39 O    1 2-3
   2 B    1     1.3793     2.6065   38 O    0 0 0
   2 B    1     1.5504     2.9298   19 C    1 1-1
   2 B    1     2.3895     4.5156    3 B    1 2-3
   2 B    1     2.3898     4.5160    1 B    0 0 0
   2 B    1     2.5634     4.8440   22 C    1 1-1

   3 B    1     1.3791     2.6061   37 O    0 0 0
   3 B    1     1.3793     2.6064   39 O    0 0 0
   3 B    1     1.5502     2.9294   31 C   -1-1 2
   3 B    1     2.3895     4.5155    1 B   -1-2 3
   3 B    1     2.3895     4.5156    2 B   -1-2 3
   3 B    1     2.5629     4.8433   32 C   -1-1 2

   4 B    1     1.3795     2.6068   40 O    0 0 0
   4 B    1     1.3795     2.6070   41 O    0 0 0
   4 B    1     1.5513     2.9316   24 C    0 0 0
   4 B    1     2.3905     4.5174    6 B    0 0 0
   4 B    1     2.3905     4.5175    5 B    0 0 0
   4 B    1     2.5648     4.8468   23 C    0 0 0

   5 B    1     1.3795     2.6069   41 O    0 0 0
   5 B    1     1.3797     2.6072   42 O    0 0 0
   5 B    1     1.5516     2.9322   36 C    0 0 0
   5 B    1     2.3905     4.5175    4 B    0 0 0
   5 B    1     2.3911     4.5185    6 B    0 0 0
   5 B    1     2.5651     4.8473   35 C    0 0 0

   6 B    1     1.3795     2.6068   40 O    0 0 0
   6 B    1     1.3796     2.6071   42 O    0 0 0
   6 B    1     1.5516     2.9322   30 C    0 0 0
   6 B    1     2.3905     4.5174    4 B    0 0 0
   6 B    1     2.3911     4.5185    5 B    0 0 0
   6 B    1     2.5651     4.8473   29 C    0 0 0

   7 H    1     1.0913     2.0623   20 C    0 0 1
   7 H    1     2.1472     4.0576   19 C    0 0 1
   7 H    1     2.1680     4.0969   23 C    0 0 1
   7 H    1     2.5202     4.7625   10 H    0 0 1
   7 H    1     2.5676     4.8520   38 O   -1-1 2
   7 H    1     2.7321     5.1630    2 B   -1-1 2

   8 H    1     1.0914     2.0625   21 C    0 0 0
   8 H    1     2.1493     4.0616   24 C    0 0 0
   8 H    1     2.1666     4.0942   22 C    0 0 0
   8 H    1     2.5198     4.7618    9 H    0 1-1
   8 H    1     2.5720     4.8604   40 O    0 0 0
   8 H    1     2.7362     5.1707    4 B    0 0 0

   9 H    1     1.0914     2.0624   22 C    0-1 1
   9 H    1     2.1471     4.0575   19 C    0-1 1
   9 H    1     2.1680     4.0970   21 C    0-1 1
   9 H    1     2.5198     4.7618    8 H    0-1 1
   9 H    1     2.5665     4.8500   39 O    0 0-1
   9 H    1     2.7315     5.1618    2 B   -1-2 2

  10 H    1     1.0915     2.0626   23 C    0 0 0
  10 H    1     2.1490     4.0610   24 C    0 0 0
  10 H    1     2.1669     4.0948   20 C    0 0 0
  10 H    1     2.5202     4.7625    7 H    0 0-1
  10 H    1     2.5712     4.8588   41 O    0 0 0
  10 H    1     2.7351     5.1686    4 B    0 0 0

  11 H    1     1.0913     2.0623   26 C   -1-1 1
  11 H    1     2.1469     4.0571   25 C   -1-1 1
  11 H    1     2.1680     4.0968   29 C   -1-1 1
  11 H    1     2.5198     4.7617   14 H   -1-1 1
  11 H    1     2.5670     4.8510   38 O   -1-1 2
  11 H    1     2.7310     5.1609    1 B   -1-1 2

  12 H    1     1.0914     2.0625   27 C    0 0 0
  12 H    1     2.1493     4.0617   30 C    0 0 0
  12 H    1     2.1664     4.0939   28 C    0 0 0
  12 H    1     2.5192     4.7606   13 H    0 1-1
  12 H    1     2.5735     4.8632   40 O    0 0 0
  12 H    1     2.7371     5.1723    6 B    0 0 0

  13 H    1     1.0914     2.0624   28 C    0-1 1
  13 H    1     2.1475     4.0581   25 C    0-1 1
  13 H    1     2.1679     4.0967   27 C    0-1 1
  13 H    1     2.5192     4.7606   12 H    0-1 1
  13 H    1     2.5675     4.8519   37 O    1 1-1
  13 H    1     2.7328     5.1643    1 B    0-1 2

  14 H    1     1.0914     2.0625   29 C    0 0 0
  14 H    1     2.1491     4.0612   30 C    0 0 0
  14 H    1     2.1666     4.0942   26 C    0 0 0
  14 H    1     2.5198     4.7617   11 H    1 1-1
  14 H    1     2.5723     4.8609   42 O    0 0 0
  14 H    1     2.7355     5.1693    6 B    0 0 0

  15 H    1     1.0914     2.0624   32 C   -1-1 1
  15 H    1     2.1475     4.0582   31 C   -1-1 1
  15 H    1     2.1678     4.0966   35 C   -1-1 1
  15 H    1     2.5200     4.7621   18 H   -1-1 1
  15 H    1     2.5667     4.8503   39 O    0 0-1
  15 H    1     2.7315     5.1618    3 B    0 0-1

  16 H    1     1.0913     2.0623   33 C    0 0 0
  16 H    1     2.1487     4.0605   36 C    0 0 0
  16 H    1     2.1667     4.0945   34 C    0 0 0
  16 H    1     2.5197     4.7616   17 H    0 0-1
  16 H    1     2.5723     4.8610   41 O    0 0 0
  16 H    1     2.7359     5.1701    5 B    0 0 0

  17 H    1     1.0915     2.0626   34 C    0 0 1
  17 H    1     2.1479     4.0589   31 C    0 0 1
  17 H    1     2.1679     4.0968   33 C    0 0 1
  17 H    1     2.5197     4.7616   16 H    0 0 1
  17 H    1     2.5677     4.8522   37 O    1 1-1
  17 H    1     2.7331     5.1648    3 B    1 1-1

  18 H    1     1.0914     2.0624   35 C    0 0 0
  18 H    1     2.1486     4.0602   36 C    0 0 0
  18 H    1     2.1668     4.0947   32 C    0 0 0
  18 H    1     2.5200     4.7621   15 H    1 1-1
  18 H    1     2.5717     4.8598   42 O    0 0 0
  18 H    1     2.7349     5.1682    5 B    0 0 0

  19 C    1     1.4020     2.6495   22 C    0 0 0
  19 C    1     1.4021     2.6495   20 C    0 0 0
  19 C    1     1.5504     2.9298    2 B   -1-1 1
  19 C    1     2.1471     4.0575    9 H    0 1-1
  19 C    1     2.1472     4.0576    7 H    0 0-1
  19 C    1     2.4246     4.5817   21 C    0 0 0

  20 C    1     1.0913     2.0623    7 H    0 0-1
  20 C    1     1.3914     2.6294   23 C    0 0 0
  20 C    1     1.4021     2.6495   19 C    0 0 0
  20 C    1     2.1669     4.0948   10 H    0 0 0
  20 C    1     2.4177     4.5688   22 C    0 0 0
  20 C    1     2.4250     4.5825   24 C    0 0 0

  21 C    1     1.0914     2.0625    8 H    0 0 0
  21 C    1     1.3914     2.6293   22 C    0 0 0
  21 C    1     1.4026     2.6505   24 C    0 0 0
  21 C    1     2.1680     4.0970    9 H    0 1-1
  21 C    1     2.4182     4.5697   23 C    0 0 0
  21 C    1     2.4246     4.5817   19 C    0 0 0

  22 C    1     1.0914     2.0624    9 H    0 1-1
  22 C    1     1.3914     2.6293   21 C    0 0 0
  22 C    1     1.4020     2.6495   19 C    0 0 0
  22 C    1     2.1666     4.0942    8 H    0 0 0
  22 C    1     2.4177     4.5688   20 C    0 0 0
  22 C    1     2.4250     4.5826   24 C    0 0 0

  23 C    1     1.0915     2.0626   10 H    0 0 0
  23 C    1     1.3914     2.6294   20 C    0 0 0
  23 C    1     1.4025     2.6504   24 C    0 0 0
  23 C    1     2.1680     4.0969    7 H    0 0-1
  23 C    1     2.4182     4.5697   21 C    0 0 0
  23 C    1     2.4246     4.5818   19 C    0 0 0

  24 C    1     1.4025     2.6504   23 C    0 0 0
  24 C    1     1.4026     2.6505   21 C    0 0 0
  24 C    1     1.5513     2.9316    4 B    0 0 0
  24 C    1     2.1490     4.0610   10 H    0 0 0
  24 C    1     2.1493     4.0616    8 H    0 0 0
  24 C    1     2.4250     4.5825   20 C    0 0 0

  25 C    1     1.4020     2.6494   26 C    0 0 0
  25 C    1     1.4021     2.6495   28 C    0 0 0
  25 C    1     1.5503     2.9297    1 B    0 0 1
  25 C    1     2.1469     4.0571   11 H    1 1-1
  25 C    1     2.1475     4.0581   13 H    0 1-1
  25 C    1     2.4246     4.5818   27 C    0 0 0

  26 C    1     1.0913     2.0623   11 H    1 1-1
  26 C    1     1.3914     2.6293   29 C    0 0 0
  26 C    1     1.4020     2.6494   25 C    0 0 0
  26 C    1     2.1666     4.0942   14 H    0 0 0
  26 C    1     2.4175     4.5684   28 C    0 0 0
  26 C    1     2.4251     4.5828   30 C    0 0 0

  27 C    1     1.0914     2.0625   12 H    0 0 0
  27 C    1     1.3915     2.6295   28 C    0 0 0
  27 C    1     1.4026     2.6505   30 C    0 0 0
  27 C    1     2.1679     4.0967   13 H    0 1-1
  27 C    1     2.4179     4.5691   29 C    0 0 0
  27 C    1     2.4246     4.5818   25 C    0 0 0

  28 C    1     1.0914     2.0624   13 H    0 1-1
  28 C    1     1.3915     2.6295   27 C    0 0 0
  28 C    1     1.4021     2.6495   25 C    0 0 0
  28 C    1     2.1664     4.0939   12 H    0 0 0
  28 C    1     2.4175     4.5684   26 C    0 0 0
  28 C    1     2.4253     4.5832   30 C    0 0 0

  29 C    1     1.0914     2.0625   14 H    0 0 0
  29 C    1     1.3914     2.6293   26 C    0 0 0
  29 C    1     1.4025     2.6504   30 C    0 0 0
  29 C    1     2.1680     4.0968   11 H    1 1-1
  29 C    1     2.4179     4.5691   27 C    0 0 0
  29 C    1     2.4247     4.5819   25 C    0 0 0

  30 C    1     1.4025     2.6504   29 C    0 0 0
  30 C    1     1.4026     2.6505   27 C    0 0 0
  30 C    1     1.5516     2.9322    6 B    0 0 0
  30 C    1     2.1491     4.0612   14 H    0 0 0
  30 C    1     2.1493     4.0617   12 H    0 0 0
  30 C    1     2.4251     4.5828   26 C    0 0 0

  31 C    1     1.4021     2.6496   32 C    0 0 0
  31 C    1     1.4021     2.6497   34 C    0 0 0
  31 C    1     1.5502     2.9294    3 B    1 1-2
  31 C    1     2.1475     4.0582   15 H    1 1-1
  31 C    1     2.1479     4.0589   17 H    0 0-1
  31 C    1     2.4244     4.5814   33 C    0 0 0

  32 C    1     1.0914     2.0624   15 H    1 1-1
  32 C    1     1.3914     2.6293   35 C    0 0 0
  32 C    1     1.4021     2.6496   31 C    0 0 0
  32 C    1     2.1668     4.0947   18 H    0 0 0
  32 C    1     2.4179     4.5692   34 C    0 0 0
  32 C    1     2.4251     4.5827   36 C    0 0 0

  33 C    1     1.0913     2.0623   16 H    0 0 0
  33 C    1     1.3914     2.6294   34 C    0 0 0
  33 C    1     1.4025     2.6504   36 C    0 0 0
  33 C    1     2.1679     4.0968   17 H    0 0-1
  33 C    1     2.4178     4.5690   35 C    0 0 0
  33 C    1     2.4244     4.5814   31 C    0 0 0

  34 C    1     1.0915     2.0626   17 H    0 0-1
  34 C    1     1.3914     2.6294   33 C    0 0 0
  34 C    1     1.4021     2.6497   31 C    0 0 0
  34 C    1     2.1667     4.0945   16 H    0 0 0
  34 C    1     2.4179     4.5692   32 C    0 0 0
  34 C    1     2.4253     4.5832   36 C    0 0 0

  35 C    1     1.0914     2.0624   18 H    0 0 0
  35 C    1     1.3914     2.6293   32 C    0 0 0
  35 C    1     1.4025     2.6503   36 C    0 0 0
  35 C    1     2.1678     4.0966   15 H    1 1-1
  35 C    1     2.4178     4.5690   33 C    0 0 0
  35 C    1     2.4245     4.5817   31 C    0 0 0

  36 C    1     1.4025     2.6503   35 C    0 0 0
  36 C    1     1.4025     2.6504   33 C    0 0 0
  36 C    1     1.5516     2.9322    5 B    0 0 0
  36 C    1     2.1486     4.0602   18 H    0 0 0
  36 C    1     2.1487     4.0605   16 H    0 0 0
  36 C    1     2.4251     4.5827   32 C    0 0 0

  37 O    1     1.3791     2.6061    1 B   -1-2 3
  37 O    1     1.3791     2.6061    3 B    0 0 0
  37 O    1     2.3880     4.5126   38 O   -1-2 3
  37 O    1     2.3882     4.5130   39 O    0 0 0
  37 O    1     2.5383     4.7966   31 C   -1-1 2
  37 O    1     2.5384     4.7968   25 C   -1-2 2

  38 O    1     1.3793     2.6065    1 B    0 0 0
  38 O    1     1.3793     2.6065    2 B    0 0 0
  38 O    1     2.3880     4.5126   37 O    1 2-3
  38 O    1     2.3882     4.5131   39 O    1 2-3
  38 O    1     2.5391     4.7981   19 C    1 1-1
  38 O    1     2.5395     4.7990   25 C    0 0-1

  39 O    1     1.3793     2.6064    3 B    0 0 0
  39 O    1     1.3793     2.6065    2 B   -1-2 3
  39 O    1     2.3882     4.5130   37 O    0 0 0
  39 O    1     2.3882     4.5131   38 O   -1-2 3
  39 O    1     2.5390     4.7980   19 C    0-1 2
  39 O    1     2.5391     4.7982   31 C   -1-1 2

  40 O    1     1.3795     2.6068    6 B    0 0 0
  40 O    1     1.3795     2.6068    4 B    0 0 0
  40 O    1     2.3880     4.5126   42 O    0 0 0
  40 O    1     2.3884     4.5134   41 O    0 0 0
  40 O    1     2.5400     4.7998   24 C    0 0 0
  40 O    1     2.5403     4.8005   30 C    0 0 0

  41 O    1     1.3795     2.6069    5 B    0 0 0
  41 O    1     1.3795     2.6070    4 B    0 0 0
  41 O    1     2.3881     4.5128   42 O    0 0 0
  41 O    1     2.3884     4.5134   40 O    0 0 0
  41 O    1     2.5404     4.8006   24 C    0 0 0
  41 O    1     2.5405     4.8008   36 C    0 0 0

  42 O    1     1.3796     2.6071    6 B    0 0 0
  42 O    1     1.3797     2.6072    5 B    0 0 0
  42 O    1     2.3880     4.5126   40 O    0 0 0
  42 O    1     2.3881     4.5128   41 O    0 0 0
  42 O    1     2.5409     4.8016   36 C    0 0 0
  42 O    1     2.5410     4.8019   30 C    0 0 0


 SYMMETRY ALLOWED INTERNAL DEGREE(S) OF FREEDOM: 123
 TTTTTTTTTTTTTTTTTTTTTTTTTTTTTT SYMM        TELAPSE        0.41 TCPU        0.41
 TTTTTTTTTTTTTTTTTTTTTTTTTTTTTT INT_SCREEN  TELAPSE        0.44 TCPU        0.44

 DFT PARAMETERS

     ATOM       ELECTRONS   NET CHARGE   R(ANGSTROM)
   1   5  B       5.0000      0.0000     0.89000000
   7   1  H       1.0000      0.0000     1.11000000
  19   6  C       6.0000      0.0000     0.77000000
  37   8  O       8.0000      0.0000     0.74000000

 SIZE OF GRID=    1321724
 TTTTTTTTTTTTTTTTTTTTTTTTTTTTTT MAKE_GRID2  TELAPSE        8.17 TCPU        8.16
 BECKE WEIGHT FUNCTION
 RADSAFE =     2.00
 TOLERANCES - DENSITY:10**- 6; POTENTIAL:10**- 9; GRID WGT:10**-14

 RADIAL INTEGRATION  - INTERVALS (POINTS,UPPER LIMIT):            1( 75,  4.0*R)

 ANGULAR INTEGRATION - INTERVALS (ACCURACY LEVEL [N. POINTS] UPPER LIMIT):
  1(  4[  86]   0.2)  2(  8[ 194]   0.5)  3( 12[ 350]   0.9)  4( 16[ 974]   3.5)
  5( 12[ 350]9999.0)
 TTTTTTTTTTTTTTTTTTTTTTTTTTTTTT INT_CALC    TELAPSE        8.24 TCPU        8.23
 EEEEEEEEEE INT_CALC TERMINATION  DATE 19 02 2026 TIME 19:03:48.2

 *******************************************************************************
 cof-1_z39_L087_incl                                                             
 CRYSTAL - SCF - TYPE OF CALCULATION :  RESTRICTED CLOSED SHELL
 *******************************************************************************

 CAPPA:IS1  2;IS2  2;IS3  8; K PTS MONK NET  20; SYMMOPS:K SPACE   2;G SPACE   1

 TTTTTTTTTTTTTTTTTTTTTTTTTTTTTT SDIK        TELAPSE        8.81 TCPU       16.32

 AAAAAAAAAAAAAAAAAAAAAAAAAAAAAAAAAAAAAAAAAAAAAAAAAAAAAAAAAAAAAAAAAAAAAAAAAAAAAAA
         ATOMIC WAVEFUNCTION(S)


 NUCLEAR CHARGE  5.0  SYMMETRY SPECIES            S    P
 N. ELECTRONS    5.0  NUMBER OF PRIMITIVE GTOS    8    4
                      NUMBER OF CONTRACTED GTOS   4    2
                      NUMBER OF CLOSED SHELLS     2    0
                      OPEN SHELL OCCUPATION       0    1

  ZNUC  SCFIT    TOTAL HF ENERGY   KINETIC ENERGY   VIRIAL THEOREM ACCURACY
   5.0    11    -2.451164084E+01  2.462155050E+01 -1.995536038E+00  1.5E-06

 NUCLEAR CHARGE  1.0  SYMMETRY SPECIES            S
 N. ELECTRONS    1.0  NUMBER OF PRIMITIVE GTOS    4
                      NUMBER OF CONTRACTED GTOS   2
                      NUMBER OF CLOSED SHELLS     0
                      OPEN SHELL OCCUPATION       1

  ZNUC  SCFIT    TOTAL HF ENERGY   KINETIC ENERGY   VIRIAL THEOREM ACCURACY
   1.0     1    -4.977266687E-01  5.190767460E-01 -1.958869132E+00  0.0E+00

 NUCLEAR CHARGE  6.0  SYMMETRY SPECIES            S    P
 N. ELECTRONS    6.0  NUMBER OF PRIMITIVE GTOS    8    4
                      NUMBER OF CONTRACTED GTOS   4    2
                      NUMBER OF CLOSED SHELLS     2    0
                      OPEN SHELL OCCUPATION       0    2

  ZNUC  SCFIT    TOTAL HF ENERGY   KINETIC ENERGY   VIRIAL THEOREM ACCURACY
   6.0     9    -3.766704647E+01  3.775180683E+01 -1.997754800E+00  1.1E-06

 NUCLEAR CHARGE  8.0  SYMMETRY SPECIES            S    P
 N. ELECTRONS    8.0  NUMBER OF PRIMITIVE GTOS    8    4
                      NUMBER OF CONTRACTED GTOS   4    2
                      NUMBER OF CLOSED SHELLS     2    0
                      OPEN SHELL OCCUPATION       0    4

  ZNUC  SCFIT    TOTAL HF ENERGY   KINETIC ENERGY   VIRIAL THEOREM ACCURACY
   8.0    12    -7.477373220E+01  7.477365593E+01 -2.000001020E+00  3.8E-06

 AAAAAAAAAAAAAAAAAAAAAAAAAAAAAAAAAAAAAAAAAAAAAAAAAAAAAAAAAAAAAAAAAAAAAAAAAAAAAAA

 CHARGE NORMALIZATION FACTOR   1.00000000
 TOTAL ATOMIC CHARGES:
   5.0000000   5.0000000   5.0000000   5.0000000   5.0000000   5.0000000
   1.0000000   1.0000000   1.0000000   1.0000000   1.0000000   1.0000000
   1.0000000   1.0000000   1.0000000   1.0000000   1.0000000   1.0000000
   6.0000000   6.0000000   6.0000000   6.0000000   6.0000000   6.0000000
   6.0000000   6.0000000   6.0000000   6.0000000   6.0000000   6.0000000
   6.0000000   6.0000000   6.0000000   6.0000000   6.0000000   6.0000000
   8.0000000   8.0000000   8.0000000   8.0000000   8.0000000   8.0000000
 TTTTTTTTTTTTTTTTTTTTTTTTTTTTTT MOQGAD      TELAPSE        8.85 TCPU       17.67
 TTTTTTTTTTTTTTTTTTTTTTTTTTTTTT SHELLXN     TELAPSE       14.82 TCPU      208.46
 TTTTTTTTTTTTTTTTTTTTTTTTTTTTTT MONMO3      TELAPSE       14.96 TCPU      212.76
 NUMERICALLY INTEGRATED DENSITY    197.9999790478
 TTTTTTTTTTTTTTTTTTTTTTTTTTTTTT NUMDFT      TELAPSE       15.56 TCPU      231.89
 CYC   0 ETOT(AU) -1.295956090644E+03 DETOT -1.30E+03 tst  0.00E+00 PX  1.00E+00
 TTTTTTTTTTTTTTTTTTTTTTTTTTTTTT DIIS        TELAPSE       15.59 TCPU      233.03
 TTTTTTTTTTTTTTTTTTTTTTTTTTTTTT FDIK        TELAPSE       16.09 TCPU      248.93
 INSULATING STATE
 TOP OF VALENCE BANDS -    BAND     99; K    1; EIG -3.1181560E-01 AU
 BOTTOM OF VIRTUAL BANDS - BAND    100; K    1; EIG -1.5675862E-01 AU
 DIRECT ENERGY BAND GAP:   4.2193 eV
 TTTTTTTTTTTTTTTTTTTTTTTTTTTTTT PDIG        TELAPSE       16.42 TCPU      255.11
 CHARGE NORMALIZATION FACTOR   1.00000000
 TOTAL ATOMIC CHARGES:
   4.1595610   4.1593332   4.1597517   4.1592162   4.1588424   4.1589426
   0.7853447   0.7854673   0.7852931   0.7854381   0.7853348   0.7854797
   0.7853284   0.7854451   0.7852966   0.7855069   0.7852951   0.7854625
   6.0441140   6.2657126   6.2656749   6.2656369   6.2656287   6.0435625
   6.0441756   6.2657248   6.2657747   6.2656270   6.2657708   6.0428940
   6.0445601   6.2653815   6.2660120   6.2653202   6.2659596   6.0431484
   8.6945020   8.6947335   8.6946000   8.6949692   8.6949336   8.6952441
 TTTTTTTTTTTTTTTTTTTTTTTTTTTTTT MOQGAD      TELAPSE       16.46 TCPU      255.15
 TTTTTTTTTTTTTTTTTTTTTTTTTTTTTT SHELLXN     TELAPSE       22.67 TCPU      452.96
 TTTTTTTTTTTTTTTTTTTTTTTTTTTTTT MONMO3      TELAPSE       22.80 TCPU      457.15
 NUMERICALLY INTEGRATED DENSITY    198.0000009514
 TTTTTTTTTTTTTTTTTTTTTTTTTTTTTT NUMDFT      TELAPSE       23.40 TCPU      476.40
 CYC   1 ETOT(AU) -1.288813961801E+03 DETOT  7.14E+00 tst  0.00E+00 PX  1.00E+00
 TTTTTTTTTTTTTTTTTTTTTTTTTTTTTT DIIS        TELAPSE       23.45 TCPU      477.89
 DIIS TEST: 0.11155E+01 AT SCF   CYCLE   1 - MIX   30 %
 TTTTTTTTTTTTTTTTTTTTTTTTTTTTTT FDIK        TELAPSE       23.95 TCPU      493.82
 INSULATING STATE
 TOP OF VALENCE BANDS -    BAND     99; K    1; EIG -2.2365840E-01 AU
 BOTTOM OF VIRTUAL BANDS - BAND    100; K    1; EIG -8.1118525E-02 AU
 DIRECT ENERGY BAND GAP:   3.8787 eV
 TTTTTTTTTTTTTTTTTTTTTTTTTTTTTT PDIG        TELAPSE       24.28 TCPU      500.01
 CHARGE NORMALIZATION FACTOR   1.00000000
 TOTAL ATOMIC CHARGES:
   4.7106843   4.7100005   4.7105761   4.7106678   4.7099835   4.7107353
   0.9065610   0.9066680   0.9067158   0.9063806   0.9063357   0.9067087
   0.9063107   0.9065945   0.9066370   0.9064663   0.9066064   0.9066875
   5.8736435   6.1325991   6.1328592   6.1324704   6.1329821   5.8767485
   5.8739371   6.1319781   6.1331092   6.1324231   6.1330674   5.8771348
   5.8739374   6.1326658   6.1327828   6.1328127   6.1324687   5.8765766
   8.3354470   8.3359791   8.3359936   8.3355314   8.3353345   8.3361981
 TTTTTTTTTTTTTTTTTTTTTTTTTTTTTT MOQGAD      TELAPSE       24.32 TCPU      500.06
 TTTTTTTTTTTTTTTTTTTTTTTTTTTTTT SHELLXN     TELAPSE       30.52 TCPU      697.44
 TTTTTTTTTTTTTTTTTTTTTTTTTTTTTT MONMO3      TELAPSE       30.65 TCPU      701.69
 NUMERICALLY INTEGRATED DENSITY    197.9999936882
 TTTTTTTTTTTTTTTTTTTTTTTTTTTTTT NUMDFT      TELAPSE       31.27 TCPU      721.27
 CYC   2 ETOT(AU) -1.289008448280E+03 DETOT -1.94E-01 tst  3.72E-03 PX  1.58E-01
 TTTTTTTTTTTTTTTTTTTTTTTTTTTTTT DIIS        TELAPSE       31.31 TCPU      722.85
 DIIS TEST: 0.46333E+00 AT SCF   CYCLE   2 - DIIS ACTIVE - HISTORY:     2 CYCLES
 TTTTTTTTTTTTTTTTTTTTTTTTTTTTTT FDIK        TELAPSE       31.82 TCPU      738.92
 INSULATING STATE
 TOP OF VALENCE BANDS -    BAND     99; K    1; EIG -2.3684443E-01 AU
 BOTTOM OF VIRTUAL BANDS - BAND    100; K    1; EIG -7.5520116E-02 AU
 DIRECT ENERGY BAND GAP:   4.3899 eV
 TTTTTTTTTTTTTTTTTTTTTTTTTTTTTT PDIG        TELAPSE       32.15 TCPU      745.10
 CHARGE NORMALIZATION FACTOR   1.00000000
 TOTAL ATOMIC CHARGES:
   4.5015202   4.5008333   4.5013811   4.5013718   4.5007316   4.5012324
   0.8855029   0.8857161   0.8855502   0.8854839   0.8852604   0.8858255
   0.8852855   0.8856737   0.8855195   0.8855185   0.8855873   0.8856490
   5.8899601   6.1629342   6.1622780   6.1626211   6.1626419   5.8896089
   5.8902838   6.1629532   6.1623143   6.1629168   6.1624273   5.8890682
   5.8900343   6.1625123   6.1628548   6.1626554   6.1624730   5.8895209
   8.5124095   8.5128323   8.5126187   8.5126129   8.5127908   8.5130345
 TTTTTTTTTTTTTTTTTTTTTTTTTTTTTT MOQGAD      TELAPSE       32.19 TCPU      745.15
 TTTTTTTTTTTTTTTTTTTTTTTTTTTTTT SHELLXN     TELAPSE       38.45 TCPU      944.50
 TTTTTTTTTTTTTTTTTTTTTTTTTTTTTT MONMO3      TELAPSE       38.58 TCPU      948.65
 NUMERICALLY INTEGRATED DENSITY    197.9999962531
 TTTTTTTTTTTTTTTTTTTTTTTTTTTTTT NUMDFT      TELAPSE       39.18 TCPU      967.92
 CYC   3 ETOT(AU) -1.289103811141E+03 DETOT -9.54E-02 tst  6.73E-04 PX  6.23E-02
 TTTTTTTTTTTTTTTTTTTTTTTTTTTTTT DIIS        TELAPSE       39.24 TCPU      969.81
 DIIS TEST: 0.13251E-01 AT SCF   CYCLE   3 - DIIS ACTIVE - HISTORY:     3 CYCLES
 TTTTTTTTTTTTTTTTTTTTTTTTTTTTTT FDIK        TELAPSE       39.75 TCPU      985.87
 INSULATING STATE
 TOP OF VALENCE BANDS -    BAND     99; K    1; EIG -2.4585969E-01 AU
 BOTTOM OF VIRTUAL BANDS - BAND    100; K    1; EIG -8.3902268E-02 AU
 DIRECT ENERGY BAND GAP:   4.4071 eV
 TTTTTTTTTTTTTTTTTTTTTTTTTTTTTT PDIG        TELAPSE       40.08 TCPU      992.06
 CHARGE NORMALIZATION FACTOR   1.00000000
 TOTAL ATOMIC CHARGES:
   4.5070480   4.5063302   4.5069041   4.5067439   4.5059928   4.5066292
   0.8690033   0.8690576   0.8690036   0.8688478   0.8688120   0.8690953
   0.8687960   0.8689796   0.8689591   0.8689293   0.8690352   0.8690432
   5.9420296   6.1658523   6.1663619   6.1660362   6.1663588   5.9440509
   5.9419499   6.1655974   6.1665200   6.1658560   6.1664631   5.9442539
   5.9424862   6.1660389   6.1663324   6.1658931   6.1662737   5.9436462
   8.4798323   8.4802585   8.4802438   8.4800570   8.4797996   8.4805983
 TTTTTTTTTTTTTTTTTTTTTTTTTTTTTT MOQGAD      TELAPSE       40.12 TCPU      992.10
 TTTTTTTTTTTTTTTTTTTTTTTTTTTTTT SHELLXN     TELAPSE       46.36 TCPU     1190.85
 TTTTTTTTTTTTTTTTTTTTTTTTTTTTTT MONMO3      TELAPSE       46.49 TCPU     1195.17
 NUMERICALLY INTEGRATED DENSITY    197.9999961048
 TTTTTTTTTTTTTTTTTTTTTTTTTTTTTT NUMDFT      TELAPSE       47.10 TCPU     1214.74
 CYC   4 ETOT(AU) -1.289106591365E+03 DETOT -2.78E-03 tst  2.75E-05 PX  1.28E-02
 TTTTTTTTTTTTTTTTTTTTTTTTTTTTTT DIIS        TELAPSE       47.17 TCPU     1216.70
 DIIS TEST: 0.38283E-02 AT SCF   CYCLE   4 - DIIS ACTIVE - HISTORY:     4 CYCLES
 TTTTTTTTTTTTTTTTTTTTTTTTTTTTTT FDIK        TELAPSE       47.67 TCPU     1232.80
 INSULATING STATE
 TOP OF VALENCE BANDS -    BAND     99; K    1; EIG -2.4430022E-01 AU
 BOTTOM OF VIRTUAL BANDS - BAND    100; K    1; EIG -8.3719031E-02 AU
 DIRECT ENERGY BAND GAP:   4.3696 eV
 TTTTTTTTTTTTTTTTTTTTTTTTTTTTTT PDIG        TELAPSE       48.00 TCPU     1238.99
 CHARGE NORMALIZATION FACTOR   1.00000000
 TOTAL ATOMIC CHARGES:
   4.5097358   4.5090157   4.5095825   4.5095862   4.5088869   4.5095052
   0.8716312   0.8718378   0.8716988   0.8715807   0.8714032   0.8719158
   0.8714105   0.8717744   0.8716649   0.8716338   0.8716975   0.8717933
   5.9223020   6.1676409   6.1671665   6.1674040   6.1675355   5.9226885
   5.9226335   6.1675369   6.1672481   6.1675969   6.1673507   5.9223481
   5.9224247   6.1673251   6.1676540   6.1674521   6.1672788   5.9225935
   8.4896047   8.4900605   8.4898807   8.4897728   8.4898710   8.4902763
 TTTTTTTTTTTTTTTTTTTTTTTTTTTTTT MOQGAD      TELAPSE       48.04 TCPU     1239.03
 TTTTTTTTTTTTTTTTTTTTTTTTTTTTTT SHELLXN     TELAPSE       54.35 TCPU     1439.63
 TTTTTTTTTTTTTTTTTTTTTTTTTTTTTT MONMO3      TELAPSE       54.48 TCPU     1443.86
 NUMERICALLY INTEGRATED DENSITY    197.9999961809
 TTTTTTTTTTTTTTTTTTTTTTTTTTTTTT NUMDFT      TELAPSE       55.09 TCPU     1463.22
 CYC   5 ETOT(AU) -1.289107471630E+03 DETOT -8.80E-04 tst  6.18E-06 PX  6.50E-03
 TTTTTTTTTTTTTTTTTTTTTTTTTTTTTT DIIS        TELAPSE       55.16 TCPU     1465.51
 DIIS TEST: 0.69910E-04 AT SCF   CYCLE   5 - DIIS ACTIVE - HISTORY:     5 CYCLES
 TTTTTTTTTTTTTTTTTTTTTTTTTTTTTT FDIK        TELAPSE       55.66 TCPU     1481.55
 INSULATING STATE
 TOP OF VALENCE BANDS -    BAND     99; K    1; EIG -2.4419277E-01 AU
 BOTTOM OF VIRTUAL BANDS - BAND    100; K    1; EIG -8.3166369E-02 AU
 DIRECT ENERGY BAND GAP:   4.3818 eV
 TTTTTTTTTTTTTTTTTTTTTTTTTTTTTT PDIG        TELAPSE       55.99 TCPU     1487.74
 CHARGE NORMALIZATION FACTOR   1.00000000
 TOTAL ATOMIC CHARGES:
   4.5093848   4.5086586   4.5092292   4.5091053   4.5083985   4.5089760
   0.8725906   0.8726609   0.8726035   0.8724553   0.8723791   0.8727307
   0.8723647   0.8726108   0.8725545   0.8725240   0.8726318   0.8726422
   5.9220859   6.1667316   6.1670635   6.1668368   6.1670753   5.9235331
   5.9219915   6.1665398   6.1672004   6.1667513   6.1671530   5.9236320
   5.9224917   6.1668308   6.1671099   6.1667160   6.1670116   5.9231503
   8.4889615   8.4893574   8.4893508   8.4892109   8.4890288   8.4896856
 TTTTTTTTTTTTTTTTTTTTTTTTTTTTTT MOQGAD      TELAPSE       56.04 TCPU     1487.78
 TTTTTTTTTTTTTTTTTTTTTTTTTTTTTT SHELLXN     TELAPSE       62.33 TCPU     1688.38
 TTTTTTTTTTTTTTTTTTTTTTTTTTTTTT MONMO3      TELAPSE       62.46 TCPU     1692.69
 NUMERICALLY INTEGRATED DENSITY    197.9999961585
 TTTTTTTTTTTTTTTTTTTTTTTTTTTTTT NUMDFT      TELAPSE       63.07 TCPU     1712.11
 CYC   6 ETOT(AU) -1.289107492729E+03 DETOT -2.11E-05 tst  2.15E-07 PX  7.20E-04
 TTTTTTTTTTTTTTTTTTTTTTTTTTTTTT DIIS        TELAPSE       63.14 TCPU     1714.32
 DIIS TEST: 0.43090E-05 AT SCF   CYCLE   6 - DIIS ACTIVE - HISTORY:     6 CYCLES
 TTTTTTTTTTTTTTTTTTTTTTTTTTTTTT FDIK        TELAPSE       63.64 TCPU     1730.19
 INSULATING STATE
 TOP OF VALENCE BANDS -    BAND     99; K    1; EIG -2.4414894E-01 AU
 BOTTOM OF VIRTUAL BANDS - BAND    100; K    1; EIG -8.3249729E-02 AU
 DIRECT ENERGY BAND GAP:   4.3783 eV
 TTTTTTTTTTTTTTTTTTTTTTTTTTTTTT PDIG        TELAPSE       63.98 TCPU     1736.39
 CHARGE NORMALIZATION FACTOR   1.00000000
 TOTAL ATOMIC CHARGES:
   4.5095156   4.5087922   4.5093607   4.5093612   4.5086583   4.5092697
   0.8725071   0.8727105   0.8725749   0.8724504   0.8722749   0.8727943
   0.8722845   0.8726498   0.8725421   0.8725022   0.8725773   0.8726623
   5.9228194   6.1668687   6.1663767   6.1666048   6.1667832   5.9232578
   5.9231986   6.1667812   6.1664386   6.1668288   6.1665553   5.9228762
   5.9229179   6.1665173   6.1669055   6.1666649   6.1665079   5.9231874
   8.4890997   8.4895704   8.4893593   8.4892517   8.4893649   8.4897759
 TTTTTTTTTTTTTTTTTTTTTTTTTTTTTT MOQGAD      TELAPSE       64.02 TCPU     1736.43
 TTTTTTTTTTTTTTTTTTTTTTTTTTTTTT SHELLXN     TELAPSE       70.25 TCPU     1934.65
 TTTTTTTTTTTTTTTTTTTTTTTTTTTTTT MONMO3      TELAPSE       70.38 TCPU     1938.99
 NUMERICALLY INTEGRATED DENSITY    197.9999961603
 TTTTTTTTTTTTTTTTTTTTTTTTTTTTTT NUMDFT      TELAPSE       70.99 TCPU     1958.32
 CYC   7 ETOT(AU) -1.289107492599E+03 DETOT  1.30E-07 tst  2.44E-08 PX  2.65E-04
 TTTTTTTTTTTTTTTTTTTTTTTTTTTTTT DIIS        TELAPSE       71.07 TCPU     1960.94
 DIIS TEST: 0.93926E-06 AT SCF   CYCLE   7 - DIIS ACTIVE - HISTORY:     7 CYCLES
 TTTTTTTTTTTTTTTTTTTTTTTTTTTTTT FDIK        TELAPSE       71.57 TCPU     1976.95
 INSULATING STATE
 TOP OF VALENCE BANDS -    BAND     99; K    1; EIG -2.4416798E-01 AU
 BOTTOM OF VIRTUAL BANDS - BAND    100; K    1; EIG -8.3247955E-02 AU
 DIRECT ENERGY BAND GAP:   4.3789 eV
 TTTTTTTTTTTTTTTTTTTTTTTTTTTTTT PDIG        TELAPSE       71.91 TCPU     1983.14
 CHARGE NORMALIZATION FACTOR   1.00000000
 TOTAL ATOMIC CHARGES:
   4.5095720   4.5088480   4.5094161   4.5093479   4.5086434   4.5092418
   0.8725102   0.8726389   0.8725446   0.8724124   0.8722913   0.8727117
   0.8722861   0.8725824   0.8725019   0.8724747   0.8725622   0.8726092
   5.9223964   6.1667486   6.1667316   6.1667171   6.1668906   5.9233676
   5.9224743   6.1665929   6.1668479   6.1667429   6.1668628   5.9232888
   5.9226869   6.1666814   6.1669588   6.1666629   6.1667458   5.9231040
   8.4890776   8.4894972   8.4894231   8.4892959   8.4892305   8.4897800
 TTTTTTTTTTTTTTTTTTTTTTTTTTTTTT MOQGAD      TELAPSE       71.95 TCPU     1983.19
 TTTTTTTTTTTTTTTTTTTTTTTTTTTTTT SHELLXN     TELAPSE       78.28 TCPU     2185.24
 +++ ENERGIES IN A.U. +++
 ::: EXT EL-POLE                                  -1.3495003129885E+03
 ::: EXT EL-SPHEROPOLE                             1.4661277619016E+01
 ::: BIELET ZONE E-E                               2.0176634981725E+03
 ::: TOTAL E-E                                     6.8282446280303E+02
 ::: TOTAL E-N + N-E                              -3.1946901478991E+03
 ::: TOTAL N-N                                     7.6528002827187E+01
 ::: KINETIC ENERGY                                1.2799501472529E+03
 ::: PSEUDO TOTAL   ENERGY                        -1.1553875350159E+03
 ::: VIRIAL COEFFICIENT                            1.0511479837658E+00
 TTTTTTTTTTTTTTTTTTTTTTTTTTTTTT MONMO3      TELAPSE       78.41 TCPU     2189.39
 NUMERICALLY INTEGRATED DENSITY    197.9999961601
 EXCHANGE ENERGY: -0.126029763003E+03  CORRELATION ENERGY: -0.769019491205E+01
 TTTTTTTTTTTTTTTTTTTTTTTTTTTTTT NUMDFT      TELAPSE       79.01 TCPU     2208.48
 CYC   8 ETOT(AU) -1.289107492931E+03 DETOT -3.33E-07 tst  8.40E-09 PX  2.65E-04

 == SCF ENDED - CONVERGENCE ON ENERGY      E(AU) -1.2891074929312E+03 CYCLES   8


 ENERGY EXPRESSION=HARTREE+FOCK EXCH*0.00000+(HSESOL     EXCH)*1.00000+PBESOL     CORR


 TOTAL ENERGY(DFT)(AU)(  8) -1.2891074929312E+03 DE-3.3E-07 tester 8.4E-09
 TTTTTTTTTTTTTTTTTTTTTTTTTTTTTT EDFT        TELAPSE       79.01 TCPU     2208.49
 
 INFORMATION **** DFTD3 ENERGY **** CALCULATE DFTD3 ENERGY

           DFT-D V3(BJ)
 DF                                         hsesol3c  
 parameters
 s6       :    1.0000
 s8       :    0.0000
 a1       :    0.5196
 a2       :    4.9385
 k1 k3    :   16.0000   -4.0000
 Cutoff   :   50.2022
 CN-Cutoff:   21.1671
 ABC-Cutoff:   21.1671
 
 Edisp /kcal,au:   -23.4679 -0.03739840

 E6    /kcal :   -24.6823
 E8    /kcal :     0.0000
 E6(ABC) "   :   1.214417
 
 INFORMATION **** DFTD3 ENERGY **** NORMAL TERMINATION OF DFTD3 MODULE

 GCP ENERGY CALCULATION
  level        hsesol3c            basis:hsesol3c
  Nbf            474
  Atoms           42

  Parameters: 
  sigma     1.0000
  eta       1.4281
  alpha     0.2936
  beta      1.9467

  dmp_scal      4.0000
  dmp_exp       6.0000
 cutoffs: 
   distance [bohr] 60.0
   noise    [a.u.] 2.2E-16
 SR-damping   T
 ** gCP correction **
  Egcp:        0.0829678570 / (a.u.) ||      52.0631 / (kcal/mol)
 INFORMATION **** GCP **** NORMAL TERMINATION OF GCP MODULE

 *******************************************************************************

 DFT-D3-GCP DISPERSION AND COUNTERPOISE CORRECTION

 D3 DISPERSION ENERGY (AU)      -3.7398395985533E-02
 GCP ENERGY (AU)                 8.2967856970664E-02
 TOTAL ENERGY + DISP + GCP (AU) -1.2890619234703E+03

 *******************************************************************************

 EIGENVECTORS IN FORTRAN UNIT  8
 TTTTTTTTTTTTTTTTTTTTTTTTTTTTTT END         TELAPSE       80.62 TCPU     2216.01
 EEEEEEEEEE TERMINATION  DATE 19 02 2026 TIME 19:05:00.6
