 Default number of threads is:           32

         
 *******************************************************************************
 *                                                                             *
 *                               CRYSTAL23                                     *
 *                      public : 1.0.1 - October 2022                          *
 *                       HTTP://WWW.CRYSTAL.UNITO.IT                           *
 *                                                                             *
 *                              MAIN AUTHORS                                   *
 *                                                                             *
 *  R. DOVESI(1,11), V.R. SAUNDERS(2), C. ROETTI(1,11), R. ORLANDO(1,11),      *
 *  C.M. ZICOVICH-WILSON(1,3), F. PASCALE(4), B. CIVALLERI(1,11),              *
 *  K. DOLL(5), N.M. HARRISON(6), I.J. BUSH(7), Ph. D'ARCO(8),                 *
 *  M. LLUNELL(9), M. CAUSA'(10), Y. NOEL(8), L. MASCHIO(1,11), A. ERBA(1,11)  *
 *  M. RE'RAT(14), S. CASASSA(1,11), B.G. SEARLE(2), J.K. DESMARAIS(1)         *
 *                                                                             *
 *        CONTRIBUTIONS TO THE CODE HAVE ALSO BEEN GIVEN BY                    *
 *                                                                             *
 *  M. FERRABONE(1,11), M. DE LA PIERRE(1,11), M. FERRERO(1,11),               *
 *  J. BAIMA(1,11), E. ALBANESE(1,11), M.F. PEINTINGER(12), R. BAST(13),       *
 *  B. KIRTMAN(15), V. LACIVITA(1,11), R. DEMICHELIS(1,16)                     *
 *  G. BRANDEBURG(17), S. SALUSTRO(1,11), G. SANSONE(1,11)                     *
 *  M.T. RUGGIERO(18), L.E. DAGA(1), L. DONA'(1), A. COSSARD(1)                *
 *                                                                             *
 * (1) THEORETICAL CHEMISTRY GROUP - UNIVERSITA' DI TORINO - TORINO (ITALY)    *
 * (2) SCIENTIFIC COMPUTING DEPARTMENT - STFC DARESBURY (UK)                   *
 * (3) UNIVERSIDAD AUTONOMA DEL ESTADO DE MORELOS - CUERNAVACA (MEXICO)        *
 * (4) UNIVERSITE' DE LORRAINE - NANCY (FRANCE)                                *
 * (5) UNIVERSITAET STUTTGART- STUTTGART (GERMANY)                             *
 * (6) IMPERIAL COLLEGE - LONDON (UK)                                          *
 * (7) SCIENTIFIC COMPUTING DEPARTMENT - STFC RAL (UK)                         *
 * (8) UPMC - SORBONNE UNIVERSITES - PARIS (FRANCE)                            *
 * (9) UNIVERSIDAD DE BARCELONA - BARCELONA (SPAIN)                            *
 *(10) UNIVERSITA' DI NAPOLI "FEDERICO II" - NAPOLI (ITALY)                    *
 *(11) NIS - NANOSTRUCTURED INTERFACES AND SURFACES - TORINO (ITALY)           *
 *(12) MPI FUER CHEMISCHE ENERGIEKONVERSION - MUELHEIM AN DER RUHR (GERMANY)   *
 *(13) UNIVERSITY OF TROMSO - TROMSO (NORWAY)                                  *
 *(14) UNIVERSITE' DE PAU ET DES PAYS DE L'ADOUR - PAU (FRANCE)                *
 *(15) UNIVERSITY OF CALIFORNIA SANTA BARBARA - SANTA BARBARA (USA)            *
 *(16) CURTIN UNIVERSITY - PERTH (AUSTRALIA)                                   *
 *(17) UNIVERSITY COLLEGE LONDON - LONDON (UK)                                 *
 *(18) UNIVERSITY OF VERMONT - BURLINGTON (USA)                                *
 *                                                                             *
 *******************************************************************************
 EEEEEEEEEE STARTING  DATE 19 02 2026 TIME 19:11:55.8
 cof-1_z41_L087_incl                                                             

 CRYSTAL CALCULATION
 (INPUT ACCORDING TO THE INTERNATIONAL TABLES FOR X-RAY CRYSTALLOGRAPHY)
 CRYSTAL FAMILY                       :  TRICLINIC   
 CRYSTAL CLASS  (GROTH - 1921)        :  TRICLINIC PEDIAL                     

 SPACE GROUP (NONCENTROSYMMETRIC)     :  P 1             

 LATTICE PARAMETERS  (ANGSTROMS AND DEGREES) - CONVENTIONAL CELL
        A           B           C        ALPHA        BETA       GAMMA
    15.02361    15.02392     9.59463    38.46369    89.99998   119.99596


 NUMBER OF IRREDUCIBLE ATOMS IN THE CONVENTIONAL CELL:   42

 INPUT COORDINATES

 ATOM AT. N.              COORDINATES
   1   5     4.466429000000E-01 -1.067910200000E-01  5.011587700000E-01
   2   5     6.056985600000E-01  5.226863000000E-02  5.011587800000E-01
   3   5     4.474550600000E-01  5.388446000000E-02  4.987092500000E-01
   4   5     6.021761000000E-02  2.795239700000E-01  5.011587800000E-01
   5   5     2.193255800000E-01  2.795032100000E-01  5.011587700000E-01
   6   5     2.201222900000E-01  4.402754400000E-01  4.987092500000E-01
   7   1     7.376986100000E-01 -2.179359000000E-02  4.960804100000E-01
   8   1    -6.845165000000E-02  3.608475200000E-01  4.953038400000E-01
   9   1     7.379250800000E-01  2.639461900000E-01  4.951843300000E-01
  10   1    -6.832010000000E-02  7.553883000000E-02  4.952141400000E-01
  11   1     5.230787400000E-01 -2.389373400000E-01  5.039070800000E-01
  12   1     1.407172100000E-01  5.669781000000E-01  5.046837000000E-01
  13   1     2.376176200000E-01 -2.394889600000E-01  5.048032900000E-01
  14   1     4.260698500000E-01  5.668283900000E-01  5.047732800000E-01
  15   1     5.257277200000E-01  2.633305500000E-01  4.960804500000E-01
  16   1     1.438756700000E-01  7.540345000000E-02  4.953037900000E-01
  17   1     2.407942600000E-01 -2.130293000000E-02  4.951842400000E-01
  18   1     4.292345700000E-01  3.608117500000E-01  4.952142400000E-01
  19   6     7.256989800000E-01  1.135272300000E-01  4.986196200000E-01
  20   6     7.811042700000E-01  6.198232000000E-02  4.961999200000E-01
  21   6    -1.119270500000E-01  2.765213400000E-01  4.959909000000E-01
  22   6     7.809278500000E-01  2.226100200000E-01  4.966182100000E-01
  23   6    -1.115602400000E-01  1.162432700000E-01  4.950050300000E-01
  24   6    -5.749831000000E-02  2.229335700000E-01  4.966480500000E-01
  25   6     3.869320800000E-01 -2.260802000000E-01  5.013679000000E-01
  26   6     4.392640300000E-01 -2.823058400000E-01  5.037875500000E-01
  27   6     2.248151500000E-01  6.106619800000E-01  5.039966600000E-01
  28   6     2.785131400000E-01 -2.819801200000E-01  5.033693600000E-01
  29   6     3.854047800000E-01  6.099651900000E-01  5.049824200000E-01
  30   6     2.781634400000E-01  5.564290200000E-01  5.033394500000E-01
  31   6     3.878535400000E-01  1.134580900000E-01  4.986196200000E-01
  32   6     4.418253600000E-01  2.228224400000E-01  4.961999700000E-01
  33   6     2.275082100000E-01  1.155081100000E-01  4.959908500000E-01
  34   6     2.807630300000E-01  6.160787000000E-02  4.966181400000E-01
  35   6     3.887563600000E-01  2.770912500000E-01  4.950051000000E-01
  36   6     2.804257800000E-01  2.228561700000E-01  4.966480500000E-01
  37   8     3.942964300000E-01 -5.254371000000E-02  4.993664300000E-01
  38   8     5.515189700000E-01 -5.598131000000E-02  5.045343400000E-01
  39   8     5.541153400000E-01  1.081616400000E-01  4.967376900000E-01
  40   8     1.138842500000E-01  3.867367600000E-01  4.993664500000E-01
  41   8     1.121812400000E-01  2.243359700000E-01  5.045343400000E-01
  42   8     2.736997700000E-01  3.884736100000E-01  4.967376700000E-01

 *******************************************************************************

 << INFORMATION >>: FROM NOW ON, ALL COORDINATES REFER TO THE PRIMITIVE CELL

 *******************************************************************************

 LATTICE PARAMETERS  (ANGSTROMS AND DEGREES) - PRIMITIVE CELL
       A          B          C        ALPHA      BETA     GAMMA        VOLUME
   15.02361   15.02392    9.59463    38.46369  89.99998 119.99596    801.484408

 COORDINATES OF THE EQUIVALENT ATOMS (FRACTIONAL UNITS)

 N. ATOM EQUIV AT. N.          X                  Y                  Z

   1   1   1    5 B     4.46642900000E-01 -1.06791020000E-01 -4.98841230000E-01

   2   2   1    5 B    -3.94301440000E-01  5.22686300000E-02 -4.98841220000E-01

   3   3   1    5 B     4.47455060000E-01  5.38844600000E-02  4.98709250000E-01

   4   4   1    5 B     6.02176100000E-02  2.79523970000E-01 -4.98841220000E-01

   5   5   1    5 B     2.19325580000E-01  2.79503210000E-01 -4.98841230000E-01

   6   6   1    5 B     2.20122290000E-01  4.40275440000E-01  4.98709250000E-01

   7   7   1    1 H    -2.62301390000E-01 -2.17935900000E-02  4.96080410000E-01

   8   8   1    1 H    -6.84516500000E-02  3.60847520000E-01  4.95303840000E-01

   9   9   1    1 H    -2.62074920000E-01  2.63946190000E-01  4.95184330000E-01

  10  10   1    1 H    -6.83201000000E-02  7.55388300000E-02  4.95214140000E-01

  11  11   1    1 H    -4.76921260000E-01 -2.38937340000E-01 -4.96092920000E-01

  12  12   1    1 H     1.40717210000E-01 -4.33021900000E-01 -4.95316300000E-01

  13  13   1    1 H     2.37617620000E-01 -2.39488960000E-01 -4.95196710000E-01

  14  14   1    1 H     4.26069850000E-01 -4.33171610000E-01 -4.95226720000E-01

  15  15   1    1 H    -4.74272280000E-01  2.63330550000E-01  4.96080450000E-01

  16  16   1    1 H     1.43875670000E-01  7.54034500000E-02  4.95303790000E-01

  17  17   1    1 H     2.40794260000E-01 -2.13029300000E-02  4.95184240000E-01

  18  18   1    1 H     4.29234570000E-01  3.60811750000E-01  4.95214240000E-01

  19  19   1    6 C    -2.74301020000E-01  1.13527230000E-01  4.98619620000E-01

  20  20   1    6 C    -2.18895730000E-01  6.19823200000E-02  4.96199920000E-01

  21  21   1    6 C    -1.11927050000E-01  2.76521340000E-01  4.95990900000E-01

  22  22   1    6 C    -2.19072150000E-01  2.22610020000E-01  4.96618210000E-01

  23  23   1    6 C    -1.11560240000E-01  1.16243270000E-01  4.95005030000E-01

  24  24   1    6 C    -5.74983100000E-02  2.22933570000E-01  4.96648050000E-01

  25  25   1    6 C     3.86932080000E-01 -2.26080200000E-01 -4.98632100000E-01

  26  26   1    6 C     4.39264030000E-01 -2.82305840000E-01 -4.96212450000E-01

  27  27   1    6 C     2.24815150000E-01 -3.89338020000E-01 -4.96003340000E-01

  28  28   1    6 C     2.78513140000E-01 -2.81980120000E-01 -4.96630640000E-01

  29  29   1    6 C     3.85404780000E-01 -3.90034810000E-01 -4.95017580000E-01

  30  30   1    6 C     2.78163440000E-01 -4.43570980000E-01 -4.96660550000E-01

  31  31   1    6 C     3.87853540000E-01  1.13458090000E-01  4.98619620000E-01

  32  32   1    6 C     4.41825360000E-01  2.22822440000E-01  4.96199970000E-01

  33  33   1    6 C     2.27508210000E-01  1.15508110000E-01  4.95990850000E-01

  34  34   1    6 C     2.80763030000E-01  6.16078700000E-02  4.96618140000E-01

  35  35   1    6 C     3.88756360000E-01  2.77091250000E-01  4.95005100000E-01

  36  36   1    6 C     2.80425780000E-01  2.22856170000E-01  4.96648050000E-01

  37  37   1    8 O     3.94296430000E-01 -5.25437100000E-02  4.99366430000E-01

  38  38   1    8 O    -4.48481030000E-01 -5.59813100000E-02 -4.95465660000E-01

  39  39   1    8 O    -4.45884660000E-01  1.08161640000E-01  4.96737690000E-01

  40  40   1    8 O     1.13884250000E-01  3.86736760000E-01  4.99366450000E-01

  41  41   1    8 O     1.12181240000E-01  2.24335970000E-01 -4.95465660000E-01

  42  42   1    8 O     2.73699770000E-01  3.88473610000E-01  4.96737670000E-01

 NUMBER OF SYMMETRY OPERATORS         :    1
 *******************************************************************************
 * GEOMETRY EDITING - INPUT COORDINATES ARE GIVEN IN ANGSTROM         
 *******************************************************************************

 GCALCO - MAX INDICES DIRECT LATTICE VECTOR     9    16    21
 NO.OF VECTORS CREATED 6999 STARS 3500 RMAX   222.46903 BOHR

 GEOMETRY FOR WAVE FUNCTION - DIMENSIONALITY OF THE SYSTEM    3
 (NON PERIODIC DIRECTION: LATTICE PARAMETER FORMALLY SET TO 500)
 *******************************************************************************
 LATTICE PARAMETERS (ANGSTROMS AND DEGREES) - BOHR = 0.5291772083 ANGSTROM
 PRIMITIVE CELL - CENTRING CODE 1/0 VOLUME=   801.484408 - DENSITY  0.808 g/cm^3
         A              B              C           ALPHA      BETA       GAMMA 
    15.02361100    15.02391600     9.59463400    38.463691  89.999976 119.995964
 *******************************************************************************
 ATOMS IN THE ASYMMETRIC UNIT   42 - ATOMS IN THE UNIT CELL:   42
     ATOM                 X/A                 Y/B                 Z/C    
 *******************************************************************************
      1 T   5 B     4.466429000000E-01 -1.067910200000E-01 -4.988412300000E-01
      2 T   5 B    -3.943014400000E-01  5.226863000000E-02 -4.988412200000E-01
      3 T   5 B     4.474550600000E-01  5.388446000000E-02  4.987092500000E-01
      4 T   5 B     6.021761000000E-02  2.795239700000E-01 -4.988412200000E-01
      5 T   5 B     2.193255800000E-01  2.795032100000E-01 -4.988412300000E-01
      6 T   5 B     2.201222900000E-01  4.402754400000E-01  4.987092500000E-01
      7 T   1 H    -2.623013900000E-01 -2.179359000000E-02  4.960804100000E-01
      8 T   1 H    -6.845165000000E-02  3.608475200000E-01  4.953038400000E-01
      9 T   1 H    -2.620749200000E-01  2.639461900000E-01  4.951843300000E-01
     10 T   1 H    -6.832010000000E-02  7.553883000000E-02  4.952141400000E-01
     11 T   1 H    -4.769212600000E-01 -2.389373400000E-01 -4.960929200000E-01
     12 T   1 H     1.407172100000E-01 -4.330219000000E-01 -4.953163000000E-01
     13 T   1 H     2.376176200000E-01 -2.394889600000E-01 -4.951967100000E-01
     14 T   1 H     4.260698500000E-01 -4.331716100000E-01 -4.952267200000E-01
     15 T   1 H    -4.742722800000E-01  2.633305500000E-01  4.960804500000E-01
     16 T   1 H     1.438756700000E-01  7.540345000000E-02  4.953037900000E-01
     17 T   1 H     2.407942600000E-01 -2.130293000000E-02  4.951842400000E-01
     18 T   1 H     4.292345700000E-01  3.608117500000E-01  4.952142400000E-01
     19 T   6 C    -2.743010200000E-01  1.135272300000E-01  4.986196200000E-01
     20 T   6 C    -2.188957300000E-01  6.198232000000E-02  4.961999200000E-01
     21 T   6 C    -1.119270500000E-01  2.765213400000E-01  4.959909000000E-01
     22 T   6 C    -2.190721500000E-01  2.226100200000E-01  4.966182100000E-01
     23 T   6 C    -1.115602400000E-01  1.162432700000E-01  4.950050300000E-01
     24 T   6 C    -5.749831000000E-02  2.229335700000E-01  4.966480500000E-01
     25 T   6 C     3.869320800000E-01 -2.260802000000E-01 -4.986321000000E-01
     26 T   6 C     4.392640300000E-01 -2.823058400000E-01 -4.962124500000E-01
     27 T   6 C     2.248151500000E-01 -3.893380200000E-01 -4.960033400000E-01
     28 T   6 C     2.785131400000E-01 -2.819801200000E-01 -4.966306400000E-01
     29 T   6 C     3.854047800000E-01 -3.900348100000E-01 -4.950175800000E-01
     30 T   6 C     2.781634400000E-01 -4.435709800000E-01 -4.966605500000E-01
     31 T   6 C     3.878535400000E-01  1.134580900000E-01  4.986196200000E-01
     32 T   6 C     4.418253600000E-01  2.228224400000E-01  4.961999700000E-01
     33 T   6 C     2.275082100000E-01  1.155081100000E-01  4.959908500000E-01
     34 T   6 C     2.807630300000E-01  6.160787000000E-02  4.966181400000E-01
     35 T   6 C     3.887563600000E-01  2.770912500000E-01  4.950051000000E-01
     36 T   6 C     2.804257800000E-01  2.228561700000E-01  4.966480500000E-01
     37 T   8 O     3.942964300000E-01 -5.254371000000E-02  4.993664300000E-01
     38 T   8 O    -4.484810300000E-01 -5.598131000000E-02 -4.954656600000E-01
     39 T   8 O    -4.458846600000E-01  1.081616400000E-01  4.967376900000E-01
     40 T   8 O     1.138842500000E-01  3.867367600000E-01  4.993664500000E-01
     41 T   8 O     1.121812400000E-01  2.243359700000E-01 -4.954656600000E-01
     42 T   8 O     2.736997700000E-01  3.884736100000E-01  4.967376700000E-01

 T = ATOM BELONGING TO THE ASYMMETRIC UNIT

 ****    1 SYMMOPS - TRANSLATORS IN FRACTIONAL UNITS
 **** MATRICES AND TRANSLATORS IN THE CRYSTALLOGRAPHIC REFERENCE FRAME
   V INV                    ROTATION MATRICES                   TRANSLATORS
   1   1  1.00 -0.00  0.00  0.00  1.00  0.00 -0.00  0.00  1.00  0.00  0.00  0.00

 DIRECT LATTICE VECTORS CARTESIAN COMPONENTS (ANGSTROM)
          X                    Y                    Z
   0.130113578931E+02  -0.751088897922E+01   0.000000000000E+00
   0.000000000000E+00   0.150239160000E+02   0.000000000000E+00
   0.433671360788E+01   0.751262235512E+01   0.410005146633E+01


 CARTESIAN COORDINATES - PRIMITIVE CELL
 *******************************************************************************
 *      ATOM          X(ANGSTROM)         Y(ANGSTROM)         Z(ANGSTROM)
 *******************************************************************************
    1     5 B    -6.886145359002E-01 -1.195416680558E+00 -6.145326182862E+00
    2     5 B     1.380915624643E+00 -3.671886188087E-04 -6.145326141862E+00
    3     5 B    -6.898871676065E-01  1.194979916484E+00  6.144785058070E+00
    4     5 B    -1.379818631771E+00 -3.488390629957E-04 -2.045274675528E+00
    5     5 B     6.903920661695E-01 -1.195703109064E+00 -2.045274716529E+00
    6     5 B     6.901354783997E-01  1.195339050519E+00 -2.055317874597E+00
    7     1 H    -1.261538596486E+00  5.369556331987E+00  2.033955212440E+00
    8     1 H    -3.079371621437E+00  2.143883918725E+00 -2.069280230861E+00
    9     1 H    -1.262477956594E+00 -5.369862117101E+00  2.030281238322E+00
   10     1 H    -3.078048980517E+00 -2.144231813576E+00 -2.069648005477E+00
   11     1 H    -4.020092509724E+00  3.777991704374E+00  2.066044962250E+00
   12     1 H    -3.171229573925E-01  3.740195698231E+00 -2.030822322114E+00
   13     1 H     5.280915192562E+00 -1.590385099902E+00  2.069719469374E+00
   14     1 H     3.396090850181E+00  1.595367449511E+00 -2.030455039503E+00
   15     1 H    -4.019567535718E+00 -3.778588416960E+00  2.033955376442E+00
   16     1 H    -3.167050872793E-01 -3.739371115059E+00 -2.069280435863E+00
   17     1 H     5.280532527470E+00  1.591499806759E+00  2.030280869317E+00
   18     1 H     3.395813335886E+00 -1.595392562619E+00 -2.069647595472E+00
   19     6 C    -5.743371858321E+00 -8.133758664670E-04 -2.055685362210E+00
   20     6 C    -5.032967346879E+00 -1.209541048298E+00 -2.065606256743E+00
   21     6 C    -3.642066027929E+00  1.208674998846E+00 -2.066463249500E+00
   22     6 C    -5.033448806703E+00  1.208183549614E+00 -2.063891246215E+00
   23     6 C    -3.641568767585E+00 -1.209490799663E+00 -2.070505367239E+00
   24     6 C    -2.931024340774E+00 -2.944598989674E-04 -2.063768900679E+00
   25     6 C     2.872087159789E+00  4.975067509121E+00 -2.044417272766E+00
   26     6 C     3.563490219562E+00  3.755456666880E+00 -2.034496583235E+00
   27     6 C     7.741259422992E-01  3.759686879121E+00 -2.033639221473E+00
   28     6 C     1.470089287881E+00  4.964590641357E+00 -2.036211183758E+00
   29     6 C     2.867890050949E+00  2.550453125161E+00 -2.029597554740E+00
   30     6 C     1.465409504921E+00  2.539264989691E+00 -2.036333816297E+00
   31     6 C     2.872158102359E+00 -4.975221516661E+00 -2.055685362210E+00
   32     6 C     3.563911439437E+00 -3.755694973574E+00 -2.065606051740E+00
   33     6 C     7.744474046175E-01 -3.759835172685E+00 -2.066463454503E+00
   34     6 C     1.470085304247E+00 -4.964906298576E+00 -2.063891533219E+00
   35     6 C     2.868229878422E+00 -2.550746170549E+00 -2.070505080236E+00
   36     6 C     1.465826934902E+00 -2.539567634390E+00 -2.063768900679E+00
   37     8 O    -1.378703126192E+00  2.177437464448E-04  6.147479529892E+00
   38     8 O     6.906044256404E-01 -1.194409001237E+00 -6.131486172134E+00
   39     8 O     6.893578173663E-01  1.194510602218E+00  6.136701560601E+00
   40     8 O    -6.893155937140E-01  1.193857838669E+00 -2.052623320773E+00
   41     8 O    -6.890624074325E-01 -1.194422463641E+00 -2.031434705801E+00
   42     8 O     1.378701067873E+00 -1.535320965105E-04 -2.063401454067E+00

 *******************************************************************************
 STARTING BASIS SET HANDLING 
 *******************************************************************************

 Loading internal basis set: SOLDEF2MSVP         

 Please cite in your publication:
 L. Dona', J. G. Brandenburg and B. Civalleri, J. Chem. Phys., 151, 121101 (2019
 )                                                                              
                                                                                
                    

 *******************************************************************************
 LOCAL ATOMIC FUNCTIONS BASIS SET
 *******************************************************************************
   ATOM   X(AU)   Y(AU)   Z(AU)  N. TYPE  EXPONENT  S COEF   P COEF   D/F/G COEF
 *******************************************************************************
   1 B   -1.301  -2.259 -11.613
                                  1 S  
                                         2.410E+03 1.755E-03 0.000E+00 0.000E+00
                                         3.619E+02 1.344E-02 0.000E+00 0.000E+00
                                         8.231E+01 6.637E-02 0.000E+00 0.000E+00
                                         2.311E+01 2.303E-01 0.000E+00 0.000E+00
                                         7.252E+00 5.150E-01 0.000E+00 0.000E+00
                                  2 S  
                                         2.367E+00 1.000E+00 0.000E+00 0.000E+00
                                  3 S  
                                         5.533E-01 1.000E+00 0.000E+00 0.000E+00
                                  4 S  
                                         1.716E-01 1.000E+00 0.000E+00 0.000E+00
                           5-     7 P  
                                         6.002E+00 0.000E+00-3.555E-02 0.000E+00
                                         1.240E+00 0.000E+00-1.983E-01 0.000E+00
                                         3.367E-01 0.000E+00-5.048E-01 0.000E+00
                           8-    10 P  
                                         1.256E-01 0.000E+00 1.000E+00 0.000E+00
                          11-    15 D  
                                         8.880E-01 0.000E+00 0.000E+00 1.000E+00
   2 B    2.610  -0.001 -11.613
   3 B   -1.304   2.258  11.612
   4 B   -2.607  -0.001  -3.865
   5 B    1.305  -2.260  -3.865
   6 B    1.304   2.259  -3.884
   7 H   -2.384  10.147   3.844
                                 91 S  
                                         1.874E+01 1.968E-02 0.000E+00 0.000E+00
                                         2.826E+00 1.380E-01 0.000E+00 0.000E+00
                                         6.401E-01 4.783E-01 0.000E+00 0.000E+00
                                 92 S  
                                         1.756E-01 1.000E+00 0.000E+00 0.000E+00
   8 H   -5.819   4.051  -3.910
   9 H   -2.386 -10.148   3.837
  10 H   -5.817  -4.052  -3.911
  11 H   -7.597   7.139   3.904
  12 H   -0.599   7.068  -3.838
  13 H    9.979  -3.005   3.911
  14 H    6.418   3.015  -3.837
  15 H   -7.596  -7.140   3.844
  16 H   -0.598  -7.066  -3.910
  17 H    9.979   3.007   3.837
  18 H    6.417  -3.015  -3.911
  19 C  -10.853  -0.002  -3.885
                                115 S  
                                         3.624E+03 1.634E-03 0.000E+00 0.000E+00
                                         5.440E+02 1.252E-02 0.000E+00 0.000E+00
                                         1.237E+02 6.211E-02 0.000E+00 0.000E+00
                                         3.476E+01 2.182E-01 0.000E+00 0.000E+00
                                         1.093E+01 4.980E-01 0.000E+00 0.000E+00
                                116 S  
                                         3.574E+00 1.000E+00 0.000E+00 0.000E+00
                                117 S  
                                         7.742E-01 1.000E+00 0.000E+00 0.000E+00
                                118 S  
                                         2.330E-01 1.000E+00 0.000E+00 0.000E+00
                         119-   121 P  
                                         9.443E+00 0.000E+00 3.790E-02 0.000E+00
                                         2.002E+00 0.000E+00 2.082E-01 0.000E+00
                                         5.463E-01 0.000E+00 5.047E-01 0.000E+00
                         122-   124 P  
                                         1.820E-01 0.000E+00 1.000E+00 0.000E+00
                         125-   129 D  
                                         8.880E-01 0.000E+00 0.000E+00 1.000E+00
  20 C   -9.511  -2.286  -3.903
  21 C   -6.883   2.284  -3.905
  22 C   -9.512   2.283  -3.900
  23 C   -6.882  -2.286  -3.913
  24 C   -5.539  -0.001  -3.900
  25 C    5.427   9.402  -3.863
  26 C    6.734   7.097  -3.845
  27 C    1.463   7.105  -3.843
  28 C    2.778   9.382  -3.848
  29 C    5.420   4.820  -3.835
  30 C    2.769   4.799  -3.848
  31 C    5.428  -9.402  -3.885
  32 C    6.735  -7.097  -3.903
  33 C    1.463  -7.105  -3.905
  34 C    2.778  -9.382  -3.900
  35 C    5.420  -4.820  -3.913
  36 C    2.770  -4.799  -3.900
  37 O   -2.605   0.000  11.617
                                385 S  
                                         6.773E+03 1.727E-03 0.000E+00 0.000E+00
                                         1.017E+03 1.325E-02 0.000E+00 0.000E+00
                                         2.313E+02 6.603E-02 0.000E+00 0.000E+00
                                         6.501E+01 2.353E-01 0.000E+00 0.000E+00
                                         2.050E+01 5.498E-01 0.000E+00 0.000E+00
                                386 S  
                                         6.716E+00 1.000E+00 0.000E+00 0.000E+00
                                387 S  
                                         1.147E+00 1.000E+00 0.000E+00 0.000E+00
                                388 S  
                                         3.342E-01 1.000E+00 0.000E+00 0.000E+00
                         389-   391 P  
                                         1.769E+01 0.000E+00 4.359E-02 0.000E+00
                                         3.854E+00 0.000E+00 2.318E-01 0.000E+00
                                         1.047E+00 0.000E+00 5.146E-01 0.000E+00
                         392-   394 P  
                                         2.759E-01 0.000E+00 1.000E+00 0.000E+00
                         395-   399 D  
                                         8.000E-01 0.000E+00 0.000E+00 1.000E+00
  38 O    1.305  -2.257 -11.587
  39 O    1.303   2.257  11.597
  40 O   -1.303   2.256  -3.879
  41 O   -1.302  -2.257  -3.839
  42 O    2.605  -0.000  -3.899

 *******************************************************************************
 FINISHED BASIS SET HANDLING 
 *******************************************************************************

 INFORMATION **** SET_MPP **** PCRYSTAL CALCULATION
 INFORMATION **** READM2 **** NEW DEFAULT: FOCK/KS MATRIX MIXING SET TO 30 %
 INFORMATION **** READM2 **** NEW DEFAULT: FULL DIRECT SCF MODE
 INFORMATION **** READM2 **** NEW DEFAULT: COULOMB BIPOLAR BUFFER SET TO 32 Mb
 INFORMATION **** READM2 **** NEW DEFAULT: EXCHANGE BIPOLAR BUFFER SET TO 32 Mb

 *******************************************************************************
 NEW DEFAULT: DFT INTEGRATION GRID INCREASED TO XLGRID
 NEW DEFAULT: DIIS ACCELERATOR ACTIVE
 USE KEYWORD NODIIS TO TURN IT OFF
 *******************************************************************************

 WARNING **** RDDFTP **** HSEsol-HJS ACTIVE
 RANGE SEPARATION - OMEGA:   0.110000000000000     
 WARNING **** RDDFTP **** HSEsol-3c has to be combined with sol-def2-mSVP basis set
 *******************************************************************************
 N. OF ATOMS PER CELL        42  COULOMB OVERLAP TOL         (T1) 10**   -6
 NUMBER OF SHELLS           234  COULOMB PENETRATION TOL     (T2) 10**   -6
 NUMBER OF AO               474  EXCHANGE OVERLAP TOL        (T3) 10**   -6
 N. OF ELECTRONS PER CELL   198  EXCHANGE PSEUDO OVP (F(G))  (T4) 10**   -6
 CORE ELECTRONS PER CELL     60  EXCHANGE PSEUDO OVP (P(G))  (T5) 10**  -12
 N. OF SYMMETRY OPERATORS     1  POLE ORDER IN MONO ZONE                  4
 *******************************************************************************
 TYPE OF CALCULATION :  RESTRICTED CLOSED SHELL
 KOHN-SHAM HAMILTONIAN

 (EXCHANGE)[CORRELATION] FUNCTIONAL:(HSEsol GGA)[PBEsol]

 RANGE-SEPARATED HYBRID FUNCTIONAL 
 OMEGA (SHORT-RANGE)[LONG-RANGE]:(    0.1100)[    0.0000]

 HYBRID EXCHANGE - PERCENTAGE OF FOCK EXCHANGE    25.0000

 CAPPA:IS1  2;IS2  2;IS3  8; K PTS MONK NET  20; SYMMOPS:K SPACE   2;G SPACE   1

 *******************************************************************************
 MAX NUMBER OF SCF CYCLES      50  CONVERGENCE ON DELTAP        10**-16
 WEIGHT OF F(I) IN F(I+1)      30% CONVERGENCE ON ENERGY        10**- 6
 SHRINK. FACT.(MONKH.)    2  2  8  NUMBER OF K POINTS IN THE IBZ     20
 SHRINKING FACTOR(GILAT NET)    8  NUMBER OF K POINTS(GILAT NET)   1028
 *******************************************************************************
 *** K POINTS COORDINATES (OBLIQUE COORDINATES IN UNITS OF IS =  2)
   1-R(  0  0  0)   2-R(  1  0  0)   3-R(  0  1  0)   4-R(  1  1  0)
   5-C(  0  0  1)   6-C(  1  0  1)   7-C(  0  1  1)   8-C(  1  1  1)
   9-C(  0  0  2)  10-C(  1  0  2)  11-C(  0  1  2)  12-C(  1  1  2)
  13-C(  0  0  3)  14-C(  1  0  3)  15-C(  0  1  3)  16-C(  1  1  3)
  17-R(  0  0  4)  18-R(  1  0  4)  19-R(  0  1  4)  20-R(  1  1  4)

 DIRECT LATTICE VECTORS COMPON. (A.U.)     RECIP. LATTICE VECTORS COMPON. (A.U.) 
        X            Y            Z              X            Y            Z
   24.5879030  -14.1935232    0.0000000      0.2555397    0.0000000   -0.2702899
    0.0000000   28.3910867    0.0000000      0.1277517    0.2213084   -0.5406343
    8.1952010   14.1967988    7.7479744      0.0000000    0.0000000    0.8109455

 DISK SPACE FOR EIGENVECTORS (FTN 10)     7189632 REALS

 SYMMETRY ADAPTION OF THE BLOCH FUNCTIONS DISABLED
 TTTTTTTTTTTTTTTTTTTTTTTTTTTTTT gordsh1     TELAPSE        0.04 TCPU        0.04

 MATRIX SIZE: P(G)  283904, F(G)   57123, P(G) IRR  142831, F(G) IRR   57603
 MAX G-VECTOR INDEX FOR 1- AND 2-ELECTRON INTEGRALS  57

 TTTTTTTTTTTTTTTTTTTTTTTTTTTTTT INPUT       TELAPSE        0.40 TCPU        0.39

 NEIGHBORS OF THE NON-EQUIVALENT ATOMS

 N = NUMBER OF NEIGHBORS AT DISTANCE R
    ATOM  N     R/ANG      R/AU   NEIGHBORS (ATOM LABELS AND CELL INDICES)
   1 B    1     1.3791     2.6061   37 O    1 2-3
   1 B    1     1.3793     2.6065   38 O    0 0 0
   1 B    1     1.5503     2.9297   25 C    0 0-1
   1 B    1     2.3895     4.5155    3 B    1 2-3
   1 B    1     2.3898     4.5160    2 B    0 0 0
   1 B    1     2.5632     4.8437   26 C    0 0-1

   2 B    1     1.3793     2.6065   39 O    1 2-3
   2 B    1     1.3793     2.6065   38 O    0 0 0
   2 B    1     1.5504     2.9298   19 C    1 1-1
   2 B    1     2.3895     4.5156    3 B    1 2-3
   2 B    1     2.3898     4.5160    1 B    0 0 0
   2 B    1     2.5634     4.8440   22 C    1 1-1

   3 B    1     1.3791     2.6061   37 O    0 0 0
   3 B    1     1.3793     2.6064   39 O    0 0 0
   3 B    1     1.5502     2.9294   31 C   -1-1 2
   3 B    1     2.3895     4.5155    1 B   -1-2 3
   3 B    1     2.3895     4.5156    2 B   -1-2 3
   3 B    1     2.5629     4.8433   32 C   -1-1 2

   4 B    1     1.3795     2.6068   40 O    0 0 0
   4 B    1     1.3795     2.6070   41 O    0 0 0
   4 B    1     1.5513     2.9316   24 C    0 0 0
   4 B    1     2.3905     4.5174    6 B    0 0 0
   4 B    1     2.3905     4.5175    5 B    0 0 0
   4 B    1     2.5648     4.8468   23 C    0 0 0

   5 B    1     1.3795     2.6069   41 O    0 0 0
   5 B    1     1.3797     2.6072   42 O    0 0 0
   5 B    1     1.5516     2.9322   36 C    0 0 0
   5 B    1     2.3905     4.5175    4 B    0 0 0
   5 B    1     2.3911     4.5185    6 B    0 0 0
   5 B    1     2.5651     4.8473   35 C    0 0 0

   6 B    1     1.3795     2.6068   40 O    0 0 0
   6 B    1     1.3796     2.6071   42 O    0 0 0
   6 B    1     1.5516     2.9322   30 C    0 0 0
   6 B    1     2.3905     4.5174    4 B    0 0 0
   6 B    1     2.3911     4.5185    5 B    0 0 0
   6 B    1     2.5651     4.8473   29 C    0 0 0

   7 H    1     1.0913     2.0623   20 C    0 0 1
   7 H    1     2.1472     4.0576   19 C    0 0 1
   7 H    1     2.1680     4.0969   23 C    0 0 1
   7 H    1     2.5202     4.7625   10 H    0 0 1
   7 H    1     2.5676     4.8520   38 O   -1-1 2
   7 H    1     2.7321     5.1630    2 B   -1-1 2

   8 H    1     1.0914     2.0625   21 C    0 0 0
   8 H    1     2.1493     4.0616   24 C    0 0 0
   8 H    1     2.1666     4.0942   22 C    0 0 0
   8 H    1     2.5198     4.7618    9 H    0 1-1
   8 H    1     2.5720     4.8604   40 O    0 0 0
   8 H    1     2.7362     5.1707    4 B    0 0 0

   9 H    1     1.0914     2.0624   22 C    0-1 1
   9 H    1     2.1471     4.0575   19 C    0-1 1
   9 H    1     2.1680     4.0970   21 C    0-1 1
   9 H    1     2.5198     4.7618    8 H    0-1 1
   9 H    1     2.5665     4.8500   39 O    0 0-1
   9 H    1     2.7315     5.1618    2 B   -1-2 2

  10 H    1     1.0915     2.0626   23 C    0 0 0
  10 H    1     2.1490     4.0610   24 C    0 0 0
  10 H    1     2.1669     4.0948   20 C    0 0 0
  10 H    1     2.5202     4.7625    7 H    0 0-1
  10 H    1     2.5712     4.8588   41 O    0 0 0
  10 H    1     2.7351     5.1686    4 B    0 0 0

  11 H    1     1.0913     2.0623   26 C   -1-1 1
  11 H    1     2.1469     4.0571   25 C   -1-1 1
  11 H    1     2.1680     4.0968   29 C   -1-1 1
  11 H    1     2.5198     4.7617   14 H   -1-1 1
  11 H    1     2.5670     4.8510   38 O   -1-1 2
  11 H    1     2.7310     5.1609    1 B   -1-1 2

  12 H    1     1.0914     2.0625   27 C    0 0 0
  12 H    1     2.1493     4.0617   30 C    0 0 0
  12 H    1     2.1664     4.0939   28 C    0 0 0
  12 H    1     2.5192     4.7606   13 H    0 1-1
  12 H    1     2.5735     4.8632   40 O    0 0 0
  12 H    1     2.7371     5.1723    6 B    0 0 0

  13 H    1     1.0914     2.0624   28 C    0-1 1
  13 H    1     2.1475     4.0581   25 C    0-1 1
  13 H    1     2.1679     4.0967   27 C    0-1 1
  13 H    1     2.5192     4.7606   12 H    0-1 1
  13 H    1     2.5675     4.8519   37 O    1 1-1
  13 H    1     2.7328     5.1643    1 B    0-1 2

  14 H    1     1.0914     2.0625   29 C    0 0 0
  14 H    1     2.1491     4.0612   30 C    0 0 0
  14 H    1     2.1666     4.0942   26 C    0 0 0
  14 H    1     2.5198     4.7617   11 H    1 1-1
  14 H    1     2.5723     4.8609   42 O    0 0 0
  14 H    1     2.7355     5.1693    6 B    0 0 0

  15 H    1     1.0914     2.0624   32 C   -1-1 1
  15 H    1     2.1475     4.0582   31 C   -1-1 1
  15 H    1     2.1678     4.0966   35 C   -1-1 1
  15 H    1     2.5200     4.7621   18 H   -1-1 1
  15 H    1     2.5667     4.8503   39 O    0 0-1
  15 H    1     2.7315     5.1618    3 B    0 0-1

  16 H    1     1.0913     2.0623   33 C    0 0 0
  16 H    1     2.1487     4.0605   36 C    0 0 0
  16 H    1     2.1667     4.0945   34 C    0 0 0
  16 H    1     2.5197     4.7616   17 H    0 0-1
  16 H    1     2.5723     4.8610   41 O    0 0 0
  16 H    1     2.7359     5.1701    5 B    0 0 0

  17 H    1     1.0915     2.0626   34 C    0 0 1
  17 H    1     2.1479     4.0589   31 C    0 0 1
  17 H    1     2.1679     4.0968   33 C    0 0 1
  17 H    1     2.5197     4.7616   16 H    0 0 1
  17 H    1     2.5677     4.8522   37 O    1 1-1
  17 H    1     2.7331     5.1648    3 B    1 1-1

  18 H    1     1.0914     2.0624   35 C    0 0 0
  18 H    1     2.1486     4.0602   36 C    0 0 0
  18 H    1     2.1668     4.0947   32 C    0 0 0
  18 H    1     2.5200     4.7621   15 H    1 1-1
  18 H    1     2.5717     4.8598   42 O    0 0 0
  18 H    1     2.7349     5.1682    5 B    0 0 0

  19 C    1     1.4020     2.6495   22 C    0 0 0
  19 C    1     1.4021     2.6495   20 C    0 0 0
  19 C    1     1.5504     2.9298    2 B   -1-1 1
  19 C    1     2.1471     4.0575    9 H    0 1-1
  19 C    1     2.1472     4.0576    7 H    0 0-1
  19 C    1     2.4246     4.5817   21 C    0 0 0

  20 C    1     1.0913     2.0623    7 H    0 0-1
  20 C    1     1.3914     2.6294   23 C    0 0 0
  20 C    1     1.4021     2.6495   19 C    0 0 0
  20 C    1     2.1669     4.0948   10 H    0 0 0
  20 C    1     2.4177     4.5688   22 C    0 0 0
  20 C    1     2.4250     4.5825   24 C    0 0 0

  21 C    1     1.0914     2.0625    8 H    0 0 0
  21 C    1     1.3914     2.6293   22 C    0 0 0
  21 C    1     1.4026     2.6505   24 C    0 0 0
  21 C    1     2.1680     4.0970    9 H    0 1-1
  21 C    1     2.4182     4.5697   23 C    0 0 0
  21 C    1     2.4246     4.5817   19 C    0 0 0

  22 C    1     1.0914     2.0624    9 H    0 1-1
  22 C    1     1.3914     2.6293   21 C    0 0 0
  22 C    1     1.4020     2.6495   19 C    0 0 0
  22 C    1     2.1666     4.0942    8 H    0 0 0
  22 C    1     2.4177     4.5688   20 C    0 0 0
  22 C    1     2.4250     4.5826   24 C    0 0 0

  23 C    1     1.0915     2.0626   10 H    0 0 0
  23 C    1     1.3914     2.6294   20 C    0 0 0
  23 C    1     1.4025     2.6504   24 C    0 0 0
  23 C    1     2.1680     4.0969    7 H    0 0-1
  23 C    1     2.4182     4.5697   21 C    0 0 0
  23 C    1     2.4246     4.5818   19 C    0 0 0

  24 C    1     1.4025     2.6504   23 C    0 0 0
  24 C    1     1.4026     2.6505   21 C    0 0 0
  24 C    1     1.5513     2.9316    4 B    0 0 0
  24 C    1     2.1490     4.0610   10 H    0 0 0
  24 C    1     2.1493     4.0616    8 H    0 0 0
  24 C    1     2.4250     4.5825   20 C    0 0 0

  25 C    1     1.4020     2.6494   26 C    0 0 0
  25 C    1     1.4021     2.6495   28 C    0 0 0
  25 C    1     1.5503     2.9297    1 B    0 0 1
  25 C    1     2.1469     4.0571   11 H    1 1-1
  25 C    1     2.1475     4.0581   13 H    0 1-1
  25 C    1     2.4246     4.5818   27 C    0 0 0

  26 C    1     1.0913     2.0623   11 H    1 1-1
  26 C    1     1.3914     2.6293   29 C    0 0 0
  26 C    1     1.4020     2.6494   25 C    0 0 0
  26 C    1     2.1666     4.0942   14 H    0 0 0
  26 C    1     2.4175     4.5684   28 C    0 0 0
  26 C    1     2.4251     4.5828   30 C    0 0 0

  27 C    1     1.0914     2.0625   12 H    0 0 0
  27 C    1     1.3915     2.6295   28 C    0 0 0
  27 C    1     1.4026     2.6505   30 C    0 0 0
  27 C    1     2.1679     4.0967   13 H    0 1-1
  27 C    1     2.4179     4.5691   29 C    0 0 0
  27 C    1     2.4246     4.5818   25 C    0 0 0

  28 C    1     1.0914     2.0624   13 H    0 1-1
  28 C    1     1.3915     2.6295   27 C    0 0 0
  28 C    1     1.4021     2.6495   25 C    0 0 0
  28 C    1     2.1664     4.0939   12 H    0 0 0
  28 C    1     2.4175     4.5684   26 C    0 0 0
  28 C    1     2.4253     4.5832   30 C    0 0 0

  29 C    1     1.0914     2.0625   14 H    0 0 0
  29 C    1     1.3914     2.6293   26 C    0 0 0
  29 C    1     1.4025     2.6504   30 C    0 0 0
  29 C    1     2.1680     4.0968   11 H    1 1-1
  29 C    1     2.4179     4.5691   27 C    0 0 0
  29 C    1     2.4247     4.5819   25 C    0 0 0

  30 C    1     1.4025     2.6504   29 C    0 0 0
  30 C    1     1.4026     2.6505   27 C    0 0 0
  30 C    1     1.5516     2.9322    6 B    0 0 0
  30 C    1     2.1491     4.0612   14 H    0 0 0
  30 C    1     2.1493     4.0617   12 H    0 0 0
  30 C    1     2.4251     4.5828   26 C    0 0 0

  31 C    1     1.4021     2.6496   32 C    0 0 0
  31 C    1     1.4021     2.6497   34 C    0 0 0
  31 C    1     1.5502     2.9294    3 B    1 1-2
  31 C    1     2.1475     4.0582   15 H    1 1-1
  31 C    1     2.1479     4.0589   17 H    0 0-1
  31 C    1     2.4244     4.5814   33 C    0 0 0

  32 C    1     1.0914     2.0624   15 H    1 1-1
  32 C    1     1.3914     2.6293   35 C    0 0 0
  32 C    1     1.4021     2.6496   31 C    0 0 0
  32 C    1     2.1668     4.0947   18 H    0 0 0
  32 C    1     2.4179     4.5692   34 C    0 0 0
  32 C    1     2.4251     4.5827   36 C    0 0 0

  33 C    1     1.0913     2.0623   16 H    0 0 0
  33 C    1     1.3914     2.6294   34 C    0 0 0
  33 C    1     1.4025     2.6504   36 C    0 0 0
  33 C    1     2.1679     4.0968   17 H    0 0-1
  33 C    1     2.4178     4.5690   35 C    0 0 0
  33 C    1     2.4244     4.5814   31 C    0 0 0

  34 C    1     1.0915     2.0626   17 H    0 0-1
  34 C    1     1.3914     2.6294   33 C    0 0 0
  34 C    1     1.4021     2.6497   31 C    0 0 0
  34 C    1     2.1667     4.0945   16 H    0 0 0
  34 C    1     2.4179     4.5692   32 C    0 0 0
  34 C    1     2.4253     4.5832   36 C    0 0 0

  35 C    1     1.0914     2.0624   18 H    0 0 0
  35 C    1     1.3914     2.6293   32 C    0 0 0
  35 C    1     1.4025     2.6503   36 C    0 0 0
  35 C    1     2.1678     4.0966   15 H    1 1-1
  35 C    1     2.4178     4.5690   33 C    0 0 0
  35 C    1     2.4245     4.5817   31 C    0 0 0

  36 C    1     1.4025     2.6503   35 C    0 0 0
  36 C    1     1.4025     2.6504   33 C    0 0 0
  36 C    1     1.5516     2.9322    5 B    0 0 0
  36 C    1     2.1486     4.0602   18 H    0 0 0
  36 C    1     2.1487     4.0605   16 H    0 0 0
  36 C    1     2.4251     4.5827   32 C    0 0 0

  37 O    1     1.3791     2.6061    1 B   -1-2 3
  37 O    1     1.3791     2.6061    3 B    0 0 0
  37 O    1     2.3880     4.5126   38 O   -1-2 3
  37 O    1     2.3882     4.5130   39 O    0 0 0
  37 O    1     2.5383     4.7966   31 C   -1-1 2
  37 O    1     2.5384     4.7968   25 C   -1-2 2

  38 O    1     1.3793     2.6065    1 B    0 0 0
  38 O    1     1.3793     2.6065    2 B    0 0 0
  38 O    1     2.3880     4.5126   37 O    1 2-3
  38 O    1     2.3882     4.5131   39 O    1 2-3
  38 O    1     2.5391     4.7981   19 C    1 1-1
  38 O    1     2.5395     4.7990   25 C    0 0-1

  39 O    1     1.3793     2.6064    3 B    0 0 0
  39 O    1     1.3793     2.6065    2 B   -1-2 3
  39 O    1     2.3882     4.5130   37 O    0 0 0
  39 O    1     2.3882     4.5131   38 O   -1-2 3
  39 O    1     2.5390     4.7980   19 C    0-1 2
  39 O    1     2.5391     4.7982   31 C   -1-1 2

  40 O    1     1.3795     2.6068    6 B    0 0 0
  40 O    1     1.3795     2.6068    4 B    0 0 0
  40 O    1     2.3880     4.5126   42 O    0 0 0
  40 O    1     2.3884     4.5134   41 O    0 0 0
  40 O    1     2.5400     4.7998   24 C    0 0 0
  40 O    1     2.5403     4.8005   30 C    0 0 0

  41 O    1     1.3795     2.6069    5 B    0 0 0
  41 O    1     1.3795     2.6070    4 B    0 0 0
  41 O    1     2.3881     4.5128   42 O    0 0 0
  41 O    1     2.3884     4.5134   40 O    0 0 0
  41 O    1     2.5404     4.8006   24 C    0 0 0
  41 O    1     2.5405     4.8008   36 C    0 0 0

  42 O    1     1.3796     2.6071    6 B    0 0 0
  42 O    1     1.3797     2.6072    5 B    0 0 0
  42 O    1     2.3880     4.5126   40 O    0 0 0
  42 O    1     2.3881     4.5128   41 O    0 0 0
  42 O    1     2.5409     4.8016   36 C    0 0 0
  42 O    1     2.5410     4.8019   30 C    0 0 0


 SYMMETRY ALLOWED INTERNAL DEGREE(S) OF FREEDOM: 123
 TTTTTTTTTTTTTTTTTTTTTTTTTTTTTT SYMM        TELAPSE        0.40 TCPU        0.39
 TTTTTTTTTTTTTTTTTTTTTTTTTTTTTT INT_SCREEN  TELAPSE        0.43 TCPU        0.43

 DFT PARAMETERS

     ATOM       ELECTRONS   NET CHARGE   R(ANGSTROM)
   1   5  B       5.0000      0.0000     0.89000000
   7   1  H       1.0000      0.0000     1.11000000
  19   6  C       6.0000      0.0000     0.77000000
  37   8  O       8.0000      0.0000     0.74000000

 SIZE OF GRID=    1331394
 TTTTTTTTTTTTTTTTTTTTTTTTTTTTTT MAKE_GRID2  TELAPSE        7.77 TCPU        7.76
 BECKE WEIGHT FUNCTION
 RADSAFE =     2.00
 TOLERANCES - DENSITY:10**- 6; POTENTIAL:10**- 9; GRID WGT:10**-14

 RADIAL INTEGRATION  - INTERVALS (POINTS,UPPER LIMIT):            1( 75,  4.0*R)

 ANGULAR INTEGRATION - INTERVALS (ACCURACY LEVEL [N. POINTS] UPPER LIMIT):
  1(  4[  86]   0.2)  2(  8[ 194]   0.5)  3( 12[ 350]   0.9)  4( 16[ 974]   3.5)
  5( 12[ 350]9999.0)
 TTTTTTTTTTTTTTTTTTTTTTTTTTTTTT INT_CALC    TELAPSE        7.84 TCPU        7.83
 EEEEEEEEEE INT_CALC TERMINATION  DATE 19 02 2026 TIME 19:12:03.6

 *******************************************************************************
 cof-1_z41_L087_incl                                                             
 CRYSTAL - SCF - TYPE OF CALCULATION :  RESTRICTED CLOSED SHELL
 *******************************************************************************

 CAPPA:IS1  2;IS2  2;IS3  8; K PTS MONK NET  20; SYMMOPS:K SPACE   2;G SPACE   1

 TTTTTTTTTTTTTTTTTTTTTTTTTTTTTT SDIK        TELAPSE        8.43 TCPU       15.90

 AAAAAAAAAAAAAAAAAAAAAAAAAAAAAAAAAAAAAAAAAAAAAAAAAAAAAAAAAAAAAAAAAAAAAAAAAAAAAAA
         ATOMIC WAVEFUNCTION(S)


 NUCLEAR CHARGE  5.0  SYMMETRY SPECIES            S    P
 N. ELECTRONS    5.0  NUMBER OF PRIMITIVE GTOS    8    4
                      NUMBER OF CONTRACTED GTOS   4    2
                      NUMBER OF CLOSED SHELLS     2    0
                      OPEN SHELL OCCUPATION       0    1

  ZNUC  SCFIT    TOTAL HF ENERGY   KINETIC ENERGY   VIRIAL THEOREM ACCURACY
   5.0    11    -2.451164084E+01  2.462155050E+01 -1.995536038E+00  1.5E-06

 NUCLEAR CHARGE  1.0  SYMMETRY SPECIES            S
 N. ELECTRONS    1.0  NUMBER OF PRIMITIVE GTOS    4
                      NUMBER OF CONTRACTED GTOS   2
                      NUMBER OF CLOSED SHELLS     0
                      OPEN SHELL OCCUPATION       1

  ZNUC  SCFIT    TOTAL HF ENERGY   KINETIC ENERGY   VIRIAL THEOREM ACCURACY
   1.0     1    -4.977266687E-01  5.190767460E-01 -1.958869132E+00  0.0E+00

 NUCLEAR CHARGE  6.0  SYMMETRY SPECIES            S    P
 N. ELECTRONS    6.0  NUMBER OF PRIMITIVE GTOS    8    4
                      NUMBER OF CONTRACTED GTOS   4    2
                      NUMBER OF CLOSED SHELLS     2    0
                      OPEN SHELL OCCUPATION       0    2

  ZNUC  SCFIT    TOTAL HF ENERGY   KINETIC ENERGY   VIRIAL THEOREM ACCURACY
   6.0     9    -3.766704647E+01  3.775180683E+01 -1.997754800E+00  1.1E-06

 NUCLEAR CHARGE  8.0  SYMMETRY SPECIES            S    P
 N. ELECTRONS    8.0  NUMBER OF PRIMITIVE GTOS    8    4
                      NUMBER OF CONTRACTED GTOS   4    2
                      NUMBER OF CLOSED SHELLS     2    0
                      OPEN SHELL OCCUPATION       0    4

  ZNUC  SCFIT    TOTAL HF ENERGY   KINETIC ENERGY   VIRIAL THEOREM ACCURACY
   8.0    12    -7.477373220E+01  7.477365593E+01 -2.000001020E+00  3.8E-06

 AAAAAAAAAAAAAAAAAAAAAAAAAAAAAAAAAAAAAAAAAAAAAAAAAAAAAAAAAAAAAAAAAAAAAAAAAAAAAAA

 CHARGE NORMALIZATION FACTOR   1.00000000
 TOTAL ATOMIC CHARGES:
   5.0000000   5.0000000   5.0000000   5.0000000   5.0000000   5.0000000
   1.0000000   1.0000000   1.0000000   1.0000000   1.0000000   1.0000000
   1.0000000   1.0000000   1.0000000   1.0000000   1.0000000   1.0000000
   6.0000000   6.0000000   6.0000000   6.0000000   6.0000000   6.0000000
   6.0000000   6.0000000   6.0000000   6.0000000   6.0000000   6.0000000
   6.0000000   6.0000000   6.0000000   6.0000000   6.0000000   6.0000000
   8.0000000   8.0000000   8.0000000   8.0000000   8.0000000   8.0000000
 TTTTTTTTTTTTTTTTTTTTTTTTTTTTTT MOQGAD      TELAPSE        8.47 TCPU       17.21
 TTTTTTTTTTTTTTTTTTTTTTTTTTTTTT SHELLXN     TELAPSE       13.63 TCPU      181.94
 TTTTTTTTTTTTTTTTTTTTTTTTTTTTTT MONMO3      TELAPSE       13.76 TCPU      185.98
 NUMERICALLY INTEGRATED DENSITY    198.0000212557
 TTTTTTTTTTTTTTTTTTTTTTTTTTTTTT NUMDFT      TELAPSE       14.32 TCPU      204.05
 CYC   0 ETOT(AU) -1.295954804870E+03 DETOT -1.30E+03 tst  0.00E+00 PX  1.00E+00
 TTTTTTTTTTTTTTTTTTTTTTTTTTTTTT DIIS        TELAPSE       14.36 TCPU      205.23
 TTTTTTTTTTTTTTTTTTTTTTTTTTTTTT FDIK        TELAPSE       14.83 TCPU      220.37
 INSULATING STATE
 TOP OF VALENCE BANDS -    BAND     99; K    1; EIG -3.1292477E-01 AU
 BOTTOM OF VIRTUAL BANDS - BAND    100; K    1; EIG -1.5656073E-01 AU
 DIRECT ENERGY BAND GAP:   4.2549 eV
 TTTTTTTTTTTTTTTTTTTTTTTTTTTTTT PDIG        TELAPSE       15.16 TCPU      226.55
 CHARGE NORMALIZATION FACTOR   1.00000000
 TOTAL ATOMIC CHARGES:
   4.1621366   4.1619342   4.1623041   4.1618027   4.1614533   4.1616283
   0.7852342   0.7853550   0.7851843   0.7853231   0.7852215   0.7853709
   0.7852133   0.7853358   0.7851887   0.7853910   0.7851846   0.7853494
   6.0437378   6.2654240   6.2653856   6.2653542   6.2653284   6.0431394
   6.0438004   6.2654245   6.2654835   6.2653282   6.2654824   6.0425347
   6.0441512   6.2651125   6.2657106   6.2650369   6.2656673   6.0427131
   8.6931202   8.6933183   8.6931933   8.6935638   8.6935497   8.6938287
 TTTTTTTTTTTTTTTTTTTTTTTTTTTTTT MOQGAD      TELAPSE       15.20 TCPU      226.59
 TTTTTTTTTTTTTTTTTTTTTTTTTTTTTT SHELLXN     TELAPSE       20.57 TCPU      397.80
 TTTTTTTTTTTTTTTTTTTTTTTTTTTTTT MONMO3      TELAPSE       20.70 TCPU      401.83
 NUMERICALLY INTEGRATED DENSITY    198.0000341985
 TTTTTTTTTTTTTTTTTTTTTTTTTTTTTT NUMDFT      TELAPSE       21.28 TCPU      420.21
 CYC   1 ETOT(AU) -1.288811651594E+03 DETOT  7.14E+00 tst  0.00E+00 PX  1.00E+00
 TTTTTTTTTTTTTTTTTTTTTTTTTTTTTT DIIS        TELAPSE       21.32 TCPU      421.69
 DIIS TEST: 0.11165E+01 AT SCF   CYCLE   1 - MIX   30 %
 TTTTTTTTTTTTTTTTTTTTTTTTTTTTTT FDIK        TELAPSE       21.80 TCPU      436.98
 INSULATING STATE
 TOP OF VALENCE BANDS -    BAND     99; K    1; EIG -2.2490854E-01 AU
 BOTTOM OF VIRTUAL BANDS - BAND    100; K    1; EIG -8.0777139E-02 AU
 DIRECT ENERGY BAND GAP:   3.9220 eV
 TTTTTTTTTTTTTTTTTTTTTTTTTTTTTT PDIG        TELAPSE       22.13 TCPU      443.16
 CHARGE NORMALIZATION FACTOR   1.00000000
 TOTAL ATOMIC CHARGES:
   4.7128230   4.7123423   4.7127967   4.7128737   4.7123223   4.7130323
   0.9073459   0.9074444   0.9074921   0.9072010   0.9071540   0.9074808
   0.9071382   0.9073738   0.9074123   0.9072844   0.9073759   0.9074659
   5.8725880   6.1321297   6.1324583   6.1319617   6.1324162   5.8756126
   5.8728770   6.1314829   6.1326952   6.1319101   6.1326296   5.8760016
   5.8727835   6.1321782   6.1322283   6.1323581   6.1320188   5.8755264
   8.3337226   8.3341627   8.3342039   8.3337461   8.3336313   8.3343182
 TTTTTTTTTTTTTTTTTTTTTTTTTTTTTT MOQGAD      TELAPSE       22.17 TCPU      443.20
 TTTTTTTTTTTTTTTTTTTTTTTTTTTTTT SHELLXN     TELAPSE       27.54 TCPU      614.37
 TTTTTTTTTTTTTTTTTTTTTTTTTTTTTT MONMO3      TELAPSE       27.67 TCPU      618.40
 NUMERICALLY INTEGRATED DENSITY    198.0000370220
 TTTTTTTTTTTTTTTTTTTTTTTTTTTTTT NUMDFT      TELAPSE       28.24 TCPU      636.78
 CYC   2 ETOT(AU) -1.289006589165E+03 DETOT -1.95E-01 tst  3.81E-03 PX  1.58E-01
 TTTTTTTTTTTTTTTTTTTTTTTTTTTTTT DIIS        TELAPSE       28.29 TCPU      638.33
 DIIS TEST: 0.46339E+00 AT SCF   CYCLE   2 - DIIS ACTIVE - HISTORY:     2 CYCLES
 TTTTTTTTTTTTTTTTTTTTTTTTTTTTTT FDIK        TELAPSE       28.77 TCPU      653.52
 INSULATING STATE
 TOP OF VALENCE BANDS -    BAND     99; K    1; EIG -2.3808565E-01 AU
 BOTTOM OF VIRTUAL BANDS - BAND    100; K    1; EIG -7.5264699E-02 AU
 DIRECT ENERGY BAND GAP:   4.4306 eV
 TTTTTTTTTTTTTTTTTTTTTTTTTTTTTT PDIG        TELAPSE       29.09 TCPU      659.70
 CHARGE NORMALIZATION FACTOR   1.00000000
 TOTAL ATOMIC CHARGES:
   4.5041010   4.5036400   4.5041022   4.5040344   4.5034737   4.5040279
   0.8860678   0.8862880   0.8861391   0.8861035   0.8858755   0.8863834
   0.8859152   0.8862378   0.8860927   0.8861387   0.8861392   0.8862322
   5.8896048   6.1620566   6.1613482   6.1616464   6.1615551   5.8892576
   5.8900683   6.1618729   6.1614862   6.1618372   6.1615885   5.8886509
   5.8896531   6.1616024   6.1617649   6.1617980   6.1614558   5.8891780
   8.5108292   8.5111852   8.5110036   8.5109989   8.5111921   8.5113739
 TTTTTTTTTTTTTTTTTTTTTTTTTTTTTT MOQGAD      TELAPSE       29.13 TCPU      659.74
 TTTTTTTTTTTTTTTTTTTTTTTTTTTTTT SHELLXN     TELAPSE       34.51 TCPU      830.97
 TTTTTTTTTTTTTTTTTTTTTTTTTTTTTT MONMO3      TELAPSE       34.63 TCPU      834.99
 NUMERICALLY INTEGRATED DENSITY    198.0000381619
 TTTTTTTTTTTTTTTTTTTTTTTTTTTTTT NUMDFT      TELAPSE       35.21 TCPU      853.37
 CYC   3 ETOT(AU) -1.289102062015E+03 DETOT -9.55E-02 tst  6.62E-04 PX  6.24E-02
 TTTTTTTTTTTTTTTTTTTTTTTTTTTTTT DIIS        TELAPSE       35.26 TCPU      855.19
 DIIS TEST: 0.13235E-01 AT SCF   CYCLE   3 - DIIS ACTIVE - HISTORY:     3 CYCLES
 TTTTTTTTTTTTTTTTTTTTTTTTTTTTTT FDIK        TELAPSE       35.74 TCPU      870.43
 INSULATING STATE
 TOP OF VALENCE BANDS -    BAND     99; K    1; EIG -2.4720733E-01 AU
 BOTTOM OF VIRTUAL BANDS - BAND    100; K    1; EIG -8.3643809E-02 AU
 DIRECT ENERGY BAND GAP:   4.4508 eV
 TTTTTTTTTTTTTTTTTTTTTTTTTTTTTT PDIG        TELAPSE       36.07 TCPU      876.62
 CHARGE NORMALIZATION FACTOR   1.00000000
 TOTAL ATOMIC CHARGES:
   4.5095240   4.5090429   4.5095184   4.5093060   4.5086606   4.5093326
   0.8694552   0.8695134   0.8694764   0.8693595   0.8693108   0.8695383
   0.8693093   0.8694291   0.8694216   0.8694324   0.8694794   0.8695060
   5.9411679   6.1654836   6.1659557   6.1655604   6.1657710   5.9432233
   5.9412334   6.1650334   6.1662283   6.1652780   6.1661594   5.9433091
   5.9415072   6.1656031   6.1657824   6.1655141   6.1657976   5.9429170
   8.4780605   8.4784071   8.4784201   8.4782293   8.4780473   8.4786947
 TTTTTTTTTTTTTTTTTTTTTTTTTTTTTT MOQGAD      TELAPSE       36.11 TCPU      876.66
 TTTTTTTTTTTTTTTTTTTTTTTTTTTTTT SHELLXN     TELAPSE       41.48 TCPU     1047.84
 TTTTTTTTTTTTTTTTTTTTTTTTTTTTTT MONMO3      TELAPSE       41.61 TCPU     1051.88
 NUMERICALLY INTEGRATED DENSITY    198.0000374413
 TTTTTTTTTTTTTTTTTTTTTTTTTTTTTT NUMDFT      TELAPSE       42.19 TCPU     1070.24
 CYC   4 ETOT(AU) -1.289104837707E+03 DETOT -2.78E-03 tst  2.70E-05 PX  1.30E-02
 TTTTTTTTTTTTTTTTTTTTTTTTTTTTTT DIIS        TELAPSE       42.25 TCPU     1072.17
 DIIS TEST: 0.38715E-02 AT SCF   CYCLE   4 - DIIS ACTIVE - HISTORY:     4 CYCLES
 TTTTTTTTTTTTTTTTTTTTTTTTTTTTTT FDIK        TELAPSE       42.72 TCPU     1087.34
 INSULATING STATE
 TOP OF VALENCE BANDS -    BAND     99; K    1; EIG -2.4558909E-01 AU
 BOTTOM OF VIRTUAL BANDS - BAND    100; K    1; EIG -8.3446192E-02 AU
 DIRECT ENERGY BAND GAP:   4.4121 eV
 TTTTTTTTTTTTTTTTTTTTTTTTTTTTTT PDIG        TELAPSE       43.04 TCPU     1093.52
 CHARGE NORMALIZATION FACTOR   1.00000000
 TOTAL ATOMIC CHARGES:
   4.5120857   4.5116030   4.5120787   4.5120322   4.5114265   4.5120841
   0.8721865   0.8723991   0.8722726   0.8721971   0.8720104   0.8724604
   0.8720318   0.8723262   0.8722235   0.8722480   0.8722401   0.8723661
   5.9217760   6.1670084   6.1664806   6.1666800   6.1666629   5.9221609
   5.9222494   6.1666853   6.1666884   6.1667433   6.1667746   5.9217250
   5.9218524   6.1666679   6.1667879   6.1668378   6.1664992   5.9220919
   8.4879656   8.4883447   8.4882018   8.4880922   8.4882197   8.4885321
 TTTTTTTTTTTTTTTTTTTTTTTTTTTTTT MOQGAD      TELAPSE       43.09 TCPU     1093.56
 TTTTTTTTTTTTTTTTTTTTTTTTTTTTTT SHELLXN     TELAPSE       48.47 TCPU     1264.84
 TTTTTTTTTTTTTTTTTTTTTTTTTTTTTT MONMO3      TELAPSE       48.59 TCPU     1268.87
 NUMERICALLY INTEGRATED DENSITY    198.0000375677
 TTTTTTTTTTTTTTTTTTTTTTTTTTTTTT NUMDFT      TELAPSE       49.17 TCPU     1287.23
 CYC   5 ETOT(AU) -1.289105727195E+03 DETOT -8.89E-04 tst  6.34E-06 PX  6.46E-03
 TTTTTTTTTTTTTTTTTTTTTTTTTTTTTT DIIS        TELAPSE       49.24 TCPU     1289.40
 DIIS TEST: 0.68008E-04 AT SCF   CYCLE   5 - DIIS ACTIVE - HISTORY:     5 CYCLES
 TTTTTTTTTTTTTTTTTTTTTTTTTTTTTT FDIK        TELAPSE       49.71 TCPU     1304.67
 INSULATING STATE
 TOP OF VALENCE BANDS -    BAND     99; K    1; EIG -2.4547716E-01 AU
 BOTTOM OF VIRTUAL BANDS - BAND    100; K    1; EIG -8.2891767E-02 AU
 DIRECT ENERGY BAND GAP:   4.4242 eV
 TTTTTTTTTTTTTTTTTTTTTTTTTTTTTT PDIG        TELAPSE       50.04 TCPU     1310.85
 CHARGE NORMALIZATION FACTOR   1.00000000
 TOTAL ATOMIC CHARGES:
   4.5117987   4.5113074   4.5117842   4.5116023   4.5109920   4.5116115
   0.8731393   0.8732156   0.8731728   0.8730638   0.8729781   0.8732689
   0.8729792   0.8731552   0.8731136   0.8731250   0.8731722   0.8732040
   5.9213957   6.1661344   6.1664206   6.1661327   6.1662618   5.9229007
   5.9214690   6.1657340   6.1666787   6.1659322   6.1666240   5.9228753
   5.9216969   6.1661677   6.1663306   6.1661092   6.1663007   5.9226035
   8.4873329   8.4876581   8.4876717   8.4875305   8.4874125   8.4879429
 TTTTTTTTTTTTTTTTTTTTTTTTTTTTTT MOQGAD      TELAPSE       50.08 TCPU     1310.89
 TTTTTTTTTTTTTTTTTTTTTTTTTTTTTT SHELLXN     TELAPSE       55.46 TCPU     1481.98
 TTTTTTTTTTTTTTTTTTTTTTTTTTTTTT MONMO3      TELAPSE       55.58 TCPU     1486.01
 NUMERICALLY INTEGRATED DENSITY    198.0000375843
 TTTTTTTTTTTTTTTTTTTTTTTTTTTTTT NUMDFT      TELAPSE       56.16 TCPU     1504.43
 CYC   6 ETOT(AU) -1.289105747956E+03 DETOT -2.08E-05 tst  2.04E-07 PX  7.05E-04
 TTTTTTTTTTTTTTTTTTTTTTTTTTTTTT DIIS        TELAPSE       56.23 TCPU     1506.63
 DIIS TEST: 0.41625E-05 AT SCF   CYCLE   6 - DIIS ACTIVE - HISTORY:     6 CYCLES
 TTTTTTTTTTTTTTTTTTTTTTTTTTTTTT FDIK        TELAPSE       56.71 TCPU     1521.87
 INSULATING STATE
 TOP OF VALENCE BANDS -    BAND     99; K    1; EIG -2.4543233E-01 AU
 BOTTOM OF VIRTUAL BANDS - BAND    100; K    1; EIG -8.2972583E-02 AU
 DIRECT ENERGY BAND GAP:   4.4208 eV
 TTTTTTTTTTTTTTTTTTTTTTTTTTTTTT PDIG        TELAPSE       57.03 TCPU     1528.05
 CHARGE NORMALIZATION FACTOR   1.00000000
 TOTAL ATOMIC CHARGES:
   4.5119067   4.5114207   4.5118983   4.5118499   4.5112406   4.5118934
   0.8730577   0.8732686   0.8731439   0.8730643   0.8728782   0.8733347
   0.8729019   0.8731978   0.8730957   0.8731141   0.8731149   0.8732323
   5.9222040   6.1662693   6.1657173   6.1659151   6.1659327   5.9226206
   5.9227185   6.1659593   6.1659089   6.1660066   6.1660065   5.9221485
   5.9222605   6.1658965   6.1660603   6.1660862   6.1657516   5.9225721
   8.4874677   8.4878584   8.4876887   8.4875796   8.4877212   8.4880361
 TTTTTTTTTTTTTTTTTTTTTTTTTTTTTT MOQGAD      TELAPSE       57.07 TCPU     1528.09
 TTTTTTTTTTTTTTTTTTTTTTTTTTTTTT SHELLXN     TELAPSE       62.45 TCPU     1699.26
 TTTTTTTTTTTTTTTTTTTTTTTTTTTTTT MONMO3      TELAPSE       62.58 TCPU     1703.30
 NUMERICALLY INTEGRATED DENSITY    198.0000375891
 TTTTTTTTTTTTTTTTTTTTTTTTTTTTTT NUMDFT      TELAPSE       63.16 TCPU     1721.69
 CYC   7 ETOT(AU) -1.289105747780E+03 DETOT  1.76E-07 tst  2.47E-08 PX  2.73E-04
 TTTTTTTTTTTTTTTTTTTTTTTTTTTTTT DIIS        TELAPSE       63.23 TCPU     1724.21
 DIIS TEST: 0.96922E-06 AT SCF   CYCLE   7 - DIIS ACTIVE - HISTORY:     7 CYCLES
 TTTTTTTTTTTTTTTTTTTTTTTTTTTTTT FDIK        TELAPSE       63.71 TCPU     1739.45
 INSULATING STATE
 TOP OF VALENCE BANDS -    BAND     99; K    1; EIG -2.4545091E-01 AU
 BOTTOM OF VIRTUAL BANDS - BAND    100; K    1; EIG -8.2971363E-02 AU
 DIRECT ENERGY BAND GAP:   4.4213 eV
 TTTTTTTTTTTTTTTTTTTTTTTTTTTTTT PDIG        TELAPSE       64.04 TCPU     1745.63
 CHARGE NORMALIZATION FACTOR   1.00000000
 TOTAL ATOMIC CHARGES:
   4.5119688   4.5114807   4.5119565   4.5118344   4.5112252   4.5118640
   0.8730611   0.8731968   0.8731159   0.8730242   0.8728932   0.8732532
   0.8729032   0.8731302   0.8730609   0.8730811   0.8731033   0.8731758
   5.9217561   6.1661447   6.1660725   6.1660087   6.1660572   5.9227544
   5.9219961   6.1657768   6.1663108   6.1659161   6.1663165   5.9225584
   5.9219635   6.1660245   6.1661485   6.1660593   6.1660098   5.9225541
   8.4874468   8.4877943   8.4877450   8.4876163   8.4876028   8.4880386
 TTTTTTTTTTTTTTTTTTTTTTTTTTTTTT MOQGAD      TELAPSE       64.08 TCPU     1745.68
 TTTTTTTTTTTTTTTTTTTTTTTTTTTTTT SHELLXN     TELAPSE       69.46 TCPU     1916.72
 +++ ENERGIES IN A.U. +++
 ::: EXT EL-POLE                                  -1.2953901756508E+03
 ::: EXT EL-SPHEROPOLE                             1.3939300257958E+01
 ::: BIELET ZONE E-E                               1.9819660152869E+03
 ::: TOTAL E-E                                     7.0051513989415E+02
 ::: TOTAL E-N + N-E                              -3.2314644978468E+03
 ::: TOTAL N-N                                     9.5609371612455E+01
 ::: KINETIC ENERGY                                1.2799553606319E+03
 ::: PSEUDO TOTAL   ENERGY                        -1.1553846257082E+03
 ::: VIRIAL COEFFICIENT                            1.0511512707147E+00
 TTTTTTTTTTTTTTTTTTTTTTTTTTTTTT MONMO3      TELAPSE       69.58 TCPU     1920.75
 NUMERICALLY INTEGRATED DENSITY    198.0000375887
 EXCHANGE ENERGY: -0.126031253922E+03  CORRELATION ENERGY: -0.768986849268E+01
 TTTTTTTTTTTTTTTTTTTTTTTTTTTTTT NUMDFT      TELAPSE       70.16 TCPU     1939.12
 CYC   8 ETOT(AU) -1.289105748123E+03 DETOT -3.43E-07 tst  8.31E-09 PX  2.73E-04

 == SCF ENDED - CONVERGENCE ON ENERGY      E(AU) -1.2891057481228E+03 CYCLES   8


 ENERGY EXPRESSION=HARTREE+FOCK EXCH*0.00000+(HSESOL     EXCH)*1.00000+PBESOL     CORR


 TOTAL ENERGY(DFT)(AU)(  8) -1.2891057481228E+03 DE-3.4E-07 tester 8.3E-09
 TTTTTTTTTTTTTTTTTTTTTTTTTTTTTT EDFT        TELAPSE       70.16 TCPU     1939.12
 
 INFORMATION **** DFTD3 ENERGY **** CALCULATE DFTD3 ENERGY

           DFT-D V3(BJ)
 DF                                         hsesol3c  
 parameters
 s6       :    1.0000
 s8       :    0.0000
 a1       :    0.5196
 a2       :    4.9385
 k1 k3    :   16.0000   -4.0000
 Cutoff   :   50.2022
 CN-Cutoff:   21.1671
 ABC-Cutoff:   21.1671
 
 Edisp /kcal,au:   -22.4820 -0.03582731

 E6    /kcal :   -23.5673
 E8    /kcal :     0.0000
 E6(ABC) "   :   1.085313
 
 INFORMATION **** DFTD3 ENERGY **** NORMAL TERMINATION OF DFTD3 MODULE

 GCP ENERGY CALCULATION
  level        hsesol3c            basis:hsesol3c
  Nbf            474
  Atoms           42

  Parameters: 
  sigma     1.0000
  eta       1.4281
  alpha     0.2936
  beta      1.9467

  dmp_scal      4.0000
  dmp_exp       6.0000
 cutoffs: 
   distance [bohr] 60.0
   noise    [a.u.] 2.2E-16
 SR-damping   T
 ** gCP correction **
  Egcp:        0.0829345284 / (a.u.) ||      52.0422 / (kcal/mol)
 INFORMATION **** GCP **** NORMAL TERMINATION OF GCP MODULE

 *******************************************************************************

 DFT-D3-GCP DISPERSION AND COUNTERPOISE CORRECTION

 D3 DISPERSION ENERGY (AU)      -3.5827308379912E-02
 GCP ENERGY (AU)                 8.2934528420135E-02
 TOTAL ENERGY + DISP + GCP (AU) -1.2890586409027E+03

 *******************************************************************************

 EIGENVECTORS IN FORTRAN UNIT  8
 TTTTTTTTTTTTTTTTTTTTTTTTTTTTTT END         TELAPSE       71.65 TCPU     1946.55
 EEEEEEEEEE TERMINATION  DATE 19 02 2026 TIME 19:13:07.4
