 Default number of threads is:           32

         
 *******************************************************************************
 *                                                                             *
 *                               CRYSTAL23                                     *
 *                      public : 1.0.1 - October 2022                          *
 *                       HTTP://WWW.CRYSTAL.UNITO.IT                           *
 *                                                                             *
 *                              MAIN AUTHORS                                   *
 *                                                                             *
 *  R. DOVESI(1,11), V.R. SAUNDERS(2), C. ROETTI(1,11), R. ORLANDO(1,11),      *
 *  C.M. ZICOVICH-WILSON(1,3), F. PASCALE(4), B. CIVALLERI(1,11),              *
 *  K. DOLL(5), N.M. HARRISON(6), I.J. BUSH(7), Ph. D'ARCO(8),                 *
 *  M. LLUNELL(9), M. CAUSA'(10), Y. NOEL(8), L. MASCHIO(1,11), A. ERBA(1,11)  *
 *  M. RE'RAT(14), S. CASASSA(1,11), B.G. SEARLE(2), J.K. DESMARAIS(1)         *
 *                                                                             *
 *        CONTRIBUTIONS TO THE CODE HAVE ALSO BEEN GIVEN BY                    *
 *                                                                             *
 *  M. FERRABONE(1,11), M. DE LA PIERRE(1,11), M. FERRERO(1,11),               *
 *  J. BAIMA(1,11), E. ALBANESE(1,11), M.F. PEINTINGER(12), R. BAST(13),       *
 *  B. KIRTMAN(15), V. LACIVITA(1,11), R. DEMICHELIS(1,16)                     *
 *  G. BRANDEBURG(17), S. SALUSTRO(1,11), G. SANSONE(1,11)                     *
 *  M.T. RUGGIERO(18), L.E. DAGA(1), L. DONA'(1), A. COSSARD(1)                *
 *                                                                             *
 * (1) THEORETICAL CHEMISTRY GROUP - UNIVERSITA' DI TORINO - TORINO (ITALY)    *
 * (2) SCIENTIFIC COMPUTING DEPARTMENT - STFC DARESBURY (UK)                   *
 * (3) UNIVERSIDAD AUTONOMA DEL ESTADO DE MORELOS - CUERNAVACA (MEXICO)        *
 * (4) UNIVERSITE' DE LORRAINE - NANCY (FRANCE)                                *
 * (5) UNIVERSITAET STUTTGART- STUTTGART (GERMANY)                             *
 * (6) IMPERIAL COLLEGE - LONDON (UK)                                          *
 * (7) SCIENTIFIC COMPUTING DEPARTMENT - STFC RAL (UK)                         *
 * (8) UPMC - SORBONNE UNIVERSITES - PARIS (FRANCE)                            *
 * (9) UNIVERSIDAD DE BARCELONA - BARCELONA (SPAIN)                            *
 *(10) UNIVERSITA' DI NAPOLI "FEDERICO II" - NAPOLI (ITALY)                    *
 *(11) NIS - NANOSTRUCTURED INTERFACES AND SURFACES - TORINO (ITALY)           *
 *(12) MPI FUER CHEMISCHE ENERGIEKONVERSION - MUELHEIM AN DER RUHR (GERMANY)   *
 *(13) UNIVERSITY OF TROMSO - TROMSO (NORWAY)                                  *
 *(14) UNIVERSITE' DE PAU ET DES PAYS DE L'ADOUR - PAU (FRANCE)                *
 *(15) UNIVERSITY OF CALIFORNIA SANTA BARBARA - SANTA BARBARA (USA)            *
 *(16) CURTIN UNIVERSITY - PERTH (AUSTRALIA)                                   *
 *(17) UNIVERSITY COLLEGE LONDON - LONDON (UK)                                 *
 *(18) UNIVERSITY OF VERMONT - BURLINGTON (USA)                                *
 *                                                                             *
 *******************************************************************************
 EEEEEEEEEE STARTING  DATE 19 02 2026 TIME 18:21:36.1
 cof-1_z35_L000_incl                                                             

 CRYSTAL CALCULATION
 (INPUT ACCORDING TO THE INTERNATIONAL TABLES FOR X-RAY CRYSTALLOGRAPHY)
 CRYSTAL FAMILY                       :  TRICLINIC   
 CRYSTAL CLASS  (GROTH - 1921)        :  TRICLINIC PEDIAL                     

 SPACE GROUP (NONCENTROSYMMETRIC)     :  P 1             

 LATTICE PARAMETERS  (ANGSTROMS AND DEGREES) - CONVENTIONAL CELL
        A           B           C        ALPHA        BETA       GAMMA
    15.02361    15.02392     3.50000    90.00032    89.99994   119.99596


 NUMBER OF IRREDUCIBLE ATOMS IN THE CONVENTIONAL CELL:   42

 INPUT COORDINATES

 ATOM AT. N.              COORDINATES
   1   5     6.136805400000E-01  2.273182200000E-01  5.013647800000E-01
   2   5     7.727362000000E-01  3.863778800000E-01  5.013648000000E-01
   3   5     6.136762700000E-01  3.863606700000E-01  4.984953100000E-01
   4   5     2.272552500000E-01  6.136332200000E-01  5.013647900000E-01
   5   5     3.863632200000E-01  6.136124500000E-01  5.013647800000E-01
   6   5     3.863435000000E-01  7.727516500000E-01  4.984953100000E-01
   7   1     9.030436200000E-01  3.089300500000E-01  4.954157800000E-01
   8   1     9.663453000000E-02  6.910534400000E-01  4.945060700000E-01
   9   1     9.029714200000E-01  5.940724300000E-01  4.943660700000E-01
  10   1     9.673618000000E-02  4.056849400000E-01  4.944009900000E-01
  11   1     6.910324000000E-01  9.700412000000E-02  5.045842600000E-01
  12   1     3.089297200000E-01  9.034373100000E-01  5.054940300000E-01
  13   1     4.058699900000E-01  9.704998000000E-02  5.056341200000E-01
  14   1     5.943122100000E-01  9.033473200000E-01  5.055989700000E-01
  15   1     6.910727400000E-01  5.940542100000E-01  4.954158300000E-01
  16   1     3.089618300000E-01  4.056093300000E-01  4.945060200000E-01
  17   1     4.058405700000E-01  3.088232500000E-01  4.943659500000E-01
  18   1     5.942908800000E-01  6.909579300000E-01  4.944011000000E-01
  19   6     8.918903100000E-01  4.459436900000E-01  4.983903200000E-01
  20   6     9.464891100000E-01  3.927856300000E-01  4.955557700000E-01
  21   6     5.338812000000E-02  6.071853000000E-01  4.953109100000E-01
  22   6     9.464521100000E-01  5.536921900000E-01  4.960457700000E-01
  23   6     5.342634000000E-02  4.462499700000E-01  4.941560300000E-01
  24   6     1.080358900000E-01  5.540356300000E-01  4.960807300000E-01
  25   6     5.540394200000E-01  1.081684600000E-01  5.016097600000E-01
  26   6     6.071778500000E-01  5.355594000000E-02  5.044442500000E-01
  27   6     3.927986700000E-01  9.466631600000E-01  5.046892100000E-01
  28   6     4.462875800000E-01  5.360286000000E-02  5.039543700000E-01
  29   6     5.537168500000E-01  9.466235600000E-01  5.058439700000E-01
  30   6     4.459279100000E-01  8.919920600000E-01  5.039193300000E-01
  31   6     5.540448700000E-01  4.458745500000E-01  4.983903100000E-01
  32   6     6.072102200000E-01  5.536257800000E-01  4.955558300000E-01
  33   6     3.928233700000E-01  4.461720300000E-01  4.953108500000E-01
  34   6     4.462872600000E-01  3.926899900000E-01  4.960456900000E-01
  35   6     5.537429600000E-01  6.070980000000E-01  4.941561000000E-01
  36   6     4.459599800000E-01  5.539582300000E-01  4.960807300000E-01
  37   8     5.607366800000E-01  2.803706300000E-01  4.992651600000E-01
  38   8     7.196817000000E-01  2.803783300000E-01  5.053190700000E-01
  39   8     7.196794200000E-01  4.393234600000E-01  4.961857400000E-01
  40   8     2.803245100000E-01  7.196511100000E-01  4.992651900000E-01
  41   8     2.803439700000E-01  5.606956100000E-01  5.053190700000E-01
  42   8     4.392638400000E-01  7.196354200000E-01  4.961857100000E-01

 *******************************************************************************

 << INFORMATION >>: FROM NOW ON, ALL COORDINATES REFER TO THE PRIMITIVE CELL

 *******************************************************************************

 LATTICE PARAMETERS  (ANGSTROMS AND DEGREES) - PRIMITIVE CELL
       A          B          C        ALPHA      BETA     GAMMA        VOLUME
   15.02361   15.02392    3.50000    90.00032  89.99994 119.99596    684.185418

 COORDINATES OF THE EQUIVALENT ATOMS (FRACTIONAL UNITS)

 N. ATOM EQUIV AT. N.          X                  Y                  Z

   1   1   1    5 B    -3.86319460000E-01  2.27318220000E-01 -4.98635220000E-01

   2   2   1    5 B    -2.27263800000E-01  3.86377880000E-01 -4.98635200000E-01

   3   3   1    5 B    -3.86323730000E-01  3.86360670000E-01  4.98495310000E-01

   4   4   1    5 B     2.27255250000E-01 -3.86366780000E-01 -4.98635210000E-01

   5   5   1    5 B     3.86363220000E-01 -3.86387550000E-01 -4.98635220000E-01

   6   6   1    5 B     3.86343500000E-01 -2.27248350000E-01  4.98495310000E-01

   7   7   1    1 H    -9.69563800000E-02  3.08930050000E-01  4.95415780000E-01

   8   8   1    1 H     9.66345300000E-02 -3.08946560000E-01  4.94506070000E-01

   9   9   1    1 H    -9.70285800000E-02 -4.05927570000E-01  4.94366070000E-01

  10  10   1    1 H     9.67361800000E-02  4.05684940000E-01  4.94400990000E-01

  11  11   1    1 H    -3.08967600000E-01  9.70041200000E-02 -4.95415740000E-01

  12  12   1    1 H     3.08929720000E-01 -9.65626900000E-02 -4.94505970000E-01

  13  13   1    1 H     4.05869990000E-01  9.70499800000E-02 -4.94365880000E-01

  14  14   1    1 H    -4.05687790000E-01 -9.66526800000E-02 -4.94401030000E-01

  15  15   1    1 H    -3.08927260000E-01 -4.05945790000E-01  4.95415830000E-01

  16  16   1    1 H     3.08961830000E-01  4.05609330000E-01  4.94506020000E-01

  17  17   1    1 H     4.05840570000E-01  3.08823250000E-01  4.94365950000E-01

  18  18   1    1 H    -4.05709120000E-01 -3.09042070000E-01  4.94401100000E-01

  19  19   1    6 C    -1.08109690000E-01  4.45943690000E-01  4.98390320000E-01

  20  20   1    6 C    -5.35108900000E-02  3.92785630000E-01  4.95555770000E-01

  21  21   1    6 C     5.33881200000E-02 -3.92814700000E-01  4.95310910000E-01

  22  22   1    6 C    -5.35478900000E-02 -4.46307810000E-01  4.96045770000E-01

  23  23   1    6 C     5.34263400000E-02  4.46249970000E-01  4.94156030000E-01

  24  24   1    6 C     1.08035890000E-01 -4.45964370000E-01  4.96080730000E-01

  25  25   1    6 C    -4.45960580000E-01  1.08168460000E-01 -4.98390240000E-01

  26  26   1    6 C    -3.92822150000E-01  5.35559400000E-02 -4.95555750000E-01

  27  27   1    6 C     3.92798670000E-01 -5.33368400000E-02 -4.95310790000E-01

  28  28   1    6 C     4.46287580000E-01  5.36028600000E-02 -4.96045630000E-01

  29  29   1    6 C    -4.46283150000E-01 -5.33764400000E-02 -4.94156030000E-01

  30  30   1    6 C     4.45927910000E-01 -1.08007940000E-01 -4.96080670000E-01

  31  31   1    6 C    -4.45955130000E-01  4.45874550000E-01  4.98390310000E-01

  32  32   1    6 C    -3.92789780000E-01 -4.46374220000E-01  4.95555830000E-01

  33  33   1    6 C     3.92823370000E-01  4.46172030000E-01  4.95310850000E-01

  34  34   1    6 C     4.46287260000E-01  3.92689990000E-01  4.96045690000E-01

  35  35   1    6 C    -4.46257040000E-01 -3.92902000000E-01  4.94156100000E-01

  36  36   1    6 C     4.45959980000E-01 -4.46041770000E-01  4.96080730000E-01

  37  37   1    8 O    -4.39263320000E-01  2.80370630000E-01  4.99265160000E-01

  38  38   1    8 O    -2.80318300000E-01  2.80378330000E-01 -4.94680930000E-01

  39  39   1    8 O    -2.80320580000E-01  4.39323460000E-01  4.96185740000E-01

  40  40   1    8 O     2.80324510000E-01 -2.80348890000E-01  4.99265190000E-01

  41  41   1    8 O     2.80343970000E-01 -4.39304390000E-01 -4.94680930000E-01

  42  42   1    8 O     4.39263840000E-01 -2.80364580000E-01  4.96185710000E-01

 NUMBER OF SYMMETRY OPERATORS         :    1
 *******************************************************************************
 * GEOMETRY EDITING - INPUT COORDINATES ARE GIVEN IN ANGSTROM         
 *******************************************************************************

 GCALCO - MAX INDICES DIRECT LATTICE VECTOR     9     9    37
 NO.OF VECTORS CREATED 6999 STARS 3500 RMAX   198.60079 BOHR

 GEOMETRY FOR WAVE FUNCTION - DIMENSIONALITY OF THE SYSTEM    3
 (NON PERIODIC DIRECTION: LATTICE PARAMETER FORMALLY SET TO 500)
 *******************************************************************************
 LATTICE PARAMETERS (ANGSTROMS AND DEGREES) - BOHR = 0.5291772083 ANGSTROM
 PRIMITIVE CELL - CENTRING CODE 1/0 VOLUME=   684.185418 - DENSITY  0.947 g/cm^3
         A              B              C           ALPHA      BETA       GAMMA 
    15.02361100    15.02391600     3.50000000    90.000323  89.999944 119.995964
 *******************************************************************************
 ATOMS IN THE ASYMMETRIC UNIT   42 - ATOMS IN THE UNIT CELL:   42
     ATOM                 X/A                 Y/B                 Z/C    
 *******************************************************************************
      1 T   5 B    -3.863194600000E-01  2.273182200000E-01 -4.986352200000E-01
      2 T   5 B    -2.272638000000E-01  3.863778800000E-01 -4.986352000000E-01
      3 T   5 B    -3.863237300000E-01  3.863606700000E-01  4.984953100000E-01
      4 T   5 B     2.272552500000E-01 -3.863667800000E-01 -4.986352100000E-01
      5 T   5 B     3.863632200000E-01 -3.863875500000E-01 -4.986352200000E-01
      6 T   5 B     3.863435000000E-01 -2.272483500000E-01  4.984953100000E-01
      7 T   1 H    -9.695638000000E-02  3.089300500000E-01  4.954157800000E-01
      8 T   1 H     9.663453000000E-02 -3.089465600000E-01  4.945060700000E-01
      9 T   1 H    -9.702858000000E-02 -4.059275700000E-01  4.943660700000E-01
     10 T   1 H     9.673618000000E-02  4.056849400000E-01  4.944009900000E-01
     11 T   1 H    -3.089676000000E-01  9.700412000000E-02 -4.954157400000E-01
     12 T   1 H     3.089297200000E-01 -9.656269000000E-02 -4.945059700000E-01
     13 T   1 H     4.058699900000E-01  9.704998000000E-02 -4.943658800000E-01
     14 T   1 H    -4.056877900000E-01 -9.665268000000E-02 -4.944010300000E-01
     15 T   1 H    -3.089272600000E-01 -4.059457900000E-01  4.954158300000E-01
     16 T   1 H     3.089618300000E-01  4.056093300000E-01  4.945060200000E-01
     17 T   1 H     4.058405700000E-01  3.088232500000E-01  4.943659500000E-01
     18 T   1 H    -4.057091200000E-01 -3.090420700000E-01  4.944011000000E-01
     19 T   6 C    -1.081096900000E-01  4.459436900000E-01  4.983903200000E-01
     20 T   6 C    -5.351089000000E-02  3.927856300000E-01  4.955557700000E-01
     21 T   6 C     5.338812000000E-02 -3.928147000000E-01  4.953109100000E-01
     22 T   6 C    -5.354789000000E-02 -4.463078100000E-01  4.960457700000E-01
     23 T   6 C     5.342634000000E-02  4.462499700000E-01  4.941560300000E-01
     24 T   6 C     1.080358900000E-01 -4.459643700000E-01  4.960807300000E-01
     25 T   6 C    -4.459605800000E-01  1.081684600000E-01 -4.983902400000E-01
     26 T   6 C    -3.928221500000E-01  5.355594000000E-02 -4.955557500000E-01
     27 T   6 C     3.927986700000E-01 -5.333684000000E-02 -4.953107900000E-01
     28 T   6 C     4.462875800000E-01  5.360286000000E-02 -4.960456300000E-01
     29 T   6 C    -4.462831500000E-01 -5.337644000000E-02 -4.941560300000E-01
     30 T   6 C     4.459279100000E-01 -1.080079400000E-01 -4.960806700000E-01
     31 T   6 C    -4.459551300000E-01  4.458745500000E-01  4.983903100000E-01
     32 T   6 C    -3.927897800000E-01 -4.463742200000E-01  4.955558300000E-01
     33 T   6 C     3.928233700000E-01  4.461720300000E-01  4.953108500000E-01
     34 T   6 C     4.462872600000E-01  3.926899900000E-01  4.960456900000E-01
     35 T   6 C    -4.462570400000E-01 -3.929020000000E-01  4.941561000000E-01
     36 T   6 C     4.459599800000E-01 -4.460417700000E-01  4.960807300000E-01
     37 T   8 O    -4.392633200000E-01  2.803706300000E-01  4.992651600000E-01
     38 T   8 O    -2.803183000000E-01  2.803783300000E-01 -4.946809300000E-01
     39 T   8 O    -2.803205800000E-01  4.393234600000E-01  4.961857400000E-01
     40 T   8 O     2.803245100000E-01 -2.803488900000E-01  4.992651900000E-01
     41 T   8 O     2.803439700000E-01 -4.393043900000E-01 -4.946809300000E-01
     42 T   8 O     4.392638400000E-01 -2.803645800000E-01  4.961857100000E-01

 T = ATOM BELONGING TO THE ASYMMETRIC UNIT

 ****    1 SYMMOPS - TRANSLATORS IN FRACTIONAL UNITS
 **** MATRICES AND TRANSLATORS IN THE CRYSTALLOGRAPHIC REFERENCE FRAME
   V INV                    ROTATION MATRICES                   TRANSLATORS
   1   1  1.00  0.00  0.00  0.00  1.00  0.00  0.00  0.00  1.00  0.00  0.00  0.00

 DIRECT LATTICE VECTORS CARTESIAN COMPONENTS (ANGSTROM)
          X                    Y                    Z
   0.130113578931E+02  -0.751088897922E+01   0.000000000000E+00
   0.000000000000E+00   0.150239160000E+02   0.000000000000E+00
  -0.743992326035E-05  -0.197309471930E-04   0.349999999994E+01


 CARTESIAN COORDINATES - PRIMITIVE CELL
 *******************************************************************************
 *      ATOM          X(ANGSTROM)         Y(ANGSTROM)         Z(ANGSTROM)
 *******************************************************************************
    1     5 B    -5.026537045305E+00  6.316822255666E+00 -1.745223269968E+00
    2     5 B    -2.957006928128E+00  7.511871822718E+00 -1.745223199968E+00
    3     5 B    -5.026600022377E+00 -6.317640937934E+00  1.744733584968E+00
    4     5 B     2.956903100634E+00 -7.511621162060E+00 -1.745223234968E+00
    5     5 B     5.027113841942E+00  6.316940492827E+00 -1.745223269968E+00
    6     5 B     5.026849839389E+00 -6.315953093665E+00  1.744733584968E+00
    7     1 H    -1.261537846051E+00  5.369557952060E+00  1.733955229969E+00
    8     1 H     1.257342775570E+00 -5.367408149391E+00  1.730771244969E+00
    9     1 H    -1.262477258281E+00 -5.369860575884E+00  1.730281244969E+00
   10     1 H     1.258665380882E+00  5.368391997772E+00  1.730403464969E+00
   11     1 H    -4.020084335104E+00  3.778012867331E+00 -1.733955089969E+00
   12     1 H     4.019598829808E+00 -3.771076815523E+00 -1.730770894969E+00
   13     1 H     5.280923375986E+00 -1.590363933257E+00 -1.730280579969E+00
   14     1 H    -5.278545350227E+00  1.594983960419E+00 -1.730403604969E+00
   15     1 H    -4.019566828637E+00 -3.778586872024E+00  1.733955404969E+00
   16     1 H     4.020009266337E+00  3.773252741719E+00  1.730771069969E+00
   17     1 H     5.280533225747E+00  1.591501348007E+00  1.730280824969E+00
   18     1 H    -5.278830239103E+00 -1.595795696973E+00  1.730403849969E+00
   19     6 C    -1.406657576283E+00  7.511810584744E+00  1.744366119968E+00
   20     6 C    -6.962530278629E-01  6.303082887311E+00  1.734445194969E+00
   21     6 C     6.946482514823E-01 -6.302617071448E+00  1.733588184969E+00
   22     6 C    -6.967344517505E-01 -6.303108578176E+00  1.736160194968E+00
   23     6 C     6.951455541732E-01  6.303133005810E+00  1.729546104969E+00
   24     6 C     1.405689939282E+00 -7.511586597576E+00  1.736282554968E+00
   25     6 C     7.208808888467E+00 -2.536204883129E+00 -1.744365839968E+00
   26     6 C    -5.111145895073E+00  3.755073278872E+00 -1.734445124969E+00
   27     6 C     5.110847760361E+00 -3.751585632468E+00 -1.733587764969E+00
   28     6 C     5.806811117148E+00 -2.546681812733E+00 -1.736159704968E+00
   29     6 C    -5.806746109808E+00  2.550069792172E+00 -1.729546104969E+00
   30     6 C     5.802131322315E+00 -4.972007454496E+00 -1.736282344968E+00
   31     6 C     7.208872384396E+00  2.537402443950E+00  1.744366084968E+00
   32     6 C    -5.110732091212E+00 -3.756098133881E+00  1.734445404969E+00
   33     6 C     5.111161770752E+00  3.752788606806E+00  1.733587974969E+00
   34     6 C     5.806799572430E+00  2.547717573651E+00  1.736159914968E+00
   35     6 C    -5.806413736220E+00 -2.551149310766E+00  1.729546349969E+00
   36     6 C     5.802541214958E+00  4.973056227932E+00  1.736282554968E+00
   37     8 O     7.295941912750E+00  6.239929581478E-04  1.747428059968E+00
   38     8 O    -3.647318044885E+00  6.317829868806E+00 -1.731383254969E+00
   39     8 O    -3.647355082753E+00 -6.318110275376E+00  1.736650089968E+00
   40     8 O     3.647398811311E+00 -6.317434297792E+00  1.747428164968E+00
   41     8 O     3.647659407218E+00  6.318221072069E+00 -1.731383254969E+00
   42     8 O    -7.295942552922E+00 -5.566451171651E-04  1.736649984968E+00

 *******************************************************************************
 STARTING BASIS SET HANDLING 
 *******************************************************************************

 Loading internal basis set: SOLDEF2MSVP         

 Please cite in your publication:
 L. Dona', J. G. Brandenburg and B. Civalleri, J. Chem. Phys., 151, 121101 (2019
 )                                                                              
                                                                                
                    

 *******************************************************************************
 LOCAL ATOMIC FUNCTIONS BASIS SET
 *******************************************************************************
   ATOM   X(AU)   Y(AU)   Z(AU)  N. TYPE  EXPONENT  S COEF   P COEF   D/F/G COEF
 *******************************************************************************
   1 B   -9.499  11.937  -3.298
                                  1 S  
                                         2.410E+03 1.755E-03 0.000E+00 0.000E+00
                                         3.619E+02 1.344E-02 0.000E+00 0.000E+00
                                         8.231E+01 6.637E-02 0.000E+00 0.000E+00
                                         2.311E+01 2.303E-01 0.000E+00 0.000E+00
                                         7.252E+00 5.150E-01 0.000E+00 0.000E+00
                                  2 S  
                                         2.367E+00 1.000E+00 0.000E+00 0.000E+00
                                  3 S  
                                         5.533E-01 1.000E+00 0.000E+00 0.000E+00
                                  4 S  
                                         1.716E-01 1.000E+00 0.000E+00 0.000E+00
                           5-     7 P  
                                         6.002E+00 0.000E+00-3.555E-02 0.000E+00
                                         1.240E+00 0.000E+00-1.983E-01 0.000E+00
                                         3.367E-01 0.000E+00-5.048E-01 0.000E+00
                           8-    10 P  
                                         1.256E-01 0.000E+00 1.000E+00 0.000E+00
                          11-    15 D  
                                         8.880E-01 0.000E+00 0.000E+00 1.000E+00
   2 B   -5.588  14.195  -3.298
   3 B   -9.499 -11.939   3.297
   4 B    5.588 -14.195  -3.298
   5 B    9.500  11.937  -3.298
   6 B    9.499 -11.935   3.297
   7 H   -2.384  10.147   3.277
                                 91 S  
                                         1.874E+01 1.968E-02 0.000E+00 0.000E+00
                                         2.826E+00 1.380E-01 0.000E+00 0.000E+00
                                         6.401E-01 4.783E-01 0.000E+00 0.000E+00
                                 92 S  
                                         1.756E-01 1.000E+00 0.000E+00 0.000E+00
   8 H    2.376 -10.143   3.271
   9 H   -2.386 -10.148   3.270
  10 H    2.379  10.145   3.270
  11 H   -7.597   7.139  -3.277
  12 H    7.596  -7.126  -3.271
  13 H    9.979  -3.005  -3.270
  14 H   -9.975   3.014  -3.270
  15 H   -7.596  -7.140   3.277
  16 H    7.597   7.130   3.271
  17 H    9.979   3.008   3.270
  18 H   -9.976  -3.016   3.270
  19 C   -2.658  14.195   3.296
                                115 S  
                                         3.624E+03 1.634E-03 0.000E+00 0.000E+00
                                         5.440E+02 1.252E-02 0.000E+00 0.000E+00
                                         1.237E+02 6.211E-02 0.000E+00 0.000E+00
                                         3.476E+01 2.182E-01 0.000E+00 0.000E+00
                                         1.093E+01 4.980E-01 0.000E+00 0.000E+00
                                116 S  
                                         3.574E+00 1.000E+00 0.000E+00 0.000E+00
                                117 S  
                                         7.742E-01 1.000E+00 0.000E+00 0.000E+00
                                118 S  
                                         2.330E-01 1.000E+00 0.000E+00 0.000E+00
                         119-   121 P  
                                         9.443E+00 0.000E+00 3.790E-02 0.000E+00
                                         2.002E+00 0.000E+00 2.082E-01 0.000E+00
                                         5.463E-01 0.000E+00 5.047E-01 0.000E+00
                         122-   124 P  
                                         1.820E-01 0.000E+00 1.000E+00 0.000E+00
                         125-   129 D  
                                         8.880E-01 0.000E+00 0.000E+00 1.000E+00
  20 C   -1.316  11.911   3.278
  21 C    1.313 -11.910   3.276
  22 C   -1.317 -11.911   3.281
  23 C    1.314  11.911   3.268
  24 C    2.656 -14.195   3.281
  25 C   13.623  -4.793  -3.296
  26 C   -9.659   7.096  -3.278
  27 C    9.658  -7.089  -3.276
  28 C   10.973  -4.813  -3.281
  29 C  -10.973   4.819  -3.268
  30 C   10.964  -9.396  -3.281
  31 C   13.623   4.795   3.296
  32 C   -9.658  -7.098   3.278
  33 C    9.659   7.092   3.276
  34 C   10.973   4.814   3.281
  35 C  -10.973  -4.821   3.268
  36 C   10.965   9.398   3.281
  37 O   13.787   0.001   3.302
                                385 S  
                                         6.773E+03 1.727E-03 0.000E+00 0.000E+00
                                         1.017E+03 1.325E-02 0.000E+00 0.000E+00
                                         2.313E+02 6.603E-02 0.000E+00 0.000E+00
                                         6.501E+01 2.353E-01 0.000E+00 0.000E+00
                                         2.050E+01 5.498E-01 0.000E+00 0.000E+00
                                386 S  
                                         6.716E+00 1.000E+00 0.000E+00 0.000E+00
                                387 S  
                                         1.147E+00 1.000E+00 0.000E+00 0.000E+00
                                388 S  
                                         3.342E-01 1.000E+00 0.000E+00 0.000E+00
                         389-   391 P  
                                         1.769E+01 0.000E+00 4.359E-02 0.000E+00
                                         3.854E+00 0.000E+00 2.318E-01 0.000E+00
                                         1.047E+00 0.000E+00 5.146E-01 0.000E+00
                         392-   394 P  
                                         2.759E-01 0.000E+00 1.000E+00 0.000E+00
                         395-   399 D  
                                         8.000E-01 0.000E+00 0.000E+00 1.000E+00
  38 O   -6.892  11.939  -3.272
  39 O   -6.893 -11.939   3.282
  40 O    6.893 -11.938   3.302
  41 O    6.893  11.940  -3.272
  42 O  -13.787  -0.001   3.282

 *******************************************************************************
 FINISHED BASIS SET HANDLING 
 *******************************************************************************

 INFORMATION **** SET_MPP **** PCRYSTAL CALCULATION
 INFORMATION **** READM2 **** NEW DEFAULT: FOCK/KS MATRIX MIXING SET TO 30 %
 INFORMATION **** READM2 **** NEW DEFAULT: FULL DIRECT SCF MODE
 INFORMATION **** READM2 **** NEW DEFAULT: COULOMB BIPOLAR BUFFER SET TO 32 Mb
 INFORMATION **** READM2 **** NEW DEFAULT: EXCHANGE BIPOLAR BUFFER SET TO 32 Mb

 *******************************************************************************
 NEW DEFAULT: DFT INTEGRATION GRID INCREASED TO XLGRID
 NEW DEFAULT: DIIS ACCELERATOR ACTIVE
 USE KEYWORD NODIIS TO TURN IT OFF
 *******************************************************************************

 WARNING **** RDDFTP **** HSEsol-HJS ACTIVE
 RANGE SEPARATION - OMEGA:   0.110000000000000     
 WARNING **** RDDFTP **** HSEsol-3c has to be combined with sol-def2-mSVP basis set
 *******************************************************************************
 N. OF ATOMS PER CELL        42  COULOMB OVERLAP TOL         (T1) 10**   -6
 NUMBER OF SHELLS           234  COULOMB PENETRATION TOL     (T2) 10**   -6
 NUMBER OF AO               474  EXCHANGE OVERLAP TOL        (T3) 10**   -6
 N. OF ELECTRONS PER CELL   198  EXCHANGE PSEUDO OVP (F(G))  (T4) 10**   -6
 CORE ELECTRONS PER CELL     60  EXCHANGE PSEUDO OVP (P(G))  (T5) 10**  -12
 N. OF SYMMETRY OPERATORS     1  POLE ORDER IN MONO ZONE                  4
 *******************************************************************************
 TYPE OF CALCULATION :  RESTRICTED CLOSED SHELL
 KOHN-SHAM HAMILTONIAN

 (EXCHANGE)[CORRELATION] FUNCTIONAL:(HSEsol GGA)[PBEsol]

 RANGE-SEPARATED HYBRID FUNCTIONAL 
 OMEGA (SHORT-RANGE)[LONG-RANGE]:(    0.1100)[    0.0000]

 HYBRID EXCHANGE - PERCENTAGE OF FOCK EXCHANGE    25.0000

 CAPPA:IS1  2;IS2  2;IS3  8; K PTS MONK NET  20; SYMMOPS:K SPACE   2;G SPACE   1

 *******************************************************************************
 MAX NUMBER OF SCF CYCLES      50  CONVERGENCE ON DELTAP        10**-16
 WEIGHT OF F(I) IN F(I+1)      30% CONVERGENCE ON ENERGY        10**- 6
 SHRINK. FACT.(MONKH.)    2  2  8  NUMBER OF K POINTS IN THE IBZ     20
 SHRINKING FACTOR(GILAT NET)    8  NUMBER OF K POINTS(GILAT NET)   1028
 *******************************************************************************
 *** K POINTS COORDINATES (OBLIQUE COORDINATES IN UNITS OF IS =  2)
   1-R(  0  0  0)   2-R(  1  0  0)   3-R(  0  1  0)   4-R(  1  1  0)
   5-C(  0  0  1)   6-C(  1  0  1)   7-C(  0  1  1)   8-C(  1  1  1)
   9-C(  0  0  2)  10-C(  1  0  2)  11-C(  0  1  2)  12-C(  1  1  2)
  13-C(  0  0  3)  14-C(  1  0  3)  15-C(  0  1  3)  16-C(  1  1  3)
  17-R(  0  0  4)  18-R(  1  0  4)  19-R(  0  1  4)  20-R(  1  1  4)

 DIRECT LATTICE VECTORS COMPON. (A.U.)     RECIP. LATTICE VECTORS COMPON. (A.U.) 
        X            Y            Z              X            Y            Z
   24.5879030  -14.1935232    0.0000000      0.2555397    0.0000000    0.0000005
    0.0000000   28.3910867    0.0000000      0.1277517    0.2213084    0.0000015
   -0.0000141   -0.0000373    6.6140415      0.0000000    0.0000000    0.9499767

 DISK SPACE FOR EIGENVECTORS (FTN 10)     7189632 REALS

 SYMMETRY ADAPTION OF THE BLOCH FUNCTIONS DISABLED
 TTTTTTTTTTTTTTTTTTTTTTTTTTTTTT gordsh1     TELAPSE        0.04 TCPU        0.04

 MATRIX SIZE: P(G)  384878, F(G)   80185, P(G) IRR  194890, F(G) IRR   81025
 MAX G-VECTOR INDEX FOR 1- AND 2-ELECTRON INTEGRALS 123

 TTTTTTTTTTTTTTTTTTTTTTTTTTTTTT INPUT       TELAPSE        0.29 TCPU        0.29

 NEIGHBORS OF THE NON-EQUIVALENT ATOMS

 N = NUMBER OF NEIGHBORS AT DISTANCE R
    ATOM  N     R/ANG      R/AU   NEIGHBORS (ATOM LABELS AND CELL INDICES)
   1 B    1     1.3791     2.6061   37 O   -1 0-1
   1 B    1     1.3793     2.6065   38 O    0 0 0
   1 B    1     1.5503     2.9297   25 C   -1 0 0
   1 B    1     2.3895     4.5155    3 B    0 1-1
   1 B    1     2.3898     4.5160    2 B    0 0 0
   1 B    1     2.5632     4.8437   26 C    0 0 0

   2 B    1     1.3793     2.6065   39 O    0 1-1
   2 B    1     1.3793     2.6065   38 O    0 0 0
   2 B    1     1.5504     2.9298   19 C    0 0-1
   2 B    1     2.3895     4.5156    3 B    0 1-1
   2 B    1     2.3898     4.5160    1 B    0 0 0
   2 B    1     2.5634     4.8440   22 C    0 1-1

   3 B    1     1.3791     2.6061   37 O   -1-1 0
   3 B    1     1.3793     2.6064   39 O    0 0 0
   3 B    1     1.5502     2.9294   31 C   -1-1 0
   3 B    1     2.3895     4.5155    1 B    0-1 1
   3 B    1     2.3895     4.5156    2 B    0-1 1
   3 B    1     2.5629     4.8433   32 C    0 0 0

   4 B    1     1.3795     2.6068   40 O    0 0-1
   4 B    1     1.3795     2.6070   41 O    0-1 0
   4 B    1     1.5513     2.9316   24 C    0 0-1
   4 B    1     2.3905     4.5174    6 B    0 0-1
   4 B    1     2.3905     4.5175    5 B    0-1 0
   4 B    1     2.5648     4.8468   23 C    0-1-1

   5 B    1     1.3795     2.6069   41 O    0 0 0
   5 B    1     1.3797     2.6072   42 O    1 1-1
   5 B    1     1.5516     2.9322   36 C    0 0-1
   5 B    1     2.3905     4.5175    4 B    0 1 0
   5 B    1     2.3911     4.5185    6 B    0 1-1
   5 B    1     2.5651     4.8473   35 C    1 1-1

   6 B    1     1.3795     2.6068   40 O    0 0 0
   6 B    1     1.3796     2.6071   42 O    1 0 0
   6 B    1     1.5516     2.9322   30 C    0 0 1
   6 B    1     2.3905     4.5174    4 B    0 0 1
   6 B    1     2.3911     4.5185    5 B    0-1 1
   6 B    1     2.5651     4.8473   29 C    1 0 1

   7 H    1     1.0913     2.0623   20 C    0 0 0
   7 H    1     2.1472     4.0576   19 C    0 0 0
   7 H    1     2.1680     4.0969   23 C    0 0 0
   7 H    1     2.5202     4.7625   10 H    0 0 0
   7 H    1     2.5676     4.8520   38 O    0 0 1
   7 H    1     2.7321     5.1630    2 B    0 0 1

   8 H    1     1.0914     2.0625   21 C    0 0 0
   8 H    1     2.1493     4.0616   24 C    0 0 0
   8 H    1     2.1666     4.0942   22 C    0 0 0
   8 H    1     2.5198     4.7618    9 H    0 0 0
   8 H    1     2.5720     4.8604   40 O    0 0 0
   8 H    1     2.7362     5.1707    4 B    0 0 1

   9 H    1     1.0914     2.0624   22 C    0 0 0
   9 H    1     2.1471     4.0575   19 C    0-1 0
   9 H    1     2.1680     4.0970   21 C    0 0 0
   9 H    1     2.5198     4.7618    8 H    0 0 0
   9 H    1     2.5665     4.8500   39 O    0 0 0
   9 H    1     2.7315     5.1618    2 B    0-1 1

  10 H    1     1.0915     2.0626   23 C    0 0 0
  10 H    1     2.1490     4.0610   24 C    0 1 0
  10 H    1     2.1669     4.0948   20 C    0 0 0
  10 H    1     2.5202     4.7625    7 H    0 0 0
  10 H    1     2.5712     4.8588   41 O    0 0 1
  10 H    1     2.7351     5.1686    4 B    0 1 1

  11 H    1     1.0913     2.0623   26 C    0 0 0
  11 H    1     2.1469     4.0571   25 C   -1 0 0
  11 H    1     2.1680     4.0968   29 C    0 0 0
  11 H    1     2.5198     4.7617   14 H    0 0 0
  11 H    1     2.5670     4.8510   38 O    0 0 0
  11 H    1     2.7310     5.1609    1 B    0 0 0

  12 H    1     1.0914     2.0625   27 C    0 0 0
  12 H    1     2.1493     4.0617   30 C    0 0 0
  12 H    1     2.1664     4.0939   28 C    0 0 0
  12 H    1     2.5192     4.7606   13 H    0 0 0
  12 H    1     2.5735     4.8632   40 O    0 0-1
  12 H    1     2.7371     5.1723    6 B    0 0-1

  13 H    1     1.0914     2.0624   28 C    0 0 0
  13 H    1     2.1475     4.0581   25 C    0 0 0
  13 H    1     2.1679     4.0967   27 C    0 0 0
  13 H    1     2.5192     4.7606   12 H    0 0 0
  13 H    1     2.5675     4.8519   37 O    0 0-1
  13 H    1     2.7328     5.1643    1 B    1 0 0

  14 H    1     1.0914     2.0625   29 C    0 0 0
  14 H    1     2.1491     4.0612   30 C   -1 0 0
  14 H    1     2.1666     4.0942   26 C    0 0 0
  14 H    1     2.5198     4.7617   11 H    0 0 0
  14 H    1     2.5723     4.8609   42 O    0 0-1
  14 H    1     2.7355     5.1693    6 B   -1 0-1

  15 H    1     1.0914     2.0624   32 C    0 0 0
  15 H    1     2.1475     4.0582   31 C   -1-1 0
  15 H    1     2.1678     4.0966   35 C    0 0 0
  15 H    1     2.5200     4.7621   18 H    0 0 0
  15 H    1     2.5667     4.8503   39 O    0 0 0
  15 H    1     2.7315     5.1618    3 B    0 0 0

  16 H    1     1.0913     2.0623   33 C    0 0 0
  16 H    1     2.1487     4.0605   36 C    0 0 0
  16 H    1     2.1667     4.0945   34 C    0 0 0
  16 H    1     2.5197     4.7616   17 H    0 0 0
  16 H    1     2.5723     4.8610   41 O    0 0 1
  16 H    1     2.7359     5.1701    5 B    0 0 1

  17 H    1     1.0915     2.0626   34 C    0 0 0
  17 H    1     2.1479     4.0589   31 C    0 0 0
  17 H    1     2.1679     4.0968   33 C    0 0 0
  17 H    1     2.5197     4.7616   16 H    0 0 0
  17 H    1     2.5677     4.8522   37 O    0 0 0
  17 H    1     2.7331     5.1648    3 B    1 1 0

  18 H    1     1.0914     2.0624   35 C    0 0 0
  18 H    1     2.1486     4.0602   36 C   -1-1 0
  18 H    1     2.1668     4.0947   32 C    0 0 0
  18 H    1     2.5200     4.7621   15 H    0 0 0
  18 H    1     2.5717     4.8598   42 O    0 0 0
  18 H    1     2.7349     5.1682    5 B   -1-1 1

  19 C    1     1.4020     2.6495   22 C    0 1 0
  19 C    1     1.4021     2.6495   20 C    0 0 0
  19 C    1     1.5504     2.9298    2 B    0 0 1
  19 C    1     2.1471     4.0575    9 H    0 1 0
  19 C    1     2.1472     4.0576    7 H    0 0 0
  19 C    1     2.4246     4.5817   21 C    0 1 0

  20 C    1     1.0913     2.0623    7 H    0 0 0
  20 C    1     1.3914     2.6294   23 C    0 0 0
  20 C    1     1.4021     2.6495   19 C    0 0 0
  20 C    1     2.1669     4.0948   10 H    0 0 0
  20 C    1     2.4177     4.5688   22 C    0 1 0
  20 C    1     2.4250     4.5825   24 C    0 1 0

  21 C    1     1.0914     2.0625    8 H    0 0 0
  21 C    1     1.3914     2.6293   22 C    0 0 0
  21 C    1     1.4026     2.6505   24 C    0 0 0
  21 C    1     2.1680     4.0970    9 H    0 0 0
  21 C    1     2.4182     4.5697   23 C    0-1 0
  21 C    1     2.4246     4.5817   19 C    0-1 0

  22 C    1     1.0914     2.0624    9 H    0 0 0
  22 C    1     1.3914     2.6293   21 C    0 0 0
  22 C    1     1.4020     2.6495   19 C    0-1 0
  22 C    1     2.1666     4.0942    8 H    0 0 0
  22 C    1     2.4177     4.5688   20 C    0-1 0
  22 C    1     2.4250     4.5826   24 C    0 0 0

  23 C    1     1.0915     2.0626   10 H    0 0 0
  23 C    1     1.3914     2.6294   20 C    0 0 0
  23 C    1     1.4025     2.6504   24 C    0 1 0
  23 C    1     2.1680     4.0969    7 H    0 0 0
  23 C    1     2.4182     4.5697   21 C    0 1 0
  23 C    1     2.4246     4.5818   19 C    0 0 0

  24 C    1     1.4025     2.6504   23 C    0-1 0
  24 C    1     1.4026     2.6505   21 C    0 0 0
  24 C    1     1.5513     2.9316    4 B    0 0 1
  24 C    1     2.1490     4.0610   10 H    0-1 0
  24 C    1     2.1493     4.0616    8 H    0 0 0
  24 C    1     2.4250     4.5825   20 C    0-1 0

  25 C    1     1.4020     2.6494   26 C    1 0 0
  25 C    1     1.4021     2.6495   28 C    0 0 0
  25 C    1     1.5503     2.9297    1 B    1 0 0
  25 C    1     2.1469     4.0571   11 H    1 0 0
  25 C    1     2.1475     4.0581   13 H    0 0 0
  25 C    1     2.4246     4.5818   27 C    0 0 0

  26 C    1     1.0913     2.0623   11 H    0 0 0
  26 C    1     1.3914     2.6293   29 C    0 0 0
  26 C    1     1.4020     2.6494   25 C   -1 0 0
  26 C    1     2.1666     4.0942   14 H    0 0 0
  26 C    1     2.4175     4.5684   28 C   -1 0 0
  26 C    1     2.4251     4.5828   30 C   -1 0 0

  27 C    1     1.0914     2.0625   12 H    0 0 0
  27 C    1     1.3915     2.6295   28 C    0 0 0
  27 C    1     1.4026     2.6505   30 C    0 0 0
  27 C    1     2.1679     4.0967   13 H    0 0 0
  27 C    1     2.4179     4.5691   29 C    1 0 0
  27 C    1     2.4246     4.5818   25 C    0 0 0

  28 C    1     1.0914     2.0624   13 H    0 0 0
  28 C    1     1.3915     2.6295   27 C    0 0 0
  28 C    1     1.4021     2.6495   25 C    0 0 0
  28 C    1     2.1664     4.0939   12 H    0 0 0
  28 C    1     2.4175     4.5684   26 C    1 0 0
  28 C    1     2.4253     4.5832   30 C    0 0 0

  29 C    1     1.0914     2.0625   14 H    0 0 0
  29 C    1     1.3914     2.6293   26 C    0 0 0
  29 C    1     1.4025     2.6504   30 C   -1 0 0
  29 C    1     2.1680     4.0968   11 H    0 0 0
  29 C    1     2.4179     4.5691   27 C   -1 0 0
  29 C    1     2.4247     4.5819   25 C   -1 0 0

  30 C    1     1.4025     2.6504   29 C    1 0 0
  30 C    1     1.4026     2.6505   27 C    0 0 0
  30 C    1     1.5516     2.9322    6 B    0 0-1
  30 C    1     2.1491     4.0612   14 H    1 0 0
  30 C    1     2.1493     4.0617   12 H    0 0 0
  30 C    1     2.4251     4.5828   26 C    1 0 0

  31 C    1     1.4021     2.6496   32 C    1 1 0
  31 C    1     1.4021     2.6497   34 C    0 0 0
  31 C    1     1.5502     2.9294    3 B    1 1 0
  31 C    1     2.1475     4.0582   15 H    1 1 0
  31 C    1     2.1479     4.0589   17 H    0 0 0
  31 C    1     2.4244     4.5814   33 C    0 0 0

  32 C    1     1.0914     2.0624   15 H    0 0 0
  32 C    1     1.3914     2.6293   35 C    0 0 0
  32 C    1     1.4021     2.6496   31 C   -1-1 0
  32 C    1     2.1668     4.0947   18 H    0 0 0
  32 C    1     2.4179     4.5692   34 C   -1-1 0
  32 C    1     2.4251     4.5827   36 C   -1-1 0

  33 C    1     1.0913     2.0623   16 H    0 0 0
  33 C    1     1.3914     2.6294   34 C    0 0 0
  33 C    1     1.4025     2.6504   36 C    0 0 0
  33 C    1     2.1679     4.0968   17 H    0 0 0
  33 C    1     2.4178     4.5690   35 C    1 1 0
  33 C    1     2.4244     4.5814   31 C    0 0 0

  34 C    1     1.0915     2.0626   17 H    0 0 0
  34 C    1     1.3914     2.6294   33 C    0 0 0
  34 C    1     1.4021     2.6497   31 C    0 0 0
  34 C    1     2.1667     4.0945   16 H    0 0 0
  34 C    1     2.4179     4.5692   32 C    1 1 0
  34 C    1     2.4253     4.5832   36 C    0 0 0

  35 C    1     1.0914     2.0624   18 H    0 0 0
  35 C    1     1.3914     2.6293   32 C    0 0 0
  35 C    1     1.4025     2.6503   36 C   -1-1 0
  35 C    1     2.1678     4.0966   15 H    0 0 0
  35 C    1     2.4178     4.5690   33 C   -1-1 0
  35 C    1     2.4245     4.5817   31 C   -1-1 0

  36 C    1     1.4025     2.6503   35 C    1 1 0
  36 C    1     1.4025     2.6504   33 C    0 0 0
  36 C    1     1.5516     2.9322    5 B    0 0 1
  36 C    1     2.1486     4.0602   18 H    1 1 0
  36 C    1     2.1487     4.0605   16 H    0 0 0
  36 C    1     2.4251     4.5827   32 C    1 1 0

  37 O    1     1.3791     2.6061    1 B    1 0 1
  37 O    1     1.3791     2.6061    3 B    1 1 0
  37 O    1     2.3880     4.5126   38 O    1 0 1
  37 O    1     2.3882     4.5130   39 O    1 1 0
  37 O    1     2.5383     4.7966   31 C    0 0 0
  37 O    1     2.5384     4.7968   25 C    0 0 1

  38 O    1     1.3793     2.6065    1 B    0 0 0
  38 O    1     1.3793     2.6065    2 B    0 0 0
  38 O    1     2.3880     4.5126   37 O   -1 0-1
  38 O    1     2.3882     4.5131   39 O    0 1-1
  38 O    1     2.5391     4.7981   19 C    0 0-1
  38 O    1     2.5395     4.7990   25 C   -1 0 0

  39 O    1     1.3793     2.6064    3 B    0 0 0
  39 O    1     1.3793     2.6065    2 B    0-1 1
  39 O    1     2.3882     4.5130   37 O   -1-1 0
  39 O    1     2.3882     4.5131   38 O    0-1 1
  39 O    1     2.5390     4.7980   19 C    0-1 0
  39 O    1     2.5391     4.7982   31 C   -1-1 0

  40 O    1     1.3795     2.6068    6 B    0 0 0
  40 O    1     1.3795     2.6068    4 B    0 0 1
  40 O    1     2.3880     4.5126   42 O    1 0 0
  40 O    1     2.3884     4.5134   41 O    0-1 1
  40 O    1     2.5400     4.7998   24 C    0 0 0
  40 O    1     2.5403     4.8005   30 C    0 0 1

  41 O    1     1.3795     2.6069    5 B    0 0 0
  41 O    1     1.3795     2.6070    4 B    0 1 0
  41 O    1     2.3881     4.5128   42 O    1 1-1
  41 O    1     2.3884     4.5134   40 O    0 1-1
  41 O    1     2.5404     4.8006   24 C    0 1-1
  41 O    1     2.5405     4.8008   36 C    0 0-1

  42 O    1     1.3796     2.6071    6 B   -1 0 0
  42 O    1     1.3797     2.6072    5 B   -1-1 1
  42 O    1     2.3880     4.5126   40 O   -1 0 0
  42 O    1     2.3881     4.5128   41 O   -1-1 1
  42 O    1     2.5409     4.8016   36 C   -1-1 0
  42 O    1     2.5410     4.8019   30 C   -1 0 1


 SYMMETRY ALLOWED INTERNAL DEGREE(S) OF FREEDOM: 123
 TTTTTTTTTTTTTTTTTTTTTTTTTTTTTT SYMM        TELAPSE        0.29 TCPU        0.29
 TTTTTTTTTTTTTTTTTTTTTTTTTTTTTT INT_SCREEN  TELAPSE        0.32 TCPU        0.32

 DFT PARAMETERS

     ATOM       ELECTRONS   NET CHARGE   R(ANGSTROM)
   1   5  B       5.0000      0.0000     0.89000000
   7   1  H       1.0000      0.0000     1.11000000
  19   6  C       6.0000      0.0000     0.77000000
  37   8  O       8.0000      0.0000     0.74000000

 SIZE OF GRID=    1257807
 TTTTTTTTTTTTTTTTTTTTTTTTTTTTTT MAKE_GRID2  TELAPSE       12.05 TCPU       12.03
 BECKE WEIGHT FUNCTION
 RADSAFE =     2.00
 TOLERANCES - DENSITY:10**- 6; POTENTIAL:10**- 9; GRID WGT:10**-14

 RADIAL INTEGRATION  - INTERVALS (POINTS,UPPER LIMIT):            1( 75,  4.0*R)

 ANGULAR INTEGRATION - INTERVALS (ACCURACY LEVEL [N. POINTS] UPPER LIMIT):
  1(  4[  86]   0.2)  2(  8[ 194]   0.5)  3( 12[ 350]   0.9)  4( 16[ 974]   3.5)
  5( 12[ 350]9999.0)
 TTTTTTTTTTTTTTTTTTTTTTTTTTTTTT INT_CALC    TELAPSE       12.16 TCPU       12.15
 EEEEEEEEEE INT_CALC TERMINATION  DATE 19 02 2026 TIME 18:21:48.3

 *******************************************************************************
 cof-1_z35_L000_incl                                                             
 CRYSTAL - SCF - TYPE OF CALCULATION :  RESTRICTED CLOSED SHELL
 *******************************************************************************

 CAPPA:IS1  2;IS2  2;IS3  8; K PTS MONK NET  20; SYMMOPS:K SPACE   2;G SPACE   1

 TTTTTTTTTTTTTTTTTTTTTTTTTTTTTT SDIK        TELAPSE       12.75 TCPU       20.11

 AAAAAAAAAAAAAAAAAAAAAAAAAAAAAAAAAAAAAAAAAAAAAAAAAAAAAAAAAAAAAAAAAAAAAAAAAAAAAAA
         ATOMIC WAVEFUNCTION(S)


 NUCLEAR CHARGE  5.0  SYMMETRY SPECIES            S    P
 N. ELECTRONS    5.0  NUMBER OF PRIMITIVE GTOS    8    4
                      NUMBER OF CONTRACTED GTOS   4    2
                      NUMBER OF CLOSED SHELLS     2    0
                      OPEN SHELL OCCUPATION       0    1

  ZNUC  SCFIT    TOTAL HF ENERGY   KINETIC ENERGY   VIRIAL THEOREM ACCURACY
   5.0    11    -2.451164084E+01  2.462155050E+01 -1.995536038E+00  1.5E-06

 NUCLEAR CHARGE  1.0  SYMMETRY SPECIES            S
 N. ELECTRONS    1.0  NUMBER OF PRIMITIVE GTOS    4
                      NUMBER OF CONTRACTED GTOS   2
                      NUMBER OF CLOSED SHELLS     0
                      OPEN SHELL OCCUPATION       1

  ZNUC  SCFIT    TOTAL HF ENERGY   KINETIC ENERGY   VIRIAL THEOREM ACCURACY
   1.0     1    -4.977266687E-01  5.190767460E-01 -1.958869132E+00  0.0E+00

 NUCLEAR CHARGE  6.0  SYMMETRY SPECIES            S    P
 N. ELECTRONS    6.0  NUMBER OF PRIMITIVE GTOS    8    4
                      NUMBER OF CONTRACTED GTOS   4    2
                      NUMBER OF CLOSED SHELLS     2    0
                      OPEN SHELL OCCUPATION       0    2

  ZNUC  SCFIT    TOTAL HF ENERGY   KINETIC ENERGY   VIRIAL THEOREM ACCURACY
   6.0     9    -3.766704647E+01  3.775180683E+01 -1.997754800E+00  1.1E-06

 NUCLEAR CHARGE  8.0  SYMMETRY SPECIES            S    P
 N. ELECTRONS    8.0  NUMBER OF PRIMITIVE GTOS    8    4
                      NUMBER OF CONTRACTED GTOS   4    2
                      NUMBER OF CLOSED SHELLS     2    0
                      OPEN SHELL OCCUPATION       0    4

  ZNUC  SCFIT    TOTAL HF ENERGY   KINETIC ENERGY   VIRIAL THEOREM ACCURACY
   8.0    12    -7.477373220E+01  7.477365593E+01 -2.000001020E+00  3.8E-06

 AAAAAAAAAAAAAAAAAAAAAAAAAAAAAAAAAAAAAAAAAAAAAAAAAAAAAAAAAAAAAAAAAAAAAAAAAAAAAAA

 CHARGE NORMALIZATION FACTOR   1.00000000
 TOTAL ATOMIC CHARGES:
   5.0000000   5.0000000   5.0000000   5.0000000   5.0000000   5.0000000
   1.0000000   1.0000000   1.0000000   1.0000000   1.0000000   1.0000000
   1.0000000   1.0000000   1.0000000   1.0000000   1.0000000   1.0000000
   6.0000000   6.0000000   6.0000000   6.0000000   6.0000000   6.0000000
   6.0000000   6.0000000   6.0000000   6.0000000   6.0000000   6.0000000
   6.0000000   6.0000000   6.0000000   6.0000000   6.0000000   6.0000000
   8.0000000   8.0000000   8.0000000   8.0000000   8.0000000   8.0000000
 TTTTTTTTTTTTTTTTTTTTTTTTTTTTTT MOQGAD      TELAPSE       12.80 TCPU       21.86
 TTTTTTTTTTTTTTTTTTTTTTTTTTTTTT SHELLXN     TELAPSE       23.52 TCPU      364.56
 TTTTTTTTTTTTTTTTTTTTTTTTTTTTTT MONMO3      TELAPSE       23.71 TCPU      370.43
 NUMERICALLY INTEGRATED DENSITY    198.0000213816
 TTTTTTTTTTTTTTTTTTTTTTTTTTTTTT NUMDFT      TELAPSE       24.33 TCPU      390.31
 CYC   0 ETOT(AU) -1.295986647403E+03 DETOT -1.30E+03 tst  0.00E+00 PX  1.00E+00
 TTTTTTTTTTTTTTTTTTTTTTTTTTTTTT DIIS        TELAPSE       24.36 TCPU      391.40
 TTTTTTTTTTTTTTTTTTTTTTTTTTTTTT FDIK        TELAPSE       24.83 TCPU      406.36
 INSULATING STATE
 TOP OF VALENCE BANDS -    BAND     99; K    1; EIG -2.9175286E-01 AU
 BOTTOM OF VIRTUAL BANDS - BAND    100; K   17; EIG -1.8259871E-01 AU
 INDIRECT ENERGY BAND GAP:   2.9702 eV
 BOTTOM OF VIRTUAL BANDS - BAND    100; K    1; EIG -1.2672385E-01 AU
 TTTTTTTTTTTTTTTTTTTTTTTTTTTTTT PDIG        TELAPSE       25.11 TCPU      412.50
 CHARGE NORMALIZATION FACTOR   1.00000000
 TOTAL ATOMIC CHARGES:
   4.1167907   4.1166557   4.1169074   4.1166872   4.1165296   4.1166863
   0.7864143   0.7865244   0.7863721   0.7864861   0.7863943   0.7865542
   0.7863852   0.7865164   0.7863716   0.7865539   0.7863664   0.7865185
   6.0587433   6.2730153   6.2729641   6.2729526   6.2728603   6.0579408
   6.0588238   6.2729655   6.2730385   6.2729094   6.2730590   6.0574664
   6.0591228   6.2726868   6.2732495   6.2726065   6.2732364   6.0574294
   8.7059549   8.7060537   8.7059984   8.7063347   8.7063631   8.7065103
 TTTTTTTTTTTTTTTTTTTTTTTTTTTTTT MOQGAD      TELAPSE       25.17 TCPU      412.56
 TTTTTTTTTTTTTTTTTTTTTTTTTTTTTT SHELLXN     TELAPSE       36.27 TCPU      766.66
 TTTTTTTTTTTTTTTTTTTTTTTTTTTTTT MONMO3      TELAPSE       36.45 TCPU      772.51
 NUMERICALLY INTEGRATED DENSITY    198.0000053550
 TTTTTTTTTTTTTTTTTTTTTTTTTTTTTT NUMDFT      TELAPSE       37.08 TCPU      792.74
 CYC   1 ETOT(AU) -1.288799125743E+03 DETOT  7.19E+00 tst  0.00E+00 PX  1.00E+00
 TTTTTTTTTTTTTTTTTTTTTTTTTTTTTT DIIS        TELAPSE       37.13 TCPU      794.07
 DIIS TEST: 0.11243E+01 AT SCF   CYCLE   1 - MIX   30 %
 TTTTTTTTTTTTTTTTTTTTTTTTTTTTTT FDIK        TELAPSE       37.60 TCPU      809.25
 INSULATING STATE
 TOP OF VALENCE BANDS -    BAND     99; K    1; EIG -1.8826384E-01 AU
 BOTTOM OF VIRTUAL BANDS - BAND    100; K   17; EIG -1.0684829E-01 AU
 INDIRECT ENERGY BAND GAP:   2.2154 eV
 BOTTOM OF VIRTUAL BANDS - BAND    100; K    1; EIG -4.1192977E-02 AU
 TTTTTTTTTTTTTTTTTTTTTTTTTTTTTT PDIG        TELAPSE       37.88 TCPU      815.39
 CHARGE NORMALIZATION FACTOR   1.00000000
 TOTAL ATOMIC CHARGES:
   4.6901457   4.6900636   4.6900506   4.6907444   4.6907906   4.6908713
   0.9252530   0.9253167   0.9252367   0.9252679   0.9252562   0.9253374
   0.9252475   0.9253049   0.9252139   0.9253454   0.9252026   0.9253350
   5.8663510   6.1207227   6.1213084   6.1206233   6.1212943   5.8692846
   5.8661992   6.1204176   6.1212990   6.1206942   6.1212076   5.8696818
   5.8663139   6.1206772   6.1211386   6.1209200   6.1210727   5.8694336
   8.3490807   8.3494697   8.3494493   8.3489193   8.3490917   8.3493663
 TTTTTTTTTTTTTTTTTTTTTTTTTTTTTT MOQGAD      TELAPSE       37.94 TCPU      815.44
 TTTTTTTTTTTTTTTTTTTTTTTTTTTTTT SHELLXN     TELAPSE       49.03 TCPU     1169.41
 TTTTTTTTTTTTTTTTTTTTTTTTTTTTTT MONMO3      TELAPSE       49.22 TCPU     1175.26
 NUMERICALLY INTEGRATED DENSITY    198.0000135293
 TTTTTTTTTTTTTTTTTTTTTTTTTTTTTT NUMDFT      TELAPSE       49.85 TCPU     1195.45
 CYC   2 ETOT(AU) -1.288992013027E+03 DETOT -1.93E-01 tst  4.46E-03 PX  1.56E-01
 TTTTTTTTTTTTTTTTTTTTTTTTTTTTTT DIIS        TELAPSE       49.90 TCPU     1196.95
 DIIS TEST: 0.50644E+00 AT SCF   CYCLE   2 - DIIS ACTIVE - HISTORY:     2 CYCLES
 TTTTTTTTTTTTTTTTTTTTTTTTTTTTTT FDIK        TELAPSE       50.37 TCPU     1212.13
 INSULATING STATE
 TOP OF VALENCE BANDS -    BAND     99; K    1; EIG -2.0717216E-01 AU
 BOTTOM OF VIRTUAL BANDS - BAND    100; K   17; EIG -1.0145177E-01 AU
 INDIRECT ENERGY BAND GAP:   2.8768 eV
 BOTTOM OF VIRTUAL BANDS - BAND    100; K    1; EIG -3.3490493E-02 AU
 TTTTTTTTTTTTTTTTTTTTTTTTTTTTTT PDIG        TELAPSE       50.66 TCPU     1218.27
 CHARGE NORMALIZATION FACTOR   1.00000000
 TOTAL ATOMIC CHARGES:
   4.4657564   4.4655566   4.4656753   4.4649823   4.4648373   4.4649044
   0.8943175   0.8944191   0.8942940   0.8943862   0.8942663   0.8944949
   0.8943259   0.8943958   0.8942831   0.8944489   0.8943330   0.8943963
   5.8997633   6.1669889   6.1660522   6.1669725   6.1659622   5.8976655
   5.9000062   6.1670048   6.1659909   6.1670562   6.1659847   5.8971996
   5.9001549   6.1668794   6.1661327   6.1668955   6.1660670   5.8971958
   8.5142028   8.5143457   8.5143491   8.5142744   8.5143255   8.5144570
 TTTTTTTTTTTTTTTTTTTTTTTTTTTTTT MOQGAD      TELAPSE       50.71 TCPU     1218.33
 TTTTTTTTTTTTTTTTTTTTTTTTTTTTTT SHELLXN     TELAPSE       61.81 TCPU     1572.51
 TTTTTTTTTTTTTTTTTTTTTTTTTTTTTT MONMO3      TELAPSE       62.00 TCPU     1578.36
 NUMERICALLY INTEGRATED DENSITY    198.0000100090
 TTTTTTTTTTTTTTTTTTTTTTTTTTTTTT NUMDFT      TELAPSE       62.63 TCPU     1598.60
 CYC   3 ETOT(AU) -1.289098951976E+03 DETOT -1.07E-01 tst  7.09E-04 PX  5.67E-02
 TTTTTTTTTTTTTTTTTTTTTTTTTTTTTT DIIS        TELAPSE       62.68 TCPU     1600.26
 DIIS TEST: 0.97781E-02 AT SCF   CYCLE   3 - DIIS ACTIVE - HISTORY:     3 CYCLES
 TTTTTTTTTTTTTTTTTTTTTTTTTTTTTT FDIK        TELAPSE       63.16 TCPU     1615.47
 INSULATING STATE
 TOP OF VALENCE BANDS -    BAND     99; K    1; EIG -2.1550420E-01 AU
 BOTTOM OF VIRTUAL BANDS - BAND    100; K   17; EIG -1.1219792E-01 AU
 INDIRECT ENERGY BAND GAP:   2.8111 eV
 BOTTOM OF VIRTUAL BANDS - BAND    100; K    1; EIG -4.5599686E-02 AU
 TTTTTTTTTTTTTTTTTTTTTTTTTTTTTT PDIG        TELAPSE       63.44 TCPU     1621.61
 CHARGE NORMALIZATION FACTOR   1.00000000
 TOTAL ATOMIC CHARGES:
   4.4748375   4.4747255   4.4747881   4.4759327   4.4758503   4.4759643
   0.8794390   0.8794749   0.8794246   0.8794271   0.8794454   0.8795006
   0.8794658   0.8794359   0.8794230   0.8794869   0.8794366   0.8794606
   5.9524456   6.1579708   6.1599697   6.1579224   6.1599938   5.9586522
   5.9521239   6.1577200   6.1600950   6.1577552   6.1601640   5.9589342
   5.9523986   6.1578037   6.1600816   6.1577911   6.1601171   5.9586925
   8.4920257   8.4923476   8.4923337   8.4922104   8.4923070   8.4926253
 TTTTTTTTTTTTTTTTTTTTTTTTTTTTTT MOQGAD      TELAPSE       63.49 TCPU     1621.67
 TTTTTTTTTTTTTTTTTTTTTTTTTTTTTT SHELLXN     TELAPSE       74.60 TCPU     1976.00
 TTTTTTTTTTTTTTTTTTTTTTTTTTTTTT MONMO3      TELAPSE       74.78 TCPU     1981.85
 NUMERICALLY INTEGRATED DENSITY    198.0000097904
 TTTTTTTTTTTTTTTTTTTTTTTTTTTTTT NUMDFT      TELAPSE       75.42 TCPU     2002.10
 CYC   4 ETOT(AU) -1.289100880536E+03 DETOT -1.93E-03 tst  3.42E-05 PX  1.32E-02
 TTTTTTTTTTTTTTTTTTTTTTTTTTTTTT DIIS        TELAPSE       75.47 TCPU     2003.93
 DIIS TEST: 0.35772E-02 AT SCF   CYCLE   4 - DIIS ACTIVE - HISTORY:     4 CYCLES
 TTTTTTTTTTTTTTTTTTTTTTTTTTTTTT FDIK        TELAPSE       75.95 TCPU     2019.15
 INSULATING STATE
 TOP OF VALENCE BANDS -    BAND     99; K    1; EIG -2.1476291E-01 AU
 BOTTOM OF VIRTUAL BANDS - BAND    100; K   17; EIG -1.1049547E-01 AU
 INDIRECT ENERGY BAND GAP:   2.8373 eV
 BOTTOM OF VIRTUAL BANDS - BAND    100; K    1; EIG -4.3545708E-02 AU
 TTTTTTTTTTTTTTTTTTTTTTTTTTTTTT PDIG        TELAPSE       76.23 TCPU     2025.28
 CHARGE NORMALIZATION FACTOR   1.00000000
 TOTAL ATOMIC CHARGES:
   4.4765656   4.4763807   4.4764855   4.4754645   4.4753468   4.4754219
   0.8819007   0.8820856   0.8818742   0.8820541   0.8818580   0.8821572
   0.8818902   0.8820811   0.8818588   0.8821236   0.8818847   0.8820866
   5.9290300   6.1683484   6.1660611   6.1683336   6.1660026   5.9233948
   5.9293124   6.1683210   6.1659976   6.1684867   6.1659089   5.9229875
   5.9294124   6.1682575   6.1661054   6.1683953   6.1659613   5.9229686
   8.4995124   8.4996760   8.4996641   8.4993494   8.4994284   8.4995648
 TTTTTTTTTTTTTTTTTTTTTTTTTTTTTT MOQGAD      TELAPSE       76.29 TCPU     2025.34
 TTTTTTTTTTTTTTTTTTTTTTTTTTTTTT SHELLXN     TELAPSE       87.39 TCPU     2379.53
 TTTTTTTTTTTTTTTTTTTTTTTTTTTTTT MONMO3      TELAPSE       87.57 TCPU     2385.38
 NUMERICALLY INTEGRATED DENSITY    198.0000099481
 TTTTTTTTTTTTTTTTTTTTTTTTTTTTTT NUMDFT      TELAPSE       88.20 TCPU     2405.59
 CYC   5 ETOT(AU) -1.289101640226E+03 DETOT -7.60E-04 tst  8.94E-06 PX  8.07E-03
 TTTTTTTTTTTTTTTTTTTTTTTTTTTTTT DIIS        TELAPSE       88.27 TCPU     2407.62
 DIIS TEST: 0.26303E-03 AT SCF   CYCLE   5 - DIIS ACTIVE - HISTORY:     5 CYCLES
 TTTTTTTTTTTTTTTTTTTTTTTTTTTTTT FDIK        TELAPSE       88.74 TCPU     2422.84
 INSULATING STATE
 TOP OF VALENCE BANDS -    BAND     99; K    1; EIG -2.1435733E-01 AU
 BOTTOM OF VIRTUAL BANDS - BAND    100; K   17; EIG -1.1003822E-01 AU
 INDIRECT ENERGY BAND GAP:   2.8387 eV
 BOTTOM OF VIRTUAL BANDS - BAND    100; K    1; EIG -4.3069084E-02 AU
 TTTTTTTTTTTTTTTTTTTTTTTTTTTTTT PDIG        TELAPSE       89.02 TCPU     2428.98
 CHARGE NORMALIZATION FACTOR   1.00000000
 TOTAL ATOMIC CHARGES:
   4.4745868   4.4744564   4.4745256   4.4762280   4.4761411   4.4762394
   0.8831702   0.8831183   0.8831542   0.8830765   0.8831587   0.8831595
   0.8831977   0.8830781   0.8831492   0.8831376   0.8831806   0.8830963
   5.9234657   6.1634683   6.1670989   6.1634335   6.1670650   5.9338502
   5.9232159   6.1633069   6.1671652   6.1632429   6.1673037   5.9339858
   5.9234872   6.1633324   6.1671862   6.1632094   6.1672982   5.9337927
   8.4988282   8.4991214   8.4991258   8.4992449   8.4993109   8.4996065
 TTTTTTTTTTTTTTTTTTTTTTTTTTTTTT MOQGAD      TELAPSE       89.08 TCPU     2429.03
 TTTTTTTTTTTTTTTTTTTTTTTTTTTTTT SHELLXN     TELAPSE      100.18 TCPU     2783.05
 TTTTTTTTTTTTTTTTTTTTTTTTTTTTTT MONMO3      TELAPSE      100.36 TCPU     2788.90
 NUMERICALLY INTEGRATED DENSITY    198.0000099575
 TTTTTTTTTTTTTTTTTTTTTTTTTTTTTT NUMDFT      TELAPSE      100.99 TCPU     2809.11
 CYC   6 ETOT(AU) -1.289101606845E+03 DETOT  3.34E-05 tst  4.75E-06 PX  2.57E-03
 TTTTTTTTTTTTTTTTTTTTTTTTTTTTTT DIIS        TELAPSE      101.06 TCPU     2811.26
 DIIS TEST: 0.37179E-03 AT SCF   CYCLE   6 - DIIS ACTIVE - HISTORY:     6 CYCLES
 TTTTTTTTTTTTTTTTTTTTTTTTTTTTTT FDIK        TELAPSE      101.54 TCPU     2826.46
 INSULATING STATE
 TOP OF VALENCE BANDS -    BAND     99; K    1; EIG -2.1435912E-01 AU
 BOTTOM OF VIRTUAL BANDS - BAND    100; K   17; EIG -1.1004975E-01 AU
 INDIRECT ENERGY BAND GAP:   2.8384 eV
 BOTTOM OF VIRTUAL BANDS - BAND    100; K    1; EIG -4.3084313E-02 AU
 TTTTTTTTTTTTTTTTTTTTTTTTTTTTTT PDIG        TELAPSE      101.82 TCPU     2832.60
 CHARGE NORMALIZATION FACTOR   1.00000000
 TOTAL ATOMIC CHARGES:
   4.4755590   4.4754055   4.4754907   4.4754334   4.4753317   4.4754220
   0.8831240   0.8832333   0.8831051   0.8831938   0.8831038   0.8832832
   0.8831363   0.8832077   0.8830978   0.8832564   0.8831224   0.8832215
   5.9295721   6.1650255   6.1647808   6.1649883   6.1647526   5.9295930
   5.9295487   6.1648939   6.1648150   6.1649722   6.1648184   5.9295037
   5.9297523   6.1648830   6.1648748   6.1649227   6.1648304   5.9293763
   8.4987355   8.4989669   8.4989598   8.4987765   8.4988543   8.4990758
 TTTTTTTTTTTTTTTTTTTTTTTTTTTTTT MOQGAD      TELAPSE      101.87 TCPU     2832.65
 TTTTTTTTTTTTTTTTTTTTTTTTTTTTTT SHELLXN     TELAPSE      112.97 TCPU     3186.72
 TTTTTTTTTTTTTTTTTTTTTTTTTTTTTT MONMO3      TELAPSE      113.16 TCPU     3192.57
 NUMERICALLY INTEGRATED DENSITY    198.0000099532
 TTTTTTTTTTTTTTTTTTTTTTTTTTTTTT NUMDFT      TELAPSE      113.79 TCPU     3212.78
 CYC   7 ETOT(AU) -1.289101705410E+03 DETOT -9.86E-05 tst  1.94E-06 PX  1.52E-03
 TTTTTTTTTTTTTTTTTTTTTTTTTTTTTT DIIS        TELAPSE      113.86 TCPU     3215.18
 DIIS TEST: 0.30481E-05 AT SCF   CYCLE   7 - DIIS ACTIVE - HISTORY:     7 CYCLES
 TTTTTTTTTTTTTTTTTTTTTTTTTTTTTT FDIK        TELAPSE      114.34 TCPU     3230.38
 INSULATING STATE
 TOP OF VALENCE BANDS -    BAND     99; K    1; EIG -2.1443453E-01 AU
 BOTTOM OF VIRTUAL BANDS - BAND    100; K   17; EIG -1.1013566E-01 AU
 INDIRECT ENERGY BAND GAP:   2.8381 eV
 BOTTOM OF VIRTUAL BANDS - BAND    100; K    1; EIG -4.3165702E-02 AU
 TTTTTTTTTTTTTTTTTTTTTTTTTTTTTT PDIG        TELAPSE      114.62 TCPU     3236.52
 CHARGE NORMALIZATION FACTOR   1.00000000
 TOTAL ATOMIC CHARGES:
   4.4757654   4.4755991   4.4756918   4.4757459   4.4756380   4.4757219
   0.8829686   0.8830573   0.8829460   0.8830216   0.8829375   0.8831178
   0.8829719   0.8830402   0.8829344   0.8830884   0.8829619   0.8830504
   5.9288184   6.1651341   6.1651850   6.1651124   6.1651397   5.9295383
   5.9289136   6.1650560   6.1651682   6.1651491   6.1651536   5.9293286
   5.9290733   6.1650273   6.1652446   6.1650818   6.1651835   5.9292452
   8.4987094   8.4989211   8.4989128   8.4987653   8.4988430   8.4990375
 TTTTTTTTTTTTTTTTTTTTTTTTTTTTTT MOQGAD      TELAPSE      114.68 TCPU     3236.57
 TTTTTTTTTTTTTTTTTTTTTTTTTTTTTT SHELLXN     TELAPSE      125.78 TCPU     3590.73
 TTTTTTTTTTTTTTTTTTTTTTTTTTTTTT MONMO3      TELAPSE      125.97 TCPU     3596.59
 NUMERICALLY INTEGRATED DENSITY    198.0000099513
 TTTTTTTTTTTTTTTTTTTTTTTTTTTTTT NUMDFT      TELAPSE      126.60 TCPU     3616.82
 CYC   8 ETOT(AU) -1.289101706222E+03 DETOT -8.12E-07 tst  7.12E-09 PX  1.80E-04
 TTTTTTTTTTTTTTTTTTTTTTTTTTTTTT DIIS        TELAPSE      126.68 TCPU     3619.31
 DIIS TEST: 0.64728E-07 AT SCF   CYCLE   8 - DIIS ACTIVE - HISTORY:     8 CYCLES
 TTTTTTTTTTTTTTTTTTTTTTTTTTTTTT FDIK        TELAPSE      127.15 TCPU     3634.53
 INSULATING STATE
 TOP OF VALENCE BANDS -    BAND     99; K    1; EIG -2.1442086E-01 AU
 BOTTOM OF VIRTUAL BANDS - BAND    100; K   17; EIG -1.1013448E-01 AU
 INDIRECT ENERGY BAND GAP:   2.8378 eV
 BOTTOM OF VIRTUAL BANDS - BAND    100; K    1; EIG -4.3162533E-02 AU
 TTTTTTTTTTTTTTTTTTTTTTTTTTTTTT PDIG        TELAPSE      127.44 TCPU     3640.66
 CHARGE NORMALIZATION FACTOR   1.00000000
 TOTAL ATOMIC CHARGES:
   4.4757123   4.4755660   4.4756463   4.4756861   4.4755895   4.4756815
   0.8829766   0.8830809   0.8829584   0.8830408   0.8829587   0.8831285
   0.8829924   0.8830515   0.8829515   0.8831029   0.8829776   0.8830665
   5.9290002   6.1651321   6.1650726   6.1650958   6.1650430   5.9295113
   5.9289192   6.1649929   6.1651150   6.1650350   6.1651541   5.9294790
   5.9291387   6.1649919   6.1651644   6.1649904   6.1651609   5.9293360
   8.4987370   8.4989833   8.4989799   8.4988039   8.4988778   8.4991172
 TTTTTTTTTTTTTTTTTTTTTTTTTTTTTT MOQGAD      TELAPSE      127.49 TCPU     3640.72
 TTTTTTTTTTTTTTTTTTTTTTTTTTTTTT SHELLXN     TELAPSE      138.59 TCPU     3994.65
 +++ ENERGIES IN A.U. +++
 ::: EXT EL-POLE                                  -1.4473181900121E+03
 ::: EXT EL-SPHEROPOLE                             1.6348734025148E+01
 ::: BIELET ZONE E-E                               2.4105136453702E+03
 ::: TOTAL E-E                                     9.7954418938334E+02
 ::: TOTAL E-N + N-E                              -3.7840871683815E+03
 ::: TOTAL N-N                                     3.6917665493381E+02
 ::: KINETIC ENERGY                                1.2799922835109E+03
 ::: PSEUDO TOTAL   ENERGY                        -1.1553740405535E+03
 ::: VIRIAL COEFFICIENT                            1.0511702250811E+00
 TTTTTTTTTTTTTTTTTTTTTTTTTTTTTT MONMO3      TELAPSE      138.77 TCPU     4000.50
 NUMERICALLY INTEGRATED DENSITY    198.0000099503
 EXCHANGE ENERGY: -0.126022715007E+03  CORRELATION ENERGY: -0.770495061854E+01
 TTTTTTTTTTTTTTTTTTTTTTTTTTTTTT NUMDFT      TELAPSE      139.41 TCPU     4020.71
 CYC   9 ETOT(AU) -1.289101706179E+03 DETOT  4.29E-08 tst  3.89E-10 PX  1.80E-04

 == SCF ENDED - CONVERGENCE ON ENERGY      E(AU) -1.2891017061787E+03 CYCLES   9


 ENERGY EXPRESSION=HARTREE+FOCK EXCH*0.00000+(HSESOL     EXCH)*1.00000+PBESOL     CORR


 TOTAL ENERGY(DFT)(AU)(  9) -1.2891017061787E+03 DE 4.3E-08 tester 3.9E-10
 TTTTTTTTTTTTTTTTTTTTTTTTTTTTTT EDFT        TELAPSE      139.41 TCPU     4020.72
 
 INFORMATION **** DFTD3 ENERGY **** CALCULATE DFTD3 ENERGY

           DFT-D V3(BJ)
 DF                                         hsesol3c  
 parameters
 s6       :    1.0000
 s8       :    0.0000
 a1       :    0.5196
 a2       :    4.9385
 k1 k3    :   16.0000   -4.0000
 Cutoff   :   50.2022
 CN-Cutoff:   21.1671
 ABC-Cutoff:   21.1671
 
 Edisp /kcal,au:   -30.7005 -0.04892435

 E6    /kcal :   -32.8894
 E8    /kcal :     0.0000
 E6(ABC) "   :   2.188861
 
 INFORMATION **** DFTD3 ENERGY **** NORMAL TERMINATION OF DFTD3 MODULE

 GCP ENERGY CALCULATION
  level        hsesol3c            basis:hsesol3c
  Nbf            474
  Atoms           42

  Parameters: 
  sigma     1.0000
  eta       1.4281
  alpha     0.2936
  beta      1.9467

  dmp_scal      4.0000
  dmp_exp       6.0000
 cutoffs: 
   distance [bohr] 60.0
   noise    [a.u.] 2.2E-16
 SR-damping   T
 ** gCP correction **
  Egcp:        0.0837738680 / (a.u.) ||      52.5689 / (kcal/mol)
 INFORMATION **** GCP **** NORMAL TERMINATION OF GCP MODULE

 *******************************************************************************

 DFT-D3-GCP DISPERSION AND COUNTERPOISE CORRECTION

 D3 DISPERSION ENERGY (AU)      -4.8924347521323E-02
 GCP ENERGY (AU)                 8.3773867976969E-02
 TOTAL ENERGY + DISP + GCP (AU) -1.2890668566583E+03

 *******************************************************************************

 EIGENVECTORS IN FORTRAN UNIT 10
 TTTTTTTTTTTTTTTTTTTTTTTTTTTTTT END         TELAPSE      140.78 TCPU     4028.07
 EEEEEEEEEE TERMINATION  DATE 19 02 2026 TIME 18:23:56.9
