 Default number of threads is:           32

         
 *******************************************************************************
 *                                                                             *
 *                               CRYSTAL23                                     *
 *                      public : 1.0.1 - October 2022                          *
 *                       HTTP://WWW.CRYSTAL.UNITO.IT                           *
 *                                                                             *
 *                              MAIN AUTHORS                                   *
 *                                                                             *
 *  R. DOVESI(1,11), V.R. SAUNDERS(2), C. ROETTI(1,11), R. ORLANDO(1,11),      *
 *  C.M. ZICOVICH-WILSON(1,3), F. PASCALE(4), B. CIVALLERI(1,11),              *
 *  K. DOLL(5), N.M. HARRISON(6), I.J. BUSH(7), Ph. D'ARCO(8),                 *
 *  M. LLUNELL(9), M. CAUSA'(10), Y. NOEL(8), L. MASCHIO(1,11), A. ERBA(1,11)  *
 *  M. RE'RAT(14), S. CASASSA(1,11), B.G. SEARLE(2), J.K. DESMARAIS(1)         *
 *                                                                             *
 *        CONTRIBUTIONS TO THE CODE HAVE ALSO BEEN GIVEN BY                    *
 *                                                                             *
 *  M. FERRABONE(1,11), M. DE LA PIERRE(1,11), M. FERRERO(1,11),               *
 *  J. BAIMA(1,11), E. ALBANESE(1,11), M.F. PEINTINGER(12), R. BAST(13),       *
 *  B. KIRTMAN(15), V. LACIVITA(1,11), R. DEMICHELIS(1,16)                     *
 *  G. BRANDEBURG(17), S. SALUSTRO(1,11), G. SANSONE(1,11)                     *
 *  M.T. RUGGIERO(18), L.E. DAGA(1), L. DONA'(1), A. COSSARD(1)                *
 *                                                                             *
 * (1) THEORETICAL CHEMISTRY GROUP - UNIVERSITA' DI TORINO - TORINO (ITALY)    *
 * (2) SCIENTIFIC COMPUTING DEPARTMENT - STFC DARESBURY (UK)                   *
 * (3) UNIVERSIDAD AUTONOMA DEL ESTADO DE MORELOS - CUERNAVACA (MEXICO)        *
 * (4) UNIVERSITE' DE LORRAINE - NANCY (FRANCE)                                *
 * (5) UNIVERSITAET STUTTGART- STUTTGART (GERMANY)                             *
 * (6) IMPERIAL COLLEGE - LONDON (UK)                                          *
 * (7) SCIENTIFIC COMPUTING DEPARTMENT - STFC RAL (UK)                         *
 * (8) UPMC - SORBONNE UNIVERSITES - PARIS (FRANCE)                            *
 * (9) UNIVERSIDAD DE BARCELONA - BARCELONA (SPAIN)                            *
 *(10) UNIVERSITA' DI NAPOLI "FEDERICO II" - NAPOLI (ITALY)                    *
 *(11) NIS - NANOSTRUCTURED INTERFACES AND SURFACES - TORINO (ITALY)           *
 *(12) MPI FUER CHEMISCHE ENERGIEKONVERSION - MUELHEIM AN DER RUHR (GERMANY)   *
 *(13) UNIVERSITY OF TROMSO - TROMSO (NORWAY)                                  *
 *(14) UNIVERSITE' DE PAU ET DES PAYS DE L'ADOUR - PAU (FRANCE)                *
 *(15) UNIVERSITY OF CALIFORNIA SANTA BARBARA - SANTA BARBARA (USA)            *
 *(16) CURTIN UNIVERSITY - PERTH (AUSTRALIA)                                   *
 *(17) UNIVERSITY COLLEGE LONDON - LONDON (UK)                                 *
 *(18) UNIVERSITY OF VERMONT - BURLINGTON (USA)                                *
 *                                                                             *
 *******************************************************************************
 EEEEEEEEEE STARTING  DATE 19 02 2026 TIME 19:05:37.9
 cof-1_z40_L010_incl                                                             

 CRYSTAL CALCULATION
 (INPUT ACCORDING TO THE INTERNATIONAL TABLES FOR X-RAY CRYSTALLOGRAPHY)
 CRYSTAL FAMILY                       :  TRICLINIC   
 CRYSTAL CLASS  (GROTH - 1921)        :  TRICLINIC PEDIAL                     

 SPACE GROUP (NONCENTROSYMMETRIC)     :  P 1             

 LATTICE PARAMETERS  (ANGSTROMS AND DEGREES) - CONVENTIONAL CELL
        A           B           C        ALPHA        BETA       GAMMA
    15.02361    15.02392     4.12311    77.87501    89.99994   119.99596


 NUMBER OF IRREDUCIBLE ATOMS IN THE CONVENTIONAL CELL:   42

 INPUT COORDINATES

 ATOM AT. N.              COORDINATES
   1   5     5.944230500000E-01  1.887993200000E-01  5.011934400000E-01
   2   5     7.534787000000E-01  3.478589700000E-01  5.011934600000E-01
   3   5     5.945152500000E-01  3.480347300000E-01  4.986826600000E-01
   4   5     2.079977600000E-01  5.751143100000E-01  5.011934500000E-01
   5   5     3.671057300000E-01  5.750935400000E-01  5.011934500000E-01
   6   5     3.671824800000E-01  7.344257100000E-01  4.986826600000E-01
   7   1     8.839861300000E-01  2.708112000000E-01  4.959880600000E-01
   8   1     7.760763000000E-02  6.529957700000E-01  4.951920800000E-01
   9   1     8.839492200000E-01  5.560241700000E-01  4.950695800000E-01
  10   1     7.771281000000E-02  3.676343300000E-01  4.951001300000E-01
  11   1     6.716666700000E-01  5.826871000000E-02  5.040104800000E-01
  12   1     2.895334000000E-01  8.646407200000E-01  5.048065300000E-01
  13   1     3.864689600000E-01  5.824397000000E-02  5.049291100000E-01
  14   1     5.749123600000E-01  8.645436800000E-01  5.048983500000E-01
  15   1     6.720152500000E-01  5.559353600000E-01  4.959881100000E-01
  16   1     2.899349300000E-01  3.675516600000E-01  4.951920300000E-01
  17   1     3.868183800000E-01  2.707750000000E-01  4.950694800000E-01
  18   1     5.752675100000E-01  6.529073200000E-01  4.951002300000E-01
  19   6     8.727328200000E-01  4.076248100000E-01  4.985907900000E-01
  20   6     9.274269200000E-01  3.546573700000E-01  4.961105600000E-01
  21   6     3.433416000000E-02  5.690735000000E-01  4.958963000000E-01
  22   6     9.273734400000E-01  5.155309800000E-01  4.965393100000E-01
  23   6     3.441121000000E-02  4.082158400000E-01  4.948857900000E-01
  24   6     8.895605000000E-02  5.158720600000E-01  4.965699000000E-01
  25   6     5.347736900000E-01  6.963308000000E-02  5.014078000000E-01
  26   6     5.878168200000E-01  1.482995000000E-02  5.038879700000E-01
  27   6     3.734294100000E-01  9.079207000000E-01  5.041023100000E-01
  28   6     4.269430200000E-01  1.490981000000E-02  5.034593200000E-01
  29   6     5.343087600000E-01  9.078034400000E-01  5.051127300000E-01
  30   6     4.265845300000E-01  8.533013700000E-01  5.034286700000E-01
  31   6     5.348873800000E-01  4.075556700000E-01  4.985907800000E-01
  32   6     5.881480200000E-01  5.154975100000E-01  4.961106100000E-01
  33   6     3.737694100000E-01  4.080602400000E-01  4.958962500000E-01
  34   6     4.272085900000E-01  3.545287800000E-01  4.965392400000E-01
  35   6     5.347278200000E-01  5.690638600000E-01  4.948858600000E-01
  36   6     4.268801400000E-01  5.157946600000E-01  4.965699000000E-01
  37   8     5.415497800000E-01  2.419929200000E-01  4.993562700000E-01
  38   8     7.002912600000E-01  2.415935100000E-01  5.046534400000E-01
  39   8     7.005960500000E-01  4.011528300000E-01  4.966617800000E-01
  40   8     2.611376000000E-01  6.812734000000E-01  4.993563000000E-01
  41   8     2.609535300000E-01  5.219107900000E-01  5.046534300000E-01
  42   8     4.201804700000E-01  6.814647900000E-01  4.966617600000E-01

 *******************************************************************************

 << INFORMATION >>: FROM NOW ON, ALL COORDINATES REFER TO THE PRIMITIVE CELL

 *******************************************************************************

 LATTICE PARAMETERS  (ANGSTROMS AND DEGREES) - PRIMITIVE CELL
       A          B          C        ALPHA      BETA     GAMMA        VOLUME
   15.02361   15.02392    4.12311    77.87501  89.99994 119.99596    781.927421

 COORDINATES OF THE EQUIVALENT ATOMS (FRACTIONAL UNITS)

 N. ATOM EQUIV AT. N.          X                  Y                  Z

   1   1   1    5 B    -4.05576950000E-01  1.88799320000E-01 -4.98806560000E-01

   2   2   1    5 B    -2.46521300000E-01  3.47858970000E-01 -4.98806540000E-01

   3   3   1    5 B    -4.05484750000E-01  3.48034730000E-01  4.98682660000E-01

   4   4   1    5 B     2.07997760000E-01 -4.24885690000E-01 -4.98806550000E-01

   5   5   1    5 B     3.67105730000E-01 -4.24906460000E-01 -4.98806550000E-01

   6   6   1    5 B     3.67182480000E-01 -2.65574290000E-01  4.98682660000E-01

   7   7   1    1 H    -1.16013870000E-01  2.70811200000E-01  4.95988060000E-01

   8   8   1    1 H     7.76076300000E-02 -3.47004230000E-01  4.95192080000E-01

   9   9   1    1 H    -1.16050780000E-01 -4.43975830000E-01  4.95069580000E-01

  10  10   1    1 H     7.77128100000E-02  3.67634330000E-01  4.95100130000E-01

  11  11   1    1 H    -3.28333330000E-01  5.82687100000E-02 -4.95989520000E-01

  12  12   1    1 H     2.89533400000E-01 -1.35359280000E-01 -4.95193470000E-01

  13  13   1    1 H     3.86468960000E-01  5.82439700000E-02 -4.95070890000E-01

  14  14   1    1 H    -4.25087640000E-01 -1.35456320000E-01 -4.95101650000E-01

  15  15   1    1 H    -3.27984750000E-01 -4.44064640000E-01  4.95988110000E-01

  16  16   1    1 H     2.89934930000E-01  3.67551660000E-01  4.95192030000E-01

  17  17   1    1 H     3.86818380000E-01  2.70775000000E-01  4.95069480000E-01

  18  18   1    1 H    -4.24732490000E-01 -3.47092680000E-01  4.95100230000E-01

  19  19   1    6 C    -1.27267180000E-01  4.07624810000E-01  4.98590790000E-01

  20  20   1    6 C    -7.25730800000E-02  3.54657370000E-01  4.96110560000E-01

  21  21   1    6 C     3.43341600000E-02 -4.30926500000E-01  4.95896300000E-01

  22  22   1    6 C    -7.26265600000E-02 -4.84469020000E-01  4.96539310000E-01

  23  23   1    6 C     3.44112100000E-02  4.08215840000E-01  4.94885790000E-01

  24  24   1    6 C     8.89560500000E-02 -4.84127940000E-01  4.96569900000E-01

  25  25   1    6 C    -4.65226310000E-01  6.96330800000E-02 -4.98592200000E-01

  26  26   1    6 C    -4.12183180000E-01  1.48299500000E-02 -4.96112030000E-01

  27  27   1    6 C     3.73429410000E-01 -9.20793000000E-02 -4.95897690000E-01

  28  28   1    6 C     4.26943020000E-01  1.49098100000E-02 -4.96540680000E-01

  29  29   1    6 C    -4.65691240000E-01 -9.21965600000E-02 -4.94887270000E-01

  30  30   1    6 C     4.26584530000E-01 -1.46698630000E-01 -4.96571330000E-01

  31  31   1    6 C    -4.65112620000E-01  4.07555670000E-01  4.98590780000E-01

  32  32   1    6 C    -4.11851980000E-01 -4.84502490000E-01  4.96110610000E-01

  33  33   1    6 C     3.73769410000E-01  4.08060240000E-01  4.95896250000E-01

  34  34   1    6 C     4.27208590000E-01  3.54528780000E-01  4.96539240000E-01

  35  35   1    6 C    -4.65272180000E-01 -4.30936140000E-01  4.94885860000E-01

  36  36   1    6 C     4.26880140000E-01 -4.84205340000E-01  4.96569900000E-01

  37  37   1    8 O    -4.58450220000E-01  2.41992920000E-01  4.99356270000E-01

  38  38   1    8 O    -2.99708740000E-01  2.41593510000E-01 -4.95346560000E-01

  39  39   1    8 O    -2.99403950000E-01  4.01152830000E-01  4.96661780000E-01

  40  40   1    8 O     2.61137600000E-01 -3.18726600000E-01  4.99356300000E-01

  41  41   1    8 O     2.60953530000E-01 -4.78089210000E-01 -4.95346570000E-01

  42  42   1    8 O     4.20180470000E-01 -3.18535210000E-01  4.96661760000E-01

 NUMBER OF SYMMETRY OPERATORS         :    1
 *******************************************************************************
 * GEOMETRY EDITING - INPUT COORDINATES ARE GIVEN IN ANGSTROM         
 *******************************************************************************

 GCALCO - MAX INDICES DIRECT LATTICE VECTOR     9    10    32
 NO.OF VECTORS CREATED 6999 STARS 3500 RMAX   206.15692 BOHR

 GEOMETRY FOR WAVE FUNCTION - DIMENSIONALITY OF THE SYSTEM    3
 (NON PERIODIC DIRECTION: LATTICE PARAMETER FORMALLY SET TO 500)
 *******************************************************************************
 LATTICE PARAMETERS (ANGSTROMS AND DEGREES) - BOHR = 0.5291772083 ANGSTROM
 PRIMITIVE CELL - CENTRING CODE 1/0 VOLUME=   781.927421 - DENSITY  0.828 g/cm^3
         A              B              C           ALPHA      BETA       GAMMA 
    15.02361100    15.02391600     4.12310600    77.875005  89.999945 119.995964
 *******************************************************************************
 ATOMS IN THE ASYMMETRIC UNIT   42 - ATOMS IN THE UNIT CELL:   42
     ATOM                 X/A                 Y/B                 Z/C    
 *******************************************************************************
      1 T   5 B    -4.055769500000E-01  1.887993200000E-01 -4.988065600000E-01
      2 T   5 B    -2.465213000000E-01  3.478589700000E-01 -4.988065400000E-01
      3 T   5 B    -4.054847500000E-01  3.480347300000E-01  4.986826600000E-01
      4 T   5 B     2.079977600000E-01 -4.248856900000E-01 -4.988065500000E-01
      5 T   5 B     3.671057300000E-01 -4.249064600000E-01 -4.988065500000E-01
      6 T   5 B     3.671824800000E-01 -2.655742900000E-01  4.986826600000E-01
      7 T   1 H    -1.160138700000E-01  2.708112000000E-01  4.959880600000E-01
      8 T   1 H     7.760763000000E-02 -3.470042300000E-01  4.951920800000E-01
      9 T   1 H    -1.160507800000E-01 -4.439758300000E-01  4.950695800000E-01
     10 T   1 H     7.771281000000E-02  3.676343300000E-01  4.951001300000E-01
     11 T   1 H    -3.283333300000E-01  5.826871000000E-02 -4.959895200000E-01
     12 T   1 H     2.895334000000E-01 -1.353592800000E-01 -4.951934700000E-01
     13 T   1 H     3.864689600000E-01  5.824397000000E-02 -4.950708900000E-01
     14 T   1 H    -4.250876400000E-01 -1.354563200000E-01 -4.951016500000E-01
     15 T   1 H    -3.279847500000E-01 -4.440646400000E-01  4.959881100000E-01
     16 T   1 H     2.899349300000E-01  3.675516600000E-01  4.951920300000E-01
     17 T   1 H     3.868183800000E-01  2.707750000000E-01  4.950694800000E-01
     18 T   1 H    -4.247324900000E-01 -3.470926800000E-01  4.951002300000E-01
     19 T   6 C    -1.272671800000E-01  4.076248100000E-01  4.985907900000E-01
     20 T   6 C    -7.257308000000E-02  3.546573700000E-01  4.961105600000E-01
     21 T   6 C     3.433416000000E-02 -4.309265000000E-01  4.958963000000E-01
     22 T   6 C    -7.262656000000E-02 -4.844690200000E-01  4.965393100000E-01
     23 T   6 C     3.441121000000E-02  4.082158400000E-01  4.948857900000E-01
     24 T   6 C     8.895605000000E-02 -4.841279400000E-01  4.965699000000E-01
     25 T   6 C    -4.652263100000E-01  6.963308000000E-02 -4.985922000000E-01
     26 T   6 C    -4.121831800000E-01  1.482995000000E-02 -4.961120300000E-01
     27 T   6 C     3.734294100000E-01 -9.207930000000E-02 -4.958976900000E-01
     28 T   6 C     4.269430200000E-01  1.490981000000E-02 -4.965406800000E-01
     29 T   6 C    -4.656912400000E-01 -9.219656000000E-02 -4.948872700000E-01
     30 T   6 C     4.265845300000E-01 -1.466986300000E-01 -4.965713300000E-01
     31 T   6 C    -4.651126200000E-01  4.075556700000E-01  4.985907800000E-01
     32 T   6 C    -4.118519800000E-01 -4.845024900000E-01  4.961106100000E-01
     33 T   6 C     3.737694100000E-01  4.080602400000E-01  4.958962500000E-01
     34 T   6 C     4.272085900000E-01  3.545287800000E-01  4.965392400000E-01
     35 T   6 C    -4.652721800000E-01 -4.309361400000E-01  4.948858600000E-01
     36 T   6 C     4.268801400000E-01 -4.842053400000E-01  4.965699000000E-01
     37 T   8 O    -4.584502200000E-01  2.419929200000E-01  4.993562700000E-01
     38 T   8 O    -2.997087400000E-01  2.415935100000E-01 -4.953465600000E-01
     39 T   8 O    -2.994039500000E-01  4.011528300000E-01  4.966617800000E-01
     40 T   8 O     2.611376000000E-01 -3.187266000000E-01  4.993563000000E-01
     41 T   8 O     2.609535300000E-01 -4.780892100000E-01 -4.953465700000E-01
     42 T   8 O     4.201804700000E-01 -3.185352100000E-01  4.966617600000E-01

 T = ATOM BELONGING TO THE ASYMMETRIC UNIT

 ****    1 SYMMOPS - TRANSLATORS IN FRACTIONAL UNITS
 **** MATRICES AND TRANSLATORS IN THE CRYSTALLOGRAPHIC REFERENCE FRAME
   V INV                    ROTATION MATRICES                   TRANSLATORS
   1   1  1.00  0.00  0.00  0.00  1.00  0.00 -0.00  0.00  1.00  0.00  0.00  0.00

 DIRECT LATTICE VECTORS CARTESIAN COMPONENTS (ANGSTROM)
          X                    Y                    Z
   0.130113578931E+02  -0.751088897922E+01   0.000000000000E+00
   0.000000000000E+00   0.150239160000E+02   0.000000000000E+00
   0.499930618723E+00   0.866038195744E+00   0.400000628840E+01


 CARTESIAN COORDINATES - PRIMITIVE CELL
 *******************************************************************************
 *      ATOM          X(ANGSTROM)         Y(ANGSTROM)         Z(ANGSTROM)
 *******************************************************************************
    1     5 B    -5.526475521788E+00  5.450763035269E+00 -1.995229376693E+00
    2     5 B    -3.456945524727E+00  6.645812544512E+00 -1.995229296693E+00
    3     5 B     7.484826802667E+00  3.293465447730E-01 -2.005272512482E+00
    4     5 B     2.456964629149E+00  6.646235475965E+00 -1.995229336693E+00
    5     5 B     4.527175370457E+00  5.450881130851E+00 -1.995229336693E+00
    6     5 B     5.026849390100E+00 -6.315954435998E+00  1.994733775914E+00
    7     1 H    -1.761468984137E+00  4.503518427128E+00 -2.016050929427E+00
    8     1 H     1.257342332103E+00 -5.367409440525E+00  1.980771433964E+00
    9     1 H    -1.262477790908E+00 -5.369861885588E+00  1.980281433194E+00
   10     1 H     7.587342793827E-01  4.502352432017E+00 -2.019602655011E+00
   11     1 H    -4.520022812463E+00  2.911953525266E+00 -1.983961198979E+00
   12     1 H     4.019590930272E+00 -3.771097939275E+00  2.019229294424E+00
   13     1 H     4.780984856768E+00 -2.456423240027E+00 -1.980286673202E+00
   14     1 H    -5.278553275447E+00  1.594962953196E+00  2.019596575001E+00
   15     1 H    -4.019567323003E+00 -3.778588157910E+00  1.983955558970E+00
   16     1 H     3.520078179150E+00  2.907213211538E+00 -2.019235054433E+00
   17     1 H     4.780602154517E+00  7.254618310830E-01 -2.019725255203E+00
   18     1 H    -5.278830671885E+00 -1.595796980377E+00  1.980404033387E+00
   19     6 C    -1.906588643609E+00  6.645771037076E+00 -2.005639993060E+00
   20     6 C    -1.196184076789E+00  5.437043380949E+00 -2.015560928657E+00
   21     6 C     6.946477877990E-01 -6.302618465201E+00  1.983588318393E+00
   22     6 C    -6.967349602328E-01 -6.303109823832E+00  1.986160362436E+00
   23     6 C     1.952145093119E-01  5.437093513006E+00 -2.020460016358E+00
   24     6 C     9.057588819257E-01  6.646289785120E+00 -2.013723565768E+00
   25     6 C     6.708870365344E+00 -3.402264159154E+00 -1.994371935345E+00
   26     6 C    -5.611084466592E+00  2.889014059817E+00 -1.984451239749E+00
   27     6 C     5.110839881041E+00 -3.751606653601E+00  2.016412409995E+00
   28     6 C     5.306872543789E+00 -3.412741085276E+00 -1.986165842445E+00
   29     6 C    -5.806754071667E+00  2.550048746641E+00  2.020454096349E+00
   30     6 C     5.802123397947E+00 -4.972028482464E+00  2.013717845759E+00
   31     6 C     6.708941312071E+00  1.671362887622E+00 -2.005640033060E+00
   32     6 C    -5.110732626532E+00 -3.756099476327E+00  1.984445559740E+00
   33     6 C     4.611230663348E+00  2.886749124245E+00 -2.016418170004E+00
   34     6 C     5.306868410228E+00  1.681678071627E+00 -2.013846205961E+00
   35     6 C    -5.806414257475E+00 -2.551150622333E+00  1.979546552039E+00
   36     6 C     5.302610157601E+00  4.107016610629E+00 -2.013723565768E+00
   37     8 O     6.796010874787E+00 -8.654155642639E-01 -2.002578068246E+00
   38     8 O    -4.147256592040E+00  5.451770631536E+00 -1.981389354936E+00
   39     8 O    -3.647355517073E+00 -6.318111678683E+00  1.986650243206E+00
   40     8 O     3.647398276956E+00 -6.317435558179E+00  1.997428340150E+00
   41     8 O     3.147720855064E+00  5.452161826138E+00 -1.981389394936E+00
   42     8 O    -7.295942997241E+00 -5.580657456692E-04  1.986650163206E+00

 *******************************************************************************
 STARTING BASIS SET HANDLING 
 *******************************************************************************

 Loading internal basis set: SOLDEF2MSVP         

 Please cite in your publication:
 L. Dona', J. G. Brandenburg and B. Civalleri, J. Chem. Phys., 151, 121101 (2019
 )                                                                              
                                                                                
                    

 *******************************************************************************
 LOCAL ATOMIC FUNCTIONS BASIS SET
 *******************************************************************************
   ATOM   X(AU)   Y(AU)   Z(AU)  N. TYPE  EXPONENT  S COEF   P COEF   D/F/G COEF
 *******************************************************************************
   1 B  -10.444  10.300  -3.770
                                  1 S  
                                         2.410E+03 1.755E-03 0.000E+00 0.000E+00
                                         3.619E+02 1.344E-02 0.000E+00 0.000E+00
                                         8.231E+01 6.637E-02 0.000E+00 0.000E+00
                                         2.311E+01 2.303E-01 0.000E+00 0.000E+00
                                         7.252E+00 5.150E-01 0.000E+00 0.000E+00
                                  2 S  
                                         2.367E+00 1.000E+00 0.000E+00 0.000E+00
                                  3 S  
                                         5.533E-01 1.000E+00 0.000E+00 0.000E+00
                                  4 S  
                                         1.716E-01 1.000E+00 0.000E+00 0.000E+00
                           5-     7 P  
                                         6.002E+00 0.000E+00-3.555E-02 0.000E+00
                                         1.240E+00 0.000E+00-1.983E-01 0.000E+00
                                         3.367E-01 0.000E+00-5.048E-01 0.000E+00
                           8-    10 P  
                                         1.256E-01 0.000E+00 1.000E+00 0.000E+00
                          11-    15 D  
                                         8.880E-01 0.000E+00 0.000E+00 1.000E+00
   2 B   -6.533  12.559  -3.770
   3 B   14.144   0.622  -3.789
   4 B    4.643  12.560  -3.770
   5 B    8.555  10.301  -3.770
   6 B    9.499 -11.935   3.770
   7 H   -3.329   8.510  -3.810
                                 91 S  
                                         1.874E+01 1.968E-02 0.000E+00 0.000E+00
                                         2.826E+00 1.380E-01 0.000E+00 0.000E+00
                                         6.401E-01 4.783E-01 0.000E+00 0.000E+00
                                 92 S  
                                         1.756E-01 1.000E+00 0.000E+00 0.000E+00
   8 H    2.376 -10.143   3.743
   9 H   -2.386 -10.148   3.742
  10 H    1.434   8.508  -3.816
  11 H   -8.542   5.503  -3.749
  12 H    7.596  -7.126   3.816
  13 H    9.035  -4.642  -3.742
  14 H   -9.975   3.014   3.816
  15 H   -7.596  -7.140   3.749
  16 H    6.652   5.494  -3.816
  17 H    9.034   1.371  -3.817
  18 H   -9.976  -3.016   3.742
  19 C   -3.603  12.559  -3.790
                                115 S  
                                         3.624E+03 1.634E-03 0.000E+00 0.000E+00
                                         5.440E+02 1.252E-02 0.000E+00 0.000E+00
                                         1.237E+02 6.211E-02 0.000E+00 0.000E+00
                                         3.476E+01 2.182E-01 0.000E+00 0.000E+00
                                         1.093E+01 4.980E-01 0.000E+00 0.000E+00
                                116 S  
                                         3.574E+00 1.000E+00 0.000E+00 0.000E+00
                                117 S  
                                         7.742E-01 1.000E+00 0.000E+00 0.000E+00
                                118 S  
                                         2.330E-01 1.000E+00 0.000E+00 0.000E+00
                         119-   121 P  
                                         9.443E+00 0.000E+00 3.790E-02 0.000E+00
                                         2.002E+00 0.000E+00 2.082E-01 0.000E+00
                                         5.463E-01 0.000E+00 5.047E-01 0.000E+00
                         122-   124 P  
                                         1.820E-01 0.000E+00 1.000E+00 0.000E+00
                         125-   129 D  
                                         8.880E-01 0.000E+00 0.000E+00 1.000E+00
  20 C   -2.260  10.275  -3.809
  21 C    1.313 -11.910   3.748
  22 C   -1.317 -11.911   3.753
  23 C    0.369  10.275  -3.818
  24 C    1.712  12.560  -3.805
  25 C   12.678  -6.429  -3.769
  26 C  -10.603   5.459  -3.750
  27 C    9.658  -7.090   3.810
  28 C   10.029  -6.449  -3.753
  29 C  -10.973   4.819   3.818
  30 C   10.964  -9.396   3.805
  31 C   12.678   3.158  -3.790
  32 C   -9.658  -7.098   3.750
  33 C    8.714   5.455  -3.810
  34 C   10.029   3.178  -3.806
  35 C  -10.973  -4.821   3.741
  36 C   10.020   7.761  -3.805
  37 O   12.843  -1.635  -3.784
                                385 S  
                                         6.773E+03 1.727E-03 0.000E+00 0.000E+00
                                         1.017E+03 1.325E-02 0.000E+00 0.000E+00
                                         2.313E+02 6.603E-02 0.000E+00 0.000E+00
                                         6.501E+01 2.353E-01 0.000E+00 0.000E+00
                                         2.050E+01 5.498E-01 0.000E+00 0.000E+00
                                386 S  
                                         6.716E+00 1.000E+00 0.000E+00 0.000E+00
                                387 S  
                                         1.147E+00 1.000E+00 0.000E+00 0.000E+00
                                388 S  
                                         3.342E-01 1.000E+00 0.000E+00 0.000E+00
                         389-   391 P  
                                         1.769E+01 0.000E+00 4.359E-02 0.000E+00
                                         3.854E+00 0.000E+00 2.318E-01 0.000E+00
                                         1.047E+00 0.000E+00 5.146E-01 0.000E+00
                         392-   394 P  
                                         2.759E-01 0.000E+00 1.000E+00 0.000E+00
                         395-   399 D  
                                         8.000E-01 0.000E+00 0.000E+00 1.000E+00
  38 O   -7.837  10.302  -3.744
  39 O   -6.893 -11.940   3.754
  40 O    6.893 -11.938   3.775
  41 O    5.948  10.303  -3.744
  42 O  -13.787  -0.001   3.754

 *******************************************************************************
 FINISHED BASIS SET HANDLING 
 *******************************************************************************

 INFORMATION **** SET_MPP **** PCRYSTAL CALCULATION
 INFORMATION **** READM2 **** NEW DEFAULT: FOCK/KS MATRIX MIXING SET TO 30 %
 INFORMATION **** READM2 **** NEW DEFAULT: FULL DIRECT SCF MODE
 INFORMATION **** READM2 **** NEW DEFAULT: COULOMB BIPOLAR BUFFER SET TO 32 Mb
 INFORMATION **** READM2 **** NEW DEFAULT: EXCHANGE BIPOLAR BUFFER SET TO 32 Mb

 *******************************************************************************
 NEW DEFAULT: DFT INTEGRATION GRID INCREASED TO XLGRID
 NEW DEFAULT: DIIS ACCELERATOR ACTIVE
 USE KEYWORD NODIIS TO TURN IT OFF
 *******************************************************************************

 WARNING **** RDDFTP **** HSEsol-HJS ACTIVE
 RANGE SEPARATION - OMEGA:   0.110000000000000     
 WARNING **** RDDFTP **** HSEsol-3c has to be combined with sol-def2-mSVP basis set
 *******************************************************************************
 N. OF ATOMS PER CELL        42  COULOMB OVERLAP TOL         (T1) 10**   -6
 NUMBER OF SHELLS           234  COULOMB PENETRATION TOL     (T2) 10**   -6
 NUMBER OF AO               474  EXCHANGE OVERLAP TOL        (T3) 10**   -6
 N. OF ELECTRONS PER CELL   198  EXCHANGE PSEUDO OVP (F(G))  (T4) 10**   -6
 CORE ELECTRONS PER CELL     60  EXCHANGE PSEUDO OVP (P(G))  (T5) 10**  -12
 N. OF SYMMETRY OPERATORS     1  POLE ORDER IN MONO ZONE                  4
 *******************************************************************************
 TYPE OF CALCULATION :  RESTRICTED CLOSED SHELL
 KOHN-SHAM HAMILTONIAN

 (EXCHANGE)[CORRELATION] FUNCTIONAL:(HSEsol GGA)[PBEsol]

 RANGE-SEPARATED HYBRID FUNCTIONAL 
 OMEGA (SHORT-RANGE)[LONG-RANGE]:(    0.1100)[    0.0000]

 HYBRID EXCHANGE - PERCENTAGE OF FOCK EXCHANGE    25.0000

 CAPPA:IS1  2;IS2  2;IS3  8; K PTS MONK NET  20; SYMMOPS:K SPACE   2;G SPACE   1

 *******************************************************************************
 MAX NUMBER OF SCF CYCLES      50  CONVERGENCE ON DELTAP        10**-16
 WEIGHT OF F(I) IN F(I+1)      30% CONVERGENCE ON ENERGY        10**- 6
 SHRINK. FACT.(MONKH.)    2  2  8  NUMBER OF K POINTS IN THE IBZ     20
 SHRINKING FACTOR(GILAT NET)    8  NUMBER OF K POINTS(GILAT NET)   1028
 *******************************************************************************
 *** K POINTS COORDINATES (OBLIQUE COORDINATES IN UNITS OF IS =  2)
   1-R(  0  0  0)   2-R(  1  0  0)   3-R(  0  1  0)   4-R(  1  1  0)
   5-C(  0  0  1)   6-C(  1  0  1)   7-C(  0  1  1)   8-C(  1  1  1)
   9-C(  0  0  2)  10-C(  1  0  2)  11-C(  0  1  2)  12-C(  1  1  2)
  13-C(  0  0  3)  14-C(  1  0  3)  15-C(  0  1  3)  16-C(  1  1  3)
  17-R(  0  0  4)  18-R(  1  0  4)  19-R(  0  1  4)  20-R(  1  1  4)

 DIRECT LATTICE VECTORS COMPON. (A.U.)     RECIP. LATTICE VECTORS COMPON. (A.U.) 
        X            Y            Z              X            Y            Z
   24.5879030  -14.1935232    0.0000000      0.2555397    0.0000000   -0.0319380
    0.0000000   28.3910867    0.0000000      0.1277517    0.2213084   -0.0638820
    0.9447320    1.6365750    7.5589164      0.0000000    0.0000000    0.8312283

 DISK SPACE FOR EIGENVECTORS (FTN 10)     7189632 REALS

 SYMMETRY ADAPTION OF THE BLOCH FUNCTIONS DISABLED
 TTTTTTTTTTTTTTTTTTTTTTTTTTTTTT gordsh1     TELAPSE        0.04 TCPU        0.04

 MATRIX SIZE: P(G)  332526, F(G)   70360, P(G) IRR  168528, F(G) IRR   71056
 MAX G-VECTOR INDEX FOR 1- AND 2-ELECTRON INTEGRALS  97

 TTTTTTTTTTTTTTTTTTTTTTTTTTTTTT INPUT       TELAPSE        0.29 TCPU        0.29

 NEIGHBORS OF THE NON-EQUIVALENT ATOMS

 N = NUMBER OF NEIGHBORS AT DISTANCE R
    ATOM  N     R/ANG      R/AU   NEIGHBORS (ATOM LABELS AND CELL INDICES)
   1 B    1     1.3791     2.6061   37 O   -1 0 0
   1 B    1     1.3793     2.6065   38 O    0 0 0
   1 B    1     1.5503     2.9297   25 C   -1 0 0
   1 B    1     2.3895     4.5155    3 B   -1 0 0
   1 B    1     2.3898     4.5160    2 B    0 0 0
   1 B    1     2.5632     4.8437   26 C    0 0 0

   2 B    1     1.3793     2.6065   39 O    0 1-1
   2 B    1     1.3793     2.6065   38 O    0 0 0
   2 B    1     1.5504     2.9298   19 C    0 0 0
   2 B    1     2.3895     4.5156    3 B   -1 0 0
   2 B    1     2.3898     4.5160    1 B    0 0 0
   2 B    1     2.5634     4.8440   22 C    0 1-1

   3 B    1     1.3791     2.6061   37 O    0 0 0
   3 B    1     1.3793     2.6064   39 O    1 1-1
   3 B    1     1.5502     2.9294   31 C    0 0 0
   3 B    1     2.3895     4.5155    1 B    1 0 0
   3 B    1     2.3895     4.5156    2 B    1 0 0
   3 B    1     2.5629     4.8433   32 C    1 1-1

   4 B    1     1.3795     2.6068   40 O    0 1-1
   4 B    1     1.3795     2.6070   41 O    0 0 0
   4 B    1     1.5513     2.9316   24 C    0 0 0
   4 B    1     2.3905     4.5174    6 B    0 1-1
   4 B    1     2.3905     4.5175    5 B    0 0 0
   4 B    1     2.5648     4.8468   23 C    0 0 0

   5 B    1     1.3795     2.6069   41 O    0 0 0
   5 B    1     1.3797     2.6072   42 O    1 1-1
   5 B    1     1.5516     2.9322   36 C    0 0 0
   5 B    1     2.3905     4.5175    4 B    0 0 0
   5 B    1     2.3911     4.5185    6 B    0 1-1
   5 B    1     2.5651     4.8473   35 C    1 1-1

   6 B    1     1.3795     2.6068   40 O    0 0 0
   6 B    1     1.3796     2.6071   42 O    1 0 0
   6 B    1     1.5516     2.9322   30 C    0 0 0
   6 B    1     2.3905     4.5174    4 B    0-1 1
   6 B    1     2.3911     4.5185    5 B    0-1 1
   6 B    1     2.5651     4.8473   29 C    1 0 0

   7 H    1     1.0913     2.0623   20 C    0 0 0
   7 H    1     2.1472     4.0576   19 C    0 0 0
   7 H    1     2.1680     4.0969   23 C    0 0 0
   7 H    1     2.5202     4.7625   10 H    0 0 0
   7 H    1     2.5676     4.8520   38 O    0 0 0
   7 H    1     2.7321     5.1630    2 B    0 0 0

   8 H    1     1.0914     2.0625   21 C    0 0 0
   8 H    1     2.1493     4.0616   24 C    0-1 1
   8 H    1     2.1666     4.0942   22 C    0 0 0
   8 H    1     2.5198     4.7618    9 H    0 0 0
   8 H    1     2.5720     4.8604   40 O    0 0 0
   8 H    1     2.7362     5.1707    4 B    0-1 1

   9 H    1     1.0914     2.0624   22 C    0 0 0
   9 H    1     2.1471     4.0575   19 C    0-1 1
   9 H    1     2.1680     4.0970   21 C    0 0 0
   9 H    1     2.5198     4.7618    8 H    0 0 0
   9 H    1     2.5665     4.8500   39 O    0 0 0
   9 H    1     2.7315     5.1618    2 B    0-1 1

  10 H    1     1.0915     2.0626   23 C    0 0 0
  10 H    1     2.1490     4.0610   24 C    0 0 0
  10 H    1     2.1669     4.0948   20 C    0 0 0
  10 H    1     2.5202     4.7625    7 H    0 0 0
  10 H    1     2.5712     4.8588   41 O    0 0 0
  10 H    1     2.7351     5.1686    4 B    0 0 0

  11 H    1     1.0913     2.0623   26 C    0 0 0
  11 H    1     2.1469     4.0571   25 C   -1 0 0
  11 H    1     2.1680     4.0968   29 C    0 0-1
  11 H    1     2.5198     4.7617   14 H    0 0-1
  11 H    1     2.5670     4.8510   38 O    0 0 0
  11 H    1     2.7310     5.1609    1 B    0 0 0

  12 H    1     1.0914     2.0625   27 C    0 0 0
  12 H    1     2.1493     4.0617   30 C    0 0 0
  12 H    1     2.1664     4.0939   28 C    0 0 1
  12 H    1     2.5192     4.7606   13 H    0 0 1
  12 H    1     2.5735     4.8632   40 O    0 0 0
  12 H    1     2.7371     5.1723    6 B    0 0 0

  13 H    1     1.0914     2.0624   28 C    0 0 0
  13 H    1     2.1475     4.0581   25 C    0 0 0
  13 H    1     2.1679     4.0967   27 C    0 0-1
  13 H    1     2.5192     4.7606   12 H    0 0-1
  13 H    1     2.5675     4.8519   37 O    0 0 0
  13 H    1     2.7328     5.1643    1 B    1 0 0

  14 H    1     1.0914     2.0625   29 C    0 0 0
  14 H    1     2.1491     4.0612   30 C   -1 0 0
  14 H    1     2.1666     4.0942   26 C    0 0 1
  14 H    1     2.5198     4.7617   11 H    0 0 1
  14 H    1     2.5723     4.8609   42 O    0 0 0
  14 H    1     2.7355     5.1693    6 B   -1 0 0

  15 H    1     1.0914     2.0624   32 C    0 0 0
  15 H    1     2.1475     4.0582   31 C   -1-1 1
  15 H    1     2.1678     4.0966   35 C    0 0 0
  15 H    1     2.5200     4.7621   18 H    0 0 0
  15 H    1     2.5667     4.8503   39 O    0 0 0
  15 H    1     2.7315     5.1618    3 B   -1-1 1

  16 H    1     1.0913     2.0623   33 C    0 0 0
  16 H    1     2.1487     4.0605   36 C    0 0 0
  16 H    1     2.1667     4.0945   34 C    0 0 0
  16 H    1     2.5197     4.7616   17 H    0 0 0
  16 H    1     2.5723     4.8610   41 O    0 0 0
  16 H    1     2.7359     5.1701    5 B    0 0 0

  17 H    1     1.0915     2.0626   34 C    0 0 0
  17 H    1     2.1479     4.0589   31 C    0 0 0
  17 H    1     2.1679     4.0968   33 C    0 0 0
  17 H    1     2.5197     4.7616   16 H    0 0 0
  17 H    1     2.5677     4.8522   37 O    0 0 0
  17 H    1     2.7331     5.1648    3 B    0 0 0

  18 H    1     1.0914     2.0624   35 C    0 0 0
  18 H    1     2.1486     4.0602   36 C   -1-1 1
  18 H    1     2.1668     4.0947   32 C    0 0 0
  18 H    1     2.5200     4.7621   15 H    0 0 0
  18 H    1     2.5717     4.8598   42 O    0 0 0
  18 H    1     2.7349     5.1682    5 B   -1-1 1

  19 C    1     1.4020     2.6495   22 C    0 1-1
  19 C    1     1.4021     2.6495   20 C    0 0 0
  19 C    1     1.5504     2.9298    2 B    0 0 0
  19 C    1     2.1471     4.0575    9 H    0 1-1
  19 C    1     2.1472     4.0576    7 H    0 0 0
  19 C    1     2.4246     4.5817   21 C    0 1-1

  20 C    1     1.0913     2.0623    7 H    0 0 0
  20 C    1     1.3914     2.6294   23 C    0 0 0
  20 C    1     1.4021     2.6495   19 C    0 0 0
  20 C    1     2.1669     4.0948   10 H    0 0 0
  20 C    1     2.4177     4.5688   22 C    0 1-1
  20 C    1     2.4250     4.5825   24 C    0 0 0

  21 C    1     1.0914     2.0625    8 H    0 0 0
  21 C    1     1.3914     2.6293   22 C    0 0 0
  21 C    1     1.4026     2.6505   24 C    0-1 1
  21 C    1     2.1680     4.0970    9 H    0 0 0
  21 C    1     2.4182     4.5697   23 C    0-1 1
  21 C    1     2.4246     4.5817   19 C    0-1 1

  22 C    1     1.0914     2.0624    9 H    0 0 0
  22 C    1     1.3914     2.6293   21 C    0 0 0
  22 C    1     1.4020     2.6495   19 C    0-1 1
  22 C    1     2.1666     4.0942    8 H    0 0 0
  22 C    1     2.4177     4.5688   20 C    0-1 1
  22 C    1     2.4250     4.5826   24 C    0-1 1

  23 C    1     1.0915     2.0626   10 H    0 0 0
  23 C    1     1.3914     2.6294   20 C    0 0 0
  23 C    1     1.4025     2.6504   24 C    0 0 0
  23 C    1     2.1680     4.0969    7 H    0 0 0
  23 C    1     2.4182     4.5697   21 C    0 1-1
  23 C    1     2.4246     4.5818   19 C    0 0 0

  24 C    1     1.4025     2.6504   23 C    0 0 0
  24 C    1     1.4026     2.6505   21 C    0 1-1
  24 C    1     1.5513     2.9316    4 B    0 0 0
  24 C    1     2.1490     4.0610   10 H    0 0 0
  24 C    1     2.1493     4.0616    8 H    0 1-1
  24 C    1     2.4250     4.5825   20 C    0 0 0

  25 C    1     1.4020     2.6494   26 C    1 0 0
  25 C    1     1.4021     2.6495   28 C    0 0 0
  25 C    1     1.5503     2.9297    1 B    1 0 0
  25 C    1     2.1469     4.0571   11 H    1 0 0
  25 C    1     2.1475     4.0581   13 H    0 0 0
  25 C    1     2.4246     4.5818   27 C    0 0-1

  26 C    1     1.0913     2.0623   11 H    0 0 0
  26 C    1     1.3914     2.6293   29 C    0 0-1
  26 C    1     1.4020     2.6494   25 C   -1 0 0
  26 C    1     2.1666     4.0942   14 H    0 0-1
  26 C    1     2.4175     4.5684   28 C   -1 0 0
  26 C    1     2.4251     4.5828   30 C   -1 0-1

  27 C    1     1.0914     2.0625   12 H    0 0 0
  27 C    1     1.3915     2.6295   28 C    0 0 1
  27 C    1     1.4026     2.6505   30 C    0 0 0
  27 C    1     2.1679     4.0967   13 H    0 0 1
  27 C    1     2.4179     4.5691   29 C    1 0 0
  27 C    1     2.4246     4.5818   25 C    0 0 1

  28 C    1     1.0914     2.0624   13 H    0 0 0
  28 C    1     1.3915     2.6295   27 C    0 0-1
  28 C    1     1.4021     2.6495   25 C    0 0 0
  28 C    1     2.1664     4.0939   12 H    0 0-1
  28 C    1     2.4175     4.5684   26 C    1 0 0
  28 C    1     2.4253     4.5832   30 C    0 0-1

  29 C    1     1.0914     2.0625   14 H    0 0 0
  29 C    1     1.3914     2.6293   26 C    0 0 1
  29 C    1     1.4025     2.6504   30 C   -1 0 0
  29 C    1     2.1680     4.0968   11 H    0 0 1
  29 C    1     2.4179     4.5691   27 C   -1 0 0
  29 C    1     2.4247     4.5819   25 C   -1 0 1

  30 C    1     1.4025     2.6504   29 C    1 0 0
  30 C    1     1.4026     2.6505   27 C    0 0 0
  30 C    1     1.5516     2.9322    6 B    0 0 0
  30 C    1     2.1491     4.0612   14 H    1 0 0
  30 C    1     2.1493     4.0617   12 H    0 0 0
  30 C    1     2.4251     4.5828   26 C    1 0 1

  31 C    1     1.4021     2.6496   32 C    1 1-1
  31 C    1     1.4021     2.6497   34 C    0 0 0
  31 C    1     1.5502     2.9294    3 B    0 0 0
  31 C    1     2.1475     4.0582   15 H    1 1-1
  31 C    1     2.1479     4.0589   17 H    0 0 0
  31 C    1     2.4244     4.5814   33 C    0 0 0

  32 C    1     1.0914     2.0624   15 H    0 0 0
  32 C    1     1.3914     2.6293   35 C    0 0 0
  32 C    1     1.4021     2.6496   31 C   -1-1 1
  32 C    1     2.1668     4.0947   18 H    0 0 0
  32 C    1     2.4179     4.5692   34 C   -1-1 1
  32 C    1     2.4251     4.5827   36 C   -1-1 1

  33 C    1     1.0913     2.0623   16 H    0 0 0
  33 C    1     1.3914     2.6294   34 C    0 0 0
  33 C    1     1.4025     2.6504   36 C    0 0 0
  33 C    1     2.1679     4.0968   17 H    0 0 0
  33 C    1     2.4178     4.5690   35 C    1 1-1
  33 C    1     2.4244     4.5814   31 C    0 0 0

  34 C    1     1.0915     2.0626   17 H    0 0 0
  34 C    1     1.3914     2.6294   33 C    0 0 0
  34 C    1     1.4021     2.6497   31 C    0 0 0
  34 C    1     2.1667     4.0945   16 H    0 0 0
  34 C    1     2.4179     4.5692   32 C    1 1-1
  34 C    1     2.4253     4.5832   36 C    0 0 0

  35 C    1     1.0914     2.0624   18 H    0 0 0
  35 C    1     1.3914     2.6293   32 C    0 0 0
  35 C    1     1.4025     2.6503   36 C   -1-1 1
  35 C    1     2.1678     4.0966   15 H    0 0 0
  35 C    1     2.4178     4.5690   33 C   -1-1 1
  35 C    1     2.4245     4.5817   31 C   -1-1 1

  36 C    1     1.4025     2.6503   35 C    1 1-1
  36 C    1     1.4025     2.6504   33 C    0 0 0
  36 C    1     1.5516     2.9322    5 B    0 0 0
  36 C    1     2.1486     4.0602   18 H    1 1-1
  36 C    1     2.1487     4.0605   16 H    0 0 0
  36 C    1     2.4251     4.5827   32 C    1 1-1

  37 O    1     1.3791     2.6061    1 B    1 0 0
  37 O    1     1.3791     2.6061    3 B    0 0 0
  37 O    1     2.3880     4.5126   38 O    1 0 0
  37 O    1     2.3882     4.5130   39 O    1 1-1
  37 O    1     2.5383     4.7966   31 C    0 0 0
  37 O    1     2.5384     4.7968   25 C    0 0 0

  38 O    1     1.3793     2.6065    1 B    0 0 0
  38 O    1     1.3793     2.6065    2 B    0 0 0
  38 O    1     2.3880     4.5126   37 O   -1 0 0
  38 O    1     2.3882     4.5131   39 O    0 1-1
  38 O    1     2.5391     4.7981   19 C    0 0 0
  38 O    1     2.5395     4.7990   25 C   -1 0 0

  39 O    1     1.3793     2.6064    3 B   -1-1 1
  39 O    1     1.3793     2.6065    2 B    0-1 1
  39 O    1     2.3882     4.5130   37 O   -1-1 1
  39 O    1     2.3882     4.5131   38 O    0-1 1
  39 O    1     2.5390     4.7980   19 C    0-1 1
  39 O    1     2.5391     4.7982   31 C   -1-1 1

  40 O    1     1.3795     2.6068    6 B    0 0 0
  40 O    1     1.3795     2.6068    4 B    0-1 1
  40 O    1     2.3880     4.5126   42 O    1 0 0
  40 O    1     2.3884     4.5134   41 O    0-1 1
  40 O    1     2.5400     4.7998   24 C    0-1 1
  40 O    1     2.5403     4.8005   30 C    0 0 0

  41 O    1     1.3795     2.6069    5 B    0 0 0
  41 O    1     1.3795     2.6070    4 B    0 0 0
  41 O    1     2.3881     4.5128   42 O    1 1-1
  41 O    1     2.3884     4.5134   40 O    0 1-1
  41 O    1     2.5404     4.8006   24 C    0 0 0
  41 O    1     2.5405     4.8008   36 C    0 0 0

  42 O    1     1.3796     2.6071    6 B   -1 0 0
  42 O    1     1.3797     2.6072    5 B   -1-1 1
  42 O    1     2.3880     4.5126   40 O   -1 0 0
  42 O    1     2.3881     4.5128   41 O   -1-1 1
  42 O    1     2.5409     4.8016   36 C   -1-1 1
  42 O    1     2.5410     4.8019   30 C   -1 0 0


 SYMMETRY ALLOWED INTERNAL DEGREE(S) OF FREEDOM: 123
 TTTTTTTTTTTTTTTTTTTTTTTTTTTTTT SYMM        TELAPSE        0.29 TCPU        0.29
 TTTTTTTTTTTTTTTTTTTTTTTTTTTTTT INT_SCREEN  TELAPSE        0.32 TCPU        0.32

 DFT PARAMETERS

     ATOM       ELECTRONS   NET CHARGE   R(ANGSTROM)
   1   5  B       5.0000      0.0000     0.89000000
   7   1  H       1.0000      0.0000     1.11000000
  19   6  C       6.0000      0.0000     0.77000000
  37   8  O       8.0000      0.0000     0.74000000

 SIZE OF GRID=    1308217
 TTTTTTTTTTTTTTTTTTTTTTTTTTTTTT MAKE_GRID2  TELAPSE        9.90 TCPU        9.89
 BECKE WEIGHT FUNCTION
 RADSAFE =     2.00
 TOLERANCES - DENSITY:10**- 6; POTENTIAL:10**- 9; GRID WGT:10**-14

 RADIAL INTEGRATION  - INTERVALS (POINTS,UPPER LIMIT):            1( 75,  4.0*R)

 ANGULAR INTEGRATION - INTERVALS (ACCURACY LEVEL [N. POINTS] UPPER LIMIT):
  1(  4[  86]   0.2)  2(  8[ 194]   0.5)  3( 12[ 350]   0.9)  4( 16[ 974]   3.5)
  5( 12[ 350]9999.0)
 TTTTTTTTTTTTTTTTTTTTTTTTTTTTTT INT_CALC    TELAPSE       10.00 TCPU        9.99
 EEEEEEEEEE INT_CALC TERMINATION  DATE 19 02 2026 TIME 19:05:47.9

 *******************************************************************************
 cof-1_z40_L010_incl                                                             
 CRYSTAL - SCF - TYPE OF CALCULATION :  RESTRICTED CLOSED SHELL
 *******************************************************************************

 CAPPA:IS1  2;IS2  2;IS3  8; K PTS MONK NET  20; SYMMOPS:K SPACE   2;G SPACE   1

 TTTTTTTTTTTTTTTTTTTTTTTTTTTTTT SDIK        TELAPSE       10.92 TCPU       22.94

 AAAAAAAAAAAAAAAAAAAAAAAAAAAAAAAAAAAAAAAAAAAAAAAAAAAAAAAAAAAAAAAAAAAAAAAAAAAAAAA
         ATOMIC WAVEFUNCTION(S)


 NUCLEAR CHARGE  5.0  SYMMETRY SPECIES            S    P
 N. ELECTRONS    5.0  NUMBER OF PRIMITIVE GTOS    8    4
                      NUMBER OF CONTRACTED GTOS   4    2
                      NUMBER OF CLOSED SHELLS     2    0
                      OPEN SHELL OCCUPATION       0    1

  ZNUC  SCFIT    TOTAL HF ENERGY   KINETIC ENERGY   VIRIAL THEOREM ACCURACY
   5.0    11    -2.451164084E+01  2.462155050E+01 -1.995536038E+00  1.5E-06

 NUCLEAR CHARGE  1.0  SYMMETRY SPECIES            S
 N. ELECTRONS    1.0  NUMBER OF PRIMITIVE GTOS    4
                      NUMBER OF CONTRACTED GTOS   2
                      NUMBER OF CLOSED SHELLS     0
                      OPEN SHELL OCCUPATION       1

  ZNUC  SCFIT    TOTAL HF ENERGY   KINETIC ENERGY   VIRIAL THEOREM ACCURACY
   1.0     1    -4.977266687E-01  5.190767460E-01 -1.958869132E+00  0.0E+00

 NUCLEAR CHARGE  6.0  SYMMETRY SPECIES            S    P
 N. ELECTRONS    6.0  NUMBER OF PRIMITIVE GTOS    8    4
                      NUMBER OF CONTRACTED GTOS   4    2
                      NUMBER OF CLOSED SHELLS     2    0
                      OPEN SHELL OCCUPATION       0    2

  ZNUC  SCFIT    TOTAL HF ENERGY   KINETIC ENERGY   VIRIAL THEOREM ACCURACY
   6.0     9    -3.766704647E+01  3.775180683E+01 -1.997754800E+00  1.1E-06

 NUCLEAR CHARGE  8.0  SYMMETRY SPECIES            S    P
 N. ELECTRONS    8.0  NUMBER OF PRIMITIVE GTOS    8    4
                      NUMBER OF CONTRACTED GTOS   4    2
                      NUMBER OF CLOSED SHELLS     2    0
                      OPEN SHELL OCCUPATION       0    4

  ZNUC  SCFIT    TOTAL HF ENERGY   KINETIC ENERGY   VIRIAL THEOREM ACCURACY
   8.0    12    -7.477373220E+01  7.477365593E+01 -2.000001020E+00  3.8E-06

 AAAAAAAAAAAAAAAAAAAAAAAAAAAAAAAAAAAAAAAAAAAAAAAAAAAAAAAAAAAAAAAAAAAAAAAAAAAAAAA

 CHARGE NORMALIZATION FACTOR   1.00000000
 TOTAL ATOMIC CHARGES:
   5.0000000   5.0000000   5.0000000   5.0000000   5.0000000   5.0000000
   1.0000000   1.0000000   1.0000000   1.0000000   1.0000000   1.0000000
   1.0000000   1.0000000   1.0000000   1.0000000   1.0000000   1.0000000
   6.0000000   6.0000000   6.0000000   6.0000000   6.0000000   6.0000000
   6.0000000   6.0000000   6.0000000   6.0000000   6.0000000   6.0000000
   6.0000000   6.0000000   6.0000000   6.0000000   6.0000000   6.0000000
   8.0000000   8.0000000   8.0000000   8.0000000   8.0000000   8.0000000
 TTTTTTTTTTTTTTTTTTTTTTTTTTTTTT MOQGAD      TELAPSE       11.02 TCPU       25.36
 TTTTTTTTTTTTTTTTTTTTTTTTTTTTTT SHELLXN     TELAPSE       19.01 TCPU      273.15
 TTTTTTTTTTTTTTTTTTTTTTTTTTTTTT MONMO3      TELAPSE       19.17 TCPU      278.22
 NUMERICALLY INTEGRATED DENSITY    198.0000311805
 TTTTTTTTTTTTTTTTTTTTTTTTTTTTTT NUMDFT      TELAPSE       19.72 TCPU      295.72
 CYC   0 ETOT(AU) -1.295958007127E+03 DETOT -1.30E+03 tst  0.00E+00 PX  1.00E+00
 TTTTTTTTTTTTTTTTTTTTTTTTTTTTTT DIIS        TELAPSE       19.75 TCPU      296.80
 TTTTTTTTTTTTTTTTTTTTTTTTTTTTTT FDIK        TELAPSE       20.26 TCPU      313.00
 INSULATING STATE
 TOP OF VALENCE BANDS -    BAND     99; K    1; EIG -3.0767187E-01 AU
 BOTTOM OF VIRTUAL BANDS - BAND    100; K   17; EIG -1.6310163E-01 AU
 INDIRECT ENERGY BAND GAP:   3.9340 eV
 BOTTOM OF VIRTUAL BANDS - BAND    100; K    1; EIG -1.4861471E-01 AU
 TTTTTTTTTTTTTTTTTTTTTTTTTTTTTT PDIG        TELAPSE       20.54 TCPU      319.14
 CHARGE NORMALIZATION FACTOR   1.00000000
 TOTAL ATOMIC CHARGES:
   4.1514428   4.1511843   4.1514707   4.1511317   4.1509339   4.1512667
   0.7855957   0.7857047   0.7855433   0.7856713   0.7855201   0.7856977
   0.7855087   0.7856632   0.7855450   0.7857335   0.7855440   0.7856976
   6.0477844   6.2670973   6.2671050   6.2670200   6.2669625   6.0470109
   6.0473444   6.2669267   6.2669962   6.2668246   6.2670103   6.0460628
   6.0481278   6.2668041   6.2673477   6.2667292   6.2673720   6.0465319
   8.6963913   8.6965245   8.6955104   8.6968094   8.6958918   8.6969597
 TTTTTTTTTTTTTTTTTTTTTTTTTTTTTT MOQGAD      TELAPSE       20.59 TCPU      319.18
 TTTTTTTTTTTTTTTTTTTTTTTTTTTTTT SHELLXN     TELAPSE       28.67 TCPU      576.89
 TTTTTTTTTTTTTTTTTTTTTTTTTTTTTT MONMO3      TELAPSE       28.83 TCPU      581.94
 NUMERICALLY INTEGRATED DENSITY    198.0000327726
 TTTTTTTTTTTTTTTTTTTTTTTTTTTTTT NUMDFT      TELAPSE       29.39 TCPU      599.72
 CYC   1 ETOT(AU) -1.288810282872E+03 DETOT  7.15E+00 tst  0.00E+00 PX  1.00E+00
 TTTTTTTTTTTTTTTTTTTTTTTTTTTTTT DIIS        TELAPSE       29.44 TCPU      601.23
 DIIS TEST: 0.11132E+01 AT SCF   CYCLE   1 - MIX   30 %
 TTTTTTTTTTTTTTTTTTTTTTTTTTTTTT FDIK        TELAPSE       29.94 TCPU      617.45
 INSULATING STATE
 TOP OF VALENCE BANDS -    BAND     99; K    1; EIG -2.1258683E-01 AU
 BOTTOM OF VIRTUAL BANDS - BAND    100; K   17; EIG -8.5523294E-02 AU
 INDIRECT ENERGY BAND GAP:   3.4576 eV
 BOTTOM OF VIRTUAL BANDS - BAND    100; K    1; EIG -6.7875277E-02 AU
 TTTTTTTTTTTTTTTTTTTTTTTTTTTTTT PDIG        TELAPSE       30.23 TCPU      623.58
 CHARGE NORMALIZATION FACTOR   1.00000000
 TOTAL ATOMIC CHARGES:
   4.7083344   4.7078727   4.7071603   4.7074325   4.7077473   4.7078602
   0.9177458   0.9178545   0.9185755   0.9186116   0.9174044   0.9173911
   0.9173598   0.9173293   0.9185300   0.9186385   0.9176768   0.9177320
   5.8640442   6.1215075   6.1218137   6.1280780   6.1295153   5.8669079
   5.8647173   6.1248774   6.1264388   6.1255621   6.1261285   5.8679972
   5.8639772   6.1282501   6.1294959   6.1216596   6.1217557   5.8672403
   8.3388693   8.3391527   8.3415865   8.3386071   8.3417492   8.3388119
 TTTTTTTTTTTTTTTTTTTTTTTTTTTTTT MOQGAD      TELAPSE       30.28 TCPU      623.63
 TTTTTTTTTTTTTTTTTTTTTTTTTTTTTT SHELLXN     TELAPSE       38.37 TCPU      881.61
 TTTTTTTTTTTTTTTTTTTTTTTTTTTTTT MONMO3      TELAPSE       38.52 TCPU      886.65
 NUMERICALLY INTEGRATED DENSITY    198.0000445274
 TTTTTTTTTTTTTTTTTTTTTTTTTTTTTT NUMDFT      TELAPSE       39.09 TCPU      904.62
 CYC   2 ETOT(AU) -1.289005142588E+03 DETOT -1.95E-01 tst  4.63E-03 PX  1.58E-01
 TTTTTTTTTTTTTTTTTTTTTTTTTTTTTT DIIS        TELAPSE       39.13 TCPU      906.09
 DIIS TEST: 0.47736E+00 AT SCF   CYCLE   2 - DIIS ACTIVE - HISTORY:     2 CYCLES
 TTTTTTTTTTTTTTTTTTTTTTTTTTTTTT FDIK        TELAPSE       39.63 TCPU      922.01
 INSULATING STATE
 TOP OF VALENCE BANDS -    BAND     99; K    1; EIG -2.2833280E-01 AU
 BOTTOM OF VIRTUAL BANDS - BAND    100; K   17; EIG -8.1140998E-02 AU
 INDIRECT ENERGY BAND GAP:   4.0053 eV
 BOTTOM OF VIRTUAL BANDS - BAND    100; K    1; EIG -6.2351511E-02 AU
 TTTTTTTTTTTTTTTTTTTTTTTTTTTTTT PDIG        TELAPSE       39.91 TCPU      928.14
 CHARGE NORMALIZATION FACTOR   1.00000000
 TOTAL ATOMIC CHARGES:
   4.4961216   4.4951323   4.4948591   4.4942814   4.4943299   4.4951453
   0.8911221   0.8912748   0.8917781   0.8918874   0.8909601   0.8912506
   0.8910579   0.8910991   0.8917507   0.8919262   0.8911077   0.8911796
   5.8913402   6.1609054   6.1605394   6.1606120   6.1594398   5.8901862
   5.8932673   6.1598744   6.1591582   6.1598231   6.1592841   5.8920698
   5.8919440   6.1606252   6.1595671   6.1608297   6.1605396   5.8897503
   8.5110442   8.5111783   8.5095304   8.5113530   8.5093820   8.5114925
 TTTTTTTTTTTTTTTTTTTTTTTTTTTTTT MOQGAD      TELAPSE       39.96 TCPU      928.19
 TTTTTTTTTTTTTTTTTTTTTTTTTTTTTT SHELLXN     TELAPSE       48.07 TCPU     1186.67
 TTTTTTTTTTTTTTTTTTTTTTTTTTTTTT MONMO3      TELAPSE       48.23 TCPU     1191.75
 NUMERICALLY INTEGRATED DENSITY    198.0000427860
 TTTTTTTTTTTTTTTTTTTTTTTTTTTTTT NUMDFT      TELAPSE       48.79 TCPU     1209.86
 CYC   3 ETOT(AU) -1.289105267346E+03 DETOT -1.00E-01 tst  7.46E-04 PX  6.05E-02
 TTTTTTTTTTTTTTTTTTTTTTTTTTTTTT DIIS        TELAPSE       48.85 TCPU     1211.64
 DIIS TEST: 0.10637E-01 AT SCF   CYCLE   3 - DIIS ACTIVE - HISTORY:     3 CYCLES
 TTTTTTTTTTTTTTTTTTTTTTTTTTTTTT FDIK        TELAPSE       49.36 TCPU     1228.00
 INSULATING STATE
 TOP OF VALENCE BANDS -    BAND     99; K    1; EIG -2.3803276E-01 AU
 BOTTOM OF VIRTUAL BANDS - BAND    100; K   17; EIG -9.0566351E-02 AU
 INDIRECT ENERGY BAND GAP:   4.0128 eV
 BOTTOM OF VIRTUAL BANDS - BAND    100; K    1; EIG -7.2446180E-02 AU
 TTTTTTTTTTTTTTTTTTTTTTTTTTTTTT PDIG        TELAPSE       49.64 TCPU     1234.14
 CHARGE NORMALIZATION FACTOR   1.00000000
 TOTAL ATOMIC CHARGES:
   4.5029034   4.5013023   4.5008448   4.5011712   4.5013278   4.5027629
   0.8747494   0.8749177   0.8751237   0.8750482   0.8742482   0.8742405
   0.8742278   0.8741828   0.8751195   0.8750588   0.8747529   0.8747827
   5.9417107   6.1585165   6.1589642   6.1626914   6.1652702   5.9459777
   5.9428270   6.1604986   6.1624532   6.1609815   6.1621778   5.9468806
   5.9416292   6.1626274   6.1654716   6.1582974   6.1591736   5.9462433
   8.4809620   8.4811724   8.4831218   8.4808716   8.4836726   8.4810430
 TTTTTTTTTTTTTTTTTTTTTTTTTTTTTT MOQGAD      TELAPSE       49.69 TCPU     1234.19
 TTTTTTTTTTTTTTTTTTTTTTTTTTTTTT SHELLXN     TELAPSE       57.75 TCPU     1491.15
 TTTTTTTTTTTTTTTTTTTTTTTTTTTTTT MONMO3      TELAPSE       57.92 TCPU     1496.41
 NUMERICALLY INTEGRATED DENSITY    198.0000421860
 TTTTTTTTTTTTTTTTTTTTTTTTTTTTTT NUMDFT      TELAPSE       58.48 TCPU     1514.51
 CYC   4 ETOT(AU) -1.289107431830E+03 DETOT -2.16E-03 tst  2.72E-05 PX  1.21E-02
 TTTTTTTTTTTTTTTTTTTTTTTTTTTTTT DIIS        TELAPSE       58.54 TCPU     1516.36
 DIIS TEST: 0.38492E-02 AT SCF   CYCLE   4 - DIIS ACTIVE - HISTORY:     4 CYCLES
 TTTTTTTTTTTTTTTTTTTTTTTTTTTTTT FDIK        TELAPSE       59.04 TCPU     1532.48
 INSULATING STATE
 TOP OF VALENCE BANDS -    BAND     99; K    1; EIG -2.3620779E-01 AU
 BOTTOM OF VIRTUAL BANDS - BAND    100; K   17; EIG -8.9611026E-02 AU
 INDIRECT ENERGY BAND GAP:   3.9891 eV
 BOTTOM OF VIRTUAL BANDS - BAND    100; K    1; EIG -7.1289045E-02 AU
 TTTTTTTTTTTTTTTTTTTTTTTTTTTTTT PDIG        TELAPSE       59.33 TCPU     1538.62
 CHARGE NORMALIZATION FACTOR   1.00000000
 TOTAL ATOMIC CHARGES:
   4.5041814   4.5032359   4.5028340   4.5023561   4.5024653   4.5031956
   0.8780034   0.8781647   0.8785053   0.8786895   0.8776775   0.8779451
   0.8777308   0.8778191   0.8784706   0.8787290   0.8779644   0.8780727
   5.9217069   6.1631676   6.1625522   6.1660350   6.1643948   5.9192627
   5.9227247   6.1641384   6.1633743   6.1642534   6.1634223   5.9205546
   5.9222028   6.1660939   6.1644773   6.1631603   6.1625374   5.9189548
   8.4917871   8.4919371   8.4917425   8.4919336   8.4914712   8.4920750
 TTTTTTTTTTTTTTTTTTTTTTTTTTTTTT MOQGAD      TELAPSE       59.38 TCPU     1538.67
 TTTTTTTTTTTTTTTTTTTTTTTTTTTTTT SHELLXN     TELAPSE       67.40 TCPU     1794.62
 TTTTTTTTTTTTTTTTTTTTTTTTTTTTTT MONMO3      TELAPSE       67.56 TCPU     1799.78
 NUMERICALLY INTEGRATED DENSITY    198.0000423081
 TTTTTTTTTTTTTTTTTTTTTTTTTTTTTT NUMDFT      TELAPSE       68.12 TCPU     1817.55
 CYC   5 ETOT(AU) -1.289108297918E+03 DETOT -8.66E-04 tst  5.54E-06 PX  7.16E-03
 TTTTTTTTTTTTTTTTTTTTTTTTTTTTTT DIIS        TELAPSE       68.19 TCPU     1819.70
 DIIS TEST: 0.11387E-03 AT SCF   CYCLE   5 - DIIS ACTIVE - HISTORY:     5 CYCLES
 TTTTTTTTTTTTTTTTTTTTTTTTTTTTTT FDIK        TELAPSE       68.69 TCPU     1835.93
 INSULATING STATE
 TOP OF VALENCE BANDS -    BAND     99; K    1; EIG -2.3598616E-01 AU
 BOTTOM OF VIRTUAL BANDS - BAND    100; K   17; EIG -8.9013835E-02 AU
 INDIRECT ENERGY BAND GAP:   3.9993 eV
 BOTTOM OF VIRTUAL BANDS - BAND    100; K    1; EIG -7.0694369E-02 AU
 TTTTTTTTTTTTTTTTTTTTTTTTTTTTTT PDIG        TELAPSE       68.98 TCPU     1842.07
 CHARGE NORMALIZATION FACTOR   1.00000000
 TOTAL ATOMIC CHARGES:
   4.5035030   4.5022486   4.5018399   4.5022691   4.5024034   4.5034753
   0.8790078   0.8791416   0.8796275   0.8794786   0.8787614   0.8787532
   0.8787715   0.8786727   0.8796212   0.8794908   0.8790104   0.8790120
   5.9180313   6.1612469   6.1623090   6.1628620   6.1664110   5.9246175
   5.9196884   6.1617590   6.1641247   6.1620795   6.1639574   5.9255970
   5.9181082   6.1627837   6.1666338   6.1610151   6.1625076   5.9247228
   8.4906563   8.4908538   8.4913055   8.4907214   8.4920275   8.4908929
 TTTTTTTTTTTTTTTTTTTTTTTTTTTTTT MOQGAD      TELAPSE       69.03 TCPU     1842.12
 TTTTTTTTTTTTTTTTTTTTTTTTTTTTTT SHELLXN     TELAPSE       77.11 TCPU     2099.81
 TTTTTTTTTTTTTTTTTTTTTTTTTTTTTT MONMO3      TELAPSE       77.27 TCPU     2104.96
 NUMERICALLY INTEGRATED DENSITY    198.0000423371
 TTTTTTTTTTTTTTTTTTTTTTTTTTTTTT NUMDFT      TELAPSE       77.83 TCPU     2122.94
 CYC   6 ETOT(AU) -1.289108298737E+03 DETOT -8.19E-07 tst  1.34E-06 PX  1.32E-03
 TTTTTTTTTTTTTTTTTTTTTTTTTTTTTT DIIS        TELAPSE       77.90 TCPU     2125.15
 DIIS TEST: 0.10603E-03 AT SCF   CYCLE   6 - DIIS ACTIVE - HISTORY:     6 CYCLES
 TTTTTTTTTTTTTTTTTTTTTTTTTTTTTT FDIK        TELAPSE       78.40 TCPU     2141.22
 INSULATING STATE
 TOP OF VALENCE BANDS -    BAND     99; K    1; EIG -2.3599109E-01 AU
 BOTTOM OF VIRTUAL BANDS - BAND    100; K   17; EIG -8.9048129E-02 AU
 INDIRECT ENERGY BAND GAP:   3.9985 eV
 BOTTOM OF VIRTUAL BANDS - BAND    100; K    1; EIG -7.0729770E-02 AU
 TTTTTTTTTTTTTTTTTTTTTTTTTTTTTT PDIG        TELAPSE       78.68 TCPU     2147.35
 CHARGE NORMALIZATION FACTOR   1.00000000
 TOTAL ATOMIC CHARGES:
   4.5038907   4.5027296   4.5023280   4.5020922   4.5022126   4.5031824
   0.8789778   0.8791543   0.8794983   0.8795815   0.8786605   0.8788336
   0.8786908   0.8787323   0.8794776   0.8796072   0.8789606   0.8790426
   5.9216186   6.1618418   6.1615329   6.1644907   6.1643594   5.9215845
   5.9228461   6.1627155   6.1628720   6.1629531   6.1627930   5.9228936
   5.9219053   6.1644824   6.1645106   6.1617302   6.1616175   5.9214811
   8.4907465   8.4909166   8.4912953   8.4908314   8.4913448   8.4909842
 TTTTTTTTTTTTTTTTTTTTTTTTTTTTTT MOQGAD      TELAPSE       78.73 TCPU     2147.40
 TTTTTTTTTTTTTTTTTTTTTTTTTTTTTT SHELLXN     TELAPSE       86.77 TCPU     2403.71
 +++ ENERGIES IN A.U. +++
 ::: EXT EL-POLE                                  -1.2486870356105E+03
 ::: EXT EL-SPHEROPOLE                             1.4303451110877E+01
 ::: BIELET ZONE E-E                               2.1612047689056E+03
 ::: TOTAL E-E                                     9.2682118440604E+02
 ::: TOTAL E-N + N-E                              -3.6829218029002E+03
 ::: TOTAL N-N                                     3.2078347453123E+02
 ::: KINETIC ENERGY                                1.2799208446923E+03
 ::: PSEUDO TOTAL   ENERGY                        -1.1553962992706E+03
 ::: VIRIAL COEFFICIENT                            1.0511327839704E+00
 TTTTTTTTTTTTTTTTTTTTTTTTTTTTTT MONMO3      TELAPSE       86.93 TCPU     2408.90
 NUMERICALLY INTEGRATED DENSITY    198.0000423399
 EXCHANGE ENERGY: -0.126021472624E+03  CORRELATION ENERGY: -0.769055440653E+01
 TTTTTTTTTTTTTTTTTTTTTTTTTTTTTT NUMDFT      TELAPSE       87.50 TCPU     2426.90
 CYC   7 ETOT(AU) -1.289108326301E+03 DETOT -2.76E-05 tst  6.85E-07 PX  1.32E-03

 == SCF ENDED - CONVERGENCE ON ENERGY      E(AU) -1.2891083263007E+03 CYCLES   7


 ENERGY EXPRESSION=HARTREE+FOCK EXCH*0.00000+(HSESOL     EXCH)*1.00000+PBESOL     CORR


 TOTAL ENERGY(DFT)(AU)(  7) -1.2891083263007E+03 DE-2.8E-05 tester 6.8E-07
 TTTTTTTTTTTTTTTTTTTTTTTTTTTTTT EDFT        TELAPSE       87.50 TCPU     2426.91
 
 INFORMATION **** DFTD3 ENERGY **** CALCULATE DFTD3 ENERGY

           DFT-D V3(BJ)
 DF                                         hsesol3c  
 parameters
 s6       :    1.0000
 s8       :    0.0000
 a1       :    0.5196
 a2       :    4.9385
 k1 k3    :   16.0000   -4.0000
 Cutoff   :   50.2022
 CN-Cutoff:   21.1671
 ABC-Cutoff:   21.1671
 
 Edisp /kcal,au:   -26.0497 -0.04151289

 E6    /kcal :   -27.7817
 E8    /kcal :     0.0000
 E6(ABC) "   :   1.731984
 
 INFORMATION **** DFTD3 ENERGY **** NORMAL TERMINATION OF DFTD3 MODULE

 GCP ENERGY CALCULATION
  level        hsesol3c            basis:hsesol3c
  Nbf            474
  Atoms           42

  Parameters: 
  sigma     1.0000
  eta       1.4281
  alpha     0.2936
  beta      1.9467

  dmp_scal      4.0000
  dmp_exp       6.0000
 cutoffs: 
   distance [bohr] 60.0
   noise    [a.u.] 2.2E-16
 SR-damping   T
 ** gCP correction **
  Egcp:        0.0829777943 / (a.u.) ||      52.0694 / (kcal/mol)
 INFORMATION **** GCP **** NORMAL TERMINATION OF GCP MODULE

 *******************************************************************************

 DFT-D3-GCP DISPERSION AND COUNTERPOISE CORRECTION

 D3 DISPERSION ENERGY (AU)      -4.1512894282868E-02
 GCP ENERGY (AU)                 8.2977794325259E-02
 TOTAL ENERGY + DISP + GCP (AU) -1.2890668614006E+03

 *******************************************************************************

 EIGENVECTORS IN FORTRAN UNIT 10
 TTTTTTTTTTTTTTTTTTTTTTTTTTTTTT END         TELAPSE       88.62 TCPU     2434.00
 EEEEEEEEEE TERMINATION  DATE 19 02 2026 TIME 19:07:06.5
