 Default number of threads is:           32

         
 *******************************************************************************
 *                                                                             *
 *                               CRYSTAL23                                     *
 *                      public : 1.0.1 - October 2022                          *
 *                       HTTP://WWW.CRYSTAL.UNITO.IT                           *
 *                                                                             *
 *                              MAIN AUTHORS                                   *
 *                                                                             *
 *  R. DOVESI(1,11), V.R. SAUNDERS(2), C. ROETTI(1,11), R. ORLANDO(1,11),      *
 *  C.M. ZICOVICH-WILSON(1,3), F. PASCALE(4), B. CIVALLERI(1,11),              *
 *  K. DOLL(5), N.M. HARRISON(6), I.J. BUSH(7), Ph. D'ARCO(8),                 *
 *  M. LLUNELL(9), M. CAUSA'(10), Y. NOEL(8), L. MASCHIO(1,11), A. ERBA(1,11)  *
 *  M. RE'RAT(14), S. CASASSA(1,11), B.G. SEARLE(2), J.K. DESMARAIS(1)         *
 *                                                                             *
 *        CONTRIBUTIONS TO THE CODE HAVE ALSO BEEN GIVEN BY                    *
 *                                                                             *
 *  M. FERRABONE(1,11), M. DE LA PIERRE(1,11), M. FERRERO(1,11),               *
 *  J. BAIMA(1,11), E. ALBANESE(1,11), M.F. PEINTINGER(12), R. BAST(13),       *
 *  B. KIRTMAN(15), V. LACIVITA(1,11), R. DEMICHELIS(1,16)                     *
 *  G. BRANDEBURG(17), S. SALUSTRO(1,11), G. SANSONE(1,11)                     *
 *  M.T. RUGGIERO(18), L.E. DAGA(1), L. DONA'(1), A. COSSARD(1)                *
 *                                                                             *
 * (1) THEORETICAL CHEMISTRY GROUP - UNIVERSITA' DI TORINO - TORINO (ITALY)    *
 * (2) SCIENTIFIC COMPUTING DEPARTMENT - STFC DARESBURY (UK)                   *
 * (3) UNIVERSIDAD AUTONOMA DEL ESTADO DE MORELOS - CUERNAVACA (MEXICO)        *
 * (4) UNIVERSITE' DE LORRAINE - NANCY (FRANCE)                                *
 * (5) UNIVERSITAET STUTTGART- STUTTGART (GERMANY)                             *
 * (6) IMPERIAL COLLEGE - LONDON (UK)                                          *
 * (7) SCIENTIFIC COMPUTING DEPARTMENT - STFC RAL (UK)                         *
 * (8) UPMC - SORBONNE UNIVERSITES - PARIS (FRANCE)                            *
 * (9) UNIVERSIDAD DE BARCELONA - BARCELONA (SPAIN)                            *
 *(10) UNIVERSITA' DI NAPOLI "FEDERICO II" - NAPOLI (ITALY)                    *
 *(11) NIS - NANOSTRUCTURED INTERFACES AND SURFACES - TORINO (ITALY)           *
 *(12) MPI FUER CHEMISCHE ENERGIEKONVERSION - MUELHEIM AN DER RUHR (GERMANY)   *
 *(13) UNIVERSITY OF TROMSO - TROMSO (NORWAY)                                  *
 *(14) UNIVERSITE' DE PAU ET DES PAYS DE L'ADOUR - PAU (FRANCE)                *
 *(15) UNIVERSITY OF CALIFORNIA SANTA BARBARA - SANTA BARBARA (USA)            *
 *(16) CURTIN UNIVERSITY - PERTH (AUSTRALIA)                                   *
 *(17) UNIVERSITY COLLEGE LONDON - LONDON (UK)                                 *
 *(18) UNIVERSITY OF VERMONT - BURLINGTON (USA)                                *
 *                                                                             *
 *******************************************************************************
 EEEEEEEEEE STARTING  DATE 19 02 2026 TIME 19:16:20.0
 cof-1_z43_L040_incl                                                             

 CRYSTAL CALCULATION
 (INPUT ACCORDING TO THE INTERNATIONAL TABLES FOR X-RAY CRYSTALLOGRAPHY)
 CRYSTAL FAMILY                       :  TRICLINIC   
 CRYSTAL CLASS  (GROTH - 1921)        :  TRICLINIC PEDIAL                     

 SPACE GROUP (NONCENTROSYMMETRIC)     :  P 1             

 LATTICE PARAMETERS  (ANGSTROMS AND DEGREES) - CONVENTIONAL CELL
        A           B           C        ALPHA        BETA       GAMMA
    15.02361    15.02392     5.87282    53.85199    89.99996   119.99596


 NUMBER OF IRREDUCIBLE ATOMS IN THE CONVENTIONAL CELL:   42

 INPUT COORDINATES

 ATOM AT. N.              COORDINATES
   1   5     5.366636800000E-01  7.326884000000E-02  5.011081100000E-01
   2   5     6.957193400000E-01  2.323284900000E-01  5.011081200000E-01
   3   5     5.370183700000E-01  2.330292900000E-01  4.987725000000E-01
   4   5     1.502383900000E-01  4.595838300000E-01  5.011081200000E-01
   5   5     3.093463600000E-01  4.595630700000E-01  5.011081100000E-01
   6   5     3.096856000000E-01  6.194202700000E-01  4.987725100000E-01
   7   1     8.267709700000E-01  1.563692400000E-01  4.962659200000E-01
   8   1     2.047568000000E-02  5.387202600000E-01  4.955254700000E-01
   9   1     8.268300800000E-01  4.417742800000E-01  4.954115100000E-01
  10   1     2.059048000000E-02  2.533780500000E-01  4.954399300000E-01
  11   1     6.136127800000E-01 -5.785085000000E-02  5.037286000000E-01
  12   1     2.313963000000E-01  7.483547000000E-01  5.044691000000E-01
  13   1     3.283190400000E-01 -5.806769000000E-02  5.045831300000E-01
  14   1     5.167656600000E-01  7.482384500000E-01  5.045545200000E-01
  15   1     6.148000800000E-01  4.414933800000E-01  4.962659600000E-01
  16   1     2.328029900000E-01  2.532761600000E-01  4.955254200000E-01
  17   1     3.296992500000E-01  1.565251300000E-01  4.954114200000E-01
  18   1     5.181451600000E-01  5.386510100000E-01  4.954400200000E-01
  19   6     8.152455500000E-01  2.926385800000E-01  4.986870400000E-01
  20   6     8.701989400000E-01  2.401897900000E-01  4.963798700000E-01
  21   6    -2.287141000000E-02  4.546507300000E-01  4.961805600000E-01
  22   6     8.701006500000E-01  4.009737400000E-01  4.967787000000E-01
  23   6    -2.268872000000E-02  2.940043800000E-01  4.952405500000E-01
  24   6     3.168005000000E-02  4.013084300000E-01  4.968071600000E-01
  25   6     4.769919100000E-01 -4.594222000000E-02  5.013075000000E-01
  26   6     5.297757500000E-01 -1.012639900000E-01  5.036146300000E-01
  27   6     3.153659300000E-01  7.917819300000E-01  5.038140200000E-01
  28   6     3.689467600000E-01 -1.010945000000E-01  5.032158900000E-01
  29   6     4.761396500000E-01  7.914533800000E-01  5.047539400000E-01
  30   6     3.685914800000E-01  7.373034700000E-01  5.031873700000E-01
  31   6     4.774001100000E-01  2.925694400000E-01  4.986870400000E-01
  32   6     5.309200500000E-01  4.010299200000E-01  4.963799100000E-01
  33   6     3.165638400000E-01  2.936374700000E-01  4.961805100000E-01
  34   6     3.699358100000E-01  2.399715600000E-01  4.967786400000E-01
  35   6     4.776278900000E-01  4.548523900000E-01  4.952406100000E-01
  36   6     3.696041400000E-01  4.012310300000E-01  4.968071600000E-01
  37   8     4.839824800000E-01  1.268466200000E-01  4.993991100000E-01
  38   8     6.421701600000E-01  1.253394900000E-01  5.043267000000E-01
  39   8     6.433104500000E-01  2.865699900000E-01  4.968926300000E-01
  40   8     2.035703000000E-01  5.661270900000E-01  4.993991400000E-01
  41   8     2.028324300000E-01  4.056567800000E-01  5.043266900000E-01
  42   8     3.628948700000E-01  5.668819500000E-01  4.968926100000E-01

 *******************************************************************************

 << INFORMATION >>: FROM NOW ON, ALL COORDINATES REFER TO THE PRIMITIVE CELL

 *******************************************************************************

 LATTICE PARAMETERS  (ANGSTROMS AND DEGREES) - PRIMITIVE CELL
       A          B          C        ALPHA      BETA     GAMMA        VOLUME
   15.02361   15.02392    5.87282    53.85199  89.99996 119.99596    840.575341

 COORDINATES OF THE EQUIVALENT ATOMS (FRACTIONAL UNITS)

 N. ATOM EQUIV AT. N.          X                  Y                  Z

   1   1   1    5 B    -4.63336320000E-01  7.32688400000E-02 -4.98891890000E-01

   2   2   1    5 B    -3.04280660000E-01  2.32328490000E-01 -4.98891880000E-01

   3   3   1    5 B    -4.62981630000E-01  2.33029290000E-01  4.98772500000E-01

   4   4   1    5 B     1.50238390000E-01  4.59583830000E-01 -4.98891880000E-01

   5   5   1    5 B     3.09346360000E-01  4.59563070000E-01 -4.98891890000E-01

   6   6   1    5 B     3.09685600000E-01 -3.80579730000E-01  4.98772510000E-01

   7   7   1    1 H    -1.73229030000E-01  1.56369240000E-01  4.96265920000E-01

   8   8   1    1 H     2.04756800000E-02 -4.61279740000E-01  4.95525470000E-01

   9   9   1    1 H    -1.73169920000E-01  4.41774280000E-01  4.95411510000E-01

  10  10   1    1 H     2.05904800000E-02  2.53378050000E-01  4.95439930000E-01

  11  11   1    1 H    -3.86387220000E-01 -5.78508500000E-02 -4.96271400000E-01

  12  12   1    1 H     2.31396300000E-01 -2.51645300000E-01 -4.95530900000E-01

  13  13   1    1 H     3.28319040000E-01 -5.80676900000E-02 -4.95416870000E-01

  14  14   1    1 H    -4.83234340000E-01 -2.51761550000E-01 -4.95445480000E-01

  15  15   1    1 H    -3.85199920000E-01  4.41493380000E-01  4.96265960000E-01

  16  16   1    1 H     2.32802990000E-01  2.53276160000E-01  4.95525420000E-01

  17  17   1    1 H     3.29699250000E-01  1.56525130000E-01  4.95411420000E-01

  18  18   1    1 H    -4.81854840000E-01 -4.61348990000E-01  4.95440020000E-01

  19  19   1    6 C    -1.84754450000E-01  2.92638580000E-01  4.98687040000E-01

  20  20   1    6 C    -1.29801060000E-01  2.40189790000E-01  4.96379870000E-01

  21  21   1    6 C    -2.28714100000E-02  4.54650730000E-01  4.96180560000E-01

  22  22   1    6 C    -1.29899350000E-01  4.00973740000E-01  4.96778700000E-01

  23  23   1    6 C    -2.26887200000E-02  2.94004380000E-01  4.95240550000E-01

  24  24   1    6 C     3.16800500000E-02  4.01308430000E-01  4.96807160000E-01

  25  25   1    6 C     4.76991910000E-01 -4.59422200000E-02 -4.98692500000E-01

  26  26   1    6 C    -4.70224250000E-01 -1.01263990000E-01 -4.96385370000E-01

  27  27   1    6 C     3.15365930000E-01 -2.08218070000E-01 -4.96185980000E-01

  28  28   1    6 C     3.68946760000E-01 -1.01094500000E-01 -4.96784110000E-01

  29  29   1    6 C     4.76139650000E-01 -2.08546620000E-01 -4.95246060000E-01

  30  30   1    6 C     3.68591480000E-01 -2.62696530000E-01 -4.96812630000E-01

  31  31   1    6 C     4.77400110000E-01  2.92569440000E-01  4.98687040000E-01

  32  32   1    6 C    -4.69079950000E-01  4.01029920000E-01  4.96379910000E-01

  33  33   1    6 C     3.16563840000E-01  2.93637470000E-01  4.96180510000E-01

  34  34   1    6 C     3.69935810000E-01  2.39971560000E-01  4.96778640000E-01

  35  35   1    6 C     4.77627890000E-01  4.54852390000E-01  4.95240610000E-01

  36  36   1    6 C     3.69604140000E-01  4.01231030000E-01  4.96807160000E-01

  37  37   1    8 O     4.83982480000E-01  1.26846620000E-01  4.99399110000E-01

  38  38   1    8 O    -3.57829840000E-01  1.25339490000E-01 -4.95673300000E-01

  39  39   1    8 O    -3.56689550000E-01  2.86569990000E-01  4.96892630000E-01

  40  40   1    8 O     2.03570300000E-01 -4.33872910000E-01  4.99399140000E-01

  41  41   1    8 O     2.02832430000E-01  4.05656780000E-01 -4.95673310000E-01

  42  42   1    8 O     3.62894870000E-01 -4.33118050000E-01  4.96892610000E-01

 NUMBER OF SYMMETRY OPERATORS         :    1
 *******************************************************************************
 * GEOMETRY EDITING - INPUT COORDINATES ARE GIVEN IN ANGSTROM         
 *******************************************************************************

 GCALCO - MAX INDICES DIRECT LATTICE VECTOR     9    12    27
 NO.OF VECTORS CREATED 6999 STARS 3500 RMAX   211.65468 BOHR

 GEOMETRY FOR WAVE FUNCTION - DIMENSIONALITY OF THE SYSTEM    3
 (NON PERIODIC DIRECTION: LATTICE PARAMETER FORMALLY SET TO 500)
 *******************************************************************************
 LATTICE PARAMETERS (ANGSTROMS AND DEGREES) - BOHR = 0.5291772083 ANGSTROM
 PRIMITIVE CELL - CENTRING CODE 1/0 VOLUME=   840.575341 - DENSITY  0.771 g/cm^3
         A              B              C           ALPHA      BETA       GAMMA 
    15.02361100    15.02391600     5.87281900    53.851991  89.999959 119.995964
 *******************************************************************************
 ATOMS IN THE ASYMMETRIC UNIT   42 - ATOMS IN THE UNIT CELL:   42
     ATOM                 X/A                 Y/B                 Z/C    
 *******************************************************************************
      1 T   5 B    -4.633363200000E-01  7.326884000000E-02 -4.988918900000E-01
      2 T   5 B    -3.042806600000E-01  2.323284900000E-01 -4.988918800000E-01
      3 T   5 B    -4.629816300000E-01  2.330292900000E-01  4.987725000000E-01
      4 T   5 B     1.502383900000E-01  4.595838300000E-01 -4.988918800000E-01
      5 T   5 B     3.093463600000E-01  4.595630700000E-01 -4.988918900000E-01
      6 T   5 B     3.096856000000E-01 -3.805797300000E-01  4.987725100000E-01
      7 T   1 H    -1.732290300000E-01  1.563692400000E-01  4.962659200000E-01
      8 T   1 H     2.047568000000E-02 -4.612797400000E-01  4.955254700000E-01
      9 T   1 H    -1.731699200000E-01  4.417742800000E-01  4.954115100000E-01
     10 T   1 H     2.059048000000E-02  2.533780500000E-01  4.954399300000E-01
     11 T   1 H    -3.863872200000E-01 -5.785085000000E-02 -4.962714000000E-01
     12 T   1 H     2.313963000000E-01 -2.516453000000E-01 -4.955309000000E-01
     13 T   1 H     3.283190400000E-01 -5.806769000000E-02 -4.954168700000E-01
     14 T   1 H    -4.832343400000E-01 -2.517615500000E-01 -4.954454800000E-01
     15 T   1 H    -3.851999200000E-01  4.414933800000E-01  4.962659600000E-01
     16 T   1 H     2.328029900000E-01  2.532761600000E-01  4.955254200000E-01
     17 T   1 H     3.296992500000E-01  1.565251300000E-01  4.954114200000E-01
     18 T   1 H    -4.818548400000E-01 -4.613489900000E-01  4.954400200000E-01
     19 T   6 C    -1.847544500000E-01  2.926385800000E-01  4.986870400000E-01
     20 T   6 C    -1.298010600000E-01  2.401897900000E-01  4.963798700000E-01
     21 T   6 C    -2.287141000000E-02  4.546507300000E-01  4.961805600000E-01
     22 T   6 C    -1.298993500000E-01  4.009737400000E-01  4.967787000000E-01
     23 T   6 C    -2.268872000000E-02  2.940043800000E-01  4.952405500000E-01
     24 T   6 C     3.168005000000E-02  4.013084300000E-01  4.968071600000E-01
     25 T   6 C     4.769919100000E-01 -4.594222000000E-02 -4.986925000000E-01
     26 T   6 C    -4.702242500000E-01 -1.012639900000E-01 -4.963853700000E-01
     27 T   6 C     3.153659300000E-01 -2.082180700000E-01 -4.961859800000E-01
     28 T   6 C     3.689467600000E-01 -1.010945000000E-01 -4.967841100000E-01
     29 T   6 C     4.761396500000E-01 -2.085466200000E-01 -4.952460600000E-01
     30 T   6 C     3.685914800000E-01 -2.626965300000E-01 -4.968126300000E-01
     31 T   6 C     4.774001100000E-01  2.925694400000E-01  4.986870400000E-01
     32 T   6 C    -4.690799500000E-01  4.010299200000E-01  4.963799100000E-01
     33 T   6 C     3.165638400000E-01  2.936374700000E-01  4.961805100000E-01
     34 T   6 C     3.699358100000E-01  2.399715600000E-01  4.967786400000E-01
     35 T   6 C     4.776278900000E-01  4.548523900000E-01  4.952406100000E-01
     36 T   6 C     3.696041400000E-01  4.012310300000E-01  4.968071600000E-01
     37 T   8 O     4.839824800000E-01  1.268466200000E-01  4.993991100000E-01
     38 T   8 O    -3.578298400000E-01  1.253394900000E-01 -4.956733000000E-01
     39 T   8 O    -3.566895500000E-01  2.865699900000E-01  4.968926300000E-01
     40 T   8 O     2.035703000000E-01 -4.338729100000E-01  4.993991400000E-01
     41 T   8 O     2.028324300000E-01  4.056567800000E-01 -4.956733100000E-01
     42 T   8 O     3.628948700000E-01 -4.331180500000E-01  4.968926100000E-01

 T = ATOM BELONGING TO THE ASYMMETRIC UNIT

 ****    1 SYMMOPS - TRANSLATORS IN FRACTIONAL UNITS
 **** MATRICES AND TRANSLATORS IN THE CRYSTALLOGRAPHIC REFERENCE FRAME
   V INV                    ROTATION MATRICES                   TRANSLATORS
   1   1  1.00 -0.00  0.00  0.00  1.00  0.00  0.00 -0.00  1.00  0.00  0.00  0.00

 DIRECT LATTICE VECTORS CARTESIAN COMPONENTS (ANGSTROM)
          X                    Y                    Z
   0.130113578931E+02  -0.751088897922E+01   0.000000000000E+00
   0.000000000000E+00   0.150239160000E+02   0.000000000000E+00
   0.199974692730E+01   0.346421840369E+01   0.430002396331E+01


 CARTESIAN COORDINATES - PRIMITIVE CELL
 *******************************************************************************
 *      ATOM          X(ANGSTROM)         Y(ANGSTROM)         Z(ANGSTROM)
 *******************************************************************************
    1     5 B    -7.026292208454E+00  2.852582090346E+00 -2.145247082101E+00
    2     5 B    -4.956762071280E+00  4.047631541801E+00 -2.145247039101E+00
    3     5 B     5.985010054213E+00 -2.268834408306E+00 -2.155290261070E+00
    4     5 B     9.571479574822E-01  4.048054557024E+00 -2.145247039101E+00
    5     5 B     3.027358678792E+00  2.852700327507E+00 -2.145247082101E+00
    6     5 B     3.027102042921E+00  5.243742449821E+00 -2.155290218070E+00
    7     1 H    -3.261285585453E+00  1.905337468549E+00 -2.166068615136E+00
    8     1 H     1.257341936615E+00 -5.367410172844E+00  2.130771395431E+00
    9     1 H    -1.262478160561E+00 -5.369862612317E+00  2.130281364700E+00
   10     1 H    -7.410823451504E-01  1.904171449873E+00 -2.169620391930E+00
   11     1 H    -4.020092684681E+00  3.777991088065E+00  2.166045051005E+00
   12     1 H     4.019590607071E+00 -3.771098628183E+00  2.169229218750E+00
   13     1 H     5.280915096329E+00 -1.590385790939E+00  2.169719550482E+00
   14     1 H    -5.278553592930E+00  1.594962153305E+00  2.169596526797E+00
   15     1 H    -4.019567690864E+00 -3.778589038643E+00  2.133955520175E+00
   16     1 H     2.020261530208E+00  3.090322164924E-01 -2.169252782881E+00
   17     1 H     3.280785476417E+00 -1.872719103400E+00 -2.169742985613E+00
   18     1 H    -5.278831118086E+00 -1.595797829897E+00  2.130403958383E+00
   19     6 C    -3.406405322660E+00  4.047590024604E+00 -2.155657741118E+00
   20     6 C    -2.696000854052E+00  2.838862457247E+00 -2.165578627406E+00
   21     6 C    -1.305099478082E+00  5.257078421981E+00 -2.166435665182E+00
   22     6 C    -2.696482181352E+00  5.256586895699E+00 -2.163863648848E+00
   23     6 C    -1.304602215218E+00  2.838912589625E+00 -2.170477730707E+00
   24     6 C    -5.940578670089E-01  4.048108907072E+00 -2.163741270166E+00
   25     6 C     7.208800585860E+00 -2.536226666719E+00  2.155634262987E+00
   26     6 C    -5.111154197859E+00  3.755051527115E+00  2.165554977274E+00
   27     6 C     5.110839520932E+00 -3.751607481298E+00  2.166412359052E+00
   28     6 C     5.806802767639E+00 -2.546703682496E+00  2.163840385719E+00
   29     6 C    -5.806754359275E+00  2.550047916783E+00  2.170454037575E+00
   30     6 C     1.802629205027E+00  3.123449855100E+00 -6.436330177586E+00
   31     6 C     5.209124638019E+00 -9.268181161897E-01 -2.155657741118E+00
   32     6 C     5.900878055646E+00  2.927082949300E-01 -2.165578455405E+00
   33     6 C     3.111413941199E+00  2.885680772617E-01 -2.166435880183E+00
   34     6 C     3.807051852957E+00 -9.165029349602E-01 -2.163863906850E+00
   35     6 C     5.205196377318E+00  1.497657276318E+00 -2.170477472706E+00
   36     6 C     3.802793408667E+00  1.508835732581E+00 -2.163741270166E+00
   37     8 O     5.296194169668E+00 -3.463596527444E+00 -2.152595823055E+00
   38     8 O    -5.647073271674E+00  2.853589602855E+00 -2.131407067973E+00
   39     8 O    -1.647608954424E+00 -2.853893934826E+00  6.436674179503E+00
   40     8 O     1.647650998109E+00  5.242261210603E+00 -2.152595694054E+00
   41     8 O     1.647904160432E+00  2.853980921715E+00 -2.131407110973E+00
   42     8 O     3.715667573870E+00  4.048249839548E+00 -2.163373833119E+00

 *******************************************************************************
 STARTING BASIS SET HANDLING 
 *******************************************************************************

 Loading internal basis set: SOLDEF2MSVP         

 Please cite in your publication:
 L. Dona', J. G. Brandenburg and B. Civalleri, J. Chem. Phys., 151, 121101 (2019
 )                                                                              
                                                                                
                    

 *******************************************************************************
 LOCAL ATOMIC FUNCTIONS BASIS SET
 *******************************************************************************
   ATOM   X(AU)   Y(AU)   Z(AU)  N. TYPE  EXPONENT  S COEF   P COEF   D/F/G COEF
 *******************************************************************************
   1 B  -13.278   5.391  -4.054
                                  1 S  
                                         2.410E+03 1.755E-03 0.000E+00 0.000E+00
                                         3.619E+02 1.344E-02 0.000E+00 0.000E+00
                                         8.231E+01 6.637E-02 0.000E+00 0.000E+00
                                         2.311E+01 2.303E-01 0.000E+00 0.000E+00
                                         7.252E+00 5.150E-01 0.000E+00 0.000E+00
                                  2 S  
                                         2.367E+00 1.000E+00 0.000E+00 0.000E+00
                                  3 S  
                                         5.533E-01 1.000E+00 0.000E+00 0.000E+00
                                  4 S  
                                         1.716E-01 1.000E+00 0.000E+00 0.000E+00
                           5-     7 P  
                                         6.002E+00 0.000E+00-3.555E-02 0.000E+00
                                         1.240E+00 0.000E+00-1.983E-01 0.000E+00
                                         3.367E-01 0.000E+00-5.048E-01 0.000E+00
                           8-    10 P  
                                         1.256E-01 0.000E+00 1.000E+00 0.000E+00
                          11-    15 D  
                                         8.880E-01 0.000E+00 0.000E+00 1.000E+00
   2 B   -9.367   7.649  -4.054
   3 B   11.310  -4.287  -4.073
   4 B    1.809   7.650  -4.054
   5 B    5.721   5.391  -4.054
   6 B    5.720   9.909  -4.073
   7 H   -6.163   3.601  -4.093
                                 91 S  
                                         1.874E+01 1.968E-02 0.000E+00 0.000E+00
                                         2.826E+00 1.380E-01 0.000E+00 0.000E+00
                                         6.401E-01 4.783E-01 0.000E+00 0.000E+00
                                 92 S  
                                         1.756E-01 1.000E+00 0.000E+00 0.000E+00
   8 H    2.376 -10.143   4.027
   9 H   -2.386 -10.148   4.026
  10 H   -1.400   3.598  -4.100
  11 H   -7.597   7.139   4.093
  12 H    7.596  -7.126   4.099
  13 H    9.979  -3.005   4.100
  14 H   -9.975   3.014   4.100
  15 H   -7.596  -7.140   4.033
  16 H    3.818   0.584  -4.099
  17 H    6.200  -3.539  -4.100
  18 H   -9.976  -3.016   4.026
  19 C   -6.437   7.649  -4.074
                                115 S  
                                         3.624E+03 1.634E-03 0.000E+00 0.000E+00
                                         5.440E+02 1.252E-02 0.000E+00 0.000E+00
                                         1.237E+02 6.211E-02 0.000E+00 0.000E+00
                                         3.476E+01 2.182E-01 0.000E+00 0.000E+00
                                         1.093E+01 4.980E-01 0.000E+00 0.000E+00
                                116 S  
                                         3.574E+00 1.000E+00 0.000E+00 0.000E+00
                                117 S  
                                         7.742E-01 1.000E+00 0.000E+00 0.000E+00
                                118 S  
                                         2.330E-01 1.000E+00 0.000E+00 0.000E+00
                         119-   121 P  
                                         9.443E+00 0.000E+00 3.790E-02 0.000E+00
                                         2.002E+00 0.000E+00 2.082E-01 0.000E+00
                                         5.463E-01 0.000E+00 5.047E-01 0.000E+00
                         122-   124 P  
                                         1.820E-01 0.000E+00 1.000E+00 0.000E+00
                         125-   129 D  
                                         8.880E-01 0.000E+00 0.000E+00 1.000E+00
  20 C   -5.095   5.365  -4.092
  21 C   -2.466   9.934  -4.094
  22 C   -5.096   9.934  -4.089
  23 C   -2.465   5.365  -4.102
  24 C   -1.123   7.650  -4.089
  25 C   13.623  -4.793   4.074
  26 C   -9.659   7.096   4.092
  27 C    9.658  -7.090   4.094
  28 C   10.973  -4.813   4.089
  29 C  -10.973   4.819   4.102
  30 C    3.406   5.902 -12.163
  31 C    9.844  -1.751  -4.074
  32 C   11.151   0.553  -4.092
  33 C    5.880   0.545  -4.094
  34 C    7.194  -1.732  -4.089
  35 C    9.836   2.830  -4.102
  36 C    7.186   2.851  -4.089
  37 O   10.008  -6.545  -4.068
                                385 S  
                                         6.773E+03 1.727E-03 0.000E+00 0.000E+00
                                         1.017E+03 1.325E-02 0.000E+00 0.000E+00
                                         2.313E+02 6.603E-02 0.000E+00 0.000E+00
                                         6.501E+01 2.353E-01 0.000E+00 0.000E+00
                                         2.050E+01 5.498E-01 0.000E+00 0.000E+00
                                386 S  
                                         6.716E+00 1.000E+00 0.000E+00 0.000E+00
                                387 S  
                                         1.147E+00 1.000E+00 0.000E+00 0.000E+00
                                388 S  
                                         3.342E-01 1.000E+00 0.000E+00 0.000E+00
                         389-   391 P  
                                         1.769E+01 0.000E+00 4.359E-02 0.000E+00
                                         3.854E+00 0.000E+00 2.318E-01 0.000E+00
                                         1.047E+00 0.000E+00 5.146E-01 0.000E+00
                         392-   394 P  
                                         2.759E-01 0.000E+00 1.000E+00 0.000E+00
                         395-   399 D  
                                         8.000E-01 0.000E+00 0.000E+00 1.000E+00
  38 O  -10.671   5.393  -4.028
  39 O   -3.114  -5.393  12.164
  40 O    3.114   9.906  -4.068
  41 O    3.114   5.393  -4.028
  42 O    7.022   7.650  -4.088

 *******************************************************************************
 FINISHED BASIS SET HANDLING 
 *******************************************************************************

 INFORMATION **** SET_MPP **** PCRYSTAL CALCULATION
 INFORMATION **** READM2 **** NEW DEFAULT: FOCK/KS MATRIX MIXING SET TO 30 %
 INFORMATION **** READM2 **** NEW DEFAULT: FULL DIRECT SCF MODE
 INFORMATION **** READM2 **** NEW DEFAULT: COULOMB BIPOLAR BUFFER SET TO 32 Mb
 INFORMATION **** READM2 **** NEW DEFAULT: EXCHANGE BIPOLAR BUFFER SET TO 32 Mb

 *******************************************************************************
 NEW DEFAULT: DFT INTEGRATION GRID INCREASED TO XLGRID
 NEW DEFAULT: DIIS ACCELERATOR ACTIVE
 USE KEYWORD NODIIS TO TURN IT OFF
 *******************************************************************************

 WARNING **** RDDFTP **** HSEsol-HJS ACTIVE
 RANGE SEPARATION - OMEGA:   0.110000000000000     
 WARNING **** RDDFTP **** HSEsol-3c has to be combined with sol-def2-mSVP basis set
 *******************************************************************************
 N. OF ATOMS PER CELL        42  COULOMB OVERLAP TOL         (T1) 10**   -6
 NUMBER OF SHELLS           234  COULOMB PENETRATION TOL     (T2) 10**   -6
 NUMBER OF AO               474  EXCHANGE OVERLAP TOL        (T3) 10**   -6
 N. OF ELECTRONS PER CELL   198  EXCHANGE PSEUDO OVP (F(G))  (T4) 10**   -6
 CORE ELECTRONS PER CELL     60  EXCHANGE PSEUDO OVP (P(G))  (T5) 10**  -12
 N. OF SYMMETRY OPERATORS     1  POLE ORDER IN MONO ZONE                  4
 *******************************************************************************
 TYPE OF CALCULATION :  RESTRICTED CLOSED SHELL
 KOHN-SHAM HAMILTONIAN

 (EXCHANGE)[CORRELATION] FUNCTIONAL:(HSEsol GGA)[PBEsol]

 RANGE-SEPARATED HYBRID FUNCTIONAL 
 OMEGA (SHORT-RANGE)[LONG-RANGE]:(    0.1100)[    0.0000]

 HYBRID EXCHANGE - PERCENTAGE OF FOCK EXCHANGE    25.0000

 CAPPA:IS1  2;IS2  2;IS3  8; K PTS MONK NET  20; SYMMOPS:K SPACE   2;G SPACE   1

 *******************************************************************************
 MAX NUMBER OF SCF CYCLES      50  CONVERGENCE ON DELTAP        10**-16
 WEIGHT OF F(I) IN F(I+1)      30% CONVERGENCE ON ENERGY        10**- 6
 SHRINK. FACT.(MONKH.)    2  2  8  NUMBER OF K POINTS IN THE IBZ     20
 SHRINKING FACTOR(GILAT NET)    8  NUMBER OF K POINTS(GILAT NET)   1028
 *******************************************************************************
 *** K POINTS COORDINATES (OBLIQUE COORDINATES IN UNITS OF IS =  2)
   1-R(  0  0  0)   2-R(  1  0  0)   3-R(  0  1  0)   4-R(  1  1  0)
   5-C(  0  0  1)   6-C(  1  0  1)   7-C(  0  1  1)   8-C(  1  1  1)
   9-C(  0  0  2)  10-C(  1  0  2)  11-C(  0  1  2)  12-C(  1  1  2)
  13-C(  0  0  3)  14-C(  1  0  3)  15-C(  0  1  3)  16-C(  1  1  3)
  17-R(  0  0  4)  18-R(  1  0  4)  19-R(  0  1  4)  20-R(  1  1  4)

 DIRECT LATTICE VECTORS COMPON. (A.U.)     RECIP. LATTICE VECTORS COMPON. (A.U.) 
        X            Y            Z              X            Y            Z
   24.5879030  -14.1935232    0.0000000      0.2555397    0.0000000   -0.1188400
    0.0000000   28.3910867    0.0000000      0.1277517    0.2213084   -0.2377037
    3.7789740    6.5464241    8.1258677      0.0000000    0.0000000    0.7732325

 DISK SPACE FOR EIGENVECTORS (FTN 10)     7189632 REALS

 SYMMETRY ADAPTION OF THE BLOCH FUNCTIONS DISABLED
 TTTTTTTTTTTTTTTTTTTTTTTTTTTTTT gordsh1     TELAPSE        0.04 TCPU        0.04

 MATRIX SIZE: P(G)  291122, F(G)   59428, P(G) IRR  146644, F(G) IRR   60052
 MAX G-VECTOR INDEX FOR 1- AND 2-ELECTRON INTEGRALS  47

 TTTTTTTTTTTTTTTTTTTTTTTTTTTTTT INPUT       TELAPSE        0.34 TCPU        0.34

 NEIGHBORS OF THE NON-EQUIVALENT ATOMS

 N = NUMBER OF NEIGHBORS AT DISTANCE R
    ATOM  N     R/ANG      R/AU   NEIGHBORS (ATOM LABELS AND CELL INDICES)
   1 B    1     1.3791     2.6061   37 O   -1 0 0
   1 B    1     1.3793     2.6065   38 O    0 0 0
   1 B    1     1.5503     2.9297   25 C   -1 0-1
   1 B    1     2.3895     4.5155    3 B   -1 0 0
   1 B    1     2.3898     4.5160    2 B    0 0 0
   1 B    1     2.5632     4.8437   26 C    0 0-1

   2 B    1     1.3793     2.6065   39 O    0 1-2
   2 B    1     1.3793     2.6065   38 O    0 0 0
   2 B    1     1.5504     2.9298   19 C    0 0 0
   2 B    1     2.3895     4.5156    3 B   -1 0 0
   2 B    1     2.3898     4.5160    1 B    0 0 0
   2 B    1     2.5634     4.8440   22 C    0 0 0

   3 B    1     1.3791     2.6061   37 O    0 0 0
   3 B    1     1.3793     2.6064   39 O    1 1-2
   3 B    1     1.5502     2.9294   31 C    0 0 0
   3 B    1     2.3895     4.5155    1 B    1 0 0
   3 B    1     2.3895     4.5156    2 B    1 0 0
   3 B    1     2.5629     4.8433   32 C    0 0 0

   4 B    1     1.3795     2.6068   40 O    0 0 0
   4 B    1     1.3795     2.6070   41 O    0 0 0
   4 B    1     1.5513     2.9316   24 C    0 0 0
   4 B    1     2.3905     4.5174    6 B    0 0 0
   4 B    1     2.3905     4.5175    5 B    0 0 0
   4 B    1     2.5648     4.8468   23 C    0 0 0

   5 B    1     1.3795     2.6069   41 O    0 0 0
   5 B    1     1.3797     2.6072   42 O    0 0 0
   5 B    1     1.5516     2.9322   36 C    0 0 0
   5 B    1     2.3905     4.5175    4 B    0 0 0
   5 B    1     2.3911     4.5185    6 B    0 0 0
   5 B    1     2.5651     4.8473   35 C    0 0 0

   6 B    1     1.3795     2.6068   40 O    0 0 0
   6 B    1     1.3796     2.6071   42 O    0 0 0
   6 B    1     1.5516     2.9322   30 C    0 0 1
   6 B    1     2.3905     4.5174    4 B    0 0 0
   6 B    1     2.3911     4.5185    5 B    0 0 0
   6 B    1     2.5651     4.8473   29 C    1 1-1

   7 H    1     1.0913     2.0623   20 C    0 0 0
   7 H    1     2.1472     4.0576   19 C    0 0 0
   7 H    1     2.1680     4.0969   23 C    0 0 0
   7 H    1     2.5202     4.7625   10 H    0 0 0
   7 H    1     2.5676     4.8520   38 O    0 0 0
   7 H    1     2.7321     5.1630    2 B    0 0 0

   8 H    1     1.0914     2.0625   21 C    0-1 1
   8 H    1     2.1493     4.0616   24 C    0-1 1
   8 H    1     2.1666     4.0942   22 C    0-1 1
   8 H    1     2.5198     4.7618    9 H    0 0 0
   8 H    1     2.5720     4.8604   40 O    0-1 1
   8 H    1     2.7362     5.1707    4 B    0-1 1

   9 H    1     1.0914     2.0624   22 C    0-1 1
   9 H    1     2.1471     4.0575   19 C    0-1 1
   9 H    1     2.1680     4.0970   21 C    0-1 1
   9 H    1     2.5198     4.7618    8 H    0 0 0
   9 H    1     2.5665     4.8500   39 O    0 0-1
   9 H    1     2.7315     5.1618    2 B    0-1 1

  10 H    1     1.0915     2.0626   23 C    0 0 0
  10 H    1     2.1490     4.0610   24 C    0 0 0
  10 H    1     2.1669     4.0948   20 C    0 0 0
  10 H    1     2.5202     4.7625    7 H    0 0 0
  10 H    1     2.5712     4.8588   41 O    0 0 0
  10 H    1     2.7351     5.1686    4 B    0 0 0

  11 H    1     1.0913     2.0623   26 C    0 0 0
  11 H    1     2.1469     4.0571   25 C   -1 0 0
  11 H    1     2.1680     4.0968   29 C    0 0 0
  11 H    1     2.5198     4.7617   14 H    0 0 0
  11 H    1     2.5670     4.8510   38 O    0 0 1
  11 H    1     2.7310     5.1609    1 B    0 0 1

  12 H    1     1.0914     2.0625   27 C    0 0 0
  12 H    1     2.1493     4.0617   30 C    0-1 2
  12 H    1     2.1664     4.0939   28 C    0 0 0
  12 H    1     2.5192     4.7606   13 H    0 0 0
  12 H    1     2.5735     4.8632   40 O    0-1 1
  12 H    1     2.7371     5.1723    6 B    0-1 1

  13 H    1     1.0914     2.0624   28 C    0 0 0
  13 H    1     2.1475     4.0581   25 C    0 0 0
  13 H    1     2.1679     4.0967   27 C    0 0 0
  13 H    1     2.5192     4.7606   12 H    0 0 0
  13 H    1     2.5675     4.8519   37 O    0 0 1
  13 H    1     2.7328     5.1643    1 B    1 0 1

  14 H    1     1.0914     2.0625   29 C    0 0 0
  14 H    1     2.1491     4.0612   30 C   -1-1 2
  14 H    1     2.1666     4.0942   26 C    0 0 0
  14 H    1     2.5198     4.7617   11 H    0 0 0
  14 H    1     2.5723     4.8609   42 O   -1-1 1
  14 H    1     2.7355     5.1693    6 B   -1-1 1

  15 H    1     1.0914     2.0624   32 C   -1-1 1
  15 H    1     2.1475     4.0582   31 C   -1-1 1
  15 H    1     2.1678     4.0966   35 C   -1-1 1
  15 H    1     2.5200     4.7621   18 H    0 0 0
  15 H    1     2.5667     4.8503   39 O    0 0-1
  15 H    1     2.7315     5.1618    3 B   -1-1 1

  16 H    1     1.0913     2.0623   33 C    0 0 0
  16 H    1     2.1487     4.0605   36 C    0 0 0
  16 H    1     2.1667     4.0945   34 C    0 0 0
  16 H    1     2.5197     4.7616   17 H    0 0 0
  16 H    1     2.5723     4.8610   41 O    0 0 0
  16 H    1     2.7359     5.1701    5 B    0 0 0

  17 H    1     1.0915     2.0626   34 C    0 0 0
  17 H    1     2.1479     4.0589   31 C    0 0 0
  17 H    1     2.1679     4.0968   33 C    0 0 0
  17 H    1     2.5197     4.7616   16 H    0 0 0
  17 H    1     2.5677     4.8522   37 O    0 0 0
  17 H    1     2.7331     5.1648    3 B    0 0 0

  18 H    1     1.0914     2.0624   35 C   -1-1 1
  18 H    1     2.1486     4.0602   36 C   -1-1 1
  18 H    1     2.1668     4.0947   32 C   -1-1 1
  18 H    1     2.5200     4.7621   15 H    0 0 0
  18 H    1     2.5717     4.8598   42 O   -1-1 1
  18 H    1     2.7349     5.1682    5 B   -1-1 1

  19 C    1     1.4020     2.6495   22 C    0 0 0
  19 C    1     1.4021     2.6495   20 C    0 0 0
  19 C    1     1.5504     2.9298    2 B    0 0 0
  19 C    1     2.1471     4.0575    9 H    0 1-1
  19 C    1     2.1472     4.0576    7 H    0 0 0
  19 C    1     2.4246     4.5817   21 C    0 0 0

  20 C    1     1.0913     2.0623    7 H    0 0 0
  20 C    1     1.3914     2.6294   23 C    0 0 0
  20 C    1     1.4021     2.6495   19 C    0 0 0
  20 C    1     2.1669     4.0948   10 H    0 0 0
  20 C    1     2.4177     4.5688   22 C    0 0 0
  20 C    1     2.4250     4.5825   24 C    0 0 0

  21 C    1     1.0914     2.0625    8 H    0 1-1
  21 C    1     1.3914     2.6293   22 C    0 0 0
  21 C    1     1.4026     2.6505   24 C    0 0 0
  21 C    1     2.1680     4.0970    9 H    0 1-1
  21 C    1     2.4182     4.5697   23 C    0 0 0
  21 C    1     2.4246     4.5817   19 C    0 0 0

  22 C    1     1.0914     2.0624    9 H    0 1-1
  22 C    1     1.3914     2.6293   21 C    0 0 0
  22 C    1     1.4020     2.6495   19 C    0 0 0
  22 C    1     2.1666     4.0942    8 H    0 1-1
  22 C    1     2.4177     4.5688   20 C    0 0 0
  22 C    1     2.4250     4.5826   24 C    0 0 0

  23 C    1     1.0915     2.0626   10 H    0 0 0
  23 C    1     1.3914     2.6294   20 C    0 0 0
  23 C    1     1.4025     2.6504   24 C    0 0 0
  23 C    1     2.1680     4.0969    7 H    0 0 0
  23 C    1     2.4182     4.5697   21 C    0 0 0
  23 C    1     2.4246     4.5818   19 C    0 0 0

  24 C    1     1.4025     2.6504   23 C    0 0 0
  24 C    1     1.4026     2.6505   21 C    0 0 0
  24 C    1     1.5513     2.9316    4 B    0 0 0
  24 C    1     2.1490     4.0610   10 H    0 0 0
  24 C    1     2.1493     4.0616    8 H    0 1-1
  24 C    1     2.4250     4.5825   20 C    0 0 0

  25 C    1     1.4020     2.6494   26 C    1 0 0
  25 C    1     1.4021     2.6495   28 C    0 0 0
  25 C    1     1.5503     2.9297    1 B    1 0 1
  25 C    1     2.1469     4.0571   11 H    1 0 0
  25 C    1     2.1475     4.0581   13 H    0 0 0
  25 C    1     2.4246     4.5818   27 C    0 0 0

  26 C    1     1.0913     2.0623   11 H    0 0 0
  26 C    1     1.3914     2.6293   29 C    0 0 0
  26 C    1     1.4020     2.6494   25 C   -1 0 0
  26 C    1     2.1666     4.0942   14 H    0 0 0
  26 C    1     2.4175     4.5684   28 C   -1 0 0
  26 C    1     2.4251     4.5828   30 C   -1-1 2

  27 C    1     1.0914     2.0625   12 H    0 0 0
  27 C    1     1.3915     2.6295   28 C    0 0 0
  27 C    1     1.4026     2.6505   30 C    0-1 2
  27 C    1     2.1679     4.0967   13 H    0 0 0
  27 C    1     2.4179     4.5691   29 C    1 0 0
  27 C    1     2.4246     4.5818   25 C    0 0 0

  28 C    1     1.0914     2.0624   13 H    0 0 0
  28 C    1     1.3915     2.6295   27 C    0 0 0
  28 C    1     1.4021     2.6495   25 C    0 0 0
  28 C    1     2.1664     4.0939   12 H    0 0 0
  28 C    1     2.4175     4.5684   26 C    1 0 0
  28 C    1     2.4253     4.5832   30 C    0-1 2

  29 C    1     1.0914     2.0625   14 H    0 0 0
  29 C    1     1.3914     2.6293   26 C    0 0 0
  29 C    1     1.4025     2.6504   30 C   -1-1 2
  29 C    1     2.1680     4.0968   11 H    0 0 0
  29 C    1     2.4179     4.5691   27 C   -1 0 0
  29 C    1     2.4247     4.5819   25 C   -1 0 0

  30 C    1     1.4025     2.6504   29 C    1 1-2
  30 C    1     1.4026     2.6505   27 C    0 1-2
  30 C    1     1.5516     2.9322    6 B    0 0-1
  30 C    1     2.1491     4.0612   14 H    1 1-2
  30 C    1     2.1493     4.0617   12 H    0 1-2
  30 C    1     2.4251     4.5828   26 C    1 1-2

  31 C    1     1.4021     2.6496   32 C    0 0 0
  31 C    1     1.4021     2.6497   34 C    0 0 0
  31 C    1     1.5502     2.9294    3 B    0 0 0
  31 C    1     2.1475     4.0582   15 H    1 1-1
  31 C    1     2.1479     4.0589   17 H    0 0 0
  31 C    1     2.4244     4.5814   33 C    0 0 0

  32 C    1     1.0914     2.0624   15 H    1 1-1
  32 C    1     1.3914     2.6293   35 C    0 0 0
  32 C    1     1.4021     2.6496   31 C    0 0 0
  32 C    1     2.1668     4.0947   18 H    1 1-1
  32 C    1     2.4179     4.5692   34 C    0 0 0
  32 C    1     2.4251     4.5827   36 C    0 0 0

  33 C    1     1.0913     2.0623   16 H    0 0 0
  33 C    1     1.3914     2.6294   34 C    0 0 0
  33 C    1     1.4025     2.6504   36 C    0 0 0
  33 C    1     2.1679     4.0968   17 H    0 0 0
  33 C    1     2.4178     4.5690   35 C    0 0 0
  33 C    1     2.4244     4.5814   31 C    0 0 0

  34 C    1     1.0915     2.0626   17 H    0 0 0
  34 C    1     1.3914     2.6294   33 C    0 0 0
  34 C    1     1.4021     2.6497   31 C    0 0 0
  34 C    1     2.1667     4.0945   16 H    0 0 0
  34 C    1     2.4179     4.5692   32 C    0 0 0
  34 C    1     2.4253     4.5832   36 C    0 0 0

  35 C    1     1.0914     2.0624   18 H    1 1-1
  35 C    1     1.3914     2.6293   32 C    0 0 0
  35 C    1     1.4025     2.6503   36 C    0 0 0
  35 C    1     2.1678     4.0966   15 H    1 1-1
  35 C    1     2.4178     4.5690   33 C    0 0 0
  35 C    1     2.4245     4.5817   31 C    0 0 0

  36 C    1     1.4025     2.6503   35 C    0 0 0
  36 C    1     1.4025     2.6504   33 C    0 0 0
  36 C    1     1.5516     2.9322    5 B    0 0 0
  36 C    1     2.1486     4.0602   18 H    1 1-1
  36 C    1     2.1487     4.0605   16 H    0 0 0
  36 C    1     2.4251     4.5827   32 C    0 0 0

  37 O    1     1.3791     2.6061    1 B    1 0 0
  37 O    1     1.3791     2.6061    3 B    0 0 0
  37 O    1     2.3880     4.5126   38 O    1 0 0
  37 O    1     2.3882     4.5130   39 O    1 1-2
  37 O    1     2.5383     4.7966   31 C    0 0 0
  37 O    1     2.5384     4.7968   25 C    0 0-1

  38 O    1     1.3793     2.6065    1 B    0 0 0
  38 O    1     1.3793     2.6065    2 B    0 0 0
  38 O    1     2.3880     4.5126   37 O   -1 0 0
  38 O    1     2.3882     4.5131   39 O    0 1-2
  38 O    1     2.5391     4.7981   19 C    0 0 0
  38 O    1     2.5395     4.7990   25 C   -1 0-1

  39 O    1     1.3793     2.6064    3 B   -1-1 2
  39 O    1     1.3793     2.6065    2 B    0-1 2
  39 O    1     2.3882     4.5130   37 O   -1-1 2
  39 O    1     2.3882     4.5131   38 O    0-1 2
  39 O    1     2.5390     4.7980   19 C    0-1 2
  39 O    1     2.5391     4.7982   31 C   -1-1 2

  40 O    1     1.3795     2.6068    6 B    0 0 0
  40 O    1     1.3795     2.6068    4 B    0 0 0
  40 O    1     2.3880     4.5126   42 O    0 0 0
  40 O    1     2.3884     4.5134   41 O    0 0 0
  40 O    1     2.5400     4.7998   24 C    0 0 0
  40 O    1     2.5403     4.8005   30 C    0 0 1

  41 O    1     1.3795     2.6069    5 B    0 0 0
  41 O    1     1.3795     2.6070    4 B    0 0 0
  41 O    1     2.3881     4.5128   42 O    0 0 0
  41 O    1     2.3884     4.5134   40 O    0 0 0
  41 O    1     2.5404     4.8006   24 C    0 0 0
  41 O    1     2.5405     4.8008   36 C    0 0 0

  42 O    1     1.3796     2.6071    6 B    0 0 0
  42 O    1     1.3797     2.6072    5 B    0 0 0
  42 O    1     2.3880     4.5126   40 O    0 0 0
  42 O    1     2.3881     4.5128   41 O    0 0 0
  42 O    1     2.5409     4.8016   36 C    0 0 0
  42 O    1     2.5410     4.8019   30 C    0 0 1


 SYMMETRY ALLOWED INTERNAL DEGREE(S) OF FREEDOM: 123
 TTTTTTTTTTTTTTTTTTTTTTTTTTTTTT SYMM        TELAPSE        0.35 TCPU        0.34
 TTTTTTTTTTTTTTTTTTTTTTTTTTTTTT INT_SCREEN  TELAPSE        0.38 TCPU        0.37

 DFT PARAMETERS

     ATOM       ELECTRONS   NET CHARGE   R(ANGSTROM)
   1   5  B       5.0000      0.0000     0.89000000
   7   1  H       1.0000      0.0000     1.11000000
  19   6  C       6.0000      0.0000     0.77000000
  37   8  O       8.0000      0.0000     0.74000000

 SIZE OF GRID=    1332487
 TTTTTTTTTTTTTTTTTTTTTTTTTTTTTT MAKE_GRID2  TELAPSE        7.97 TCPU        7.96
 BECKE WEIGHT FUNCTION
 RADSAFE =     2.00
 TOLERANCES - DENSITY:10**- 6; POTENTIAL:10**- 9; GRID WGT:10**-14

 RADIAL INTEGRATION  - INTERVALS (POINTS,UPPER LIMIT):            1( 75,  4.0*R)

 ANGULAR INTEGRATION - INTERVALS (ACCURACY LEVEL [N. POINTS] UPPER LIMIT):
  1(  4[  86]   0.2)  2(  8[ 194]   0.5)  3( 12[ 350]   0.9)  4( 16[ 974]   3.5)
  5( 12[ 350]9999.0)
 TTTTTTTTTTTTTTTTTTTTTTTTTTTTTT INT_CALC    TELAPSE        8.04 TCPU        8.03
 EEEEEEEEEE INT_CALC TERMINATION  DATE 19 02 2026 TIME 19:16:28.0

 *******************************************************************************
 cof-1_z43_L040_incl                                                             
 CRYSTAL - SCF - TYPE OF CALCULATION :  RESTRICTED CLOSED SHELL
 *******************************************************************************

 CAPPA:IS1  2;IS2  2;IS3  8; K PTS MONK NET  20; SYMMOPS:K SPACE   2;G SPACE   1

 TTTTTTTTTTTTTTTTTTTTTTTTTTTTTT SDIK        TELAPSE        8.64 TCPU       15.97

 AAAAAAAAAAAAAAAAAAAAAAAAAAAAAAAAAAAAAAAAAAAAAAAAAAAAAAAAAAAAAAAAAAAAAAAAAAAAAAA
         ATOMIC WAVEFUNCTION(S)


 NUCLEAR CHARGE  5.0  SYMMETRY SPECIES            S    P
 N. ELECTRONS    5.0  NUMBER OF PRIMITIVE GTOS    8    4
                      NUMBER OF CONTRACTED GTOS   4    2
                      NUMBER OF CLOSED SHELLS     2    0
                      OPEN SHELL OCCUPATION       0    1

  ZNUC  SCFIT    TOTAL HF ENERGY   KINETIC ENERGY   VIRIAL THEOREM ACCURACY
   5.0    11    -2.451164084E+01  2.462155050E+01 -1.995536038E+00  1.5E-06

 NUCLEAR CHARGE  1.0  SYMMETRY SPECIES            S
 N. ELECTRONS    1.0  NUMBER OF PRIMITIVE GTOS    4
                      NUMBER OF CONTRACTED GTOS   2
                      NUMBER OF CLOSED SHELLS     0
                      OPEN SHELL OCCUPATION       1

  ZNUC  SCFIT    TOTAL HF ENERGY   KINETIC ENERGY   VIRIAL THEOREM ACCURACY
   1.0     1    -4.977266687E-01  5.190767460E-01 -1.958869132E+00  0.0E+00

 NUCLEAR CHARGE  6.0  SYMMETRY SPECIES            S    P
 N. ELECTRONS    6.0  NUMBER OF PRIMITIVE GTOS    8    4
                      NUMBER OF CONTRACTED GTOS   4    2
                      NUMBER OF CLOSED SHELLS     2    0
                      OPEN SHELL OCCUPATION       0    2

  ZNUC  SCFIT    TOTAL HF ENERGY   KINETIC ENERGY   VIRIAL THEOREM ACCURACY
   6.0     9    -3.766704647E+01  3.775180683E+01 -1.997754800E+00  1.1E-06

 NUCLEAR CHARGE  8.0  SYMMETRY SPECIES            S    P
 N. ELECTRONS    8.0  NUMBER OF PRIMITIVE GTOS    8    4
                      NUMBER OF CONTRACTED GTOS   4    2
                      NUMBER OF CLOSED SHELLS     2    0
                      OPEN SHELL OCCUPATION       0    4

  ZNUC  SCFIT    TOTAL HF ENERGY   KINETIC ENERGY   VIRIAL THEOREM ACCURACY
   8.0    12    -7.477373220E+01  7.477365593E+01 -2.000001020E+00  3.8E-06

 AAAAAAAAAAAAAAAAAAAAAAAAAAAAAAAAAAAAAAAAAAAAAAAAAAAAAAAAAAAAAAAAAAAAAAAAAAAAAAA

 CHARGE NORMALIZATION FACTOR   1.00000000
 TOTAL ATOMIC CHARGES:
   5.0000000   5.0000000   5.0000000   5.0000000   5.0000000   5.0000000
   1.0000000   1.0000000   1.0000000   1.0000000   1.0000000   1.0000000
   1.0000000   1.0000000   1.0000000   1.0000000   1.0000000   1.0000000
   6.0000000   6.0000000   6.0000000   6.0000000   6.0000000   6.0000000
   6.0000000   6.0000000   6.0000000   6.0000000   6.0000000   6.0000000
   6.0000000   6.0000000   6.0000000   6.0000000   6.0000000   6.0000000
   8.0000000   8.0000000   8.0000000   8.0000000   8.0000000   8.0000000
 TTTTTTTTTTTTTTTTTTTTTTTTTTTTTT MOQGAD      TELAPSE        8.68 TCPU       17.30
 TTTTTTTTTTTTTTTTTTTTTTTTTTTTTT SHELLXN     TELAPSE       14.01 TCPU      187.46
 TTTTTTTTTTTTTTTTTTTTTTTTTTTTTT MONMO3      TELAPSE       14.14 TCPU      191.61
 NUMERICALLY INTEGRATED DENSITY    198.0000012108
 TTTTTTTTTTTTTTTTTTTTTTTTTTTTTT NUMDFT      TELAPSE       14.65 TCPU      208.02
 CYC   0 ETOT(AU) -1.295954488351E+03 DETOT -1.30E+03 tst  0.00E+00 PX  1.00E+00
 TTTTTTTTTTTTTTTTTTTTTTTTTTTTTT DIIS        TELAPSE       14.68 TCPU      209.07
 TTTTTTTTTTTTTTTTTTTTTTTTTTTTTT FDIK        TELAPSE       15.16 TCPU      224.31
 INSULATING STATE
 TOP OF VALENCE BANDS -    BAND     99; K   17; EIG -3.1440382E-01 AU
 TOP OF VALENCE BANDS -    BAND     99; K    1; EIG -3.1530454E-01 AU
 BOTTOM OF VIRTUAL BANDS - BAND    100; K   17; EIG -1.5734310E-01 AU
 DIRECT ENERGY BAND GAP:   4.2738 eV
 BOTTOM OF VIRTUAL BANDS - BAND    100; K    1; EIG -1.5673679E-01 AU
 TTTTTTTTTTTTTTTTTTTTTTTTTTTTTT PDIG        TELAPSE       15.46 TCPU      230.47
 CHARGE NORMALIZATION FACTOR   1.00000000
 TOTAL ATOMIC CHARGES:
   4.1613538   4.1665599   4.1667952   4.1663858   4.1661638   4.1611670
   0.7850971   0.7852183   0.7849989   0.7851071   0.7853158   0.7854866
   0.7853064   0.7854513   0.7849965   0.7851698   0.7850495   0.7852111
   6.0430657   6.2653527   6.2653145   6.2649546   6.2649281   6.0423896
   6.0442391   6.2649104   6.2650004   6.2648267   6.2650188   6.0429806
   6.0434379   6.2647252   6.2652975   6.2649804   6.2655863   6.0419346
   8.6913030   8.6914309   8.6916597   8.6917787   8.6920835   8.6919671
 TTTTTTTTTTTTTTTTTTTTTTTTTTTTTT MOQGAD      TELAPSE       15.51 TCPU      230.51
 TTTTTTTTTTTTTTTTTTTTTTTTTTTTTT SHELLXN     TELAPSE       21.05 TCPU      407.26
 TTTTTTTTTTTTTTTTTTTTTTTTTTTTTT MONMO3      TELAPSE       21.18 TCPU      411.41
 NUMERICALLY INTEGRATED DENSITY    198.0000054030
 TTTTTTTTTTTTTTTTTTTTTTTTTTTTTT NUMDFT      TELAPSE       21.70 TCPU      427.99
 CYC   1 ETOT(AU) -1.288815275732E+03 DETOT  7.14E+00 tst  0.00E+00 PX  1.00E+00
 TTTTTTTTTTTTTTTTTTTTTTTTTTTTTT DIIS        TELAPSE       21.75 TCPU      429.47
 DIIS TEST: 0.11020E+01 AT SCF   CYCLE   1 - MIX   30 %
 TTTTTTTTTTTTTTTTTTTTTTTTTTTTTT FDIK        TELAPSE       22.23 TCPU      444.87
 INSULATING STATE
 TOP OF VALENCE BANDS -    BAND     99; K   17; EIG -2.2688703E-01 AU
 TOP OF VALENCE BANDS -    BAND     99; K    1; EIG -2.2902106E-01 AU
 BOTTOM OF VIRTUAL BANDS - BAND    100; K   17; EIG -7.9778890E-02 AU
 DIRECT ENERGY BAND GAP:   4.0030 eV
 BOTTOM OF VIRTUAL BANDS - BAND    100; K    1; EIG -7.8517126E-02 AU
 TTTTTTTTTTTTTTTTTTTTTTTTTTTTTT PDIG        TELAPSE       22.53 TCPU      451.02
 CHARGE NORMALIZATION FACTOR   1.00000000
 TOTAL ATOMIC CHARGES:
   4.6934074   4.7042417   4.7042150   4.7043761   4.7045032   4.6931742
   0.9080838   0.9081483   0.9146917   0.9149444   0.9050845   0.9049310
   0.9050837   0.9048898   0.9147159   0.9150032   0.9080309   0.9080560
   5.8676436   6.1312192   6.1316970   6.1397701   6.1402451   5.8700587
   5.8793460   6.1394999   6.1406339   6.1401131   6.1398207   5.8817187
   5.8674202   6.1394972   6.1404304   6.1316332   6.1314232   5.8702555
   8.3304323   8.3306577   8.3402413   8.3302042   8.3401087   8.3303491
 TTTTTTTTTTTTTTTTTTTTTTTTTTTTTT MOQGAD      TELAPSE       22.57 TCPU      451.06
 TTTTTTTTTTTTTTTTTTTTTTTTTTTTTT SHELLXN     TELAPSE       28.12 TCPU      627.78
 TTTTTTTTTTTTTTTTTTTTTTTTTTTTTT MONMO3      TELAPSE       28.25 TCPU      631.93
 NUMERICALLY INTEGRATED DENSITY    198.0000093470
 TTTTTTTTTTTTTTTTTTTTTTTTTTTTTT NUMDFT      TELAPSE       28.77 TCPU      648.59
 CYC   2 ETOT(AU) -1.289010640523E+03 DETOT -1.95E-01 tst  3.69E-03 PX  1.59E-01
 TTTTTTTTTTTTTTTTTTTTTTTTTTTTTT DIIS        TELAPSE       28.82 TCPU      650.03
 DIIS TEST: 0.45193E+00 AT SCF   CYCLE   2 - DIIS ACTIVE - HISTORY:     2 CYCLES
 TTTTTTTTTTTTTTTTTTTTTTTTTTTTTT FDIK        TELAPSE       29.30 TCPU      665.46
 INSULATING STATE
 TOP OF VALENCE BANDS -    BAND     99; K   17; EIG -2.3917022E-01 AU
 TOP OF VALENCE BANDS -    BAND     99; K    1; EIG -2.4002764E-01 AU
 BOTTOM OF VIRTUAL BANDS - BAND    100; K   17; EIG -7.5595372E-02 AU
 DIRECT ENERGY BAND GAP:   4.4511 eV
 BOTTOM OF VIRTUAL BANDS - BAND    100; K    1; EIG -7.4371152E-02 AU
 TTTTTTTTTTTTTTTTTTTTTTTTTTTTTT PDIG        TELAPSE       29.60 TCPU      671.62
 CHARGE NORMALIZATION FACTOR   1.00000000
 TOTAL ATOMIC CHARGES:
   4.4912202   4.5012683   4.5013194   4.5010235   4.5009129   4.4909226
   0.8870283   0.8872338   0.8922067   0.8924474   0.8853253   0.8854694
   0.8854399   0.8853074   0.8921776   0.8925460   0.8870322   0.8871058
   5.8916271   6.1610024   6.1608559   6.1575156   6.1567234   5.8911707
   5.8993351   6.1615018   6.1612493   6.1613126   6.1613080   5.8987771
   5.8919293   6.1574469   6.1567526   6.1608359   6.1611023   5.8908864
   8.5124755   8.5127569   8.5107677   8.5128402   8.5107181   8.5131228
 TTTTTTTTTTTTTTTTTTTTTTTTTTTTTT MOQGAD      TELAPSE       29.65 TCPU      671.66
 TTTTTTTTTTTTTTTTTTTTTTTTTTTTTT SHELLXN     TELAPSE       35.19 TCPU      848.39
 TTTTTTTTTTTTTTTTTTTTTTTTTTTTTT MONMO3      TELAPSE       35.32 TCPU      852.54
 NUMERICALLY INTEGRATED DENSITY    198.0000078399
 TTTTTTTTTTTTTTTTTTTTTTTTTTTTTT NUMDFT      TELAPSE       35.84 TCPU      869.11
 CYC   3 ETOT(AU) -1.289104064421E+03 DETOT -9.34E-02 tst  6.72E-04 PX  6.48E-02
 TTTTTTTTTTTTTTTTTTTTTTTTTTTTTT DIIS        TELAPSE       35.90 TCPU      870.94
 DIIS TEST: 0.14015E-01 AT SCF   CYCLE   3 - DIIS ACTIVE - HISTORY:     3 CYCLES
 TTTTTTTTTTTTTTTTTTTTTTTTTTTTTT FDIK        TELAPSE       36.38 TCPU      886.36
 INSULATING STATE
 TOP OF VALENCE BANDS -    BAND     99; K   17; EIG -2.4917093E-01 AU
 TOP OF VALENCE BANDS -    BAND     99; K    1; EIG -2.5152304E-01 AU
 BOTTOM OF VIRTUAL BANDS - BAND    100; K   17; EIG -8.4295471E-02 AU
 DIRECT ENERGY BAND GAP:   4.4865 eV
 BOTTOM OF VIRTUAL BANDS - BAND    100; K    1; EIG -8.2499595E-02 AU
 TTTTTTTTTTTTTTTTTTTTTTTTTTTTTT PDIG        TELAPSE       36.68 TCPU      892.52
 CHARGE NORMALIZATION FACTOR   1.00000000
 TOTAL ATOMIC CHARGES:
   4.4972990   4.5058285   4.5058406   4.5057390   4.5056857   4.4971701
   0.8701169   0.8702531   0.8744236   0.8745880   0.8668115   0.8667412
   0.8668077   0.8666961   0.8744784   0.8746254   0.8700951   0.8701599
   5.9374425   6.1645029   6.1647896   6.1690227   6.1698611   5.9396201
   5.9476000   6.1704737   6.1717537   6.1710145   6.1710093   5.9490716
   5.9374550   6.1685761   6.1702196   6.1646826   6.1647128   5.9396067
   8.4752445   8.4753730   8.4819690   8.4751685   8.4822099   8.4752607
 TTTTTTTTTTTTTTTTTTTTTTTTTTTTTT MOQGAD      TELAPSE       36.72 TCPU      892.56
 TTTTTTTTTTTTTTTTTTTTTTTTTTTTTT SHELLXN     TELAPSE       42.27 TCPU     1069.30
 TTTTTTTTTTTTTTTTTTTTTTTTTTTTTT MONMO3      TELAPSE       42.40 TCPU     1073.45
 NUMERICALLY INTEGRATED DENSITY    198.0000079800
 TTTTTTTTTTTTTTTTTTTTTTTTTTTTTT NUMDFT      TELAPSE       42.92 TCPU     1090.01
 CYC   4 ETOT(AU) -1.289107046441E+03 DETOT -2.98E-03 tst  2.62E-05 PX  1.39E-02
 TTTTTTTTTTTTTTTTTTTTTTTTTTTTTT DIIS        TELAPSE       42.98 TCPU     1091.89
 DIIS TEST: 0.41315E-02 AT SCF   CYCLE   4 - DIIS ACTIVE - HISTORY:     4 CYCLES
 TTTTTTTTTTTTTTTTTTTTTTTTTTTTTT FDIK        TELAPSE       43.46 TCPU     1107.23
 INSULATING STATE
 TOP OF VALENCE BANDS -    BAND     99; K   17; EIG -2.4739624E-01 AU
 TOP OF VALENCE BANDS -    BAND     99; K    1; EIG -2.4934028E-01 AU
 BOTTOM OF VIRTUAL BANDS - BAND    100; K   17; EIG -8.3771138E-02 AU
 DIRECT ENERGY BAND GAP:   4.4525 eV
 BOTTOM OF VIRTUAL BANDS - BAND    100; K    1; EIG -8.2323757E-02 AU
 TTTTTTTTTTTTTTTTTTTTTTTTTTTTTT PDIG        TELAPSE       43.76 TCPU     1113.39
 CHARGE NORMALIZATION FACTOR   1.00000000
 TOTAL ATOMIC CHARGES:
   4.4980713   4.5080995   4.5081398   4.5079982   4.5079312   4.4978225
   0.8729142   0.8730837   0.8779293   0.8782266   0.8703657   0.8704694
   0.8704461   0.8703400   0.8779220   0.8783191   0.8729021   0.8729741
   5.9215172   6.1659596   6.1659084   6.1676355   6.1668641   5.9211806
   5.9304725   6.1700340   6.1699726   6.1699646   6.1698707   5.9301273
   5.9216548   6.1674993   6.1669271   6.1658870   6.1660833   5.9210398
   8.4870579   8.4873284   8.4892141   8.4872597   8.4890702   8.4875165
 TTTTTTTTTTTTTTTTTTTTTTTTTTTTTT MOQGAD      TELAPSE       43.80 TCPU     1113.43
 TTTTTTTTTTTTTTTTTTTTTTTTTTTTTT SHELLXN     TELAPSE       49.34 TCPU     1290.15
 TTTTTTTTTTTTTTTTTTTTTTTTTTTTTT MONMO3      TELAPSE       49.47 TCPU     1294.29
 NUMERICALLY INTEGRATED DENSITY    198.0000079551
 TTTTTTTTTTTTTTTTTTTTTTTTTTTTTT NUMDFT      TELAPSE       49.99 TCPU     1310.87
 CYC   5 ETOT(AU) -1.289107990836E+03 DETOT -9.44E-04 tst  7.07E-06 PX  6.34E-03
 TTTTTTTTTTTTTTTTTTTTTTTTTTTTTT DIIS        TELAPSE       50.06 TCPU     1313.06
 DIIS TEST: 0.57616E-04 AT SCF   CYCLE   5 - DIIS ACTIVE - HISTORY:     5 CYCLES
 TTTTTTTTTTTTTTTTTTTTTTTTTTTTTT FDIK        TELAPSE       50.54 TCPU     1328.45
 INSULATING STATE
 TOP OF VALENCE BANDS -    BAND     99; K   17; EIG -2.4718393E-01 AU
 TOP OF VALENCE BANDS -    BAND     99; K    1; EIG -2.4911083E-01 AU
 BOTTOM OF VIRTUAL BANDS - BAND    100; K   17; EIG -8.3229403E-02 AU
 DIRECT ENERGY BAND GAP:   4.4614 eV
 BOTTOM OF VIRTUAL BANDS - BAND    100; K    1; EIG -8.1803438E-02 AU
 TTTTTTTTTTTTTTTTTTTTTTTTTTTTTT PDIG        TELAPSE       50.85 TCPU     1334.61
 CHARGE NORMALIZATION FACTOR   1.00000000
 TOTAL ATOMIC CHARGES:
   4.4984996   4.5077307   4.5077597   4.5075685   4.5075119   4.4982930
   0.8738930   0.8740383   0.8788971   0.8790263   0.8714542   0.8713702
   0.8714612   0.8713164   0.8789362   0.8790705   0.8738663   0.8739431
   5.9199227   6.1650371   6.1653178   6.1662105   6.1672932   5.9224133
   5.9293388   6.1686566   6.1699447   6.1691568   6.1692635   5.9309529
   5.9200695   6.1658208   6.1676138   6.1652003   6.1652515   5.9222701
   8.4861949   8.4863182   8.4901269   8.4862085   8.4904801   8.4863014
 TTTTTTTTTTTTTTTTTTTTTTTTTTTTTT MOQGAD      TELAPSE       50.89 TCPU     1334.65
 TTTTTTTTTTTTTTTTTTTTTTTTTTTTTT SHELLXN     TELAPSE       56.43 TCPU     1511.37
 TTTTTTTTTTTTTTTTTTTTTTTTTTTTTT MONMO3      TELAPSE       56.56 TCPU     1515.51
 NUMERICALLY INTEGRATED DENSITY    198.0000079632
 TTTTTTTTTTTTTTTTTTTTTTTTTTTTTT NUMDFT      TELAPSE       57.08 TCPU     1532.07
 CYC   6 ETOT(AU) -1.289108006424E+03 DETOT -1.56E-05 tst  1.14E-07 PX  7.87E-04
 TTTTTTTTTTTTTTTTTTTTTTTTTTTTTT DIIS        TELAPSE       57.15 TCPU     1534.32
 DIIS TEST: 0.12163E-04 AT SCF   CYCLE   6 - DIIS ACTIVE - HISTORY:     6 CYCLES
 TTTTTTTTTTTTTTTTTTTTTTTTTTTTTT FDIK        TELAPSE       57.63 TCPU     1549.69
 INSULATING STATE
 TOP OF VALENCE BANDS -    BAND     99; K   17; EIG -2.4718200E-01 AU
 TOP OF VALENCE BANDS -    BAND     99; K    1; EIG -2.4910986E-01 AU
 BOTTOM OF VIRTUAL BANDS - BAND    100; K   17; EIG -8.3285910E-02 AU
 DIRECT ENERGY BAND GAP:   4.4598 eV
 BOTTOM OF VIRTUAL BANDS - BAND    100; K    1; EIG -8.1839034E-02 AU
 TTTTTTTTTTTTTTTTTTTTTTTTTTTTTT PDIG        TELAPSE       57.93 TCPU     1555.85
 CHARGE NORMALIZATION FACTOR   1.00000000
 TOTAL ATOMIC CHARGES:
   4.4982998   4.5079634   4.5080017   4.5078580   4.5077879   4.4980753
   0.8738483   0.8740210   0.8787774   0.8790660   0.8712899   0.8713751
   0.8713618   0.8712560   0.8787805   0.8791467   0.8738378   0.8739092
   5.9213609   6.1652036   6.1651809   6.1669739   6.1662666   5.9211794
   5.9303373   6.1692501   6.1693206   6.1692558   6.1691375   5.9301234
   5.9214619   6.1667795   6.1663894   6.1651496   6.1653364   5.9210790
   8.4864954   8.4867527   8.4894183   8.4866755   8.4893010   8.4869156
 TTTTTTTTTTTTTTTTTTTTTTTTTTTTTT MOQGAD      TELAPSE       57.98 TCPU     1555.89
 TTTTTTTTTTTTTTTTTTTTTTTTTTTTTT SHELLXN     TELAPSE       63.52 TCPU     1732.64
 TTTTTTTTTTTTTTTTTTTTTTTTTTTTTT MONMO3      TELAPSE       63.65 TCPU     1736.78
 NUMERICALLY INTEGRATED DENSITY    198.0000079636
 TTTTTTTTTTTTTTTTTTTTTTTTTTTTTT NUMDFT      TELAPSE       64.17 TCPU     1753.36
 CYC   7 ETOT(AU) -1.289108008483E+03 DETOT -2.06E-06 tst  7.94E-08 PX  4.37E-04
 TTTTTTTTTTTTTTTTTTTTTTTTTTTTTT DIIS        TELAPSE       64.25 TCPU     1755.89
 DIIS TEST: 0.20887E-05 AT SCF   CYCLE   7 - DIIS ACTIVE - HISTORY:     7 CYCLES
 TTTTTTTTTTTTTTTTTTTTTTTTTTTTTT FDIK        TELAPSE       64.73 TCPU     1771.31
 INSULATING STATE
 TOP OF VALENCE BANDS -    BAND     99; K   17; EIG -2.4718184E-01 AU
 TOP OF VALENCE BANDS -    BAND     99; K    1; EIG -2.4911659E-01 AU
 BOTTOM OF VIRTUAL BANDS - BAND    100; K   17; EIG -8.3309229E-02 AU
 DIRECT ENERGY BAND GAP:   4.4592 eV
 BOTTOM OF VIRTUAL BANDS - BAND    100; K    1; EIG -8.1858646E-02 AU
 TTTTTTTTTTTTTTTTTTTTTTTTTTTTTT PDIG        TELAPSE       65.04 TCPU     1777.47
 CHARGE NORMALIZATION FACTOR   1.00000000
 TOTAL ATOMIC CHARGES:
   4.4983462   4.5080220   4.5080569   4.5078938   4.5078296   4.4981211
   0.8738240   0.8739862   0.8787884   0.8790060   0.8712777   0.8713012
   0.8713291   0.8712024   0.8787991   0.8790794   0.8738066   0.8738816
   5.9207796   6.1651259   6.1652110   6.1666188   6.1666762   5.9216914
   5.9299580   6.1690531   6.1695711   6.1692204   6.1692273   5.9304679
   5.9209283   6.1663826   6.1668407   6.1651532   6.1652843   5.9215435
   8.4865419   8.4867508   8.4894216   8.4866590   8.4894946   8.4868471
 TTTTTTTTTTTTTTTTTTTTTTTTTTTTTT MOQGAD      TELAPSE       65.08 TCPU     1777.52
 TTTTTTTTTTTTTTTTTTTTTTTTTTTTTT SHELLXN     TELAPSE       70.62 TCPU     1954.29
 TTTTTTTTTTTTTTTTTTTTTTTTTTTTTT MONMO3      TELAPSE       70.76 TCPU     1958.45
 NUMERICALLY INTEGRATED DENSITY    198.0000079621
 TTTTTTTTTTTTTTTTTTTTTTTTTTTTTT NUMDFT      TELAPSE       71.27 TCPU     1975.00
 CYC   8 ETOT(AU) -1.289108008799E+03 DETOT -3.16E-07 tst  1.28E-08 PX  1.49E-04
 TTTTTTTTTTTTTTTTTTTTTTTTTTTTTT DIIS        TELAPSE       71.35 TCPU     1977.59
 DIIS TEST: 0.13723E-06 AT SCF   CYCLE   8 - DIIS ACTIVE - HISTORY:     8 CYCLES
 TTTTTTTTTTTTTTTTTTTTTTTTTTTTTT FDIK        TELAPSE       71.84 TCPU     1992.97
 INSULATING STATE
 TOP OF VALENCE BANDS -    BAND     99; K   17; EIG -2.4718480E-01 AU
 TOP OF VALENCE BANDS -    BAND     99; K    1; EIG -2.4911898E-01 AU
 BOTTOM OF VIRTUAL BANDS - BAND    100; K   17; EIG -8.3302959E-02 AU
 DIRECT ENERGY BAND GAP:   4.4595 eV
 BOTTOM OF VIRTUAL BANDS - BAND    100; K    1; EIG -8.1855975E-02 AU
 TTTTTTTTTTTTTTTTTTTTTTTTTTTTTT PDIG        TELAPSE       72.13 TCPU     1999.13
 CHARGE NORMALIZATION FACTOR   1.00000000
 TOTAL ATOMIC CHARGES:
   4.4983832   4.5079836   4.5080187   4.5078599   4.5077953   4.4981592
   0.8738160   0.8739790   0.8787750   0.8790128   0.8712784   0.8713102
   0.8713300   0.8712113   0.8787887   0.8790831   0.8737999   0.8738731
   5.9208839   6.1651455   6.1652206   6.1667335   6.1666036   5.9215565
   5.9300187   6.1690890   6.1695436   6.1692489   6.1692063   5.9303867
   5.9210052   6.1664819   6.1667839   6.1651621   6.1653041   5.9214361
   8.4864666   8.4866811   8.4895836   8.4865957   8.4896166   8.4867890
 TTTTTTTTTTTTTTTTTTTTTTTTTTTTTT MOQGAD      TELAPSE       72.18 TCPU     1999.17
 TTTTTTTTTTTTTTTTTTTTTTTTTTTTTT SHELLXN     TELAPSE       77.72 TCPU     2175.94
 +++ ENERGIES IN A.U. +++
 ::: EXT EL-POLE                                  -1.2036016427505E+03
 ::: EXT EL-SPHEROPOLE                             1.3298529850442E+01
 ::: BIELET ZONE E-E                               1.9963899594635E+03
 ::: TOTAL E-E                                     8.0608684656347E+02
 ::: TOTAL E-N + N-E                              -3.4436966419902E+03
 ::: TOTAL N-N                                     2.0228295790286E+02
 ::: KINETIC ENERGY                                1.2799374030706E+03
 ::: PSEUDO TOTAL   ENERGY                        -1.1553894344532E+03
 ::: VIRIAL COEFFICIENT                            1.0511421985330E+00
 TTTTTTTTTTTTTTTTTTTTTTTTTTTTTT MONMO3      TELAPSE       77.85 TCPU     2180.10
 NUMERICALLY INTEGRATED DENSITY    198.0000079622
 EXCHANGE ENERGY: -0.126029241423E+03  CORRELATION ENERGY: -0.768933299125E+01
 TTTTTTTTTTTTTTTTTTTTTTTTTTTTTT NUMDFT      TELAPSE       78.37 TCPU     2196.66
 CYC   9 ETOT(AU) -1.289108008867E+03 DETOT -6.80E-08 tst  5.80E-10 PX  1.49E-04

 == SCF ENDED - CONVERGENCE ON ENERGY      E(AU) -1.2891080088671E+03 CYCLES   9


 ENERGY EXPRESSION=HARTREE+FOCK EXCH*0.00000+(HSESOL     EXCH)*1.00000+PBESOL     CORR


 TOTAL ENERGY(DFT)(AU)(  9) -1.2891080088671E+03 DE-6.8E-08 tester 5.8E-10
 TTTTTTTTTTTTTTTTTTTTTTTTTTTTTT EDFT        TELAPSE       78.37 TCPU     2196.67
 
 INFORMATION **** DFTD3 ENERGY **** CALCULATE DFTD3 ENERGY

           DFT-D V3(BJ)
 DF                                         hsesol3c  
 parameters
 s6       :    1.0000
 s8       :    0.0000
 a1       :    0.5196
 a2       :    4.9385
 k1 k3    :   16.0000   -4.0000
 Cutoff   :   50.2022
 CN-Cutoff:   21.1671
 ABC-Cutoff:   21.1671
 
 Edisp /kcal,au:   -22.7289 -0.03622079

 E6    /kcal :   -23.9521
 E8    /kcal :     0.0000
 E6(ABC) "   :   1.223244
 
 INFORMATION **** DFTD3 ENERGY **** NORMAL TERMINATION OF DFTD3 MODULE

 GCP ENERGY CALCULATION
  level        hsesol3c            basis:hsesol3c
  Nbf            474
  Atoms           42

  Parameters: 
  sigma     1.0000
  eta       1.4281
  alpha     0.2936
  beta      1.9467

  dmp_scal      4.0000
  dmp_exp       6.0000
 cutoffs: 
   distance [bohr] 60.0
   noise    [a.u.] 2.2E-16
 SR-damping   T
 ** gCP correction **
  Egcp:        0.0829236605 / (a.u.) ||      52.0354 / (kcal/mol)
 INFORMATION **** GCP **** NORMAL TERMINATION OF GCP MODULE

 *******************************************************************************

 DFT-D3-GCP DISPERSION AND COUNTERPOISE CORRECTION

 D3 DISPERSION ENERGY (AU)      -3.6220788677947E-02
 GCP ENERGY (AU)                 8.2923660456501E-02
 TOTAL ENERGY + DISP + GCP (AU) -1.2890613059953E+03

 *******************************************************************************

 EIGENVECTORS IN FORTRAN UNIT 10
 TTTTTTTTTTTTTTTTTTTTTTTTTTTTTT END         TELAPSE       79.42 TCPU     2203.69
 EEEEEEEEEE TERMINATION  DATE 19 02 2026 TIME 19:17:39.4
