 Default number of threads is:           32

         
 *******************************************************************************
 *                                                                             *
 *                               CRYSTAL23                                     *
 *                      public : 1.0.1 - October 2022                          *
 *                       HTTP://WWW.CRYSTAL.UNITO.IT                           *
 *                                                                             *
 *                              MAIN AUTHORS                                   *
 *                                                                             *
 *  R. DOVESI(1,11), V.R. SAUNDERS(2), C. ROETTI(1,11), R. ORLANDO(1,11),      *
 *  C.M. ZICOVICH-WILSON(1,3), F. PASCALE(4), B. CIVALLERI(1,11),              *
 *  K. DOLL(5), N.M. HARRISON(6), I.J. BUSH(7), Ph. D'ARCO(8),                 *
 *  M. LLUNELL(9), M. CAUSA'(10), Y. NOEL(8), L. MASCHIO(1,11), A. ERBA(1,11)  *
 *  M. RE'RAT(14), S. CASASSA(1,11), B.G. SEARLE(2), J.K. DESMARAIS(1)         *
 *                                                                             *
 *        CONTRIBUTIONS TO THE CODE HAVE ALSO BEEN GIVEN BY                    *
 *                                                                             *
 *  M. FERRABONE(1,11), M. DE LA PIERRE(1,11), M. FERRERO(1,11),               *
 *  J. BAIMA(1,11), E. ALBANESE(1,11), M.F. PEINTINGER(12), R. BAST(13),       *
 *  B. KIRTMAN(15), V. LACIVITA(1,11), R. DEMICHELIS(1,16)                     *
 *  G. BRANDEBURG(17), S. SALUSTRO(1,11), G. SANSONE(1,11)                     *
 *  M.T. RUGGIERO(18), L.E. DAGA(1), L. DONA'(1), A. COSSARD(1)                *
 *                                                                             *
 * (1) THEORETICAL CHEMISTRY GROUP - UNIVERSITA' DI TORINO - TORINO (ITALY)    *
 * (2) SCIENTIFIC COMPUTING DEPARTMENT - STFC DARESBURY (UK)                   *
 * (3) UNIVERSIDAD AUTONOMA DEL ESTADO DE MORELOS - CUERNAVACA (MEXICO)        *
 * (4) UNIVERSITE' DE LORRAINE - NANCY (FRANCE)                                *
 * (5) UNIVERSITAET STUTTGART- STUTTGART (GERMANY)                             *
 * (6) IMPERIAL COLLEGE - LONDON (UK)                                          *
 * (7) SCIENTIFIC COMPUTING DEPARTMENT - STFC RAL (UK)                         *
 * (8) UPMC - SORBONNE UNIVERSITES - PARIS (FRANCE)                            *
 * (9) UNIVERSIDAD DE BARCELONA - BARCELONA (SPAIN)                            *
 *(10) UNIVERSITA' DI NAPOLI "FEDERICO II" - NAPOLI (ITALY)                    *
 *(11) NIS - NANOSTRUCTURED INTERFACES AND SURFACES - TORINO (ITALY)           *
 *(12) MPI FUER CHEMISCHE ENERGIEKONVERSION - MUELHEIM AN DER RUHR (GERMANY)   *
 *(13) UNIVERSITY OF TROMSO - TROMSO (NORWAY)                                  *
 *(14) UNIVERSITE' DE PAU ET DES PAYS DE L'ADOUR - PAU (FRANCE)                *
 *(15) UNIVERSITY OF CALIFORNIA SANTA BARBARA - SANTA BARBARA (USA)            *
 *(16) CURTIN UNIVERSITY - PERTH (AUSTRALIA)                                   *
 *(17) UNIVERSITY COLLEGE LONDON - LONDON (UK)                                 *
 *(18) UNIVERSITY OF VERMONT - BURLINGTON (USA)                                *
 *                                                                             *
 *******************************************************************************
 EEEEEEEEEE STARTING  DATE 19 02 2026 TIME 20:27:54.4
 cof-1_z43_L020_serr                                                             

 CRYSTAL CALCULATION
 (INPUT ACCORDING TO THE INTERNATIONAL TABLES FOR X-RAY CRYSTALLOGRAPHY)
 CRYSTAL FAMILY                       :  TRICLINIC   
 CRYSTAL CLASS  (GROTH - 1921)        :  TRICLINIC PEDIAL                     

 SPACE GROUP (NONCENTROSYMMETRIC)     :  P 1             

 LATTICE PARAMETERS  (ANGSTROMS AND DEGREES) - CONVENTIONAL CELL
        A           B           C        ALPHA        BETA       GAMMA
    15.02361    15.02392     8.60000    90.00032    89.99994   119.99596


 NUMBER OF IRREDUCIBLE ATOMS IN THE CONVENTIONAL CELL:   84

 INPUT COORDINATES

 ATOM AT. N.              COORDINATES
   1   5     6.136805400000E-01  2.273182200000E-01  2.505554300000E-01
   2   5     6.905271000000E-01  3.810269500000E-01  7.505554300000E-01
   3   5     7.727362000000E-01  3.863778800000E-01  2.505554400000E-01
   4   5     8.495827600000E-01  5.400866100000E-01  7.505554400000E-01
   5   5     6.136762700000E-01  3.863606700000E-01  2.493876200000E-01
   6   5     6.905228300000E-01  5.400694000000E-01  7.493876300000E-01
   7   5     2.272552500000E-01  6.136332200000E-01  2.505554400000E-01
   8   5     3.041018100000E-01  7.673419500000E-01  7.505554400000E-01
   9   5     3.863632200000E-01  6.136124500000E-01  2.505554300000E-01
  10   5     4.632097800000E-01  7.673211800000E-01  7.505554300000E-01
  11   5     3.863435000000E-01  7.727516500000E-01  2.493876300000E-01
  12   5     4.631900600000E-01  9.264603800000E-01  7.493876300000E-01
  13   1     9.030436200000E-01  3.089300500000E-01  2.481343300000E-01
  14   1     9.798901800000E-01  4.626387800000E-01  7.481343300000E-01
  15   1     9.663453000000E-02  6.910534400000E-01  2.477641000000E-01
  16   1     1.734810900000E-01  8.447621700000E-01  7.477641000000E-01
  17   1     9.029714200000E-01  5.940724300000E-01  2.477071200000E-01
  18   1     9.798179800000E-01  7.477811600000E-01  7.477071200000E-01
  19   1     9.673618000000E-02  4.056849400000E-01  2.477213300000E-01
  20   1     1.735827400000E-01  5.593936700000E-01  7.477213300000E-01
  21   1     6.910324000000E-01  9.700412000000E-02  2.518656900000E-01
  22   1     7.678789600000E-01  2.507128500000E-01  7.518656900000E-01
  23   1     3.089297200000E-01  9.034373100000E-01  2.522359400000E-01
  24   1     3.857762800000E-01  5.714604000000E-02  7.522359400000E-01
  25   1     4.058699900000E-01  9.704998000000E-02  2.522929500000E-01
  26   1     4.827165500000E-01  2.507587100000E-01  7.522929500000E-01
  27   1     5.943122100000E-01  9.033473200000E-01  2.522786500000E-01
  28   1     6.711587700000E-01  5.705605000000E-02  7.522786500000E-01
  29   1     6.910727400000E-01  5.940542100000E-01  2.481343500000E-01
  30   1     7.679193000000E-01  7.477629400000E-01  7.481343500000E-01
  31   1     3.089618300000E-01  4.056093300000E-01  2.477640800000E-01
  32   1     3.858083900000E-01  5.593180600000E-01  7.477640700000E-01
  33   1     4.058405700000E-01  3.088232500000E-01  2.477070700000E-01
  34   1     4.826871300000E-01  4.625319800000E-01  7.477070700000E-01
  35   1     5.942908800000E-01  6.909579300000E-01  2.477213700000E-01
  36   1     6.711374400000E-01  8.446666600000E-01  7.477213800000E-01
  37   6     8.918903100000E-01  4.459436900000E-01  2.493448900000E-01
  38   6     9.687368700000E-01  5.996524200000E-01  7.493449000000E-01
  39   6     9.464891100000E-01  3.927856300000E-01  2.481913100000E-01
  40   6     2.333567000000E-02  5.464943600000E-01  7.481913000000E-01
  41   6     5.338812000000E-02  6.071853000000E-01  2.480916500000E-01
  42   6     1.302346800000E-01  7.608940300000E-01  7.480916500000E-01
  43   6     9.464521100000E-01  5.536921900000E-01  2.483907200000E-01
  44   6     2.329867000000E-02  7.074009200000E-01  7.483907200000E-01
  45   6     5.342634000000E-02  4.462499700000E-01  2.476216400000E-01
  46   6     1.302729000000E-01  5.999587000000E-01  7.476216400000E-01
  47   6     1.080358900000E-01  5.540356300000E-01  2.484049500000E-01
  48   6     1.848824500000E-01  7.077443600000E-01  7.484049500000E-01
  49   6     5.540394200000E-01  1.081684600000E-01  2.506551300000E-01
  50   6     6.308859800000E-01  2.618771900000E-01  7.506551300000E-01
  51   6     6.071778500000E-01  5.355594000000E-02  2.518087100000E-01
  52   6     6.840244100000E-01  2.072646700000E-01  7.518087000000E-01
  53   6     3.927986700000E-01  9.466631600000E-01  2.519084000000E-01
  54   6     4.696452300000E-01  1.003718900000E-01  7.519084000000E-01
  55   6     4.462875800000E-01  5.360286000000E-02  2.516093300000E-01
  56   6     5.231341400000E-01  2.073115900000E-01  7.516093300000E-01
  57   6     5.537168500000E-01  9.466235600000E-01  2.523783600000E-01
  58   6     6.305634100000E-01  1.003322900000E-01  7.523783600000E-01
  59   6     4.459279100000E-01  8.919920600000E-01  2.515950800000E-01
  60   6     5.227744700000E-01  4.570079000000E-02  7.515950800000E-01
  61   6     5.540448700000E-01  4.458745500000E-01  2.493449000000E-01
  62   6     6.308914300000E-01  5.995832800000E-01  7.493448900000E-01
  63   6     6.072102200000E-01  5.536257800000E-01  2.481913200000E-01
  64   6     6.840567800000E-01  7.073345100000E-01  7.481913200000E-01
  65   6     3.928233700000E-01  4.461720300000E-01  2.480916200000E-01
  66   6     4.696699300000E-01  5.998807600000E-01  7.480916200000E-01
  67   6     4.462872600000E-01  3.926899900000E-01  2.483906900000E-01
  68   6     5.231338200000E-01  5.463987200000E-01  7.483906900000E-01
  69   6     5.537429600000E-01  6.070980000000E-01  2.476216700000E-01
  70   6     6.305895200000E-01  7.608067300000E-01  7.476216700000E-01
  71   6     4.459599800000E-01  5.539582300000E-01  2.484049500000E-01
  72   6     5.228065400000E-01  7.076669600000E-01  7.484049500000E-01
  73   8     5.607366800000E-01  2.803706300000E-01  2.497009400000E-01
  74   8     6.375832400000E-01  4.340793600000E-01  7.497009300000E-01
  75   8     7.196817000000E-01  2.803783300000E-01  2.521647400000E-01
  76   8     7.965282600000E-01  4.340870600000E-01  7.521647400000E-01
  77   8     7.196794200000E-01  4.393234600000E-01  2.484476900000E-01
  78   8     7.965259800000E-01  5.930321900000E-01  7.484476900000E-01
  79   8     2.803245100000E-01  7.196511100000E-01  2.497009500000E-01
  80   8     3.571710700000E-01  8.733598400000E-01  7.497009500000E-01
  81   8     2.803439700000E-01  5.606956100000E-01  2.521647300000E-01
  82   8     3.571905300000E-01  7.144043400000E-01  7.521647300000E-01
  83   8     4.392638400000E-01  7.196354200000E-01  2.484476800000E-01
  84   8     5.161104000000E-01  8.733441500000E-01  7.484476700000E-01

 *******************************************************************************

 << INFORMATION >>: FROM NOW ON, ALL COORDINATES REFER TO THE PRIMITIVE CELL

 *******************************************************************************

 LATTICE PARAMETERS  (ANGSTROMS AND DEGREES) - PRIMITIVE CELL
       A          B          C        ALPHA      BETA     GAMMA        VOLUME
   15.02361   15.02392    8.60000    90.00032  89.99994 119.99596   1681.141313

 COORDINATES OF THE EQUIVALENT ATOMS (FRACTIONAL UNITS)

 N. ATOM EQUIV AT. N.          X                  Y                  Z

   1   1   1    5 B    -3.86319460000E-01  2.27318220000E-01  2.50555430000E-01

   2   2   1    5 B    -3.09472900000E-01  3.81026950000E-01 -2.49444570000E-01

   3   3   1    5 B    -2.27263800000E-01  3.86377880000E-01  2.50555440000E-01

   4   4   1    5 B    -1.50417240000E-01 -4.59913390000E-01 -2.49444560000E-01

   5   5   1    5 B    -3.86323730000E-01  3.86360670000E-01  2.49387620000E-01

   6   6   1    5 B    -3.09477170000E-01 -4.59930600000E-01 -2.50612370000E-01

   7   7   1    5 B     2.27255250000E-01 -3.86366780000E-01  2.50555440000E-01

   8   8   1    5 B     3.04101810000E-01 -2.32658050000E-01 -2.49444560000E-01

   9   9   1    5 B     3.86363220000E-01 -3.86387550000E-01  2.50555430000E-01

  10  10   1    5 B     4.63209780000E-01 -2.32678820000E-01 -2.49444570000E-01

  11  11   1    5 B     3.86343500000E-01 -2.27248350000E-01  2.49387630000E-01

  12  12   1    5 B     4.63190060000E-01 -7.35396200000E-02 -2.50612370000E-01

  13  13   1    1 H    -9.69563800000E-02  3.08930050000E-01  2.48134330000E-01

  14  14   1    1 H    -2.01098200000E-02  4.62638780000E-01 -2.51865670000E-01

  15  15   1    1 H     9.66345300000E-02 -3.08946560000E-01  2.47764100000E-01

  16  16   1    1 H     1.73481090000E-01 -1.55237830000E-01 -2.52235900000E-01

  17  17   1    1 H    -9.70285800000E-02 -4.05927570000E-01  2.47707120000E-01

  18  18   1    1 H    -2.01820200000E-02 -2.52218840000E-01 -2.52292880000E-01

  19  19   1    1 H     9.67361800000E-02  4.05684940000E-01  2.47721330000E-01

  20  20   1    1 H     1.73582740000E-01 -4.40606330000E-01 -2.52278670000E-01

  21  21   1    1 H    -3.08967600000E-01  9.70041200000E-02  2.51865690000E-01

  22  22   1    1 H    -2.32121040000E-01  2.50712850000E-01 -2.48134310000E-01

  23  23   1    1 H     3.08929720000E-01 -9.65626900000E-02  2.52235940000E-01

  24  24   1    1 H     3.85776280000E-01  5.71460400000E-02 -2.47764060000E-01

  25  25   1    1 H     4.05869990000E-01  9.70499800000E-02  2.52292950000E-01

  26  26   1    1 H     4.82716550000E-01  2.50758710000E-01 -2.47707050000E-01

  27  27   1    1 H    -4.05687790000E-01 -9.66526800000E-02  2.52278650000E-01

  28  28   1    1 H    -3.28841230000E-01  5.70560500000E-02 -2.47721350000E-01

  29  29   1    1 H    -3.08927260000E-01 -4.05945790000E-01  2.48134350000E-01

  30  30   1    1 H    -2.32080700000E-01 -2.52237060000E-01 -2.51865650000E-01

  31  31   1    1 H     3.08961830000E-01  4.05609330000E-01  2.47764080000E-01

  32  32   1    1 H     3.85808390000E-01 -4.40681940000E-01 -2.52235930000E-01

  33  33   1    1 H     4.05840570000E-01  3.08823250000E-01  2.47707070000E-01

  34  34   1    1 H     4.82687130000E-01  4.62531980000E-01 -2.52292930000E-01

  35  35   1    1 H    -4.05709120000E-01 -3.09042070000E-01  2.47721370000E-01

  36  36   1    1 H    -3.28862560000E-01 -1.55333340000E-01 -2.52278620000E-01

  37  37   1    6 C    -1.08109690000E-01  4.45943690000E-01  2.49344890000E-01

  38  38   1    6 C    -3.12631300000E-02 -4.00347580000E-01 -2.50655100000E-01

  39  39   1    6 C    -5.35108900000E-02  3.92785630000E-01  2.48191310000E-01

  40  40   1    6 C     2.33356700000E-02 -4.53505640000E-01 -2.51808700000E-01

  41  41   1    6 C     5.33881200000E-02 -3.92814700000E-01  2.48091650000E-01

  42  42   1    6 C     1.30234680000E-01 -2.39105970000E-01 -2.51908350000E-01

  43  43   1    6 C    -5.35478900000E-02 -4.46307810000E-01  2.48390720000E-01

  44  44   1    6 C     2.32986700000E-02 -2.92599080000E-01 -2.51609280000E-01

  45  45   1    6 C     5.34263400000E-02  4.46249970000E-01  2.47621640000E-01

  46  46   1    6 C     1.30272900000E-01 -4.00041300000E-01 -2.52378360000E-01

  47  47   1    6 C     1.08035890000E-01 -4.45964370000E-01  2.48404950000E-01

  48  48   1    6 C     1.84882450000E-01 -2.92255640000E-01 -2.51595050000E-01

  49  49   1    6 C    -4.45960580000E-01  1.08168460000E-01  2.50655130000E-01

  50  50   1    6 C    -3.69114020000E-01  2.61877190000E-01 -2.49344870000E-01

  51  51   1    6 C    -3.92822150000E-01  5.35559400000E-02  2.51808710000E-01

  52  52   1    6 C    -3.15975590000E-01  2.07264670000E-01 -2.48191300000E-01

  53  53   1    6 C     3.92798670000E-01 -5.33368400000E-02  2.51908400000E-01

  54  54   1    6 C     4.69645230000E-01  1.00371890000E-01 -2.48091600000E-01

  55  55   1    6 C     4.46287580000E-01  5.36028600000E-02  2.51609330000E-01

  56  56   1    6 C    -4.76865860000E-01  2.07311590000E-01 -2.48390670000E-01

  57  57   1    6 C    -4.46283150000E-01 -5.33764400000E-02  2.52378360000E-01

  58  58   1    6 C    -3.69436590000E-01  1.00332290000E-01 -2.47621640000E-01

  59  59   1    6 C     4.45927910000E-01 -1.08007940000E-01  2.51595080000E-01

  60  60   1    6 C    -4.77225530000E-01  4.57007900000E-02 -2.48404920000E-01

  61  61   1    6 C    -4.45955130000E-01  4.45874550000E-01  2.49344900000E-01

  62  62   1    6 C    -3.69108570000E-01 -4.00416720000E-01 -2.50655110000E-01

  63  63   1    6 C    -3.92789780000E-01 -4.46374220000E-01  2.48191320000E-01

  64  64   1    6 C    -3.15943220000E-01 -2.92665490000E-01 -2.51808680000E-01

  65  65   1    6 C     3.92823370000E-01  4.46172030000E-01  2.48091620000E-01

  66  66   1    6 C     4.69669930000E-01 -4.00119240000E-01 -2.51908380000E-01

  67  67   1    6 C     4.46287260000E-01  3.92689990000E-01  2.48390690000E-01

  68  68   1    6 C    -4.76866180000E-01 -4.53601280000E-01 -2.51609310000E-01

  69  69   1    6 C    -4.46257040000E-01 -3.92902000000E-01  2.47621670000E-01

  70  70   1    6 C    -3.69410480000E-01 -2.39193270000E-01 -2.52378330000E-01

  71  71   1    6 C     4.45959980000E-01 -4.46041770000E-01  2.48404950000E-01

  72  72   1    6 C    -4.77193460000E-01 -2.92333040000E-01 -2.51595050000E-01

  73  73   1    8 O    -4.39263320000E-01  2.80370630000E-01  2.49700940000E-01

  74  74   1    8 O    -3.62416760000E-01  4.34079360000E-01 -2.50299070000E-01

  75  75   1    8 O    -2.80318300000E-01  2.80378330000E-01  2.52164740000E-01

  76  76   1    8 O    -2.03471740000E-01  4.34087060000E-01 -2.47835260000E-01

  77  77   1    8 O    -2.80320580000E-01  4.39323460000E-01  2.48447690000E-01

  78  78   1    8 O    -2.03474020000E-01 -4.06967810000E-01 -2.51552310000E-01

  79  79   1    8 O     2.80324510000E-01 -2.80348890000E-01  2.49700950000E-01

  80  80   1    8 O     3.57171070000E-01 -1.26640160000E-01 -2.50299050000E-01

  81  81   1    8 O     2.80343970000E-01 -4.39304390000E-01  2.52164730000E-01

  82  82   1    8 O     3.57190530000E-01 -2.85595660000E-01 -2.47835270000E-01

  83  83   1    8 O     4.39263840000E-01 -2.80364580000E-01  2.48447680000E-01

  84  84   1    8 O    -4.83889600000E-01 -1.26655850000E-01 -2.51552330000E-01

 NUMBER OF SYMMETRY OPERATORS         :    1
 *******************************************************************************
 * GEOMETRY EDITING - INPUT COORDINATES ARE GIVEN IN ANGSTROM         
 *******************************************************************************

 GCALCO - MAX INDICES DIRECT LATTICE VECTOR    12    12    19
 NO.OF VECTORS CREATED 6999 STARS 3500 RMAX   266.29565 BOHR

 GEOMETRY FOR WAVE FUNCTION - DIMENSIONALITY OF THE SYSTEM    3
 (NON PERIODIC DIRECTION: LATTICE PARAMETER FORMALLY SET TO 500)
 *******************************************************************************
 LATTICE PARAMETERS (ANGSTROMS AND DEGREES) - BOHR = 0.5291772083 ANGSTROM
 PRIMITIVE CELL - CENTRING CODE 1/0 VOLUME=  1681.141313 - DENSITY  0.771 g/cm^3
         A              B              C           ALPHA      BETA       GAMMA 
    15.02361100    15.02391600     8.60000000    90.000323  89.999944 119.995964
 *******************************************************************************
 ATOMS IN THE ASYMMETRIC UNIT   84 - ATOMS IN THE UNIT CELL:   84
     ATOM                 X/A                 Y/B                 Z/C    
 *******************************************************************************
      1 T   5 B    -3.863194600000E-01  2.273182200000E-01  2.505554300000E-01
      2 T   5 B    -3.094729000000E-01  3.810269500000E-01 -2.494445700000E-01
      3 T   5 B    -2.272638000000E-01  3.863778800000E-01  2.505554400000E-01
      4 T   5 B    -1.504172400000E-01 -4.599133900000E-01 -2.494445600000E-01
      5 T   5 B    -3.863237300000E-01  3.863606700000E-01  2.493876200000E-01
      6 T   5 B    -3.094771700000E-01 -4.599306000000E-01 -2.506123700000E-01
      7 T   5 B     2.272552500000E-01 -3.863667800000E-01  2.505554400000E-01
      8 T   5 B     3.041018100000E-01 -2.326580500000E-01 -2.494445600000E-01
      9 T   5 B     3.863632200000E-01 -3.863875500000E-01  2.505554300000E-01
     10 T   5 B     4.632097800000E-01 -2.326788200000E-01 -2.494445700000E-01
     11 T   5 B     3.863435000000E-01 -2.272483500000E-01  2.493876300000E-01
     12 T   5 B     4.631900600000E-01 -7.353962000000E-02 -2.506123700000E-01
     13 T   1 H    -9.695638000000E-02  3.089300500000E-01  2.481343300000E-01
     14 T   1 H    -2.010982000000E-02  4.626387800000E-01 -2.518656700000E-01
     15 T   1 H     9.663453000000E-02 -3.089465600000E-01  2.477641000000E-01
     16 T   1 H     1.734810900000E-01 -1.552378300000E-01 -2.522359000000E-01
     17 T   1 H    -9.702858000000E-02 -4.059275700000E-01  2.477071200000E-01
     18 T   1 H    -2.018202000000E-02 -2.522188400000E-01 -2.522928800000E-01
     19 T   1 H     9.673618000000E-02  4.056849400000E-01  2.477213300000E-01
     20 T   1 H     1.735827400000E-01 -4.406063300000E-01 -2.522786700000E-01
     21 T   1 H    -3.089676000000E-01  9.700412000000E-02  2.518656900000E-01
     22 T   1 H    -2.321210400000E-01  2.507128500000E-01 -2.481343100000E-01
     23 T   1 H     3.089297200000E-01 -9.656269000000E-02  2.522359400000E-01
     24 T   1 H     3.857762800000E-01  5.714604000000E-02 -2.477640600000E-01
     25 T   1 H     4.058699900000E-01  9.704998000000E-02  2.522929500000E-01
     26 T   1 H     4.827165500000E-01  2.507587100000E-01 -2.477070500000E-01
     27 T   1 H    -4.056877900000E-01 -9.665268000000E-02  2.522786500000E-01
     28 T   1 H    -3.288412300000E-01  5.705605000000E-02 -2.477213500000E-01
     29 T   1 H    -3.089272600000E-01 -4.059457900000E-01  2.481343500000E-01
     30 T   1 H    -2.320807000000E-01 -2.522370600000E-01 -2.518656500000E-01
     31 T   1 H     3.089618300000E-01  4.056093300000E-01  2.477640800000E-01
     32 T   1 H     3.858083900000E-01 -4.406819400000E-01 -2.522359300000E-01
     33 T   1 H     4.058405700000E-01  3.088232500000E-01  2.477070700000E-01
     34 T   1 H     4.826871300000E-01  4.625319800000E-01 -2.522929300000E-01
     35 T   1 H    -4.057091200000E-01 -3.090420700000E-01  2.477213700000E-01
     36 T   1 H    -3.288625600000E-01 -1.553333400000E-01 -2.522786200000E-01
     37 T   6 C    -1.081096900000E-01  4.459436900000E-01  2.493448900000E-01
     38 T   6 C    -3.126313000000E-02 -4.003475800000E-01 -2.506551000000E-01
     39 T   6 C    -5.351089000000E-02  3.927856300000E-01  2.481913100000E-01
     40 T   6 C     2.333567000000E-02 -4.535056400000E-01 -2.518087000000E-01
     41 T   6 C     5.338812000000E-02 -3.928147000000E-01  2.480916500000E-01
     42 T   6 C     1.302346800000E-01 -2.391059700000E-01 -2.519083500000E-01
     43 T   6 C    -5.354789000000E-02 -4.463078100000E-01  2.483907200000E-01
     44 T   6 C     2.329867000000E-02 -2.925990800000E-01 -2.516092800000E-01
     45 T   6 C     5.342634000000E-02  4.462499700000E-01  2.476216400000E-01
     46 T   6 C     1.302729000000E-01 -4.000413000000E-01 -2.523783600000E-01
     47 T   6 C     1.080358900000E-01 -4.459643700000E-01  2.484049500000E-01
     48 T   6 C     1.848824500000E-01 -2.922556400000E-01 -2.515950500000E-01
     49 T   6 C    -4.459605800000E-01  1.081684600000E-01  2.506551300000E-01
     50 T   6 C    -3.691140200000E-01  2.618771900000E-01 -2.493448700000E-01
     51 T   6 C    -3.928221500000E-01  5.355594000000E-02  2.518087100000E-01
     52 T   6 C    -3.159755900000E-01  2.072646700000E-01 -2.481913000000E-01
     53 T   6 C     3.927986700000E-01 -5.333684000000E-02  2.519084000000E-01
     54 T   6 C     4.696452300000E-01  1.003718900000E-01 -2.480916000000E-01
     55 T   6 C     4.462875800000E-01  5.360286000000E-02  2.516093300000E-01
     56 T   6 C    -4.768658600000E-01  2.073115900000E-01 -2.483906700000E-01
     57 T   6 C    -4.462831500000E-01 -5.337644000000E-02  2.523783600000E-01
     58 T   6 C    -3.694365900000E-01  1.003322900000E-01 -2.476216400000E-01
     59 T   6 C     4.459279100000E-01 -1.080079400000E-01  2.515950800000E-01
     60 T   6 C    -4.772255300000E-01  4.570079000000E-02 -2.484049200000E-01
     61 T   6 C    -4.459551300000E-01  4.458745500000E-01  2.493449000000E-01
     62 T   6 C    -3.691085700000E-01 -4.004167200000E-01 -2.506551100000E-01
     63 T   6 C    -3.927897800000E-01 -4.463742200000E-01  2.481913200000E-01
     64 T   6 C    -3.159432200000E-01 -2.926654900000E-01 -2.518086800000E-01
     65 T   6 C     3.928233700000E-01  4.461720300000E-01  2.480916200000E-01
     66 T   6 C     4.696699300000E-01 -4.001192400000E-01 -2.519083800000E-01
     67 T   6 C     4.462872600000E-01  3.926899900000E-01  2.483906900000E-01
     68 T   6 C    -4.768661800000E-01 -4.536012800000E-01 -2.516093100000E-01
     69 T   6 C    -4.462570400000E-01 -3.929020000000E-01  2.476216700000E-01
     70 T   6 C    -3.694104800000E-01 -2.391932700000E-01 -2.523783300000E-01
     71 T   6 C     4.459599800000E-01 -4.460417700000E-01  2.484049500000E-01
     72 T   6 C    -4.771934600000E-01 -2.923330400000E-01 -2.515950500000E-01
     73 T   8 O    -4.392633200000E-01  2.803706300000E-01  2.497009400000E-01
     74 T   8 O    -3.624167600000E-01  4.340793600000E-01 -2.502990700000E-01
     75 T   8 O    -2.803183000000E-01  2.803783300000E-01  2.521647400000E-01
     76 T   8 O    -2.034717400000E-01  4.340870600000E-01 -2.478352600000E-01
     77 T   8 O    -2.803205800000E-01  4.393234600000E-01  2.484476900000E-01
     78 T   8 O    -2.034740200000E-01 -4.069678100000E-01 -2.515523100000E-01
     79 T   8 O     2.803245100000E-01 -2.803488900000E-01  2.497009500000E-01
     80 T   8 O     3.571710700000E-01 -1.266401600000E-01 -2.502990500000E-01
     81 T   8 O     2.803439700000E-01 -4.393043900000E-01  2.521647300000E-01
     82 T   8 O     3.571905300000E-01 -2.855956600000E-01 -2.478352700000E-01
     83 T   8 O     4.392638400000E-01 -2.803645800000E-01  2.484476800000E-01
     84 T   8 O    -4.838896000000E-01 -1.266558500000E-01 -2.515523300000E-01

 T = ATOM BELONGING TO THE ASYMMETRIC UNIT

 ****    1 SYMMOPS - TRANSLATORS IN FRACTIONAL UNITS
 **** MATRICES AND TRANSLATORS IN THE CRYSTALLOGRAPHIC REFERENCE FRAME
   V INV                    ROTATION MATRICES                   TRANSLATORS
   1   1  1.00  0.00  0.00  0.00  1.00  0.00  0.00 -0.00  1.00  0.00  0.00  0.00

 DIRECT LATTICE VECTORS CARTESIAN COMPONENTS (ANGSTROM)
          X                    Y                    Z
   0.130113578931E+02  -0.751088897922E+01   0.000000000000E+00
   0.000000000000E+00   0.150239160000E+02   0.000000000000E+00
  -0.182809542969E-04  -0.484817559599E-04   0.859999999984E+01


 CARTESIAN COORDINATES - PRIMITIVE CELL
 *******************************************************************************
 *      ATOM          X(ANGSTROM)         Y(ANGSTROM)         Z(ANGSTROM)
 *******************************************************************************
    1     5 B    -5.026545335505E+00  6.316800269753E+00  2.154776697961E+00
    2     5 B    -4.026658100017E+00 -6.974970421977E+00 -2.145223301961E+00
    3     5 B    -2.957015218329E+00  7.511849836805E+00  2.154776783961E+00
    4     5 B    -1.957127982841E+00 -5.779920854925E+00 -2.145223215961E+00
    5     5 B    -5.026600872654E+00 -6.317643192899E+00  2.144733531961E+00
    6     5 B    -4.026713637167E+00 -4.585497884630E+00 -2.155266381961E+00
    7     5 B     2.956894810433E+00 -7.511643147972E+00  2.154776783961E+00
    8     5 B     3.956782045921E+00 -5.779497839702E+00 -2.145223215961E+00
    9     5 B     5.027105551741E+00  6.316918506914E+00  2.154776697961E+00
   10     5 B    -6.984365105828E+00  5.360367944008E-01 -2.145223301961E+00
   11     5 B     5.026848989112E+00 -6.315955348631E+00  2.144733617961E+00
   12     5 B     6.026736224600E+00 -4.583810040361E+00 -2.155266381961E+00
   13     1 H    -1.261538696328E+00  5.369555697094E+00  2.133955237961E+00
   14     1 H    -2.616514608401E-01  7.101701005364E+00 -2.166044761961E+00
   15     1 H     1.257341925293E+00 -5.367410404356E+00  2.130771259961E+00
   16     1 H     2.257229160781E+00 -3.635265096086E+00 -2.169228739961E+00
   17     1 H    -1.262478108558E+00 -5.369862830849E+00  2.130281231961E+00
   18     1 H    -2.625908730702E-01 -3.637717522579E+00 -2.169718767961E+00
   19     1 H     1.258664530605E+00  5.368389742806E+00  2.130403437961E+00
   20     1 H     2.258551766092E+00  7.100535051076E+00 -2.169596561961E+00
   21     1 H    -4.020092625304E+00  3.777990881418E+00  2.166044933961E+00
   22     1 H    -3.020205389817E+00  5.510136189688E+00 -2.133955065961E+00
   23     1 H     4.019590539608E+00 -3.771098801436E+00  2.169229083961E+00
   24     1 H     5.019477775095E+00 -2.038953493166E+00 -2.130770915961E+00
   25     1 H     5.280915085785E+00 -1.590385919169E+00  2.169719369961E+00
   26     1 H     6.280802321273E+00  1.417593891007E-01 -2.130280629961E+00
   27     1 H    -5.278553640428E+00  1.594961974507E+00  2.169596389961E+00
   28     1 H    -4.278666404940E+00  3.327107282777E+00 -2.130403609961E+00
   29     1 H    -4.019567678914E+00 -3.778589126989E+00  2.133955409961E+00
   30     1 H    -3.019680443427E+00 -2.046443818719E+00 -2.166044589961E+00
   31     1 H     4.020008416060E+00  3.773250486753E+00  2.130771087961E+00
   32     1 H     5.019895651547E+00  5.505395795024E+00 -2.169228997961E+00
   33     1 H     5.280532375470E+00  1.591499093041E+00  2.130280801961E+00
   34     1 H     6.280419610958E+00  3.323644401311E+00 -2.169719197961E+00
   35     1 H    -5.278831089380E+00 -1.595797951938E+00  2.130403781961E+00
   36     1 H    -4.278943853893E+00  1.363473563320E-01 -2.169596131961E+00
   37     6 C    -1.406658426560E+00  7.511808329779E+00  2.144366053961E+00
   38     6 C    -4.067711910727E-01 -5.779962361951E+00 -2.155633859961E+00
   39     6 C    -6.962538781400E-01  6.303080632346E+00  2.134445265961E+00
   40     6 C     3.036333573476E-01 -6.988690059384E+00 -2.165554819961E+00
   41     6 C     6.946474012053E-01 -6.302619326413E+00  2.133588189961E+00
   42     6 C     1.694534636693E+00 -4.570474018143E+00 -2.166411809961E+00
   43     6 C    -6.967353020274E-01 -6.303110833141E+00  2.136160191961E+00
   44     6 C     3.031519334600E-01 -4.570965524871E+00 -2.163839807961E+00
   45     6 C     6.951447038962E-01  6.303130750845E+00  2.129546103961E+00
   46     6 C     1.695031939384E+00 -6.988639940885E+00 -2.170453895961E+00
   47     6 C     1.405689089005E+00 -7.511588852542E+00  2.136282569961E+00
   48     6 C     2.405576324493E+00 -5.779443544272E+00 -2.163717429961E+00
   49     6 C     7.208800598267E+00 -2.536226869041E+00  2.155634117961E+00
   50     6 C     8.208687833754E+00 -8.040815607710E-01 -2.144365881961E+00
   51     6 C    -5.111154185273E+00  3.755051292960E+00  2.165554905961E+00
   52     6 C    -4.111266949786E+00  5.487196601230E+00 -2.134445179961E+00
   53     6 C     5.110839470161E+00 -3.751607618381E+00  2.166412239961E+00
   54     6 C     6.110726705648E+00 -2.019462310111E+00 -2.133587759961E+00
   55     6 C     5.806802826947E+00 -2.546703798646E+00  2.163840237961E+00
   56     6 C     6.806690062435E+00 -8.145584903756E-01 -2.136159761961E+00
   57     6 C    -5.806754400008E+00  2.550047806260E+00  2.170453895961E+00
   58     6 C    -4.806867164521E+00  4.282193114530E+00 -2.129546103961E+00
   59     6 C     5.802123032115E+00 -4.972029440408E+00  2.163717687961E+00
   60     6 C     6.802010267602E+00 -3.239884132138E+00 -2.136282311961E+00
   61     6 C     7.208871534119E+00  2.537400188985E+00  2.144366139961E+00
   62     6 C    -4.802599123450E+00 -3.243481523528E+00 -2.155633945961E+00
   63     6 C    -5.110732941489E+00 -3.756100388846E+00  2.134445351961E+00
   64     6 C    -4.110845706002E+00 -2.023955080576E+00 -2.165554647961E+00
   65     6 C     5.111160920475E+00  3.752786351840E+00  2.133587931961E+00
   66     6 C    -6.900309737094E+00 -2.028095360673E+00 -2.166412067961E+00
   67     6 C     5.806798722153E+00  2.547715318685E+00  2.136159933961E+00
   68     6 C    -6.204671935416E+00 -3.233166393828E+00 -2.163840065961E+00
   69     6 C    -5.806414586496E+00 -2.551151565732E+00  2.129546361961E+00
   70     6 C    -4.806527351009E+00 -8.190062574617E-01 -2.170453637961E+00
   71     6 C     5.802540364681E+00  4.973053972967E+00  2.136282569961E+00
   72     6 C    -6.208930292888E+00 -8.078277395467E-01 -2.163717429961E+00
   73     8 O     7.295941062473E+00  6.217379926190E-04  2.147428083961E+00
   74     8 O    -4.715529595096E+00 -5.780259974520E+00 -2.152572001961E+00
   75     8 O    -3.647326335085E+00  6.317807882894E+00  2.168616763961E+00
   76     8 O    -2.647439099598E+00 -6.973962808836E+00 -2.131383235961E+00
   77     8 O    -3.647355933030E+00 -6.318112530341E+00  2.136650133961E+00
   78     8 O    -2.647468697543E+00 -4.585967222071E+00 -2.163349865961E+00
   79     8 O     3.647397961034E+00 -6.317436552757E+00  2.147428169961E+00
   80     8 O     4.647285196521E+00 -4.585291244487E+00 -2.152571829961E+00
   81     8 O     3.647651117018E+00  6.318199086157E+00  2.168616677961E+00
   82     8 O     4.647538352506E+00 -6.973571605573E+00 -2.131383321961E+00
   83     8 O    -7.295943403199E+00 -5.589000829137E-04  2.136650047961E+00
   84     8 O    -6.296056167711E+00  1.731586408188E+00 -2.163350037961E+00

 *******************************************************************************
 STARTING BASIS SET HANDLING 
 *******************************************************************************

 Loading internal basis set: SOLDEF2MSVP         

 Please cite in your publication:
 L. Dona', J. G. Brandenburg and B. Civalleri, J. Chem. Phys., 151, 121101 (2019
 )                                                                              
                                                                                
                    

 *******************************************************************************
 LOCAL ATOMIC FUNCTIONS BASIS SET
 *******************************************************************************
   ATOM   X(AU)   Y(AU)   Z(AU)  N. TYPE  EXPONENT  S COEF   P COEF   D/F/G COEF
 *******************************************************************************
   1 B   -9.499  11.937   4.072
                                  1 S  
                                         2.410E+03 1.755E-03 0.000E+00 0.000E+00
                                         3.619E+02 1.344E-02 0.000E+00 0.000E+00
                                         8.231E+01 6.637E-02 0.000E+00 0.000E+00
                                         2.311E+01 2.303E-01 0.000E+00 0.000E+00
                                         7.252E+00 5.150E-01 0.000E+00 0.000E+00
                                  2 S  
                                         2.367E+00 1.000E+00 0.000E+00 0.000E+00
                                  3 S  
                                         5.533E-01 1.000E+00 0.000E+00 0.000E+00
                                  4 S  
                                         1.716E-01 1.000E+00 0.000E+00 0.000E+00
                           5-     7 P  
                                         6.002E+00 0.000E+00-3.555E-02 0.000E+00
                                         1.240E+00 0.000E+00-1.983E-01 0.000E+00
                                         3.367E-01 0.000E+00-5.048E-01 0.000E+00
                           8-    10 P  
                                         1.256E-01 0.000E+00 1.000E+00 0.000E+00
                          11-    15 D  
                                         8.880E-01 0.000E+00 0.000E+00 1.000E+00
   2 B   -7.609 -13.181  -4.054
   3 B   -5.588  14.195   4.072
   4 B   -3.698 -10.922  -4.054
   5 B   -9.499 -11.939   4.053
   6 B   -7.609  -8.665  -4.073
   7 B    5.588 -14.195   4.072
   8 B    7.477 -10.922  -4.054
   9 B    9.500  11.937   4.072
  10 B  -13.199   1.013  -4.054
  11 B    9.499 -11.935   4.053
  12 B   11.389  -8.662  -4.073
  13 H   -2.384  10.147   4.033
                                181 S  
                                         1.874E+01 1.968E-02 0.000E+00 0.000E+00
                                         2.826E+00 1.380E-01 0.000E+00 0.000E+00
                                         6.401E-01 4.783E-01 0.000E+00 0.000E+00
                                182 S  
                                         1.756E-01 1.000E+00 0.000E+00 0.000E+00
  14 H   -0.494  13.420  -4.093
  15 H    2.376 -10.143   4.027
  16 H    4.266  -6.870  -4.099
  17 H   -2.386 -10.148   4.026
  18 H   -0.496  -6.874  -4.100
  19 H    2.379  10.145   4.026
  20 H    4.268  13.418  -4.100
  21 H   -7.597   7.139   4.093
  22 H   -5.707  10.413  -4.033
  23 H    7.596  -7.126   4.099
  24 H    9.485  -3.853  -4.027
  25 H    9.979  -3.005   4.100
  26 H   11.869   0.268  -4.026
  27 H   -9.975   3.014   4.100
  28 H   -8.086   6.287  -4.026
  29 H   -7.596  -7.140   4.033
  30 H   -5.706  -3.867  -4.093
  31 H    7.597   7.130   4.027
  32 H    9.486  10.404  -4.099
  33 H    9.979   3.007   4.026
  34 H   11.868   6.281  -4.100
  35 H   -9.976  -3.016   4.026
  36 H   -8.086   0.258  -4.100
  37 C   -2.658  14.195   4.052
                                229 S  
                                         3.624E+03 1.634E-03 0.000E+00 0.000E+00
                                         5.440E+02 1.252E-02 0.000E+00 0.000E+00
                                         1.237E+02 6.211E-02 0.000E+00 0.000E+00
                                         3.476E+01 2.182E-01 0.000E+00 0.000E+00
                                         1.093E+01 4.980E-01 0.000E+00 0.000E+00
                                230 S  
                                         3.574E+00 1.000E+00 0.000E+00 0.000E+00
                                231 S  
                                         7.742E-01 1.000E+00 0.000E+00 0.000E+00
                                232 S  
                                         2.330E-01 1.000E+00 0.000E+00 0.000E+00
                         233-   235 P  
                                         9.443E+00 0.000E+00 3.790E-02 0.000E+00
                                         2.002E+00 0.000E+00 2.082E-01 0.000E+00
                                         5.463E-01 0.000E+00 5.047E-01 0.000E+00
                         236-   238 P  
                                         1.820E-01 0.000E+00 1.000E+00 0.000E+00
                         239-   243 D  
                                         8.880E-01 0.000E+00 0.000E+00 1.000E+00
  38 C   -0.769 -10.923  -4.074
  39 C   -1.316  11.911   4.034
  40 C    0.574 -13.207  -4.092
  41 C    1.313 -11.910   4.032
  42 C    3.202  -8.637  -4.094
  43 C   -1.317 -11.911   4.037
  44 C    0.573  -8.638  -4.089
  45 C    1.314  11.911   4.024
  46 C    3.203 -13.207  -4.102
  47 C    2.656 -14.195   4.037
  48 C    4.546 -10.922  -4.089
  49 C   13.623  -4.793   4.074
  50 C   15.512  -1.519  -4.052
  51 C   -9.659   7.096   4.092
  52 C   -7.769  10.369  -4.034
  53 C    9.658  -7.090   4.094
  54 C   11.548  -3.816  -4.032
  55 C   10.973  -4.813   4.089
  56 C   12.863  -1.539  -4.037
  57 C  -10.973   4.819   4.102
  58 C   -9.084   8.092  -4.024
  59 C   10.964  -9.396   4.089
  60 C   12.854  -6.122  -4.037
  61 C   13.623   4.795   4.052
  62 C   -9.076  -6.129  -4.074
  63 C   -9.658  -7.098   4.034
  64 C   -7.768  -3.825  -4.092
  65 C    9.659   7.092   4.032
  66 C  -13.040  -3.833  -4.094
  67 C   10.973   4.814   4.037
  68 C  -11.725  -6.110  -4.089
  69 C  -10.973  -4.821   4.024
  70 C   -9.083  -1.548  -4.102
  71 C   10.965   9.398   4.037
  72 C  -11.733  -1.527  -4.089
  73 O   13.787   0.001   4.058
                                769 S  
                                         6.773E+03 1.727E-03 0.000E+00 0.000E+00
                                         1.017E+03 1.325E-02 0.000E+00 0.000E+00
                                         2.313E+02 6.603E-02 0.000E+00 0.000E+00
                                         6.501E+01 2.353E-01 0.000E+00 0.000E+00
                                         2.050E+01 5.498E-01 0.000E+00 0.000E+00
                                770 S  
                                         6.716E+00 1.000E+00 0.000E+00 0.000E+00
                                771 S  
                                         1.147E+00 1.000E+00 0.000E+00 0.000E+00
                                772 S  
                                         3.342E-01 1.000E+00 0.000E+00 0.000E+00
                         773-   775 P  
                                         1.769E+01 0.000E+00 4.359E-02 0.000E+00
                                         3.854E+00 0.000E+00 2.318E-01 0.000E+00
                                         1.047E+00 0.000E+00 5.146E-01 0.000E+00
                         776-   778 P  
                                         2.759E-01 0.000E+00 1.000E+00 0.000E+00
                         779-   783 D  
                                         8.000E-01 0.000E+00 0.000E+00 1.000E+00
  74 O   -8.911 -10.923  -4.068
  75 O   -6.892  11.939   4.098
  76 O   -5.003 -13.179  -4.028
  77 O   -6.893 -11.940   4.038
  78 O   -5.003  -8.666  -4.088
  79 O    6.893 -11.938   4.058
  80 O    8.782  -8.665  -4.068
  81 O    6.893  11.940   4.098
  82 O    8.783 -13.178  -4.028
  83 O  -13.787  -0.001   4.038
  84 O  -11.898   3.272  -4.088

 *******************************************************************************
 FINISHED BASIS SET HANDLING 
 *******************************************************************************

 INFORMATION **** SET_MPP **** PCRYSTAL CALCULATION
 INFORMATION **** READM2 **** NEW DEFAULT: FOCK/KS MATRIX MIXING SET TO 30 %
 INFORMATION **** READM2 **** NEW DEFAULT: FULL DIRECT SCF MODE
 INFORMATION **** READM2 **** NEW DEFAULT: COULOMB BIPOLAR BUFFER SET TO 32 Mb
 INFORMATION **** READM2 **** NEW DEFAULT: EXCHANGE BIPOLAR BUFFER SET TO 32 Mb

 *******************************************************************************
 NEW DEFAULT: DFT INTEGRATION GRID INCREASED TO XLGRID
 NEW DEFAULT: DIIS ACCELERATOR ACTIVE
 USE KEYWORD NODIIS TO TURN IT OFF
 *******************************************************************************

 WARNING **** RDDFTP **** HSEsol-HJS ACTIVE
 RANGE SEPARATION - OMEGA:   0.110000000000000     
 WARNING **** RDDFTP **** HSEsol-3c has to be combined with sol-def2-mSVP basis set
 *******************************************************************************
 N. OF ATOMS PER CELL        84  COULOMB OVERLAP TOL         (T1) 10**   -6
 NUMBER OF SHELLS           468  COULOMB PENETRATION TOL     (T2) 10**   -6
 NUMBER OF AO               948  EXCHANGE OVERLAP TOL        (T3) 10**   -6
 N. OF ELECTRONS PER CELL   396  EXCHANGE PSEUDO OVP (F(G))  (T4) 10**   -6
 CORE ELECTRONS PER CELL    120  EXCHANGE PSEUDO OVP (P(G))  (T5) 10**  -12
 N. OF SYMMETRY OPERATORS     1  POLE ORDER IN MONO ZONE                  4
 *******************************************************************************
 TYPE OF CALCULATION :  RESTRICTED CLOSED SHELL
 KOHN-SHAM HAMILTONIAN

 (EXCHANGE)[CORRELATION] FUNCTIONAL:(HSEsol GGA)[PBEsol]

 RANGE-SEPARATED HYBRID FUNCTIONAL 
 OMEGA (SHORT-RANGE)[LONG-RANGE]:(    0.1100)[    0.0000]

 HYBRID EXCHANGE - PERCENTAGE OF FOCK EXCHANGE    25.0000

 CAPPA:IS1  2;IS2  2;IS3  8; K PTS MONK NET  20; SYMMOPS:K SPACE   2;G SPACE   1

 *******************************************************************************
 MAX NUMBER OF SCF CYCLES      50  CONVERGENCE ON DELTAP        10**-16
 WEIGHT OF F(I) IN F(I+1)      30% CONVERGENCE ON ENERGY        10**- 6
 SHRINK. FACT.(MONKH.)    2  2  8  NUMBER OF K POINTS IN THE IBZ     20
 SHRINKING FACTOR(GILAT NET)    8  NUMBER OF K POINTS(GILAT NET)   1028
 *******************************************************************************
 *** K POINTS COORDINATES (OBLIQUE COORDINATES IN UNITS OF IS =  2)
   1-R(  0  0  0)   2-R(  1  0  0)   3-R(  0  1  0)   4-R(  1  1  0)
   5-C(  0  0  1)   6-C(  1  0  1)   7-C(  0  1  1)   8-C(  1  1  1)
   9-C(  0  0  2)  10-C(  1  0  2)  11-C(  0  1  2)  12-C(  1  1  2)
  13-C(  0  0  3)  14-C(  1  0  3)  15-C(  0  1  3)  16-C(  1  1  3)
  17-R(  0  0  4)  18-R(  1  0  4)  19-R(  0  1  4)  20-R(  1  1  4)

 DIRECT LATTICE VECTORS COMPON. (A.U.)     RECIP. LATTICE VECTORS COMPON. (A.U.) 
        X            Y            Z              X            Y            Z
   24.5879030  -14.1935232    0.0000000      0.2555397    0.0000000    0.0000005
    0.0000000   28.3910867    0.0000000      0.1277517    0.2213084    0.0000015
   -0.0000345   -0.0000916   16.2516448      0.0000000    0.0000000    0.3866184

 DISK SPACE FOR EIGENVECTORS (FTN 10)    28758528 REALS

 SYMMETRY ADAPTION OF THE BLOCH FUNCTIONS DISABLED
 TTTTTTTTTTTTTTTTTTTTTTTTTTTTTT gordsh1     TELAPSE        0.06 TCPU        0.06

 MATRIX SIZE: P(G)  615132, F(G)  126932, P(G) IRR  309468, F(G) IRR  127892
 MAX G-VECTOR INDEX FOR 1- AND 2-ELECTRON INTEGRALS  53

 TTTTTTTTTTTTTTTTTTTTTTTTTTTTTT INPUT       TELAPSE        2.74 TCPU        2.73

 NEIGHBORS OF THE NON-EQUIVALENT ATOMS

 N = NUMBER OF NEIGHBORS AT DISTANCE R
    ATOM  N     R/ANG      R/AU   NEIGHBORS (ATOM LABELS AND CELL INDICES)
   1 B    1     1.3791     2.6061   73 O   -1 0 0
   1 B    1     1.3793     2.6065   75 O    0 0 0
   1 B    1     1.5503     2.9297   49 C   -1 0 0
   1 B    1     2.3895     4.5155    5 B    0 1 0
   1 B    1     2.3898     4.5160    3 B    0 0 0
   1 B    1     2.5632     4.8437   51 C    0 0 0

   2 B    1     1.3791     2.6061   74 O    0 0 0
   2 B    1     1.3793     2.6065   76 O    0 0 0
   2 B    1     1.5503     2.9297   50 C   -1-1 0
   2 B    1     2.3895     4.5155    6 B    0 0 0
   2 B    1     2.3898     4.5160    4 B    0 0 0
   2 B    1     2.5632     4.8437   52 C    0-1 0

   3 B    1     1.3793     2.6065   77 O    0 1 0
   3 B    1     1.3793     2.6065   75 O    0 0 0
   3 B    1     1.5504     2.9298   37 C    0 0 0
   3 B    1     2.3895     4.5156    5 B    0 1 0
   3 B    1     2.3898     4.5160    1 B    0 0 0
   3 B    1     2.5634     4.8440   43 C    0 1 0

   4 B    1     1.3793     2.6065   78 O    0 0 0
   4 B    1     1.3793     2.6065   76 O    0 0 0
   4 B    1     1.5504     2.9298   38 C    0 0 0
   4 B    1     2.3895     4.5156    6 B    0 0 0
   4 B    1     2.3898     4.5160    2 B    0 0 0
   4 B    1     2.5634     4.8440   44 C    0 0 0

   5 B    1     1.3791     2.6061   73 O   -1-1 0
   5 B    1     1.3793     2.6064   77 O    0 0 0
   5 B    1     1.5502     2.9294   61 C   -1-1 0
   5 B    1     2.3895     4.5155    1 B    0-1 0
   5 B    1     2.3895     4.5156    3 B    0-1 0
   5 B    1     2.5629     4.8433   63 C    0 0 0

   6 B    1     1.3791     2.6061   74 O    0 0 0
   6 B    1     1.3793     2.6064   78 O    0 0 0
   6 B    1     1.5502     2.9294   62 C    0 0 0
   6 B    1     2.3895     4.5155    2 B    0 0 0
   6 B    1     2.3895     4.5156    4 B    0 0 0
   6 B    1     2.5629     4.8433   64 C    0 0 0

   7 B    1     1.3795     2.6068   79 O    0 0 0
   7 B    1     1.3795     2.6070   81 O    0-1 0
   7 B    1     1.5513     2.9316   47 C    0 0 0
   7 B    1     2.3905     4.5174   11 B    0 0 0
   7 B    1     2.3905     4.5175    9 B    0-1 0
   7 B    1     2.5648     4.8468   45 C    0-1 0

   8 B    1     1.3795     2.6068   80 O    0 0 0
   8 B    1     1.3795     2.6070   82 O    0 0 0
   8 B    1     1.5513     2.9316   48 C    0 0 0
   8 B    1     2.3905     4.5174   12 B    0 0 0
   8 B    1     2.3905     4.5175   10 B    1 0 0
   8 B    1     2.5648     4.8468   46 C    0 0 0

   9 B    1     1.3795     2.6069   81 O    0 0 0
   9 B    1     1.3797     2.6072   83 O    1 1 0
   9 B    1     1.5516     2.9322   71 C    0 0 0
   9 B    1     2.3905     4.5175    7 B    0 1 0
   9 B    1     2.3911     4.5185   11 B    0 1 0
   9 B    1     2.5651     4.8473   69 C    1 1 0

  10 B    1     1.3795     2.6069   82 O   -1 0 0
  10 B    1     1.3797     2.6072   84 O    0 0 0
  10 B    1     1.5516     2.9322   72 C    0 0 0
  10 B    1     2.3905     4.5175    8 B   -1 0 0
  10 B    1     2.3911     4.5185   12 B   -1 0 0
  10 B    1     2.5651     4.8473   70 C    0 0 0

  11 B    1     1.3795     2.6068   79 O    0 0 0
  11 B    1     1.3796     2.6071   83 O    1 0 0
  11 B    1     1.5516     2.9322   59 C    0 0 0
  11 B    1     2.3905     4.5174    7 B    0 0 0
  11 B    1     2.3911     4.5185    9 B    0-1 0
  11 B    1     2.5651     4.8473   57 C    1 0 0

  12 B    1     1.3795     2.6068   80 O    0 0 0
  12 B    1     1.3796     2.6071   84 O    1 0 0
  12 B    1     1.5516     2.9322   60 C    0 0 0
  12 B    1     2.3905     4.5174    8 B    0 0 0
  12 B    1     2.3911     4.5185   10 B    1 0 0
  12 B    1     2.5651     4.8473   58 C    1 0 0

  13 H    1     1.0913     2.0623   39 C    0 0 0
  13 H    1     2.1472     4.0576   37 C    0 0 0
  13 H    1     2.1680     4.0969   45 C    0 0 0
  13 H    1     2.5202     4.7625   19 H    0 0 0
  13 H    1     2.5676     4.8520   75 O    0 0 0
  13 H    1     2.7321     5.1630    3 B    0 0 0

  14 H    1     1.0913     2.0623   40 C    0 1 0
  14 H    1     2.1472     4.0576   38 C    0 1 0
  14 H    1     2.1680     4.0969   46 C    0 1 0
  14 H    1     2.5202     4.7625   20 H    0 0 0
  14 H    1     2.5676     4.8520   76 O    0 1 0
  14 H    1     2.7321     5.1630    4 B    0 1 0

  15 H    1     1.0914     2.0625   41 C    0 0 0
  15 H    1     2.1493     4.0616   47 C    0 0 0
  15 H    1     2.1666     4.0942   43 C    0 0 0
  15 H    1     2.5198     4.7618   17 H    0 0 0
  15 H    1     2.5720     4.8604   79 O    0 0 0
  15 H    1     2.7362     5.1707    7 B    0 0 0

  16 H    1     1.0914     2.0625   42 C    0 0 0
  16 H    1     2.1493     4.0616   48 C    0 0 0
  16 H    1     2.1666     4.0942   44 C    0 0 0
  16 H    1     2.5198     4.7618   18 H    0 0 0
  16 H    1     2.5720     4.8604   80 O    0 0 0
  16 H    1     2.7362     5.1707    8 B    0 0 0

  17 H    1     1.0914     2.0624   43 C    0 0 0
  17 H    1     2.1471     4.0575   37 C    0-1 0
  17 H    1     2.1680     4.0970   41 C    0 0 0
  17 H    1     2.5198     4.7618   15 H    0 0 0
  17 H    1     2.5665     4.8500   77 O    0 0 0
  17 H    1     2.7315     5.1618    3 B    0-1 0

  18 H    1     1.0914     2.0624   44 C    0 0 0
  18 H    1     2.1471     4.0575   38 C    0 0 0
  18 H    1     2.1680     4.0970   42 C    0 0 0
  18 H    1     2.5198     4.7618   16 H    0 0 0
  18 H    1     2.5665     4.8500   78 O    0 0 0
  18 H    1     2.7315     5.1618    4 B    0 0 0

  19 H    1     1.0915     2.0626   45 C    0 0 0
  19 H    1     2.1490     4.0610   47 C    0 1 0
  19 H    1     2.1669     4.0948   39 C    0 0 0
  19 H    1     2.5202     4.7625   13 H    0 0 0
  19 H    1     2.5712     4.8588   81 O    0 0 0
  19 H    1     2.7351     5.1686    7 B    0 1 0

  20 H    1     1.0915     2.0626   46 C    0 1 0
  20 H    1     2.1490     4.0610   48 C    0 1 0
  20 H    1     2.1669     4.0948   40 C    0 1 0
  20 H    1     2.5202     4.7625   14 H    0 0 0
  20 H    1     2.5712     4.8588   82 O    0 1 0
  20 H    1     2.7351     5.1686    8 B    0 1 0

  21 H    1     1.0913     2.0623   51 C    0 0 0
  21 H    1     2.1469     4.0571   49 C   -1 0 0
  21 H    1     2.1680     4.0968   57 C    0 0 0
  21 H    1     2.5198     4.7617   27 H    0 0 0
  21 H    1     2.5670     4.8510   75 O    0 0 0
  21 H    1     2.7310     5.1609    1 B    0 0 0

  22 H    1     1.0913     2.0623   52 C    0 0 0
  22 H    1     2.1469     4.0571   50 C   -1 0 0
  22 H    1     2.1680     4.0968   58 C    0 0 0
  22 H    1     2.5198     4.7617   28 H    0 0 0
  22 H    1     2.5670     4.8510   76 O    0 1 0
  22 H    1     2.7310     5.1609    2 B    0 1 0

  23 H    1     1.0914     2.0625   53 C    0 0 0
  23 H    1     2.1493     4.0617   59 C    0 0 0
  23 H    1     2.1664     4.0939   55 C    0 0 0
  23 H    1     2.5192     4.7606   25 H    0 0 0
  23 H    1     2.5735     4.8632   79 O    0 0 0
  23 H    1     2.7371     5.1723   11 B    0 0 0

  24 H    1     1.0914     2.0625   54 C    0 0 0
  24 H    1     2.1493     4.0617   60 C    0 0 0
  24 H    1     2.1664     4.0939   56 C    0 0 0
  24 H    1     2.5192     4.7606   26 H    0 0 0
  24 H    1     2.5735     4.8632   80 O    0 0 0
  24 H    1     2.7371     5.1723   12 B    0 0 0

  25 H    1     1.0914     2.0624   55 C    0 0 0
  25 H    1     2.1475     4.0581   49 C    0 0 0
  25 H    1     2.1679     4.0967   53 C    0 0 0
  25 H    1     2.5192     4.7606   23 H    0 0 0
  25 H    1     2.5675     4.8519   73 O    0 0 0
  25 H    1     2.7328     5.1643    1 B    1 0 0

  26 H    1     1.0914     2.0624   56 C    0 0 0
  26 H    1     2.1475     4.0581   50 C    0 0 0
  26 H    1     2.1679     4.0967   54 C    0 0 0
  26 H    1     2.5192     4.7606   24 H    0 0 0
  26 H    1     2.5675     4.8519   74 O    1 1 0
  26 H    1     2.7328     5.1643    2 B    1 1 0

  27 H    1     1.0914     2.0625   57 C    0 0 0
  27 H    1     2.1491     4.0612   59 C   -1 0 0
  27 H    1     2.1666     4.0942   51 C    0 0 0
  27 H    1     2.5198     4.7617   21 H    0 0 0
  27 H    1     2.5723     4.8609   83 O    0 0 0
  27 H    1     2.7355     5.1693   11 B   -1 0 0

  28 H    1     1.0914     2.0625   58 C    0 0 0
  28 H    1     2.1491     4.0612   60 C   -1 0 0
  28 H    1     2.1666     4.0942   52 C    0 0 0
  28 H    1     2.5198     4.7617   22 H    0 0 0
  28 H    1     2.5723     4.8609   84 O    0 0 0
  28 H    1     2.7355     5.1693   12 B   -1 0 0

  29 H    1     1.0914     2.0624   63 C    0 0 0
  29 H    1     2.1475     4.0582   61 C   -1-1 0
  29 H    1     2.1678     4.0966   69 C    0 0 0
  29 H    1     2.5200     4.7621   35 H    0 0 0
  29 H    1     2.5667     4.8503   77 O    0 0 0
  29 H    1     2.7315     5.1618    5 B    0 0 0

  30 H    1     1.0914     2.0624   64 C    0 0 0
  30 H    1     2.1475     4.0582   62 C    0 0 0
  30 H    1     2.1678     4.0966   70 C    0 0 0
  30 H    1     2.5200     4.7621   36 H    0 0 0
  30 H    1     2.5667     4.8503   78 O    0 0 0
  30 H    1     2.7315     5.1618    6 B    0 0 0

  31 H    1     1.0913     2.0623   65 C    0 0 0
  31 H    1     2.1487     4.0605   71 C    0 0 0
  31 H    1     2.1667     4.0945   67 C    0 0 0
  31 H    1     2.5197     4.7616   33 H    0 0 0
  31 H    1     2.5723     4.8610   81 O    0 0 0
  31 H    1     2.7359     5.1701    9 B    0 0 0

  32 H    1     1.0913     2.0623   66 C    1 1 0
  32 H    1     2.1487     4.0605   72 C    1 1 0
  32 H    1     2.1667     4.0945   68 C    1 1 0
  32 H    1     2.5197     4.7616   34 H    0 0 0
  32 H    1     2.5723     4.8610   82 O    0 1 0
  32 H    1     2.7359     5.1701   10 B    1 1 0

  33 H    1     1.0915     2.0626   67 C    0 0 0
  33 H    1     2.1479     4.0589   61 C    0 0 0
  33 H    1     2.1679     4.0968   65 C    0 0 0
  33 H    1     2.5197     4.7616   31 H    0 0 0
  33 H    1     2.5677     4.8522   73 O    0 0 0
  33 H    1     2.7331     5.1648    5 B    1 1 0

  34 H    1     1.0915     2.0626   68 C    1 1 0
  34 H    1     2.1479     4.0589   62 C    1 1 0
  34 H    1     2.1679     4.0968   66 C    1 1 0
  34 H    1     2.5197     4.7616   32 H    0 0 0
  34 H    1     2.5677     4.8522   74 O    1 1 0
  34 H    1     2.7331     5.1648    6 B    1 1 0

  35 H    1     1.0914     2.0624   69 C    0 0 0
  35 H    1     2.1486     4.0602   71 C   -1-1 0
  35 H    1     2.1668     4.0947   63 C    0 0 0
  35 H    1     2.5200     4.7621   29 H    0 0 0
  35 H    1     2.5717     4.8598   83 O    0 0 0
  35 H    1     2.7349     5.1682    9 B   -1-1 0

  36 H    1     1.0914     2.0624   70 C    0 0 0
  36 H    1     2.1486     4.0602   72 C    0 0 0
  36 H    1     2.1668     4.0947   64 C    0 0 0
  36 H    1     2.5200     4.7621   30 H    0 0 0
  36 H    1     2.5717     4.8598   84 O    0 0 0
  36 H    1     2.7349     5.1682   10 B    0 0 0

  37 C    1     1.4020     2.6495   43 C    0 1 0
  37 C    1     1.4021     2.6495   39 C    0 0 0
  37 C    1     1.5504     2.9298    3 B    0 0 0
  37 C    1     2.1471     4.0575   17 H    0 1 0
  37 C    1     2.1472     4.0576   13 H    0 0 0
  37 C    1     2.4246     4.5817   41 C    0 1 0

  38 C    1     1.4020     2.6495   44 C    0 0 0
  38 C    1     1.4021     2.6495   40 C    0 0 0
  38 C    1     1.5504     2.9298    4 B    0 0 0
  38 C    1     2.1471     4.0575   18 H    0 0 0
  38 C    1     2.1472     4.0576   14 H    0-1 0
  38 C    1     2.4246     4.5817   42 C    0 0 0

  39 C    1     1.0913     2.0623   13 H    0 0 0
  39 C    1     1.3914     2.6294   45 C    0 0 0
  39 C    1     1.4021     2.6495   37 C    0 0 0
  39 C    1     2.1669     4.0948   19 H    0 0 0
  39 C    1     2.4177     4.5688   43 C    0 1 0
  39 C    1     2.4250     4.5825   47 C    0 1 0

  40 C    1     1.0913     2.0623   14 H    0-1 0
  40 C    1     1.3914     2.6294   46 C    0 0 0
  40 C    1     1.4021     2.6495   38 C    0 0 0
  40 C    1     2.1669     4.0948   20 H    0-1 0
  40 C    1     2.4177     4.5688   44 C    0 0 0
  40 C    1     2.4250     4.5825   48 C    0 0 0

  41 C    1     1.0914     2.0625   15 H    0 0 0
  41 C    1     1.3914     2.6293   43 C    0 0 0
  41 C    1     1.4026     2.6505   47 C    0 0 0
  41 C    1     2.1680     4.0970   17 H    0 0 0
  41 C    1     2.4182     4.5697   45 C    0-1 0
  41 C    1     2.4246     4.5817   37 C    0-1 0

  42 C    1     1.0914     2.0625   16 H    0 0 0
  42 C    1     1.3914     2.6293   44 C    0 0 0
  42 C    1     1.4026     2.6505   48 C    0 0 0
  42 C    1     2.1680     4.0970   18 H    0 0 0
  42 C    1     2.4182     4.5697   46 C    0 0 0
  42 C    1     2.4246     4.5817   38 C    0 0 0

  43 C    1     1.0914     2.0624   17 H    0 0 0
  43 C    1     1.3914     2.6293   41 C    0 0 0
  43 C    1     1.4020     2.6495   37 C    0-1 0
  43 C    1     2.1666     4.0942   15 H    0 0 0
  43 C    1     2.4177     4.5688   39 C    0-1 0
  43 C    1     2.4250     4.5826   47 C    0 0 0

  44 C    1     1.0914     2.0624   18 H    0 0 0
  44 C    1     1.3914     2.6293   42 C    0 0 0
  44 C    1     1.4020     2.6495   38 C    0 0 0
  44 C    1     2.1666     4.0942   16 H    0 0 0
  44 C    1     2.4177     4.5688   40 C    0 0 0
  44 C    1     2.4250     4.5826   48 C    0 0 0

  45 C    1     1.0915     2.0626   19 H    0 0 0
  45 C    1     1.3914     2.6294   39 C    0 0 0
  45 C    1     1.4025     2.6504   47 C    0 1 0
  45 C    1     2.1680     4.0969   13 H    0 0 0
  45 C    1     2.4182     4.5697   41 C    0 1 0
  45 C    1     2.4246     4.5818   37 C    0 0 0

  46 C    1     1.0915     2.0626   20 H    0-1 0
  46 C    1     1.3914     2.6294   40 C    0 0 0
  46 C    1     1.4025     2.6504   48 C    0 0 0
  46 C    1     2.1680     4.0969   14 H    0-1 0
  46 C    1     2.4182     4.5697   42 C    0 0 0
  46 C    1     2.4246     4.5818   38 C    0 0 0

  47 C    1     1.4025     2.6504   45 C    0-1 0
  47 C    1     1.4026     2.6505   41 C    0 0 0
  47 C    1     1.5513     2.9316    7 B    0 0 0
  47 C    1     2.1490     4.0610   19 H    0-1 0
  47 C    1     2.1493     4.0616   15 H    0 0 0
  47 C    1     2.4250     4.5825   39 C    0-1 0

  48 C    1     1.4025     2.6504   46 C    0 0 0
  48 C    1     1.4026     2.6505   42 C    0 0 0
  48 C    1     1.5513     2.9316    8 B    0 0 0
  48 C    1     2.1490     4.0610   20 H    0-1 0
  48 C    1     2.1493     4.0616   16 H    0 0 0
  48 C    1     2.4250     4.5825   40 C    0 0 0

  49 C    1     1.4020     2.6494   51 C    1 0 0
  49 C    1     1.4021     2.6495   55 C    0 0 0
  49 C    1     1.5503     2.9297    1 B    1 0 0
  49 C    1     2.1469     4.0571   21 H    1 0 0
  49 C    1     2.1475     4.0581   25 H    0 0 0
  49 C    1     2.4246     4.5818   53 C    0 0 0

  50 C    1     1.4020     2.6494   52 C    1 0 0
  50 C    1     1.4021     2.6495   56 C    0 0 0
  50 C    1     1.5503     2.9297    2 B    1 1 0
  50 C    1     2.1469     4.0571   22 H    1 0 0
  50 C    1     2.1475     4.0581   26 H    0 0 0
  50 C    1     2.4246     4.5818   54 C    0 0 0

  51 C    1     1.0913     2.0623   21 H    0 0 0
  51 C    1     1.3914     2.6293   57 C    0 0 0
  51 C    1     1.4020     2.6494   49 C   -1 0 0
  51 C    1     2.1666     4.0942   27 H    0 0 0
  51 C    1     2.4175     4.5684   55 C   -1 0 0
  51 C    1     2.4251     4.5828   59 C   -1 0 0

  52 C    1     1.0913     2.0623   22 H    0 0 0
  52 C    1     1.3914     2.6293   58 C    0 0 0
  52 C    1     1.4020     2.6494   50 C   -1 0 0
  52 C    1     2.1666     4.0942   28 H    0 0 0
  52 C    1     2.4175     4.5684   56 C   -1 0 0
  52 C    1     2.4251     4.5828   60 C   -1 0 0

  53 C    1     1.0914     2.0625   23 H    0 0 0
  53 C    1     1.3915     2.6295   55 C    0 0 0
  53 C    1     1.4026     2.6505   59 C    0 0 0
  53 C    1     2.1679     4.0967   25 H    0 0 0
  53 C    1     2.4179     4.5691   57 C    1 0 0
  53 C    1     2.4246     4.5818   49 C    0 0 0

  54 C    1     1.0914     2.0625   24 H    0 0 0
  54 C    1     1.3915     2.6295   56 C    0 0 0
  54 C    1     1.4026     2.6505   60 C    0 0 0
  54 C    1     2.1679     4.0967   26 H    0 0 0
  54 C    1     2.4179     4.5691   58 C    1 0 0
  54 C    1     2.4246     4.5818   50 C    0 0 0

  55 C    1     1.0914     2.0624   25 H    0 0 0
  55 C    1     1.3915     2.6295   53 C    0 0 0
  55 C    1     1.4021     2.6495   49 C    0 0 0
  55 C    1     2.1664     4.0939   23 H    0 0 0
  55 C    1     2.4175     4.5684   51 C    1 0 0
  55 C    1     2.4253     4.5832   59 C    0 0 0

  56 C    1     1.0914     2.0624   26 H    0 0 0
  56 C    1     1.3915     2.6295   54 C    0 0 0
  56 C    1     1.4021     2.6495   50 C    0 0 0
  56 C    1     2.1664     4.0939   24 H    0 0 0
  56 C    1     2.4175     4.5684   52 C    1 0 0
  56 C    1     2.4253     4.5832   60 C    0 0 0

  57 C    1     1.0914     2.0625   27 H    0 0 0
  57 C    1     1.3914     2.6293   51 C    0 0 0
  57 C    1     1.4025     2.6504   59 C   -1 0 0
  57 C    1     2.1680     4.0968   21 H    0 0 0
  57 C    1     2.4179     4.5691   53 C   -1 0 0
  57 C    1     2.4247     4.5819   49 C   -1 0 0

  58 C    1     1.0914     2.0625   28 H    0 0 0
  58 C    1     1.3914     2.6293   52 C    0 0 0
  58 C    1     1.4025     2.6504   60 C   -1 0 0
  58 C    1     2.1680     4.0968   22 H    0 0 0
  58 C    1     2.4179     4.5691   54 C   -1 0 0
  58 C    1     2.4247     4.5819   50 C   -1 0 0

  59 C    1     1.4025     2.6504   57 C    1 0 0
  59 C    1     1.4026     2.6505   53 C    0 0 0
  59 C    1     1.5516     2.9322   11 B    0 0 0
  59 C    1     2.1491     4.0612   27 H    1 0 0
  59 C    1     2.1493     4.0617   23 H    0 0 0
  59 C    1     2.4251     4.5828   51 C    1 0 0

  60 C    1     1.4025     2.6504   58 C    1 0 0
  60 C    1     1.4026     2.6505   54 C    0 0 0
  60 C    1     1.5516     2.9322   12 B    0 0 0
  60 C    1     2.1491     4.0612   28 H    1 0 0
  60 C    1     2.1493     4.0617   24 H    0 0 0
  60 C    1     2.4251     4.5828   52 C    1 0 0

  61 C    1     1.4021     2.6496   63 C    1 1 0
  61 C    1     1.4021     2.6497   67 C    0 0 0
  61 C    1     1.5502     2.9294    5 B    1 1 0
  61 C    1     2.1475     4.0582   29 H    1 1 0
  61 C    1     2.1479     4.0589   33 H    0 0 0
  61 C    1     2.4244     4.5814   65 C    0 0 0

  62 C    1     1.4021     2.6496   64 C    0 0 0
  62 C    1     1.4021     2.6497   68 C    0 0 0
  62 C    1     1.5502     2.9294    6 B    0 0 0
  62 C    1     2.1475     4.0582   30 H    0 0 0
  62 C    1     2.1479     4.0589   34 H   -1-1 0
  62 C    1     2.4244     4.5814   66 C    0 0 0

  63 C    1     1.0914     2.0624   29 H    0 0 0
  63 C    1     1.3914     2.6293   69 C    0 0 0
  63 C    1     1.4021     2.6496   61 C   -1-1 0
  63 C    1     2.1668     4.0947   35 H    0 0 0
  63 C    1     2.4179     4.5692   67 C   -1-1 0
  63 C    1     2.4251     4.5827   71 C   -1-1 0

  64 C    1     1.0914     2.0624   30 H    0 0 0
  64 C    1     1.3914     2.6293   70 C    0 0 0
  64 C    1     1.4021     2.6496   62 C    0 0 0
  64 C    1     2.1668     4.0947   36 H    0 0 0
  64 C    1     2.4179     4.5692   68 C    0 0 0
  64 C    1     2.4251     4.5827   72 C    0 0 0

  65 C    1     1.0913     2.0623   31 H    0 0 0
  65 C    1     1.3914     2.6294   67 C    0 0 0
  65 C    1     1.4025     2.6504   71 C    0 0 0
  65 C    1     2.1679     4.0968   33 H    0 0 0
  65 C    1     2.4178     4.5690   69 C    1 1 0
  65 C    1     2.4244     4.5814   61 C    0 0 0

  66 C    1     1.0913     2.0623   32 H   -1-1 0
  66 C    1     1.3914     2.6294   68 C    0 0 0
  66 C    1     1.4025     2.6504   72 C    0 0 0
  66 C    1     2.1679     4.0968   34 H   -1-1 0
  66 C    1     2.4178     4.5690   70 C    0 0 0
  66 C    1     2.4244     4.5814   62 C    0 0 0

  67 C    1     1.0915     2.0626   33 H    0 0 0
  67 C    1     1.3914     2.6294   65 C    0 0 0
  67 C    1     1.4021     2.6497   61 C    0 0 0
  67 C    1     2.1667     4.0945   31 H    0 0 0
  67 C    1     2.4179     4.5692   63 C    1 1 0
  67 C    1     2.4253     4.5832   71 C    0 0 0

  68 C    1     1.0915     2.0626   34 H   -1-1 0
  68 C    1     1.3914     2.6294   66 C    0 0 0
  68 C    1     1.4021     2.6497   62 C    0 0 0
  68 C    1     2.1667     4.0945   32 H   -1-1 0
  68 C    1     2.4179     4.5692   64 C    0 0 0
  68 C    1     2.4253     4.5832   72 C    0 0 0

  69 C    1     1.0914     2.0624   35 H    0 0 0
  69 C    1     1.3914     2.6293   63 C    0 0 0
  69 C    1     1.4025     2.6503   71 C   -1-1 0
  69 C    1     2.1678     4.0966   29 H    0 0 0
  69 C    1     2.4178     4.5690   65 C   -1-1 0
  69 C    1     2.4245     4.5817   61 C   -1-1 0

  70 C    1     1.0914     2.0624   36 H    0 0 0
  70 C    1     1.3914     2.6293   64 C    0 0 0
  70 C    1     1.4025     2.6503   72 C    0 0 0
  70 C    1     2.1678     4.0966   30 H    0 0 0
  70 C    1     2.4178     4.5690   66 C    0 0 0
  70 C    1     2.4245     4.5817   62 C    0 0 0

  71 C    1     1.4025     2.6503   69 C    1 1 0
  71 C    1     1.4025     2.6504   65 C    0 0 0
  71 C    1     1.5516     2.9322    9 B    0 0 0
  71 C    1     2.1486     4.0602   35 H    1 1 0
  71 C    1     2.1487     4.0605   31 H    0 0 0
  71 C    1     2.4251     4.5827   63 C    1 1 0

  72 C    1     1.4025     2.6503   70 C    0 0 0
  72 C    1     1.4025     2.6504   66 C    0 0 0
  72 C    1     1.5516     2.9322   10 B    0 0 0
  72 C    1     2.1486     4.0602   36 H    0 0 0
  72 C    1     2.1487     4.0605   32 H   -1-1 0
  72 C    1     2.4251     4.5827   64 C    0 0 0

  73 O    1     1.3791     2.6061    1 B    1 0 0
  73 O    1     1.3791     2.6061    5 B    1 1 0
  73 O    1     2.3880     4.5126   75 O    1 0 0
  73 O    1     2.3882     4.5130   77 O    1 1 0
  73 O    1     2.5383     4.7966   61 C    0 0 0
  73 O    1     2.5384     4.7968   49 C    0 0 0

  74 O    1     1.3791     2.6061    2 B    0 0 0
  74 O    1     1.3791     2.6061    6 B    0 0 0
  74 O    1     2.3880     4.5126   76 O    0 0 0
  74 O    1     2.3882     4.5130   78 O    0 0 0
  74 O    1     2.5383     4.7966   62 C    0 0 0
  74 O    1     2.5384     4.7968   50 C   -1-1 0

  75 O    1     1.3793     2.6065    1 B    0 0 0
  75 O    1     1.3793     2.6065    3 B    0 0 0
  75 O    1     2.3880     4.5126   73 O   -1 0 0
  75 O    1     2.3882     4.5131   77 O    0 1 0
  75 O    1     2.5391     4.7981   37 C    0 0 0
  75 O    1     2.5395     4.7990   49 C   -1 0 0

  76 O    1     1.3793     2.6065    2 B    0 0 0
  76 O    1     1.3793     2.6065    4 B    0 0 0
  76 O    1     2.3880     4.5126   74 O    0 0 0
  76 O    1     2.3882     4.5131   78 O    0 0 0
  76 O    1     2.5391     4.7981   38 C    0 0 0
  76 O    1     2.5395     4.7990   50 C   -1-1 0

  77 O    1     1.3793     2.6064    5 B    0 0 0
  77 O    1     1.3793     2.6065    3 B    0-1 0
  77 O    1     2.3882     4.5130   73 O   -1-1 0
  77 O    1     2.3882     4.5131   75 O    0-1 0
  77 O    1     2.5390     4.7980   37 C    0-1 0
  77 O    1     2.5391     4.7982   61 C   -1-1 0

  78 O    1     1.3793     2.6064    6 B    0 0 0
  78 O    1     1.3793     2.6065    4 B    0 0 0
  78 O    1     2.3882     4.5130   74 O    0 0 0
  78 O    1     2.3882     4.5131   76 O    0 0 0
  78 O    1     2.5390     4.7980   38 C    0 0 0
  78 O    1     2.5391     4.7982   62 C    0 0 0

  79 O    1     1.3795     2.6068   11 B    0 0 0
  79 O    1     1.3795     2.6068    7 B    0 0 0
  79 O    1     2.3880     4.5126   83 O    1 0 0
  79 O    1     2.3884     4.5134   81 O    0-1 0
  79 O    1     2.5400     4.7998   47 C    0 0 0
  79 O    1     2.5403     4.8005   59 C    0 0 0

  80 O    1     1.3795     2.6068   12 B    0 0 0
  80 O    1     1.3795     2.6068    8 B    0 0 0
  80 O    1     2.3880     4.5126   84 O    1 0 0
  80 O    1     2.3884     4.5134   82 O    0 0 0
  80 O    1     2.5400     4.7998   48 C    0 0 0
  80 O    1     2.5403     4.8005   60 C    0 0 0

  81 O    1     1.3795     2.6069    9 B    0 0 0
  81 O    1     1.3795     2.6070    7 B    0 1 0
  81 O    1     2.3881     4.5128   83 O    1 1 0
  81 O    1     2.3884     4.5134   79 O    0 1 0
  81 O    1     2.5404     4.8006   47 C    0 1 0
  81 O    1     2.5405     4.8008   71 C    0 0 0

  82 O    1     1.3795     2.6069   10 B    1 0 0
  82 O    1     1.3795     2.6070    8 B    0 0 0
  82 O    1     2.3881     4.5128   84 O    1 0 0
  82 O    1     2.3884     4.5134   80 O    0 0 0
  82 O    1     2.5404     4.8006   48 C    0 0 0
  82 O    1     2.5405     4.8008   72 C    1 0 0

  83 O    1     1.3796     2.6071   11 B   -1 0 0
  83 O    1     1.3797     2.6072    9 B   -1-1 0
  83 O    1     2.3880     4.5126   79 O   -1 0 0
  83 O    1     2.3881     4.5128   81 O   -1-1 0
  83 O    1     2.5409     4.8016   71 C   -1-1 0
  83 O    1     2.5410     4.8019   59 C   -1 0 0

  84 O    1     1.3796     2.6071   12 B   -1 0 0
  84 O    1     1.3797     2.6072   10 B    0 0 0
  84 O    1     2.3880     4.5126   80 O   -1 0 0
  84 O    1     2.3881     4.5128   82 O   -1 0 0
  84 O    1     2.5409     4.8016   72 C    0 0 0
  84 O    1     2.5410     4.8019   60 C   -1 0 0


 SYMMETRY ALLOWED INTERNAL DEGREE(S) OF FREEDOM: 249
 TTTTTTTTTTTTTTTTTTTTTTTTTTTTTT SYMM        TELAPSE        2.74 TCPU        2.74
 TTTTTTTTTTTTTTTTTTTTTTTTTTTTTT INT_SCREEN  TELAPSE        2.95 TCPU        2.94

 DFT PARAMETERS

     ATOM       ELECTRONS   NET CHARGE   R(ANGSTROM)
   1   5  B       5.0000      0.0000     0.89000000
  13   1  H       1.0000      0.0000     1.11000000
  37   6  C       6.0000      0.0000     0.77000000
  73   8  O       8.0000      0.0000     0.74000000

 SIZE OF GRID=    2656664
 TTTTTTTTTTTTTTTTTTTTTTTTTTTTTT MAKE_GRID2  TELAPSE       21.32 TCPU       21.29
 BECKE WEIGHT FUNCTION
 RADSAFE =     2.00
 TOLERANCES - DENSITY:10**- 6; POTENTIAL:10**- 9; GRID WGT:10**-14

 RADIAL INTEGRATION  - INTERVALS (POINTS,UPPER LIMIT):            1( 75,  4.0*R)

 ANGULAR INTEGRATION - INTERVALS (ACCURACY LEVEL [N. POINTS] UPPER LIMIT):
  1(  4[  86]   0.2)  2(  8[ 194]   0.5)  3( 12[ 350]   0.9)  4( 16[ 974]   3.5)
  5( 12[ 350]9999.0)
 TTTTTTTTTTTTTTTTTTTTTTTTTTTTTT INT_CALC    TELAPSE       21.56 TCPU       21.53
 EEEEEEEEEE INT_CALC TERMINATION  DATE 19 02 2026 TIME 20:28:15.9

 *******************************************************************************
 cof-1_z43_L020_serr                                                             
 CRYSTAL - SCF - TYPE OF CALCULATION :  RESTRICTED CLOSED SHELL
 *******************************************************************************

 CAPPA:IS1  2;IS2  2;IS3  8; K PTS MONK NET  20; SYMMOPS:K SPACE   2;G SPACE   1

 TTTTTTTTTTTTTTTTTTTTTTTTTTTTTT SDIK        TELAPSE       23.66 TCPU       52.76

 AAAAAAAAAAAAAAAAAAAAAAAAAAAAAAAAAAAAAAAAAAAAAAAAAAAAAAAAAAAAAAAAAAAAAAAAAAAAAAA
         ATOMIC WAVEFUNCTION(S)


 NUCLEAR CHARGE  5.0  SYMMETRY SPECIES            S    P
 N. ELECTRONS    5.0  NUMBER OF PRIMITIVE GTOS    8    4
                      NUMBER OF CONTRACTED GTOS   4    2
                      NUMBER OF CLOSED SHELLS     2    0
                      OPEN SHELL OCCUPATION       0    1

  ZNUC  SCFIT    TOTAL HF ENERGY   KINETIC ENERGY   VIRIAL THEOREM ACCURACY
   5.0    11    -2.451164084E+01  2.462155050E+01 -1.995536038E+00  1.5E-06

 NUCLEAR CHARGE  1.0  SYMMETRY SPECIES            S
 N. ELECTRONS    1.0  NUMBER OF PRIMITIVE GTOS    4
                      NUMBER OF CONTRACTED GTOS   2
                      NUMBER OF CLOSED SHELLS     0
                      OPEN SHELL OCCUPATION       1

  ZNUC  SCFIT    TOTAL HF ENERGY   KINETIC ENERGY   VIRIAL THEOREM ACCURACY
   1.0     1    -4.977266687E-01  5.190767460E-01 -1.958869132E+00  0.0E+00

 NUCLEAR CHARGE  6.0  SYMMETRY SPECIES            S    P
 N. ELECTRONS    6.0  NUMBER OF PRIMITIVE GTOS    8    4
                      NUMBER OF CONTRACTED GTOS   4    2
                      NUMBER OF CLOSED SHELLS     2    0
                      OPEN SHELL OCCUPATION       0    2

  ZNUC  SCFIT    TOTAL HF ENERGY   KINETIC ENERGY   VIRIAL THEOREM ACCURACY
   6.0     9    -3.766704647E+01  3.775180683E+01 -1.997754800E+00  1.1E-06

 NUCLEAR CHARGE  8.0  SYMMETRY SPECIES            S    P
 N. ELECTRONS    8.0  NUMBER OF PRIMITIVE GTOS    8    4
                      NUMBER OF CONTRACTED GTOS   4    2
                      NUMBER OF CLOSED SHELLS     2    0
                      OPEN SHELL OCCUPATION       0    4

  ZNUC  SCFIT    TOTAL HF ENERGY   KINETIC ENERGY   VIRIAL THEOREM ACCURACY
   8.0    12    -7.477373220E+01  7.477365593E+01 -2.000001020E+00  3.8E-06

 AAAAAAAAAAAAAAAAAAAAAAAAAAAAAAAAAAAAAAAAAAAAAAAAAAAAAAAAAAAAAAAAAAAAAAAAAAAAAAA

 CHARGE NORMALIZATION FACTOR   1.00000000
 TOTAL ATOMIC CHARGES:
   5.0000000   5.0000000   5.0000000   5.0000000   5.0000000   5.0000000
   5.0000000   5.0000000   5.0000000   5.0000000   5.0000000   5.0000000
   1.0000000   1.0000000   1.0000000   1.0000000   1.0000000   1.0000000
   1.0000000   1.0000000   1.0000000   1.0000000   1.0000000   1.0000000
   1.0000000   1.0000000   1.0000000   1.0000000   1.0000000   1.0000000
   1.0000000   1.0000000   1.0000000   1.0000000   1.0000000   1.0000000
   6.0000000   6.0000000   6.0000000   6.0000000   6.0000000   6.0000000
   6.0000000   6.0000000   6.0000000   6.0000000   6.0000000   6.0000000
   6.0000000   6.0000000   6.0000000   6.0000000   6.0000000   6.0000000
   6.0000000   6.0000000   6.0000000   6.0000000   6.0000000   6.0000000
   6.0000000   6.0000000   6.0000000   6.0000000   6.0000000   6.0000000
   6.0000000   6.0000000   6.0000000   6.0000000   6.0000000   6.0000000
   8.0000000   8.0000000   8.0000000   8.0000000   8.0000000   8.0000000
   8.0000000   8.0000000   8.0000000   8.0000000   8.0000000   8.0000000
 TTTTTTTTTTTTTTTTTTTTTTTTTTTTTT MOQGAD      TELAPSE       23.76 TCPU       55.74
 TTTTTTTTTTTTTTTTTTTTTTTTTTTTTT SHELLXN     TELAPSE       38.90 TCPU      539.04
 TTTTTTTTTTTTTTTTTTTTTTTTTTTTTT MONMO3      TELAPSE       39.49 TCPU      557.69
 NUMERICALLY INTEGRATED DENSITY    395.9999785526
 TTTTTTTTTTTTTTTTTTTTTTTTTTTTTT NUMDFT      TELAPSE       41.08 TCPU      608.59
 CYC   0 ETOT(AU) -2.591909689767E+03 DETOT -2.59E+03 tst  0.00E+00 PX  1.00E+00
 TTTTTTTTTTTTTTTTTTTTTTTTTTTTTT DIIS        TELAPSE       41.25 TCPU      613.97
 TTTTTTTTTTTTTTTTTTTTTTTTTTTTTT FDIK        TELAPSE       43.70 TCPU      691.87
 INSULATING STATE
 TOP OF VALENCE BANDS -    BAND    198; K    1; EIG -3.1290835E-01 AU
 BOTTOM OF VIRTUAL BANDS - BAND    199; K    1; EIG -1.5659464E-01 AU
 DIRECT ENERGY BAND GAP:   4.2535 eV
 TTTTTTTTTTTTTTTTTTTTTTTTTTTTTT PDIG        TELAPSE       45.35 TCPU      698.57
 CHARGE NORMALIZATION FACTOR   1.00000000
 TOTAL ATOMIC CHARGES:
   4.1678262   4.1556594   4.1609755   4.1651854   4.1612075   4.1654496
   4.1650317   4.1608222   4.1648192   4.1605955   4.1553026   4.1674467
   0.7851773   0.7852165   0.7853316   0.7852927   0.7852886   0.7850586
   0.7851779   0.7854083   0.7851345   0.7853725   0.7855373   0.7853008
   0.7851230   0.7853631   0.7855006   0.7852628   0.7852928   0.7850611
   0.7852429   0.7854745   0.7851294   0.7851684   0.7853251   0.7852858
   6.0437550   6.0435748   6.2658161   6.2653178   6.2652830   6.2657806
   6.2652821   6.2650670   6.2650122   6.2652258   6.0428462   6.0430203
   6.0425503   6.0454152   6.2652058   6.2655709   6.2656456   6.2652847
   6.2651258   6.2654785   6.2656599   6.2653113   6.0441902   6.0413426
   6.0441186   6.0439359   6.2650383   6.2648297   6.2653739   6.2655816
   6.2654492   6.2649446   6.2655575   6.2660597   6.0423882   6.0425633
   8.6923253   8.6931387   8.6924351   8.6932460   8.6938046   8.6910047
   8.6935640   8.6927536   8.6914099   8.6942045   8.6937363   8.6929275
 TTTTTTTTTTTTTTTTTTTTTTTTTTTTTT MOQGAD      TELAPSE       45.44 TCPU      698.66
 TTTTTTTTTTTTTTTTTTTTTTTTTTTTTT SHELLXN     TELAPSE       61.79 TCPU     1219.85
 TTTTTTTTTTTTTTTTTTTTTTTTTTTTTT MONMO3      TELAPSE       62.39 TCPU     1238.83
 NUMERICALLY INTEGRATED DENSITY    396.0000032304
 TTTTTTTTTTTTTTTTTTTTTTTTTTTTTT NUMDFT      TELAPSE       64.01 TCPU     1290.63
 CYC   1 ETOT(AU) -2.577622635302E+03 DETOT  1.43E+01 tst  0.00E+00 PX  1.00E+00
 TTTTTTTTTTTTTTTTTTTTTTTTTTTTTT DIIS        TELAPSE       64.25 TCPU     1297.78
 DIIS TEST: 0.22398E+01 AT SCF   CYCLE   1 - MIX   30 %
 TTTTTTTTTTTTTTTTTTTTTTTTTTTTTT FDIK        TELAPSE       66.64 TCPU     1374.02
 INSULATING STATE
 TOP OF VALENCE BANDS -    BAND    198; K    1; EIG -2.2293984E-01 AU
 BOTTOM OF VIRTUAL BANDS - BAND    199; K    1; EIG -7.8039531E-02 AU
 DIRECT ENERGY BAND GAP:   3.9429 eV
 TTTTTTTTTTTTTTTTTTTTTTTTTTTTTT PDIG        TELAPSE       68.30 TCPU     1380.73
 CHARGE NORMALIZATION FACTOR   1.00000000
 TOTAL ATOMIC CHARGES:
   4.6905484   4.7221666   4.7138722   4.7039537   4.7138385   4.7039688
   4.7042226   4.7141484   4.7042040   4.7141161   4.7224399   4.6907764
   0.9136371   0.9132577   0.9133451   0.9136710   0.9157939   0.9163436
   0.9163865   0.9158069   0.9152511   0.9099113   0.9099329   0.9153720
   0.9152423   0.9098947   0.9099199   0.9153459   0.9157784   0.9163299
   0.9164632   0.9158726   0.9135708   0.9131917   0.9133551   0.9136627
   5.8709696   5.8563100   6.1412466   6.1046749   6.1051746   6.1417219
   6.1315627   6.1407815   6.1414253   6.1323337   5.8590403   5.8737555
   5.8402840   5.8937806   6.1231196   6.1405346   6.1413550   6.1238161
   6.1233385   6.1407442   6.1412446   6.1236902   5.8971448   5.8435797
   5.8709672   5.8562920   6.1316357   6.1408593   6.1412621   6.1321903
   6.1414276   6.1048708   6.1049149   6.1414405   5.8592388   5.8740013
   8.3324058   8.3343615   8.3327796   8.3347126   8.3461117   8.3369548
   8.3342445   8.3322504   8.3366503   8.3459285   8.3346535   8.3326263
 TTTTTTTTTTTTTTTTTTTTTTTTTTTTTT MOQGAD      TELAPSE       68.39 TCPU     1380.82
 TTTTTTTTTTTTTTTTTTTTTTTTTTTTTT SHELLXN     TELAPSE       84.74 TCPU     1901.13
 TTTTTTTTTTTTTTTTTTTTTTTTTTTTTT MONMO3      TELAPSE       85.32 TCPU     1919.92
 NUMERICALLY INTEGRATED DENSITY    396.0000026449
 TTTTTTTTTTTTTTTTTTTTTTTTTTTTTT NUMDFT      TELAPSE       86.91 TCPU     1970.54
 CYC   2 ETOT(AU) -2.578012587693E+03 DETOT -3.90E-01 tst  4.39E-03 PX  1.58E-01
 TTTTTTTTTTTTTTTTTTTTTTTTTTTTTT DIIS        TELAPSE       87.17 TCPU     1977.15
 DIIS TEST: 0.93739E+00 AT SCF   CYCLE   2 - DIIS ACTIVE - HISTORY:     2 CYCLES
 TTTTTTTTTTTTTTTTTTTTTTTTTTTTTT FDIK        TELAPSE       89.67 TCPU     2056.48
 INSULATING STATE
 TOP OF VALENCE BANDS -    BAND    198; K    1; EIG -2.3619488E-01 AU
 BOTTOM OF VIRTUAL BANDS - BAND    199; K    1; EIG -7.3671555E-02 AU
 DIRECT ENERGY BAND GAP:   4.4225 eV
 TTTTTTTTTTTTTTTTTTTTTTTTTTTTTT PDIG        TELAPSE       91.32 TCPU     2063.13
 CHARGE NORMALIZATION FACTOR   1.00000000
 TOTAL ATOMIC CHARGES:
   4.4946294   4.5045897   4.5017245   4.5004001   4.5018104   4.5004964
   4.5000059   4.5012602   4.4998440   4.5010799   4.5039750   4.4940353
   0.8930489   0.8850401   0.8850908   0.8932682   0.8896991   0.8931350
   0.8932588   0.8897896   0.8887974   0.8889128   0.8892356   0.8889369
   0.8888389   0.8889577   0.8891710   0.8888643   0.8896909   0.8931351
   0.8933163   0.8898421   0.8930348   0.8850335   0.8850450   0.8932136
   5.8830923   5.8956354   6.1540734   6.1659011   6.1653278   6.1535129
   6.1629503   6.1568278   6.1561909   6.1620776   5.8944346   5.8818665
   5.9069236   5.8827671   6.1643571   6.1545003   6.1538054   6.1638601
   6.1644060   6.1545286   6.1537411   6.1638094   5.8810703   5.9055301
   5.8834706   5.8959877   6.1628994   6.1567611   6.1563319   6.1622018
   6.1538984   6.1657862   6.1653478   6.1535153   5.8941423   5.8815893
   8.5117472   8.5102472   8.5119089   8.5103944   8.5098155   8.5087704
   8.5103569   8.5119761   8.5089349   8.5097921   8.5105529   8.5121748
 TTTTTTTTTTTTTTTTTTTTTTTTTTTTTT MOQGAD      TELAPSE       91.41 TCPU     2063.22
 TTTTTTTTTTTTTTTTTTTTTTTTTTTTTT SHELLXN     TELAPSE      107.68 TCPU     2581.50
 TTTTTTTTTTTTTTTTTTTTTTTTTTTTTT MONMO3      TELAPSE      108.26 TCPU     2600.16
 NUMERICALLY INTEGRATED DENSITY    396.0000030703
 TTTTTTTTTTTTTTTTTTTTTTTTTTTTTT NUMDFT      TELAPSE      109.88 TCPU     2651.70
 CYC   3 ETOT(AU) -2.578206152158E+03 DETOT -1.94E-01 tst  7.12E-04 PX  6.37E-02
 TTTTTTTTTTTTTTTTTTTTTTTTTTTTTT DIIS        TELAPSE      110.09 TCPU     2658.45
 DIIS TEST: 0.27606E-01 AT SCF   CYCLE   3 - DIIS ACTIVE - HISTORY:     3 CYCLES
 TTTTTTTTTTTTTTTTTTTTTTTTTTTTTT FDIK        TELAPSE      112.51 TCPU     2735.68
 INSULATING STATE
 TOP OF VALENCE BANDS -    BAND    198; K    1; EIG -2.4653801E-01 AU
 BOTTOM OF VIRTUAL BANDS - BAND    199; K    1; EIG -8.2669617E-02 AU
 DIRECT ENERGY BAND GAP:   4.4591 eV
 TTTTTTTTTTTTTTTTTTTTTTTTTTTTTT PDIG        TELAPSE      114.16 TCPU     2742.38
 CHARGE NORMALIZATION FACTOR   1.00000000
 TOTAL ATOMIC CHARGES:
   4.4986208   4.5144557   4.5089817   4.5036585   4.5090636   4.5037446
   4.5038799   4.5091536   4.5037199   4.5089869   4.5144820   4.4986716
   0.8722583   0.8735796   0.8736973   0.8722486   0.8744996   0.8742942
   0.8743282   0.8744806   0.8745890   0.8694896   0.8694476   0.8747702
   0.8746147   0.8695098   0.8693982   0.8747153   0.8745053   0.8742970
   0.8743917   0.8745231   0.8722287   0.8735526   0.8736678   0.8722020
   5.9450514   5.9273108   6.1732710   6.1452729   6.1461364   6.1739949
   6.1653720   6.1692875   6.1704170   6.1668794   5.9307383   5.9485810
   5.9119859   5.9673297   6.1542010   6.1740764   6.1753752   6.1552151
   6.1542060   6.1740954   6.1753745   6.1552010   5.9711088   5.9155858
   5.9451460   5.9273836   6.1652813   6.1692190   6.1704895   6.1669848
   6.1731036   6.1451517   6.1461863   6.1740040   5.9307628   5.9486478
   8.4762608   8.4794053   8.4765438   8.4796614   8.4884908   8.4787561
   8.4795551   8.4762677   8.4786600   8.4887670   8.4799080   8.4765884
 TTTTTTTTTTTTTTTTTTTTTTTTTTTTTT MOQGAD      TELAPSE      114.26 TCPU     2742.47
 TTTTTTTTTTTTTTTTTTTTTTTTTTTTTT SHELLXN     TELAPSE      130.61 TCPU     3263.35
 TTTTTTTTTTTTTTTTTTTTTTTTTTTTTT MONMO3      TELAPSE      131.19 TCPU     3282.00
 NUMERICALLY INTEGRATED DENSITY    396.0000030951
 TTTTTTTTTTTTTTTTTTTTTTTTTTTTTT NUMDFT      TELAPSE      132.80 TCPU     3333.31
 CYC   4 ETOT(AU) -2.578211474906E+03 DETOT -5.32E-03 tst  3.86E-05 PX  2.04E-02
 TTTTTTTTTTTTTTTTTTTTTTTTTTTTTT DIIS        TELAPSE      133.08 TCPU     3340.10
 DIIS TEST: 0.99129E-02 AT SCF   CYCLE   4 - DIIS ACTIVE - HISTORY:     4 CYCLES
 TTTTTTTTTTTTTTTTTTTTTTTTTTTTTT FDIK        TELAPSE      135.54 TCPU     3418.29
 INSULATING STATE
 TOP OF VALENCE BANDS -    BAND    198; K    1; EIG -2.4525412E-01 AU
 BOTTOM OF VIRTUAL BANDS - BAND    199; K    1; EIG -8.2109229E-02 AU
 DIRECT ENERGY BAND GAP:   4.4394 eV
 TTTTTTTTTTTTTTTTTTTTTTTTTTTTTT PDIG        TELAPSE      137.19 TCPU     3424.93
 CHARGE NORMALIZATION FACTOR   1.00000000
 TOTAL ATOMIC CHARGES:
   4.4980333   4.5164051   4.5110413   4.5062587   4.5111166   4.5063461
   4.5060629   4.5108137   4.5059099   4.5106546   4.5160589   4.4976685
   0.8773414   0.8733456   0.8734286   0.8775674   0.8767725   0.8778835
   0.8780478   0.8769120   0.8751547   0.8738645   0.8741806   0.8753138
   0.8751757   0.8738877   0.8741328   0.8752586   0.8767637   0.8778802
   0.8781135   0.8769684   0.8773040   0.8733151   0.8734023   0.8775297
   5.9188620   5.9227127   6.1657799   6.1592938   6.1586639   6.1652067
   6.1679359   6.1688465   6.1680479   6.1668377   5.9212543   5.9174146
   5.9243901   5.9255170   6.1674115   6.1652662   6.1645617   6.1668941
   6.1675128   6.1653352   6.1644769   6.1668040   5.9239209   5.9230427
   5.9191588   5.9229878   6.1678991   6.1688052   6.1681238   6.1669078
   6.1656823   6.1592534   6.1586258   6.1651391   5.9210707   5.9172531
   8.4876433   8.4870918   8.4878453   8.4872761   8.4909585   8.4877030
   8.4870759   8.4877788   8.4877295   8.4907465   8.4873251   8.4880162
 TTTTTTTTTTTTTTTTTTTTTTTTTTTTTT MOQGAD      TELAPSE      137.28 TCPU     3425.02
 TTTTTTTTTTTTTTTTTTTTTTTTTTTTTT SHELLXN     TELAPSE      153.63 TCPU     3945.79
 TTTTTTTTTTTTTTTTTTTTTTTTTTTTTT MONMO3      TELAPSE      154.22 TCPU     3964.64
 NUMERICALLY INTEGRATED DENSITY    396.0000032082
 TTTTTTTTTTTTTTTTTTTTTTTTTTTTTT NUMDFT      TELAPSE      155.81 TCPU     4015.21
 CYC   5 ETOT(AU) -2.578213751083E+03 DETOT -2.28E-03 tst  1.86E-05 PX  1.13E-02
 TTTTTTTTTTTTTTTTTTTTTTTTTTTTTT DIIS        TELAPSE      156.15 TCPU     4021.93
 DIIS TEST: 0.48717E-03 AT SCF   CYCLE   5 - DIIS ACTIVE - HISTORY:     5 CYCLES
 TTTTTTTTTTTTTTTTTTTTTTTTTTTTTT FDIK        TELAPSE      158.54 TCPU     4097.87
 INSULATING STATE
 TOP OF VALENCE BANDS -    BAND    198; K    1; EIG -2.4445634E-01 AU
 BOTTOM OF VIRTUAL BANDS - BAND    199; K    1; EIG -8.1550435E-02 AU
 DIRECT ENERGY BAND GAP:   4.4329 eV
 TTTTTTTTTTTTTTTTTTTTTTTTTTTTTT PDIG        TELAPSE      160.20 TCPU     4104.55
 CHARGE NORMALIZATION FACTOR   1.00000000
 TOTAL ATOMIC CHARGES:
   4.4992396   4.5155140   4.5104986   4.5060530   4.5105785   4.5061390
   4.5061778   4.5105437   4.5060222   4.5103802   4.5154200   4.4991804
   0.8779341   0.8752927   0.8753973   0.8779392   0.8779339   0.8793903
   0.8794061   0.8779029   0.8778729   0.8745585   0.8745561   0.8780490
   0.8779046   0.8745867   0.8745011   0.8779878   0.8779349   0.8793907
   0.8794686   0.8779487   0.8779084   0.8752704   0.8753648   0.8778906
   5.9195627   5.9133647   6.1680365   6.1549380   6.1557284   6.1686837
   6.1660140   6.1660214   6.1671977   6.1675729   5.9166875   5.9229438
   5.9079156   5.9332966   6.1594617   6.1687759   6.1699277   6.1603749
   6.1594542   6.1687757   6.1699286   6.1603725   5.9365756   5.9110829
   5.9197437   5.9135238   6.1659384   6.1659573   6.1672966   6.1676878
   6.1678464   6.1548015   6.1557808   6.1687056   5.9166144   5.9229031
   8.4878071   8.4888414   8.4880556   8.4890668   8.4939744   8.4879158
   8.4890509   8.4878671   8.4879267   8.4943583   8.4893540   8.4881516
 TTTTTTTTTTTTTTTTTTTTTTTTTTTTTT MOQGAD      TELAPSE      160.29 TCPU     4104.64
 TTTTTTTTTTTTTTTTTTTTTTTTTTTTTT SHELLXN     TELAPSE      176.46 TCPU     4619.89
 TTTTTTTTTTTTTTTTTTTTTTTTTTTTTT MONMO3      TELAPSE      177.05 TCPU     4638.82
 NUMERICALLY INTEGRATED DENSITY    396.0000032388
 TTTTTTTTTTTTTTTTTTTTTTTTTTTTTT NUMDFT      TELAPSE      178.67 TCPU     4690.42
 CYC   6 ETOT(AU) -2.578213806323E+03 DETOT -5.52E-05 tst  5.03E-06 PX  3.88E-03
 TTTTTTTTTTTTTTTTTTTTTTTTTTTTTT DIIS        TELAPSE      179.00 TCPU     4697.22
 DIIS TEST: 0.29521E-03 AT SCF   CYCLE   6 - DIIS ACTIVE - HISTORY:     6 CYCLES
 TTTTTTTTTTTTTTTTTTTTTTTTTTTTTT FDIK        TELAPSE      181.43 TCPU     4774.46
 INSULATING STATE
 TOP OF VALENCE BANDS -    BAND    198; K    1; EIG -2.4468148E-01 AU
 BOTTOM OF VIRTUAL BANDS - BAND    199; K    1; EIG -8.1505518E-02 AU
 DIRECT ENERGY BAND GAP:   4.4402 eV
 TTTTTTTTTTTTTTTTTTTTTTTTTTTTTT PDIG        TELAPSE      183.07 TCPU     4781.16
 CHARGE NORMALIZATION FACTOR   1.00000000
 TOTAL ATOMIC CHARGES:
   4.4991169   4.5157207   4.5105931   4.5062174   4.5106719   4.5063040
   4.5060851   4.5104218   4.5059299   4.5102595   4.5154134   4.4988173
   0.8781258   0.8750378   0.8751234   0.8782930   0.8778923   0.8791997
   0.8793316   0.8779912   0.8772284   0.8746857   0.8749126   0.8773868
   0.8772534   0.8747101   0.8748629   0.8773301   0.8778886   0.8791995
   0.8793945   0.8780419   0.8780942   0.8750122   0.8750931   0.8782500
   5.9204341   5.9182028   6.1670431   6.1562596   6.1560046   6.1667914
   6.1666953   6.1674007   6.1670399   6.1661886   5.9179078   5.9201832
   5.9158316   5.9311317   6.1626488   6.1670776   6.1668706   6.1625167
   6.1627165   6.1671312   6.1668095   6.1624505   5.9308721   5.9157085
   5.9206805   5.9184261   6.1666348   6.1673437   6.1671305   6.1662851
   6.1669102   6.1561805   6.1560034   6.1667578   5.9177733   5.9200745
   8.4872878   8.4877478   8.4875077   8.4879480   8.4926691   8.4876513
   8.4877943   8.4874148   8.4876522   8.4925800   8.4880685   8.4876717
 TTTTTTTTTTTTTTTTTTTTTTTTTTTTTT MOQGAD      TELAPSE      183.17 TCPU     4781.25
 TTTTTTTTTTTTTTTTTTTTTTTTTTTTTT SHELLXN     TELAPSE      199.40 TCPU     5298.29
 TTTTTTTTTTTTTTTTTTTTTTTTTTTTTT MONMO3      TELAPSE      199.99 TCPU     5317.27
 NUMERICALLY INTEGRATED DENSITY    396.0000032146
 TTTTTTTTTTTTTTTTTTTTTTTTTTTTTT NUMDFT      TELAPSE      201.60 TCPU     5368.60
 CYC   7 ETOT(AU) -2.578213883713E+03 DETOT -7.74E-05 tst  1.17E-06 PX  1.80E-03
 TTTTTTTTTTTTTTTTTTTTTTTTTTTTTT DIIS        TELAPSE      201.96 TCPU     5375.62
 DIIS TEST: 0.64331E-05 AT SCF   CYCLE   7 - DIIS ACTIVE - HISTORY:     7 CYCLES
 TTTTTTTTTTTTTTTTTTTTTTTTTTTTTT FDIK        TELAPSE      204.42 TCPU     5453.76
 INSULATING STATE
 TOP OF VALENCE BANDS -    BAND    198; K    1; EIG -2.4469391E-01 AU
 BOTTOM OF VIRTUAL BANDS - BAND    199; K    1; EIG -8.1540483E-02 AU
 DIRECT ENERGY BAND GAP:   4.4396 eV
 TTTTTTTTTTTTTTTTTTTTTTTTTTTTTT PDIG        TELAPSE      206.06 TCPU     5460.47
 CHARGE NORMALIZATION FACTOR   1.00000000
 TOTAL ATOMIC CHARGES:
   4.4989644   4.5158325   4.5107037   4.5062120   4.5107821   4.5062985
   4.5061958   4.5106271   4.5060408   4.5104650   4.5156259   4.4987694
   0.8781488   0.8749471   0.8750417   0.8782496   0.8778713   0.8791886
   0.8792655   0.8779105   0.8771481   0.8747057   0.8748399   0.8773158
   0.8771753   0.8747324   0.8747878   0.8772570   0.8778679   0.8791874
   0.8793294   0.8779611   0.8781184   0.8749218   0.8750114   0.8782055
   5.9195194   5.9176142   6.1665980   6.1562563   6.1564258   6.1667114
   6.1663751   6.1669054   6.1672448   6.1668036   5.9188950   5.9208366
   5.9152960   5.9302163   6.1625321   6.1667383   6.1670839   6.1628272
   6.1625751   6.1667695   6.1670455   6.1627842   5.9313973   5.9165153
   5.9197527   5.9178263   6.1663177   6.1668521   6.1673320   6.1668969
   6.1664510   6.1561641   6.1564367   6.1666917   5.9187723   5.9207416
   8.4873730   8.4877600   8.4876013   8.4879675   8.4924580   8.4875618
   8.4878670   8.4874606   8.4875832   8.4925893   8.4881470   8.4877248
 TTTTTTTTTTTTTTTTTTTTTTTTTTTTTT MOQGAD      TELAPSE      206.16 TCPU     5460.56
 TTTTTTTTTTTTTTTTTTTTTTTTTTTTTT SHELLXN     TELAPSE      222.54 TCPU     5982.24
 TTTTTTTTTTTTTTTTTTTTTTTTTTTTTT MONMO3      TELAPSE      223.13 TCPU     6001.26
 NUMERICALLY INTEGRATED DENSITY    396.0000032143
 TTTTTTTTTTTTTTTTTTTTTTTTTTTTTT NUMDFT      TELAPSE      224.74 TCPU     6052.66
 CYC   8 ETOT(AU) -2.578213884541E+03 DETOT -8.28E-07 tst  3.40E-08 PX  2.42E-04
 TTTTTTTTTTTTTTTTTTTTTTTTTTTTTT DIIS        TELAPSE      225.10 TCPU     6059.55
 DIIS TEST: 0.22855E-05 AT SCF   CYCLE   8 - DIIS ACTIVE - HISTORY:     8 CYCLES
 TTTTTTTTTTTTTTTTTTTTTTTTTTTTTT FDIK        TELAPSE      227.55 TCPU     6137.28
 INSULATING STATE
 TOP OF VALENCE BANDS -    BAND    198; K    1; EIG -2.4469327E-01 AU
 BOTTOM OF VIRTUAL BANDS - BAND    199; K    1; EIG -8.1552576E-02 AU
 DIRECT ENERGY BAND GAP:   4.4393 eV
 TTTTTTTTTTTTTTTTTTTTTTTTTTTTTT PDIG        TELAPSE      229.19 TCPU     6143.95
 CHARGE NORMALIZATION FACTOR   1.00000000
 TOTAL ATOMIC CHARGES:
   4.4989806   4.5159094   4.5107612   4.5062498   4.5108395   4.5063362
   4.5061870   4.5106481   4.5060321   4.5104863   4.5156631   4.4987443
   0.8780984   0.8749534   0.8750441   0.8782259   0.8778546   0.8791536
   0.8792551   0.8779200   0.8771493   0.8746617   0.8748341   0.8773138
   0.8771758   0.8746874   0.8747828   0.8772557   0.8778513   0.8791528
   0.8793186   0.8779705   0.8780675   0.8749279   0.8750139   0.8781821
   5.9198744   5.9178234   6.1667726   6.1562761   6.1562759   6.1667403
   6.1665613   6.1670722   6.1671095   6.1665896   5.9184384   5.9205309
   5.9153817   5.9306104   6.1625418   6.1669421   6.1670610   6.1626596
   6.1625922   6.1669806   6.1670158   6.1626096   5.9311964   5.9160482
   5.9201107   5.9180378   6.1665023   6.1670172   6.1671982   6.1666844
   6.1666297   6.1561878   6.1562833   6.1667167   5.9183131   5.9204327
   8.4873900   8.4878086   8.4876156   8.4880138   8.4925564   8.4875955
   8.4878932   8.4874964   8.4876037   8.4925914   8.4881714   8.4877582
 TTTTTTTTTTTTTTTTTTTTTTTTTTTTTT MOQGAD      TELAPSE      229.28 TCPU     6144.04
 TTTTTTTTTTTTTTTTTTTTTTTTTTTTTT SHELLXN     TELAPSE      245.66 TCPU     6665.76
 +++ ENERGIES IN A.U. +++
 ::: EXT EL-POLE                                  -2.3105167751430E+03
 ::: EXT EL-SPHEROPOLE                             2.6592744392189E+01
 ::: BIELET ZONE E-E                               4.0822656302305E+03
 ::: TOTAL E-E                                     1.7983415994796E+03
 ::: TOTAL E-N + N-E                              -7.2593870550630E+03
 ::: TOTAL N-N                                     5.9039463054054E+02
 ::: KINETIC ENERGY                                2.5598702468765E+03
 ::: PSEUDO TOTAL   ENERGY                        -2.3107805781663E+03
 ::: VIRIAL COEFFICIENT                            1.0511409414589E+00
 TTTTTTTTTTTTTTTTTTTTTTTTTTTTTT MONMO3      TELAPSE      246.25 TCPU     6684.70
 NUMERICALLY INTEGRATED DENSITY    396.0000032143
 EXCHANGE ENERGY: -0.252054979019E+03  CORRELATION ENERGY: -0.153783276623E+02
 TTTTTTTTTTTTTTTTTTTTTTTTTTTTTT NUMDFT      TELAPSE      247.87 TCPU     6736.22
 CYC   9 ETOT(AU) -2.578213884847E+03 DETOT -3.06E-07 tst  5.98E-09 PX  2.42E-04

 == SCF ENDED - CONVERGENCE ON ENERGY      E(AU) -2.5782138848475E+03 CYCLES   9


 ENERGY EXPRESSION=HARTREE+FOCK EXCH*0.00000+(HSESOL     EXCH)*1.00000+PBESOL     CORR


 TOTAL ENERGY(DFT)(AU)(  9) -2.5782138848475E+03 DE-3.1E-07 tester 6.0E-09
 TTTTTTTTTTTTTTTTTTTTTTTTTTTTTT EDFT        TELAPSE      247.87 TCPU     6736.24
 
 INFORMATION **** DFTD3 ENERGY **** CALCULATE DFTD3 ENERGY

           DFT-D V3(BJ)
 DF                                         hsesol3c  
 parameters
 s6       :    1.0000
 s8       :    0.0000
 a1       :    0.5196
 a2       :    4.9385
 k1 k3    :   16.0000   -4.0000
 Cutoff   :   50.2022
 CN-Cutoff:   21.1671
 ABC-Cutoff:   21.1671
 
 Edisp /kcal,au:   -47.2148 -0.07524164

 E6    /kcal :   -50.1705
 E8    /kcal :     0.0000
 E6(ABC) "   :   2.955638
 
 INFORMATION **** DFTD3 ENERGY **** NORMAL TERMINATION OF DFTD3 MODULE

 GCP ENERGY CALCULATION
  level        hsesol3c            basis:hsesol3c
  Nbf            948
  Atoms           84

  Parameters: 
  sigma     1.0000
  eta       1.4281
  alpha     0.2936
  beta      1.9467

  dmp_scal      4.0000
  dmp_exp       6.0000
 cutoffs: 
   distance [bohr] 60.0
   noise    [a.u.] 2.2E-16
 SR-damping   T
 ** gCP correction **
  Egcp:        0.1658527189 / (a.u.) ||     104.0742 / (kcal/mol)
 INFORMATION **** GCP **** NORMAL TERMINATION OF GCP MODULE

 *******************************************************************************

 DFT-D3-GCP DISPERSION AND COUNTERPOISE CORRECTION

 D3 DISPERSION ENERGY (AU)      -7.5241639940048E-02
 GCP ENERGY (AU)                 1.6585271891563E-01
 TOTAL ENERGY + DISP + GCP (AU) -2.5781232737685E+03

 *******************************************************************************

 EIGENVECTORS IN FORTRAN UNIT 10
 TTTTTTTTTTTTTTTTTTTTTTTTTTTTTT END         TELAPSE      250.23 TCPU     6744.24
 EEEEEEEEEE TERMINATION  DATE 19 02 2026 TIME 20:32:04.6
