 Default number of threads is:           32

         
 *******************************************************************************
 *                                                                             *
 *                               CRYSTAL23                                     *
 *                      public : 1.0.1 - October 2022                          *
 *                       HTTP://WWW.CRYSTAL.UNITO.IT                           *
 *                                                                             *
 *                              MAIN AUTHORS                                   *
 *                                                                             *
 *  R. DOVESI(1,11), V.R. SAUNDERS(2), C. ROETTI(1,11), R. ORLANDO(1,11),      *
 *  C.M. ZICOVICH-WILSON(1,3), F. PASCALE(4), B. CIVALLERI(1,11),              *
 *  K. DOLL(5), N.M. HARRISON(6), I.J. BUSH(7), Ph. D'ARCO(8),                 *
 *  M. LLUNELL(9), M. CAUSA'(10), Y. NOEL(8), L. MASCHIO(1,11), A. ERBA(1,11)  *
 *  M. RE'RAT(14), S. CASASSA(1,11), B.G. SEARLE(2), J.K. DESMARAIS(1)         *
 *                                                                             *
 *        CONTRIBUTIONS TO THE CODE HAVE ALSO BEEN GIVEN BY                    *
 *                                                                             *
 *  M. FERRABONE(1,11), M. DE LA PIERRE(1,11), M. FERRERO(1,11),               *
 *  J. BAIMA(1,11), E. ALBANESE(1,11), M.F. PEINTINGER(12), R. BAST(13),       *
 *  B. KIRTMAN(15), V. LACIVITA(1,11), R. DEMICHELIS(1,16)                     *
 *  G. BRANDEBURG(17), S. SALUSTRO(1,11), G. SANSONE(1,11)                     *
 *  M.T. RUGGIERO(18), L.E. DAGA(1), L. DONA'(1), A. COSSARD(1)                *
 *                                                                             *
 * (1) THEORETICAL CHEMISTRY GROUP - UNIVERSITA' DI TORINO - TORINO (ITALY)    *
 * (2) SCIENTIFIC COMPUTING DEPARTMENT - STFC DARESBURY (UK)                   *
 * (3) UNIVERSIDAD AUTONOMA DEL ESTADO DE MORELOS - CUERNAVACA (MEXICO)        *
 * (4) UNIVERSITE' DE LORRAINE - NANCY (FRANCE)                                *
 * (5) UNIVERSITAET STUTTGART- STUTTGART (GERMANY)                             *
 * (6) IMPERIAL COLLEGE - LONDON (UK)                                          *
 * (7) SCIENTIFIC COMPUTING DEPARTMENT - STFC RAL (UK)                         *
 * (8) UPMC - SORBONNE UNIVERSITES - PARIS (FRANCE)                            *
 * (9) UNIVERSIDAD DE BARCELONA - BARCELONA (SPAIN)                            *
 *(10) UNIVERSITA' DI NAPOLI "FEDERICO II" - NAPOLI (ITALY)                    *
 *(11) NIS - NANOSTRUCTURED INTERFACES AND SURFACES - TORINO (ITALY)           *
 *(12) MPI FUER CHEMISCHE ENERGIEKONVERSION - MUELHEIM AN DER RUHR (GERMANY)   *
 *(13) UNIVERSITY OF TROMSO - TROMSO (NORWAY)                                  *
 *(14) UNIVERSITE' DE PAU ET DES PAYS DE L'ADOUR - PAU (FRANCE)                *
 *(15) UNIVERSITY OF CALIFORNIA SANTA BARBARA - SANTA BARBARA (USA)            *
 *(16) CURTIN UNIVERSITY - PERTH (AUSTRALIA)                                   *
 *(17) UNIVERSITY COLLEGE LONDON - LONDON (UK)                                 *
 *(18) UNIVERSITY OF VERMONT - BURLINGTON (USA)                                *
 *                                                                             *
 *******************************************************************************
 EEEEEEEEEE STARTING  DATE 02 12 2025 TIME 08:00:37.3
 COF-5_z36_inc_L050                                                              

 CRYSTAL CALCULATION
 (INPUT ACCORDING TO THE INTERNATIONAL TABLES FOR X-RAY CRYSTALLOGRAPHY)
 CRYSTAL FAMILY                       :  TRICLINIC   
 CRYSTAL CLASS  (GROTH - 1921)        :  TRICLINIC PEDIAL                     

 SPACE GROUP (NONCENTROSYMMETRIC)     :  P 1             

 LATTICE PARAMETERS  (ANGSTROMS AND DEGREES) - CONVENTIONAL CELL
        A           B           C        ALPHA        BETA       GAMMA
    15.02070    15.04439     6.16117    45.38018    89.99958   120.05310


 NUMBER OF IRREDUCIBLE ATOMS IN THE CONVENTIONAL CELL:   42

 INPUT COORDINATES

 ATOM AT. N.              COORDINATES
   1   5     5.191971000000E-01  3.584853000000E-02  5.006287900000E-01
   2   5     6.779745800000E-01  1.948714200000E-01  5.006387800000E-01
   3   5     5.190182600000E-01  1.951078500000E-01  4.992088800000E-01
   4   5     1.314471700000E-01  4.202914200000E-01  5.054235600000E-01
   5   5     2.892429600000E-01  4.182379400000E-01  5.094672600000E-01
   6   5     2.906644100000E-01  5.798669600000E-01  5.035019100000E-01
   7   1     8.072513200000E-01  1.158252700000E-01  5.045270000000E-01
   8   1     3.931390000000E-03  5.021667700000E-01  4.929372400000E-01
   9   1     8.095757400000E-01  4.049203900000E-01  4.927989500000E-01
  10   1     1.773790000000E-03  2.132046700000E-01  5.040956000000E-01
  11   1     4.972897400000E-01  7.096245700000E-01  5.042176600000E-01
  12   1     3.130083100000E-01 -9.126390000000E-02  4.945693800000E-01
  13   1     2.144163400000E-01  7.145224900000E-01  4.958761700000E-01
  14   1     5.957497800000E-01 -9.597075000000E-02  5.023564200000E-01
  15   1     4.981283300000E-01  4.994347600000E-01  4.977735500000E-01
  16   1     3.092228500000E-01  1.146412800000E-01  5.060562800000E-01
  17   1     2.119290700000E-01  2.107028500000E-01  5.056914200000E-01
  18   1     5.957399700000E-01  4.032171200000E-01  4.987069500000E-01
  19   6     7.973152300000E-01  2.543964900000E-01  5.003888000000E-01
  20   6     8.514993200000E-01  2.005419200000E-01  5.021548100000E-01
  21   6    -4.025241000000E-02  4.173327900000E-01  4.957622300000E-01
  22   6     8.527041700000E-01  3.636784300000E-01  4.960993700000E-01
  23   6    -4.134607000000E-02  2.543540200000E-01  5.015111300000E-01
  24   6     1.357570000000E-02  3.628643900000E-01  4.993279700000E-01
  25   6     3.499417400000E-01  6.998695600000E-01  5.018701900000E-01
  26   6     4.577398600000E-01  7.542018000000E-01  5.022603500000E-01
  27   6     3.522965400000E-01 -1.362272600000E-01  4.969842500000E-01
  28   6     2.979627900000E-01  7.563880100000E-01  4.981028600000E-01
  29   6     5.120999900000E-01 -1.383797800000E-01  5.008230200000E-01
  30   6     4.597333200000E-01 -8.276291000000E-02  4.991988400000E-01
  31   6     3.499083500000E-01  3.615456800000E-01  4.999700200000E-01
  32   6     4.578637500000E-01  4.150124200000E-01  4.994185600000E-01
  33   6     3.501550100000E-01  1.992461600000E-01  5.039418700000E-01
  34   6     2.963706300000E-01  2.525251800000E-01  5.033339600000E-01
  35   6     5.114966700000E-01  3.615876000000E-01  5.003568800000E-01
  36   6     4.585029000000E-01  2.533874800000E-01  5.015986600000E-01
  37   8     4.662787600000E-01  8.905949000000E-02  4.995987300000E-01
  38   8     6.248623700000E-01  8.820867000000E-02  5.025886200000E-01
  39   8     6.253412300000E-01  2.486878100000E-01  4.980691400000E-01
  40   8     1.848035500000E-01  5.271853000000E-01  5.027352900000E-01
  41   8     1.831217300000E-01  3.652487400000E-01  5.102226600000E-01
  42   8     3.431360300000E-01  5.259466300000E-01  5.052069000000E-01

 *******************************************************************************

 << INFORMATION >>: FROM NOW ON, ALL COORDINATES REFER TO THE PRIMITIVE CELL

 *******************************************************************************

 LATTICE PARAMETERS  (ANGSTROMS AND DEGREES) - PRIMITIVE CELL
       A          B          C        ALPHA      BETA     GAMMA        VOLUME
   15.02070   15.04439    6.16117    45.38018  89.99958 120.05310    704.208159

 COORDINATES OF THE EQUIVALENT ATOMS (FRACTIONAL UNITS)

 N. ATOM EQUIV AT. N.          X                  Y                  Z

   1   1   1    5 B    -4.80802900000E-01  3.58485300000E-02 -4.99371210000E-01

   2   2   1    5 B    -3.22025420000E-01  1.94871420000E-01 -4.99361220000E-01

   3   3   1    5 B    -4.80981740000E-01  1.95107850000E-01  4.99208880000E-01

   4   4   1    5 B     1.31447170000E-01  4.20291420000E-01 -4.94576440000E-01

   5   5   1    5 B     2.89242960000E-01  4.18237940000E-01 -4.90532740000E-01

   6   6   1    5 B     2.90664410000E-01 -4.20133040000E-01 -4.96498090000E-01

   7   7   1    1 H    -1.92748680000E-01  1.15825270000E-01 -4.95473000000E-01

   8   8   1    1 H     3.93139000000E-03 -4.97833230000E-01  4.92937240000E-01

   9   9   1    1 H    -1.90424260000E-01  4.04920390000E-01  4.92798950000E-01

  10  10   1    1 H     1.77379000000E-03  2.13204670000E-01 -4.95904400000E-01

  11  11   1    1 H     4.97289740000E-01 -2.90375430000E-01 -4.95782340000E-01

  12  12   1    1 H     3.13008310000E-01 -9.12639000000E-02  4.94569380000E-01

  13  13   1    1 H     2.14416340000E-01 -2.85477510000E-01  4.95876170000E-01

  14  14   1    1 H    -4.04250220000E-01 -9.59707500000E-02 -4.97643580000E-01

  15  15   1    1 H     4.98128330000E-01  4.99434760000E-01  4.97773550000E-01

  16  16   1    1 H     3.09222850000E-01  1.14641280000E-01 -4.93943720000E-01

  17  17   1    1 H     2.11929070000E-01  2.10702850000E-01 -4.94308580000E-01

  18  18   1    1 H    -4.04260030000E-01  4.03217120000E-01  4.98706950000E-01

  19  19   1    6 C    -2.02684770000E-01  2.54396490000E-01 -4.99611200000E-01

  20  20   1    6 C    -1.48500680000E-01  2.00541920000E-01 -4.97845190000E-01

  21  21   1    6 C    -4.02524100000E-02  4.17332790000E-01  4.95762230000E-01

  22  22   1    6 C    -1.47295830000E-01  3.63678430000E-01  4.96099370000E-01

  23  23   1    6 C    -4.13460700000E-02  2.54354020000E-01 -4.98488870000E-01

  24  24   1    6 C     1.35757000000E-02  3.62864390000E-01  4.99327970000E-01

  25  25   1    6 C     3.49941740000E-01 -3.00130440000E-01 -4.98129810000E-01

  26  26   1    6 C     4.57739860000E-01 -2.45798200000E-01 -4.97739650000E-01

  27  27   1    6 C     3.52296540000E-01 -1.36227260000E-01  4.96984250000E-01

  28  28   1    6 C     2.97962790000E-01 -2.43611990000E-01  4.98102860000E-01

  29  29   1    6 C    -4.87900010000E-01 -1.38379780000E-01 -4.99176980000E-01

  30  30   1    6 C     4.59733320000E-01 -8.27629100000E-02  4.99198840000E-01

  31  31   1    6 C     3.49908350000E-01  3.61545680000E-01  4.99970020000E-01

  32  32   1    6 C     4.57863750000E-01  4.15012420000E-01  4.99418560000E-01

  33  33   1    6 C     3.50155010000E-01  1.99246160000E-01 -4.96058130000E-01

  34  34   1    6 C     2.96370630000E-01  2.52525180000E-01 -4.96666040000E-01

  35  35   1    6 C    -4.88503330000E-01  3.61587600000E-01 -4.99643120000E-01

  36  36   1    6 C     4.58502900000E-01  2.53387480000E-01 -4.98401340000E-01

  37  37   1    8 O     4.66278760000E-01  8.90594900000E-02  4.99598730000E-01

  38  38   1    8 O    -3.75137630000E-01  8.82086700000E-02 -4.97411380000E-01

  39  39   1    8 O    -3.74658770000E-01  2.48687810000E-01  4.98069140000E-01

  40  40   1    8 O     1.84803550000E-01 -4.72814700000E-01 -4.97264710000E-01

  41  41   1    8 O     1.83121730000E-01  3.65248740000E-01 -4.89777340000E-01

  42  42   1    8 O     3.43136030000E-01 -4.74053370000E-01 -4.94793100000E-01

 NUMBER OF SYMMETRY OPERATORS         :    1
 *******************************************************************************
 * GEOMETRY EDITING - INPUT COORDINATES ARE GIVEN IN ANGSTROM         
 *******************************************************************************

 GCALCO - MAX INDICES DIRECT LATTICE VECTOR     9    12    27
 NO.OF VECTORS CREATED 6999 STARS 3500 RMAX   201.36572 BOHR

 GEOMETRY FOR WAVE FUNCTION - DIMENSIONALITY OF THE SYSTEM    3
 (NON PERIODIC DIRECTION: LATTICE PARAMETER FORMALLY SET TO 500)
 *******************************************************************************
 LATTICE PARAMETERS (ANGSTROMS AND DEGREES) - BOHR = 0.5291772083 ANGSTROM
 PRIMITIVE CELL - CENTRING CODE 1/0 VOLUME=   704.208159 - DENSITY  0.920 g/cm^3
         A              B              C           ALPHA      BETA       GAMMA 
    15.02070100    15.04438700     6.16116900    45.380184  89.999583 120.053104
 *******************************************************************************
 ATOMS IN THE ASYMMETRIC UNIT   42 - ATOMS IN THE UNIT CELL:   42
     ATOM                 X/A                 Y/B                 Z/C    
 *******************************************************************************
      1 T   5 B    -4.808029000000E-01  3.584853000000E-02 -4.993712100000E-01
      2 T   5 B    -3.220254200000E-01  1.948714200000E-01 -4.993612200000E-01
      3 T   5 B    -4.809817400000E-01  1.951078500000E-01  4.992088800000E-01
      4 T   5 B     1.314471700000E-01  4.202914200000E-01 -4.945764400000E-01
      5 T   5 B     2.892429600000E-01  4.182379400000E-01 -4.905327400000E-01
      6 T   5 B     2.906644100000E-01 -4.201330400000E-01 -4.964980900000E-01
      7 T   1 H    -1.927486800000E-01  1.158252700000E-01 -4.954730000000E-01
      8 T   1 H     3.931390000000E-03 -4.978332300000E-01  4.929372400000E-01
      9 T   1 H    -1.904242600000E-01  4.049203900000E-01  4.927989500000E-01
     10 T   1 H     1.773790000000E-03  2.132046700000E-01 -4.959044000000E-01
     11 T   1 H     4.972897400000E-01 -2.903754300000E-01 -4.957823400000E-01
     12 T   1 H     3.130083100000E-01 -9.126390000000E-02  4.945693800000E-01
     13 T   1 H     2.144163400000E-01 -2.854775100000E-01  4.958761700000E-01
     14 T   1 H    -4.042502200000E-01 -9.597075000000E-02 -4.976435800000E-01
     15 T   1 H     4.981283300000E-01  4.994347600000E-01  4.977735500000E-01
     16 T   1 H     3.092228500000E-01  1.146412800000E-01 -4.939437200000E-01
     17 T   1 H     2.119290700000E-01  2.107028500000E-01 -4.943085800000E-01
     18 T   1 H    -4.042600300000E-01  4.032171200000E-01  4.987069500000E-01
     19 T   6 C    -2.026847700000E-01  2.543964900000E-01 -4.996112000000E-01
     20 T   6 C    -1.485006800000E-01  2.005419200000E-01 -4.978451900000E-01
     21 T   6 C    -4.025241000000E-02  4.173327900000E-01  4.957622300000E-01
     22 T   6 C    -1.472958300000E-01  3.636784300000E-01  4.960993700000E-01
     23 T   6 C    -4.134607000000E-02  2.543540200000E-01 -4.984888700000E-01
     24 T   6 C     1.357570000000E-02  3.628643900000E-01  4.993279700000E-01
     25 T   6 C     3.499417400000E-01 -3.001304400000E-01 -4.981298100000E-01
     26 T   6 C     4.577398600000E-01 -2.457982000000E-01 -4.977396500000E-01
     27 T   6 C     3.522965400000E-01 -1.362272600000E-01  4.969842500000E-01
     28 T   6 C     2.979627900000E-01 -2.436119900000E-01  4.981028600000E-01
     29 T   6 C    -4.879000100000E-01 -1.383797800000E-01 -4.991769800000E-01
     30 T   6 C     4.597333200000E-01 -8.276291000000E-02  4.991988400000E-01
     31 T   6 C     3.499083500000E-01  3.615456800000E-01  4.999700200000E-01
     32 T   6 C     4.578637500000E-01  4.150124200000E-01  4.994185600000E-01
     33 T   6 C     3.501550100000E-01  1.992461600000E-01 -4.960581300000E-01
     34 T   6 C     2.963706300000E-01  2.525251800000E-01 -4.966660400000E-01
     35 T   6 C    -4.885033300000E-01  3.615876000000E-01 -4.996431200000E-01
     36 T   6 C     4.585029000000E-01  2.533874800000E-01 -4.984013400000E-01
     37 T   8 O     4.662787600000E-01  8.905949000000E-02  4.995987300000E-01
     38 T   8 O    -3.751376300000E-01  8.820867000000E-02 -4.974113800000E-01
     39 T   8 O    -3.746587700000E-01  2.486878100000E-01  4.980691400000E-01
     40 T   8 O     1.848035500000E-01 -4.728147000000E-01 -4.972647100000E-01
     41 T   8 O     1.831217300000E-01  3.652487400000E-01 -4.897773400000E-01
     42 T   8 O     3.431360300000E-01 -4.740533700000E-01 -4.947931000000E-01

 T = ATOM BELONGING TO THE ASYMMETRIC UNIT

 ****    1 SYMMOPS - TRANSLATORS IN FRACTIONAL UNITS
 **** MATRICES AND TRANSLATORS IN THE CRYSTALLOGRAPHIC REFERENCE FRAME
   V INV                    ROTATION MATRICES                   TRANSLATORS
   1   1  1.00 -0.00  0.00  0.00  1.00  0.00  0.00  0.00  1.00  0.00  0.00  0.00

 DIRECT LATTICE VECTORS CARTESIAN COMPONENTS (ANGSTROM)
          X                    Y                    Z
   0.130013421718E+02  -0.752240388864E+01   0.000000000000E+00
   0.000000000000E+00   0.150443870000E+02   0.000000000000E+00
   0.250394402987E+01   0.432760059790E+01   0.360029732202E+01


 CARTESIAN COORDINATES - PRIMITIVE CELL
 *******************************************************************************
 *      ATOM          X(ANGSTROM)         Y(ANGSTROM)         Z(ANGSTROM)
 *******************************************************************************
    1     5 B    -7.501480580049E+00  1.995033616363E+00 -1.797884830056E+00
    2     5 B    -5.437135218997E+00  3.193090415131E+00 -1.797848863085E+00
    3     5 B    -2.499473055512E+00 -2.002992841061E+00  5.397597715809E+00
    4     5 B     4.705979104291E-01  3.193898775051E+00 -1.780622232465E+00
    5     5 B     2.532280167958E+00  1.993501281465E+00 -1.766063710184E+00
    6     5 B     2.535824023270E+00  4.388602435541E+00 -1.787540743814E+00
    7     1 H    -3.746628202149E+00  1.048244355181E+00 -1.783850115032E+00
    8     1 H    -1.218543424071E+00  5.330852619649E+00 -1.825576696923E+00
    9     1 H     1.262114056581E+00 -1.059922126174E+00  5.374520061996E+00
   10     1 H    -1.218655211035E+00  1.048114222954E+00 -1.785403283297E+00
   11     1 H    -5.273375304010E+00  1.595121917359E+00  1.815333491012E+00
   12     1 H     5.307902187326E+00 -1.587285614461E+00  1.780596814366E+00
   13     1 H     4.029346378986E+00 -3.761806440266E+00  1.785301646903E+00
   14     1 H    -3.997923074509E+00  3.771110266781E+00  1.808632473624E+00
   15     1 H     5.218789942664E+00  1.593131838758E+00 -1.808164542981E+00
   16     1 H     2.783504651395E+00 -2.738982524801E+00 -1.778344252343E+00
   17     1 H     1.517641337411E+00 -5.634909492347E-01 -1.779657856824E+00
   18     1 H    -1.503244656425E+00  5.485797128916E-01  5.395790618574E+00
   19     6 C    -3.886172529273E+00  3.189798221182E+00 -1.798748865410E+00
   20     6 C    -3.177284644721E+00  1.979637204997E+00 -1.792390704336E+00
   21     6 C    -1.785918509475E+00  4.399171211127E+00 -1.815405892991E+00
   22     6 C    -3.176782460441E+00  4.398657101177E+00 -1.814192088752E+00
   23     6 C    -1.785742633521E+00  1.980361417777E+00 -1.794708143717E+00
   24     6 C    -1.077152419520E+00  3.190241836830E+00 -1.802568168818E+00
   25     6 C     7.984791082066E-01  1.413397942903E+00 -5.393712742978E+00
   26     6 C     2.200976290603E+00  1.421580647613E+00 -5.392308050975E+00
   27     6 C     5.824748608199E+00 -2.548823144396E+00  1.789291064360E+00
   28     6 C     5.121137869804E+00 -3.750799270817E+00  1.793318392947E+00
   29     6 C    -5.089322164672E+00  3.755703969990E+00  1.803111777711E+00
   30     6 C    -5.774226015552E+00  4.979320125703E+00  1.797264246806E+00
   31     6 C     3.297231103934E+00  6.431511549757E-01 -1.800256597923E+00
   32     6 C     4.699415373650E+00  6.330548637784E-01 -1.802242017884E+00
   33     6 C     3.310383305089E+00 -1.783212529527E+00 -1.785956757004E+00
   34     6 C     2.609592004597E+00 -5.797052960855E-01 -1.788145413749E+00
   35     6 C     5.399064819003E+00 -5.700766154811E-01 -1.798863786901E+00
   36     6 C     4.713184029879E+00 -1.793866624815E+00 -1.794393009692E+00
   37     8 O     4.809272933635E+00 -4.333228559073E+00 -1.801593352315E+00
   38     8 O    -6.122782944479E+00  1.996384349435E+00 -1.790828859355E+00
   39     8 O    -1.119985586991E+00 -2.001651849861E+00  5.393494312939E+00
   40     8 O     1.157571186239E+00  4.389049674447E+00 -1.790300803747E+00
   41     8 O     1.154453224359E+00  1.997867072555E+00 -1.763344045587E+00
   42     8 O     3.222294708728E+00  3.190069921266E+00 -1.781402272883E+00

 *******************************************************************************
 STARTING BASIS SET HANDLING 
 *******************************************************************************

 Loading internal basis set: SOLDEF2MSVP         

 Please cite in your publication:
 L. Dona', J. G. Brandenburg and B. Civalleri, J. Chem. Phys., 151, 121101 (2019
 )                                                                              
                                                                                
                    

 *******************************************************************************
 LOCAL ATOMIC FUNCTIONS BASIS SET
 *******************************************************************************
   ATOM   X(AU)   Y(AU)   Z(AU)  N. TYPE  EXPONENT  S COEF   P COEF   D/F/G COEF
 *******************************************************************************
   1 B  -14.176   3.770  -3.398
                                  1 S  
                                         2.410E+03 1.755E-03 0.000E+00 0.000E+00
                                         3.619E+02 1.344E-02 0.000E+00 0.000E+00
                                         8.231E+01 6.637E-02 0.000E+00 0.000E+00
                                         2.311E+01 2.303E-01 0.000E+00 0.000E+00
                                         7.252E+00 5.150E-01 0.000E+00 0.000E+00
                                  2 S  
                                         2.367E+00 1.000E+00 0.000E+00 0.000E+00
                                  3 S  
                                         5.533E-01 1.000E+00 0.000E+00 0.000E+00
                                  4 S  
                                         1.716E-01 1.000E+00 0.000E+00 0.000E+00
                           5-     7 P  
                                         6.002E+00 0.000E+00-3.555E-02 0.000E+00
                                         1.240E+00 0.000E+00-1.983E-01 0.000E+00
                                         3.367E-01 0.000E+00-5.048E-01 0.000E+00
                           8-    10 P  
                                         1.256E-01 0.000E+00 1.000E+00 0.000E+00
                          11-    15 D  
                                         8.880E-01 0.000E+00 0.000E+00 1.000E+00
   2 B  -10.275   6.034  -3.397
   3 B   -4.723  -3.785  10.200
   4 B    0.889   6.036  -3.365
   5 B    4.785   3.767  -3.337
   6 B    4.792   8.293  -3.378
   7 H   -7.080   1.981  -3.371
                                 91 S  
                                         1.874E+01 1.968E-02 0.000E+00 0.000E+00
                                         2.826E+00 1.380E-01 0.000E+00 0.000E+00
                                         6.401E-01 4.783E-01 0.000E+00 0.000E+00
                                 92 S  
                                         1.756E-01 1.000E+00 0.000E+00 0.000E+00
   8 H   -2.303  10.074  -3.450
   9 H    2.385  -2.003  10.156
  10 H   -2.303   1.981  -3.374
  11 H   -9.965   3.014   3.430
  12 H   10.030  -3.000   3.365
  13 H    7.614  -7.109   3.374
  14 H   -7.555   7.126   3.418
  15 H    9.862   3.011  -3.417
  16 H    5.260  -5.176  -3.361
  17 H    2.868  -1.065  -3.363
  18 H   -2.841   1.037  10.197
  19 C   -7.344   6.028  -3.399
                                115 S  
                                         3.624E+03 1.634E-03 0.000E+00 0.000E+00
                                         5.440E+02 1.252E-02 0.000E+00 0.000E+00
                                         1.237E+02 6.211E-02 0.000E+00 0.000E+00
                                         3.476E+01 2.182E-01 0.000E+00 0.000E+00
                                         1.093E+01 4.980E-01 0.000E+00 0.000E+00
                                116 S  
                                         3.574E+00 1.000E+00 0.000E+00 0.000E+00
                                117 S  
                                         7.742E-01 1.000E+00 0.000E+00 0.000E+00
                                118 S  
                                         2.330E-01 1.000E+00 0.000E+00 0.000E+00
                         119-   121 P  
                                         9.443E+00 0.000E+00 3.790E-02 0.000E+00
                                         2.002E+00 0.000E+00 2.082E-01 0.000E+00
                                         5.463E-01 0.000E+00 5.047E-01 0.000E+00
                         122-   124 P  
                                         1.820E-01 0.000E+00 1.000E+00 0.000E+00
                         125-   129 D  
                                         8.880E-01 0.000E+00 0.000E+00 1.000E+00
  20 C   -6.004   3.741  -3.387
  21 C   -3.375   8.313  -3.431
  22 C   -6.003   8.312  -3.428
  23 C   -3.375   3.742  -3.392
  24 C   -2.036   6.029  -3.406
  25 C    1.509   2.671 -10.193
  26 C    4.159   2.686 -10.190
  27 C   11.007  -4.817   3.381
  28 C    9.678  -7.088   3.389
  29 C   -9.617   7.097   3.407
  30 C  -10.912   9.410   3.396
  31 C    6.231   1.215  -3.402
  32 C    8.881   1.196  -3.406
  33 C    6.256  -3.370  -3.375
  34 C    4.931  -1.095  -3.379
  35 C   10.203  -1.077  -3.399
  36 C    8.907  -3.390  -3.391
  37 O    9.088  -8.189  -3.405
                                385 S  
                                         6.773E+03 1.727E-03 0.000E+00 0.000E+00
                                         1.017E+03 1.325E-02 0.000E+00 0.000E+00
                                         2.313E+02 6.603E-02 0.000E+00 0.000E+00
                                         6.501E+01 2.353E-01 0.000E+00 0.000E+00
                                         2.050E+01 5.498E-01 0.000E+00 0.000E+00
                                386 S  
                                         6.716E+00 1.000E+00 0.000E+00 0.000E+00
                                387 S  
                                         1.147E+00 1.000E+00 0.000E+00 0.000E+00
                                388 S  
                                         3.342E-01 1.000E+00 0.000E+00 0.000E+00
                         389-   391 P  
                                         1.769E+01 0.000E+00 4.359E-02 0.000E+00
                                         3.854E+00 0.000E+00 2.318E-01 0.000E+00
                                         1.047E+00 0.000E+00 5.146E-01 0.000E+00
                         392-   394 P  
                                         2.759E-01 0.000E+00 1.000E+00 0.000E+00
                         395-   399 D  
                                         8.000E-01 0.000E+00 0.000E+00 1.000E+00
  38 O  -11.570   3.773  -3.384
  39 O   -2.116  -3.783  10.192
  40 O    2.187   8.294  -3.383
  41 O    2.182   3.775  -3.332
  42 O    6.089   6.028  -3.366

 *******************************************************************************
 FINISHED BASIS SET HANDLING 
 *******************************************************************************

 INFORMATION **** SET_MPP **** PCRYSTAL CALCULATION
 INFORMATION **** READM2 **** NEW DEFAULT: FOCK/KS MATRIX MIXING SET TO 30 %
 INFORMATION **** READM2 **** NEW DEFAULT: FULL DIRECT SCF MODE
 INFORMATION **** READM2 **** NEW DEFAULT: COULOMB BIPOLAR BUFFER SET TO 32 Mb
 INFORMATION **** READM2 **** NEW DEFAULT: EXCHANGE BIPOLAR BUFFER SET TO 32 Mb

 *******************************************************************************
 NEW DEFAULT: DFT INTEGRATION GRID INCREASED TO XLGRID
 NEW DEFAULT: DIIS ACCELERATOR ACTIVE
 USE KEYWORD NODIIS TO TURN IT OFF
 *******************************************************************************

 WARNING **** RDDFTP **** HSEsol-HJS ACTIVE
 RANGE SEPARATION - OMEGA:   0.110000000000000     
 WARNING **** RDDFTP **** HSEsol-3c has to be combined with sol-def2-mSVP basis set
 *******************************************************************************
 N. OF ATOMS PER CELL        42  COULOMB OVERLAP TOL         (T1) 10**   -6
 NUMBER OF SHELLS           234  COULOMB PENETRATION TOL     (T2) 10**   -6
 NUMBER OF AO               474  EXCHANGE OVERLAP TOL        (T3) 10**   -6
 N. OF ELECTRONS PER CELL   198  EXCHANGE PSEUDO OVP (F(G))  (T4) 10**   -6
 CORE ELECTRONS PER CELL     60  EXCHANGE PSEUDO OVP (P(G))  (T5) 10**  -12
 N. OF SYMMETRY OPERATORS     1  POLE ORDER IN MONO ZONE                  4
 *******************************************************************************
 TYPE OF CALCULATION :  RESTRICTED CLOSED SHELL
 KOHN-SHAM HAMILTONIAN

 (EXCHANGE)[CORRELATION] FUNCTIONAL:(HSEsol GGA)[PBEsol]

 RANGE-SEPARATED HYBRID FUNCTIONAL 
 OMEGA (SHORT-RANGE)[LONG-RANGE]:(    0.1100)[    0.0000]

 HYBRID EXCHANGE - PERCENTAGE OF FOCK EXCHANGE    25.0000

 CAPPA:IS1  2;IS2  2;IS3  8; K PTS MONK NET  20; SYMMOPS:K SPACE   2;G SPACE   1

 *******************************************************************************
 MAX NUMBER OF SCF CYCLES      50  CONVERGENCE ON DELTAP        10**-16
 WEIGHT OF F(I) IN F(I+1)      30% CONVERGENCE ON ENERGY        10**- 6
 SHRINK. FACT.(MONKH.)    2  2  8  NUMBER OF K POINTS IN THE IBZ     20
 SHRINKING FACTOR(GILAT NET)    8  NUMBER OF K POINTS(GILAT NET)   1028
 *******************************************************************************
 *** K POINTS COORDINATES (OBLIQUE COORDINATES IN UNITS OF IS =  2)
   1-R(  0  0  0)   2-R(  1  0  0)   3-R(  0  1  0)   4-R(  1  1  0)
   5-C(  0  0  1)   6-C(  1  0  1)   7-C(  0  1  1)   8-C(  1  1  1)
   9-C(  0  0  2)  10-C(  1  0  2)  11-C(  0  1  2)  12-C(  1  1  2)
  13-C(  0  0  3)  14-C(  1  0  3)  15-C(  0  1  3)  16-C(  1  1  3)
  17-R(  0  0  4)  18-R(  1  0  4)  19-R(  0  1  4)  20-R(  1  1  4)

 DIRECT LATTICE VECTORS COMPON. (A.U.)     RECIP. LATTICE VECTORS COMPON. (A.U.) 
        X            Y            Z              X            Y            Z
   24.5689761  -14.2152832    0.0000000      0.2557366    0.0000000   -0.1778603
    0.0000000   28.4297713    0.0000000      0.1278719    0.2210072   -0.3545860
    4.7317685    8.1779799    6.8035759      0.0000000    0.0000000    0.9235122

 DISK SPACE FOR EIGENVECTORS (FTN 10)     7189632 REALS

 SYMMETRY ADAPTION OF THE BLOCH FUNCTIONS DISABLED
 TTTTTTTTTTTTTTTTTTTTTTTTTTTTTT gordsh1     TELAPSE        0.04 TCPU        0.04

 MATRIX SIZE: P(G)  334526, F(G)   67436, P(G) IRR  168454, F(G) IRR   68060
 MAX G-VECTOR INDEX FOR 1- AND 2-ELECTRON INTEGRALS  45

 TTTTTTTTTTTTTTTTTTTTTTTTTTTTTT INPUT       TELAPSE        0.38 TCPU        0.38

 NEIGHBORS OF THE NON-EQUIVALENT ATOMS

 N = NUMBER OF NEIGHBORS AT DISTANCE R
    ATOM  N     R/ANG      R/AU   NEIGHBORS (ATOM LABELS AND CELL INDICES)
   1 B    1     1.3787     2.6054   38 O    0 0 0
   1 B    1     1.3795     2.6068   37 O   -1 0 0
   1 B    1     1.5517     2.9323   30 C    0 0-1
   1 B    1     2.3868     4.5104    2 B    0 0 0
   1 B    1     2.3912     4.5187    3 B    0 1-2
   1 B    1     2.5629     4.8432   27 C   -1 0-1

   2 B    1     1.3792     2.6064   38 O    0 0 0
   2 B    1     1.3798     2.6075   39 O    0 1-2
   2 B    1     1.5510     2.9309   19 C    0 0 0
   2 B    1     2.3868     4.5104    1 B    0 0 0
   2 B    1     2.3894     4.5154    3 B    0 1-2
   2 B    1     2.5618     4.8411   22 C    0 0 0

   3 B    1     1.3790     2.6060   37 O   -1-1 2
   3 B    1     1.3795     2.6069   39 O    0 0 0
   3 B    1     1.5529     2.9346   36 C   -1-1 2
   3 B    1     2.3894     4.5154    2 B    0-1 2
   3 B    1     2.3912     4.5187    1 B    0-1 2
   3 B    1     2.5679     4.8526   35 C   -1-1 2

   4 B    1     1.3778     2.6037   41 O    0 0 0
   4 B    1     1.3786     2.6051   40 O    0 0 0
   4 B    1     1.5479     2.9251   24 C    0 0 0
   4 B    1     2.3857     4.5084    5 B    0 0 0
   4 B    1     2.3859     4.5087    6 B    0 0 0
   4 B    1     2.5585     4.8348   21 C    0 0 0

   5 B    1     1.3778     2.6037   41 O    0 0 0
   5 B    1     1.3814     2.6104   42 O    0 0 0
   5 B    1     1.5523     2.9335   31 C    0 0 0
   5 B    1     2.3857     4.5084    4 B    0 0 0
   5 B    1     2.3952     4.5263    6 B    0 0 0
   5 B    1     2.5590     4.8359   32 C    0 0 0

   6 B    1     1.3783     2.6045   40 O    0 0 0
   6 B    1     1.3812     2.6101   42 O    0 0 0
   6 B    1     1.5546     2.9377   25 C    0 0 1
   6 B    1     2.3859     4.5087    4 B    0 0 0
   6 B    1     2.3952     4.5263    5 B    0 0 0
   6 B    1     2.5605     4.8386   26 C    0 0 1

   7 H    1     1.0917     2.0629   20 C    0 0 0
   7 H    1     2.1461     4.0556   19 C    0 0 0
   7 H    1     2.1712     4.1029   23 C    0 0 0
   7 H    1     2.5280     4.7772   10 H    0 0 0
   7 H    1     2.5583     4.8346   38 O    0 0 0
   7 H    1     2.7310     5.1608    2 B    0 0 0

   8 H    1     1.0909     2.0615   21 C    0 0 0
   8 H    1     2.1454     4.0542   24 C    0 0 0
   8 H    1     2.1688     4.0985   22 C    0 0 0
   8 H    1     2.5272     4.7758    9 H    0 1-2
   8 H    1     2.5562     4.8305   40 O    0 0 0
   8 H    1     2.7243     5.1482    4 B    0 0 0

   9 H    1     1.0908     2.0614   22 C    0-1 2
   9 H    1     2.1442     4.0520   19 C    0-1 2
   9 H    1     2.1694     4.0995   21 C    0-1 2
   9 H    1     2.5272     4.7758    8 H    0-1 2
   9 H    1     2.5616     4.8407   39 O    0 0 0
   9 H    1     2.7248     5.1492    2 B    0-1 2

  10 H    1     1.0912     2.0621   23 C    0 0 0
  10 H    1     2.1469     4.0570   24 C    0 0 0
  10 H    1     2.1689     4.0986   20 C    0 0 0
  10 H    1     2.5280     4.7772    7 H    0 0 0
  10 H    1     2.5562     4.8305   41 O    0 0 0
  10 H    1     2.7309     5.1607    4 B    0 0 0

  11 H    1     1.0911     2.0619   26 C   -1-1 2
  11 H    1     2.1443     4.0521   25 C   -1-1 2
  11 H    1     2.1684     4.0978   29 C    0 0 0
  11 H    1     2.5223     4.7664   14 H    0 0 0
  11 H    1     2.5622     4.8419   42 O   -1-1 1
  11 H    1     2.7179     5.1361    6 B   -1-1 1

  12 H    1     1.0917     2.0630   27 C    0 0 0
  12 H    1     2.1441     4.0518   30 C    1 0 0
  12 H    1     2.1716     4.1037   28 C    0 0 0
  12 H    1     2.5226     4.7669   13 H    0 0 0
  12 H    1     2.5541     4.8265   37 O    0 0 1
  12 H    1     2.7237     5.1470    1 B    1 0 1

  13 H    1     1.0919     2.0633   28 C    0 0 0
  13 H    1     2.1522     4.0671   25 C    0-1 2
  13 H    1     2.1668     4.0946   27 C    0 0 0
  13 H    1     2.5226     4.7669   12 H    0 0 0
  13 H    1     2.5923     4.8987   40 O    0-1 1
  13 H    1     2.7583     5.2124    6 B    0-1 1

  14 H    1     1.0915     2.0627   29 C    0 0 0
  14 H    1     2.1483     4.0597   30 C    0 0 0
  14 H    1     2.1679     4.0968   26 C   -1-1 2
  14 H    1     2.5223     4.7664   11 H    0 0 0
  14 H    1     2.5809     4.8771   38 O    0 0 1
  14 H    1     2.7404     5.1785    1 B    0 0 1

  15 H    1     1.0916     2.0628   32 C    0 0 0
  15 H    1     2.1436     4.0508   31 C    0 0 0
  15 H    1     2.1707     4.1021   35 C    0 0 0
  15 H    1     2.5217     4.7654   18 H    1 1-2
  15 H    1     2.5567     4.8315   42 O    0 0 0
  15 H    1     2.7165     5.1335    5 B    0 0 0

  16 H    1     1.0914     2.0624   33 C    0 0 0
  16 H    1     2.1488     4.0606   36 C    0 0 0
  16 H    1     2.1663     4.0937   34 C    0 0 0
  16 H    1     2.5170     4.7564   17 H    0 0 0
  16 H    1     2.5780     4.8716   37 O    0 0 0
  16 H    1     2.7395     5.1770    3 B    1 1-2

  17 H    1     1.0921     2.0638   34 C    0 0 0
  17 H    1     2.1502     4.0633   31 C    0 0 0
  17 H    1     2.1683     4.0976   33 C    0 0 0
  17 H    1     2.5170     4.7564   16 H    0 0 0
  17 H    1     2.5870     4.8888   41 O    0 0 0
  17 H    1     2.7510     5.1986    5 B    0 0 0

  18 H    1     1.0913     2.0622   35 C   -1-1 2
  18 H    1     2.1495     4.0619   36 C   -1-1 2
  18 H    1     2.1656     4.0923   32 C   -1-1 2
  18 H    1     2.5217     4.7654   15 H   -1-1 2
  18 H    1     2.5789     4.8734   39 O    0 0 0
  18 H    1     2.7392     5.1763    3 B    0 0 0

  19 C    1     1.4017     2.6489   22 C    0 0 0
  19 C    1     1.4025     2.6504   20 C    0 0 0
  19 C    1     1.5510     2.9309    2 B    0 0 0
  19 C    1     2.1442     4.0520    9 H    0 1-2
  19 C    1     2.1461     4.0556    7 H    0 0 0
  19 C    1     2.4236     4.5800   21 C    0 0 0

  20 C    1     1.0917     2.0629    7 H    0 0 0
  20 C    1     1.3915     2.6296   23 C    0 0 0
  20 C    1     1.4025     2.6504   19 C    0 0 0
  20 C    1     2.1689     4.0986   10 H    0 0 0
  20 C    1     2.4191     4.5715   22 C    0 0 0
  20 C    1     2.4241     4.5809   24 C    0 0 0

  21 C    1     1.0909     2.0615    8 H    0 0 0
  21 C    1     1.3909     2.6284   22 C    0 0 0
  21 C    1     1.4014     2.6483   24 C    0 0 0
  21 C    1     2.1694     4.0995    9 H    0 1-2
  21 C    1     2.4189     4.5711   23 C    0 0 0
  21 C    1     2.4236     4.5800   19 C    0 0 0

  22 C    1     1.0908     2.0614    9 H    0 1-2
  22 C    1     1.3909     2.6284   21 C    0 0 0
  22 C    1     1.4017     2.6489   19 C    0 0 0
  22 C    1     2.1688     4.0985    8 H    0 0 0
  22 C    1     2.4191     4.5715   20 C    0 0 0
  22 C    1     2.4226     4.5780   24 C    0 0 0

  23 C    1     1.0912     2.0621   10 H    0 0 0
  23 C    1     1.3915     2.6296   20 C    0 0 0
  23 C    1     1.4021     2.6496   24 C    0 0 0
  23 C    1     2.1712     4.1029    7 H    0 0 0
  23 C    1     2.4189     4.5711   21 C    0 0 0
  23 C    1     2.4237     4.5802   19 C    0 0 0

  24 C    1     1.4014     2.6483   21 C    0 0 0
  24 C    1     1.4021     2.6496   23 C    0 0 0
  24 C    1     1.5479     2.9251    4 B    0 0 0
  24 C    1     2.1454     4.0542    8 H    0 0 0
  24 C    1     2.1469     4.0570   10 H    0 0 0
  24 C    1     2.4226     4.5780   22 C    0 0 0

  25 C    1     1.4025     2.6504   26 C    0 0 0
  25 C    1     1.4037     2.6526   28 C    0 1-2
  25 C    1     1.5546     2.9377    6 B    0 0-1
  25 C    1     2.1443     4.0521   11 H    1 1-2
  25 C    1     2.1522     4.0671   13 H    0 1-2
  25 C    1     2.4271     4.5866   27 C    0 1-2

  26 C    1     1.0911     2.0619   11 H    1 1-2
  26 C    1     1.3916     2.6298   29 C    1 1-2
  26 C    1     1.4025     2.6504   25 C    0 0 0
  26 C    1     2.1679     4.0968   14 H    1 1-2
  26 C    1     2.4165     4.5665   28 C    0 1-2
  26 C    1     2.4246     4.5819   30 C    1 1-2

  27 C    1     1.0917     2.0630   12 H    0 0 0
  27 C    1     1.3928     2.6320   28 C    0 0 0
  27 C    1     1.4024     2.6502   30 C    1 0 0
  27 C    1     2.1668     4.0946   13 H    0 0 0
  27 C    1     2.4166     4.5668   29 C    1 0 0
  27 C    1     2.4271     4.5866   25 C    0-1 2

  28 C    1     1.0919     2.0633   13 H    0 0 0
  28 C    1     1.3928     2.6320   27 C    0 0 0
  28 C    1     1.4037     2.6526   25 C    0-1 2
  28 C    1     2.1716     4.1037   12 H    0 0 0
  28 C    1     2.4165     4.5665   26 C    0-1 2
  28 C    1     2.4277     4.5877   30 C    1 0 0

  29 C    1     1.0915     2.0627   14 H    0 0 0
  29 C    1     1.3916     2.6298   26 C   -1-1 2
  29 C    1     1.4023     2.6499   30 C    0 0 0
  29 C    1     2.1684     4.0978   11 H    0 0 0
  29 C    1     2.4166     4.5668   27 C   -1 0 0
  29 C    1     2.4281     4.5884   25 C   -1-1 2

  30 C    1     1.4023     2.6499   29 C    0 0 0
  30 C    1     1.4024     2.6502   27 C   -1 0 0
  30 C    1     1.5517     2.9323    1 B    0 0 1
  30 C    1     2.1441     4.0518   12 H   -1 0 0
  30 C    1     2.1483     4.0597   14 H    0 0 0
  30 C    1     2.4246     4.5819   26 C   -1-1 2

  31 C    1     1.4022     2.6498   32 C    0 0 0
  31 C    1     1.4030     2.6513   34 C    0 0 0
  31 C    1     1.5523     2.9335    5 B    0 0 0
  31 C    1     2.1436     4.0508   15 H    0 0 0
  31 C    1     2.1502     4.0633   17 H    0 0 0
  31 C    1     2.4264     4.5853   33 C    0 0 0

  32 C    1     1.0916     2.0628   15 H    0 0 0
  32 C    1     1.3918     2.6301   35 C    0 0 0
  32 C    1     1.4022     2.6498   31 C    0 0 0
  32 C    1     2.1656     4.0923   18 H    1 1-2
  32 C    1     2.4163     4.5661   34 C    0 0 0
  32 C    1     2.4270     4.5863   36 C    0 0 0

  33 C    1     1.0914     2.0624   16 H    0 0 0
  33 C    1     1.3927     2.6318   34 C    0 0 0
  33 C    1     1.4029     2.6510   36 C    0 0 0
  33 C    1     2.1683     4.0976   17 H    0 0 0
  33 C    1     2.4155     4.5646   35 C    0 0 0
  33 C    1     2.4264     4.5853   31 C    0 0 0

  34 C    1     1.0921     2.0638   17 H    0 0 0
  34 C    1     1.3927     2.6318   33 C    0 0 0
  34 C    1     1.4030     2.6513   31 C    0 0 0
  34 C    1     2.1663     4.0937   16 H    0 0 0
  34 C    1     2.4163     4.5661   32 C    0 0 0
  34 C    1     2.4289     4.5899   36 C    0 0 0

  35 C    1     1.0913     2.0622   18 H    1 1-2
  35 C    1     1.3918     2.6301   32 C    0 0 0
  35 C    1     1.4029     2.6511   36 C    0 0 0
  35 C    1     2.1707     4.1021   15 H    0 0 0
  35 C    1     2.4155     4.5646   33 C    0 0 0
  35 C    1     2.4269     4.5861   31 C    0 0 0

  36 C    1     1.4029     2.6510   33 C    0 0 0
  36 C    1     1.4029     2.6511   35 C    0 0 0
  36 C    1     1.5529     2.9346    3 B    1 1-2
  36 C    1     2.1488     4.0606   16 H    0 0 0
  36 C    1     2.1495     4.0619   18 H    1 1-2
  36 C    1     2.4270     4.5863   32 C    0 0 0

  37 O    1     1.3790     2.6060    3 B    1 1-2
  37 O    1     1.3795     2.6068    1 B    1 0 0
  37 O    1     2.3868     4.5105   39 O    1 1-2
  37 O    1     2.3885     4.5136   38 O    1 0 0
  37 O    1     2.5389     4.7979   30 C    1 0-1
  37 O    1     2.5412     4.8022   36 C    0 0 0

  38 O    1     1.3787     2.6054    1 B    0 0 0
  38 O    1     1.3792     2.6064    2 B    0 0 0
  38 O    1     2.3885     4.5136   37 O   -1 0 0
  38 O    1     2.3912     4.5187   39 O    0 1-2
  38 O    1     2.5351     4.7906   19 C    0 0 0
  38 O    1     2.5405     4.8008   30 C    0 0-1

  39 O    1     1.3795     2.6069    3 B    0 0 0
  39 O    1     1.3798     2.6075    2 B    0-1 2
  39 O    1     2.3868     4.5105   37 O   -1-1 2
  39 O    1     2.3912     4.5187   38 O    0-1 2
  39 O    1     2.5416     4.8030   19 C    0-1 2
  39 O    1     2.5427     4.8050   36 C   -1-1 2

  40 O    1     1.3783     2.6045    6 B    0 0 0
  40 O    1     1.3786     2.6051    4 B    0 0 0
  40 O    1     2.3876     4.5119   42 O    0 0 0
  40 O    1     2.3913     4.5190   41 O    0 0 0
  40 O    1     2.5354     4.7912   25 C    0 0 1
  40 O    1     2.5360     4.7923   24 C    0 0 0

  41 O    1     1.3778     2.6037    5 B    0 0 0
  41 O    1     1.3778     2.6037    4 B    0 0 0
  41 O    1     2.3870     4.5107   42 O    0 0 0
  41 O    1     2.3913     4.5190   40 O    0 0 0
  41 O    1     2.5305     4.7819   24 C    0 0 0
  41 O    1     2.5354     4.7912   31 C    0 0 0

  42 O    1     1.3812     2.6101    6 B    0 0 0
  42 O    1     1.3814     2.6104    5 B    0 0 0
  42 O    1     2.3870     4.5107   41 O    0 0 0
  42 O    1     2.3876     4.5119   40 O    0 0 0
  42 O    1     2.5481     4.8152   31 C    0 0 0
  42 O    1     2.5522     4.8230   25 C    0 0 1


 SYMMETRY ALLOWED INTERNAL DEGREE(S) OF FREEDOM: 123
 TTTTTTTTTTTTTTTTTTTTTTTTTTTTTT SYMM        TELAPSE        0.39 TCPU        0.38
 TTTTTTTTTTTTTTTTTTTTTTTTTTTTTT INT_SCREEN  TELAPSE        0.42 TCPU        0.42

 DFT PARAMETERS

     ATOM       ELECTRONS   NET CHARGE   R(ANGSTROM)
   1   5  B       5.0000      0.0000     0.89000000
   7   1  H       1.0000      0.0000     1.11000000
  19   6  C       6.0000      0.0000     0.77000000
  37   8  O       8.0000      0.0000     0.74000000

 SIZE OF GRID=    1291675
 TTTTTTTTTTTTTTTTTTTTTTTTTTTTTT MAKE_GRID2  TELAPSE        9.78 TCPU        9.76
 BECKE WEIGHT FUNCTION
 RADSAFE =     2.00
 TOLERANCES - DENSITY:10**- 6; POTENTIAL:10**- 9; GRID WGT:10**-14

 RADIAL INTEGRATION  - INTERVALS (POINTS,UPPER LIMIT):            1( 75,  4.0*R)

 ANGULAR INTEGRATION - INTERVALS (ACCURACY LEVEL [N. POINTS] UPPER LIMIT):
  1(  4[  86]   0.2)  2(  8[ 194]   0.5)  3( 12[ 350]   0.9)  4( 16[ 974]   3.5)
  5( 12[ 350]9999.0)
 TTTTTTTTTTTTTTTTTTTTTTTTTTTTTT INT_CALC    TELAPSE        9.86 TCPU        9.85
 EEEEEEEEEE INT_CALC TERMINATION  DATE 02 12 2025 TIME 08:00:47.1

 *******************************************************************************
 COF-5_z36_inc_L050                                                              
 CRYSTAL - SCF - TYPE OF CALCULATION :  RESTRICTED CLOSED SHELL
 *******************************************************************************

 CAPPA:IS1  2;IS2  2;IS3  8; K PTS MONK NET  20; SYMMOPS:K SPACE   2;G SPACE   1

 TTTTTTTTTTTTTTTTTTTTTTTTTTTTTT SDIK        TELAPSE       10.68 TCPU       17.63

 AAAAAAAAAAAAAAAAAAAAAAAAAAAAAAAAAAAAAAAAAAAAAAAAAAAAAAAAAAAAAAAAAAAAAAAAAAAAAAA
         ATOMIC WAVEFUNCTION(S)


 NUCLEAR CHARGE  5.0  SYMMETRY SPECIES            S    P
 N. ELECTRONS    5.0  NUMBER OF PRIMITIVE GTOS    8    4
                      NUMBER OF CONTRACTED GTOS   4    2
                      NUMBER OF CLOSED SHELLS     2    0
                      OPEN SHELL OCCUPATION       0    1

  ZNUC  SCFIT    TOTAL HF ENERGY   KINETIC ENERGY   VIRIAL THEOREM ACCURACY
   5.0    11    -2.451164084E+01  2.462155050E+01 -1.995536038E+00  1.5E-06

 NUCLEAR CHARGE  1.0  SYMMETRY SPECIES            S
 N. ELECTRONS    1.0  NUMBER OF PRIMITIVE GTOS    4
                      NUMBER OF CONTRACTED GTOS   2
                      NUMBER OF CLOSED SHELLS     0
                      OPEN SHELL OCCUPATION       1

  ZNUC  SCFIT    TOTAL HF ENERGY   KINETIC ENERGY   VIRIAL THEOREM ACCURACY
   1.0     1    -4.977266687E-01  5.190767460E-01 -1.958869132E+00  0.0E+00

 NUCLEAR CHARGE  6.0  SYMMETRY SPECIES            S    P
 N. ELECTRONS    6.0  NUMBER OF PRIMITIVE GTOS    8    4
                      NUMBER OF CONTRACTED GTOS   4    2
                      NUMBER OF CLOSED SHELLS     2    0
                      OPEN SHELL OCCUPATION       0    2

  ZNUC  SCFIT    TOTAL HF ENERGY   KINETIC ENERGY   VIRIAL THEOREM ACCURACY
   6.0     9    -3.766704647E+01  3.775180683E+01 -1.997754800E+00  1.1E-06

 NUCLEAR CHARGE  8.0  SYMMETRY SPECIES            S    P
 N. ELECTRONS    8.0  NUMBER OF PRIMITIVE GTOS    8    4
                      NUMBER OF CONTRACTED GTOS   4    2
                      NUMBER OF CLOSED SHELLS     2    0
                      OPEN SHELL OCCUPATION       0    4

  ZNUC  SCFIT    TOTAL HF ENERGY   KINETIC ENERGY   VIRIAL THEOREM ACCURACY
   8.0    12    -7.477373220E+01  7.477365593E+01 -2.000001020E+00  3.8E-06

 AAAAAAAAAAAAAAAAAAAAAAAAAAAAAAAAAAAAAAAAAAAAAAAAAAAAAAAAAAAAAAAAAAAAAAAAAAAAAAA

 CHARGE NORMALIZATION FACTOR   1.00000000
 TOTAL ATOMIC CHARGES:
   5.0000000   5.0000000   5.0000000   5.0000000   5.0000000   5.0000000
   1.0000000   1.0000000   1.0000000   1.0000000   1.0000000   1.0000000
   1.0000000   1.0000000   1.0000000   1.0000000   1.0000000   1.0000000
   6.0000000   6.0000000   6.0000000   6.0000000   6.0000000   6.0000000
   6.0000000   6.0000000   6.0000000   6.0000000   6.0000000   6.0000000
   6.0000000   6.0000000   6.0000000   6.0000000   6.0000000   6.0000000
   8.0000000   8.0000000   8.0000000   8.0000000   8.0000000   8.0000000
 TTTTTTTTTTTTTTTTTTTTTTTTTTTTTT MOQGAD      TELAPSE       10.78 TCPU       19.30
 TTTTTTTTTTTTTTTTTTTTTTTTTTTTTT SHELLXN     TELAPSE       19.19 TCPU      270.22
 TTTTTTTTTTTTTTTTTTTTTTTTTTTTTT MONMO3      TELAPSE       19.34 TCPU      275.11
 NUMERICALLY INTEGRATED DENSITY    197.9999013520
 TTTTTTTTTTTTTTTTTTTTTTTTTTTTTT NUMDFT      TELAPSE       19.97 TCPU      295.29
 CYC   0 ETOT(AU) -1.295955812646E+03 DETOT -1.30E+03 tst  0.00E+00 PX  1.00E+00
 TTTTTTTTTTTTTTTTTTTTTTTTTTTTTT DIIS        TELAPSE       20.01 TCPU      296.44
 TTTTTTTTTTTTTTTTTTTTTTTTTTTTTT FDIK        TELAPSE       20.51 TCPU      312.54
 INSULATING STATE
 TOP OF VALENCE BANDS -    BAND     99; K    1; EIG -3.1211594E-01 AU
 BOTTOM OF VIRTUAL BANDS - BAND    100; K   17; EIG -1.6852165E-01 AU
 INDIRECT ENERGY BAND GAP:   3.9074 eV
 BOTTOM OF VIRTUAL BANDS - BAND    100; K    1; EIG -1.5646838E-01 AU
 TTTTTTTTTTTTTTTTTTTTTTTTTTTTTT PDIG        TELAPSE       20.84 TCPU      318.73
 CHARGE NORMALIZATION FACTOR   1.00000000
 TOTAL ATOMIC CHARGES:
   4.1453276   4.1632905   4.1642307   4.1661697   4.1631438   4.1438367
   0.7853389   0.7853214   0.7847677   0.7847594   0.7857466   0.7856430
   0.7866168   0.7861809   0.7850931   0.7856424   0.7849473   0.7851695
   6.0450754   6.2668735   6.2668812   6.2662858   6.2650502   6.0473667
   6.0443176   6.2632667   6.2614434   6.2638528   6.2637675   6.0477621
   6.0442265   6.2669017   6.2678232   6.2658766   6.2674595   6.0417889
   8.6966170   8.6958395   8.6943351   8.6953545   8.6928844   8.6977240
 TTTTTTTTTTTTTTTTTTTTTTTTTTTTTT MOQGAD      TELAPSE       20.89 TCPU      318.77
 TTTTTTTTTTTTTTTTTTTTTTTTTTTTTT SHELLXN     TELAPSE       29.06 TCPU      579.30
 TTTTTTTTTTTTTTTTTTTTTTTTTTTTTT MONMO3      TELAPSE       29.21 TCPU      584.18
 NUMERICALLY INTEGRATED DENSITY    197.9999293154
 TTTTTTTTTTTTTTTTTTTTTTTTTTTTTT NUMDFT      TELAPSE       29.85 TCPU      604.66
 CYC   1 ETOT(AU) -1.288825215334E+03 DETOT  7.13E+00 tst  0.00E+00 PX  1.00E+00
 TTTTTTTTTTTTTTTTTTTTTTTTTTTTTT DIIS        TELAPSE       29.90 TCPU      606.22
 DIIS TEST: 0.10918E+01 AT SCF   CYCLE   1 - MIX   30 %
 TTTTTTTTTTTTTTTTTTTTTTTTTTTTTT FDIK        TELAPSE       30.41 TCPU      622.50
 INSULATING STATE
 TOP OF VALENCE BANDS -    BAND     99; K    1; EIG -2.2791123E-01 AU
 BOTTOM OF VIRTUAL BANDS - BAND    100; K   17; EIG -9.5755617E-02 AU
 INDIRECT ENERGY BAND GAP:   3.5961 eV
 BOTTOM OF VIRTUAL BANDS - BAND    100; K    1; EIG -7.8314820E-02 AU
 TTTTTTTTTTTTTTTTTTTTTTTTTTTTTT PDIG        TELAPSE       30.73 TCPU      628.68
 CHARGE NORMALIZATION FACTOR   1.00000000
 TOTAL ATOMIC CHARGES:
   4.6790667   4.6967052   4.6973110   4.6981790   4.6976688   4.6783237
   0.9061452   0.9066197   0.9153794   0.9155504   0.8961306   0.8957969
   0.8966992   0.8970072   0.9057125   0.9062443   0.9153412   0.9152468
   5.8707639   6.1428959   6.1412275   6.1385078   6.1401021   5.8666888
   5.8994007   6.1400528   6.1417313   6.1461824   6.1434385   5.8933171
   5.8715186   6.1383472   6.1410427   6.1404549   6.1374117   5.8731112
   8.3353928   8.3340644   8.3383301   8.3327472   8.3353495   8.3387930
 TTTTTTTTTTTTTTTTTTTTTTTTTTTTTT MOQGAD      TELAPSE       30.78 TCPU      628.73
 TTTTTTTTTTTTTTTTTTTTTTTTTTTTTT SHELLXN     TELAPSE       38.95 TCPU      889.31
 TTTTTTTTTTTTTTTTTTTTTTTTTTTTTT MONMO3      TELAPSE       39.10 TCPU      894.19
 NUMERICALLY INTEGRATED DENSITY    197.9999156855
 TTTTTTTTTTTTTTTTTTTTTTTTTTTTTT NUMDFT      TELAPSE       39.74 TCPU      914.62
 CYC   2 ETOT(AU) -1.289018442180E+03 DETOT -1.93E-01 tst  3.35E-03 PX  1.59E-01
 TTTTTTTTTTTTTTTTTTTTTTTTTTTTTT DIIS        TELAPSE       39.80 TCPU      916.30
 DIIS TEST: 0.44719E+00 AT SCF   CYCLE   2 - DIIS ACTIVE - HISTORY:     2 CYCLES
 TTTTTTTTTTTTTTTTTTTTTTTTTTTTTT FDIK        TELAPSE       40.30 TCPU      932.48
 INSULATING STATE
 TOP OF VALENCE BANDS -    BAND     99; K    1; EIG -2.3822748E-01 AU
 BOTTOM OF VIRTUAL BANDS - BAND    100; K   17; EIG -9.1451665E-02 AU
 INDIRECT ENERGY BAND GAP:   3.9940 eV
 BOTTOM OF VIRTUAL BANDS - BAND    100; K    1; EIG -7.4530158E-02 AU
 TTTTTTTTTTTTTTTTTTTTTTTTTTTTTT PDIG        TELAPSE       40.62 TCPU      938.65
 CHARGE NORMALIZATION FACTOR   1.00000000
 TOTAL ATOMIC CHARGES:
   4.4733874   4.4977346   4.4981470   4.4997075   4.4977846   4.4723692
   0.8864443   0.8863492   0.8928209   0.8930885   0.8787464   0.8785270
   0.8801219   0.8796226   0.8852169   0.8864067   0.8932279   0.8926100
   5.8952537   6.1633801   6.1639012   6.1564183   6.1561478   5.8966697
   5.9025943   6.1640487   6.1646974   6.1673311   6.1674153   5.9039217
   5.8957998   6.1633698   6.1636914   6.1569523   6.1578883   5.8953003
   8.5164868   8.5158989   8.5145027   8.5152633   8.5122004   8.5185541
 TTTTTTTTTTTTTTTTTTTTTTTTTTTTTT MOQGAD      TELAPSE       40.67 TCPU      938.70
 TTTTTTTTTTTTTTTTTTTTTTTTTTTTTT SHELLXN     TELAPSE       48.84 TCPU     1199.21
 TTTTTTTTTTTTTTTTTTTTTTTTTTTTTT MONMO3      TELAPSE       48.99 TCPU     1204.09
 NUMERICALLY INTEGRATED DENSITY    197.9999173101
 TTTTTTTTTTTTTTTTTTTTTTTTTTTTTT NUMDFT      TELAPSE       49.63 TCPU     1224.48
 CYC   3 ETOT(AU) -1.289110788165E+03 DETOT -9.23E-02 tst  6.40E-04 PX  6.49E-02
 TTTTTTTTTTTTTTTTTTTTTTTTTTTTTT DIIS        TELAPSE       49.68 TCPU     1226.30
 DIIS TEST: 0.14648E-01 AT SCF   CYCLE   3 - DIIS ACTIVE - HISTORY:     3 CYCLES
 TTTTTTTTTTTTTTTTTTTTTTTTTTTTTT FDIK        TELAPSE       50.19 TCPU     1242.49
 INSULATING STATE
 TOP OF VALENCE BANDS -    BAND     99; K   17; EIG -2.4944801E-01 AU
 TOP OF VALENCE BANDS -    BAND     99; K    1; EIG -2.4969055E-01 AU
 BOTTOM OF VIRTUAL BANDS - BAND    100; K   17; EIG -9.9960517E-02 AU
 DIRECT ENERGY BAND GAP:   4.0678 eV
 BOTTOM OF VIRTUAL BANDS - BAND    100; K    1; EIG -8.2191171E-02 AU
 TTTTTTTTTTTTTTTTTTTTTTTTTTTTTT PDIG        TELAPSE       50.52 TCPU     1248.67
 CHARGE NORMALIZATION FACTOR   1.00000000
 TOTAL ATOMIC CHARGES:
   4.4798075   4.5019608   4.5024322   4.5038818   4.5019718   4.4787112
   0.8690056   0.8693881   0.8751650   0.8754418   0.8599577   0.8598818
   0.8611511   0.8611038   0.8684101   0.8691747   0.8755328   0.8753655
   5.9405296   6.1719691   6.1704769   6.1685009   6.1685963   5.9384955
   5.9599388   6.1731721   6.1729934   6.1763358   6.1746197   5.9566524
   5.9405086   6.1695340   6.1714797   6.1693177   6.1677733   5.9401725
   8.4802923   8.4790747   8.4812835   8.4780893   8.4791261   8.4827244
 TTTTTTTTTTTTTTTTTTTTTTTTTTTTTT MOQGAD      TELAPSE       50.56 TCPU     1248.72
 TTTTTTTTTTTTTTTTTTTTTTTTTTTTTT SHELLXN     TELAPSE       58.73 TCPU     1509.23
 TTTTTTTTTTTTTTTTTTTTTTTTTTTTTT MONMO3      TELAPSE       58.88 TCPU     1514.10
 NUMERICALLY INTEGRATED DENSITY    197.9999182338
 TTTTTTTTTTTTTTTTTTTTTTTTTTTTTT NUMDFT      TELAPSE       59.52 TCPU     1534.51
 CYC   4 ETOT(AU) -1.289113938696E+03 DETOT -3.15E-03 tst  2.94E-05 PX  1.43E-02
 TTTTTTTTTTTTTTTTTTTTTTTTTTTTTT DIIS        TELAPSE       59.58 TCPU     1536.52
 DIIS TEST: 0.41379E-02 AT SCF   CYCLE   4 - DIIS ACTIVE - HISTORY:     4 CYCLES
 TTTTTTTTTTTTTTTTTTTTTTTTTTTTTT FDIK        TELAPSE       60.09 TCPU     1552.66
 INSULATING STATE
 TOP OF VALENCE BANDS -    BAND     99; K    1; EIG -2.4733188E-01 AU
 BOTTOM OF VIRTUAL BANDS - BAND    100; K   17; EIG -9.9518338E-02 AU
 INDIRECT ENERGY BAND GAP:   4.0222 eV
 BOTTOM OF VIRTUAL BANDS - BAND    100; K    1; EIG -8.2145747E-02 AU
 TTTTTTTTTTTTTTTTTTTTTTTTTTTTTT PDIG        TELAPSE       60.41 TCPU     1558.85
 CHARGE NORMALIZATION FACTOR   1.00000000
 TOTAL ATOMIC CHARGES:
   4.4816600   4.5038791   4.5044209   4.5057990   4.5041424   4.4806340
   0.8720339   0.8720823   0.8787678   0.8790009   0.8635349   0.8632822
   0.8647267   0.8644178   0.8710923   0.8721256   0.8791593   0.8787187
   5.9236779   6.1714073   6.1713664   6.1663767   6.1663640   5.9237723
   5.9389810   6.1716339   6.1724673   6.1751064   6.1745868   5.9386946
   5.9241303   6.1703764   6.1712166   6.1668182   6.1669027   5.9241056
   8.4911164   8.4902373   8.4903430   8.4894729   8.4879737   8.4933947
 TTTTTTTTTTTTTTTTTTTTTTTTTTTTTT MOQGAD      TELAPSE       60.46 TCPU     1558.89
 TTTTTTTTTTTTTTTTTTTTTTTTTTTTTT SHELLXN     TELAPSE       68.63 TCPU     1819.42
 TTTTTTTTTTTTTTTTTTTTTTTTTTTTTT MONMO3      TELAPSE       68.78 TCPU     1824.31
 NUMERICALLY INTEGRATED DENSITY    197.9999181866
 TTTTTTTTTTTTTTTTTTTTTTTTTTTTTT NUMDFT      TELAPSE       69.42 TCPU     1844.72
 CYC   5 ETOT(AU) -1.289114887871E+03 DETOT -9.49E-04 tst  8.17E-06 PX  6.66E-03
 TTTTTTTTTTTTTTTTTTTTTTTTTTTTTT DIIS        TELAPSE       69.49 TCPU     1847.02
 DIIS TEST: 0.52464E-04 AT SCF   CYCLE   5 - DIIS ACTIVE - HISTORY:     5 CYCLES
 TTTTTTTTTTTTTTTTTTTTTTTTTTTTTT FDIK        TELAPSE       70.00 TCPU     1863.26
 INSULATING STATE
 TOP OF VALENCE BANDS -    BAND     99; K    1; EIG -2.4712588E-01 AU
 BOTTOM OF VIRTUAL BANDS - BAND    100; K   17; EIG -9.9012799E-02 AU
 INDIRECT ENERGY BAND GAP:   4.0304 eV
 BOTTOM OF VIRTUAL BANDS - BAND    100; K    1; EIG -8.1729255E-02 AU
 TTTTTTTTTTTTTTTTTTTTTTTTTTTTTT PDIG        TELAPSE       70.32 TCPU     1869.44
 CHARGE NORMALIZATION FACTOR   1.00000000
 TOTAL ATOMIC CHARGES:
   4.4815627   4.5039097   4.5043878   4.5058040   4.5040164   4.4804764
   0.8728659   0.8731397   0.8795152   0.8797942   0.8643596   0.8642856
   0.8655763   0.8654290   0.8721261   0.8729824   0.8798504   0.8795961
   5.9243809   6.1710257   6.1699027   6.1658303   6.1658860   5.9232364
   5.9392296   6.1719093   6.1716158   6.1750779   6.1738157   5.9368718
   5.9245253   6.1691226   6.1707119   6.1668396   6.1656874   5.9239094
   8.4905512   8.4895602   8.4906319   8.4886101   8.4884970   8.4928938
 TTTTTTTTTTTTTTTTTTTTTTTTTTTTTT MOQGAD      TELAPSE       70.37 TCPU     1869.49
 TTTTTTTTTTTTTTTTTTTTTTTTTTTTTT SHELLXN     TELAPSE       78.54 TCPU     2130.02
 TTTTTTTTTTTTTTTTTTTTTTTTTTTTTT MONMO3      TELAPSE       78.69 TCPU     2134.90
 NUMERICALLY INTEGRATED DENSITY    197.9999181182
 TTTTTTTTTTTTTTTTTTTTTTTTTTTTTT NUMDFT      TELAPSE       79.33 TCPU     2155.27
 CYC   6 ETOT(AU) -1.289114902503E+03 DETOT -1.46E-05 tst  8.74E-08 PX  6.73E-04
 TTTTTTTTTTTTTTTTTTTTTTTTTTTTTT DIIS        TELAPSE       79.40 TCPU     2157.62
 DIIS TEST: 0.45077E-05 AT SCF   CYCLE   6 - DIIS ACTIVE - HISTORY:     6 CYCLES
 TTTTTTTTTTTTTTTTTTTTTTTTTTTTTT FDIK        TELAPSE       79.91 TCPU     2173.75
 INSULATING STATE
 TOP OF VALENCE BANDS -    BAND     99; K    1; EIG -2.4713837E-01 AU
 BOTTOM OF VIRTUAL BANDS - BAND    100; K   17; EIG -9.9102891E-02 AU
 INDIRECT ENERGY BAND GAP:   4.0283 eV
 BOTTOM OF VIRTUAL BANDS - BAND    100; K    1; EIG -8.1751497E-02 AU
 TTTTTTTTTTTTTTTTTTTTTTTTTTTTTT PDIG        TELAPSE       80.23 TCPU     2179.93
 CHARGE NORMALIZATION FACTOR   1.00000000
 TOTAL ATOMIC CHARGES:
   4.4815858   4.5040024   4.5045360   4.5059433   4.5042115   4.4805494
   0.8729174   0.8729886   0.8795171   0.8797601   0.8643791   0.8641177
   0.8655675   0.8652815   0.8719939   0.8730124   0.8799260   0.8794767
   5.9236657   6.1706724   6.1705856   6.1658018   6.1657228   5.9235890
   5.9388160   6.1710078   6.1719329   6.1745630   6.1738755   5.9384264
   5.9239740   6.1695805   6.1705183   6.1661495   6.1662887   5.9241045
   8.4908262   8.4898761   8.4901952   8.4891471   8.4878178   8.4930969
 TTTTTTTTTTTTTTTTTTTTTTTTTTTTTT MOQGAD      TELAPSE       80.28 TCPU     2179.98
 TTTTTTTTTTTTTTTTTTTTTTTTTTTTTT SHELLXN     TELAPSE       88.45 TCPU     2440.43
 TTTTTTTTTTTTTTTTTTTTTTTTTTTTTT MONMO3      TELAPSE       88.60 TCPU     2445.31
 NUMERICALLY INTEGRATED DENSITY    197.9999181182
 TTTTTTTTTTTTTTTTTTTTTTTTTTTTTT NUMDFT      TELAPSE       89.24 TCPU     2465.71
 CYC   7 ETOT(AU) -1.289114902997E+03 DETOT -4.94E-07 tst  2.58E-08 PX  3.20E-04
 TTTTTTTTTTTTTTTTTTTTTTTTTTTTTT DIIS        TELAPSE       89.32 TCPU     2468.35
 DIIS TEST: 0.12881E-05 AT SCF   CYCLE   7 - DIIS ACTIVE - HISTORY:     7 CYCLES
 TTTTTTTTTTTTTTTTTTTTTTTTTTTTTT FDIK        TELAPSE       89.83 TCPU     2484.56
 INSULATING STATE
 TOP OF VALENCE BANDS -    BAND     99; K    1; EIG -2.4714790E-01 AU
 BOTTOM OF VIRTUAL BANDS - BAND    100; K   17; EIG -9.9108869E-02 AU
 INDIRECT ENERGY BAND GAP:   4.0283 eV
 BOTTOM OF VIRTUAL BANDS - BAND    100; K    1; EIG -8.1761479E-02 AU
 TTTTTTTTTTTTTTTTTTTTTTTTTTTTTT PDIG        TELAPSE       90.15 TCPU     2490.74
 CHARGE NORMALIZATION FACTOR   1.00000000
 TOTAL ATOMIC CHARGES:
   4.4816658   4.5040175   4.5045259   4.5059245   4.5041894   4.4806106
   0.8728536   0.8730112   0.8794977   0.8797503   0.8642948   0.8641349
   0.8655121   0.8652713   0.8720060   0.8729586   0.8798617   0.8795130
   5.9238805   6.1708664   6.1702994   6.1657717   6.1658251   5.9234057
   5.9391282   6.1714454   6.1716872   6.1747097   6.1738888   5.9378446
   5.9242494   6.1694265   6.1705976   6.1665162   6.1659689   5.9238577
   8.4907373   8.4898252   8.4903521   8.4889528   8.4881010   8.4930634
 TTTTTTTTTTTTTTTTTTTTTTTTTTTTTT MOQGAD      TELAPSE       90.20 TCPU     2490.79
 TTTTTTTTTTTTTTTTTTTTTTTTTTTTTT SHELLXN     TELAPSE       98.36 TCPU     2751.30
 +++ ENERGIES IN A.U. +++
 ::: EXT EL-POLE                                  -1.4420440153924E+03
 ::: EXT EL-SPHEROPOLE                             1.5911127045147E+01
 ::: BIELET ZONE E-E                               2.1543138351845E+03
 ::: TOTAL E-E                                     7.2818094683721E+02
 ::: TOTAL E-N + N-E                              -3.2828408676156E+03
 ::: TOTAL N-N                                     1.1934618725913E+02
 ::: KINETIC ENERGY                                1.2799123967101E+03
 ::: PSEUDO TOTAL   ENERGY                        -1.1554013368092E+03
 ::: VIRIAL COEFFICIENT                            1.0511273180893E+00
 TTTTTTTTTTTTTTTTTTTTTTTTTTTTTT MONMO3      TELAPSE       98.52 TCPU     2756.19
 NUMERICALLY INTEGRATED DENSITY    197.9999181171
 EXCHANGE ENERGY: -0.126020067845E+03  CORRELATION ENERGY: -0.769349857122E+01
 TTTTTTTTTTTTTTTTTTTTTTTTTTTTTT NUMDFT      TELAPSE       99.15 TCPU     2776.57
 CYC   8 ETOT(AU) -1.289114903226E+03 DETOT -2.28E-07 tst  5.44E-09 PX  3.20E-04

 == SCF ENDED - CONVERGENCE ON ENERGY      E(AU) -1.2891149032257E+03 CYCLES   8


 ENERGY EXPRESSION=HARTREE+FOCK EXCH*0.00000+(HSESOL     EXCH)*1.00000+PBESOL     CORR


 TOTAL ENERGY(DFT)(AU)(  8) -1.2891149032257E+03 DE-2.3E-07 tester 5.4E-09
 TTTTTTTTTTTTTTTTTTTTTTTTTTTTTT EDFT        TELAPSE       99.15 TCPU     2776.58
 
 INFORMATION **** DFTD3 ENERGY **** CALCULATE DFTD3 ENERGY

           DFT-D V3(BJ)
 DF                                         hsesol3c  
 parameters
 s6       :    1.0000
 s8       :    0.0000
 a1       :    0.5196
 a2       :    4.9385
 k1 k3    :   16.0000   -4.0000
 Cutoff   :   50.2022
 CN-Cutoff:   21.1671
 ABC-Cutoff:   21.1671
 
 Edisp /kcal,au:   -26.4635 -0.04217225

 E6    /kcal :   -28.0616
 E8    /kcal :     0.0000
 E6(ABC) "   :   1.598061
 
 INFORMATION **** DFTD3 ENERGY **** NORMAL TERMINATION OF DFTD3 MODULE

 GCP ENERGY CALCULATION
  level        hsesol3c            basis:hsesol3c
  Nbf            474
  Atoms           42

  Parameters: 
  sigma     1.0000
  eta       1.4281
  alpha     0.2936
  beta      1.9467

  dmp_scal      4.0000
  dmp_exp       6.0000
 cutoffs: 
   distance [bohr] 60.0
   noise    [a.u.] 2.2E-16
 SR-damping   T
 ** gCP correction **
  Egcp:        0.0831774941 / (a.u.) ||      52.1947 / (kcal/mol)
 INFORMATION **** GCP **** NORMAL TERMINATION OF GCP MODULE

 *******************************************************************************

 DFT-D3-GCP DISPERSION AND COUNTERPOISE CORRECTION

 D3 DISPERSION ENERGY (AU)      -4.2172250192504E-02
 GCP ENERGY (AU)                 8.3177494139281E-02
 TOTAL ENERGY + DISP + GCP (AU) -1.2890738979817E+03

 *******************************************************************************

 EIGENVECTORS IN FORTRAN UNIT  8
 TTTTTTTTTTTTTTTTTTTTTTTTTTTTTT END         TELAPSE      100.74 TCPU     2784.13
 EEEEEEEEEE TERMINATION  DATE 02 12 2025 TIME 08:02:18.0
