 Default number of threads is:           32

         
 *******************************************************************************
 *                                                                             *
 *                               CRYSTAL23                                     *
 *                      public : 1.0.1 - October 2022                          *
 *                       HTTP://WWW.CRYSTAL.UNITO.IT                           *
 *                                                                             *
 *                              MAIN AUTHORS                                   *
 *                                                                             *
 *  R. DOVESI(1,11), V.R. SAUNDERS(2), C. ROETTI(1,11), R. ORLANDO(1,11),      *
 *  C.M. ZICOVICH-WILSON(1,3), F. PASCALE(4), B. CIVALLERI(1,11),              *
 *  K. DOLL(5), N.M. HARRISON(6), I.J. BUSH(7), Ph. D'ARCO(8),                 *
 *  M. LLUNELL(9), M. CAUSA'(10), Y. NOEL(8), L. MASCHIO(1,11), A. ERBA(1,11)  *
 *  M. RE'RAT(14), S. CASASSA(1,11), B.G. SEARLE(2), J.K. DESMARAIS(1)         *
 *                                                                             *
 *        CONTRIBUTIONS TO THE CODE HAVE ALSO BEEN GIVEN BY                    *
 *                                                                             *
 *  M. FERRABONE(1,11), M. DE LA PIERRE(1,11), M. FERRERO(1,11),               *
 *  J. BAIMA(1,11), E. ALBANESE(1,11), M.F. PEINTINGER(12), R. BAST(13),       *
 *  B. KIRTMAN(15), V. LACIVITA(1,11), R. DEMICHELIS(1,16)                     *
 *  G. BRANDEBURG(17), S. SALUSTRO(1,11), G. SANSONE(1,11)                     *
 *  M.T. RUGGIERO(18), L.E. DAGA(1), L. DONA'(1), A. COSSARD(1)                *
 *                                                                             *
 * (1) THEORETICAL CHEMISTRY GROUP - UNIVERSITA' DI TORINO - TORINO (ITALY)    *
 * (2) SCIENTIFIC COMPUTING DEPARTMENT - STFC DARESBURY (UK)                   *
 * (3) UNIVERSIDAD AUTONOMA DEL ESTADO DE MORELOS - CUERNAVACA (MEXICO)        *
 * (4) UNIVERSITE' DE LORRAINE - NANCY (FRANCE)                                *
 * (5) UNIVERSITAET STUTTGART- STUTTGART (GERMANY)                             *
 * (6) IMPERIAL COLLEGE - LONDON (UK)                                          *
 * (7) SCIENTIFIC COMPUTING DEPARTMENT - STFC RAL (UK)                         *
 * (8) UPMC - SORBONNE UNIVERSITES - PARIS (FRANCE)                            *
 * (9) UNIVERSIDAD DE BARCELONA - BARCELONA (SPAIN)                            *
 *(10) UNIVERSITA' DI NAPOLI "FEDERICO II" - NAPOLI (ITALY)                    *
 *(11) NIS - NANOSTRUCTURED INTERFACES AND SURFACES - TORINO (ITALY)           *
 *(12) MPI FUER CHEMISCHE ENERGIEKONVERSION - MUELHEIM AN DER RUHR (GERMANY)   *
 *(13) UNIVERSITY OF TROMSO - TROMSO (NORWAY)                                  *
 *(14) UNIVERSITE' DE PAU ET DES PAYS DE L'ADOUR - PAU (FRANCE)                *
 *(15) UNIVERSITY OF CALIFORNIA SANTA BARBARA - SANTA BARBARA (USA)            *
 *(16) CURTIN UNIVERSITY - PERTH (AUSTRALIA)                                   *
 *(17) UNIVERSITY COLLEGE LONDON - LONDON (UK)                                 *
 *(18) UNIVERSITY OF VERMONT - BURLINGTON (USA)                                *
 *                                                                             *
 *******************************************************************************
 EEEEEEEEEE STARTING  DATE 19 02 2026 TIME 18:54:38.3
 cof-1_z38_L000_incl                                                             

 CRYSTAL CALCULATION
 (INPUT ACCORDING TO THE INTERNATIONAL TABLES FOR X-RAY CRYSTALLOGRAPHY)
 CRYSTAL FAMILY                       :  TRICLINIC   
 CRYSTAL CLASS  (GROTH - 1921)        :  TRICLINIC PEDIAL                     

 SPACE GROUP (NONCENTROSYMMETRIC)     :  P 1             

 LATTICE PARAMETERS  (ANGSTROMS AND DEGREES) - CONVENTIONAL CELL
        A           B           C        ALPHA        BETA       GAMMA
    15.02361    15.02392     3.80000    90.00032    89.99994   119.99596


 NUMBER OF IRREDUCIBLE ATOMS IN THE CONVENTIONAL CELL:   42

 INPUT COORDINATES

 ATOM AT. N.              COORDINATES
   1   5     6.136805400000E-01  2.273182200000E-01  5.012570300000E-01
   2   5     7.727362000000E-01  3.863778800000E-01  5.012570500000E-01
   3   5     6.136762700000E-01  3.863606700000E-01  4.986141000000E-01
   4   5     2.272552500000E-01  6.136332200000E-01  5.012570500000E-01
   5   5     3.863632200000E-01  6.136124500000E-01  5.012570400000E-01
   6   5     3.863435000000E-01  7.727516500000E-01  4.986141000000E-01
   7   1     9.030436200000E-01  3.089300500000E-01  4.957776900000E-01
   8   1     9.663453000000E-02  6.910534400000E-01  4.949398000000E-01
   9   1     9.029714200000E-01  5.940724300000E-01  4.948108500000E-01
  10   1     9.673618000000E-02  4.056849400000E-01  4.948430100000E-01
  11   1     6.910324000000E-01  9.700412000000E-02  5.042223500000E-01
  12   1     3.089297200000E-01  9.034373100000E-01  5.050602900000E-01
  13   1     4.058699900000E-01  9.704998000000E-02  5.051893200000E-01
  14   1     5.943122100000E-01  9.033473200000E-01  5.051569400000E-01
  15   1     6.910727400000E-01  5.940542100000E-01  4.957777400000E-01
  16   1     3.089618300000E-01  4.056093300000E-01  4.949397500000E-01
  17   1     4.058405700000E-01  3.088232500000E-01  4.948107500000E-01
  18   1     5.942908800000E-01  6.909579300000E-01  4.948431100000E-01
  19   6     8.918903100000E-01  4.459436900000E-01  4.985174000000E-01
  20   6     9.464891100000E-01  3.927856300000E-01  4.959066300000E-01
  21   6     5.338812000000E-02  6.071853000000E-01  4.956811000000E-01
  22   6     9.464521100000E-01  5.536921900000E-01  4.963579500000E-01
  23   6     5.342634000000E-02  4.462499700000E-01  4.946173900000E-01
  24   6     1.080358900000E-01  5.540356300000E-01  4.963901500000E-01
  25   6     5.540394200000E-01  1.081684600000E-01  5.014826700000E-01
  26   6     6.071778500000E-01  5.355594000000E-02  5.040933900000E-01
  27   6     3.927986700000E-01  9.466631600000E-01  5.043190100000E-01
  28   6     4.462875800000E-01  5.360286000000E-02  5.036421800000E-01
  29   6     5.537168500000E-01  9.466235600000E-01  5.053826100000E-01
  30   6     4.459279100000E-01  8.919920600000E-01  5.036099100000E-01
  31   6     5.540448700000E-01  4.458745500000E-01  4.985173900000E-01
  32   6     6.072102200000E-01  5.536257800000E-01  4.959066900000E-01
  33   6     3.928233700000E-01  4.461720300000E-01  4.956810400000E-01
  34   6     4.462872600000E-01  3.926899900000E-01  4.963578700000E-01
  35   6     5.537429600000E-01  6.070980000000E-01  4.946174600000E-01
  36   6     4.459599800000E-01  5.539582300000E-01  4.963901500000E-01
  37   8     5.607366800000E-01  2.803706300000E-01  4.993231700000E-01
  38   8     7.196817000000E-01  2.803783300000E-01  5.048991400000E-01
  39   8     7.196794200000E-01  4.393234600000E-01  4.964868600000E-01
  40   8     2.803245100000E-01  7.196511100000E-01  4.993232000000E-01
  41   8     2.803439700000E-01  5.606956100000E-01  5.048991400000E-01
  42   8     4.392638400000E-01  7.196354200000E-01  4.964868400000E-01

 *******************************************************************************

 << INFORMATION >>: FROM NOW ON, ALL COORDINATES REFER TO THE PRIMITIVE CELL

 *******************************************************************************

 LATTICE PARAMETERS  (ANGSTROMS AND DEGREES) - PRIMITIVE CELL
       A          B          C        ALPHA      BETA     GAMMA        VOLUME
   15.02361   15.02392    3.80000    90.00032  89.99994 119.99596    742.829883

 COORDINATES OF THE EQUIVALENT ATOMS (FRACTIONAL UNITS)

 N. ATOM EQUIV AT. N.          X                  Y                  Z

   1   1   1    5 B    -3.86319460000E-01  2.27318220000E-01 -4.98742970000E-01

   2   2   1    5 B    -2.27263800000E-01  3.86377880000E-01 -4.98742950000E-01

   3   3   1    5 B    -3.86323730000E-01  3.86360670000E-01  4.98614100000E-01

   4   4   1    5 B     2.27255250000E-01 -3.86366780000E-01 -4.98742950000E-01

   5   5   1    5 B     3.86363220000E-01 -3.86387550000E-01 -4.98742960000E-01

   6   6   1    5 B     3.86343500000E-01 -2.27248350000E-01  4.98614100000E-01

   7   7   1    1 H    -9.69563800000E-02  3.08930050000E-01  4.95777690000E-01

   8   8   1    1 H     9.66345300000E-02 -3.08946560000E-01  4.94939800000E-01

   9   9   1    1 H    -9.70285800000E-02 -4.05927570000E-01  4.94810850000E-01

  10  10   1    1 H     9.67361800000E-02  4.05684940000E-01  4.94843010000E-01

  11  11   1    1 H    -3.08967600000E-01  9.70041200000E-02 -4.95777650000E-01

  12  12   1    1 H     3.08929720000E-01 -9.65626900000E-02 -4.94939710000E-01

  13  13   1    1 H     4.05869990000E-01  9.70499800000E-02 -4.94810680000E-01

  14  14   1    1 H    -4.05687790000E-01 -9.66526800000E-02 -4.94843060000E-01

  15  15   1    1 H    -3.08927260000E-01 -4.05945790000E-01  4.95777740000E-01

  16  16   1    1 H     3.08961830000E-01  4.05609330000E-01  4.94939750000E-01

  17  17   1    1 H     4.05840570000E-01  3.08823250000E-01  4.94810750000E-01

  18  18   1    1 H    -4.05709120000E-01 -3.09042070000E-01  4.94843110000E-01

  19  19   1    6 C    -1.08109690000E-01  4.45943690000E-01  4.98517400000E-01

  20  20   1    6 C    -5.35108900000E-02  3.92785630000E-01  4.95906630000E-01

  21  21   1    6 C     5.33881200000E-02 -3.92814700000E-01  4.95681100000E-01

  22  22   1    6 C    -5.35478900000E-02 -4.46307810000E-01  4.96357950000E-01

  23  23   1    6 C     5.34263400000E-02  4.46249970000E-01  4.94617390000E-01

  24  24   1    6 C     1.08035890000E-01 -4.45964370000E-01  4.96390150000E-01

  25  25   1    6 C    -4.45960580000E-01  1.08168460000E-01 -4.98517330000E-01

  26  26   1    6 C    -3.92822150000E-01  5.35559400000E-02 -4.95906610000E-01

  27  27   1    6 C     3.92798670000E-01 -5.33368400000E-02 -4.95680990000E-01

  28  28   1    6 C     4.46287580000E-01  5.36028600000E-02 -4.96357820000E-01

  29  29   1    6 C    -4.46283150000E-01 -5.33764400000E-02 -4.94617390000E-01

  30  30   1    6 C     4.45927910000E-01 -1.08007940000E-01 -4.96390090000E-01

  31  31   1    6 C    -4.45955130000E-01  4.45874550000E-01  4.98517390000E-01

  32  32   1    6 C    -3.92789780000E-01 -4.46374220000E-01  4.95906690000E-01

  33  33   1    6 C     3.92823370000E-01  4.46172030000E-01  4.95681040000E-01

  34  34   1    6 C     4.46287260000E-01  3.92689990000E-01  4.96357870000E-01

  35  35   1    6 C    -4.46257040000E-01 -3.92902000000E-01  4.94617460000E-01

  36  36   1    6 C     4.45959980000E-01 -4.46041770000E-01  4.96390150000E-01

  37  37   1    8 O    -4.39263320000E-01  2.80370630000E-01  4.99323170000E-01

  38  38   1    8 O    -2.80318300000E-01  2.80378330000E-01 -4.95100860000E-01

  39  39   1    8 O    -2.80320580000E-01  4.39323460000E-01  4.96486860000E-01

  40  40   1    8 O     2.80324510000E-01 -2.80348890000E-01  4.99323200000E-01

  41  41   1    8 O     2.80343970000E-01 -4.39304390000E-01 -4.95100860000E-01

  42  42   1    8 O     4.39263840000E-01 -2.80364580000E-01  4.96486840000E-01

 NUMBER OF SYMMETRY OPERATORS         :    1
 *******************************************************************************
 * GEOMETRY EDITING - INPUT COORDINATES ARE GIVEN IN ANGSTROM         
 *******************************************************************************

 GCALCO - MAX INDICES DIRECT LATTICE VECTOR     9     9    34
 NO.OF VECTORS CREATED 6999 STARS 3500 RMAX   203.02854 BOHR

 GEOMETRY FOR WAVE FUNCTION - DIMENSIONALITY OF THE SYSTEM    3
 (NON PERIODIC DIRECTION: LATTICE PARAMETER FORMALLY SET TO 500)
 *******************************************************************************
 LATTICE PARAMETERS (ANGSTROMS AND DEGREES) - BOHR = 0.5291772083 ANGSTROM
 PRIMITIVE CELL - CENTRING CODE 1/0 VOLUME=   742.829883 - DENSITY  0.872 g/cm^3
         A              B              C           ALPHA      BETA       GAMMA 
    15.02361100    15.02391600     3.80000000    90.000323  89.999944 119.995964
 *******************************************************************************
 ATOMS IN THE ASYMMETRIC UNIT   42 - ATOMS IN THE UNIT CELL:   42
     ATOM                 X/A                 Y/B                 Z/C    
 *******************************************************************************
      1 T   5 B    -3.863194600000E-01  2.273182200000E-01 -4.987429700000E-01
      2 T   5 B    -2.272638000000E-01  3.863778800000E-01 -4.987429500000E-01
      3 T   5 B    -3.863237300000E-01  3.863606700000E-01  4.986141000000E-01
      4 T   5 B     2.272552500000E-01 -3.863667800000E-01 -4.987429500000E-01
      5 T   5 B     3.863632200000E-01 -3.863875500000E-01 -4.987429600000E-01
      6 T   5 B     3.863435000000E-01 -2.272483500000E-01  4.986141000000E-01
      7 T   1 H    -9.695638000000E-02  3.089300500000E-01  4.957776900000E-01
      8 T   1 H     9.663453000000E-02 -3.089465600000E-01  4.949398000000E-01
      9 T   1 H    -9.702858000000E-02 -4.059275700000E-01  4.948108500000E-01
     10 T   1 H     9.673618000000E-02  4.056849400000E-01  4.948430100000E-01
     11 T   1 H    -3.089676000000E-01  9.700412000000E-02 -4.957776500000E-01
     12 T   1 H     3.089297200000E-01 -9.656269000000E-02 -4.949397100000E-01
     13 T   1 H     4.058699900000E-01  9.704998000000E-02 -4.948106800000E-01
     14 T   1 H    -4.056877900000E-01 -9.665268000000E-02 -4.948430600000E-01
     15 T   1 H    -3.089272600000E-01 -4.059457900000E-01  4.957777400000E-01
     16 T   1 H     3.089618300000E-01  4.056093300000E-01  4.949397500000E-01
     17 T   1 H     4.058405700000E-01  3.088232500000E-01  4.948107500000E-01
     18 T   1 H    -4.057091200000E-01 -3.090420700000E-01  4.948431100000E-01
     19 T   6 C    -1.081096900000E-01  4.459436900000E-01  4.985174000000E-01
     20 T   6 C    -5.351089000000E-02  3.927856300000E-01  4.959066300000E-01
     21 T   6 C     5.338812000000E-02 -3.928147000000E-01  4.956811000000E-01
     22 T   6 C    -5.354789000000E-02 -4.463078100000E-01  4.963579500000E-01
     23 T   6 C     5.342634000000E-02  4.462499700000E-01  4.946173900000E-01
     24 T   6 C     1.080358900000E-01 -4.459643700000E-01  4.963901500000E-01
     25 T   6 C    -4.459605800000E-01  1.081684600000E-01 -4.985173300000E-01
     26 T   6 C    -3.928221500000E-01  5.355594000000E-02 -4.959066100000E-01
     27 T   6 C     3.927986700000E-01 -5.333684000000E-02 -4.956809900000E-01
     28 T   6 C     4.462875800000E-01  5.360286000000E-02 -4.963578200000E-01
     29 T   6 C    -4.462831500000E-01 -5.337644000000E-02 -4.946173900000E-01
     30 T   6 C     4.459279100000E-01 -1.080079400000E-01 -4.963900900000E-01
     31 T   6 C    -4.459551300000E-01  4.458745500000E-01  4.985173900000E-01
     32 T   6 C    -3.927897800000E-01 -4.463742200000E-01  4.959066900000E-01
     33 T   6 C     3.928233700000E-01  4.461720300000E-01  4.956810400000E-01
     34 T   6 C     4.462872600000E-01  3.926899900000E-01  4.963578700000E-01
     35 T   6 C    -4.462570400000E-01 -3.929020000000E-01  4.946174600000E-01
     36 T   6 C     4.459599800000E-01 -4.460417700000E-01  4.963901500000E-01
     37 T   8 O    -4.392633200000E-01  2.803706300000E-01  4.993231700000E-01
     38 T   8 O    -2.803183000000E-01  2.803783300000E-01 -4.951008600000E-01
     39 T   8 O    -2.803205800000E-01  4.393234600000E-01  4.964868600000E-01
     40 T   8 O     2.803245100000E-01 -2.803488900000E-01  4.993232000000E-01
     41 T   8 O     2.803439700000E-01 -4.393043900000E-01 -4.951008600000E-01
     42 T   8 O     4.392638400000E-01 -2.803645800000E-01  4.964868400000E-01

 T = ATOM BELONGING TO THE ASYMMETRIC UNIT

 ****    1 SYMMOPS - TRANSLATORS IN FRACTIONAL UNITS
 **** MATRICES AND TRANSLATORS IN THE CRYSTALLOGRAPHIC REFERENCE FRAME
   V INV                    ROTATION MATRICES                   TRANSLATORS
   1   1  1.00  0.00  0.00  0.00  1.00  0.00  0.00  0.00  1.00  0.00  0.00  0.00

 DIRECT LATTICE VECTORS CARTESIAN COMPONENTS (ANGSTROM)
          X                    Y                    Z
   0.130113578931E+02  -0.751088897922E+01   0.000000000000E+00
   0.000000000000E+00   0.150239160000E+02   0.000000000000E+00
  -0.807763096838E-05  -0.214221712381E-04   0.379999999993E+01


 CARTESIAN COORDINATES - PRIMITIVE CELL
 *******************************************************************************
 *      ATOM          X(ANGSTROM)         Y(ANGSTROM)         Z(ANGSTROM)
 *******************************************************************************
    1     5 B    -5.026536726451E+00  6.316823101278E+00 -1.895223285966E+00
    2     5 B    -2.957006609275E+00  7.511872668330E+00 -1.895223209966E+00
    3     5 B    -5.026600341231E+00 -6.317641783546E+00  1.894733579966E+00
    4     5 B     2.956903419488E+00 -7.511620316448E+00 -1.895223209966E+00
    5     5 B     5.027114160795E+00  6.316941338439E+00 -1.895223247966E+00
    6     5 B     5.026849520535E+00 -6.315953939277E+00  1.894733579966E+00
    7     1 H    -1.261538164904E+00  5.369557106448E+00  1.883955221966E+00
    8     1 H     1.257342456716E+00 -5.367408995003E+00  1.880771239966E+00
    9     1 H    -1.262477577135E+00 -5.369861421496E+00  1.880281229966E+00
   10     1 H     1.258665062028E+00  5.368391152160E+00  1.880403437966E+00
   11     1 H    -4.020084016250E+00  3.778013712943E+00 -1.883955069966E+00
   12     1 H     4.019599148662E+00 -3.771075969911E+00 -1.880770897966E+00
   13     1 H     5.280923694839E+00 -1.590363087645E+00 -1.880280583966E+00
   14     1 H    -5.278545031374E+00  1.594984806032E+00 -1.880403627966E+00
   15     1 H    -4.019567147491E+00 -3.778587717636E+00  1.883955411966E+00
   16     1 H     4.020008947483E+00  3.773251896107E+00  1.880771049966E+00
   17     1 H     5.280532906893E+00  1.591500502394E+00  1.880280849966E+00
   18     1 H    -5.278830557957E+00 -1.595796542584E+00  1.880403817966E+00
   19     6 C    -1.406657895137E+00  7.511809739132E+00  1.894366119966E+00
   20     6 C    -6.962533467167E-01  6.303082041699E+00  1.884445193966E+00
   21     6 C     6.946479326284E-01 -6.302617917060E+00  1.883588179966E+00
   22     6 C    -6.967347706044E-01 -6.303109423788E+00  1.886160209966E+00
   23     6 C     6.951452353194E-01  6.303132160198E+00  1.879546081966E+00
   24     6 C     1.405689620428E+00 -7.511587443189E+00  1.886282569966E+00
   25     6 C     7.208809207321E+00 -2.536204037517E+00 -1.894365853966E+00
   26     6 C    -5.111145576219E+00  3.755074124484E+00 -1.884445117966E+00
   27     6 C     5.110848079215E+00 -3.751584786856E+00 -1.883587761966E+00
   28     6 C     5.806811436001E+00 -2.546680967121E+00 -1.886159715966E+00
   29     6 C    -5.806745790954E+00  2.550070637784E+00 -1.879546081966E+00
   30     6 C     5.802131641169E+00 -4.972006608884E+00 -1.886282341966E+00
   31     6 C     7.208872065542E+00  2.537401598338E+00  1.894366081966E+00
   32     6 C    -5.110732410066E+00 -3.756098979493E+00  1.884445421966E+00
   33     6 C     5.111161451898E+00  3.752787761194E+00  1.883587951966E+00
   34     6 C     5.806799253576E+00  2.547716728039E+00  1.886159905966E+00
   35     6 C    -5.806414055073E+00 -2.551150156378E+00  1.879546347966E+00
   36     6 C     5.802540896104E+00  4.973055382320E+00  1.886282569966E+00
   37     8 O     7.295941593896E+00  6.231473462040E-04  1.897428045966E+00
   38     8 O    -3.647317726031E+00  6.317830714418E+00 -1.881383267966E+00
   39     8 O    -3.647355401607E+00 -6.318111120988E+00  1.886650067966E+00
   40     8 O     3.647398492457E+00 -6.317435143404E+00  1.897428159966E+00
   41     8 O     3.647659726072E+00  6.318221917681E+00 -1.881383267966E+00
   42     8 O    -7.295942871776E+00 -5.574907292270E-04  1.886649991966E+00

 *******************************************************************************
 STARTING BASIS SET HANDLING 
 *******************************************************************************

 Loading internal basis set: SOLDEF2MSVP         

 Please cite in your publication:
 L. Dona', J. G. Brandenburg and B. Civalleri, J. Chem. Phys., 151, 121101 (2019
 )                                                                              
                                                                                
                    

 *******************************************************************************
 LOCAL ATOMIC FUNCTIONS BASIS SET
 *******************************************************************************
   ATOM   X(AU)   Y(AU)   Z(AU)  N. TYPE  EXPONENT  S COEF   P COEF   D/F/G COEF
 *******************************************************************************
   1 B   -9.499  11.937  -3.581
                                  1 S  
                                         2.410E+03 1.755E-03 0.000E+00 0.000E+00
                                         3.619E+02 1.344E-02 0.000E+00 0.000E+00
                                         8.231E+01 6.637E-02 0.000E+00 0.000E+00
                                         2.311E+01 2.303E-01 0.000E+00 0.000E+00
                                         7.252E+00 5.150E-01 0.000E+00 0.000E+00
                                  2 S  
                                         2.367E+00 1.000E+00 0.000E+00 0.000E+00
                                  3 S  
                                         5.533E-01 1.000E+00 0.000E+00 0.000E+00
                                  4 S  
                                         1.716E-01 1.000E+00 0.000E+00 0.000E+00
                           5-     7 P  
                                         6.002E+00 0.000E+00-3.555E-02 0.000E+00
                                         1.240E+00 0.000E+00-1.983E-01 0.000E+00
                                         3.367E-01 0.000E+00-5.048E-01 0.000E+00
                           8-    10 P  
                                         1.256E-01 0.000E+00 1.000E+00 0.000E+00
                          11-    15 D  
                                         8.880E-01 0.000E+00 0.000E+00 1.000E+00
   2 B   -5.588  14.195  -3.581
   3 B   -9.499 -11.939   3.581
   4 B    5.588 -14.195  -3.581
   5 B    9.500  11.937  -3.581
   6 B    9.499 -11.935   3.581
   7 H   -2.384  10.147   3.560
                                 91 S  
                                         1.874E+01 1.968E-02 0.000E+00 0.000E+00
                                         2.826E+00 1.380E-01 0.000E+00 0.000E+00
                                         6.401E-01 4.783E-01 0.000E+00 0.000E+00
                                 92 S  
                                         1.756E-01 1.000E+00 0.000E+00 0.000E+00
   8 H    2.376 -10.143   3.554
   9 H   -2.386 -10.148   3.553
  10 H    2.379  10.145   3.553
  11 H   -7.597   7.139  -3.560
  12 H    7.596  -7.126  -3.554
  13 H    9.979  -3.005  -3.553
  14 H   -9.975   3.014  -3.553
  15 H   -7.596  -7.140   3.560
  16 H    7.597   7.130   3.554
  17 H    9.979   3.008   3.553
  18 H   -9.976  -3.016   3.553
  19 C   -2.658  14.195   3.580
                                115 S  
                                         3.624E+03 1.634E-03 0.000E+00 0.000E+00
                                         5.440E+02 1.252E-02 0.000E+00 0.000E+00
                                         1.237E+02 6.211E-02 0.000E+00 0.000E+00
                                         3.476E+01 2.182E-01 0.000E+00 0.000E+00
                                         1.093E+01 4.980E-01 0.000E+00 0.000E+00
                                116 S  
                                         3.574E+00 1.000E+00 0.000E+00 0.000E+00
                                117 S  
                                         7.742E-01 1.000E+00 0.000E+00 0.000E+00
                                118 S  
                                         2.330E-01 1.000E+00 0.000E+00 0.000E+00
                         119-   121 P  
                                         9.443E+00 0.000E+00 3.790E-02 0.000E+00
                                         2.002E+00 0.000E+00 2.082E-01 0.000E+00
                                         5.463E-01 0.000E+00 5.047E-01 0.000E+00
                         122-   124 P  
                                         1.820E-01 0.000E+00 1.000E+00 0.000E+00
                         125-   129 D  
                                         8.880E-01 0.000E+00 0.000E+00 1.000E+00
  20 C   -1.316  11.911   3.561
  21 C    1.313 -11.910   3.559
  22 C   -1.317 -11.911   3.564
  23 C    1.314  11.911   3.552
  24 C    2.656 -14.195   3.565
  25 C   13.623  -4.793  -3.580
  26 C   -9.659   7.096  -3.561
  27 C    9.658  -7.089  -3.559
  28 C   10.973  -4.813  -3.564
  29 C  -10.973   4.819  -3.552
  30 C   10.964  -9.396  -3.565
  31 C   13.623   4.795   3.580
  32 C   -9.658  -7.098   3.561
  33 C    9.659   7.092   3.559
  34 C   10.973   4.814   3.564
  35 C  -10.973  -4.821   3.552
  36 C   10.965   9.398   3.565
  37 O   13.787   0.001   3.586
                                385 S  
                                         6.773E+03 1.727E-03 0.000E+00 0.000E+00
                                         1.017E+03 1.325E-02 0.000E+00 0.000E+00
                                         2.313E+02 6.603E-02 0.000E+00 0.000E+00
                                         6.501E+01 2.353E-01 0.000E+00 0.000E+00
                                         2.050E+01 5.498E-01 0.000E+00 0.000E+00
                                386 S  
                                         6.716E+00 1.000E+00 0.000E+00 0.000E+00
                                387 S  
                                         1.147E+00 1.000E+00 0.000E+00 0.000E+00
                                388 S  
                                         3.342E-01 1.000E+00 0.000E+00 0.000E+00
                         389-   391 P  
                                         1.769E+01 0.000E+00 4.359E-02 0.000E+00
                                         3.854E+00 0.000E+00 2.318E-01 0.000E+00
                                         1.047E+00 0.000E+00 5.146E-01 0.000E+00
                         392-   394 P  
                                         2.759E-01 0.000E+00 1.000E+00 0.000E+00
                         395-   399 D  
                                         8.000E-01 0.000E+00 0.000E+00 1.000E+00
  38 O   -6.892  11.939  -3.555
  39 O   -6.893 -11.939   3.565
  40 O    6.893 -11.938   3.586
  41 O    6.893  11.940  -3.555
  42 O  -13.787  -0.001   3.565

 *******************************************************************************
 FINISHED BASIS SET HANDLING 
 *******************************************************************************

 INFORMATION **** SET_MPP **** PCRYSTAL CALCULATION
 INFORMATION **** READM2 **** NEW DEFAULT: FOCK/KS MATRIX MIXING SET TO 30 %
 INFORMATION **** READM2 **** NEW DEFAULT: FULL DIRECT SCF MODE
 INFORMATION **** READM2 **** NEW DEFAULT: COULOMB BIPOLAR BUFFER SET TO 32 Mb
 INFORMATION **** READM2 **** NEW DEFAULT: EXCHANGE BIPOLAR BUFFER SET TO 32 Mb

 *******************************************************************************
 NEW DEFAULT: DFT INTEGRATION GRID INCREASED TO XLGRID
 NEW DEFAULT: DIIS ACCELERATOR ACTIVE
 USE KEYWORD NODIIS TO TURN IT OFF
 *******************************************************************************

 WARNING **** RDDFTP **** HSEsol-HJS ACTIVE
 RANGE SEPARATION - OMEGA:   0.110000000000000     
 WARNING **** RDDFTP **** HSEsol-3c has to be combined with sol-def2-mSVP basis set
 *******************************************************************************
 N. OF ATOMS PER CELL        42  COULOMB OVERLAP TOL         (T1) 10**   -6
 NUMBER OF SHELLS           234  COULOMB PENETRATION TOL     (T2) 10**   -6
 NUMBER OF AO               474  EXCHANGE OVERLAP TOL        (T3) 10**   -6
 N. OF ELECTRONS PER CELL   198  EXCHANGE PSEUDO OVP (F(G))  (T4) 10**   -6
 CORE ELECTRONS PER CELL     60  EXCHANGE PSEUDO OVP (P(G))  (T5) 10**  -12
 N. OF SYMMETRY OPERATORS     1  POLE ORDER IN MONO ZONE                  4
 *******************************************************************************
 TYPE OF CALCULATION :  RESTRICTED CLOSED SHELL
 KOHN-SHAM HAMILTONIAN

 (EXCHANGE)[CORRELATION] FUNCTIONAL:(HSEsol GGA)[PBEsol]

 RANGE-SEPARATED HYBRID FUNCTIONAL 
 OMEGA (SHORT-RANGE)[LONG-RANGE]:(    0.1100)[    0.0000]

 HYBRID EXCHANGE - PERCENTAGE OF FOCK EXCHANGE    25.0000

 CAPPA:IS1  2;IS2  2;IS3  8; K PTS MONK NET  20; SYMMOPS:K SPACE   2;G SPACE   1

 *******************************************************************************
 MAX NUMBER OF SCF CYCLES      50  CONVERGENCE ON DELTAP        10**-16
 WEIGHT OF F(I) IN F(I+1)      30% CONVERGENCE ON ENERGY        10**- 6
 SHRINK. FACT.(MONKH.)    2  2  8  NUMBER OF K POINTS IN THE IBZ     20
 SHRINKING FACTOR(GILAT NET)    8  NUMBER OF K POINTS(GILAT NET)   1028
 *******************************************************************************
 *** K POINTS COORDINATES (OBLIQUE COORDINATES IN UNITS OF IS =  2)
   1-R(  0  0  0)   2-R(  1  0  0)   3-R(  0  1  0)   4-R(  1  1  0)
   5-C(  0  0  1)   6-C(  1  0  1)   7-C(  0  1  1)   8-C(  1  1  1)
   9-C(  0  0  2)  10-C(  1  0  2)  11-C(  0  1  2)  12-C(  1  1  2)
  13-C(  0  0  3)  14-C(  1  0  3)  15-C(  0  1  3)  16-C(  1  1  3)
  17-R(  0  0  4)  18-R(  1  0  4)  19-R(  0  1  4)  20-R(  1  1  4)

 DIRECT LATTICE VECTORS COMPON. (A.U.)     RECIP. LATTICE VECTORS COMPON. (A.U.) 
        X            Y            Z              X            Y            Z
   24.5879030  -14.1935232    0.0000000      0.2555397    0.0000000    0.0000005
    0.0000000   28.3910867    0.0000000      0.1277517    0.2213084    0.0000015
   -0.0000153   -0.0000405    7.1809593      0.0000000    0.0000000    0.8749785

 DISK SPACE FOR EIGENVECTORS (FTN 10)     7189632 REALS

 SYMMETRY ADAPTION OF THE BLOCH FUNCTIONS DISABLED
 TTTTTTTTTTTTTTTTTTTTTTTTTTTTTT gordsh1     TELAPSE        0.04 TCPU        0.04

 MATRIX SIZE: P(G)  353716, F(G)   74327, P(G) IRR  179195, F(G) IRR   75059
 MAX G-VECTOR INDEX FOR 1- AND 2-ELECTRON INTEGRALS 111

 TTTTTTTTTTTTTTTTTTTTTTTTTTTTTT INPUT       TELAPSE        0.29 TCPU        0.29

 NEIGHBORS OF THE NON-EQUIVALENT ATOMS

 N = NUMBER OF NEIGHBORS AT DISTANCE R
    ATOM  N     R/ANG      R/AU   NEIGHBORS (ATOM LABELS AND CELL INDICES)
   1 B    1     1.3791     2.6061   37 O   -1 0-1
   1 B    1     1.3793     2.6065   38 O    0 0 0
   1 B    1     1.5503     2.9297   25 C   -1 0 0
   1 B    1     2.3895     4.5155    3 B    0 1-1
   1 B    1     2.3898     4.5160    2 B    0 0 0
   1 B    1     2.5632     4.8437   26 C    0 0 0

   2 B    1     1.3793     2.6065   39 O    0 1-1
   2 B    1     1.3793     2.6065   38 O    0 0 0
   2 B    1     1.5504     2.9298   19 C    0 0-1
   2 B    1     2.3895     4.5156    3 B    0 1-1
   2 B    1     2.3898     4.5160    1 B    0 0 0
   2 B    1     2.5634     4.8440   22 C    0 1-1

   3 B    1     1.3791     2.6061   37 O   -1-1 0
   3 B    1     1.3793     2.6064   39 O    0 0 0
   3 B    1     1.5502     2.9294   31 C   -1-1 0
   3 B    1     2.3895     4.5155    1 B    0-1 1
   3 B    1     2.3895     4.5156    2 B    0-1 1
   3 B    1     2.5629     4.8433   32 C    0 0 0

   4 B    1     1.3795     2.6068   40 O    0 0-1
   4 B    1     1.3795     2.6070   41 O    0-1 0
   4 B    1     1.5513     2.9316   24 C    0 0-1
   4 B    1     2.3905     4.5174    6 B    0 0-1
   4 B    1     2.3905     4.5175    5 B    0-1 0
   4 B    1     2.5648     4.8468   23 C    0-1-1

   5 B    1     1.3795     2.6069   41 O    0 0 0
   5 B    1     1.3797     2.6072   42 O    1 1-1
   5 B    1     1.5516     2.9322   36 C    0 0-1
   5 B    1     2.3905     4.5175    4 B    0 1 0
   5 B    1     2.3911     4.5185    6 B    0 1-1
   5 B    1     2.5651     4.8473   35 C    1 1-1

   6 B    1     1.3795     2.6068   40 O    0 0 0
   6 B    1     1.3796     2.6071   42 O    1 0 0
   6 B    1     1.5516     2.9322   30 C    0 0 1
   6 B    1     2.3905     4.5174    4 B    0 0 1
   6 B    1     2.3911     4.5185    5 B    0-1 1
   6 B    1     2.5651     4.8473   29 C    1 0 1

   7 H    1     1.0913     2.0623   20 C    0 0 0
   7 H    1     2.1472     4.0576   19 C    0 0 0
   7 H    1     2.1680     4.0969   23 C    0 0 0
   7 H    1     2.5202     4.7625   10 H    0 0 0
   7 H    1     2.5676     4.8520   38 O    0 0 1
   7 H    1     2.7321     5.1630    2 B    0 0 1

   8 H    1     1.0914     2.0625   21 C    0 0 0
   8 H    1     2.1493     4.0616   24 C    0 0 0
   8 H    1     2.1666     4.0942   22 C    0 0 0
   8 H    1     2.5198     4.7618    9 H    0 0 0
   8 H    1     2.5720     4.8604   40 O    0 0 0
   8 H    1     2.7362     5.1707    4 B    0 0 1

   9 H    1     1.0914     2.0624   22 C    0 0 0
   9 H    1     2.1471     4.0575   19 C    0-1 0
   9 H    1     2.1680     4.0970   21 C    0 0 0
   9 H    1     2.5198     4.7618    8 H    0 0 0
   9 H    1     2.5665     4.8500   39 O    0 0 0
   9 H    1     2.7315     5.1618    2 B    0-1 1

  10 H    1     1.0915     2.0626   23 C    0 0 0
  10 H    1     2.1490     4.0610   24 C    0 1 0
  10 H    1     2.1669     4.0948   20 C    0 0 0
  10 H    1     2.5202     4.7625    7 H    0 0 0
  10 H    1     2.5712     4.8588   41 O    0 0 1
  10 H    1     2.7351     5.1686    4 B    0 1 1

  11 H    1     1.0913     2.0623   26 C    0 0 0
  11 H    1     2.1469     4.0571   25 C   -1 0 0
  11 H    1     2.1680     4.0968   29 C    0 0 0
  11 H    1     2.5198     4.7617   14 H    0 0 0
  11 H    1     2.5670     4.8510   38 O    0 0 0
  11 H    1     2.7310     5.1609    1 B    0 0 0

  12 H    1     1.0914     2.0625   27 C    0 0 0
  12 H    1     2.1493     4.0617   30 C    0 0 0
  12 H    1     2.1664     4.0939   28 C    0 0 0
  12 H    1     2.5192     4.7606   13 H    0 0 0
  12 H    1     2.5735     4.8632   40 O    0 0-1
  12 H    1     2.7371     5.1723    6 B    0 0-1

  13 H    1     1.0914     2.0624   28 C    0 0 0
  13 H    1     2.1475     4.0581   25 C    0 0 0
  13 H    1     2.1679     4.0967   27 C    0 0 0
  13 H    1     2.5192     4.7606   12 H    0 0 0
  13 H    1     2.5675     4.8519   37 O    0 0-1
  13 H    1     2.7328     5.1643    1 B    1 0 0

  14 H    1     1.0914     2.0625   29 C    0 0 0
  14 H    1     2.1491     4.0612   30 C   -1 0 0
  14 H    1     2.1666     4.0942   26 C    0 0 0
  14 H    1     2.5198     4.7617   11 H    0 0 0
  14 H    1     2.5723     4.8609   42 O    0 0-1
  14 H    1     2.7355     5.1693    6 B   -1 0-1

  15 H    1     1.0914     2.0624   32 C    0 0 0
  15 H    1     2.1475     4.0582   31 C   -1-1 0
  15 H    1     2.1678     4.0966   35 C    0 0 0
  15 H    1     2.5200     4.7621   18 H    0 0 0
  15 H    1     2.5667     4.8503   39 O    0 0 0
  15 H    1     2.7315     5.1618    3 B    0 0 0

  16 H    1     1.0913     2.0623   33 C    0 0 0
  16 H    1     2.1487     4.0605   36 C    0 0 0
  16 H    1     2.1667     4.0945   34 C    0 0 0
  16 H    1     2.5197     4.7616   17 H    0 0 0
  16 H    1     2.5723     4.8610   41 O    0 0 1
  16 H    1     2.7359     5.1701    5 B    0 0 1

  17 H    1     1.0915     2.0626   34 C    0 0 0
  17 H    1     2.1479     4.0589   31 C    0 0 0
  17 H    1     2.1679     4.0968   33 C    0 0 0
  17 H    1     2.5197     4.7616   16 H    0 0 0
  17 H    1     2.5677     4.8522   37 O    0 0 0
  17 H    1     2.7331     5.1648    3 B    1 1 0

  18 H    1     1.0914     2.0624   35 C    0 0 0
  18 H    1     2.1486     4.0602   36 C   -1-1 0
  18 H    1     2.1668     4.0947   32 C    0 0 0
  18 H    1     2.5200     4.7621   15 H    0 0 0
  18 H    1     2.5717     4.8598   42 O    0 0 0
  18 H    1     2.7349     5.1682    5 B   -1-1 1

  19 C    1     1.4020     2.6495   22 C    0 1 0
  19 C    1     1.4021     2.6495   20 C    0 0 0
  19 C    1     1.5504     2.9298    2 B    0 0 1
  19 C    1     2.1471     4.0575    9 H    0 1 0
  19 C    1     2.1472     4.0576    7 H    0 0 0
  19 C    1     2.4246     4.5817   21 C    0 1 0

  20 C    1     1.0913     2.0623    7 H    0 0 0
  20 C    1     1.3914     2.6294   23 C    0 0 0
  20 C    1     1.4021     2.6495   19 C    0 0 0
  20 C    1     2.1669     4.0948   10 H    0 0 0
  20 C    1     2.4177     4.5688   22 C    0 1 0
  20 C    1     2.4250     4.5825   24 C    0 1 0

  21 C    1     1.0914     2.0625    8 H    0 0 0
  21 C    1     1.3914     2.6293   22 C    0 0 0
  21 C    1     1.4026     2.6505   24 C    0 0 0
  21 C    1     2.1680     4.0970    9 H    0 0 0
  21 C    1     2.4182     4.5697   23 C    0-1 0
  21 C    1     2.4246     4.5817   19 C    0-1 0

  22 C    1     1.0914     2.0624    9 H    0 0 0
  22 C    1     1.3914     2.6293   21 C    0 0 0
  22 C    1     1.4020     2.6495   19 C    0-1 0
  22 C    1     2.1666     4.0942    8 H    0 0 0
  22 C    1     2.4177     4.5688   20 C    0-1 0
  22 C    1     2.4250     4.5826   24 C    0 0 0

  23 C    1     1.0915     2.0626   10 H    0 0 0
  23 C    1     1.3914     2.6294   20 C    0 0 0
  23 C    1     1.4025     2.6504   24 C    0 1 0
  23 C    1     2.1680     4.0969    7 H    0 0 0
  23 C    1     2.4182     4.5697   21 C    0 1 0
  23 C    1     2.4246     4.5818   19 C    0 0 0

  24 C    1     1.4025     2.6504   23 C    0-1 0
  24 C    1     1.4026     2.6505   21 C    0 0 0
  24 C    1     1.5513     2.9316    4 B    0 0 1
  24 C    1     2.1490     4.0610   10 H    0-1 0
  24 C    1     2.1493     4.0616    8 H    0 0 0
  24 C    1     2.4250     4.5825   20 C    0-1 0

  25 C    1     1.4020     2.6494   26 C    1 0 0
  25 C    1     1.4021     2.6495   28 C    0 0 0
  25 C    1     1.5503     2.9297    1 B    1 0 0
  25 C    1     2.1469     4.0571   11 H    1 0 0
  25 C    1     2.1475     4.0581   13 H    0 0 0
  25 C    1     2.4246     4.5818   27 C    0 0 0

  26 C    1     1.0913     2.0623   11 H    0 0 0
  26 C    1     1.3914     2.6293   29 C    0 0 0
  26 C    1     1.4020     2.6494   25 C   -1 0 0
  26 C    1     2.1666     4.0942   14 H    0 0 0
  26 C    1     2.4175     4.5684   28 C   -1 0 0
  26 C    1     2.4251     4.5828   30 C   -1 0 0

  27 C    1     1.0914     2.0625   12 H    0 0 0
  27 C    1     1.3915     2.6295   28 C    0 0 0
  27 C    1     1.4026     2.6505   30 C    0 0 0
  27 C    1     2.1679     4.0967   13 H    0 0 0
  27 C    1     2.4179     4.5691   29 C    1 0 0
  27 C    1     2.4246     4.5818   25 C    0 0 0

  28 C    1     1.0914     2.0624   13 H    0 0 0
  28 C    1     1.3915     2.6295   27 C    0 0 0
  28 C    1     1.4021     2.6495   25 C    0 0 0
  28 C    1     2.1664     4.0939   12 H    0 0 0
  28 C    1     2.4175     4.5684   26 C    1 0 0
  28 C    1     2.4253     4.5832   30 C    0 0 0

  29 C    1     1.0914     2.0625   14 H    0 0 0
  29 C    1     1.3914     2.6293   26 C    0 0 0
  29 C    1     1.4025     2.6504   30 C   -1 0 0
  29 C    1     2.1680     4.0968   11 H    0 0 0
  29 C    1     2.4179     4.5691   27 C   -1 0 0
  29 C    1     2.4247     4.5819   25 C   -1 0 0

  30 C    1     1.4025     2.6504   29 C    1 0 0
  30 C    1     1.4026     2.6505   27 C    0 0 0
  30 C    1     1.5516     2.9322    6 B    0 0-1
  30 C    1     2.1491     4.0612   14 H    1 0 0
  30 C    1     2.1493     4.0617   12 H    0 0 0
  30 C    1     2.4251     4.5828   26 C    1 0 0

  31 C    1     1.4021     2.6496   32 C    1 1 0
  31 C    1     1.4021     2.6497   34 C    0 0 0
  31 C    1     1.5502     2.9294    3 B    1 1 0
  31 C    1     2.1475     4.0582   15 H    1 1 0
  31 C    1     2.1479     4.0589   17 H    0 0 0
  31 C    1     2.4244     4.5814   33 C    0 0 0

  32 C    1     1.0914     2.0624   15 H    0 0 0
  32 C    1     1.3914     2.6293   35 C    0 0 0
  32 C    1     1.4021     2.6496   31 C   -1-1 0
  32 C    1     2.1668     4.0947   18 H    0 0 0
  32 C    1     2.4179     4.5692   34 C   -1-1 0
  32 C    1     2.4251     4.5827   36 C   -1-1 0

  33 C    1     1.0913     2.0623   16 H    0 0 0
  33 C    1     1.3914     2.6294   34 C    0 0 0
  33 C    1     1.4025     2.6504   36 C    0 0 0
  33 C    1     2.1679     4.0968   17 H    0 0 0
  33 C    1     2.4178     4.5690   35 C    1 1 0
  33 C    1     2.4244     4.5814   31 C    0 0 0

  34 C    1     1.0915     2.0626   17 H    0 0 0
  34 C    1     1.3914     2.6294   33 C    0 0 0
  34 C    1     1.4021     2.6497   31 C    0 0 0
  34 C    1     2.1667     4.0945   16 H    0 0 0
  34 C    1     2.4179     4.5692   32 C    1 1 0
  34 C    1     2.4253     4.5832   36 C    0 0 0

  35 C    1     1.0914     2.0624   18 H    0 0 0
  35 C    1     1.3914     2.6293   32 C    0 0 0
  35 C    1     1.4025     2.6503   36 C   -1-1 0
  35 C    1     2.1678     4.0966   15 H    0 0 0
  35 C    1     2.4178     4.5690   33 C   -1-1 0
  35 C    1     2.4245     4.5817   31 C   -1-1 0

  36 C    1     1.4025     2.6503   35 C    1 1 0
  36 C    1     1.4025     2.6504   33 C    0 0 0
  36 C    1     1.5516     2.9322    5 B    0 0 1
  36 C    1     2.1486     4.0602   18 H    1 1 0
  36 C    1     2.1487     4.0605   16 H    0 0 0
  36 C    1     2.4251     4.5827   32 C    1 1 0

  37 O    1     1.3791     2.6061    1 B    1 0 1
  37 O    1     1.3791     2.6061    3 B    1 1 0
  37 O    1     2.3880     4.5126   38 O    1 0 1
  37 O    1     2.3882     4.5130   39 O    1 1 0
  37 O    1     2.5383     4.7966   31 C    0 0 0
  37 O    1     2.5384     4.7968   25 C    0 0 1

  38 O    1     1.3793     2.6065    1 B    0 0 0
  38 O    1     1.3793     2.6065    2 B    0 0 0
  38 O    1     2.3880     4.5126   37 O   -1 0-1
  38 O    1     2.3882     4.5131   39 O    0 1-1
  38 O    1     2.5391     4.7981   19 C    0 0-1
  38 O    1     2.5395     4.7990   25 C   -1 0 0

  39 O    1     1.3793     2.6064    3 B    0 0 0
  39 O    1     1.3793     2.6065    2 B    0-1 1
  39 O    1     2.3882     4.5130   37 O   -1-1 0
  39 O    1     2.3882     4.5131   38 O    0-1 1
  39 O    1     2.5390     4.7980   19 C    0-1 0
  39 O    1     2.5391     4.7982   31 C   -1-1 0

  40 O    1     1.3795     2.6068    6 B    0 0 0
  40 O    1     1.3795     2.6068    4 B    0 0 1
  40 O    1     2.3880     4.5126   42 O    1 0 0
  40 O    1     2.3884     4.5134   41 O    0-1 1
  40 O    1     2.5400     4.7998   24 C    0 0 0
  40 O    1     2.5403     4.8005   30 C    0 0 1

  41 O    1     1.3795     2.6069    5 B    0 0 0
  41 O    1     1.3795     2.6070    4 B    0 1 0
  41 O    1     2.3881     4.5128   42 O    1 1-1
  41 O    1     2.3884     4.5134   40 O    0 1-1
  41 O    1     2.5404     4.8006   24 C    0 1-1
  41 O    1     2.5405     4.8008   36 C    0 0-1

  42 O    1     1.3796     2.6071    6 B   -1 0 0
  42 O    1     1.3797     2.6072    5 B   -1-1 1
  42 O    1     2.3880     4.5126   40 O   -1 0 0
  42 O    1     2.3881     4.5128   41 O   -1-1 1
  42 O    1     2.5409     4.8016   36 C   -1-1 0
  42 O    1     2.5410     4.8019   30 C   -1 0 1


 SYMMETRY ALLOWED INTERNAL DEGREE(S) OF FREEDOM: 123
 TTTTTTTTTTTTTTTTTTTTTTTTTTTTTT SYMM        TELAPSE        0.29 TCPU        0.29
 TTTTTTTTTTTTTTTTTTTTTTTTTTTTTT INT_SCREEN  TELAPSE        0.32 TCPU        0.31

 DFT PARAMETERS

     ATOM       ELECTRONS   NET CHARGE   R(ANGSTROM)
   1   5  B       5.0000      0.0000     0.89000000
   7   1  H       1.0000      0.0000     1.11000000
  19   6  C       6.0000      0.0000     0.77000000
  37   8  O       8.0000      0.0000     0.74000000

 SIZE OF GRID=    1288394
 TTTTTTTTTTTTTTTTTTTTTTTTTTTTTT MAKE_GRID2  TELAPSE       10.68 TCPU       10.67
 BECKE WEIGHT FUNCTION
 RADSAFE =     2.00
 TOLERANCES - DENSITY:10**- 6; POTENTIAL:10**- 9; GRID WGT:10**-14

 RADIAL INTEGRATION  - INTERVALS (POINTS,UPPER LIMIT):            1( 75,  4.0*R)

 ANGULAR INTEGRATION - INTERVALS (ACCURACY LEVEL [N. POINTS] UPPER LIMIT):
  1(  4[  86]   0.2)  2(  8[ 194]   0.5)  3( 12[ 350]   0.9)  4( 16[ 974]   3.5)
  5( 12[ 350]9999.0)
 TTTTTTTTTTTTTTTTTTTTTTTTTTTTTT INT_CALC    TELAPSE       10.79 TCPU       10.78
 EEEEEEEEEE INT_CALC TERMINATION  DATE 19 02 2026 TIME 18:54:49.1

 *******************************************************************************
 cof-1_z38_L000_incl                                                             
 CRYSTAL - SCF - TYPE OF CALCULATION :  RESTRICTED CLOSED SHELL
 *******************************************************************************

 CAPPA:IS1  2;IS2  2;IS3  8; K PTS MONK NET  20; SYMMOPS:K SPACE   2;G SPACE   1

 TTTTTTTTTTTTTTTTTTTTTTTTTTTTTT SDIK        TELAPSE       11.40 TCPU       17.27

 AAAAAAAAAAAAAAAAAAAAAAAAAAAAAAAAAAAAAAAAAAAAAAAAAAAAAAAAAAAAAAAAAAAAAAAAAAAAAAA
         ATOMIC WAVEFUNCTION(S)


 NUCLEAR CHARGE  5.0  SYMMETRY SPECIES            S    P
 N. ELECTRONS    5.0  NUMBER OF PRIMITIVE GTOS    8    4
                      NUMBER OF CONTRACTED GTOS   4    2
                      NUMBER OF CLOSED SHELLS     2    0
                      OPEN SHELL OCCUPATION       0    1

  ZNUC  SCFIT    TOTAL HF ENERGY   KINETIC ENERGY   VIRIAL THEOREM ACCURACY
   5.0    11    -2.451164084E+01  2.462155050E+01 -1.995536038E+00  1.5E-06

 NUCLEAR CHARGE  1.0  SYMMETRY SPECIES            S
 N. ELECTRONS    1.0  NUMBER OF PRIMITIVE GTOS    4
                      NUMBER OF CONTRACTED GTOS   2
                      NUMBER OF CLOSED SHELLS     0
                      OPEN SHELL OCCUPATION       1

  ZNUC  SCFIT    TOTAL HF ENERGY   KINETIC ENERGY   VIRIAL THEOREM ACCURACY
   1.0     1    -4.977266687E-01  5.190767460E-01 -1.958869132E+00  0.0E+00

 NUCLEAR CHARGE  6.0  SYMMETRY SPECIES            S    P
 N. ELECTRONS    6.0  NUMBER OF PRIMITIVE GTOS    8    4
                      NUMBER OF CONTRACTED GTOS   4    2
                      NUMBER OF CLOSED SHELLS     2    0
                      OPEN SHELL OCCUPATION       0    2

  ZNUC  SCFIT    TOTAL HF ENERGY   KINETIC ENERGY   VIRIAL THEOREM ACCURACY
   6.0     9    -3.766704647E+01  3.775180683E+01 -1.997754800E+00  1.1E-06

 NUCLEAR CHARGE  8.0  SYMMETRY SPECIES            S    P
 N. ELECTRONS    8.0  NUMBER OF PRIMITIVE GTOS    8    4
                      NUMBER OF CONTRACTED GTOS   4    2
                      NUMBER OF CLOSED SHELLS     2    0
                      OPEN SHELL OCCUPATION       0    4

  ZNUC  SCFIT    TOTAL HF ENERGY   KINETIC ENERGY   VIRIAL THEOREM ACCURACY
   8.0    12    -7.477373220E+01  7.477365593E+01 -2.000001020E+00  3.8E-06

 AAAAAAAAAAAAAAAAAAAAAAAAAAAAAAAAAAAAAAAAAAAAAAAAAAAAAAAAAAAAAAAAAAAAAAAAAAAAAAA

 CHARGE NORMALIZATION FACTOR   1.00000000
 TOTAL ATOMIC CHARGES:
   5.0000000   5.0000000   5.0000000   5.0000000   5.0000000   5.0000000
   1.0000000   1.0000000   1.0000000   1.0000000   1.0000000   1.0000000
   1.0000000   1.0000000   1.0000000   1.0000000   1.0000000   1.0000000
   6.0000000   6.0000000   6.0000000   6.0000000   6.0000000   6.0000000
   6.0000000   6.0000000   6.0000000   6.0000000   6.0000000   6.0000000
   6.0000000   6.0000000   6.0000000   6.0000000   6.0000000   6.0000000
   8.0000000   8.0000000   8.0000000   8.0000000   8.0000000   8.0000000
 TTTTTTTTTTTTTTTTTTTTTTTTTTTTTT MOQGAD      TELAPSE       11.46 TCPU       18.44
 TTTTTTTTTTTTTTTTTTTTTTTTTTTTTT SHELLXN     TELAPSE       20.37 TCPU      292.93
 TTTTTTTTTTTTTTTTTTTTTTTTTTTTTT MONMO3      TELAPSE       20.53 TCPU      298.04
 NUMERICALLY INTEGRATED DENSITY    198.0000701130
 TTTTTTTTTTTTTTTTTTTTTTTTTTTTTT NUMDFT      TELAPSE       21.09 TCPU      316.11
 CYC   0 ETOT(AU) -1.295964245411E+03 DETOT -1.30E+03 tst  0.00E+00 PX  1.00E+00
 TTTTTTTTTTTTTTTTTTTTTTTTTTTTTT DIIS        TELAPSE       21.13 TCPU      317.17
 TTTTTTTTTTTTTTTTTTTTTTTTTTTTTT FDIK        TELAPSE       21.62 TCPU      332.86
 INSULATING STATE
 TOP OF VALENCE BANDS -    BAND     99; K    1; EIG -3.0187092E-01 AU
 BOTTOM OF VIRTUAL BANDS - BAND    100; K   17; EIG -1.7246238E-01 AU
 INDIRECT ENERGY BAND GAP:   3.5214 eV
 BOTTOM OF VIRTUAL BANDS - BAND    100; K    1; EIG -1.3811578E-01 AU
 TTTTTTTTTTTTTTTTTTTTTTTTTTTTTT PDIG        TELAPSE       21.90 TCPU      338.99
 CHARGE NORMALIZATION FACTOR   1.00000000
 TOTAL ATOMIC CHARGES:
   4.1357950   4.1356442   4.1358868   4.1355979   4.1353887   4.1355596
   0.7859829   0.7860949   0.7859403   0.7860576   0.7859615   0.7861235
   0.7859512   0.7860870   0.7859423   0.7861227   0.7859330   0.7860881
   6.0529345   6.2698282   6.2697888   6.2697682   6.2697087   6.0521518
   6.0529844   6.2698126   6.2698940   6.2697138   6.2699030   6.0516927
   6.0532734   6.2695429   6.2701091   6.2694557   6.2700742   6.0516494
   8.6999998   8.7001002   8.7000444   8.7004038   8.7004297   8.7005795
 TTTTTTTTTTTTTTTTTTTTTTTTTTTTTT MOQGAD      TELAPSE       21.95 TCPU      339.05
 TTTTTTTTTTTTTTTTTTTTTTTTTTTTTT SHELLXN     TELAPSE       30.86 TCPU      623.24
 TTTTTTTTTTTTTTTTTTTTTTTTTTTTTT MONMO3      TELAPSE       31.02 TCPU      628.33
 NUMERICALLY INTEGRATED DENSITY    198.0000608896
 TTTTTTTTTTTTTTTTTTTTTTTTTTTTTT NUMDFT      TELAPSE       31.60 TCPU      646.71
 CYC   1 ETOT(AU) -1.288805564364E+03 DETOT  7.16E+00 tst  0.00E+00 PX  1.00E+00
 TTTTTTTTTTTTTTTTTTTTTTTTTTTTTT DIIS        TELAPSE       31.64 TCPU      648.07
 DIIS TEST: 0.11203E+01 AT SCF   CYCLE   1 - MIX   30 %
 TTTTTTTTTTTTTTTTTTTTTTTTTTTTTT FDIK        TELAPSE       32.13 TCPU      663.87
 INSULATING STATE
 TOP OF VALENCE BANDS -    BAND     99; K    1; EIG -2.0244760E-01 AU
 BOTTOM OF VIRTUAL BANDS - BAND    100; K   17; EIG -9.6387994E-02 AU
 INDIRECT ENERGY BAND GAP:   2.8860 eV
 BOTTOM OF VIRTUAL BANDS - BAND    100; K    1; EIG -5.4359569E-02 AU
 TTTTTTTTTTTTTTTTTTTTTTTTTTTTTT PDIG        TELAPSE       32.41 TCPU      670.01
 CHARGE NORMALIZATION FACTOR   1.00000000
 TOTAL ATOMIC CHARGES:
   4.7021940   4.7021303   4.7021524   4.7026488   4.7026362   4.7027489
   0.9216448   0.9217168   0.9216262   0.9216520   0.9216445   0.9217187
   0.9216288   0.9216966   0.9216064   0.9217318   0.9215861   0.9217179
   5.8649306   6.1222534   6.1228040   6.1221117   6.1227997   5.8677833
   5.8647353   6.1219671   6.1228223   6.1222228   6.1226919   5.8682065
   5.8648345   6.1222047   6.1226514   6.1224709   6.1225734   5.8679633
   8.3427591   8.3431450   8.3431009   8.3426216   8.3428189   8.3430466
 TTTTTTTTTTTTTTTTTTTTTTTTTTTTTT MOQGAD      TELAPSE       32.46 TCPU      670.06
 TTTTTTTTTTTTTTTTTTTTTTTTTTTTTT SHELLXN     TELAPSE       41.38 TCPU      954.28
 TTTTTTTTTTTTTTTTTTTTTTTTTTTTTT MONMO3      TELAPSE       41.54 TCPU      959.38
 NUMERICALLY INTEGRATED DENSITY    198.0000835575
 TTTTTTTTTTTTTTTTTTTTTTTTTTTTTT NUMDFT      TELAPSE       42.11 TCPU      977.73
 CYC   2 ETOT(AU) -1.288999889863E+03 DETOT -1.94E-01 tst  4.28E-03 PX  1.57E-01
 TTTTTTTTTTTTTTTTTTTTTTTTTTTTTT DIIS        TELAPSE       42.16 TCPU      979.16
 DIIS TEST: 0.49221E+00 AT SCF   CYCLE   2 - DIIS ACTIVE - HISTORY:     2 CYCLES
 TTTTTTTTTTTTTTTTTTTTTTTTTTTTTT FDIK        TELAPSE       42.65 TCPU      995.05
 INSULATING STATE
 TOP OF VALENCE BANDS -    BAND     99; K    1; EIG -2.1953898E-01 AU
 BOTTOM OF VIRTUAL BANDS - BAND    100; K   17; EIG -9.1755137E-02 AU
 INDIRECT ENERGY BAND GAP:   3.4772 eV
 BOTTOM OF VIRTUAL BANDS - BAND    100; K    1; EIG -4.7694388E-02 AU
 TTTTTTTTTTTTTTTTTTTTTTTTTTTTTT PDIG        TELAPSE       42.93 TCPU     1001.18
 CHARGE NORMALIZATION FACTOR   1.00000000
 TOTAL ATOMIC CHARGES:
   4.4844485   4.4843086   4.4844618   4.4837747   4.4835880   4.4837115
   0.8929301   0.8930565   0.8929038   0.8929975   0.8928739   0.8930995
   0.8929236   0.8930165   0.8928914   0.8930624   0.8929326   0.8930068
   5.8949855   6.1628465   6.1619933   6.1627605   6.1619102   5.8931983
   5.8951521   6.1628549   6.1619640   6.1628902   6.1619246   5.8928241
   5.8952777   6.1627186   6.1620715   6.1627592   6.1620205   5.8928204
   8.5110216   8.5111822   8.5111532   8.5111347   8.5112277   8.5113208
 TTTTTTTTTTTTTTTTTTTTTTTTTTTTTT MOQGAD      TELAPSE       42.98 TCPU     1001.23
 TTTTTTTTTTTTTTTTTTTTTTTTTTTTTT SHELLXN     TELAPSE       51.90 TCPU     1285.48
 TTTTTTTTTTTTTTTTTTTTTTTTTTTTTT MONMO3      TELAPSE       52.06 TCPU     1290.57
 NUMERICALLY INTEGRATED DENSITY    198.0000779308
 TTTTTTTTTTTTTTTTTTTTTTTTTTTTTT NUMDFT      TELAPSE       52.63 TCPU     1308.91
 CYC   3 ETOT(AU) -1.289103510022E+03 DETOT -1.04E-01 tst  7.42E-04 PX  5.85E-02
 TTTTTTTTTTTTTTTTTTTTTTTTTTTTTT DIIS        TELAPSE       52.69 TCPU     1310.68
 DIIS TEST: 0.99534E-02 AT SCF   CYCLE   3 - DIIS ACTIVE - HISTORY:     3 CYCLES
 TTTTTTTTTTTTTTTTTTTTTTTTTTTTTT FDIK        TELAPSE       53.18 TCPU     1326.45
 INSULATING STATE
 TOP OF VALENCE BANDS -    BAND     99; K    1; EIG -2.2883194E-01 AU
 BOTTOM OF VIRTUAL BANDS - BAND    100; K   17; EIG -1.0172178E-01 AU
 INDIRECT ENERGY BAND GAP:   3.4588 eV
 BOTTOM OF VIRTUAL BANDS - BAND    100; K    1; EIG -5.8886233E-02 AU
 TTTTTTTTTTTTTTTTTTTTTTTTTTTTTT PDIG        TELAPSE       53.46 TCPU     1332.59
 CHARGE NORMALIZATION FACTOR   1.00000000
 TOTAL ATOMIC CHARGES:
   4.4917792   4.4917009   4.4918195   4.4924727   4.4923260   4.4924872
   0.8770527   0.8771004   0.8770331   0.8770284   0.8770488   0.8771000
   0.8770634   0.8770465   0.8770298   0.8770925   0.8770392   0.8770599
   5.9464066   6.1589285   6.1605383   6.1588150   6.1605529   5.9515855
   5.9460911   6.1586989   6.1606749   6.1587423   6.1606766   5.9518509
   5.9463242   6.1587509   6.1606399   6.1587913   6.1606532   5.9516421
   8.4851237   8.4854369   8.4853889   8.4852950   8.4854355   8.4856768
 TTTTTTTTTTTTTTTTTTTTTTTTTTTTTT MOQGAD      TELAPSE       53.51 TCPU     1332.64
 TTTTTTTTTTTTTTTTTTTTTTTTTTTTTT SHELLXN     TELAPSE       62.43 TCPU     1616.91
 TTTTTTTTTTTTTTTTTTTTTTTTTTTTTT MONMO3      TELAPSE       62.59 TCPU     1622.01
 NUMERICALLY INTEGRATED DENSITY    198.0000775811
 TTTTTTTTTTTTTTTTTTTTTTTTTTTTTT NUMDFT      TELAPSE       63.16 TCPU     1640.32
 CYC   4 ETOT(AU) -1.289105522611E+03 DETOT -2.01E-03 tst  3.03E-05 PX  1.26E-02
 TTTTTTTTTTTTTTTTTTTTTTTTTTTTTT DIIS        TELAPSE       63.22 TCPU     1642.11
 DIIS TEST: 0.36582E-02 AT SCF   CYCLE   4 - DIIS ACTIVE - HISTORY:     4 CYCLES
 TTTTTTTTTTTTTTTTTTTTTTTTTTTTTT FDIK        TELAPSE       63.71 TCPU     1657.97
 INSULATING STATE
 TOP OF VALENCE BANDS -    BAND     99; K    1; EIG -2.2743754E-01 AU
 BOTTOM OF VIRTUAL BANDS - BAND    100; K   17; EIG -1.0041974E-01 AU
 INDIRECT ENERGY BAND GAP:   3.4563 eV
 BOTTOM OF VIRTUAL BANDS - BAND    100; K    1; EIG -5.7267073E-02 AU
 TTTTTTTTTTTTTTTTTTTTTTTTTTTTTT PDIG        TELAPSE       63.99 TCPU     1664.10
 CHARGE NORMALIZATION FACTOR   1.00000000
 TOTAL ATOMIC CHARGES:
   4.4935197   4.4933982   4.4935389   4.4928174   4.4926554   4.4927896
   0.8801250   0.8803209   0.8800953   0.8802625   0.8800791   0.8803589
   0.8801037   0.8802961   0.8800800   0.8803348   0.8800997   0.8802929
   5.9246762   6.1655711   6.1638651   6.1654866   6.1638093   5.9206905
   5.9248422   6.1655318   6.1638384   6.1656550   6.1637409   5.9204056
   5.9249311   6.1654620   6.1639042   6.1655958   6.1638035   5.9203793
   8.4943652   8.4945544   8.4945110   8.4942893   8.4944099   8.4945136
 TTTTTTTTTTTTTTTTTTTTTTTTTTTTTT MOQGAD      TELAPSE       64.04 TCPU     1664.15
 TTTTTTTTTTTTTTTTTTTTTTTTTTTTTT SHELLXN     TELAPSE       72.96 TCPU     1948.42
 TTTTTTTTTTTTTTTTTTTTTTTTTTTTTT MONMO3      TELAPSE       73.12 TCPU     1953.52
 NUMERICALLY INTEGRATED DENSITY    198.0000778121
 TTTTTTTTTTTTTTTTTTTTTTTTTTTTTT NUMDFT      TELAPSE       73.70 TCPU     1971.89
 CYC   5 ETOT(AU) -1.289106324324E+03 DETOT -8.02E-04 tst  7.19E-06 PX  7.65E-03
 TTTTTTTTTTTTTTTTTTTTTTTTTTTTTT DIIS        TELAPSE       73.76 TCPU     1973.98
 DIIS TEST: 0.16865E-03 AT SCF   CYCLE   5 - DIIS ACTIVE - HISTORY:     5 CYCLES
 TTTTTTTTTTTTTTTTTTTTTTTTTTTTTT FDIK        TELAPSE       74.26 TCPU     1989.74
 INSULATING STATE
 TOP OF VALENCE BANDS -    BAND     99; K    1; EIG -2.2716137E-01 AU
 BOTTOM OF VIRTUAL BANDS - BAND    100; K   17; EIG -9.9885508E-02 AU
 INDIRECT ENERGY BAND GAP:   3.4634 eV
 BOTTOM OF VIRTUAL BANDS - BAND    100; K    1; EIG -5.6722770E-02 AU
 TTTTTTTTTTTTTTTTTTTTTTTTTTTTTT PDIG        TELAPSE       74.53 TCPU     1995.88
 CHARGE NORMALIZATION FACTOR   1.00000000
 TOTAL ATOMIC CHARGES:
   4.4921499   4.4920589   4.4921812   4.4931357   4.4929872   4.4931376
   0.8812583   0.8812247   0.8812376   0.8811575   0.8812399   0.8812356
   0.8812698   0.8811691   0.8812319   0.8812215   0.8812558   0.8811767
   5.9202497   6.1619907   6.1648617   6.1618858   6.1648303   5.9286269
   5.9199884   6.1618295   6.1649555   6.1617933   6.1650135   5.9287760
   5.9202219   6.1618316   6.1649505   6.1617837   6.1650257   5.9286043
   8.4933906   8.4936798   8.4936475   8.4937606   8.4938740   8.4940998
 TTTTTTTTTTTTTTTTTTTTTTTTTTTTTT MOQGAD      TELAPSE       74.59 TCPU     1995.93
 TTTTTTTTTTTTTTTTTTTTTTTTTTTTTT SHELLXN     TELAPSE       83.50 TCPU     2280.15
 TTTTTTTTTTTTTTTTTTTTTTTTTTTTTT MONMO3      TELAPSE       83.66 TCPU     2285.25
 NUMERICALLY INTEGRATED DENSITY    198.0000778159
 TTTTTTTTTTTTTTTTTTTTTTTTTTTTTT NUMDFT      TELAPSE       84.24 TCPU     2303.63
 CYC   6 ETOT(AU) -1.289106308871E+03 DETOT  1.55E-05 tst  2.62E-06 PX  1.93E-03
 TTTTTTTTTTTTTTTTTTTTTTTTTTTTTT DIIS        TELAPSE       84.30 TCPU     2305.72
 DIIS TEST: 0.21437E-03 AT SCF   CYCLE   6 - DIIS ACTIVE - HISTORY:     6 CYCLES
 TTTTTTTTTTTTTTTTTTTTTTTTTTTTTT FDIK        TELAPSE       84.80 TCPU     2321.54
 INSULATING STATE
 TOP OF VALENCE BANDS -    BAND     99; K    1; EIG -2.2716903E-01 AU
 BOTTOM OF VIRTUAL BANDS - BAND    100; K   17; EIG -9.9904993E-02 AU
 INDIRECT ENERGY BAND GAP:   3.4630 eV
 BOTTOM OF VIRTUAL BANDS - BAND    100; K    1; EIG -5.6742791E-02 AU
 TTTTTTTTTTTTTTTTTTTTTTTTTTTTTT PDIG        TELAPSE       85.08 TCPU     2327.68
 CHARGE NORMALIZATION FACTOR   1.00000000
 TOTAL ATOMIC CHARGES:
   4.4928368   4.4927308   4.4928627   4.4926729   4.4925162   4.4926601
   0.8811768   0.8813046   0.8811530   0.8812401   0.8811483   0.8813256
   0.8811732   0.8812634   0.8811443   0.8813066   0.8811631   0.8812664
   5.9248926   6.1633798   6.1631015   6.1632772   6.1630697   5.9248606
   5.9248385   6.1632592   6.1631532   6.1633310   6.1631088   5.9248029
   5.9250059   6.1632269   6.1631840   6.1633030   6.1631406   5.9246959
   8.4933996   8.4936357   8.4935944   8.4934628   8.4935849   8.4937464
 TTTTTTTTTTTTTTTTTTTTTTTTTTTTTT MOQGAD      TELAPSE       85.13 TCPU     2327.73
 TTTTTTTTTTTTTTTTTTTTTTTTTTTTTT SHELLXN     TELAPSE       94.04 TCPU     2611.91
 TTTTTTTTTTTTTTTTTTTTTTTTTTTTTT MONMO3      TELAPSE       94.20 TCPU     2617.01
 NUMERICALLY INTEGRATED DENSITY    198.0000778206
 TTTTTTTTTTTTTTTTTTTTTTTTTTTTTT NUMDFT      TELAPSE       94.78 TCPU     2635.38
 CYC   7 ETOT(AU) -1.289106365685E+03 DETOT -5.68E-05 tst  1.19E-06 PX  1.18E-03
 TTTTTTTTTTTTTTTTTTTTTTTTTTTTTT DIIS        TELAPSE       94.85 TCPU     2637.87
 DIIS TEST: 0.26309E-05 AT SCF   CYCLE   7 - DIIS ACTIVE - HISTORY:     7 CYCLES
 TTTTTTTTTTTTTTTTTTTTTTTTTTTTTT FDIK        TELAPSE       95.35 TCPU     2653.68
 INSULATING STATE
 TOP OF VALENCE BANDS -    BAND     99; K    1; EIG -2.2719723E-01 AU
 BOTTOM OF VIRTUAL BANDS - BAND    100; K   17; EIG -9.9984145E-02 AU
 INDIRECT ENERGY BAND GAP:   3.4616 eV
 BOTTOM OF VIRTUAL BANDS - BAND    100; K    1; EIG -5.6817180E-02 AU
 TTTTTTTTTTTTTTTTTTTTTTTTTTTTTT PDIG        TELAPSE       95.63 TCPU     2659.82
 CHARGE NORMALIZATION FACTOR   1.00000000
 TOTAL ATOMIC CHARGES:
   4.4930033   4.4928916   4.4930264   4.4929342   4.4927756   4.4929158
   0.8810870   0.8811940   0.8810606   0.8811322   0.8810508   0.8812226
   0.8810774   0.8811586   0.8810486   0.8812018   0.8810699   0.8811591
   5.9243004   6.1633089   6.1633281   6.1632180   6.1632833   5.9249928
   5.9243212   6.1632269   6.1633424   6.1632999   6.1632949   5.9248596
   5.9244589   6.1631837   6.1633833   6.1632599   6.1633392   5.9247821
   8.4934592   8.4936845   8.4936435   8.4935440   8.4936647   8.4938111
 TTTTTTTTTTTTTTTTTTTTTTTTTTTTTT MOQGAD      TELAPSE       95.68 TCPU     2659.87
 TTTTTTTTTTTTTTTTTTTTTTTTTTTTTT SHELLXN     TELAPSE      104.60 TCPU     2944.13
 TTTTTTTTTTTTTTTTTTTTTTTTTTTTTT MONMO3      TELAPSE      104.76 TCPU     2949.22
 NUMERICALLY INTEGRATED DENSITY    198.0000778216
 TTTTTTTTTTTTTTTTTTTTTTTTTTTTTT NUMDFT      TELAPSE      105.33 TCPU     2967.58
 CYC   8 ETOT(AU) -1.289106366251E+03 DETOT -5.67E-07 tst  7.52E-09 PX  1.49E-04
 TTTTTTTTTTTTTTTTTTTTTTTTTTTTTT DIIS        TELAPSE      105.41 TCPU     2970.05
 DIIS TEST: 0.33069E-07 AT SCF   CYCLE   8 - DIIS ACTIVE - HISTORY:     8 CYCLES
 TTTTTTTTTTTTTTTTTTTTTTTTTTTTTT FDIK        TELAPSE      105.90 TCPU     2985.84
 INSULATING STATE
 TOP OF VALENCE BANDS -    BAND     99; K    1; EIG -2.2720407E-01 AU
 BOTTOM OF VIRTUAL BANDS - BAND    100; K   17; EIG -9.9974752E-02 AU
 INDIRECT ENERGY BAND GAP:   3.4621 eV
 BOTTOM OF VIRTUAL BANDS - BAND    100; K    1; EIG -5.6807776E-02 AU
 TTTTTTTTTTTTTTTTTTTTTTTTTTTTTT PDIG        TELAPSE      106.18 TCPU     2991.97
 CHARGE NORMALIZATION FACTOR   1.00000000
 TOTAL ATOMIC CHARGES:
   4.4929570   4.4928560   4.4929847   4.4928832   4.4927297   4.4928749
   0.8810722   0.8811913   0.8810492   0.8811261   0.8810465   0.8812095
   0.8810721   0.8811466   0.8810413   0.8811918   0.8810608   0.8811509
   5.9243823   6.1633835   6.1633200   6.1632796   6.1632890   5.9249236
   5.9242767   6.1632510   6.1633836   6.1632982   6.1633636   5.9249172
   5.9244599   6.1632276   6.1634052   6.1632759   6.1633896   5.9247947
   8.4934322   8.4936802   8.4936417   8.4935220   8.4936412   8.4938176
 TTTTTTTTTTTTTTTTTTTTTTTTTTTTTT MOQGAD      TELAPSE      106.23 TCPU     2992.02
 TTTTTTTTTTTTTTTTTTTTTTTTTTTTTT SHELLXN     TELAPSE      115.15 TCPU     3276.31
 +++ ENERGIES IN A.U. +++
 ::: EXT EL-POLE                                  -1.3079615548109E+03
 ::: EXT EL-SPHEROPOLE                             1.5057796883131E+01
 ::: BIELET ZONE E-E                               2.2479113654872E+03
 ::: TOTAL E-E                                     9.5500760755952E+02
 ::: TOTAL E-N + N-E                              -3.7376941476173E+03
 ::: TOTAL N-N                                     3.4735639241694E+02
 ::: KINETIC ENERGY                                1.2799379701586E+03
 ::: PSEUDO TOTAL   ENERGY                        -1.1553921774822E+03
 ::: VIRIAL COEFFICIENT                            1.0511412355311E+00
 TTTTTTTTTTTTTTTTTTTTTTTTTTTTTT MONMO3      TELAPSE      115.31 TCPU     3281.41
 NUMERICALLY INTEGRATED DENSITY    198.0000778218
 EXCHANGE ENERGY: -0.126020077378E+03  CORRELATION ENERGY: -0.769411144425E+01
 TTTTTTTTTTTTTTTTTTTTTTTTTTTTTT NUMDFT      TELAPSE      115.88 TCPU     3299.74
 CYC   9 ETOT(AU) -1.289106366304E+03 DETOT -5.31E-08 tst  2.34E-10 PX  1.49E-04

 == SCF ENDED - CONVERGENCE ON ENERGY      E(AU) -1.2891063663042E+03 CYCLES   9


 ENERGY EXPRESSION=HARTREE+FOCK EXCH*0.00000+(HSESOL     EXCH)*1.00000+PBESOL     CORR


 TOTAL ENERGY(DFT)(AU)(  9) -1.2891063663042E+03 DE-5.3E-08 tester 2.3E-10
 TTTTTTTTTTTTTTTTTTTTTTTTTTTTTT EDFT        TELAPSE      115.88 TCPU     3299.75
 
 INFORMATION **** DFTD3 ENERGY **** CALCULATE DFTD3 ENERGY

           DFT-D V3(BJ)
 DF                                         hsesol3c  
 parameters
 s6       :    1.0000
 s8       :    0.0000
 a1       :    0.5196
 a2       :    4.9385
 k1 k3    :   16.0000   -4.0000
 Cutoff   :   50.2022
 CN-Cutoff:   21.1671
 ABC-Cutoff:   21.1671
 
 Edisp /kcal,au:   -27.8738 -0.04441975

 E6    /kcal :   -29.8011
 E8    /kcal :     0.0000
 E6(ABC) "   :   1.927281
 
 INFORMATION **** DFTD3 ENERGY **** NORMAL TERMINATION OF DFTD3 MODULE

 GCP ENERGY CALCULATION
  level        hsesol3c            basis:hsesol3c
  Nbf            474
  Atoms           42

  Parameters: 
  sigma     1.0000
  eta       1.4281
  alpha     0.2936
  beta      1.9467

  dmp_scal      4.0000
  dmp_exp       6.0000
 cutoffs: 
   distance [bohr] 60.0
   noise    [a.u.] 2.2E-16
 SR-damping   T
 ** gCP correction **
  Egcp:        0.0831309275 / (a.u.) ||      52.1655 / (kcal/mol)
 INFORMATION **** GCP **** NORMAL TERMINATION OF GCP MODULE

 *******************************************************************************

 DFT-D3-GCP DISPERSION AND COUNTERPOISE CORRECTION

 D3 DISPERSION ENERGY (AU)      -4.4419753770147E-02
 GCP ENERGY (AU)                 8.3130927469775E-02
 TOTAL ENERGY + DISP + GCP (AU) -1.2890676551305E+03

 *******************************************************************************

 EIGENVECTORS IN FORTRAN UNIT 10
 TTTTTTTTTTTTTTTTTTTTTTTTTTTTTT END         TELAPSE      117.14 TCPU     3306.98
 EEEEEEEEEE TERMINATION  DATE 19 02 2026 TIME 18:56:35.4
