 Default number of threads is:           32

         
 *******************************************************************************
 *                                                                             *
 *                               CRYSTAL23                                     *
 *                      public : 1.0.1 - October 2022                          *
 *                       HTTP://WWW.CRYSTAL.UNITO.IT                           *
 *                                                                             *
 *                              MAIN AUTHORS                                   *
 *                                                                             *
 *  R. DOVESI(1,11), V.R. SAUNDERS(2), C. ROETTI(1,11), R. ORLANDO(1,11),      *
 *  C.M. ZICOVICH-WILSON(1,3), F. PASCALE(4), B. CIVALLERI(1,11),              *
 *  K. DOLL(5), N.M. HARRISON(6), I.J. BUSH(7), Ph. D'ARCO(8),                 *
 *  M. LLUNELL(9), M. CAUSA'(10), Y. NOEL(8), L. MASCHIO(1,11), A. ERBA(1,11)  *
 *  M. RE'RAT(14), S. CASASSA(1,11), B.G. SEARLE(2), J.K. DESMARAIS(1)         *
 *                                                                             *
 *        CONTRIBUTIONS TO THE CODE HAVE ALSO BEEN GIVEN BY                    *
 *                                                                             *
 *  M. FERRABONE(1,11), M. DE LA PIERRE(1,11), M. FERRERO(1,11),               *
 *  J. BAIMA(1,11), E. ALBANESE(1,11), M.F. PEINTINGER(12), R. BAST(13),       *
 *  B. KIRTMAN(15), V. LACIVITA(1,11), R. DEMICHELIS(1,16)                     *
 *  G. BRANDEBURG(17), S. SALUSTRO(1,11), G. SANSONE(1,11)                     *
 *  M.T. RUGGIERO(18), L.E. DAGA(1), L. DONA'(1), A. COSSARD(1)                *
 *                                                                             *
 * (1) THEORETICAL CHEMISTRY GROUP - UNIVERSITA' DI TORINO - TORINO (ITALY)    *
 * (2) SCIENTIFIC COMPUTING DEPARTMENT - STFC DARESBURY (UK)                   *
 * (3) UNIVERSIDAD AUTONOMA DEL ESTADO DE MORELOS - CUERNAVACA (MEXICO)        *
 * (4) UNIVERSITE' DE LORRAINE - NANCY (FRANCE)                                *
 * (5) UNIVERSITAET STUTTGART- STUTTGART (GERMANY)                             *
 * (6) IMPERIAL COLLEGE - LONDON (UK)                                          *
 * (7) SCIENTIFIC COMPUTING DEPARTMENT - STFC RAL (UK)                         *
 * (8) UPMC - SORBONNE UNIVERSITES - PARIS (FRANCE)                            *
 * (9) UNIVERSIDAD DE BARCELONA - BARCELONA (SPAIN)                            *
 *(10) UNIVERSITA' DI NAPOLI "FEDERICO II" - NAPOLI (ITALY)                    *
 *(11) NIS - NANOSTRUCTURED INTERFACES AND SURFACES - TORINO (ITALY)           *
 *(12) MPI FUER CHEMISCHE ENERGIEKONVERSION - MUELHEIM AN DER RUHR (GERMANY)   *
 *(13) UNIVERSITY OF TROMSO - TROMSO (NORWAY)                                  *
 *(14) UNIVERSITE' DE PAU ET DES PAYS DE L'ADOUR - PAU (FRANCE)                *
 *(15) UNIVERSITY OF CALIFORNIA SANTA BARBARA - SANTA BARBARA (USA)            *
 *(16) CURTIN UNIVERSITY - PERTH (AUSTRALIA)                                   *
 *(17) UNIVERSITY COLLEGE LONDON - LONDON (UK)                                 *
 *(18) UNIVERSITY OF VERMONT - BURLINGTON (USA)                                *
 *                                                                             *
 *******************************************************************************
 EEEEEEEEEE STARTING  DATE 19 02 2026 TIME 19:26:12.2
 cof-1_z30_L050_serr                                                             

 CRYSTAL CALCULATION
 (INPUT ACCORDING TO THE INTERNATIONAL TABLES FOR X-RAY CRYSTALLOGRAPHY)
 CRYSTAL FAMILY                       :  TRICLINIC   
 CRYSTAL CLASS  (GROTH - 1921)        :  TRICLINIC PEDIAL                     

 SPACE GROUP (NONCENTROSYMMETRIC)     :  P 1             

 LATTICE PARAMETERS  (ANGSTROMS AND DEGREES) - CONVENTIONAL CELL
        A           B           C        ALPHA        BETA       GAMMA
    15.02361    15.02392     6.00000    90.00032    89.99994   119.99596


 NUMBER OF IRREDUCIBLE ATOMS IN THE CONVENTIONAL CELL:   84

 INPUT COORDINATES

 ATOM AT. N.              COORDINATES
   1   5     6.136805400000E-01  2.273182200000E-01  2.507961200000E-01
   2   5     8.057969300000E-01  6.115900500000E-01  7.507961200000E-01
   3   5     7.727362000000E-01  3.863778800000E-01  2.507961300000E-01
   4   5     9.648525900000E-01  7.706497100000E-01  7.507961300000E-01
   5   5     6.136762700000E-01  3.863606700000E-01  2.491222600000E-01
   6   5     8.057926600000E-01  7.706325000000E-01  7.491222600000E-01
   7   5     2.272552500000E-01  6.136332200000E-01  2.507961300000E-01
   8   5     4.193716400000E-01  9.979050500000E-01  7.507961300000E-01
   9   5     3.863632200000E-01  6.136124500000E-01  2.507961200000E-01
  10   5     5.784796100000E-01  9.978842800000E-01  7.507961200000E-01
  11   5     3.863435000000E-01  7.727516500000E-01  2.491222700000E-01
  12   5     5.784598900000E-01  1.570234800000E-01  7.491222600000E-01
  13   1     9.030436200000E-01  3.089300500000E-01  2.473258700000E-01
  14   1     9.516001000000E-02  6.932018800000E-01  7.473258700000E-01
  15   1     9.663453000000E-02  6.910534400000E-01  2.467952100000E-01
  16   1     2.887509200000E-01  7.532527000000E-02  7.467952100000E-01
  17   1     9.029714200000E-01  5.940724300000E-01  2.467135400000E-01
  18   1     9.508781000000E-02  9.783442600000E-01  7.467135400000E-01
  19   1     9.673618000000E-02  4.056849400000E-01  2.467339100000E-01
  20   1     2.888525700000E-01  7.899567700000E-01  7.467339100000E-01
  21   1     6.910324000000E-01  9.700412000000E-02  2.526741600000E-01
  22   1     8.831487900000E-01  4.812759500000E-01  7.526741500000E-01
  23   1     3.089297200000E-01  9.034373100000E-01  2.532048500000E-01
  24   1     5.010461100000E-01  2.877091400000E-01  7.532048500000E-01
  25   1     4.058699900000E-01  9.704998000000E-02  2.532865700000E-01
  26   1     5.979863800000E-01  4.813218100000E-01  7.532865700000E-01
  27   1     5.943122100000E-01  9.033473200000E-01  2.532660600000E-01
  28   1     7.864286000000E-01  2.876191500000E-01  7.532660700000E-01
  29   1     6.910727400000E-01  5.940542100000E-01  2.473259000000E-01
  30   1     8.831891300000E-01  9.783260400000E-01  7.473259000000E-01
  31   1     3.089618300000E-01  4.056093300000E-01  2.467951800000E-01
  32   1     5.010782200000E-01  7.898811600000E-01  7.467951700000E-01
  33   1     4.058405700000E-01  3.088232500000E-01  2.467134700000E-01
  34   1     5.979569600000E-01  6.930950800000E-01  7.467134700000E-01
  35   1     5.942908800000E-01  6.909579300000E-01  2.467339700000E-01
  36   1     7.864072700000E-01  7.522976000000E-02  7.467339700000E-01
  37   6     8.918903100000E-01  4.459436900000E-01  2.490610100000E-01
  38   6     8.400670000000E-02  8.302155200000E-01  7.490610100000E-01
  39   6     9.464891100000E-01  3.927856300000E-01  2.474075400000E-01
  40   6     1.386055000000E-01  7.770574600000E-01  7.474075300000E-01
  41   6     5.338812000000E-02  6.071853000000E-01  2.472647000000E-01
  42   6     2.455045100000E-01  9.914571300000E-01  7.472647000000E-01
  43   6     9.464521100000E-01  5.536921900000E-01  2.476933600000E-01
  44   6     1.385685000000E-01  9.379640200000E-01  7.476933600000E-01
  45   6     5.342634000000E-02  4.462499700000E-01  2.465910100000E-01
  46   6     2.455427300000E-01  8.305218000000E-01  7.465910200000E-01
  47   6     1.080358900000E-01  5.540356300000E-01  2.477137600000E-01
  48   6     3.001522800000E-01  9.383074600000E-01  7.477137600000E-01
  49   6     5.540394200000E-01  1.081684600000E-01  2.509390200000E-01
  50   6     7.461558100000E-01  4.924402900000E-01  7.509390200000E-01
  51   6     6.071778500000E-01  5.355594000000E-02  2.525924800000E-01
  52   6     7.992942400000E-01  4.378277700000E-01  7.525924800000E-01
  53   6     3.927986700000E-01  9.466631600000E-01  2.527353700000E-01
  54   6     5.849150600000E-01  3.309349900000E-01  7.527353700000E-01
  55   6     4.462875800000E-01  5.360286000000E-02  2.523067200000E-01
  56   6     6.384039700000E-01  4.378746900000E-01  7.523067200000E-01
  57   6     5.537168500000E-01  9.466235600000E-01  2.534089800000E-01
  58   6     7.458332400000E-01  3.308953900000E-01  7.534089800000E-01
  59   6     4.459279100000E-01  8.919920600000E-01  2.522862800000E-01
  60   6     6.380443000000E-01  2.762638900000E-01  7.522862800000E-01
  61   6     5.540448700000E-01  4.458745500000E-01  2.490610100000E-01
  62   6     7.461612600000E-01  8.301463800000E-01  7.490610100000E-01
  63   6     6.072102200000E-01  5.536257800000E-01  2.474075700000E-01
  64   6     7.993266100000E-01  9.378976100000E-01  7.474075700000E-01
  65   6     3.928233700000E-01  4.461720300000E-01  2.472646600000E-01
  66   6     5.849397600000E-01  8.304438600000E-01  7.472646600000E-01
  67   6     4.462872600000E-01  3.926899900000E-01  2.476933200000E-01
  68   6     6.384036500000E-01  7.769618200000E-01  7.476933200000E-01
  69   6     5.537429600000E-01  6.070980000000E-01  2.465910600000E-01
  70   6     7.458593500000E-01  9.913698300000E-01  7.465910600000E-01
  71   6     4.459599800000E-01  5.539582300000E-01  2.477137600000E-01
  72   6     6.380763700000E-01  9.382300600000E-01  7.477137600000E-01
  73   8     5.607366800000E-01  2.803706300000E-01  2.495713400000E-01
  74   8     7.528530700000E-01  6.646424600000E-01  7.495713400000E-01
  75   8     7.196817000000E-01  2.803783300000E-01  2.531027900000E-01
  76   8     9.117980900000E-01  6.646501600000E-01  7.531027900000E-01
  77   8     7.196794200000E-01  4.393234600000E-01  2.477750100000E-01
  78   8     9.117958100000E-01  8.235952900000E-01  7.477750100000E-01
  79   8     2.803245100000E-01  7.196511100000E-01  2.495713600000E-01
  80   8     4.724409000000E-01  1.039229400000E-01  7.495713600000E-01
  81   8     2.803439700000E-01  5.606956100000E-01  2.531027900000E-01
  82   8     4.724603600000E-01  9.449674400000E-01  7.531027900000E-01
  83   8     4.392638400000E-01  7.196354200000E-01  2.477750000000E-01
  84   8     6.313802300000E-01  1.039072500000E-01  7.477750000000E-01

 *******************************************************************************

 << INFORMATION >>: FROM NOW ON, ALL COORDINATES REFER TO THE PRIMITIVE CELL

 *******************************************************************************

 LATTICE PARAMETERS  (ANGSTROMS AND DEGREES) - PRIMITIVE CELL
       A          B          C        ALPHA      BETA     GAMMA        VOLUME
   15.02361   15.02392    6.00000    90.00032  89.99994 119.99596   1172.889288

 COORDINATES OF THE EQUIVALENT ATOMS (FRACTIONAL UNITS)

 N. ATOM EQUIV AT. N.          X                  Y                  Z

   1   1   1    5 B    -3.86319460000E-01  2.27318220000E-01  2.50796120000E-01

   2   2   1    5 B    -1.94203070000E-01 -3.88409950000E-01 -2.49203880000E-01

   3   3   1    5 B    -2.27263800000E-01  3.86377880000E-01  2.50796130000E-01

   4   4   1    5 B    -3.51474100000E-02 -2.29350290000E-01 -2.49203870000E-01

   5   5   1    5 B    -3.86323730000E-01  3.86360670000E-01  2.49122260000E-01

   6   6   1    5 B    -1.94207340000E-01 -2.29367500000E-01 -2.50877740000E-01

   7   7   1    5 B     2.27255250000E-01 -3.86366780000E-01  2.50796130000E-01

   8   8   1    5 B     4.19371640000E-01 -2.09495000000E-03 -2.49203870000E-01

   9   9   1    5 B     3.86363220000E-01 -3.86387550000E-01  2.50796120000E-01

  10  10   1    5 B    -4.21520390000E-01 -2.11572000000E-03 -2.49203880000E-01

  11  11   1    5 B     3.86343500000E-01 -2.27248350000E-01  2.49122270000E-01

  12  12   1    5 B    -4.21540110000E-01  1.57023480000E-01 -2.50877740000E-01

  13  13   1    1 H    -9.69563800000E-02  3.08930050000E-01  2.47325870000E-01

  14  14   1    1 H     9.51600100000E-02 -3.06798120000E-01 -2.52674130000E-01

  15  15   1    1 H     9.66345300000E-02 -3.08946560000E-01  2.46795210000E-01

  16  16   1    1 H     2.88750920000E-01  7.53252700000E-02 -2.53204790000E-01

  17  17   1    1 H    -9.70285800000E-02 -4.05927570000E-01  2.46713540000E-01

  18  18   1    1 H     9.50878100000E-02 -2.16557400000E-02 -2.53286460000E-01

  19  19   1    1 H     9.67361800000E-02  4.05684940000E-01  2.46733910000E-01

  20  20   1    1 H     2.88852570000E-01 -2.10043230000E-01 -2.53266090000E-01

  21  21   1    1 H    -3.08967600000E-01  9.70041200000E-02  2.52674160000E-01

  22  22   1    1 H    -1.16851210000E-01  4.81275950000E-01 -2.47325850000E-01

  23  23   1    1 H     3.08929720000E-01 -9.65626900000E-02  2.53204850000E-01

  24  24   1    1 H    -4.98953890000E-01  2.87709140000E-01 -2.46795150000E-01

  25  25   1    1 H     4.05869990000E-01  9.70499800000E-02  2.53286570000E-01

  26  26   1    1 H    -4.02013620000E-01  4.81321810000E-01 -2.46713430000E-01

  27  27   1    1 H    -4.05687790000E-01 -9.66526800000E-02  2.53266060000E-01

  28  28   1    1 H    -2.13571400000E-01  2.87619150000E-01 -2.46733930000E-01

  29  29   1    1 H    -3.08927260000E-01 -4.05945790000E-01  2.47325900000E-01

  30  30   1    1 H    -1.16810870000E-01 -2.16739600000E-02 -2.52674100000E-01

  31  31   1    1 H     3.08961830000E-01  4.05609330000E-01  2.46795180000E-01

  32  32   1    1 H    -4.98921780000E-01 -2.10118840000E-01 -2.53204830000E-01

  33  33   1    1 H     4.05840570000E-01  3.08823250000E-01  2.46713470000E-01

  34  34   1    1 H    -4.02043040000E-01 -3.06904920000E-01 -2.53286530000E-01

  35  35   1    1 H    -4.05709120000E-01 -3.09042070000E-01  2.46733970000E-01

  36  36   1    1 H    -2.13592730000E-01  7.52297600000E-02 -2.53266030000E-01

  37  37   1    6 C    -1.08109690000E-01  4.45943690000E-01  2.49061010000E-01

  38  38   1    6 C     8.40067000000E-02 -1.69784480000E-01 -2.50938990000E-01

  39  39   1    6 C    -5.35108900000E-02  3.92785630000E-01  2.47407540000E-01

  40  40   1    6 C     1.38605500000E-01 -2.22942540000E-01 -2.52592470000E-01

  41  41   1    6 C     5.33881200000E-02 -3.92814700000E-01  2.47264700000E-01

  42  42   1    6 C     2.45504510000E-01 -8.54287000000E-03 -2.52735300000E-01

  43  43   1    6 C    -5.35478900000E-02 -4.46307810000E-01  2.47693360000E-01

  44  44   1    6 C     1.38568500000E-01 -6.20359800000E-02 -2.52306640000E-01

  45  45   1    6 C     5.34263400000E-02  4.46249970000E-01  2.46591010000E-01

  46  46   1    6 C     2.45542730000E-01 -1.69478200000E-01 -2.53408980000E-01

  47  47   1    6 C     1.08035890000E-01 -4.45964370000E-01  2.47713760000E-01

  48  48   1    6 C     3.00152280000E-01 -6.16925400000E-02 -2.52286240000E-01

  49  49   1    6 C    -4.45960580000E-01  1.08168460000E-01  2.50939020000E-01

  50  50   1    6 C    -2.53844190000E-01  4.92440290000E-01 -2.49060980000E-01

  51  51   1    6 C    -3.92822150000E-01  5.35559400000E-02  2.52592480000E-01

  52  52   1    6 C    -2.00705760000E-01  4.37827770000E-01 -2.47407520000E-01

  53  53   1    6 C     3.92798670000E-01 -5.33368400000E-02  2.52735370000E-01

  54  54   1    6 C    -4.15084940000E-01  3.30934990000E-01 -2.47264630000E-01

  55  55   1    6 C     4.46287580000E-01  5.36028600000E-02  2.52306720000E-01

  56  56   1    6 C    -3.61596030000E-01  4.37874690000E-01 -2.47693280000E-01

  57  57   1    6 C    -4.46283150000E-01 -5.33764400000E-02  2.53408980000E-01

  58  58   1    6 C    -2.54166760000E-01  3.30895390000E-01 -2.46591020000E-01

  59  59   1    6 C     4.45927910000E-01 -1.08007940000E-01  2.52286280000E-01

  60  60   1    6 C    -3.61955700000E-01  2.76263890000E-01 -2.47713720000E-01

  61  61   1    6 C    -4.45955130000E-01  4.45874550000E-01  2.49061010000E-01

  62  62   1    6 C    -2.53838740000E-01 -1.69853620000E-01 -2.50938990000E-01

  63  63   1    6 C    -3.92789780000E-01 -4.46374220000E-01  2.47407570000E-01

  64  64   1    6 C    -2.00673390000E-01 -6.21023900000E-02 -2.52592430000E-01

  65  65   1    6 C     3.92823370000E-01  4.46172030000E-01  2.47264660000E-01

  66  66   1    6 C    -4.15060240000E-01 -1.69556140000E-01 -2.52735340000E-01

  67  67   1    6 C     4.46287260000E-01  3.92689990000E-01  2.47693320000E-01

  68  68   1    6 C    -3.61596350000E-01 -2.23038180000E-01 -2.52306680000E-01

  69  69   1    6 C    -4.46257040000E-01 -3.92902000000E-01  2.46591060000E-01

  70  70   1    6 C    -2.54140650000E-01 -8.63017000000E-03 -2.53408940000E-01

  71  71   1    6 C     4.45959980000E-01 -4.46041770000E-01  2.47713760000E-01

  72  72   1    6 C    -3.61923630000E-01 -6.17699400000E-02 -2.52286240000E-01

  73  73   1    8 O    -4.39263320000E-01  2.80370630000E-01  2.49571340000E-01

  74  74   1    8 O    -2.47146930000E-01 -3.35357540000E-01 -2.50428660000E-01

  75  75   1    8 O    -2.80318300000E-01  2.80378330000E-01  2.53102790000E-01

  76  76   1    8 O    -8.82019100000E-02 -3.35349840000E-01 -2.46897210000E-01

  77  77   1    8 O    -2.80320580000E-01  4.39323460000E-01  2.47775010000E-01

  78  78   1    8 O    -8.82041900000E-02 -1.76404710000E-01 -2.52224990000E-01

  79  79   1    8 O     2.80324510000E-01 -2.80348890000E-01  2.49571360000E-01

  80  80   1    8 O     4.72440900000E-01  1.03922940000E-01 -2.50428640000E-01

  81  81   1    8 O     2.80343970000E-01 -4.39304390000E-01  2.53102790000E-01

  82  82   1    8 O     4.72460360000E-01 -5.50325600000E-02 -2.46897210000E-01

  83  83   1    8 O     4.39263840000E-01 -2.80364580000E-01  2.47775000000E-01

  84  84   1    8 O    -3.68619770000E-01  1.03907250000E-01 -2.52225000000E-01

 NUMBER OF SYMMETRY OPERATORS         :    1
 *******************************************************************************
 * GEOMETRY EDITING - INPUT COORDINATES ARE GIVEN IN ANGSTROM         
 *******************************************************************************

 GCALCO - MAX INDICES DIRECT LATTICE VECTOR    11    11    25
 NO.OF VECTORS CREATED 6999 STARS 3500 RMAX   235.54317 BOHR

 GEOMETRY FOR WAVE FUNCTION - DIMENSIONALITY OF THE SYSTEM    3
 (NON PERIODIC DIRECTION: LATTICE PARAMETER FORMALLY SET TO 500)
 *******************************************************************************
 LATTICE PARAMETERS (ANGSTROMS AND DEGREES) - BOHR = 0.5291772083 ANGSTROM
 PRIMITIVE CELL - CENTRING CODE 1/0 VOLUME=  1172.889288 - DENSITY  1.105 g/cm^3
         A              B              C           ALPHA      BETA       GAMMA 
    15.02361100    15.02391600     6.00000000    90.000323  89.999944 119.995964
 *******************************************************************************
 ATOMS IN THE ASYMMETRIC UNIT   84 - ATOMS IN THE UNIT CELL:   84
     ATOM                 X/A                 Y/B                 Z/C    
 *******************************************************************************
      1 T   5 B    -3.863194600000E-01  2.273182200000E-01  2.507961200000E-01
      2 T   5 B    -1.942030700000E-01 -3.884099500000E-01 -2.492038800000E-01
      3 T   5 B    -2.272638000000E-01  3.863778800000E-01  2.507961300000E-01
      4 T   5 B    -3.514741000000E-02 -2.293502900000E-01 -2.492038700000E-01
      5 T   5 B    -3.863237300000E-01  3.863606700000E-01  2.491222600000E-01
      6 T   5 B    -1.942073400000E-01 -2.293675000000E-01 -2.508777400000E-01
      7 T   5 B     2.272552500000E-01 -3.863667800000E-01  2.507961300000E-01
      8 T   5 B     4.193716400000E-01 -2.094950000000E-03 -2.492038700000E-01
      9 T   5 B     3.863632200000E-01 -3.863875500000E-01  2.507961200000E-01
     10 T   5 B    -4.215203900000E-01 -2.115720000000E-03 -2.492038800000E-01
     11 T   5 B     3.863435000000E-01 -2.272483500000E-01  2.491222700000E-01
     12 T   5 B    -4.215401100000E-01  1.570234800000E-01 -2.508777400000E-01
     13 T   1 H    -9.695638000000E-02  3.089300500000E-01  2.473258700000E-01
     14 T   1 H     9.516001000000E-02 -3.067981200000E-01 -2.526741300000E-01
     15 T   1 H     9.663453000000E-02 -3.089465600000E-01  2.467952100000E-01
     16 T   1 H     2.887509200000E-01  7.532527000000E-02 -2.532047900000E-01
     17 T   1 H    -9.702858000000E-02 -4.059275700000E-01  2.467135400000E-01
     18 T   1 H     9.508781000000E-02 -2.165574000000E-02 -2.532864600000E-01
     19 T   1 H     9.673618000000E-02  4.056849400000E-01  2.467339100000E-01
     20 T   1 H     2.888525700000E-01 -2.100432300000E-01 -2.532660900000E-01
     21 T   1 H    -3.089676000000E-01  9.700412000000E-02  2.526741600000E-01
     22 T   1 H    -1.168512100000E-01  4.812759500000E-01 -2.473258500000E-01
     23 T   1 H     3.089297200000E-01 -9.656269000000E-02  2.532048500000E-01
     24 T   1 H    -4.989538900000E-01  2.877091400000E-01 -2.467951500000E-01
     25 T   1 H     4.058699900000E-01  9.704998000000E-02  2.532865700000E-01
     26 T   1 H    -4.020136200000E-01  4.813218100000E-01 -2.467134300000E-01
     27 T   1 H    -4.056877900000E-01 -9.665268000000E-02  2.532660600000E-01
     28 T   1 H    -2.135714000000E-01  2.876191500000E-01 -2.467339300000E-01
     29 T   1 H    -3.089272600000E-01 -4.059457900000E-01  2.473259000000E-01
     30 T   1 H    -1.168108700000E-01 -2.167396000000E-02 -2.526741000000E-01
     31 T   1 H     3.089618300000E-01  4.056093300000E-01  2.467951800000E-01
     32 T   1 H    -4.989217800000E-01 -2.101188400000E-01 -2.532048300000E-01
     33 T   1 H     4.058405700000E-01  3.088232500000E-01  2.467134700000E-01
     34 T   1 H    -4.020430400000E-01 -3.069049200000E-01 -2.532865300000E-01
     35 T   1 H    -4.057091200000E-01 -3.090420700000E-01  2.467339700000E-01
     36 T   1 H    -2.135927300000E-01  7.522976000000E-02 -2.532660300000E-01
     37 T   6 C    -1.081096900000E-01  4.459436900000E-01  2.490610100000E-01
     38 T   6 C     8.400670000000E-02 -1.697844800000E-01 -2.509389900000E-01
     39 T   6 C    -5.351089000000E-02  3.927856300000E-01  2.474075400000E-01
     40 T   6 C     1.386055000000E-01 -2.229425400000E-01 -2.525924700000E-01
     41 T   6 C     5.338812000000E-02 -3.928147000000E-01  2.472647000000E-01
     42 T   6 C     2.455045100000E-01 -8.542870000000E-03 -2.527353000000E-01
     43 T   6 C    -5.354789000000E-02 -4.463078100000E-01  2.476933600000E-01
     44 T   6 C     1.385685000000E-01 -6.203598000000E-02 -2.523066400000E-01
     45 T   6 C     5.342634000000E-02  4.462499700000E-01  2.465910100000E-01
     46 T   6 C     2.455427300000E-01 -1.694782000000E-01 -2.534089800000E-01
     47 T   6 C     1.080358900000E-01 -4.459643700000E-01  2.477137600000E-01
     48 T   6 C     3.001522800000E-01 -6.169254000000E-02 -2.522862400000E-01
     49 T   6 C    -4.459605800000E-01  1.081684600000E-01  2.509390200000E-01
     50 T   6 C    -2.538441900000E-01  4.924402900000E-01 -2.490609800000E-01
     51 T   6 C    -3.928221500000E-01  5.355594000000E-02  2.525924800000E-01
     52 T   6 C    -2.007057600000E-01  4.378277700000E-01 -2.474075200000E-01
     53 T   6 C     3.927986700000E-01 -5.333684000000E-02  2.527353700000E-01
     54 T   6 C    -4.150849400000E-01  3.309349900000E-01 -2.472646300000E-01
     55 T   6 C     4.462875800000E-01  5.360286000000E-02  2.523067200000E-01
     56 T   6 C    -3.615960300000E-01  4.378746900000E-01 -2.476932800000E-01
     57 T   6 C    -4.462831500000E-01 -5.337644000000E-02  2.534089800000E-01
     58 T   6 C    -2.541667600000E-01  3.308953900000E-01 -2.465910200000E-01
     59 T   6 C     4.459279100000E-01 -1.080079400000E-01  2.522862800000E-01
     60 T   6 C    -3.619557000000E-01  2.762638900000E-01 -2.477137200000E-01
     61 T   6 C    -4.459551300000E-01  4.458745500000E-01  2.490610100000E-01
     62 T   6 C    -2.538387400000E-01 -1.698536200000E-01 -2.509389900000E-01
     63 T   6 C    -3.927897800000E-01 -4.463742200000E-01  2.474075700000E-01
     64 T   6 C    -2.006733900000E-01 -6.210239000000E-02 -2.525924300000E-01
     65 T   6 C     3.928233700000E-01  4.461720300000E-01  2.472646600000E-01
     66 T   6 C    -4.150602400000E-01 -1.695561400000E-01 -2.527353400000E-01
     67 T   6 C     4.462872600000E-01  3.926899900000E-01  2.476933200000E-01
     68 T   6 C    -3.615963500000E-01 -2.230381800000E-01 -2.523066800000E-01
     69 T   6 C    -4.462570400000E-01 -3.929020000000E-01  2.465910600000E-01
     70 T   6 C    -2.541406500000E-01 -8.630170000000E-03 -2.534089400000E-01
     71 T   6 C     4.459599800000E-01 -4.460417700000E-01  2.477137600000E-01
     72 T   6 C    -3.619236300000E-01 -6.176994000000E-02 -2.522862400000E-01
     73 T   8 O    -4.392633200000E-01  2.803706300000E-01  2.495713400000E-01
     74 T   8 O    -2.471469300000E-01 -3.353575400000E-01 -2.504286600000E-01
     75 T   8 O    -2.803183000000E-01  2.803783300000E-01  2.531027900000E-01
     76 T   8 O    -8.820191000000E-02 -3.353498400000E-01 -2.468972100000E-01
     77 T   8 O    -2.803205800000E-01  4.393234600000E-01  2.477750100000E-01
     78 T   8 O    -8.820419000000E-02 -1.764047100000E-01 -2.522249900000E-01
     79 T   8 O     2.803245100000E-01 -2.803488900000E-01  2.495713600000E-01
     80 T   8 O     4.724409000000E-01  1.039229400000E-01 -2.504286400000E-01
     81 T   8 O     2.803439700000E-01 -4.393043900000E-01  2.531027900000E-01
     82 T   8 O     4.724603600000E-01 -5.503256000000E-02 -2.468972100000E-01
     83 T   8 O     4.392638400000E-01 -2.803645800000E-01  2.477750000000E-01
     84 T   8 O    -3.686197700000E-01  1.039072500000E-01 -2.522250000000E-01

 T = ATOM BELONGING TO THE ASYMMETRIC UNIT

 ****    1 SYMMOPS - TRANSLATORS IN FRACTIONAL UNITS
 **** MATRICES AND TRANSLATORS IN THE CRYSTALLOGRAPHIC REFERENCE FRAME
   V INV                    ROTATION MATRICES                   TRANSLATORS
   1   1  1.00 -0.00  0.00  0.00  1.00  0.00  0.00  0.00  1.00  0.00  0.00  0.00

 DIRECT LATTICE VECTORS CARTESIAN COMPONENTS (ANGSTROM)
          X                    Y                    Z
   0.130113578931E+02  -0.751088897922E+01   0.000000000000E+00
   0.000000000000E+00   0.150239160000E+02   0.000000000000E+00
  -0.127541541606E-04  -0.338244809023E-04   0.599999999989E+01


 CARTESIAN COORDINATES - PRIMITIVE CELL
 *******************************************************************************
 *      ATOM          X(ANGSTROM)         Y(ANGSTROM)         Z(ANGSTROM)
 *******************************************************************************
    1     5 B    -5.026543953805E+00  6.316803934072E+00  1.504776719973E+00
    2     5 B    -2.526842469316E+00 -4.376792334979E+00 -1.495223279973E+00
    3     5 B    -2.957013836629E+00  7.511853501124E+00  1.504776779973E+00
    4     5 B    -4.573123521394E-01 -3.181742767927E+00 -1.495223219973E+00
    5     5 B    -5.026599490954E+00 -6.317639528581E+00  1.494733559973E+00
    6     5 B    -2.526898006465E+00 -1.987319797632E+00 -1.505266439973E+00
    7     5 B     2.956896192134E+00 -7.511639483653E+00  1.504776779973E+00
    8     5 B     5.456597676623E+00 -3.181319752705E+00 -1.495223219973E+00
    9     5 B     5.027106933441E+00  6.316922171233E+00  1.504776719973E+00
   10     5 B    -5.484549475126E+00  3.134214881398E+00 -1.495223279973E+00
   11     5 B     5.026850370812E+00 -6.315951684312E+00  1.494733619973E+00
   12     5 B     7.526551855302E+00 -1.985631953363E+00 -1.505266439973E+00
   13     1 H    -1.261537314627E+00  5.369559361413E+00  1.483955219973E+00
   14     1 H     1.238164169862E+00 -5.324036907638E+00 -1.516044779972E+00
   15     1 H     1.257343306993E+00 -5.367406740038E+00  1.480771259973E+00
   16     1 H     3.757044791482E+00 -1.037087009089E+00 -1.519228739972E+00
   17     1 H    -1.262476726858E+00 -5.369859166531E+00  1.480281239973E+00
   18     1 H     1.237224757632E+00 -1.039539435582E+00 -1.519718759972E+00
   19     1 H     1.258665912305E+00  5.368393407125E+00  1.480403459973E+00
   20     1 H     3.758367396794E+00 -5.325202861926E+00 -1.519596539972E+00
   21     1 H    -4.020091243604E+00  3.777994545737E+00  1.516044959972E+00
   22     1 H    -1.520389759115E+00 -6.915601723314E+00 -1.483955099973E+00
   23     1 H     4.019591921308E+00 -3.771095137117E+00  1.519229099972E+00
   24     1 H     6.519293405797E+00  5.592245938318E-01 -1.480770899973E+00
   25     1 H     5.280916467485E+00 -1.590382254851E+00  1.519719419972E+00
   26     1 H    -5.230739941082E+00 -4.773089544685E+00 -1.480280579973E+00
   27     1 H    -5.278552258728E+00  1.594965638826E+00  1.519596359972E+00
   28     1 H    -2.778850774239E+00  5.925285369774E+00 -1.480403579973E+00
   29     1 H    -4.019566297214E+00 -3.778585462670E+00  1.483955399973E+00
   30     1 H    -1.519864812725E+00  5.517342682786E-01 -1.516044599972E+00
   31     1 H     4.020009797760E+00  3.773254151072E+00  1.480771079973E+00
   32     1 H    -6.491646610807E+00  5.905468612376E-01 -1.519228979972E+00
   33     1 H     5.280533757170E+00  1.591502757360E+00  1.480280819973E+00
   34     1 H    -5.231122651397E+00 -1.591204532475E+00 -1.519719179972E+00
   35     1 H    -5.278829707680E+00 -1.595794287619E+00  1.480403819973E+00
   36     1 H    -2.779128223191E+00  2.734525443330E+00 -1.519596179972E+00
   37     6 C    -1.406657044860E+00  7.511811994098E+00  1.494366059973E+00
   38     6 C     1.093044439629E+00 -3.181784274953E+00 -1.505633939973E+00
   39     6 C    -6.962524964399E-01  6.303084296665E+00  1.484445239973E+00
   40     6 C     1.803448988049E+00 -4.390511972386E+00 -1.515554819972E+00
   41     6 C     6.946487829053E-01 -6.302615662094E+00  1.483588199973E+00
   42     6 C     3.194350267394E+00 -1.972295931146E+00 -1.516411799972E+00
   43     6 C    -6.967339203273E-01 -6.303107168822E+00  1.486160159973E+00
   44     6 C     1.802967564162E+00 -1.972787437873E+00 -1.513839839973E+00
   45     6 C     6.951460855964E-01  6.303134415164E+00  1.479546059973E+00
   46     6 C     3.194847570085E+00 -4.390461853888E+00 -1.520453879972E+00
   47     6 C     1.405690470705E+00 -7.511585188223E+00  1.486282559973E+00
   48     6 C     3.905391955195E+00 -3.181265457274E+00 -1.513717439973E+00
   49     6 C     7.208801979967E+00 -2.536223204722E+00  1.505634119973E+00
   50     6 C    -3.302854428601E+00 -5.718930494557E+00 -1.494365879973E+00
   51     6 C    -5.111152803573E+00  3.755054957279E+00  1.515554879972E+00
   52     6 C    -2.611451319084E+00 -6.938541311772E+00 -1.484445119973E+00
   53     6 C     5.110840851861E+00 -3.751603954062E+00  1.516412219972E+00
   54     6 C     7.610542336350E+00  5.787157768869E-01 -1.483587779973E+00
   55     6 C     5.806804208647E+00 -2.546700134327E+00  1.513840319973E+00
   56     6 C    -4.704852199920E+00 -5.729407424162E+00 -1.486159679973E+00
   57     6 C    -5.806753018308E+00  2.550051470579E+00  1.520453879972E+00
   58     6 C    -3.307051533819E+00  6.880371201528E+00 -1.479546119973E+00
   59     6 C     5.802124413815E+00 -4.972025776090E+00  1.513717679973E+00
   60     6 C     8.301825898304E+00 -6.417060451406E-01 -1.486282319973E+00
   61     6 C     7.208872915819E+00  2.537403853304E+00  1.494366059973E+00
   62     6 C    -3.302783492748E+00 -6.453034365307E-01 -1.505633939973E+00
   63     6 C    -5.110731559789E+00 -3.756096724527E+00  1.484445419973E+00
   64     6 C    -2.611030075300E+00  5.742230064216E-01 -1.515554579972E+00
   65     6 C     5.111162302175E+00  3.752790016159E+00  1.483587959973E+00
   66     6 C    -5.400494106392E+00  5.700827263244E-01 -1.516412039972E+00
   67     6 C     5.806800103853E+00  2.547718983004E+00  1.486159919973E+00
   68     6 C    -4.704856304715E+00 -6.349883068305E-01 -1.513840079973E+00
   69     6 C    -5.806413204796E+00 -2.551147901413E+00  1.479546359973E+00
   70     6 C    -3.306711720307E+00  1.779171829536E+00 -1.520453639972E+00
   71     6 C     5.802541746381E+00  4.973057637286E+00  1.486282559973E+00
   72     6 C    -4.709114662187E+00  1.790350347451E+00 -1.513717439973E+00
   73     8 O     7.295942444173E+00  6.254023116313E-04  1.497428039973E+00
   74     8 O    -3.215713964394E+00 -3.182081887523E+00 -1.502571959973E+00
   75     8 O    -3.647324953385E+00  6.317811547212E+00  1.518616739972E+00
   76     8 O    -1.147623468896E+00 -4.375784721839E+00 -1.481383259973E+00
   77     8 O    -3.647354551330E+00 -6.318108866022E+00  1.486650059973E+00
   78     8 O    -1.147653066841E+00 -1.987789135073E+00 -1.513349939973E+00
   79     8 O     3.647399342734E+00 -6.317432888438E+00  1.497428159973E+00
   80     8 O     6.147100827223E+00 -1.987113157489E+00 -1.502571839973E+00
   81     8 O     3.647652498718E+00  6.318202750475E+00  1.518616739972E+00
   82     8 O     6.147353983207E+00 -4.375393518576E+00 -1.481383259973E+00
   83     8 O    -7.295942021499E+00 -5.552357638786E-04  1.486649999973E+00
   84     8 O    -4.796240537010E+00  4.329764495185E+00 -1.513349999973E+00

 *******************************************************************************
 STARTING BASIS SET HANDLING 
 *******************************************************************************

 Loading internal basis set: SOLDEF2MSVP         

 Please cite in your publication:
 L. Dona', J. G. Brandenburg and B. Civalleri, J. Chem. Phys., 151, 121101 (2019
 )                                                                              
                                                                                
                    

 *******************************************************************************
 LOCAL ATOMIC FUNCTIONS BASIS SET
 *******************************************************************************
   ATOM   X(AU)   Y(AU)   Z(AU)  N. TYPE  EXPONENT  S COEF   P COEF   D/F/G COEF
 *******************************************************************************
   1 B   -9.499  11.937   2.844
                                  1 S  
                                         2.410E+03 1.755E-03 0.000E+00 0.000E+00
                                         3.619E+02 1.344E-02 0.000E+00 0.000E+00
                                         8.231E+01 6.637E-02 0.000E+00 0.000E+00
                                         2.311E+01 2.303E-01 0.000E+00 0.000E+00
                                         7.252E+00 5.150E-01 0.000E+00 0.000E+00
                                  2 S  
                                         2.367E+00 1.000E+00 0.000E+00 0.000E+00
                                  3 S  
                                         5.533E-01 1.000E+00 0.000E+00 0.000E+00
                                  4 S  
                                         1.716E-01 1.000E+00 0.000E+00 0.000E+00
                           5-     7 P  
                                         6.002E+00 0.000E+00-3.555E-02 0.000E+00
                                         1.240E+00 0.000E+00-1.983E-01 0.000E+00
                                         3.367E-01 0.000E+00-5.048E-01 0.000E+00
                           8-    10 P  
                                         1.256E-01 0.000E+00 1.000E+00 0.000E+00
                          11-    15 D  
                                         8.880E-01 0.000E+00 0.000E+00 1.000E+00
   2 B   -4.775  -8.271  -2.826
   3 B   -5.588  14.195   2.844
   4 B   -0.864  -6.013  -2.826
   5 B   -9.499 -11.939   2.825
   6 B   -4.775  -3.755  -2.845
   7 B    5.588 -14.195   2.844
   8 B   10.311  -6.012  -2.826
   9 B    9.500  11.937   2.844
  10 B  -10.364   5.923  -2.826
  11 B    9.499 -11.935   2.825
  12 B   14.223  -3.752  -2.845
  13 H   -2.384  10.147   2.804
                                181 S  
                                         1.874E+01 1.968E-02 0.000E+00 0.000E+00
                                         2.826E+00 1.380E-01 0.000E+00 0.000E+00
                                         6.401E-01 4.783E-01 0.000E+00 0.000E+00
                                182 S  
                                         1.756E-01 1.000E+00 0.000E+00 0.000E+00
  14 H    2.340 -10.061  -2.865
  15 H    2.376 -10.143   2.798
  16 H    7.100  -1.960  -2.871
  17 H   -2.386 -10.148   2.797
  18 H    2.338  -1.964  -2.872
  19 H    2.379  10.145   2.798
  20 H    7.102 -10.063  -2.872
  21 H   -7.597   7.139   2.865
  22 H   -2.873 -13.069  -2.804
  23 H    7.596  -7.126   2.871
  24 H   12.320   1.057  -2.798
  25 H    9.979  -3.005   2.872
  26 H   -9.885  -9.020  -2.797
  27 H   -9.975   3.014   2.872
  28 H   -5.251  11.197  -2.798
  29 H   -7.596  -7.140   2.804
  30 H   -2.872   1.043  -2.865
  31 H    7.597   7.130   2.798
  32 H  -12.267   1.116  -2.871
  33 H    9.979   3.008   2.797
  34 H   -9.885  -3.007  -2.872
  35 H   -9.976  -3.016   2.798
  36 H   -5.252   5.168  -2.872
  37 C   -2.658  14.195   2.824
                                229 S  
                                         3.624E+03 1.634E-03 0.000E+00 0.000E+00
                                         5.440E+02 1.252E-02 0.000E+00 0.000E+00
                                         1.237E+02 6.211E-02 0.000E+00 0.000E+00
                                         3.476E+01 2.182E-01 0.000E+00 0.000E+00
                                         1.093E+01 4.980E-01 0.000E+00 0.000E+00
                                230 S  
                                         3.574E+00 1.000E+00 0.000E+00 0.000E+00
                                231 S  
                                         7.742E-01 1.000E+00 0.000E+00 0.000E+00
                                232 S  
                                         2.330E-01 1.000E+00 0.000E+00 0.000E+00
                         233-   235 P  
                                         9.443E+00 0.000E+00 3.790E-02 0.000E+00
                                         2.002E+00 0.000E+00 2.082E-01 0.000E+00
                                         5.463E-01 0.000E+00 5.047E-01 0.000E+00
                         236-   238 P  
                                         1.820E-01 0.000E+00 1.000E+00 0.000E+00
                         239-   243 D  
                                         8.880E-01 0.000E+00 0.000E+00 1.000E+00
  38 C    2.066  -6.013  -2.845
  39 C   -1.316  11.911   2.805
  40 C    3.408  -8.297  -2.864
  41 C    1.313 -11.910   2.804
  42 C    6.036  -3.727  -2.866
  43 C   -1.317 -11.911   2.808
  44 C    3.407  -3.728  -2.861
  45 C    1.314  11.911   2.796
  46 C    6.037  -8.297  -2.873
  47 C    2.656 -14.195   2.809
  48 C    7.380  -6.012  -2.861
  49 C   13.623  -4.793   2.845
  50 C   -6.241 -10.807  -2.824
  51 C   -9.659   7.096   2.864
  52 C   -4.935 -13.112  -2.805
  53 C    9.658  -7.090   2.866
  54 C   14.382   1.094  -2.804
  55 C   10.973  -4.813   2.861
  56 C   -8.891 -10.827  -2.808
  57 C  -10.973   4.819   2.873
  58 C   -6.249  13.002  -2.796
  59 C   10.964  -9.396   2.861
  60 C   15.688  -1.213  -2.809
  61 C   13.623   4.795   2.824
  62 C   -6.241  -1.219  -2.845
  63 C   -9.658  -7.098   2.805
  64 C   -4.934   1.085  -2.864
  65 C    9.659   7.092   2.804
  66 C  -10.205   1.077  -2.866
  67 C   10.973   4.814   2.808
  68 C   -8.891  -1.200  -2.861
  69 C  -10.973  -4.821   2.796
  70 C   -6.249   3.362  -2.873
  71 C   10.965   9.398   2.809
  72 C   -8.899   3.383  -2.861
  73 O   13.787   0.001   2.830
                                769 S  
                                         6.773E+03 1.727E-03 0.000E+00 0.000E+00
                                         1.017E+03 1.325E-02 0.000E+00 0.000E+00
                                         2.313E+02 6.603E-02 0.000E+00 0.000E+00
                                         6.501E+01 2.353E-01 0.000E+00 0.000E+00
                                         2.050E+01 5.498E-01 0.000E+00 0.000E+00
                                770 S  
                                         6.716E+00 1.000E+00 0.000E+00 0.000E+00
                                771 S  
                                         1.147E+00 1.000E+00 0.000E+00 0.000E+00
                                772 S  
                                         3.342E-01 1.000E+00 0.000E+00 0.000E+00
                         773-   775 P  
                                         1.769E+01 0.000E+00 4.359E-02 0.000E+00
                                         3.854E+00 0.000E+00 2.318E-01 0.000E+00
                                         1.047E+00 0.000E+00 5.146E-01 0.000E+00
                         776-   778 P  
                                         2.759E-01 0.000E+00 1.000E+00 0.000E+00
                         779-   783 D  
                                         8.000E-01 0.000E+00 0.000E+00 1.000E+00
  74 O   -6.077  -6.013  -2.839
  75 O   -6.892  11.939   2.870
  76 O   -2.169  -8.269  -2.799
  77 O   -6.893 -11.939   2.809
  78 O   -2.169  -3.756  -2.860
  79 O    6.893 -11.938   2.830
  80 O   11.616  -3.755  -2.839
  81 O    6.893  11.940   2.870
  82 O   11.617  -8.268  -2.799
  83 O  -13.787  -0.001   2.809
  84 O   -9.064   8.182  -2.860

 *******************************************************************************
 FINISHED BASIS SET HANDLING 
 *******************************************************************************

 INFORMATION **** SET_MPP **** PCRYSTAL CALCULATION
 INFORMATION **** READM2 **** NEW DEFAULT: FOCK/KS MATRIX MIXING SET TO 30 %
 INFORMATION **** READM2 **** NEW DEFAULT: FULL DIRECT SCF MODE
 INFORMATION **** READM2 **** NEW DEFAULT: COULOMB BIPOLAR BUFFER SET TO 32 Mb
 INFORMATION **** READM2 **** NEW DEFAULT: EXCHANGE BIPOLAR BUFFER SET TO 32 Mb

 *******************************************************************************
 NEW DEFAULT: DFT INTEGRATION GRID INCREASED TO XLGRID
 NEW DEFAULT: DIIS ACCELERATOR ACTIVE
 USE KEYWORD NODIIS TO TURN IT OFF
 *******************************************************************************

 WARNING **** RDDFTP **** HSEsol-HJS ACTIVE
 RANGE SEPARATION - OMEGA:   0.110000000000000     
 WARNING **** RDDFTP **** HSEsol-3c has to be combined with sol-def2-mSVP basis set
 *******************************************************************************
 N. OF ATOMS PER CELL        84  COULOMB OVERLAP TOL         (T1) 10**   -6
 NUMBER OF SHELLS           468  COULOMB PENETRATION TOL     (T2) 10**   -6
 NUMBER OF AO               948  EXCHANGE OVERLAP TOL        (T3) 10**   -6
 N. OF ELECTRONS PER CELL   396  EXCHANGE PSEUDO OVP (F(G))  (T4) 10**   -6
 CORE ELECTRONS PER CELL    120  EXCHANGE PSEUDO OVP (P(G))  (T5) 10**  -12
 N. OF SYMMETRY OPERATORS     1  POLE ORDER IN MONO ZONE                  4
 *******************************************************************************
 TYPE OF CALCULATION :  RESTRICTED CLOSED SHELL
 KOHN-SHAM HAMILTONIAN

 (EXCHANGE)[CORRELATION] FUNCTIONAL:(HSEsol GGA)[PBEsol]

 RANGE-SEPARATED HYBRID FUNCTIONAL 
 OMEGA (SHORT-RANGE)[LONG-RANGE]:(    0.1100)[    0.0000]

 HYBRID EXCHANGE - PERCENTAGE OF FOCK EXCHANGE    25.0000

 CAPPA:IS1  2;IS2  2;IS3  8; K PTS MONK NET  20; SYMMOPS:K SPACE   2;G SPACE   1

 *******************************************************************************
 MAX NUMBER OF SCF CYCLES      50  CONVERGENCE ON DELTAP        10**-16
 WEIGHT OF F(I) IN F(I+1)      30% CONVERGENCE ON ENERGY        10**- 6
 SHRINK. FACT.(MONKH.)    2  2  8  NUMBER OF K POINTS IN THE IBZ     20
 SHRINKING FACTOR(GILAT NET)    8  NUMBER OF K POINTS(GILAT NET)   1028
 *******************************************************************************
 *** K POINTS COORDINATES (OBLIQUE COORDINATES IN UNITS OF IS =  2)
   1-R(  0  0  0)   2-R(  1  0  0)   3-R(  0  1  0)   4-R(  1  1  0)
   5-C(  0  0  1)   6-C(  1  0  1)   7-C(  0  1  1)   8-C(  1  1  1)
   9-C(  0  0  2)  10-C(  1  0  2)  11-C(  0  1  2)  12-C(  1  1  2)
  13-C(  0  0  3)  14-C(  1  0  3)  15-C(  0  1  3)  16-C(  1  1  3)
  17-R(  0  0  4)  18-R(  1  0  4)  19-R(  0  1  4)  20-R(  1  1  4)

 DIRECT LATTICE VECTORS COMPON. (A.U.)     RECIP. LATTICE VECTORS COMPON. (A.U.) 
        X            Y            Z              X            Y            Z
   24.5879030  -14.1935232    0.0000000      0.2555397    0.0000000    0.0000005
    0.0000000   28.3910867    0.0000000      0.1277517    0.2213084    0.0000015
   -0.0000241   -0.0000639   11.3383568      0.0000000    0.0000000    0.5541531

 DISK SPACE FOR EIGENVECTORS (FTN 10)    28758528 REALS

 SYMMETRY ADAPTION OF THE BLOCH FUNCTIONS DISABLED
 TTTTTTTTTTTTTTTTTTTTTTTTTTTTTT gordsh1     TELAPSE        0.05 TCPU        0.05

 MATRIX SIZE: P(G)  842998, F(G)  157996, P(G) IRR  423665, F(G) IRR  159244
 MAX G-VECTOR INDEX FOR 1- AND 2-ELECTRON INTEGRALS  57

 TTTTTTTTTTTTTTTTTTTTTTTTTTTTTT INPUT       TELAPSE        2.93 TCPU        2.92

 NEIGHBORS OF THE NON-EQUIVALENT ATOMS

 N = NUMBER OF NEIGHBORS AT DISTANCE R
    ATOM  N     R/ANG      R/AU   NEIGHBORS (ATOM LABELS AND CELL INDICES)
   1 B    1     1.3791     2.6061   73 O   -1 0 0
   1 B    1     1.3793     2.6065   75 O    0 0 0
   1 B    1     1.5503     2.9297   49 C   -1 0 0
   1 B    1     2.3895     4.5155    5 B    0 1 0
   1 B    1     2.3898     4.5160    3 B    0 0 0
   1 B    1     2.5632     4.8437   51 C    0 0 0

   2 B    1     1.3791     2.6061   74 O    0 0 0
   2 B    1     1.3793     2.6065   76 O    0 0 0
   2 B    1     1.5503     2.9297   50 C    0 0 0
   2 B    1     2.3895     4.5155    6 B    0 0 0
   2 B    1     2.3898     4.5160    4 B    0 0 0
   2 B    1     2.5632     4.8437   52 C    0 0 0

   3 B    1     1.3793     2.6065   77 O    0 1 0
   3 B    1     1.3793     2.6065   75 O    0 0 0
   3 B    1     1.5504     2.9298   37 C    0 0 0
   3 B    1     2.3895     4.5156    5 B    0 1 0
   3 B    1     2.3898     4.5160    1 B    0 0 0
   3 B    1     2.5634     4.8440   43 C    0 1 0

   4 B    1     1.3793     2.6065   78 O    0 0 0
   4 B    1     1.3793     2.6065   76 O    0 0 0
   4 B    1     1.5504     2.9298   38 C    0 0 0
   4 B    1     2.3895     4.5156    6 B    0 0 0
   4 B    1     2.3898     4.5160    2 B    0 0 0
   4 B    1     2.5634     4.8440   44 C    0 0 0

   5 B    1     1.3791     2.6061   73 O   -1-1 0
   5 B    1     1.3793     2.6064   77 O    0 0 0
   5 B    1     1.5502     2.9294   61 C   -1-1 0
   5 B    1     2.3895     4.5155    1 B    0-1 0
   5 B    1     2.3895     4.5156    3 B    0-1 0
   5 B    1     2.5629     4.8433   63 C    0 0 0

   6 B    1     1.3791     2.6061   74 O    0 0 0
   6 B    1     1.3793     2.6064   78 O    0 0 0
   6 B    1     1.5502     2.9294   62 C    0 0 0
   6 B    1     2.3895     4.5155    2 B    0 0 0
   6 B    1     2.3895     4.5156    4 B    0 0 0
   6 B    1     2.5629     4.8433   64 C    0 0 0

   7 B    1     1.3795     2.6068   79 O    0 0 0
   7 B    1     1.3795     2.6070   81 O    0-1 0
   7 B    1     1.5513     2.9316   47 C    0 0 0
   7 B    1     2.3905     4.5174   11 B    0 0 0
   7 B    1     2.3905     4.5175    9 B    0-1 0
   7 B    1     2.5648     4.8468   45 C    0-1 0

   8 B    1     1.3795     2.6068   80 O    0 0 0
   8 B    1     1.3795     2.6070   82 O    0 0 0
   8 B    1     1.5513     2.9316   48 C    0 0 0
   8 B    1     2.3905     4.5174   12 B    0 0 0
   8 B    1     2.3905     4.5175   10 B    1 0 0
   8 B    1     2.5648     4.8468   46 C    0 0 0

   9 B    1     1.3795     2.6069   81 O    0 0 0
   9 B    1     1.3797     2.6072   83 O    1 1 0
   9 B    1     1.5516     2.9322   71 C    0 0 0
   9 B    1     2.3905     4.5175    7 B    0 1 0
   9 B    1     2.3911     4.5185   11 B    0 1 0
   9 B    1     2.5651     4.8473   69 C    1 1 0

  10 B    1     1.3795     2.6069   82 O   -1 0 0
  10 B    1     1.3797     2.6072   84 O    0 0 0
  10 B    1     1.5516     2.9322   72 C    0 0 0
  10 B    1     2.3905     4.5175    8 B   -1 0 0
  10 B    1     2.3911     4.5185   12 B   -1 0 0
  10 B    1     2.5651     4.8473   70 C    0 0 0

  11 B    1     1.3795     2.6068   79 O    0 0 0
  11 B    1     1.3796     2.6071   83 O    1 0 0
  11 B    1     1.5516     2.9322   59 C    0 0 0
  11 B    1     2.3905     4.5174    7 B    0 0 0
  11 B    1     2.3911     4.5185    9 B    0-1 0
  11 B    1     2.5651     4.8473   57 C    1 0 0

  12 B    1     1.3795     2.6068   80 O    0 0 0
  12 B    1     1.3796     2.6071   84 O    1 0 0
  12 B    1     1.5516     2.9322   60 C    0 0 0
  12 B    1     2.3905     4.5174    8 B    0 0 0
  12 B    1     2.3911     4.5185   10 B    1 0 0
  12 B    1     2.5651     4.8473   58 C    1 0 0

  13 H    1     1.0913     2.0623   39 C    0 0 0
  13 H    1     2.1472     4.0576   37 C    0 0 0
  13 H    1     2.1680     4.0969   45 C    0 0 0
  13 H    1     2.5202     4.7625   19 H    0 0 0
  13 H    1     2.5676     4.8520   75 O    0 0 0
  13 H    1     2.7321     5.1630    3 B    0 0 0

  14 H    1     1.0913     2.0623   40 C    0 0 0
  14 H    1     2.1472     4.0576   38 C    0 0 0
  14 H    1     2.1680     4.0969   46 C    0 0 0
  14 H    1     2.5202     4.7625   20 H    0 0 0
  14 H    1     2.5676     4.8520   76 O    0 0 0
  14 H    1     2.7321     5.1630    4 B    0 0 0

  15 H    1     1.0914     2.0625   41 C    0 0 0
  15 H    1     2.1493     4.0616   47 C    0 0 0
  15 H    1     2.1666     4.0942   43 C    0 0 0
  15 H    1     2.5198     4.7618   17 H    0 0 0
  15 H    1     2.5720     4.8604   79 O    0 0 0
  15 H    1     2.7362     5.1707    7 B    0 0 0

  16 H    1     1.0914     2.0625   42 C    0 0 0
  16 H    1     2.1493     4.0616   48 C    0 0 0
  16 H    1     2.1666     4.0942   44 C    0 0 0
  16 H    1     2.5198     4.7618   18 H    0 0 0
  16 H    1     2.5720     4.8604   80 O    0 0 0
  16 H    1     2.7362     5.1707    8 B    0 0 0

  17 H    1     1.0914     2.0624   43 C    0 0 0
  17 H    1     2.1471     4.0575   37 C    0-1 0
  17 H    1     2.1680     4.0970   41 C    0 0 0
  17 H    1     2.5198     4.7618   15 H    0 0 0
  17 H    1     2.5665     4.8500   77 O    0 0 0
  17 H    1     2.7315     5.1618    3 B    0-1 0

  18 H    1     1.0914     2.0624   44 C    0 0 0
  18 H    1     2.1471     4.0575   38 C    0 0 0
  18 H    1     2.1680     4.0970   42 C    0 0 0
  18 H    1     2.5198     4.7618   16 H    0 0 0
  18 H    1     2.5665     4.8500   78 O    0 0 0
  18 H    1     2.7315     5.1618    4 B    0 0 0

  19 H    1     1.0915     2.0626   45 C    0 0 0
  19 H    1     2.1490     4.0610   47 C    0 1 0
  19 H    1     2.1669     4.0948   39 C    0 0 0
  19 H    1     2.5202     4.7625   13 H    0 0 0
  19 H    1     2.5712     4.8588   81 O    0 0 0
  19 H    1     2.7351     5.1686    7 B    0 1 0

  20 H    1     1.0915     2.0626   46 C    0 0 0
  20 H    1     2.1490     4.0610   48 C    0 0 0
  20 H    1     2.1669     4.0948   40 C    0 0 0
  20 H    1     2.5202     4.7625   14 H    0 0 0
  20 H    1     2.5712     4.8588   82 O    0 0 0
  20 H    1     2.7351     5.1686    8 B    0 0 0

  21 H    1     1.0913     2.0623   51 C    0 0 0
  21 H    1     2.1469     4.0571   49 C   -1 0 0
  21 H    1     2.1680     4.0968   57 C    0 0 0
  21 H    1     2.5198     4.7617   27 H    0 0 0
  21 H    1     2.5670     4.8510   75 O    0 0 0
  21 H    1     2.7310     5.1609    1 B    0 0 0

  22 H    1     1.0913     2.0623   52 C    0 0 0
  22 H    1     2.1469     4.0571   50 C    0 0 0
  22 H    1     2.1680     4.0968   58 C    0-1 0
  22 H    1     2.5198     4.7617   28 H    0-1 0
  22 H    1     2.5670     4.8510   76 O    0 0 0
  22 H    1     2.7310     5.1609    2 B    0 0 0

  23 H    1     1.0914     2.0625   53 C    0 0 0
  23 H    1     2.1493     4.0617   59 C    0 0 0
  23 H    1     2.1664     4.0939   55 C    0 0 0
  23 H    1     2.5192     4.7606   25 H    0 0 0
  23 H    1     2.5735     4.8632   79 O    0 0 0
  23 H    1     2.7371     5.1723   11 B    0 0 0

  24 H    1     1.0914     2.0625   54 C    0 0 0
  24 H    1     2.1493     4.0617   60 C    0 0 0
  24 H    1     2.1664     4.0939   56 C    1 1 0
  24 H    1     2.5192     4.7606   26 H    1 1 0
  24 H    1     2.5735     4.8632   80 O    0 0 0
  24 H    1     2.7371     5.1723   12 B    0 0 0

  25 H    1     1.0914     2.0624   55 C    0 0 0
  25 H    1     2.1475     4.0581   49 C    0 0 0
  25 H    1     2.1679     4.0967   53 C    0 0 0
  25 H    1     2.5192     4.7606   23 H    0 0 0
  25 H    1     2.5675     4.8519   73 O    0 0 0
  25 H    1     2.7328     5.1643    1 B    1 0 0

  26 H    1     1.0914     2.0624   56 C    0 0 0
  26 H    1     2.1475     4.0581   50 C    0 0 0
  26 H    1     2.1679     4.0967   54 C   -1-1 0
  26 H    1     2.5192     4.7606   24 H   -1-1 0
  26 H    1     2.5675     4.8519   74 O    0 0 0
  26 H    1     2.7328     5.1643    2 B    0 0 0

  27 H    1     1.0914     2.0625   57 C    0 0 0
  27 H    1     2.1491     4.0612   59 C   -1 0 0
  27 H    1     2.1666     4.0942   51 C    0 0 0
  27 H    1     2.5198     4.7617   21 H    0 0 0
  27 H    1     2.5723     4.8609   83 O    0 0 0
  27 H    1     2.7355     5.1693   11 B   -1 0 0

  28 H    1     1.0914     2.0625   58 C    0 0 0
  28 H    1     2.1491     4.0612   60 C   -1 0 0
  28 H    1     2.1666     4.0942   52 C    0 1 0
  28 H    1     2.5198     4.7617   22 H    0 1 0
  28 H    1     2.5723     4.8609   84 O    0 0 0
  28 H    1     2.7355     5.1693   12 B   -1 0 0

  29 H    1     1.0914     2.0624   63 C    0 0 0
  29 H    1     2.1475     4.0582   61 C   -1-1 0
  29 H    1     2.1678     4.0966   69 C    0 0 0
  29 H    1     2.5200     4.7621   35 H    0 0 0
  29 H    1     2.5667     4.8503   77 O    0 0 0
  29 H    1     2.7315     5.1618    5 B    0 0 0

  30 H    1     1.0914     2.0624   64 C    0 0 0
  30 H    1     2.1475     4.0582   62 C    0 0 0
  30 H    1     2.1678     4.0966   70 C    0 0 0
  30 H    1     2.5200     4.7621   36 H    0 0 0
  30 H    1     2.5667     4.8503   78 O    0 0 0
  30 H    1     2.7315     5.1618    6 B    0 0 0

  31 H    1     1.0913     2.0623   65 C    0 0 0
  31 H    1     2.1487     4.0605   71 C    0 0 0
  31 H    1     2.1667     4.0945   67 C    0 0 0
  31 H    1     2.5197     4.7616   33 H    0 0 0
  31 H    1     2.5723     4.8610   81 O    0 0 0
  31 H    1     2.7359     5.1701    9 B    0 0 0

  32 H    1     1.0913     2.0623   66 C    0 0 0
  32 H    1     2.1487     4.0605   72 C    0 0 0
  32 H    1     2.1667     4.0945   68 C    0 0 0
  32 H    1     2.5197     4.7616   34 H    0 0 0
  32 H    1     2.5723     4.8610   82 O   -1 0 0
  32 H    1     2.7359     5.1701   10 B    0 0 0

  33 H    1     1.0915     2.0626   67 C    0 0 0
  33 H    1     2.1479     4.0589   61 C    0 0 0
  33 H    1     2.1679     4.0968   65 C    0 0 0
  33 H    1     2.5197     4.7616   31 H    0 0 0
  33 H    1     2.5677     4.8522   73 O    0 0 0
  33 H    1     2.7331     5.1648    5 B    1 1 0

  34 H    1     1.0915     2.0626   68 C    0 0 0
  34 H    1     2.1479     4.0589   62 C    0 0 0
  34 H    1     2.1679     4.0968   66 C    0 0 0
  34 H    1     2.5197     4.7616   32 H    0 0 0
  34 H    1     2.5677     4.8522   74 O    0 0 0
  34 H    1     2.7331     5.1648    6 B    0 0 0

  35 H    1     1.0914     2.0624   69 C    0 0 0
  35 H    1     2.1486     4.0602   71 C   -1-1 0
  35 H    1     2.1668     4.0947   63 C    0 0 0
  35 H    1     2.5200     4.7621   29 H    0 0 0
  35 H    1     2.5717     4.8598   83 O    0 0 0
  35 H    1     2.7349     5.1682    9 B   -1-1 0

  36 H    1     1.0914     2.0624   70 C    0 0 0
  36 H    1     2.1486     4.0602   72 C    0 0 0
  36 H    1     2.1668     4.0947   64 C    0 0 0
  36 H    1     2.5200     4.7621   30 H    0 0 0
  36 H    1     2.5717     4.8598   84 O    0 0 0
  36 H    1     2.7349     5.1682   10 B    0 0 0

  37 C    1     1.4020     2.6495   43 C    0 1 0
  37 C    1     1.4021     2.6495   39 C    0 0 0
  37 C    1     1.5504     2.9298    3 B    0 0 0
  37 C    1     2.1471     4.0575   17 H    0 1 0
  37 C    1     2.1472     4.0576   13 H    0 0 0
  37 C    1     2.4246     4.5817   41 C    0 1 0

  38 C    1     1.4020     2.6495   44 C    0 0 0
  38 C    1     1.4021     2.6495   40 C    0 0 0
  38 C    1     1.5504     2.9298    4 B    0 0 0
  38 C    1     2.1471     4.0575   18 H    0 0 0
  38 C    1     2.1472     4.0576   14 H    0 0 0
  38 C    1     2.4246     4.5817   42 C    0 0 0

  39 C    1     1.0913     2.0623   13 H    0 0 0
  39 C    1     1.3914     2.6294   45 C    0 0 0
  39 C    1     1.4021     2.6495   37 C    0 0 0
  39 C    1     2.1669     4.0948   19 H    0 0 0
  39 C    1     2.4177     4.5688   43 C    0 1 0
  39 C    1     2.4250     4.5825   47 C    0 1 0

  40 C    1     1.0913     2.0623   14 H    0 0 0
  40 C    1     1.3914     2.6294   46 C    0 0 0
  40 C    1     1.4021     2.6495   38 C    0 0 0
  40 C    1     2.1669     4.0948   20 H    0 0 0
  40 C    1     2.4177     4.5688   44 C    0 0 0
  40 C    1     2.4250     4.5825   48 C    0 0 0

  41 C    1     1.0914     2.0625   15 H    0 0 0
  41 C    1     1.3914     2.6293   43 C    0 0 0
  41 C    1     1.4026     2.6505   47 C    0 0 0
  41 C    1     2.1680     4.0970   17 H    0 0 0
  41 C    1     2.4182     4.5697   45 C    0-1 0
  41 C    1     2.4246     4.5817   37 C    0-1 0

  42 C    1     1.0914     2.0625   16 H    0 0 0
  42 C    1     1.3914     2.6293   44 C    0 0 0
  42 C    1     1.4026     2.6505   48 C    0 0 0
  42 C    1     2.1680     4.0970   18 H    0 0 0
  42 C    1     2.4182     4.5697   46 C    0 0 0
  42 C    1     2.4246     4.5817   38 C    0 0 0

  43 C    1     1.0914     2.0624   17 H    0 0 0
  43 C    1     1.3914     2.6293   41 C    0 0 0
  43 C    1     1.4020     2.6495   37 C    0-1 0
  43 C    1     2.1666     4.0942   15 H    0 0 0
  43 C    1     2.4177     4.5688   39 C    0-1 0
  43 C    1     2.4250     4.5826   47 C    0 0 0

  44 C    1     1.0914     2.0624   18 H    0 0 0
  44 C    1     1.3914     2.6293   42 C    0 0 0
  44 C    1     1.4020     2.6495   38 C    0 0 0
  44 C    1     2.1666     4.0942   16 H    0 0 0
  44 C    1     2.4177     4.5688   40 C    0 0 0
  44 C    1     2.4250     4.5826   48 C    0 0 0

  45 C    1     1.0915     2.0626   19 H    0 0 0
  45 C    1     1.3914     2.6294   39 C    0 0 0
  45 C    1     1.4025     2.6504   47 C    0 1 0
  45 C    1     2.1680     4.0969   13 H    0 0 0
  45 C    1     2.4182     4.5697   41 C    0 1 0
  45 C    1     2.4246     4.5818   37 C    0 0 0

  46 C    1     1.0915     2.0626   20 H    0 0 0
  46 C    1     1.3914     2.6294   40 C    0 0 0
  46 C    1     1.4025     2.6504   48 C    0 0 0
  46 C    1     2.1680     4.0969   14 H    0 0 0
  46 C    1     2.4182     4.5697   42 C    0 0 0
  46 C    1     2.4246     4.5818   38 C    0 0 0

  47 C    1     1.4025     2.6504   45 C    0-1 0
  47 C    1     1.4026     2.6505   41 C    0 0 0
  47 C    1     1.5513     2.9316    7 B    0 0 0
  47 C    1     2.1490     4.0610   19 H    0-1 0
  47 C    1     2.1493     4.0616   15 H    0 0 0
  47 C    1     2.4250     4.5825   39 C    0-1 0

  48 C    1     1.4025     2.6504   46 C    0 0 0
  48 C    1     1.4026     2.6505   42 C    0 0 0
  48 C    1     1.5513     2.9316    8 B    0 0 0
  48 C    1     2.1490     4.0610   20 H    0 0 0
  48 C    1     2.1493     4.0616   16 H    0 0 0
  48 C    1     2.4250     4.5825   40 C    0 0 0

  49 C    1     1.4020     2.6494   51 C    1 0 0
  49 C    1     1.4021     2.6495   55 C    0 0 0
  49 C    1     1.5503     2.9297    1 B    1 0 0
  49 C    1     2.1469     4.0571   21 H    1 0 0
  49 C    1     2.1475     4.0581   25 H    0 0 0
  49 C    1     2.4246     4.5818   53 C    0 0 0

  50 C    1     1.4020     2.6494   52 C    0 0 0
  50 C    1     1.4021     2.6495   56 C    0 0 0
  50 C    1     1.5503     2.9297    2 B    0 0 0
  50 C    1     2.1469     4.0571   22 H    0 0 0
  50 C    1     2.1475     4.0581   26 H    0 0 0
  50 C    1     2.4246     4.5818   54 C   -1-1 0

  51 C    1     1.0913     2.0623   21 H    0 0 0
  51 C    1     1.3914     2.6293   57 C    0 0 0
  51 C    1     1.4020     2.6494   49 C   -1 0 0
  51 C    1     2.1666     4.0942   27 H    0 0 0
  51 C    1     2.4175     4.5684   55 C   -1 0 0
  51 C    1     2.4251     4.5828   59 C   -1 0 0

  52 C    1     1.0913     2.0623   22 H    0 0 0
  52 C    1     1.3914     2.6293   58 C    0-1 0
  52 C    1     1.4020     2.6494   50 C    0 0 0
  52 C    1     2.1666     4.0942   28 H    0-1 0
  52 C    1     2.4175     4.5684   56 C    0 0 0
  52 C    1     2.4251     4.5828   60 C   -1-1 0

  53 C    1     1.0914     2.0625   23 H    0 0 0
  53 C    1     1.3915     2.6295   55 C    0 0 0
  53 C    1     1.4026     2.6505   59 C    0 0 0
  53 C    1     2.1679     4.0967   25 H    0 0 0
  53 C    1     2.4179     4.5691   57 C    1 0 0
  53 C    1     2.4246     4.5818   49 C    0 0 0

  54 C    1     1.0914     2.0625   24 H    0 0 0
  54 C    1     1.3915     2.6295   56 C    1 1 0
  54 C    1     1.4026     2.6505   60 C    0 0 0
  54 C    1     2.1679     4.0967   26 H    1 1 0
  54 C    1     2.4179     4.5691   58 C    1 0 0
  54 C    1     2.4246     4.5818   50 C    1 1 0

  55 C    1     1.0914     2.0624   25 H    0 0 0
  55 C    1     1.3915     2.6295   53 C    0 0 0
  55 C    1     1.4021     2.6495   49 C    0 0 0
  55 C    1     2.1664     4.0939   23 H    0 0 0
  55 C    1     2.4175     4.5684   51 C    1 0 0
  55 C    1     2.4253     4.5832   59 C    0 0 0

  56 C    1     1.0914     2.0624   26 H    0 0 0
  56 C    1     1.3915     2.6295   54 C   -1-1 0
  56 C    1     1.4021     2.6495   50 C    0 0 0
  56 C    1     2.1664     4.0939   24 H   -1-1 0
  56 C    1     2.4175     4.5684   52 C    0 0 0
  56 C    1     2.4253     4.5832   60 C   -1-1 0

  57 C    1     1.0914     2.0625   27 H    0 0 0
  57 C    1     1.3914     2.6293   51 C    0 0 0
  57 C    1     1.4025     2.6504   59 C   -1 0 0
  57 C    1     2.1680     4.0968   21 H    0 0 0
  57 C    1     2.4179     4.5691   53 C   -1 0 0
  57 C    1     2.4247     4.5819   49 C   -1 0 0

  58 C    1     1.0914     2.0625   28 H    0 0 0
  58 C    1     1.3914     2.6293   52 C    0 1 0
  58 C    1     1.4025     2.6504   60 C   -1 0 0
  58 C    1     2.1680     4.0968   22 H    0 1 0
  58 C    1     2.4179     4.5691   54 C   -1 0 0
  58 C    1     2.4247     4.5819   50 C    0 1 0

  59 C    1     1.4025     2.6504   57 C    1 0 0
  59 C    1     1.4026     2.6505   53 C    0 0 0
  59 C    1     1.5516     2.9322   11 B    0 0 0
  59 C    1     2.1491     4.0612   27 H    1 0 0
  59 C    1     2.1493     4.0617   23 H    0 0 0
  59 C    1     2.4251     4.5828   51 C    1 0 0

  60 C    1     1.4025     2.6504   58 C    1 0 0
  60 C    1     1.4026     2.6505   54 C    0 0 0
  60 C    1     1.5516     2.9322   12 B    0 0 0
  60 C    1     2.1491     4.0612   28 H    1 0 0
  60 C    1     2.1493     4.0617   24 H    0 0 0
  60 C    1     2.4251     4.5828   52 C    1 1 0

  61 C    1     1.4021     2.6496   63 C    1 1 0
  61 C    1     1.4021     2.6497   67 C    0 0 0
  61 C    1     1.5502     2.9294    5 B    1 1 0
  61 C    1     2.1475     4.0582   29 H    1 1 0
  61 C    1     2.1479     4.0589   33 H    0 0 0
  61 C    1     2.4244     4.5814   65 C    0 0 0

  62 C    1     1.4021     2.6496   64 C    0 0 0
  62 C    1     1.4021     2.6497   68 C    0 0 0
  62 C    1     1.5502     2.9294    6 B    0 0 0
  62 C    1     2.1475     4.0582   30 H    0 0 0
  62 C    1     2.1479     4.0589   34 H    0 0 0
  62 C    1     2.4244     4.5814   66 C    0 0 0

  63 C    1     1.0914     2.0624   29 H    0 0 0
  63 C    1     1.3914     2.6293   69 C    0 0 0
  63 C    1     1.4021     2.6496   61 C   -1-1 0
  63 C    1     2.1668     4.0947   35 H    0 0 0
  63 C    1     2.4179     4.5692   67 C   -1-1 0
  63 C    1     2.4251     4.5827   71 C   -1-1 0

  64 C    1     1.0914     2.0624   30 H    0 0 0
  64 C    1     1.3914     2.6293   70 C    0 0 0
  64 C    1     1.4021     2.6496   62 C    0 0 0
  64 C    1     2.1668     4.0947   36 H    0 0 0
  64 C    1     2.4179     4.5692   68 C    0 0 0
  64 C    1     2.4251     4.5827   72 C    0 0 0

  65 C    1     1.0913     2.0623   31 H    0 0 0
  65 C    1     1.3914     2.6294   67 C    0 0 0
  65 C    1     1.4025     2.6504   71 C    0 0 0
  65 C    1     2.1679     4.0968   33 H    0 0 0
  65 C    1     2.4178     4.5690   69 C    1 1 0
  65 C    1     2.4244     4.5814   61 C    0 0 0

  66 C    1     1.0913     2.0623   32 H    0 0 0
  66 C    1     1.3914     2.6294   68 C    0 0 0
  66 C    1     1.4025     2.6504   72 C    0 0 0
  66 C    1     2.1679     4.0968   34 H    0 0 0
  66 C    1     2.4178     4.5690   70 C    0 0 0
  66 C    1     2.4244     4.5814   62 C    0 0 0

  67 C    1     1.0915     2.0626   33 H    0 0 0
  67 C    1     1.3914     2.6294   65 C    0 0 0
  67 C    1     1.4021     2.6497   61 C    0 0 0
  67 C    1     2.1667     4.0945   31 H    0 0 0
  67 C    1     2.4179     4.5692   63 C    1 1 0
  67 C    1     2.4253     4.5832   71 C    0 0 0

  68 C    1     1.0915     2.0626   34 H    0 0 0
  68 C    1     1.3914     2.6294   66 C    0 0 0
  68 C    1     1.4021     2.6497   62 C    0 0 0
  68 C    1     2.1667     4.0945   32 H    0 0 0
  68 C    1     2.4179     4.5692   64 C    0 0 0
  68 C    1     2.4253     4.5832   72 C    0 0 0

  69 C    1     1.0914     2.0624   35 H    0 0 0
  69 C    1     1.3914     2.6293   63 C    0 0 0
  69 C    1     1.4025     2.6503   71 C   -1-1 0
  69 C    1     2.1678     4.0966   29 H    0 0 0
  69 C    1     2.4178     4.5690   65 C   -1-1 0
  69 C    1     2.4245     4.5817   61 C   -1-1 0

  70 C    1     1.0914     2.0624   36 H    0 0 0
  70 C    1     1.3914     2.6293   64 C    0 0 0
  70 C    1     1.4025     2.6503   72 C    0 0 0
  70 C    1     2.1678     4.0966   30 H    0 0 0
  70 C    1     2.4178     4.5690   66 C    0 0 0
  70 C    1     2.4245     4.5817   62 C    0 0 0

  71 C    1     1.4025     2.6503   69 C    1 1 0
  71 C    1     1.4025     2.6504   65 C    0 0 0
  71 C    1     1.5516     2.9322    9 B    0 0 0
  71 C    1     2.1486     4.0602   35 H    1 1 0
  71 C    1     2.1487     4.0605   31 H    0 0 0
  71 C    1     2.4251     4.5827   63 C    1 1 0

  72 C    1     1.4025     2.6503   70 C    0 0 0
  72 C    1     1.4025     2.6504   66 C    0 0 0
  72 C    1     1.5516     2.9322   10 B    0 0 0
  72 C    1     2.1486     4.0602   36 H    0 0 0
  72 C    1     2.1487     4.0605   32 H    0 0 0
  72 C    1     2.4251     4.5827   64 C    0 0 0

  73 O    1     1.3791     2.6061    1 B    1 0 0
  73 O    1     1.3791     2.6061    5 B    1 1 0
  73 O    1     2.3880     4.5126   75 O    1 0 0
  73 O    1     2.3882     4.5130   77 O    1 1 0
  73 O    1     2.5383     4.7966   61 C    0 0 0
  73 O    1     2.5384     4.7968   49 C    0 0 0

  74 O    1     1.3791     2.6061    2 B    0 0 0
  74 O    1     1.3791     2.6061    6 B    0 0 0
  74 O    1     2.3880     4.5126   76 O    0 0 0
  74 O    1     2.3882     4.5130   78 O    0 0 0
  74 O    1     2.5383     4.7966   62 C    0 0 0
  74 O    1     2.5384     4.7968   50 C    0 0 0

  75 O    1     1.3793     2.6065    1 B    0 0 0
  75 O    1     1.3793     2.6065    3 B    0 0 0
  75 O    1     2.3880     4.5126   73 O   -1 0 0
  75 O    1     2.3882     4.5131   77 O    0 1 0
  75 O    1     2.5391     4.7981   37 C    0 0 0
  75 O    1     2.5395     4.7990   49 C   -1 0 0

  76 O    1     1.3793     2.6065    2 B    0 0 0
  76 O    1     1.3793     2.6065    4 B    0 0 0
  76 O    1     2.3880     4.5126   74 O    0 0 0
  76 O    1     2.3882     4.5131   78 O    0 0 0
  76 O    1     2.5391     4.7981   38 C    0 0 0
  76 O    1     2.5395     4.7990   50 C    0 0 0

  77 O    1     1.3793     2.6064    5 B    0 0 0
  77 O    1     1.3793     2.6065    3 B    0-1 0
  77 O    1     2.3882     4.5130   73 O   -1-1 0
  77 O    1     2.3882     4.5131   75 O    0-1 0
  77 O    1     2.5390     4.7980   37 C    0-1 0
  77 O    1     2.5391     4.7982   61 C   -1-1 0

  78 O    1     1.3793     2.6064    6 B    0 0 0
  78 O    1     1.3793     2.6065    4 B    0 0 0
  78 O    1     2.3882     4.5130   74 O    0 0 0
  78 O    1     2.3882     4.5131   76 O    0 0 0
  78 O    1     2.5390     4.7980   38 C    0 0 0
  78 O    1     2.5391     4.7982   62 C    0 0 0

  79 O    1     1.3795     2.6068   11 B    0 0 0
  79 O    1     1.3795     2.6068    7 B    0 0 0
  79 O    1     2.3880     4.5126   83 O    1 0 0
  79 O    1     2.3884     4.5134   81 O    0-1 0
  79 O    1     2.5400     4.7998   47 C    0 0 0
  79 O    1     2.5403     4.8005   59 C    0 0 0

  80 O    1     1.3795     2.6068   12 B    0 0 0
  80 O    1     1.3795     2.6068    8 B    0 0 0
  80 O    1     2.3880     4.5126   84 O    1 0 0
  80 O    1     2.3884     4.5134   82 O    0 0 0
  80 O    1     2.5400     4.7998   48 C    0 0 0
  80 O    1     2.5403     4.8005   60 C    0 0 0

  81 O    1     1.3795     2.6069    9 B    0 0 0
  81 O    1     1.3795     2.6070    7 B    0 1 0
  81 O    1     2.3881     4.5128   83 O    1 1 0
  81 O    1     2.3884     4.5134   79 O    0 1 0
  81 O    1     2.5404     4.8006   47 C    0 1 0
  81 O    1     2.5405     4.8008   71 C    0 0 0

  82 O    1     1.3795     2.6069   10 B    1 0 0
  82 O    1     1.3795     2.6070    8 B    0 0 0
  82 O    1     2.3881     4.5128   84 O    1 0 0
  82 O    1     2.3884     4.5134   80 O    0 0 0
  82 O    1     2.5404     4.8006   48 C    0 0 0
  82 O    1     2.5405     4.8008   72 C    1 0 0

  83 O    1     1.3796     2.6071   11 B   -1 0 0
  83 O    1     1.3797     2.6072    9 B   -1-1 0
  83 O    1     2.3880     4.5126   79 O   -1 0 0
  83 O    1     2.3881     4.5128   81 O   -1-1 0
  83 O    1     2.5409     4.8016   71 C   -1-1 0
  83 O    1     2.5410     4.8019   59 C   -1 0 0

  84 O    1     1.3796     2.6071   12 B   -1 0 0
  84 O    1     1.3797     2.6072   10 B    0 0 0
  84 O    1     2.3880     4.5126   80 O   -1 0 0
  84 O    1     2.3881     4.5128   82 O   -1 0 0
  84 O    1     2.5409     4.8016   72 C    0 0 0
  84 O    1     2.5410     4.8019   60 C   -1 0 0


 SYMMETRY ALLOWED INTERNAL DEGREE(S) OF FREEDOM: 249
 TTTTTTTTTTTTTTTTTTTTTTTTTTTTTT SYMM        TELAPSE        2.93 TCPU        2.93
 TTTTTTTTTTTTTTTTTTTTTTTTTTTTTT INT_SCREEN  TELAPSE        3.15 TCPU        3.15

 DFT PARAMETERS

     ATOM       ELECTRONS   NET CHARGE   R(ANGSTROM)
   1   5  B       5.0000      0.0000     0.89000000
  13   1  H       1.0000      0.0000     1.11000000
  37   6  C       6.0000      0.0000     0.77000000
  73   8  O       8.0000      0.0000     0.74000000

 SIZE OF GRID=    2457350
 TTTTTTTTTTTTTTTTTTTTTTTTTTTTTT MAKE_GRID2  TELAPSE       29.15 TCPU       29.12
 BECKE WEIGHT FUNCTION
 RADSAFE =     2.00
 TOLERANCES - DENSITY:10**- 6; POTENTIAL:10**- 9; GRID WGT:10**-14

 RADIAL INTEGRATION  - INTERVALS (POINTS,UPPER LIMIT):            1( 75,  4.0*R)

 ANGULAR INTEGRATION - INTERVALS (ACCURACY LEVEL [N. POINTS] UPPER LIMIT):
  1(  4[  86]   0.2)  2(  8[ 194]   0.5)  3( 12[ 350]   0.9)  4( 16[ 974]   3.5)
  5( 12[ 350]9999.0)
 TTTTTTTTTTTTTTTTTTTTTTTTTTTTTT INT_CALC    TELAPSE       29.46 TCPU       29.43
 EEEEEEEEEE INT_CALC TERMINATION  DATE 19 02 2026 TIME 19:26:41.7

 *******************************************************************************
 cof-1_z30_L050_serr                                                             
 CRYSTAL - SCF - TYPE OF CALCULATION :  RESTRICTED CLOSED SHELL
 *******************************************************************************

 CAPPA:IS1  2;IS2  2;IS3  8; K PTS MONK NET  20; SYMMOPS:K SPACE   2;G SPACE   1

 TTTTTTTTTTTTTTTTTTTTTTTTTTTTTT SDIK        TELAPSE       31.42 TCPU       58.57

 AAAAAAAAAAAAAAAAAAAAAAAAAAAAAAAAAAAAAAAAAAAAAAAAAAAAAAAAAAAAAAAAAAAAAAAAAAAAAAA
         ATOMIC WAVEFUNCTION(S)


 NUCLEAR CHARGE  5.0  SYMMETRY SPECIES            S    P
 N. ELECTRONS    5.0  NUMBER OF PRIMITIVE GTOS    8    4
                      NUMBER OF CONTRACTED GTOS   4    2
                      NUMBER OF CLOSED SHELLS     2    0
                      OPEN SHELL OCCUPATION       0    1

  ZNUC  SCFIT    TOTAL HF ENERGY   KINETIC ENERGY   VIRIAL THEOREM ACCURACY
   5.0    11    -2.451164084E+01  2.462155050E+01 -1.995536038E+00  1.5E-06

 NUCLEAR CHARGE  1.0  SYMMETRY SPECIES            S
 N. ELECTRONS    1.0  NUMBER OF PRIMITIVE GTOS    4
                      NUMBER OF CONTRACTED GTOS   2
                      NUMBER OF CLOSED SHELLS     0
                      OPEN SHELL OCCUPATION       1

  ZNUC  SCFIT    TOTAL HF ENERGY   KINETIC ENERGY   VIRIAL THEOREM ACCURACY
   1.0     1    -4.977266687E-01  5.190767460E-01 -1.958869132E+00  0.0E+00

 NUCLEAR CHARGE  6.0  SYMMETRY SPECIES            S    P
 N. ELECTRONS    6.0  NUMBER OF PRIMITIVE GTOS    8    4
                      NUMBER OF CONTRACTED GTOS   4    2
                      NUMBER OF CLOSED SHELLS     2    0
                      OPEN SHELL OCCUPATION       0    2

  ZNUC  SCFIT    TOTAL HF ENERGY   KINETIC ENERGY   VIRIAL THEOREM ACCURACY
   6.0     9    -3.766704647E+01  3.775180683E+01 -1.997754800E+00  1.1E-06

 NUCLEAR CHARGE  8.0  SYMMETRY SPECIES            S    P
 N. ELECTRONS    8.0  NUMBER OF PRIMITIVE GTOS    8    4
                      NUMBER OF CONTRACTED GTOS   4    2
                      NUMBER OF CLOSED SHELLS     2    0
                      OPEN SHELL OCCUPATION       0    4

  ZNUC  SCFIT    TOTAL HF ENERGY   KINETIC ENERGY   VIRIAL THEOREM ACCURACY
   8.0    12    -7.477373220E+01  7.477365593E+01 -2.000001020E+00  3.8E-06

 AAAAAAAAAAAAAAAAAAAAAAAAAAAAAAAAAAAAAAAAAAAAAAAAAAAAAAAAAAAAAAAAAAAAAAAAAAAAAAA

 CHARGE NORMALIZATION FACTOR   1.00000000
 TOTAL ATOMIC CHARGES:
   5.0000000   5.0000000   5.0000000   5.0000000   5.0000000   5.0000000
   5.0000000   5.0000000   5.0000000   5.0000000   5.0000000   5.0000000
   1.0000000   1.0000000   1.0000000   1.0000000   1.0000000   1.0000000
   1.0000000   1.0000000   1.0000000   1.0000000   1.0000000   1.0000000
   1.0000000   1.0000000   1.0000000   1.0000000   1.0000000   1.0000000
   1.0000000   1.0000000   1.0000000   1.0000000   1.0000000   1.0000000
   6.0000000   6.0000000   6.0000000   6.0000000   6.0000000   6.0000000
   6.0000000   6.0000000   6.0000000   6.0000000   6.0000000   6.0000000
   6.0000000   6.0000000   6.0000000   6.0000000   6.0000000   6.0000000
   6.0000000   6.0000000   6.0000000   6.0000000   6.0000000   6.0000000
   6.0000000   6.0000000   6.0000000   6.0000000   6.0000000   6.0000000
   6.0000000   6.0000000   6.0000000   6.0000000   6.0000000   6.0000000
   8.0000000   8.0000000   8.0000000   8.0000000   8.0000000   8.0000000
   8.0000000   8.0000000   8.0000000   8.0000000   8.0000000   8.0000000
 TTTTTTTTTTTTTTTTTTTTTTTTTTTTTT MOQGAD      TELAPSE       31.53 TCPU       62.03
 TTTTTTTTTTTTTTTTTTTTTTTTTTTTTT SHELLXN     TELAPSE       59.68 TCPU      961.70
 TTTTTTTTTTTTTTTTTTTTTTTTTTTTTT MONMO3      TELAPSE       60.35 TCPU      982.97
 NUMERICALLY INTEGRATED DENSITY    396.0002189141
 TTTTTTTTTTTTTTTTTTTTTTTTTTTTTT NUMDFT      TELAPSE       62.02 TCPU     1036.24
 CYC   0 ETOT(AU) -2.592088893769E+03 DETOT -2.59E+03 tst  0.00E+00 PX  1.00E+00
 TTTTTTTTTTTTTTTTTTTTTTTTTTTTTT DIIS        TELAPSE       62.13 TCPU     1040.04
 TTTTTTTTTTTTTTTTTTTTTTTTTTTTTT FDIK        TELAPSE       64.07 TCPU     1099.34
 INSULATING STATE
 TOP OF VALENCE BANDS -    BAND    198; K    2; EIG -3.0176417E-01 AU
 TOP OF VALENCE BANDS -    BAND    198; K    1; EIG -3.0321298E-01 AU
 BOTTOM OF VIRTUAL BANDS - BAND    199; K    1; EIG -1.9039578E-01 AU
 INDIRECT ENERGY BAND GAP:   3.0305 eV
 TTTTTTTTTTTTTTTTTTTTTTTTTTTTTT PDIG        TELAPSE       65.70 TCPU     1106.47
 CHARGE NORMALIZATION FACTOR   1.00000000
 TOTAL ATOMIC CHARGES:
   4.1086394   4.1481942   4.1496957   4.1652328   4.1499521   4.1654875
   4.1650760   4.1495810   4.1648435   4.1493655   4.1477912   4.1082606
   0.7865145   0.7847658   0.7848693   0.7866321   0.7821902   0.7852182
   0.7853358   0.7823139   0.7860470   0.7861001   0.7862671   0.7862023
   0.7860431   0.7861030   0.7862285   0.7861612   0.7821924   0.7852196
   0.7854024   0.7823807   0.7864687   0.7847151   0.7848667   0.7866223
   6.0483021   6.0449202   6.2761339   6.2711324   6.2711175   6.2760912
   6.2716612   6.2641201   6.2640616   6.2716144   6.0441846   6.0475571
   6.0644173   6.0349647   6.2423224   6.2593206   6.2594694   6.2424638
   6.2422278   6.2591918   6.2595131   6.2424893   6.0336407   6.0630119
   6.0486664   6.0452896   6.2714680   6.2638768   6.2644253   6.2720052
   6.2757788   6.2707395   6.2713841   6.2763752   6.0437473   6.0470438
   8.7229028   8.6943567   8.7230131   8.6944621   8.7121835   8.6908957
   8.6947779   8.7233292   8.6913008   8.7126569   8.6949497   8.7234631
 TTTTTTTTTTTTTTTTTTTTTTTTTTTTTT MOQGAD      TELAPSE       65.81 TCPU     1106.58
 TTTTTTTTTTTTTTTTTTTTTTTTTTTTTT SHELLXN     TELAPSE       95.15 TCPU     2042.88
 TTTTTTTTTTTTTTTTTTTTTTTTTTTTTT MONMO3      TELAPSE       95.82 TCPU     2064.21
 NUMERICALLY INTEGRATED DENSITY    396.0001592677
 TTTTTTTTTTTTTTTTTTTTTTTTTTTTTT NUMDFT      TELAPSE       97.55 TCPU     2119.43
 CYC   1 ETOT(AU) -2.577657238428E+03 DETOT  1.44E+01 tst  0.00E+00 PX  1.00E+00
 TTTTTTTTTTTTTTTTTTTTTTTTTTTTTT DIIS        TELAPSE       97.70 TCPU     2124.16
 DIIS TEST: 0.21572E+01 AT SCF   CYCLE   1 - MIX   30 %
 TTTTTTTTTTTTTTTTTTTTTTTTTTTTTT FDIK        TELAPSE       99.57 TCPU     2184.08
 INSULATING STATE
 TOP OF VALENCE BANDS -    BAND    198; K    2; EIG -2.1547661E-01 AU
 TOP OF VALENCE BANDS -    BAND    198; K    1; EIG -2.1770282E-01 AU
 BOTTOM OF VIRTUAL BANDS - BAND    199; K    1; EIG -1.1822399E-01 AU
 INDIRECT ENERGY BAND GAP:   2.6464 eV
 TTTTTTTTTTTTTTTTTTTTTTTTTTTTTT PDIG        TELAPSE      101.20 TCPU     2191.21
 CHARGE NORMALIZATION FACTOR   1.00000000
 TOTAL ATOMIC CHARGES:
   4.6245476   4.6725723   4.6450158   4.7220637   4.6449743   4.7220903
   4.7223020   4.6453673   4.7222711   4.6453570   4.6726293   4.6243501
   0.9148492   0.8943835   0.8944365   0.9148508   0.9209564   0.9151640
   0.9152116   0.9211590   0.8922971   0.8785374   0.8783903   0.8924180
   0.8922805   0.8785447   0.8783802   0.8923636   0.9209645   0.9151585
   0.9152832   0.9212363   0.9147970   0.8943328   0.8944328   0.9148392
   5.8551968   5.8886586   6.1627040   6.1428729   6.1433557   6.1630819
   6.1256554   6.1489578   6.1496490   6.1264401   5.8913482   5.8579508
   5.9620201   5.8544026   6.1594014   6.1456323   6.1467664   6.1601289
   6.1595796   6.1456658   6.1467571   6.1601356   5.8576526   5.9651041
   5.8550595   5.8885714   6.1257331   6.1489998   6.1494984   6.1263823
   6.1629602   6.1431055   6.1431442   6.1627882   5.8916216   5.8580869
   8.3574582   8.3276007   8.3578443   8.3279717   8.3381682   8.3395144
   8.3274659   8.3572125   8.3392217   8.3382330   8.3278457   8.3575871
 TTTTTTTTTTTTTTTTTTTTTTTTTTTTTT MOQGAD      TELAPSE      101.31 TCPU     2191.32
 TTTTTTTTTTTTTTTTTTTTTTTTTTTTTT SHELLXN     TELAPSE      130.48 TCPU     3122.11
 TTTTTTTTTTTTTTTTTTTTTTTTTTTTTT MONMO3      TELAPSE      131.15 TCPU     3143.61
 NUMERICALLY INTEGRATED DENSITY    396.0001834248
 TTTTTTTTTTTTTTTTTTTTTTTTTTTTTT NUMDFT      TELAPSE      132.88 TCPU     3198.82
 CYC   2 ETOT(AU) -2.578032924623E+03 DETOT -3.76E-01 tst  2.93E-03 PX  1.61E-01
 TTTTTTTTTTTTTTTTTTTTTTTTTTTTTT DIIS        TELAPSE      133.05 TCPU     3204.35
 DIIS TEST: 0.90239E+00 AT SCF   CYCLE   2 - DIIS ACTIVE - HISTORY:     2 CYCLES
 TTTTTTTTTTTTTTTTTTTTTTTTTTTTTT FDIK        TELAPSE      134.94 TCPU     3264.61
 INSULATING STATE
 TOP OF VALENCE BANDS -    BAND    198; K    2; EIG -2.2585084E-01 AU
 TOP OF VALENCE BANDS -    BAND    198; K    1; EIG -2.2807629E-01 AU
 BOTTOM OF VIRTUAL BANDS - BAND    199; K    1; EIG -1.1405137E-01 AU
 INDIRECT ENERGY BAND GAP:   3.0422 eV
 TTTTTTTTTTTTTTTTTTTTTTTTTTTTTT PDIG        TELAPSE      136.58 TCPU     3271.75
 CHARGE NORMALIZATION FACTOR   1.00000000
 TOTAL ATOMIC CHARGES:
   4.4042347   4.4736989   4.4693040   4.5128129   4.4694612   4.5129428
   4.5124474   4.4691897   4.5122692   4.4690019   4.4730378   4.4039862
   0.8921040   0.8768721   0.8769339   0.8924060   0.8942405   0.8934946
   0.8936293   0.8942162   0.8794652   0.8658862   0.8663520   0.8794280
   0.8794968   0.8658957   0.8663189   0.8793654   0.8942447   0.8935026
   0.8936812   0.8943016   0.8921126   0.8768918   0.8768709   0.8923396
   5.9270147   5.8810318   6.1670675   6.1748667   6.1746340   6.1669667
   6.1708129   6.1411705   6.1403604   6.1693379   5.8798394   5.9258567
   5.9232734   5.9007379   6.1487292   6.1883087   6.1876766   6.1487791
   6.1488847   6.1883869   6.1875354   6.1484864   5.8990388   5.9221343
   5.9272973   5.8813022   6.1708207   6.1411244   6.1404504   6.1694029
   6.1670644   6.1747428   6.1746444   6.1670056   5.8795664   5.9255242
   8.5330605   8.5170219   8.5331675   8.5171999   8.5390434   8.4989177
   8.5172058   8.5334908   8.4990427   8.5384980   8.5173653   8.5336738
 TTTTTTTTTTTTTTTTTTTTTTTTTTTTTT MOQGAD      TELAPSE      136.69 TCPU     3271.86
 TTTTTTTTTTTTTTTTTTTTTTTTTTTTTT SHELLXN     TELAPSE      165.79 TCPU     4200.66
 TTTTTTTTTTTTTTTTTTTTTTTTTTTTTT MONMO3      TELAPSE      166.44 TCPU     4221.54
 NUMERICALLY INTEGRATED DENSITY    396.0001830739
 TTTTTTTTTTTTTTTTTTTTTTTTTTTTTT NUMDFT      TELAPSE      168.16 TCPU     4276.48
 CYC   3 ETOT(AU) -2.578216471372E+03 DETOT -1.84E-01 tst  5.35E-04 PX  7.16E-02
 TTTTTTTTTTTTTTTTTTTTTTTTTTTTTT DIIS        TELAPSE      168.36 TCPU     4282.90
 DIIS TEST: 0.44882E-01 AT SCF   CYCLE   3 - DIIS ACTIVE - HISTORY:     3 CYCLES
 TTTTTTTTTTTTTTTTTTTTTTTTTTTTTT FDIK        TELAPSE      170.27 TCPU     4343.75
 INSULATING STATE
 TOP OF VALENCE BANDS -    BAND    198; K    2; EIG -2.3546899E-01 AU
 TOP OF VALENCE BANDS -    BAND    198; K    1; EIG -2.3737037E-01 AU
 BOTTOM OF VIRTUAL BANDS - BAND    199; K    1; EIG -1.2253020E-01 AU
 INDIRECT ENERGY BAND GAP:   3.0732 eV
 TTTTTTTTTTTTTTTTTTTTTTTTTTTTTT PDIG        TELAPSE      171.89 TCPU     4350.87
 CHARGE NORMALIZATION FACTOR   1.00000000
 TOTAL ATOMIC CHARGES:
   4.4300764   4.4656658   4.4704510   4.5121442   4.4705440   4.5122689
   4.5122640   4.4707523   4.5120914   4.4706148   4.4656290   4.4298618
   0.8768089   0.8623889   0.8625520   0.8768417   0.8822668   0.8737598
   0.8737687   0.8824207   0.8590780   0.8526296   0.8523807   0.8593959
   0.8591041   0.8526812   0.8523240   0.8593133   0.8823114   0.8737678
   0.8738319   0.8824648   0.8768137   0.8623654   0.8625118   0.8767940
   5.9233715   5.9517389   6.1923523   6.1700685   6.1704060   6.1922963
   6.1445289   6.1856326   6.1869545   6.1464797   5.9546643   5.9262281
   6.0371595   5.8915614   6.1798921   6.1689849   6.1702888   6.1806203
   6.1798036   6.1687039   6.1704577   6.1807198   5.8946850   6.0396129
   5.9232706   5.9517268   6.1444355   6.1855093   6.1870232   6.1466545
   6.1922768   6.1700164   6.1704920   6.1923260   5.9547727   5.9262040
   8.5100009   8.4771760   8.5102882   8.4774621   8.4831071   8.4902729
   8.4772943   8.5096857   8.4902424   8.4839681   8.4776109   8.5100333
 TTTTTTTTTTTTTTTTTTTTTTTTTTTTTT MOQGAD      TELAPSE      172.00 TCPU     4350.98
 TTTTTTTTTTTTTTTTTTTTTTTTTTTTTT SHELLXN     TELAPSE      201.24 TCPU     5281.70
 TTTTTTTTTTTTTTTTTTTTTTTTTTTTTT MONMO3      TELAPSE      201.91 TCPU     5303.09
 NUMERICALLY INTEGRATED DENSITY    396.0001802137
 TTTTTTTTTTTTTTTTTTTTTTTTTTTTTT NUMDFT      TELAPSE      203.64 TCPU     5358.16
 CYC   4 ETOT(AU) -2.578222880758E+03 DETOT -6.41E-03 tst  1.55E-04 PX  2.76E-02
 TTTTTTTTTTTTTTTTTTTTTTTTTTTTTT DIIS        TELAPSE      203.85 TCPU     5365.00
 DIIS TEST: 0.24261E-01 AT SCF   CYCLE   4 - DIIS ACTIVE - HISTORY:     4 CYCLES
 TTTTTTTTTTTTTTTTTTTTTTTTTTTTTT FDIK        TELAPSE      205.72 TCPU     5424.63
 INSULATING STATE
 TOP OF VALENCE BANDS -    BAND    198; K    2; EIG -2.3526874E-01 AU
 TOP OF VALENCE BANDS -    BAND    198; K    1; EIG -2.3728587E-01 AU
 BOTTOM OF VIRTUAL BANDS - BAND    199; K    1; EIG -1.2172063E-01 AU
 INDIRECT ENERGY BAND GAP:   3.0898 eV
 TTTTTTTTTTTTTTTTTTTTTTTTTTTTTT PDIG        TELAPSE      207.37 TCPU     5431.78
 CHARGE NORMALIZATION FACTOR   1.00000000
 TOTAL ATOMIC CHARGES:
   4.4198069   4.4758676   4.4715205   4.5198104   4.4716548   4.5199310
   4.5197234   4.4716689   4.5195595   4.4714985   4.4755067   4.4195767
   0.8761239   0.8619735   0.8620474   0.8762907   0.8818544   0.8764355
   0.8766001   0.8819646   0.8612570   0.8505844   0.8508381   0.8613094
   0.8612698   0.8505945   0.8508103   0.8612522   0.8818692   0.8764415
   0.8766602   0.8820417   0.8761128   0.8619627   0.8620050   0.8762474
   5.9337748   5.9340727   6.1784465   6.1810026   6.1810527   6.1786015
   6.1729494   6.1619926   6.1614441   6.1719699   5.9337923   5.9335551
   5.9784064   5.9337149   6.1639696   6.1894247   6.1893854   6.1641629
   6.1641068   6.1894491   6.1893061   6.1639659   5.9332931   5.9783446
   5.9339108   5.9342257   6.1729335   6.1619392   6.1614796   6.1720417
   6.1784940   6.1809824   6.1810275   6.1785630   5.9336938   5.9333526
   8.5044687   8.4857085   8.5046576   8.4859345   8.5032442   8.4791832
   8.4857598   8.5046832   8.4791451   8.5028032   8.4859899   8.5049237
 TTTTTTTTTTTTTTTTTTTTTTTTTTTTTT MOQGAD      TELAPSE      207.48 TCPU     5431.89
 TTTTTTTTTTTTTTTTTTTTTTTTTTTTTT SHELLXN     TELAPSE      236.70 TCPU     6364.53
 TTTTTTTTTTTTTTTTTTTTTTTTTTTTTT MONMO3      TELAPSE      237.37 TCPU     6385.97
 NUMERICALLY INTEGRATED DENSITY    396.0001808251
 TTTTTTTTTTTTTTTTTTTTTTTTTTTTTT NUMDFT      TELAPSE      239.10 TCPU     6441.16
 CYC   5 ETOT(AU) -2.578227511760E+03 DETOT -4.63E-03 tst  8.39E-05 PX  1.45E-02
 TTTTTTTTTTTTTTTTTTTTTTTTTTTTTT DIIS        TELAPSE      239.34 TCPU     6448.22
 DIIS TEST: 0.42303E-02 AT SCF   CYCLE   5 - DIIS ACTIVE - HISTORY:     5 CYCLES
 TTTTTTTTTTTTTTTTTTTTTTTTTTTTTT FDIK        TELAPSE      241.22 TCPU     6507.97
 INSULATING STATE
 TOP OF VALENCE BANDS -    BAND    198; K    2; EIG -2.3445617E-01 AU
 TOP OF VALENCE BANDS -    BAND    198; K    1; EIG -2.3651827E-01 AU
 BOTTOM OF VIRTUAL BANDS - BAND    199; K    1; EIG -1.2203833E-01 AU
 INDIRECT ENERGY BAND GAP:   3.0590 eV
 TTTTTTTTTTTTTTTTTTTTTTTTTTTTTT PDIG        TELAPSE      242.84 TCPU     6515.09
 CHARGE NORMALIZATION FACTOR   1.00000000
 TOTAL ATOMIC CHARGES:
   4.4231752   4.4752876   4.4716207   4.5197240   4.4717350   4.5198455
   4.5196602   4.4717565   4.5194966   4.4716036   4.4750016   4.4229416
   0.8784967   0.8637802   0.8638945   0.8786513   0.8835079   0.8783108
   0.8783998   0.8836062   0.8629287   0.8520606   0.8521774   0.8630565
   0.8629479   0.8520832   0.8521399   0.8629926   0.8835290   0.8783159
   0.8784610   0.8836764   0.8784921   0.8637705   0.8638510   0.8786040
   5.9318950   5.9229898   6.1860344   6.1741720   6.1742155   6.1860086
   6.1626953   6.1663373   6.1665149   6.1627769   5.9237210   5.9326396
   5.9873530   5.9075627   6.1700857   6.1822965   6.1826207   6.1704532
   6.1701465   6.1822164   6.1826190   6.1703358   5.9081401   5.9879799
   5.9319909   5.9231157   6.1626607   6.1662721   6.1665674   6.1628734
   6.1860344   6.1741108   6.1742325   6.1860119   5.9236478   5.9324692
   8.5127899   8.4878949   8.5129941   8.4881341   8.5016565   8.4855995
   8.4880091   8.5128479   8.4856194   8.5017130   8.4882504   8.5131124
 TTTTTTTTTTTTTTTTTTTTTTTTTTTTTT MOQGAD      TELAPSE      242.95 TCPU     6515.20
 TTTTTTTTTTTTTTTTTTTTTTTTTTTTTT SHELLXN     TELAPSE      272.08 TCPU     7444.82
 TTTTTTTTTTTTTTTTTTTTTTTTTTTTTT MONMO3      TELAPSE      272.75 TCPU     7466.16
 NUMERICALLY INTEGRATED DENSITY    396.0001805219
 TTTTTTTTTTTTTTTTTTTTTTTTTTTTTT NUMDFT      TELAPSE      274.46 TCPU     7520.94
 CYC   6 ETOT(AU) -2.578228452919E+03 DETOT -9.41E-04 tst  1.46E-05 PX  6.27E-03
 TTTTTTTTTTTTTTTTTTTTTTTTTTTTTT DIIS        TELAPSE      274.73 TCPU     7528.03
 DIIS TEST: 0.33886E-03 AT SCF   CYCLE   6 - DIIS ACTIVE - HISTORY:     6 CYCLES
 TTTTTTTTTTTTTTTTTTTTTTTTTTTTTT FDIK        TELAPSE      276.60 TCPU     7587.59
 INSULATING STATE
 TOP OF VALENCE BANDS -    BAND    198; K    2; EIG -2.3407987E-01 AU
 TOP OF VALENCE BANDS -    BAND    198; K    1; EIG -2.3610589E-01 AU
 BOTTOM OF VIRTUAL BANDS - BAND    199; K    1; EIG -1.2132442E-01 AU
 INDIRECT ENERGY BAND GAP:   3.0682 eV
 TTTTTTTTTTTTTTTTTTTTTTTTTTTTTT PDIG        TELAPSE      278.24 TCPU     7594.73
 CHARGE NORMALIZATION FACTOR   1.00000000
 TOTAL ATOMIC CHARGES:
   4.4227631   4.4750416   4.4720664   4.5190142   4.4721833   4.5191358
   4.5189465   4.4722129   4.5187816   4.4720588   4.4747419   4.4225275
   0.8791519   0.8637004   0.8638055   0.8792933   0.8839685   0.8784437
   0.8785400   0.8840730   0.8637122   0.8531548   0.8532570   0.8638453
   0.8637329   0.8531800   0.8532189   0.8637793   0.8839916   0.8784507
   0.8785997   0.8841397   0.8791501   0.8636898   0.8637611   0.8792452
   5.9264544   5.9286800   6.1811162   6.1781332   6.1782366   6.1811399
   6.1626030   6.1672772   6.1674038   6.1626522   5.9294602   5.9272383
   5.9850981   5.9102905   6.1674046   6.1826569   6.1830142   6.1677739
   6.1674567   6.1825755   6.1830174   6.1676690   5.9109753   5.9857958
   5.9265331   5.9287965   6.1625625   6.1671957   6.1674652   6.1627626
   6.1811015   6.1780807   6.1782624   6.1811431   5.9294050   5.9270754
   8.5115613   8.4878549   8.5117731   8.4880935   8.5023914   8.4861686
   8.4879642   8.5116192   8.4861689   8.5024399   8.4882125   8.5118879
 TTTTTTTTTTTTTTTTTTTTTTTTTTTTTT MOQGAD      TELAPSE      278.35 TCPU     7594.84
 TTTTTTTTTTTTTTTTTTTTTTTTTTTTTT SHELLXN     TELAPSE      307.37 TCPU     8521.16
 TTTTTTTTTTTTTTTTTTTTTTTTTTTTTT MONMO3      TELAPSE      308.03 TCPU     8542.22
 NUMERICALLY INTEGRATED DENSITY    396.0001807384
 TTTTTTTTTTTTTTTTTTTTTTTTTTTTTT NUMDFT      TELAPSE      309.77 TCPU     8597.68
 CYC   7 ETOT(AU) -2.578228508047E+03 DETOT -5.51E-05 tst  1.11E-06 PX  1.48E-03
 TTTTTTTTTTTTTTTTTTTTTTTTTTTTTT DIIS        TELAPSE      310.05 TCPU     8604.73
 DIIS TEST: 0.11892E-03 AT SCF   CYCLE   7 - DIIS ACTIVE - HISTORY:     7 CYCLES
 TTTTTTTTTTTTTTTTTTTTTTTTTTTTTT FDIK        TELAPSE      311.96 TCPU     8665.29
 INSULATING STATE
 TOP OF VALENCE BANDS -    BAND    198; K    2; EIG -2.3432511E-01 AU
 TOP OF VALENCE BANDS -    BAND    198; K    1; EIG -2.3636410E-01 AU
 BOTTOM OF VIRTUAL BANDS - BAND    199; K    1; EIG -1.2159395E-01 AU
 INDIRECT ENERGY BAND GAP:   3.0676 eV
 TTTTTTTTTTTTTTTTTTTTTTTTTTTTTT PDIG        TELAPSE      313.67 TCPU     8672.49
 CHARGE NORMALIZATION FACTOR   1.00000000
 TOTAL ATOMIC CHARGES:
   4.4227295   4.4750557   4.4722691   4.5190930   4.4723894   4.5192148
   4.5190186   4.4724101   4.5188537   4.4722529   4.4747458   4.4224970
   0.8789499   0.8639016   0.8640047   0.8790997   0.8837515   0.8785094
   0.8786132   0.8838514   0.8634291   0.8527102   0.8528406   0.8635475
   0.8634487   0.8527326   0.8528041   0.8634830   0.8837728   0.8785159
   0.8786731   0.8839208   0.8789464   0.8638922   0.8639605   0.8790520
   5.9297821   5.9264605   6.1827472   6.1762511   6.1763261   6.1827750
   6.1634403   6.1661210   6.1661615   6.1633426   5.9270661   5.9304037
   5.9858488   5.9109858   6.1679128   6.1830405   6.1833270   6.1682582
   6.1679829   6.1829751   6.1833147   6.1681331   5.9114716   5.9864110
   5.9298782   5.9265866   6.1634034   6.1660497   6.1662168   6.1634439
   6.1827477   6.1761986   6.1763410   6.1827725   5.9269959   5.9302302
   8.5112576   8.4876652   8.5114621   8.4879026   8.5020152   8.4853190
   8.4877687   8.5113393   8.4853214   8.5019914   8.4880117   8.5116017
 TTTTTTTTTTTTTTTTTTTTTTTTTTTTTT MOQGAD      TELAPSE      313.78 TCPU     8672.60
 TTTTTTTTTTTTTTTTTTTTTTTTTTTTTT SHELLXN     TELAPSE      343.00 TCPU     9605.43
 TTTTTTTTTTTTTTTTTTTTTTTTTTTTTT MONMO3      TELAPSE      343.67 TCPU     9626.78
 NUMERICALLY INTEGRATED DENSITY    396.0001807146
 TTTTTTTTTTTTTTTTTTTTTTTTTTTTTT NUMDFT      TELAPSE      345.40 TCPU     9681.83
 CYC   8 ETOT(AU) -2.578228537783E+03 DETOT -2.97E-05 tst  2.92E-07 PX  7.97E-04
 TTTTTTTTTTTTTTTTTTTTTTTTTTTTTT DIIS        TELAPSE      345.70 TCPU     9689.00
 DIIS TEST: 0.84408E-06 AT SCF   CYCLE   8 - DIIS ACTIVE - HISTORY:     8 CYCLES
 TTTTTTTTTTTTTTTTTTTTTTTTTTTTTT FDIK        TELAPSE      347.57 TCPU     9748.22
 INSULATING STATE
 TOP OF VALENCE BANDS -    BAND    198; K    2; EIG -2.3431620E-01 AU
 TOP OF VALENCE BANDS -    BAND    198; K    1; EIG -2.3635593E-01 AU
 BOTTOM OF VIRTUAL BANDS - BAND    199; K    1; EIG -1.2159260E-01 AU
 INDIRECT ENERGY BAND GAP:   3.0674 eV
 TTTTTTTTTTTTTTTTTTTTTTTTTTTTTT PDIG        TELAPSE      349.20 TCPU     9755.36
 CHARGE NORMALIZATION FACTOR   1.00000000
 TOTAL ATOMIC CHARGES:
   4.4227127   4.4751328   4.4721014   4.5192916   4.4722190   4.5194130
   4.5192250   4.4722449   4.5190606   4.4720900   4.4748370   4.4224819
   0.8788915   0.8638887   0.8639969   0.8790410   0.8837977   0.8784823
   0.8785783   0.8838972   0.8633834   0.8527284   0.8528453   0.8635103
   0.8634034   0.8527519   0.8528078   0.8634454   0.8838196   0.8784882
   0.8786388   0.8839661   0.8788883   0.8638789   0.8639529   0.8789931
   5.9294720   5.9264943   6.1828863   6.1762653   6.1763341   6.1828918
   6.1633792   6.1660724   6.1661875   6.1633892   5.9271940   5.9301823
   5.9856495   5.9111113   6.1680279   6.1828460   6.1831652   6.1683847
   6.1680873   6.1827714   6.1831621   6.1682704   5.9116872   5.9862696
   5.9295612   5.9266171   6.1633435   6.1660012   6.1662421   6.1634893
   6.1828826   6.1762104   6.1763526   6.1828931   5.9271281   5.9300151
   8.5113939   8.4876855   8.5116021   8.4879241   8.5020093   8.4852653
   8.4877919   8.5114593   8.4852724   8.5020320   8.4880361   8.5117253
 TTTTTTTTTTTTTTTTTTTTTTTTTTTTTT MOQGAD      TELAPSE      349.31 TCPU     9755.47
 TTTTTTTTTTTTTTTTTTTTTTTTTTTTTT SHELLXN     TELAPSE      378.37 TCPU    10682.84
 TTTTTTTTTTTTTTTTTTTTTTTTTTTTTT MONMO3      TELAPSE      379.03 TCPU    10703.80
 NUMERICALLY INTEGRATED DENSITY    396.0001807203
 TTTTTTTTTTTTTTTTTTTTTTTTTTTTTT NUMDFT      TELAPSE      380.74 TCPU    10758.43
 CYC   9 ETOT(AU) -2.578228537820E+03 DETOT -3.69E-08 tst  4.07E-09 PX  8.33E-05
 TTTTTTTTTTTTTTTTTTTTTTTTTTTTTT DIIS        TELAPSE      381.06 TCPU    10765.56
 DIIS TEST: 0.12861E-06 AT SCF   CYCLE   9 - DIIS ACTIVE - HISTORY:     9 CYCLES
 TTTTTTTTTTTTTTTTTTTTTTTTTTTTTT FDIK        TELAPSE      382.95 TCPU    10825.24
 INSULATING STATE
 TOP OF VALENCE BANDS -    BAND    198; K    2; EIG -2.3432241E-01 AU
 TOP OF VALENCE BANDS -    BAND    198; K    1; EIG -2.3636186E-01 AU
 BOTTOM OF VIRTUAL BANDS - BAND    199; K    1; EIG -1.2159671E-01 AU
 INDIRECT ENERGY BAND GAP:   3.0674 eV
 TTTTTTTTTTTTTTTTTTTTTTTTTTTTTT PDIG        TELAPSE      384.58 TCPU    10832.37
 CHARGE NORMALIZATION FACTOR   1.00000000
 TOTAL ATOMIC CHARGES:
   4.4227398   4.4751232   4.4721346   4.5192430   4.4722544   4.5193646
   4.5191692   4.4722748   4.5190045   4.4721179   4.4748139   4.4225066
   0.8789045   0.8638763   0.8639790   0.8790547   0.8837853   0.8784715
   0.8785762   0.8838860   0.8633858   0.8527016   0.8528343   0.8635031
   0.8634052   0.8527238   0.8527980   0.8634389   0.8838065   0.8784780
   0.8786361   0.8839555   0.8789009   0.8638667   0.8639347   0.8790072
   5.9296131   5.9265315   6.1827625   6.1763190   6.1763940   6.1827923
   6.1634087   6.1661609   6.1661933   6.1632983   5.9271217   5.9302204
   5.9857724   5.9110268   6.1679896   6.1829704   6.1832513   6.1683330
   6.1680612   6.1829059   6.1832382   6.1682064   5.9114934   5.9863236
   5.9297097   5.9266583   6.1633721   6.1660894   6.1662482   6.1633995
   6.1827636   6.1762676   6.1764086   6.1827888   5.9270513   5.9300461
   8.5113360   8.4876759   8.5115398   8.4879128   8.5020789   8.4853273
   8.4877792   8.5114199   8.4853287   8.5020507   8.4880219   8.5116816
 TTTTTTTTTTTTTTTTTTTTTTTTTTTTTT MOQGAD      TELAPSE      384.69 TCPU    10832.48
 TTTTTTTTTTTTTTTTTTTTTTTTTTTTTT SHELLXN     TELAPSE      413.93 TCPU    11765.93
 +++ ENERGIES IN A.U. +++
 ::: EXT EL-POLE                                  -3.2945185620560E+03
 ::: EXT EL-SPHEROPOLE                             3.8170386547435E+01
 ::: BIELET ZONE E-E                               4.8041089210761E+03
 ::: TOTAL E-E                                     1.5477607455675E+03
 ::: TOTAL E-N + N-E                              -6.7357209526210E+03
 ::: TOTAL N-N                                     3.1714526213493E+02
 ::: KINETIC ENERGY                                2.5601033549431E+03
 ::: PSEUDO TOTAL   ENERGY                        -2.3107115899755E+03
 ::: VIRIAL COEFFICIENT                            1.0512012399953E+00
 TTTTTTTTTTTTTTTTTTTTTTTTTTTTTT MONMO3      TELAPSE      414.60 TCPU    11787.23
 NUMERICALLY INTEGRATED DENSITY    396.0001807195
 EXCHANGE ENERGY: -0.252077119447E+03  CORRELATION ENERGY: -0.154398283963E+02
 TTTTTTTTTTTTTTTTTTTTTTTTTTTTTT NUMDFT      TELAPSE      416.31 TCPU    11841.96
 CYC  10 ETOT(AU) -2.578228537819E+03 DETOT  1.60E-09 tst  6.19E-10 PX  8.33E-05

 == SCF ENDED - CONVERGENCE ON ENERGY      E(AU) -2.5782285378185E+03 CYCLES  10


 ENERGY EXPRESSION=HARTREE+FOCK EXCH*0.00000+(HSESOL     EXCH)*1.00000+PBESOL     CORR


 TOTAL ENERGY(DFT)(AU)( 10) -2.5782285378185E+03 DE 1.6E-09 tester 6.2E-10
 TTTTTTTTTTTTTTTTTTTTTTTTTTTTTT EDFT        TELAPSE      416.31 TCPU    11841.97
 
 INFORMATION **** DFTD3 ENERGY **** CALCULATE DFTD3 ENERGY

           DFT-D V3(BJ)
 DF                                         hsesol3c  
 parameters
 s6       :    1.0000
 s8       :    0.0000
 a1       :    0.5196
 a2       :    4.9385
 k1 k3    :   16.0000   -4.0000
 Cutoff   :   50.2022
 CN-Cutoff:   21.1671
 ABC-Cutoff:   21.1671
 
 Edisp /kcal,au:   -63.3863 -0.10101244

 E6    /kcal :   -68.4750
 E8    /kcal :     0.0000
 E6(ABC) "   :   5.088759
 
 INFORMATION **** DFTD3 ENERGY **** NORMAL TERMINATION OF DFTD3 MODULE

 GCP ENERGY CALCULATION
  level        hsesol3c            basis:hsesol3c
  Nbf            948
  Atoms           84

  Parameters: 
  sigma     1.0000
  eta       1.4281
  alpha     0.2936
  beta      1.9467

  dmp_scal      4.0000
  dmp_exp       6.0000
 cutoffs: 
   distance [bohr] 60.0
   noise    [a.u.] 2.2E-16
 SR-damping   T
 ** gCP correction **
  Egcp:        0.1728557920 / (a.u.) ||     108.4687 / (kcal/mol)
 INFORMATION **** GCP **** NORMAL TERMINATION OF GCP MODULE

 *******************************************************************************

 DFT-D3-GCP DISPERSION AND COUNTERPOISE CORRECTION

 D3 DISPERSION ENERGY (AU)      -1.0101244259709E-01
 GCP ENERGY (AU)                 1.7285579196645E-01
 TOTAL ENERGY + DISP + GCP (AU) -2.5781566944692E+03

 *******************************************************************************

 EIGENVECTORS IN FORTRAN UNIT  8
 TTTTTTTTTTTTTTTTTTTTTTTTTTTTTT END         TELAPSE      420.68 TCPU    11852.38
 EEEEEEEEEE TERMINATION  DATE 19 02 2026 TIME 19:33:12.9
