 Default number of threads is:           32

         
 *******************************************************************************
 *                                                                             *
 *                               CRYSTAL23                                     *
 *                      public : 1.0.1 - October 2022                          *
 *                       HTTP://WWW.CRYSTAL.UNITO.IT                           *
 *                                                                             *
 *                              MAIN AUTHORS                                   *
 *                                                                             *
 *  R. DOVESI(1,11), V.R. SAUNDERS(2), C. ROETTI(1,11), R. ORLANDO(1,11),      *
 *  C.M. ZICOVICH-WILSON(1,3), F. PASCALE(4), B. CIVALLERI(1,11),              *
 *  K. DOLL(5), N.M. HARRISON(6), I.J. BUSH(7), Ph. D'ARCO(8),                 *
 *  M. LLUNELL(9), M. CAUSA'(10), Y. NOEL(8), L. MASCHIO(1,11), A. ERBA(1,11)  *
 *  M. RE'RAT(14), S. CASASSA(1,11), B.G. SEARLE(2), J.K. DESMARAIS(1)         *
 *                                                                             *
 *        CONTRIBUTIONS TO THE CODE HAVE ALSO BEEN GIVEN BY                    *
 *                                                                             *
 *  M. FERRABONE(1,11), M. DE LA PIERRE(1,11), M. FERRERO(1,11),               *
 *  J. BAIMA(1,11), E. ALBANESE(1,11), M.F. PEINTINGER(12), R. BAST(13),       *
 *  B. KIRTMAN(15), V. LACIVITA(1,11), R. DEMICHELIS(1,16)                     *
 *  G. BRANDEBURG(17), S. SALUSTRO(1,11), G. SANSONE(1,11)                     *
 *  M.T. RUGGIERO(18), L.E. DAGA(1), L. DONA'(1), A. COSSARD(1)                *
 *                                                                             *
 * (1) THEORETICAL CHEMISTRY GROUP - UNIVERSITA' DI TORINO - TORINO (ITALY)    *
 * (2) SCIENTIFIC COMPUTING DEPARTMENT - STFC DARESBURY (UK)                   *
 * (3) UNIVERSIDAD AUTONOMA DEL ESTADO DE MORELOS - CUERNAVACA (MEXICO)        *
 * (4) UNIVERSITE' DE LORRAINE - NANCY (FRANCE)                                *
 * (5) UNIVERSITAET STUTTGART- STUTTGART (GERMANY)                             *
 * (6) IMPERIAL COLLEGE - LONDON (UK)                                          *
 * (7) SCIENTIFIC COMPUTING DEPARTMENT - STFC RAL (UK)                         *
 * (8) UPMC - SORBONNE UNIVERSITES - PARIS (FRANCE)                            *
 * (9) UNIVERSIDAD DE BARCELONA - BARCELONA (SPAIN)                            *
 *(10) UNIVERSITA' DI NAPOLI "FEDERICO II" - NAPOLI (ITALY)                    *
 *(11) NIS - NANOSTRUCTURED INTERFACES AND SURFACES - TORINO (ITALY)           *
 *(12) MPI FUER CHEMISCHE ENERGIEKONVERSION - MUELHEIM AN DER RUHR (GERMANY)   *
 *(13) UNIVERSITY OF TROMSO - TROMSO (NORWAY)                                  *
 *(14) UNIVERSITE' DE PAU ET DES PAYS DE L'ADOUR - PAU (FRANCE)                *
 *(15) UNIVERSITY OF CALIFORNIA SANTA BARBARA - SANTA BARBARA (USA)            *
 *(16) CURTIN UNIVERSITY - PERTH (AUSTRALIA)                                   *
 *(17) UNIVERSITY COLLEGE LONDON - LONDON (UK)                                 *
 *(18) UNIVERSITY OF VERMONT - BURLINGTON (USA)                                *
 *                                                                             *
 *******************************************************************************
 EEEEEEEEEE STARTING  DATE 19 02 2026 TIME 20:26:21.1
 cof-1_z41_L030_serr                                                             

 CRYSTAL CALCULATION
 (INPUT ACCORDING TO THE INTERNATIONAL TABLES FOR X-RAY CRYSTALLOGRAPHY)
 CRYSTAL FAMILY                       :  TRICLINIC   
 CRYSTAL CLASS  (GROTH - 1921)        :  TRICLINIC PEDIAL                     

 SPACE GROUP (NONCENTROSYMMETRIC)     :  P 1             

 LATTICE PARAMETERS  (ANGSTROMS AND DEGREES) - CONVENTIONAL CELL
        A           B           C        ALPHA        BETA       GAMMA
    15.02361    15.02392     8.20000    90.00032    89.99994   119.99596


 NUMBER OF IRREDUCIBLE ATOMS IN THE CONVENTIONAL CELL:   84

 INPUT COORDINATES

 ATOM AT. N.              COORDINATES
   1   5     6.136805400000E-01  2.273182200000E-01  2.505825300000E-01
   2   5     7.289503700000E-01  4.578813200000E-01  7.505825300000E-01
   3   5     7.727362000000E-01  3.863778800000E-01  2.505825300000E-01
   4   5     8.880060300000E-01  6.169409800000E-01  7.505825300000E-01
   5   5     6.136762700000E-01  3.863606700000E-01  2.493577500000E-01
   6   5     7.289461000000E-01  6.169237700000E-01  7.493577600000E-01
   7   5     2.272552500000E-01  6.136332200000E-01  2.505825300000E-01
   8   5     3.425250800000E-01  8.441963200000E-01  7.505825400000E-01
   9   5     3.863632200000E-01  6.136124500000E-01  2.505825300000E-01
  10   5     5.016330500000E-01  8.441755500000E-01  7.505825300000E-01
  11   5     3.863435000000E-01  7.727516500000E-01  2.493577500000E-01
  12   5     5.016133300000E-01  3.314750000000E-03  7.493577600000E-01
  13   1     9.030436200000E-01  3.089300500000E-01  2.480433200000E-01
  14   1     1.831345000000E-02  5.394931500000E-01  7.480433200000E-01
  15   1     9.663453000000E-02  6.910534400000E-01  2.476550300000E-01
  16   1     2.119043600000E-01  9.216165400000E-01  7.476550300000E-01
  17   1     9.029714200000E-01  5.940724300000E-01  2.475952700000E-01
  18   1     1.824125000000E-02  8.246355300000E-01  7.475952700000E-01
  19   1     9.673618000000E-02  4.056849400000E-01  2.476101700000E-01
  20   1     2.120060100000E-01  6.362480400000E-01  7.476101800000E-01
  21   1     6.910324000000E-01  9.700412000000E-02  2.519567000000E-01
  22   1     8.063022300000E-01  3.275672200000E-01  7.519567000000E-01
  23   1     3.089297200000E-01  9.034373100000E-01  2.523450200000E-01
  24   1     4.241995500000E-01  1.340004100000E-01  7.523450200000E-01
  25   1     4.058699900000E-01  9.704998000000E-02  2.524048100000E-01
  26   1     5.211398200000E-01  3.276130800000E-01  7.524048100000E-01
  27   1     5.943122100000E-01  9.033473200000E-01  2.523898100000E-01
  28   1     7.095820400000E-01  1.339104200000E-01  7.523898100000E-01
  29   1     6.910727400000E-01  5.940542100000E-01  2.480433400000E-01
  30   1     8.063425700000E-01  8.246173100000E-01  7.480433400000E-01
  31   1     3.089618300000E-01  4.056093300000E-01  2.476550100000E-01
  32   1     4.242316600000E-01  6.361724300000E-01  7.476550100000E-01
  33   1     4.058405700000E-01  3.088232500000E-01  2.475952200000E-01
  34   1     5.211104000000E-01  5.393863500000E-01  7.475952200000E-01
  35   1     5.942908800000E-01  6.909579300000E-01  2.476102200000E-01
  36   1     7.095607100000E-01  9.215210300000E-01  7.476102200000E-01
  37   6     8.918903100000E-01  4.459436900000E-01  2.493129400000E-01
  38   6     7.160140000000E-03  6.765067900000E-01  7.493129400000E-01
  39   6     9.464891100000E-01  3.927856300000E-01  2.481030700000E-01
  40   6     6.175894000000E-02  6.233487300000E-01  7.481030800000E-01
  41   6     5.338812000000E-02  6.071853000000E-01  2.479985600000E-01
  42   6     1.686579500000E-01  8.377484000000E-01  7.479985600000E-01
  43   6     9.464521100000E-01  5.536921900000E-01  2.483122200000E-01
  44   6     6.172194000000E-02  7.842552900000E-01  7.483122200000E-01
  45   6     5.342634000000E-02  4.462499700000E-01  2.475056200000E-01
  46   6     1.686961700000E-01  6.768130700000E-01  7.475056200000E-01
  47   6     1.080358900000E-01  5.540356300000E-01  2.483271400000E-01
  48   6     2.233057200000E-01  7.845987300000E-01  7.483271400000E-01
  49   6     5.540394200000E-01  1.081684600000E-01  2.506871000000E-01
  50   6     6.693092500000E-01  3.387315600000E-01  7.506871000000E-01
  51   6     6.071778500000E-01  5.355594000000E-02  2.518969300000E-01
  52   6     7.224476800000E-01  2.841190400000E-01  7.518969300000E-01
  53   6     3.927986700000E-01  9.466631600000E-01  2.520014900000E-01
  54   6     5.080685000000E-01  1.772262600000E-01  7.520014900000E-01
  55   6     4.462875800000E-01  5.360286000000E-02  2.516878400000E-01
  56   6     5.615574100000E-01  2.841659600000E-01  7.516878400000E-01
  57   6     5.537168500000E-01  9.466235600000E-01  2.524943800000E-01
  58   6     6.689866800000E-01  1.771866600000E-01  7.524943800000E-01
  59   6     4.459279100000E-01  8.919920600000E-01  2.516728900000E-01
  60   6     5.611977400000E-01  1.225551600000E-01  7.516728800000E-01
  61   6     5.540448700000E-01  4.458745500000E-01  2.493129400000E-01
  62   6     6.693147000000E-01  6.764376500000E-01  7.493129400000E-01
  63   6     6.072102200000E-01  5.536257800000E-01  2.481031000000E-01
  64   6     7.224800500000E-01  7.841888800000E-01  7.481031000000E-01
  65   6     3.928233700000E-01  4.461720300000E-01  2.479985400000E-01
  66   6     5.080932000000E-01  6.767351300000E-01  7.479985400000E-01
  67   6     4.462872600000E-01  3.926899900000E-01  2.483121800000E-01
  68   6     5.615570900000E-01  6.232530900000E-01  7.483121900000E-01
  69   6     5.537429600000E-01  6.070980000000E-01  2.475056500000E-01
  70   6     6.690127900000E-01  8.376611000000E-01  7.475056500000E-01
  71   6     4.459599800000E-01  5.539582300000E-01  2.483271400000E-01
  72   6     5.612298100000E-01  7.845213300000E-01  7.483271400000E-01
  73   8     5.607366800000E-01  2.803706300000E-01  2.496863500000E-01
  74   8     6.760065100000E-01  5.109337300000E-01  7.496863500000E-01
  75   8     7.196817000000E-01  2.803783300000E-01  2.522703400000E-01
  76   8     8.349515300000E-01  5.109414300000E-01  7.522703300000E-01
  77   8     7.196794200000E-01  4.393234600000E-01  2.483719600000E-01
  78   8     8.349492500000E-01  6.698865600000E-01  7.483719600000E-01
  79   8     2.803245100000E-01  7.196511100000E-01  2.496863600000E-01
  80   8     3.955943400000E-01  9.502142100000E-01  7.496863600000E-01
  81   8     2.803439700000E-01  5.606956100000E-01  2.522703400000E-01
  82   8     3.956138000000E-01  7.912587100000E-01  7.522703400000E-01
  83   8     4.392638400000E-01  7.196354200000E-01  2.483719500000E-01
  84   8     5.545336700000E-01  9.501985200000E-01  7.483719500000E-01

 *******************************************************************************

 << INFORMATION >>: FROM NOW ON, ALL COORDINATES REFER TO THE PRIMITIVE CELL

 *******************************************************************************

 LATTICE PARAMETERS  (ANGSTROMS AND DEGREES) - PRIMITIVE CELL
       A          B          C        ALPHA      BETA     GAMMA        VOLUME
   15.02361   15.02392    8.20000    90.00032  89.99994 119.99596   1602.948694

 COORDINATES OF THE EQUIVALENT ATOMS (FRACTIONAL UNITS)

 N. ATOM EQUIV AT. N.          X                  Y                  Z

   1   1   1    5 B    -3.86319460000E-01  2.27318220000E-01  2.50582530000E-01

   2   2   1    5 B    -2.71049630000E-01  4.57881320000E-01 -2.49417470000E-01

   3   3   1    5 B    -2.27263800000E-01  3.86377880000E-01  2.50582530000E-01

   4   4   1    5 B    -1.11993970000E-01 -3.83059020000E-01 -2.49417470000E-01

   5   5   1    5 B    -3.86323730000E-01  3.86360670000E-01  2.49357750000E-01

   6   6   1    5 B    -2.71053900000E-01 -3.83076230000E-01 -2.50642240000E-01

   7   7   1    5 B     2.27255250000E-01 -3.86366780000E-01  2.50582530000E-01

   8   8   1    5 B     3.42525080000E-01 -1.55803680000E-01 -2.49417460000E-01

   9   9   1    5 B     3.86363220000E-01 -3.86387550000E-01  2.50582530000E-01

  10  10   1    5 B    -4.98366950000E-01 -1.55824450000E-01 -2.49417470000E-01

  11  11   1    5 B     3.86343500000E-01 -2.27248350000E-01  2.49357750000E-01

  12  12   1    5 B    -4.98386670000E-01  3.31475000000E-03 -2.50642240000E-01

  13  13   1    1 H    -9.69563800000E-02  3.08930050000E-01  2.48043320000E-01

  14  14   1    1 H     1.83134500000E-02 -4.60506850000E-01 -2.51956680000E-01

  15  15   1    1 H     9.66345300000E-02 -3.08946560000E-01  2.47655030000E-01

  16  16   1    1 H     2.11904360000E-01 -7.83834600000E-02 -2.52344970000E-01

  17  17   1    1 H    -9.70285800000E-02 -4.05927570000E-01  2.47595270000E-01

  18  18   1    1 H     1.82412500000E-02 -1.75364470000E-01 -2.52404730000E-01

  19  19   1    1 H     9.67361800000E-02  4.05684940000E-01  2.47610170000E-01

  20  20   1    1 H     2.12006010000E-01 -3.63751960000E-01 -2.52389820000E-01

  21  21   1    1 H    -3.08967600000E-01  9.70041200000E-02  2.51956700000E-01

  22  22   1    1 H    -1.93697770000E-01  3.27567220000E-01 -2.48043300000E-01

  23  23   1    1 H     3.08929720000E-01 -9.65626900000E-02  2.52345020000E-01

  24  24   1    1 H     4.24199550000E-01  1.34000410000E-01 -2.47654980000E-01

  25  25   1    1 H     4.05869990000E-01  9.70499800000E-02  2.52404810000E-01

  26  26   1    1 H    -4.78860180000E-01  3.27613080000E-01 -2.47595190000E-01

  27  27   1    1 H    -4.05687790000E-01 -9.66526800000E-02  2.52389810000E-01

  28  28   1    1 H    -2.90417960000E-01  1.33910420000E-01 -2.47610190000E-01

  29  29   1    1 H    -3.08927260000E-01 -4.05945790000E-01  2.48043340000E-01

  30  30   1    1 H    -1.93657430000E-01 -1.75382690000E-01 -2.51956660000E-01

  31  31   1    1 H     3.08961830000E-01  4.05609330000E-01  2.47655010000E-01

  32  32   1    1 H     4.24231660000E-01 -3.63827570000E-01 -2.52344990000E-01

  33  33   1    1 H     4.05840570000E-01  3.08823250000E-01  2.47595220000E-01

  34  34   1    1 H    -4.78889600000E-01 -4.60613650000E-01 -2.52404780000E-01

  35  35   1    1 H    -4.05709120000E-01 -3.09042070000E-01  2.47610220000E-01

  36  36   1    1 H    -2.90439290000E-01 -7.84789700000E-02 -2.52389780000E-01

  37  37   1    6 C    -1.08109690000E-01  4.45943690000E-01  2.49312940000E-01

  38  38   1    6 C     7.16014000000E-03 -3.23493210000E-01 -2.50687060000E-01

  39  39   1    6 C    -5.35108900000E-02  3.92785630000E-01  2.48103070000E-01

  40  40   1    6 C     6.17589400000E-02 -3.76651270000E-01 -2.51896920000E-01

  41  41   1    6 C     5.33881200000E-02 -3.92814700000E-01  2.47998560000E-01

  42  42   1    6 C     1.68657950000E-01 -1.62251600000E-01 -2.52001440000E-01

  43  43   1    6 C    -5.35478900000E-02 -4.46307810000E-01  2.48312220000E-01

  44  44   1    6 C     6.17219400000E-02 -2.15744710000E-01 -2.51687780000E-01

  45  45   1    6 C     5.34263400000E-02  4.46249970000E-01  2.47505620000E-01

  46  46   1    6 C     1.68696170000E-01 -3.23186930000E-01 -2.52494380000E-01

  47  47   1    6 C     1.08035890000E-01 -4.45964370000E-01  2.48327140000E-01

  48  48   1    6 C     2.23305720000E-01 -2.15401270000E-01 -2.51672860000E-01

  49  49   1    6 C    -4.45960580000E-01  1.08168460000E-01  2.50687100000E-01

  50  50   1    6 C    -3.30690750000E-01  3.38731560000E-01 -2.49312900000E-01

  51  51   1    6 C    -3.92822150000E-01  5.35559400000E-02  2.51896930000E-01

  52  52   1    6 C    -2.77552320000E-01  2.84119040000E-01 -2.48103070000E-01

  53  53   1    6 C     3.92798670000E-01 -5.33368400000E-02  2.52001490000E-01

  54  54   1    6 C    -4.91931500000E-01  1.77226260000E-01 -2.47998510000E-01

  55  55   1    6 C     4.46287580000E-01  5.36028600000E-02  2.51687840000E-01

  56  56   1    6 C    -4.38442590000E-01  2.84165960000E-01 -2.48312160000E-01

  57  57   1    6 C    -4.46283150000E-01 -5.33764400000E-02  2.52494380000E-01

  58  58   1    6 C    -3.31013320000E-01  1.77186660000E-01 -2.47505620000E-01

  59  59   1    6 C     4.45927910000E-01 -1.08007940000E-01  2.51672890000E-01

  60  60   1    6 C    -4.38802260000E-01  1.22555160000E-01 -2.48327120000E-01

  61  61   1    6 C    -4.45955130000E-01  4.45874550000E-01  2.49312940000E-01

  62  62   1    6 C    -3.30685300000E-01 -3.23562350000E-01 -2.50687060000E-01

  63  63   1    6 C    -3.92789780000E-01 -4.46374220000E-01  2.48103100000E-01

  64  64   1    6 C    -2.77519950000E-01 -2.15811120000E-01 -2.51896900000E-01

  65  65   1    6 C     3.92823370000E-01  4.46172030000E-01  2.47998540000E-01

  66  66   1    6 C    -4.91906800000E-01 -3.23264870000E-01 -2.52001460000E-01

  67  67   1    6 C     4.46287260000E-01  3.92689990000E-01  2.48312180000E-01

  68  68   1    6 C    -4.38442910000E-01 -3.76746910000E-01 -2.51687810000E-01

  69  69   1    6 C    -4.46257040000E-01 -3.92902000000E-01  2.47505650000E-01

  70  70   1    6 C    -3.30987210000E-01 -1.62338900000E-01 -2.52494350000E-01

  71  71   1    6 C     4.45959980000E-01 -4.46041770000E-01  2.48327140000E-01

  72  72   1    6 C    -4.38770190000E-01 -2.15478670000E-01 -2.51672860000E-01

  73  73   1    8 O    -4.39263320000E-01  2.80370630000E-01  2.49686350000E-01

  74  74   1    8 O    -3.23993490000E-01 -4.89066270000E-01 -2.50313650000E-01

  75  75   1    8 O    -2.80318300000E-01  2.80378330000E-01  2.52270340000E-01

  76  76   1    8 O    -1.65048470000E-01 -4.89058570000E-01 -2.47729670000E-01

  77  77   1    8 O    -2.80320580000E-01  4.39323460000E-01  2.48371960000E-01

  78  78   1    8 O    -1.65050750000E-01 -3.30113440000E-01 -2.51628040000E-01

  79  79   1    8 O     2.80324510000E-01 -2.80348890000E-01  2.49686360000E-01

  80  80   1    8 O     3.95594340000E-01 -4.97857900000E-02 -2.50313640000E-01

  81  81   1    8 O     2.80343970000E-01 -4.39304390000E-01  2.52270340000E-01

  82  82   1    8 O     3.95613800000E-01 -2.08741290000E-01 -2.47729660000E-01

  83  83   1    8 O     4.39263840000E-01 -2.80364580000E-01  2.48371950000E-01

  84  84   1    8 O    -4.45466330000E-01 -4.98014800000E-02 -2.51628050000E-01

 NUMBER OF SYMMETRY OPERATORS         :    1
 *******************************************************************************
 * GEOMETRY EDITING - INPUT COORDINATES ARE GIVEN IN ANGSTROM         
 *******************************************************************************

 GCALCO - MAX INDICES DIRECT LATTICE VECTOR    12    12    20
 NO.OF VECTORS CREATED 6999 STARS 3500 RMAX   262.87005 BOHR

 GEOMETRY FOR WAVE FUNCTION - DIMENSIONALITY OF THE SYSTEM    3
 (NON PERIODIC DIRECTION: LATTICE PARAMETER FORMALLY SET TO 500)
 *******************************************************************************
 LATTICE PARAMETERS (ANGSTROMS AND DEGREES) - BOHR = 0.5291772083 ANGSTROM
 PRIMITIVE CELL - CENTRING CODE 1/0 VOLUME=  1602.948694 - DENSITY  0.808 g/cm^3
         A              B              C           ALPHA      BETA       GAMMA 
    15.02361100    15.02391600     8.20000000    90.000323  89.999944 119.995964
 *******************************************************************************
 ATOMS IN THE ASYMMETRIC UNIT   84 - ATOMS IN THE UNIT CELL:   84
     ATOM                 X/A                 Y/B                 Z/C    
 *******************************************************************************
      1 T   5 B    -3.863194600000E-01  2.273182200000E-01  2.505825300000E-01
      2 T   5 B    -2.710496300000E-01  4.578813200000E-01 -2.494174700000E-01
      3 T   5 B    -2.272638000000E-01  3.863778800000E-01  2.505825300000E-01
      4 T   5 B    -1.119939700000E-01 -3.830590200000E-01 -2.494174700000E-01
      5 T   5 B    -3.863237300000E-01  3.863606700000E-01  2.493577500000E-01
      6 T   5 B    -2.710539000000E-01 -3.830762300000E-01 -2.506422400000E-01
      7 T   5 B     2.272552500000E-01 -3.863667800000E-01  2.505825300000E-01
      8 T   5 B     3.425250800000E-01 -1.558036800000E-01 -2.494174600000E-01
      9 T   5 B     3.863632200000E-01 -3.863875500000E-01  2.505825300000E-01
     10 T   5 B    -4.983669500000E-01 -1.558244500000E-01 -2.494174700000E-01
     11 T   5 B     3.863435000000E-01 -2.272483500000E-01  2.493577500000E-01
     12 T   5 B    -4.983866700000E-01  3.314750000000E-03 -2.506422400000E-01
     13 T   1 H    -9.695638000000E-02  3.089300500000E-01  2.480433200000E-01
     14 T   1 H     1.831345000000E-02 -4.605068500000E-01 -2.519566800000E-01
     15 T   1 H     9.663453000000E-02 -3.089465600000E-01  2.476550300000E-01
     16 T   1 H     2.119043600000E-01 -7.838346000000E-02 -2.523449700000E-01
     17 T   1 H    -9.702858000000E-02 -4.059275700000E-01  2.475952700000E-01
     18 T   1 H     1.824125000000E-02 -1.753644700000E-01 -2.524047300000E-01
     19 T   1 H     9.673618000000E-02  4.056849400000E-01  2.476101700000E-01
     20 T   1 H     2.120060100000E-01 -3.637519600000E-01 -2.523898200000E-01
     21 T   1 H    -3.089676000000E-01  9.700412000000E-02  2.519567000000E-01
     22 T   1 H    -1.936977700000E-01  3.275672200000E-01 -2.480433000000E-01
     23 T   1 H     3.089297200000E-01 -9.656269000000E-02  2.523450200000E-01
     24 T   1 H     4.241995500000E-01  1.340004100000E-01 -2.476549800000E-01
     25 T   1 H     4.058699900000E-01  9.704998000000E-02  2.524048100000E-01
     26 T   1 H    -4.788601800000E-01  3.276130800000E-01 -2.475951900000E-01
     27 T   1 H    -4.056877900000E-01 -9.665268000000E-02  2.523898100000E-01
     28 T   1 H    -2.904179600000E-01  1.339104200000E-01 -2.476101900000E-01
     29 T   1 H    -3.089272600000E-01 -4.059457900000E-01  2.480433400000E-01
     30 T   1 H    -1.936574300000E-01 -1.753826900000E-01 -2.519566600000E-01
     31 T   1 H     3.089618300000E-01  4.056093300000E-01  2.476550100000E-01
     32 T   1 H     4.242316600000E-01 -3.638275700000E-01 -2.523449900000E-01
     33 T   1 H     4.058405700000E-01  3.088232500000E-01  2.475952200000E-01
     34 T   1 H    -4.788896000000E-01 -4.606136500000E-01 -2.524047800000E-01
     35 T   1 H    -4.057091200000E-01 -3.090420700000E-01  2.476102200000E-01
     36 T   1 H    -2.904392900000E-01 -7.847897000000E-02 -2.523897800000E-01
     37 T   6 C    -1.081096900000E-01  4.459436900000E-01  2.493129400000E-01
     38 T   6 C     7.160140000000E-03 -3.234932100000E-01 -2.506870600000E-01
     39 T   6 C    -5.351089000000E-02  3.927856300000E-01  2.481030700000E-01
     40 T   6 C     6.175894000000E-02 -3.766512700000E-01 -2.518969200000E-01
     41 T   6 C     5.338812000000E-02 -3.928147000000E-01  2.479985600000E-01
     42 T   6 C     1.686579500000E-01 -1.622516000000E-01 -2.520014400000E-01
     43 T   6 C    -5.354789000000E-02 -4.463078100000E-01  2.483122200000E-01
     44 T   6 C     6.172194000000E-02 -2.157447100000E-01 -2.516877800000E-01
     45 T   6 C     5.342634000000E-02  4.462499700000E-01  2.475056200000E-01
     46 T   6 C     1.686961700000E-01 -3.231869300000E-01 -2.524943800000E-01
     47 T   6 C     1.080358900000E-01 -4.459643700000E-01  2.483271400000E-01
     48 T   6 C     2.233057200000E-01 -2.154012700000E-01 -2.516728600000E-01
     49 T   6 C    -4.459605800000E-01  1.081684600000E-01  2.506871000000E-01
     50 T   6 C    -3.306907500000E-01  3.387315600000E-01 -2.493129000000E-01
     51 T   6 C    -3.928221500000E-01  5.355594000000E-02  2.518969300000E-01
     52 T   6 C    -2.775523200000E-01  2.841190400000E-01 -2.481030700000E-01
     53 T   6 C     3.927986700000E-01 -5.333684000000E-02  2.520014900000E-01
     54 T   6 C    -4.919315000000E-01  1.772262600000E-01 -2.479985100000E-01
     55 T   6 C     4.462875800000E-01  5.360286000000E-02  2.516878400000E-01
     56 T   6 C    -4.384425900000E-01  2.841659600000E-01 -2.483121600000E-01
     57 T   6 C    -4.462831500000E-01 -5.337644000000E-02  2.524943800000E-01
     58 T   6 C    -3.310133200000E-01  1.771866600000E-01 -2.475056200000E-01
     59 T   6 C     4.459279100000E-01 -1.080079400000E-01  2.516728900000E-01
     60 T   6 C    -4.388022600000E-01  1.225551600000E-01 -2.483271200000E-01
     61 T   6 C    -4.459551300000E-01  4.458745500000E-01  2.493129400000E-01
     62 T   6 C    -3.306853000000E-01 -3.235623500000E-01 -2.506870600000E-01
     63 T   6 C    -3.927897800000E-01 -4.463742200000E-01  2.481031000000E-01
     64 T   6 C    -2.775199500000E-01 -2.158111200000E-01 -2.518969000000E-01
     65 T   6 C     3.928233700000E-01  4.461720300000E-01  2.479985400000E-01
     66 T   6 C    -4.919068000000E-01 -3.232648700000E-01 -2.520014600000E-01
     67 T   6 C     4.462872600000E-01  3.926899900000E-01  2.483121800000E-01
     68 T   6 C    -4.384429100000E-01 -3.767469100000E-01 -2.516878100000E-01
     69 T   6 C    -4.462570400000E-01 -3.929020000000E-01  2.475056500000E-01
     70 T   6 C    -3.309872100000E-01 -1.623389000000E-01 -2.524943500000E-01
     71 T   6 C     4.459599800000E-01 -4.460417700000E-01  2.483271400000E-01
     72 T   6 C    -4.387701900000E-01 -2.154786700000E-01 -2.516728600000E-01
     73 T   8 O    -4.392633200000E-01  2.803706300000E-01  2.496863500000E-01
     74 T   8 O    -3.239934900000E-01 -4.890662700000E-01 -2.503136500000E-01
     75 T   8 O    -2.803183000000E-01  2.803783300000E-01  2.522703400000E-01
     76 T   8 O    -1.650484700000E-01 -4.890585700000E-01 -2.477296700000E-01
     77 T   8 O    -2.803205800000E-01  4.393234600000E-01  2.483719600000E-01
     78 T   8 O    -1.650507500000E-01 -3.301134400000E-01 -2.516280400000E-01
     79 T   8 O     2.803245100000E-01 -2.803488900000E-01  2.496863600000E-01
     80 T   8 O     3.955943400000E-01 -4.978579000000E-02 -2.503136400000E-01
     81 T   8 O     2.803439700000E-01 -4.393043900000E-01  2.522703400000E-01
     82 T   8 O     3.956138000000E-01 -2.087412900000E-01 -2.477296600000E-01
     83 T   8 O     4.392638400000E-01 -2.803645800000E-01  2.483719500000E-01
     84 T   8 O    -4.454663300000E-01 -4.980148000000E-02 -2.516280500000E-01

 T = ATOM BELONGING TO THE ASYMMETRIC UNIT

 ****    1 SYMMOPS - TRANSLATORS IN FRACTIONAL UNITS
 **** MATRICES AND TRANSLATORS IN THE CRYSTALLOGRAPHIC REFERENCE FRAME
   V INV                    ROTATION MATRICES                   TRANSLATORS
   1   1  1.00  0.00  0.00  0.00  1.00  0.00  0.00  0.00  1.00  0.00  0.00  0.00

 DIRECT LATTICE VECTORS CARTESIAN COMPONENTS (ANGSTROM)
          X                    Y                    Z
   0.130113578931E+02  -0.751088897922E+01   0.000000000000E+00
   0.000000000000E+00   0.150239160000E+02   0.000000000000E+00
  -0.174306773528E-04  -0.462267905665E-04   0.819999999985E+01


 CARTESIAN COORDINATES - PRIMITIVE CELL
 *******************************************************************************
 *      ATOM          X(ANGSTROM)         Y(ANGSTROM)         Z(ANGSTROM)
 *******************************************************************************
    1     5 B    -5.026545122936E+00  6.316800833494E+00  2.054776745963E+00
    2     5 B    -3.526719395195E+00 -6.108910301794E+00 -2.045223253963E+00
    3     5 B    -2.957015005759E+00  7.511850400547E+00  2.054776745963E+00
    4     5 B    -1.457189278019E+00 -4.913860734741E+00 -2.045223253963E+00
    5     5 B    -5.026600660085E+00 -6.317642629158E+00  2.044733549963E+00
    6     5 B    -3.526774932345E+00 -3.719437764447E+00 -2.055266367963E+00
    7     5 B     2.956895023003E+00 -7.511642584231E+00  2.054776745963E+00
    8     5 B     4.456720750743E+00 -4.913437719519E+00 -2.045223171963E+00
    9     5 B     5.027105764311E+00  6.316919070655E+00  2.054776745963E+00
   10     5 B    -6.484426401006E+00  1.402096914584E+00 -2.045223253963E+00
   11     5 B     5.026849201682E+00 -6.315954784889E+00  2.044733549963E+00
   12     5 B     6.526674929422E+00 -3.717749920178E+00 -2.055266367963E+00
   13     1 H    -1.261538483758E+00  5.369556260836E+00  2.033955223963E+00
   14     1 H     2.382872439822E-01 -7.056154874452E+00 -2.066044775963E+00
   15     1 H     1.257342137862E+00 -5.367409840615E+00  2.030771245963E+00
   16     1 H     2.757167865603E+00 -2.769204975903E+00 -2.069228753962E+00
   17     1 H    -1.262477895988E+00 -5.369862267108E+00  2.030281213963E+00
   18     1 H     2.373478317521E-01 -2.771657402396E+00 -2.069718785962E+00
   19     1 H     1.258664743174E+00  5.368390306548E+00  2.030403393963E+00
   20     1 H     2.758490470914E+00 -7.057320828741E+00 -2.069596523962E+00
   21     1 H    -4.020092412735E+00  3.777991445159E+00  2.066044939963E+00
   22     1 H    -2.520266684994E+00  6.376196309871E+00 -2.033955059963E+00
   23     1 H     4.019590752177E+00 -3.771098237695E+00  2.069229163962E+00
   24     1 H     5.519416479918E+00 -1.172893372983E+00 -2.030770835963E+00
   25     1 H     5.280915298354E+00 -1.590385355428E+00  2.069719441962E+00
   26     1 H     6.780741026095E+00  1.007819509283E+00 -2.030280557963E+00
   27     1 H    -5.278553427859E+00  1.594962538248E+00  2.069596441962E+00
   28     1 H    -3.778727700118E+00  4.193167402960E+00 -2.030403557963E+00
   29     1 H    -4.019567466345E+00 -3.778588563248E+00  2.033955387963E+00
   30     1 H    -2.519741738604E+00 -1.180383698536E+00 -2.066044611963E+00
   31     1 H     4.020008628629E+00  3.773251050494E+00  2.030771081963E+00
   32     1 H    -7.491523536687E+00 -1.141571105577E+00 -2.069228917962E+00
   33     1 H     5.280532588040E+00  1.591499656783E+00  2.030280803963E+00
   34     1 H    -6.230999577276E+00 -3.323322499289E+00 -2.069719195962E+00
   35     1 H    -5.278830876811E+00 -1.595797388196E+00  2.030403803963E+00
   36     1 H    -3.779005149070E+00  1.002407476515E+00 -2.069596195962E+00
   37     6 C    -1.406658213991E+00  7.511808893520E+00  2.044366107963E+00
   38     6 C     9.316751374965E-02 -4.913902241768E+00 -2.055633891963E+00
   39     6 C    -6.962536655705E-01  6.303081196087E+00  2.034445173963E+00
   40     6 C     8.035720621697E-01 -6.122629939201E+00 -2.065554743963E+00
   41     6 C     6.946476137746E-01 -6.302618762672E+00  2.033588191963E+00
   42     6 C     2.194473341515E+00 -3.704413897960E+00 -2.066411807962E+00
   43     6 C    -6.967350894582E-01 -6.303110269400E+00  2.036160203963E+00
   44     6 C     8.030906382823E-01 -3.704905404688E+00 -2.063839795963E+00
   45     6 C     6.951449164655E-01  6.303131314586E+00  2.029546083963E+00
   46     6 C     2.194970644206E+00 -6.122579820702E+00 -2.070453915962E+00
   47     6 C     1.405689301575E+00 -7.511588288800E+00  2.036282547963E+00
   48     6 C     2.905515029315E+00 -4.913383424089E+00 -2.063717451963E+00
   49     6 C     7.208800810836E+00 -2.536226305300E+00  2.055634219963E+00
   50     6 C    -4.302731354481E+00 -7.451048461372E+00 -2.044365779963E+00
   51     6 C    -5.111153972704E+00  3.755051856702E+00  2.065554825963E+00
   52     6 C    -3.611328244964E+00  6.353256721413E+00 -2.034445173963E+00
   53     6 C     5.110839682730E+00 -3.751607054639E+00  2.066412217962E+00
   54     6 C     6.610665410470E+00 -1.153402189928E+00 -2.033587781963E+00
   55     6 C     5.806803039517E+00 -2.546703234904E+00  2.063840287963E+00
   56     6 C     7.306628767257E+00  5.150162980724E-02 -2.036159711963E+00
   57     6 C    -5.806754187439E+00  2.550048370001E+00  2.070453915962E+00
   58     6 C    -4.306928459698E+00  5.148253234713E+00 -2.029546083963E+00
   59     6 C     5.802123244684E+00 -4.972028876667E+00  2.063717697963E+00
   60     6 C     7.301948972424E+00 -2.373824011955E+00 -2.036282383963E+00
   61     6 C     7.208871746689E+00  2.537400752726E+00  2.044366107963E+00
   62     6 C    -4.302660418628E+00 -2.377421403345E+00 -2.055633891963E+00
   63     6 C    -5.110732728920E+00 -3.756099825105E+00  2.034445419963E+00
   64     6 C    -3.610907001180E+00 -1.157894960393E+00 -2.065554579963E+00
   65     6 C     5.111161133044E+00  3.752786915581E+00  2.033588027963E+00
   66     6 C    -6.400371032272E+00 -1.162035240491E+00 -2.066411971962E+00
   67     6 C     5.806798934722E+00  2.547715882427E+00  2.036159875963E+00
   68     6 C    -5.704733230594E+00 -2.367106273645E+00 -2.063840041963E+00
   69     6 C    -5.806414373927E+00 -2.551151001990E+00  2.029546329963E+00
   70     6 C    -4.306588646187E+00  4.705386272164E-02 -2.070453669962E+00
   71     6 C     5.802540577250E+00  4.973054536708E+00  2.036282547963E+00
   72     6 C    -5.708991588066E+00  5.823238063658E-02 -2.063717451963E+00
   73     8 O     7.295941275042E+00  6.223017340462E-04  2.047428069963E+00
   74     8 O    -4.215590890274E+00 -4.914199854338E+00 -2.052571929963E+00
   75     8 O    -3.647326122516E+00  6.317808446635E+00  2.068616787962E+00
   76     8 O    -2.147500394775E+00 -6.107902688653E+00 -2.031383293963E+00
   77     8 O    -3.647355720461E+00 -6.318111966600E+00  2.036650071963E+00
   78     8 O    -2.147529992720E+00 -3.719907101888E+00 -2.063349927963E+00
   79     8 O     3.647398173603E+00 -6.317435989016E+00  2.047428151963E+00
   80     8 O     5.147223901344E+00 -3.719231124304E+00 -2.052571847963E+00
   81     8 O     3.647651329587E+00  6.318199649898E+00  2.068616787962E+00
   82     8 O     5.147477057328E+00 -6.107511485390E+00 -2.031383211963E+00
   83     8 O    -7.295943190630E+00 -5.583363412392E-04  2.036649989963E+00
   84     8 O    -5.796117462889E+00  2.597646528370E+00 -2.063350009963E+00

 *******************************************************************************
 STARTING BASIS SET HANDLING 
 *******************************************************************************

 Loading internal basis set: SOLDEF2MSVP         

 Please cite in your publication:
 L. Dona', J. G. Brandenburg and B. Civalleri, J. Chem. Phys., 151, 121101 (2019
 )                                                                              
                                                                                
                    

 *******************************************************************************
 LOCAL ATOMIC FUNCTIONS BASIS SET
 *******************************************************************************
   ATOM   X(AU)   Y(AU)   Z(AU)  N. TYPE  EXPONENT  S COEF   P COEF   D/F/G COEF
 *******************************************************************************
   1 B   -9.499  11.937   3.883
                                  1 S  
                                         2.410E+03 1.755E-03 0.000E+00 0.000E+00
                                         3.619E+02 1.344E-02 0.000E+00 0.000E+00
                                         8.231E+01 6.637E-02 0.000E+00 0.000E+00
                                         2.311E+01 2.303E-01 0.000E+00 0.000E+00
                                         7.252E+00 5.150E-01 0.000E+00 0.000E+00
                                  2 S  
                                         2.367E+00 1.000E+00 0.000E+00 0.000E+00
                                  3 S  
                                         5.533E-01 1.000E+00 0.000E+00 0.000E+00
                                  4 S  
                                         1.716E-01 1.000E+00 0.000E+00 0.000E+00
                           5-     7 P  
                                         6.002E+00 0.000E+00-3.555E-02 0.000E+00
                                         1.240E+00 0.000E+00-1.983E-01 0.000E+00
                                         3.367E-01 0.000E+00-5.048E-01 0.000E+00
                           8-    10 P  
                                         1.256E-01 0.000E+00 1.000E+00 0.000E+00
                          11-    15 D  
                                         8.880E-01 0.000E+00 0.000E+00 1.000E+00
   2 B   -6.665 -11.544  -3.865
   3 B   -5.588  14.195   3.883
   4 B   -2.754  -9.286  -3.865
   5 B   -9.499 -11.939   3.864
   6 B   -6.665  -7.029  -3.884
   7 B    5.588 -14.195   3.883
   8 B    8.422  -9.285  -3.865
   9 B    9.500  11.937   3.883
  10 B  -12.254   2.650  -3.865
  11 B    9.499 -11.935   3.864
  12 B   12.334  -7.026  -3.884
  13 H   -2.384  10.147   3.844
                                181 S  
                                         1.874E+01 1.968E-02 0.000E+00 0.000E+00
                                         2.826E+00 1.380E-01 0.000E+00 0.000E+00
                                         6.401E-01 4.783E-01 0.000E+00 0.000E+00
                                182 S  
                                         1.756E-01 1.000E+00 0.000E+00 0.000E+00
  14 H    0.450 -13.334  -3.904
  15 H    2.376 -10.143   3.838
  16 H    5.210  -5.233  -3.910
  17 H   -2.386 -10.148   3.837
  18 H    0.449  -5.238  -3.911
  19 H    2.379  10.145   3.837
  20 H    5.213 -13.336  -3.911
  21 H   -7.597   7.139   3.904
  22 H   -4.763  12.049  -3.844
  23 H    7.596  -7.126   3.910
  24 H   10.430  -2.216  -3.838
  25 H    9.979  -3.005   3.911
  26 H   12.814   1.905  -3.837
  27 H   -9.975   3.014   3.911
  28 H   -7.141   7.924  -3.837
  29 H   -7.596  -7.140   3.844
  30 H   -4.762  -2.231  -3.904
  31 H    7.597   7.130   3.838
  32 H  -14.157  -2.157  -3.910
  33 H    9.979   3.007   3.837
  34 H  -11.775  -6.280  -3.911
  35 H   -9.976  -3.016   3.837
  36 H   -7.141   1.894  -3.911
  37 C   -2.658  14.195   3.863
                                229 S  
                                         3.624E+03 1.634E-03 0.000E+00 0.000E+00
                                         5.440E+02 1.252E-02 0.000E+00 0.000E+00
                                         1.237E+02 6.211E-02 0.000E+00 0.000E+00
                                         3.476E+01 2.182E-01 0.000E+00 0.000E+00
                                         1.093E+01 4.980E-01 0.000E+00 0.000E+00
                                230 S  
                                         3.574E+00 1.000E+00 0.000E+00 0.000E+00
                                231 S  
                                         7.742E-01 1.000E+00 0.000E+00 0.000E+00
                                232 S  
                                         2.330E-01 1.000E+00 0.000E+00 0.000E+00
                         233-   235 P  
                                         9.443E+00 0.000E+00 3.790E-02 0.000E+00
                                         2.002E+00 0.000E+00 2.082E-01 0.000E+00
                                         5.463E-01 0.000E+00 5.047E-01 0.000E+00
                         236-   238 P  
                                         1.820E-01 0.000E+00 1.000E+00 0.000E+00
                         239-   243 D  
                                         8.880E-01 0.000E+00 0.000E+00 1.000E+00
  38 C    0.176  -9.286  -3.885
  39 C   -1.316  11.911   3.845
  40 C    1.519 -11.570  -3.903
  41 C    1.313 -11.910   3.843
  42 C    4.147  -7.000  -3.905
  43 C   -1.317 -11.911   3.848
  44 C    1.518  -7.001  -3.900
  45 C    1.314  11.911   3.835
  46 C    4.148 -11.570  -3.913
  47 C    2.656 -14.195   3.848
  48 C    5.491  -9.285  -3.900
  49 C   13.623  -4.793   3.885
  50 C   -8.131 -14.080  -3.863
  51 C   -9.659   7.096   3.903
  52 C   -6.824  12.006  -3.845
  53 C    9.658  -7.090   3.905
  54 C   12.492  -2.180  -3.843
  55 C   10.973  -4.813   3.900
  56 C   13.808   0.097  -3.848
  57 C  -10.973   4.819   3.913
  58 C   -8.139   9.729  -3.835
  59 C   10.964  -9.396   3.900
  60 C   13.799  -4.486  -3.848
  61 C   13.623   4.795   3.863
  62 C   -8.131  -4.493  -3.885
  63 C   -9.658  -7.098   3.845
  64 C   -6.824  -2.188  -3.903
  65 C    9.659   7.092   3.843
  66 C  -12.095  -2.196  -3.905
  67 C   10.973   4.814   3.848
  68 C  -10.780  -4.473  -3.900
  69 C  -10.973  -4.821   3.835
  70 C   -8.138   0.089  -3.913
  71 C   10.965   9.398   3.848
  72 C  -10.788   0.110  -3.900
  73 O   13.787   0.001   3.869
                                769 S  
                                         6.773E+03 1.727E-03 0.000E+00 0.000E+00
                                         1.017E+03 1.325E-02 0.000E+00 0.000E+00
                                         2.313E+02 6.603E-02 0.000E+00 0.000E+00
                                         6.501E+01 2.353E-01 0.000E+00 0.000E+00
                                         2.050E+01 5.498E-01 0.000E+00 0.000E+00
                                770 S  
                                         6.716E+00 1.000E+00 0.000E+00 0.000E+00
                                771 S  
                                         1.147E+00 1.000E+00 0.000E+00 0.000E+00
                                772 S  
                                         3.342E-01 1.000E+00 0.000E+00 0.000E+00
                         773-   775 P  
                                         1.769E+01 0.000E+00 4.359E-02 0.000E+00
                                         3.854E+00 0.000E+00 2.318E-01 0.000E+00
                                         1.047E+00 0.000E+00 5.146E-01 0.000E+00
                         776-   778 P  
                                         2.759E-01 0.000E+00 1.000E+00 0.000E+00
                         779-   783 D  
                                         8.000E-01 0.000E+00 0.000E+00 1.000E+00
  74 O   -7.966  -9.286  -3.879
  75 O   -6.892  11.939   3.909
  76 O   -4.058 -11.542  -3.839
  77 O   -6.893 -11.940   3.849
  78 O   -4.058  -7.030  -3.899
  79 O    6.893 -11.938   3.869
  80 O    9.727  -7.028  -3.879
  81 O    6.893  11.940   3.909
  82 O    9.727 -11.542  -3.839
  83 O  -13.787  -0.001   3.849
  84 O  -10.953   4.909  -3.899

 *******************************************************************************
 FINISHED BASIS SET HANDLING 
 *******************************************************************************

 INFORMATION **** SET_MPP **** PCRYSTAL CALCULATION
 INFORMATION **** READM2 **** NEW DEFAULT: FOCK/KS MATRIX MIXING SET TO 30 %
 INFORMATION **** READM2 **** NEW DEFAULT: FULL DIRECT SCF MODE
 INFORMATION **** READM2 **** NEW DEFAULT: COULOMB BIPOLAR BUFFER SET TO 32 Mb
 INFORMATION **** READM2 **** NEW DEFAULT: EXCHANGE BIPOLAR BUFFER SET TO 32 Mb

 *******************************************************************************
 NEW DEFAULT: DFT INTEGRATION GRID INCREASED TO XLGRID
 NEW DEFAULT: DIIS ACCELERATOR ACTIVE
 USE KEYWORD NODIIS TO TURN IT OFF
 *******************************************************************************

 WARNING **** RDDFTP **** HSEsol-HJS ACTIVE
 RANGE SEPARATION - OMEGA:   0.110000000000000     
 WARNING **** RDDFTP **** HSEsol-3c has to be combined with sol-def2-mSVP basis set
 *******************************************************************************
 N. OF ATOMS PER CELL        84  COULOMB OVERLAP TOL         (T1) 10**   -6
 NUMBER OF SHELLS           468  COULOMB PENETRATION TOL     (T2) 10**   -6
 NUMBER OF AO               948  EXCHANGE OVERLAP TOL        (T3) 10**   -6
 N. OF ELECTRONS PER CELL   396  EXCHANGE PSEUDO OVP (F(G))  (T4) 10**   -6
 CORE ELECTRONS PER CELL    120  EXCHANGE PSEUDO OVP (P(G))  (T5) 10**  -12
 N. OF SYMMETRY OPERATORS     1  POLE ORDER IN MONO ZONE                  4
 *******************************************************************************
 TYPE OF CALCULATION :  RESTRICTED CLOSED SHELL
 KOHN-SHAM HAMILTONIAN

 (EXCHANGE)[CORRELATION] FUNCTIONAL:(HSEsol GGA)[PBEsol]

 RANGE-SEPARATED HYBRID FUNCTIONAL 
 OMEGA (SHORT-RANGE)[LONG-RANGE]:(    0.1100)[    0.0000]

 HYBRID EXCHANGE - PERCENTAGE OF FOCK EXCHANGE    25.0000

 CAPPA:IS1  2;IS2  2;IS3  8; K PTS MONK NET  20; SYMMOPS:K SPACE   2;G SPACE   1

 *******************************************************************************
 MAX NUMBER OF SCF CYCLES      50  CONVERGENCE ON DELTAP        10**-16
 WEIGHT OF F(I) IN F(I+1)      30% CONVERGENCE ON ENERGY        10**- 6
 SHRINK. FACT.(MONKH.)    2  2  8  NUMBER OF K POINTS IN THE IBZ     20
 SHRINKING FACTOR(GILAT NET)    8  NUMBER OF K POINTS(GILAT NET)   1028
 *******************************************************************************
 *** K POINTS COORDINATES (OBLIQUE COORDINATES IN UNITS OF IS =  2)
   1-R(  0  0  0)   2-R(  1  0  0)   3-R(  0  1  0)   4-R(  1  1  0)
   5-C(  0  0  1)   6-C(  1  0  1)   7-C(  0  1  1)   8-C(  1  1  1)
   9-C(  0  0  2)  10-C(  1  0  2)  11-C(  0  1  2)  12-C(  1  1  2)
  13-C(  0  0  3)  14-C(  1  0  3)  15-C(  0  1  3)  16-C(  1  1  3)
  17-R(  0  0  4)  18-R(  1  0  4)  19-R(  0  1  4)  20-R(  1  1  4)

 DIRECT LATTICE VECTORS COMPON. (A.U.)     RECIP. LATTICE VECTORS COMPON. (A.U.) 
        X            Y            Z              X            Y            Z
   24.5879030  -14.1935232    0.0000000      0.2555397    0.0000000    0.0000005
    0.0000000   28.3910867    0.0000000      0.1277517    0.2213084    0.0000015
   -0.0000329   -0.0000874   15.4957543      0.0000000    0.0000000    0.4054779

 DISK SPACE FOR EIGENVECTORS (FTN 10)    28758528 REALS

 SYMMETRY ADAPTION OF THE BLOCH FUNCTIONS DISABLED
 TTTTTTTTTTTTTTTTTTTTTTTTTTTTTT gordsh1     TELAPSE        0.05 TCPU        0.05

 MATRIX SIZE: P(G)  626770, F(G)  129011, P(G) IRR  315287, F(G) IRR  129971
 MAX G-VECTOR INDEX FOR 1- AND 2-ELECTRON INTEGRALS  43

 TTTTTTTTTTTTTTTTTTTTTTTTTTTTTT INPUT       TELAPSE        2.53 TCPU        2.52

 NEIGHBORS OF THE NON-EQUIVALENT ATOMS

 N = NUMBER OF NEIGHBORS AT DISTANCE R
    ATOM  N     R/ANG      R/AU   NEIGHBORS (ATOM LABELS AND CELL INDICES)
   1 B    1     1.3791     2.6061   73 O   -1 0 0
   1 B    1     1.3793     2.6065   75 O    0 0 0
   1 B    1     1.5503     2.9297   49 C   -1 0 0
   1 B    1     2.3895     4.5155    5 B    0 1 0
   1 B    1     2.3898     4.5160    3 B    0 0 0
   1 B    1     2.5632     4.8437   51 C    0 0 0

   2 B    1     1.3791     2.6061   74 O    0 0 0
   2 B    1     1.3793     2.6065   76 O    0 0 0
   2 B    1     1.5503     2.9297   50 C    0 0 0
   2 B    1     2.3895     4.5155    6 B    0 0 0
   2 B    1     2.3898     4.5160    4 B    0 0 0
   2 B    1     2.5632     4.8437   52 C    0-1 0

   3 B    1     1.3793     2.6065   77 O    0 1 0
   3 B    1     1.3793     2.6065   75 O    0 0 0
   3 B    1     1.5504     2.9298   37 C    0 0 0
   3 B    1     2.3895     4.5156    5 B    0 1 0
   3 B    1     2.3898     4.5160    1 B    0 0 0
   3 B    1     2.5634     4.8440   43 C    0 1 0

   4 B    1     1.3793     2.6065   78 O    0 0 0
   4 B    1     1.3793     2.6065   76 O    0 0 0
   4 B    1     1.5504     2.9298   38 C    0 0 0
   4 B    1     2.3895     4.5156    6 B    0 0 0
   4 B    1     2.3898     4.5160    2 B    0 0 0
   4 B    1     2.5634     4.8440   44 C    0 0 0

   5 B    1     1.3791     2.6061   73 O   -1-1 0
   5 B    1     1.3793     2.6064   77 O    0 0 0
   5 B    1     1.5502     2.9294   61 C   -1-1 0
   5 B    1     2.3895     4.5155    1 B    0-1 0
   5 B    1     2.3895     4.5156    3 B    0-1 0
   5 B    1     2.5629     4.8433   63 C    0 0 0

   6 B    1     1.3791     2.6061   74 O    0 0 0
   6 B    1     1.3793     2.6064   78 O    0 0 0
   6 B    1     1.5502     2.9294   62 C    0 0 0
   6 B    1     2.3895     4.5155    2 B    0 0 0
   6 B    1     2.3895     4.5156    4 B    0 0 0
   6 B    1     2.5629     4.8433   64 C    0 0 0

   7 B    1     1.3795     2.6068   79 O    0 0 0
   7 B    1     1.3795     2.6070   81 O    0-1 0
   7 B    1     1.5513     2.9316   47 C    0 0 0
   7 B    1     2.3905     4.5174   11 B    0 0 0
   7 B    1     2.3905     4.5175    9 B    0-1 0
   7 B    1     2.5648     4.8468   45 C    0-1 0

   8 B    1     1.3795     2.6068   80 O    0 0 0
   8 B    1     1.3795     2.6070   82 O    0 0 0
   8 B    1     1.5513     2.9316   48 C    0 0 0
   8 B    1     2.3905     4.5174   12 B    0 0 0
   8 B    1     2.3905     4.5175   10 B    1 0 0
   8 B    1     2.5648     4.8468   46 C    0 0 0

   9 B    1     1.3795     2.6069   81 O    0 0 0
   9 B    1     1.3797     2.6072   83 O    1 1 0
   9 B    1     1.5516     2.9322   71 C    0 0 0
   9 B    1     2.3905     4.5175    7 B    0 1 0
   9 B    1     2.3911     4.5185   11 B    0 1 0
   9 B    1     2.5651     4.8473   69 C    1 1 0

  10 B    1     1.3795     2.6069   82 O   -1 0 0
  10 B    1     1.3797     2.6072   84 O    0 0 0
  10 B    1     1.5516     2.9322   72 C    0 0 0
  10 B    1     2.3905     4.5175    8 B   -1 0 0
  10 B    1     2.3911     4.5185   12 B   -1 0 0
  10 B    1     2.5651     4.8473   70 C    0 0 0

  11 B    1     1.3795     2.6068   79 O    0 0 0
  11 B    1     1.3796     2.6071   83 O    1 0 0
  11 B    1     1.5516     2.9322   59 C    0 0 0
  11 B    1     2.3905     4.5174    7 B    0 0 0
  11 B    1     2.3911     4.5185    9 B    0-1 0
  11 B    1     2.5651     4.8473   57 C    1 0 0

  12 B    1     1.3795     2.6068   80 O    0 0 0
  12 B    1     1.3796     2.6071   84 O    1 0 0
  12 B    1     1.5516     2.9322   60 C    0 0 0
  12 B    1     2.3905     4.5174    8 B    0 0 0
  12 B    1     2.3911     4.5185   10 B    1 0 0
  12 B    1     2.5651     4.8473   58 C    1 0 0

  13 H    1     1.0913     2.0623   39 C    0 0 0
  13 H    1     2.1472     4.0576   37 C    0 0 0
  13 H    1     2.1680     4.0969   45 C    0 0 0
  13 H    1     2.5202     4.7625   19 H    0 0 0
  13 H    1     2.5676     4.8520   75 O    0 0 0
  13 H    1     2.7321     5.1630    3 B    0 0 0

  14 H    1     1.0913     2.0623   40 C    0 0 0
  14 H    1     2.1472     4.0576   38 C    0 0 0
  14 H    1     2.1680     4.0969   46 C    0 0 0
  14 H    1     2.5202     4.7625   20 H    0 0 0
  14 H    1     2.5676     4.8520   76 O    0 0 0
  14 H    1     2.7321     5.1630    4 B    0 0 0

  15 H    1     1.0914     2.0625   41 C    0 0 0
  15 H    1     2.1493     4.0616   47 C    0 0 0
  15 H    1     2.1666     4.0942   43 C    0 0 0
  15 H    1     2.5198     4.7618   17 H    0 0 0
  15 H    1     2.5720     4.8604   79 O    0 0 0
  15 H    1     2.7362     5.1707    7 B    0 0 0

  16 H    1     1.0914     2.0625   42 C    0 0 0
  16 H    1     2.1493     4.0616   48 C    0 0 0
  16 H    1     2.1666     4.0942   44 C    0 0 0
  16 H    1     2.5198     4.7618   18 H    0 0 0
  16 H    1     2.5720     4.8604   80 O    0 0 0
  16 H    1     2.7362     5.1707    8 B    0 0 0

  17 H    1     1.0914     2.0624   43 C    0 0 0
  17 H    1     2.1471     4.0575   37 C    0-1 0
  17 H    1     2.1680     4.0970   41 C    0 0 0
  17 H    1     2.5198     4.7618   15 H    0 0 0
  17 H    1     2.5665     4.8500   77 O    0 0 0
  17 H    1     2.7315     5.1618    3 B    0-1 0

  18 H    1     1.0914     2.0624   44 C    0 0 0
  18 H    1     2.1471     4.0575   38 C    0 0 0
  18 H    1     2.1680     4.0970   42 C    0 0 0
  18 H    1     2.5198     4.7618   16 H    0 0 0
  18 H    1     2.5665     4.8500   78 O    0 0 0
  18 H    1     2.7315     5.1618    4 B    0 0 0

  19 H    1     1.0915     2.0626   45 C    0 0 0
  19 H    1     2.1490     4.0610   47 C    0 1 0
  19 H    1     2.1669     4.0948   39 C    0 0 0
  19 H    1     2.5202     4.7625   13 H    0 0 0
  19 H    1     2.5712     4.8588   81 O    0 0 0
  19 H    1     2.7351     5.1686    7 B    0 1 0

  20 H    1     1.0915     2.0626   46 C    0 0 0
  20 H    1     2.1490     4.0610   48 C    0 0 0
  20 H    1     2.1669     4.0948   40 C    0 0 0
  20 H    1     2.5202     4.7625   14 H    0 0 0
  20 H    1     2.5712     4.8588   82 O    0 0 0
  20 H    1     2.7351     5.1686    8 B    0 0 0

  21 H    1     1.0913     2.0623   51 C    0 0 0
  21 H    1     2.1469     4.0571   49 C   -1 0 0
  21 H    1     2.1680     4.0968   57 C    0 0 0
  21 H    1     2.5198     4.7617   27 H    0 0 0
  21 H    1     2.5670     4.8510   75 O    0 0 0
  21 H    1     2.7310     5.1609    1 B    0 0 0

  22 H    1     1.0913     2.0623   52 C    0 0 0
  22 H    1     2.1469     4.0571   50 C    0 1 0
  22 H    1     2.1680     4.0968   58 C    0 0 0
  22 H    1     2.5198     4.7617   28 H    0 0 0
  22 H    1     2.5670     4.8510   76 O    0 1 0
  22 H    1     2.7310     5.1609    2 B    0 1 0

  23 H    1     1.0914     2.0625   53 C    0 0 0
  23 H    1     2.1493     4.0617   59 C    0 0 0
  23 H    1     2.1664     4.0939   55 C    0 0 0
  23 H    1     2.5192     4.7606   25 H    0 0 0
  23 H    1     2.5735     4.8632   79 O    0 0 0
  23 H    1     2.7371     5.1723   11 B    0 0 0

  24 H    1     1.0914     2.0625   54 C    0 0 0
  24 H    1     2.1493     4.0617   60 C    0 0 0
  24 H    1     2.1664     4.0939   56 C    0 0 0
  24 H    1     2.5192     4.7606   26 H    0 0 0
  24 H    1     2.5735     4.8632   80 O    0 0 0
  24 H    1     2.7371     5.1723   12 B    0 0 0

  25 H    1     1.0914     2.0624   55 C    0 0 0
  25 H    1     2.1475     4.0581   49 C    0 0 0
  25 H    1     2.1679     4.0967   53 C    0 0 0
  25 H    1     2.5192     4.7606   23 H    0 0 0
  25 H    1     2.5675     4.8519   73 O    0 0 0
  25 H    1     2.7328     5.1643    1 B    1 0 0

  26 H    1     1.0914     2.0624   56 C    0 0 0
  26 H    1     2.1475     4.0581   50 C    1 1 0
  26 H    1     2.1679     4.0967   54 C    0 0 0
  26 H    1     2.5192     4.7606   24 H    0 0 0
  26 H    1     2.5675     4.8519   74 O    1 1 0
  26 H    1     2.7328     5.1643    2 B    1 1 0

  27 H    1     1.0914     2.0625   57 C    0 0 0
  27 H    1     2.1491     4.0612   59 C   -1 0 0
  27 H    1     2.1666     4.0942   51 C    0 0 0
  27 H    1     2.5198     4.7617   21 H    0 0 0
  27 H    1     2.5723     4.8609   83 O    0 0 0
  27 H    1     2.7355     5.1693   11 B   -1 0 0

  28 H    1     1.0914     2.0625   58 C    0 0 0
  28 H    1     2.1491     4.0612   60 C   -1 0 0
  28 H    1     2.1666     4.0942   52 C    0 0 0
  28 H    1     2.5198     4.7617   22 H    0 0 0
  28 H    1     2.5723     4.8609   84 O    0 0 0
  28 H    1     2.7355     5.1693   12 B   -1 0 0

  29 H    1     1.0914     2.0624   63 C    0 0 0
  29 H    1     2.1475     4.0582   61 C   -1-1 0
  29 H    1     2.1678     4.0966   69 C    0 0 0
  29 H    1     2.5200     4.7621   35 H    0 0 0
  29 H    1     2.5667     4.8503   77 O    0 0 0
  29 H    1     2.7315     5.1618    5 B    0 0 0

  30 H    1     1.0914     2.0624   64 C    0 0 0
  30 H    1     2.1475     4.0582   62 C    0 0 0
  30 H    1     2.1678     4.0966   70 C    0 0 0
  30 H    1     2.5200     4.7621   36 H    0 0 0
  30 H    1     2.5667     4.8503   78 O    0 0 0
  30 H    1     2.7315     5.1618    6 B    0 0 0

  31 H    1     1.0913     2.0623   65 C    0 0 0
  31 H    1     2.1487     4.0605   71 C    0 0 0
  31 H    1     2.1667     4.0945   67 C    0 0 0
  31 H    1     2.5197     4.7616   33 H    0 0 0
  31 H    1     2.5723     4.8610   81 O    0 0 0
  31 H    1     2.7359     5.1701    9 B    0 0 0

  32 H    1     1.0913     2.0623   66 C    0 0 0
  32 H    1     2.1487     4.0605   72 C    0 0 0
  32 H    1     2.1667     4.0945   68 C    0 0 0
  32 H    1     2.5197     4.7616   34 H    0 0 0
  32 H    1     2.5723     4.8610   82 O   -1 0 0
  32 H    1     2.7359     5.1701   10 B    0 0 0

  33 H    1     1.0915     2.0626   67 C    0 0 0
  33 H    1     2.1479     4.0589   61 C    0 0 0
  33 H    1     2.1679     4.0968   65 C    0 0 0
  33 H    1     2.5197     4.7616   31 H    0 0 0
  33 H    1     2.5677     4.8522   73 O    0 0 0
  33 H    1     2.7331     5.1648    5 B    1 1 0

  34 H    1     1.0915     2.0626   68 C    0 0 0
  34 H    1     2.1479     4.0589   62 C    0 0 0
  34 H    1     2.1679     4.0968   66 C    0 0 0
  34 H    1     2.5197     4.7616   32 H    0 0 0
  34 H    1     2.5677     4.8522   74 O    0 0 0
  34 H    1     2.7331     5.1648    6 B    0 0 0

  35 H    1     1.0914     2.0624   69 C    0 0 0
  35 H    1     2.1486     4.0602   71 C   -1-1 0
  35 H    1     2.1668     4.0947   63 C    0 0 0
  35 H    1     2.5200     4.7621   29 H    0 0 0
  35 H    1     2.5717     4.8598   83 O    0 0 0
  35 H    1     2.7349     5.1682    9 B   -1-1 0

  36 H    1     1.0914     2.0624   70 C    0 0 0
  36 H    1     2.1486     4.0602   72 C    0 0 0
  36 H    1     2.1668     4.0947   64 C    0 0 0
  36 H    1     2.5200     4.7621   30 H    0 0 0
  36 H    1     2.5717     4.8598   84 O    0 0 0
  36 H    1     2.7349     5.1682   10 B    0 0 0

  37 C    1     1.4020     2.6495   43 C    0 1 0
  37 C    1     1.4021     2.6495   39 C    0 0 0
  37 C    1     1.5504     2.9298    3 B    0 0 0
  37 C    1     2.1471     4.0575   17 H    0 1 0
  37 C    1     2.1472     4.0576   13 H    0 0 0
  37 C    1     2.4246     4.5817   41 C    0 1 0

  38 C    1     1.4020     2.6495   44 C    0 0 0
  38 C    1     1.4021     2.6495   40 C    0 0 0
  38 C    1     1.5504     2.9298    4 B    0 0 0
  38 C    1     2.1471     4.0575   18 H    0 0 0
  38 C    1     2.1472     4.0576   14 H    0 0 0
  38 C    1     2.4246     4.5817   42 C    0 0 0

  39 C    1     1.0913     2.0623   13 H    0 0 0
  39 C    1     1.3914     2.6294   45 C    0 0 0
  39 C    1     1.4021     2.6495   37 C    0 0 0
  39 C    1     2.1669     4.0948   19 H    0 0 0
  39 C    1     2.4177     4.5688   43 C    0 1 0
  39 C    1     2.4250     4.5825   47 C    0 1 0

  40 C    1     1.0913     2.0623   14 H    0 0 0
  40 C    1     1.3914     2.6294   46 C    0 0 0
  40 C    1     1.4021     2.6495   38 C    0 0 0
  40 C    1     2.1669     4.0948   20 H    0 0 0
  40 C    1     2.4177     4.5688   44 C    0 0 0
  40 C    1     2.4250     4.5825   48 C    0 0 0

  41 C    1     1.0914     2.0625   15 H    0 0 0
  41 C    1     1.3914     2.6293   43 C    0 0 0
  41 C    1     1.4026     2.6505   47 C    0 0 0
  41 C    1     2.1680     4.0970   17 H    0 0 0
  41 C    1     2.4182     4.5697   45 C    0-1 0
  41 C    1     2.4246     4.5817   37 C    0-1 0

  42 C    1     1.0914     2.0625   16 H    0 0 0
  42 C    1     1.3914     2.6293   44 C    0 0 0
  42 C    1     1.4026     2.6505   48 C    0 0 0
  42 C    1     2.1680     4.0970   18 H    0 0 0
  42 C    1     2.4182     4.5697   46 C    0 0 0
  42 C    1     2.4246     4.5817   38 C    0 0 0

  43 C    1     1.0914     2.0624   17 H    0 0 0
  43 C    1     1.3914     2.6293   41 C    0 0 0
  43 C    1     1.4020     2.6495   37 C    0-1 0
  43 C    1     2.1666     4.0942   15 H    0 0 0
  43 C    1     2.4177     4.5688   39 C    0-1 0
  43 C    1     2.4250     4.5826   47 C    0 0 0

  44 C    1     1.0914     2.0624   18 H    0 0 0
  44 C    1     1.3914     2.6293   42 C    0 0 0
  44 C    1     1.4020     2.6495   38 C    0 0 0
  44 C    1     2.1666     4.0942   16 H    0 0 0
  44 C    1     2.4177     4.5688   40 C    0 0 0
  44 C    1     2.4250     4.5826   48 C    0 0 0

  45 C    1     1.0915     2.0626   19 H    0 0 0
  45 C    1     1.3914     2.6294   39 C    0 0 0
  45 C    1     1.4025     2.6504   47 C    0 1 0
  45 C    1     2.1680     4.0969   13 H    0 0 0
  45 C    1     2.4182     4.5697   41 C    0 1 0
  45 C    1     2.4246     4.5818   37 C    0 0 0

  46 C    1     1.0915     2.0626   20 H    0 0 0
  46 C    1     1.3914     2.6294   40 C    0 0 0
  46 C    1     1.4025     2.6504   48 C    0 0 0
  46 C    1     2.1680     4.0969   14 H    0 0 0
  46 C    1     2.4182     4.5697   42 C    0 0 0
  46 C    1     2.4246     4.5818   38 C    0 0 0

  47 C    1     1.4025     2.6504   45 C    0-1 0
  47 C    1     1.4026     2.6505   41 C    0 0 0
  47 C    1     1.5513     2.9316    7 B    0 0 0
  47 C    1     2.1490     4.0610   19 H    0-1 0
  47 C    1     2.1493     4.0616   15 H    0 0 0
  47 C    1     2.4250     4.5825   39 C    0-1 0

  48 C    1     1.4025     2.6504   46 C    0 0 0
  48 C    1     1.4026     2.6505   42 C    0 0 0
  48 C    1     1.5513     2.9316    8 B    0 0 0
  48 C    1     2.1490     4.0610   20 H    0 0 0
  48 C    1     2.1493     4.0616   16 H    0 0 0
  48 C    1     2.4250     4.5825   40 C    0 0 0

  49 C    1     1.4020     2.6494   51 C    1 0 0
  49 C    1     1.4021     2.6495   55 C    0 0 0
  49 C    1     1.5503     2.9297    1 B    1 0 0
  49 C    1     2.1469     4.0571   21 H    1 0 0
  49 C    1     2.1475     4.0581   25 H    0 0 0
  49 C    1     2.4246     4.5818   53 C    0 0 0

  50 C    1     1.4020     2.6494   52 C    0-1 0
  50 C    1     1.4021     2.6495   56 C   -1-1 0
  50 C    1     1.5503     2.9297    2 B    0 0 0
  50 C    1     2.1469     4.0571   22 H    0-1 0
  50 C    1     2.1475     4.0581   26 H   -1-1 0
  50 C    1     2.4246     4.5818   54 C   -1-1 0

  51 C    1     1.0913     2.0623   21 H    0 0 0
  51 C    1     1.3914     2.6293   57 C    0 0 0
  51 C    1     1.4020     2.6494   49 C   -1 0 0
  51 C    1     2.1666     4.0942   27 H    0 0 0
  51 C    1     2.4175     4.5684   55 C   -1 0 0
  51 C    1     2.4251     4.5828   59 C   -1 0 0

  52 C    1     1.0913     2.0623   22 H    0 0 0
  52 C    1     1.3914     2.6293   58 C    0 0 0
  52 C    1     1.4020     2.6494   50 C    0 1 0
  52 C    1     2.1666     4.0942   28 H    0 0 0
  52 C    1     2.4175     4.5684   56 C   -1 0 0
  52 C    1     2.4251     4.5828   60 C   -1 0 0

  53 C    1     1.0914     2.0625   23 H    0 0 0
  53 C    1     1.3915     2.6295   55 C    0 0 0
  53 C    1     1.4026     2.6505   59 C    0 0 0
  53 C    1     2.1679     4.0967   25 H    0 0 0
  53 C    1     2.4179     4.5691   57 C    1 0 0
  53 C    1     2.4246     4.5818   49 C    0 0 0

  54 C    1     1.0914     2.0625   24 H    0 0 0
  54 C    1     1.3915     2.6295   56 C    0 0 0
  54 C    1     1.4026     2.6505   60 C    0 0 0
  54 C    1     2.1679     4.0967   26 H    0 0 0
  54 C    1     2.4179     4.5691   58 C    1 0 0
  54 C    1     2.4246     4.5818   50 C    1 1 0

  55 C    1     1.0914     2.0624   25 H    0 0 0
  55 C    1     1.3915     2.6295   53 C    0 0 0
  55 C    1     1.4021     2.6495   49 C    0 0 0
  55 C    1     2.1664     4.0939   23 H    0 0 0
  55 C    1     2.4175     4.5684   51 C    1 0 0
  55 C    1     2.4253     4.5832   59 C    0 0 0

  56 C    1     1.0914     2.0624   26 H    0 0 0
  56 C    1     1.3915     2.6295   54 C    0 0 0
  56 C    1     1.4021     2.6495   50 C    1 1 0
  56 C    1     2.1664     4.0939   24 H    0 0 0
  56 C    1     2.4175     4.5684   52 C    1 0 0
  56 C    1     2.4253     4.5832   60 C    0 0 0

  57 C    1     1.0914     2.0625   27 H    0 0 0
  57 C    1     1.3914     2.6293   51 C    0 0 0
  57 C    1     1.4025     2.6504   59 C   -1 0 0
  57 C    1     2.1680     4.0968   21 H    0 0 0
  57 C    1     2.4179     4.5691   53 C   -1 0 0
  57 C    1     2.4247     4.5819   49 C   -1 0 0

  58 C    1     1.0914     2.0625   28 H    0 0 0
  58 C    1     1.3914     2.6293   52 C    0 0 0
  58 C    1     1.4025     2.6504   60 C   -1 0 0
  58 C    1     2.1680     4.0968   22 H    0 0 0
  58 C    1     2.4179     4.5691   54 C   -1 0 0
  58 C    1     2.4247     4.5819   50 C    0 1 0

  59 C    1     1.4025     2.6504   57 C    1 0 0
  59 C    1     1.4026     2.6505   53 C    0 0 0
  59 C    1     1.5516     2.9322   11 B    0 0 0
  59 C    1     2.1491     4.0612   27 H    1 0 0
  59 C    1     2.1493     4.0617   23 H    0 0 0
  59 C    1     2.4251     4.5828   51 C    1 0 0

  60 C    1     1.4025     2.6504   58 C    1 0 0
  60 C    1     1.4026     2.6505   54 C    0 0 0
  60 C    1     1.5516     2.9322   12 B    0 0 0
  60 C    1     2.1491     4.0612   28 H    1 0 0
  60 C    1     2.1493     4.0617   24 H    0 0 0
  60 C    1     2.4251     4.5828   52 C    1 0 0

  61 C    1     1.4021     2.6496   63 C    1 1 0
  61 C    1     1.4021     2.6497   67 C    0 0 0
  61 C    1     1.5502     2.9294    5 B    1 1 0
  61 C    1     2.1475     4.0582   29 H    1 1 0
  61 C    1     2.1479     4.0589   33 H    0 0 0
  61 C    1     2.4244     4.5814   65 C    0 0 0

  62 C    1     1.4021     2.6496   64 C    0 0 0
  62 C    1     1.4021     2.6497   68 C    0 0 0
  62 C    1     1.5502     2.9294    6 B    0 0 0
  62 C    1     2.1475     4.0582   30 H    0 0 0
  62 C    1     2.1479     4.0589   34 H    0 0 0
  62 C    1     2.4244     4.5814   66 C    0 0 0

  63 C    1     1.0914     2.0624   29 H    0 0 0
  63 C    1     1.3914     2.6293   69 C    0 0 0
  63 C    1     1.4021     2.6496   61 C   -1-1 0
  63 C    1     2.1668     4.0947   35 H    0 0 0
  63 C    1     2.4179     4.5692   67 C   -1-1 0
  63 C    1     2.4251     4.5827   71 C   -1-1 0

  64 C    1     1.0914     2.0624   30 H    0 0 0
  64 C    1     1.3914     2.6293   70 C    0 0 0
  64 C    1     1.4021     2.6496   62 C    0 0 0
  64 C    1     2.1668     4.0947   36 H    0 0 0
  64 C    1     2.4179     4.5692   68 C    0 0 0
  64 C    1     2.4251     4.5827   72 C    0 0 0

  65 C    1     1.0913     2.0623   31 H    0 0 0
  65 C    1     1.3914     2.6294   67 C    0 0 0
  65 C    1     1.4025     2.6504   71 C    0 0 0
  65 C    1     2.1679     4.0968   33 H    0 0 0
  65 C    1     2.4178     4.5690   69 C    1 1 0
  65 C    1     2.4244     4.5814   61 C    0 0 0

  66 C    1     1.0913     2.0623   32 H    0 0 0
  66 C    1     1.3914     2.6294   68 C    0 0 0
  66 C    1     1.4025     2.6504   72 C    0 0 0
  66 C    1     2.1679     4.0968   34 H    0 0 0
  66 C    1     2.4178     4.5690   70 C    0 0 0
  66 C    1     2.4244     4.5814   62 C    0 0 0

  67 C    1     1.0915     2.0626   33 H    0 0 0
  67 C    1     1.3914     2.6294   65 C    0 0 0
  67 C    1     1.4021     2.6497   61 C    0 0 0
  67 C    1     2.1667     4.0945   31 H    0 0 0
  67 C    1     2.4179     4.5692   63 C    1 1 0
  67 C    1     2.4253     4.5832   71 C    0 0 0

  68 C    1     1.0915     2.0626   34 H    0 0 0
  68 C    1     1.3914     2.6294   66 C    0 0 0
  68 C    1     1.4021     2.6497   62 C    0 0 0
  68 C    1     2.1667     4.0945   32 H    0 0 0
  68 C    1     2.4179     4.5692   64 C    0 0 0
  68 C    1     2.4253     4.5832   72 C    0 0 0

  69 C    1     1.0914     2.0624   35 H    0 0 0
  69 C    1     1.3914     2.6293   63 C    0 0 0
  69 C    1     1.4025     2.6503   71 C   -1-1 0
  69 C    1     2.1678     4.0966   29 H    0 0 0
  69 C    1     2.4178     4.5690   65 C   -1-1 0
  69 C    1     2.4245     4.5817   61 C   -1-1 0

  70 C    1     1.0914     2.0624   36 H    0 0 0
  70 C    1     1.3914     2.6293   64 C    0 0 0
  70 C    1     1.4025     2.6503   72 C    0 0 0
  70 C    1     2.1678     4.0966   30 H    0 0 0
  70 C    1     2.4178     4.5690   66 C    0 0 0
  70 C    1     2.4245     4.5817   62 C    0 0 0

  71 C    1     1.4025     2.6503   69 C    1 1 0
  71 C    1     1.4025     2.6504   65 C    0 0 0
  71 C    1     1.5516     2.9322    9 B    0 0 0
  71 C    1     2.1486     4.0602   35 H    1 1 0
  71 C    1     2.1487     4.0605   31 H    0 0 0
  71 C    1     2.4251     4.5827   63 C    1 1 0

  72 C    1     1.4025     2.6503   70 C    0 0 0
  72 C    1     1.4025     2.6504   66 C    0 0 0
  72 C    1     1.5516     2.9322   10 B    0 0 0
  72 C    1     2.1486     4.0602   36 H    0 0 0
  72 C    1     2.1487     4.0605   32 H    0 0 0
  72 C    1     2.4251     4.5827   64 C    0 0 0

  73 O    1     1.3791     2.6061    1 B    1 0 0
  73 O    1     1.3791     2.6061    5 B    1 1 0
  73 O    1     2.3880     4.5126   75 O    1 0 0
  73 O    1     2.3882     4.5130   77 O    1 1 0
  73 O    1     2.5383     4.7966   61 C    0 0 0
  73 O    1     2.5384     4.7968   49 C    0 0 0

  74 O    1     1.3791     2.6061    2 B    0 0 0
  74 O    1     1.3791     2.6061    6 B    0 0 0
  74 O    1     2.3880     4.5126   76 O    0 0 0
  74 O    1     2.3882     4.5130   78 O    0 0 0
  74 O    1     2.5383     4.7966   62 C    0 0 0
  74 O    1     2.5384     4.7968   50 C    0 0 0

  75 O    1     1.3793     2.6065    1 B    0 0 0
  75 O    1     1.3793     2.6065    3 B    0 0 0
  75 O    1     2.3880     4.5126   73 O   -1 0 0
  75 O    1     2.3882     4.5131   77 O    0 1 0
  75 O    1     2.5391     4.7981   37 C    0 0 0
  75 O    1     2.5395     4.7990   49 C   -1 0 0

  76 O    1     1.3793     2.6065    2 B    0 0 0
  76 O    1     1.3793     2.6065    4 B    0 0 0
  76 O    1     2.3880     4.5126   74 O    0 0 0
  76 O    1     2.3882     4.5131   78 O    0 0 0
  76 O    1     2.5391     4.7981   38 C    0 0 0
  76 O    1     2.5395     4.7990   50 C    0 0 0

  77 O    1     1.3793     2.6064    5 B    0 0 0
  77 O    1     1.3793     2.6065    3 B    0-1 0
  77 O    1     2.3882     4.5130   73 O   -1-1 0
  77 O    1     2.3882     4.5131   75 O    0-1 0
  77 O    1     2.5390     4.7980   37 C    0-1 0
  77 O    1     2.5391     4.7982   61 C   -1-1 0

  78 O    1     1.3793     2.6064    6 B    0 0 0
  78 O    1     1.3793     2.6065    4 B    0 0 0
  78 O    1     2.3882     4.5130   74 O    0 0 0
  78 O    1     2.3882     4.5131   76 O    0 0 0
  78 O    1     2.5390     4.7980   38 C    0 0 0
  78 O    1     2.5391     4.7982   62 C    0 0 0

  79 O    1     1.3795     2.6068   11 B    0 0 0
  79 O    1     1.3795     2.6068    7 B    0 0 0
  79 O    1     2.3880     4.5126   83 O    1 0 0
  79 O    1     2.3884     4.5134   81 O    0-1 0
  79 O    1     2.5400     4.7998   47 C    0 0 0
  79 O    1     2.5403     4.8005   59 C    0 0 0

  80 O    1     1.3795     2.6068   12 B    0 0 0
  80 O    1     1.3795     2.6068    8 B    0 0 0
  80 O    1     2.3880     4.5126   84 O    1 0 0
  80 O    1     2.3884     4.5134   82 O    0 0 0
  80 O    1     2.5400     4.7998   48 C    0 0 0
  80 O    1     2.5403     4.8005   60 C    0 0 0

  81 O    1     1.3795     2.6069    9 B    0 0 0
  81 O    1     1.3795     2.6070    7 B    0 1 0
  81 O    1     2.3881     4.5128   83 O    1 1 0
  81 O    1     2.3884     4.5134   79 O    0 1 0
  81 O    1     2.5404     4.8006   47 C    0 1 0
  81 O    1     2.5405     4.8008   71 C    0 0 0

  82 O    1     1.3795     2.6069   10 B    1 0 0
  82 O    1     1.3795     2.6070    8 B    0 0 0
  82 O    1     2.3881     4.5128   84 O    1 0 0
  82 O    1     2.3884     4.5134   80 O    0 0 0
  82 O    1     2.5404     4.8006   48 C    0 0 0
  82 O    1     2.5405     4.8008   72 C    1 0 0

  83 O    1     1.3796     2.6071   11 B   -1 0 0
  83 O    1     1.3797     2.6072    9 B   -1-1 0
  83 O    1     2.3880     4.5126   79 O   -1 0 0
  83 O    1     2.3881     4.5128   81 O   -1-1 0
  83 O    1     2.5409     4.8016   71 C   -1-1 0
  83 O    1     2.5410     4.8019   59 C   -1 0 0

  84 O    1     1.3796     2.6071   12 B   -1 0 0
  84 O    1     1.3797     2.6072   10 B    0 0 0
  84 O    1     2.3880     4.5126   80 O   -1 0 0
  84 O    1     2.3881     4.5128   82 O   -1 0 0
  84 O    1     2.5409     4.8016   72 C    0 0 0
  84 O    1     2.5410     4.8019   60 C   -1 0 0


 SYMMETRY ALLOWED INTERNAL DEGREE(S) OF FREEDOM: 249
 TTTTTTTTTTTTTTTTTTTTTTTTTTTTTT SYMM        TELAPSE        2.53 TCPU        2.53
 TTTTTTTTTTTTTTTTTTTTTTTTTTTTTT INT_SCREEN  TELAPSE        2.73 TCPU        2.73

 DFT PARAMETERS

     ATOM       ELECTRONS   NET CHARGE   R(ANGSTROM)
   1   5  B       5.0000      0.0000     0.89000000
  13   1  H       1.0000      0.0000     1.11000000
  37   6  C       6.0000      0.0000     0.77000000
  73   8  O       8.0000      0.0000     0.74000000

 SIZE OF GRID=    2639793
 TTTTTTTTTTTTTTTTTTTTTTTTTTTTTT MAKE_GRID2  TELAPSE       21.20 TCPU       21.17
 BECKE WEIGHT FUNCTION
 RADSAFE =     2.00
 TOLERANCES - DENSITY:10**- 6; POTENTIAL:10**- 9; GRID WGT:10**-14

 RADIAL INTEGRATION  - INTERVALS (POINTS,UPPER LIMIT):            1( 75,  4.0*R)

 ANGULAR INTEGRATION - INTERVALS (ACCURACY LEVEL [N. POINTS] UPPER LIMIT):
  1(  4[  86]   0.2)  2(  8[ 194]   0.5)  3( 12[ 350]   0.9)  4( 16[ 974]   3.5)
  5( 12[ 350]9999.0)
 TTTTTTTTTTTTTTTTTTTTTTTTTTTTTT INT_CALC    TELAPSE       21.44 TCPU       21.41
 EEEEEEEEEE INT_CALC TERMINATION  DATE 19 02 2026 TIME 20:26:42.6

 *******************************************************************************
 cof-1_z41_L030_serr                                                             
 CRYSTAL - SCF - TYPE OF CALCULATION :  RESTRICTED CLOSED SHELL
 *******************************************************************************

 CAPPA:IS1  2;IS2  2;IS3  8; K PTS MONK NET  20; SYMMOPS:K SPACE   2;G SPACE   1

 TTTTTTTTTTTTTTTTTTTTTTTTTTTTTT SDIK        TELAPSE       23.37 TCPU       46.46

 AAAAAAAAAAAAAAAAAAAAAAAAAAAAAAAAAAAAAAAAAAAAAAAAAAAAAAAAAAAAAAAAAAAAAAAAAAAAAAA
         ATOMIC WAVEFUNCTION(S)


 NUCLEAR CHARGE  5.0  SYMMETRY SPECIES            S    P
 N. ELECTRONS    5.0  NUMBER OF PRIMITIVE GTOS    8    4
                      NUMBER OF CONTRACTED GTOS   4    2
                      NUMBER OF CLOSED SHELLS     2    0
                      OPEN SHELL OCCUPATION       0    1

  ZNUC  SCFIT    TOTAL HF ENERGY   KINETIC ENERGY   VIRIAL THEOREM ACCURACY
   5.0    11    -2.451164084E+01  2.462155050E+01 -1.995536038E+00  1.5E-06

 NUCLEAR CHARGE  1.0  SYMMETRY SPECIES            S
 N. ELECTRONS    1.0  NUMBER OF PRIMITIVE GTOS    4
                      NUMBER OF CONTRACTED GTOS   2
                      NUMBER OF CLOSED SHELLS     0
                      OPEN SHELL OCCUPATION       1

  ZNUC  SCFIT    TOTAL HF ENERGY   KINETIC ENERGY   VIRIAL THEOREM ACCURACY
   1.0     1    -4.977266687E-01  5.190767460E-01 -1.958869132E+00  0.0E+00

 NUCLEAR CHARGE  6.0  SYMMETRY SPECIES            S    P
 N. ELECTRONS    6.0  NUMBER OF PRIMITIVE GTOS    8    4
                      NUMBER OF CONTRACTED GTOS   4    2
                      NUMBER OF CLOSED SHELLS     2    0
                      OPEN SHELL OCCUPATION       0    2

  ZNUC  SCFIT    TOTAL HF ENERGY   KINETIC ENERGY   VIRIAL THEOREM ACCURACY
   6.0     9    -3.766704647E+01  3.775180683E+01 -1.997754800E+00  1.1E-06

 NUCLEAR CHARGE  8.0  SYMMETRY SPECIES            S    P
 N. ELECTRONS    8.0  NUMBER OF PRIMITIVE GTOS    8    4
                      NUMBER OF CONTRACTED GTOS   4    2
                      NUMBER OF CLOSED SHELLS     2    0
                      OPEN SHELL OCCUPATION       0    4

  ZNUC  SCFIT    TOTAL HF ENERGY   KINETIC ENERGY   VIRIAL THEOREM ACCURACY
   8.0    12    -7.477373220E+01  7.477365593E+01 -2.000001020E+00  3.8E-06

 AAAAAAAAAAAAAAAAAAAAAAAAAAAAAAAAAAAAAAAAAAAAAAAAAAAAAAAAAAAAAAAAAAAAAAAAAAAAAAA

 CHARGE NORMALIZATION FACTOR   1.00000000
 TOTAL ATOMIC CHARGES:
   5.0000000   5.0000000   5.0000000   5.0000000   5.0000000   5.0000000
   5.0000000   5.0000000   5.0000000   5.0000000   5.0000000   5.0000000
   1.0000000   1.0000000   1.0000000   1.0000000   1.0000000   1.0000000
   1.0000000   1.0000000   1.0000000   1.0000000   1.0000000   1.0000000
   1.0000000   1.0000000   1.0000000   1.0000000   1.0000000   1.0000000
   1.0000000   1.0000000   1.0000000   1.0000000   1.0000000   1.0000000
   6.0000000   6.0000000   6.0000000   6.0000000   6.0000000   6.0000000
   6.0000000   6.0000000   6.0000000   6.0000000   6.0000000   6.0000000
   6.0000000   6.0000000   6.0000000   6.0000000   6.0000000   6.0000000
   6.0000000   6.0000000   6.0000000   6.0000000   6.0000000   6.0000000
   6.0000000   6.0000000   6.0000000   6.0000000   6.0000000   6.0000000
   6.0000000   6.0000000   6.0000000   6.0000000   6.0000000   6.0000000
   8.0000000   8.0000000   8.0000000   8.0000000   8.0000000   8.0000000
   8.0000000   8.0000000   8.0000000   8.0000000   8.0000000   8.0000000
 TTTTTTTTTTTTTTTTTTTTTTTTTTTTTT MOQGAD      TELAPSE       23.45 TCPU       49.03
 TTTTTTTTTTTTTTTTTTTTTTTTTTTTTT SHELLXN     TELAPSE       37.59 TCPU      500.64
 TTTTTTTTTTTTTTTTTTTTTTTTTTTTTT MONMO3      TELAPSE       38.14 TCPU      518.02
 NUMERICALLY INTEGRATED DENSITY    395.9999687812
 TTTTTTTTTTTTTTTTTTTTTTTTTTTTTT NUMDFT      TELAPSE       39.48 TCPU      560.97
 CYC   0 ETOT(AU) -2.591911382889E+03 DETOT -2.59E+03 tst  0.00E+00 PX  1.00E+00
 TTTTTTTTTTTTTTTTTTTTTTTTTTTTTT DIIS        TELAPSE       39.58 TCPU      564.20
 TTTTTTTTTTTTTTTTTTTTTTTTTTTTTT FDIK        TELAPSE       41.39 TCPU      621.78
 INSULATING STATE
 TOP OF VALENCE BANDS -    BAND    198; K    3; EIG -3.1280881E-01 AU
 TOP OF VALENCE BANDS -    BAND    198; K    1; EIG -3.1285462E-01 AU
 BOTTOM OF VIRTUAL BANDS - BAND    199; K    1; EIG -1.5818228E-01 AU
 INDIRECT ENERGY BAND GAP:   4.2076 eV
 TTTTTTTTTTTTTTTTTTTTTTTTTTTTTT PDIG        TELAPSE       42.88 TCPU      628.65
 CHARGE NORMALIZATION FACTOR   1.00000000
 TOTAL ATOMIC CHARGES:
   4.1645239   4.1499355   4.1620536   4.1663751   4.1622811   4.1666285
   4.1662231   4.1618965   4.1659950   4.1616671   4.1496128   4.1641350
   0.7851691   0.7852094   0.7853249   0.7852846   0.7850047   0.7850493
   0.7851687   0.7851259   0.7853761   0.7856350   0.7857988   0.7855414
   0.7853662   0.7856240   0.7857618   0.7855049   0.7850102   0.7850521
   0.7852338   0.7851913   0.7851211   0.7851622   0.7853195   0.7852781
   6.0433946   6.0433255   6.2658491   6.2656247   6.2655934   6.2658132
   6.2651242   6.2647402   6.2646835   6.2650715   6.0425994   6.0426601
   6.0434769   6.0482144   6.2653499   6.2653542   6.2654292   6.2654272
   6.2652506   6.2652678   6.2654432   6.2654281   6.0469831   6.0422547
   6.0437556   6.0436808   6.2649026   6.2645115   6.2650610   6.2654483
   6.2654773   6.2652567   6.2658733   6.2660920   6.0421309   6.0421976
   8.6925992   8.6931351   8.6927031   8.6932572   8.6954092   8.6908850
   8.6935641   8.6930257   8.6912910   8.6958050   8.6937343   8.6932046
 TTTTTTTTTTTTTTTTTTTTTTTTTTTTTT MOQGAD      TELAPSE       42.98 TCPU      628.74
 TTTTTTTTTTTTTTTTTTTTTTTTTTTTTT SHELLXN     TELAPSE       57.68 TCPU     1097.77
 TTTTTTTTTTTTTTTTTTTTTTTTTTTTTT MONMO3      TELAPSE       58.23 TCPU     1115.11
 NUMERICALLY INTEGRATED DENSITY    395.9999815805
 TTTTTTTTTTTTTTTTTTTTTTTTTTTTTT NUMDFT      TELAPSE       59.58 TCPU     1158.51
 CYC   1 ETOT(AU) -2.577634183528E+03 DETOT  1.43E+01 tst  0.00E+00 PX  1.00E+00
 TTTTTTTTTTTTTTTTTTTTTTTTTTTTTT DIIS        TELAPSE       59.71 TCPU     1162.64
 DIIS TEST: 0.22132E+01 AT SCF   CYCLE   1 - MIX   30 %
 TTTTTTTTTTTTTTTTTTTTTTTTTTTTTT FDIK        TELAPSE       61.54 TCPU     1221.07
 INSULATING STATE
 TOP OF VALENCE BANDS -    BAND    198; K    1; EIG -2.2206425E-01 AU
 BOTTOM OF VIRTUAL BANDS - BAND    199; K    1; EIG -7.9608057E-02 AU
 DIRECT ENERGY BAND GAP:   3.8764 eV
 TTTTTTTTTTTTTTTTTTTTTTTTTTTTTT PDIG        TELAPSE       63.03 TCPU     1227.94
 CHARGE NORMALIZATION FACTOR   1.00000000
 TOTAL ATOMIC CHARGES:
   4.6758143   4.7021959   4.7030074   4.7060547   4.7029673   4.7060504
   4.7062257   4.7033181   4.7061856   4.7032785   4.7025273   4.6759132
   0.9123597   0.9076354   0.9077275   0.9123691   0.9171865   0.9154189
   0.9154639   0.9172167   0.9121784   0.9037861   0.9037806   0.9123040
   0.9121637   0.9037632   0.9037760   0.9122685   0.9171737   0.9154139
   0.9155364   0.9172824   0.9122952   0.9075762   0.9077555   0.9123661
   5.8672337   5.8642301   6.1438600   6.1048667   6.1053049   6.1443289
   6.1375501   6.1458407   6.1464750   6.1383449   5.8669957   5.8699614
   5.8495597   5.9063904   6.1306689   6.1458700   6.1467464   6.1313724
   6.1308580   6.1460431   6.1466253   6.1312879   5.9095653   5.8526546
   5.8671951   5.8641831   6.1376191   6.1459055   6.1463352   6.1382547
   6.1440967   6.1050614   6.1050461   6.1440476   5.8671780   5.8701835
   8.3323587   8.3303351   8.3327258   8.3306947   8.3513078   8.3400294
   8.3302095   8.3321745   8.3397784   8.3511545   8.3306128   8.3325428
 TTTTTTTTTTTTTTTTTTTTTTTTTTTTTT MOQGAD      TELAPSE       63.12 TCPU     1228.03
 TTTTTTTTTTTTTTTTTTTTTTTTTTTTTT SHELLXN     TELAPSE       77.83 TCPU     1697.04
 TTTTTTTTTTTTTTTTTTTTTTTTTTTTTT MONMO3      TELAPSE       78.37 TCPU     1714.38
 NUMERICALLY INTEGRATED DENSITY    395.9999837573
 TTTTTTTTTTTTTTTTTTTTTTTTTTTTTT NUMDFT      TELAPSE       79.73 TCPU     1757.78
 CYC   2 ETOT(AU) -2.578023315078E+03 DETOT -3.89E-01 tst  4.38E-03 PX  1.59E-01
 TTTTTTTTTTTTTTTTTTTTTTTTTTTTTT DIIS        TELAPSE       79.88 TCPU     1762.63
 DIIS TEST: 0.91756E+00 AT SCF   CYCLE   2 - DIIS ACTIVE - HISTORY:     2 CYCLES
 TTTTTTTTTTTTTTTTTTTTTTTTTTTTTT FDIK        TELAPSE       81.70 TCPU     1820.96
 INSULATING STATE
 TOP OF VALENCE BANDS -    BAND    198; K    1; EIG -2.3574411E-01 AU
 BOTTOM OF VIRTUAL BANDS - BAND    199; K    1; EIG -7.6391609E-02 AU
 DIRECT ENERGY BAND GAP:   4.3362 eV
 TTTTTTTTTTTTTTTTTTTTTTTTTTTTTT PDIG        TELAPSE       83.20 TCPU     1827.83
 CHARGE NORMALIZATION FACTOR   1.00000000
 TOTAL ATOMIC CHARGES:
   4.4868796   4.4876562   4.4960716   4.5028388   4.4961583   4.5029170
   4.5024010   4.4956658   4.5022451   4.4954692   4.4871736   4.4864152
   0.8929208   0.8818804   0.8819181   0.8931514   0.8915187   0.8933703
   0.8934980   0.8915902   0.8879289   0.8854417   0.8857819   0.8880299
   0.8879611   0.8854699   0.8857326   0.8879563   0.8915129   0.8933849
   0.8935493   0.8916483   0.8929099   0.8818866   0.8818952   0.8931068
   5.8861760   5.8947413   6.1554689   6.1673427   6.1668590   6.1550829
   6.1631755   6.1544212   6.1537264   6.1621979   5.8937247   5.8849956
   5.9135499   5.8936982   6.1647512   6.1563832   6.1558837   6.1643949
   6.1648076   6.1564392   6.1557729   6.1643469   5.8918955   5.9123052
   5.8865127   5.8950588   6.1631089   6.1543319   6.1538746   6.1623462
   6.1553955   6.1672078   6.1668916   6.1551094   5.8933829   5.8847007
   8.5147593   8.5125319   8.5149118   8.5127068   8.5137711   8.5078383
   8.5126577   8.5150378   8.5080786   8.5136303   8.5128424   8.5152371
 TTTTTTTTTTTTTTTTTTTTTTTTTTTTTT MOQGAD      TELAPSE       83.29 TCPU     1827.92
 TTTTTTTTTTTTTTTTTTTTTTTTTTTTTT SHELLXN     TELAPSE       98.01 TCPU     2297.51
 TTTTTTTTTTTTTTTTTTTTTTTTTTTTTT MONMO3      TELAPSE       98.56 TCPU     2314.88
 NUMERICALLY INTEGRATED DENSITY    395.9999809440
 TTTTTTTTTTTTTTTTTTTTTTTTTTTTTT NUMDFT      TELAPSE       99.92 TCPU     2358.44
 CYC   3 ETOT(AU) -2.578212587337E+03 DETOT -1.89E-01 tst  6.60E-04 PX  6.53E-02
 TTTTTTTTTTTTTTTTTTTTTTTTTTTTTT DIIS        TELAPSE      100.09 TCPU     2363.95
 DIIS TEST: 0.29745E-01 AT SCF   CYCLE   3 - DIIS ACTIVE - HISTORY:     3 CYCLES
 TTTTTTTTTTTTTTTTTTTTTTTTTTTTTT FDIK        TELAPSE      101.91 TCPU     2422.03
 INSULATING STATE
 TOP OF VALENCE BANDS -    BAND    198; K    1; EIG -2.4548504E-01 AU
 BOTTOM OF VIRTUAL BANDS - BAND    199; K    1; EIG -8.4493842E-02 AU
 DIRECT ENERGY BAND GAP:   4.3808 eV
 TTTTTTTTTTTTTTTTTTTTTTTTTTTTTT PDIG        TELAPSE      103.39 TCPU     2428.89
 CHARGE NORMALIZATION FACTOR   1.00000000
 TOTAL ATOMIC CHARGES:
   4.4889771   4.4979007   4.5035236   4.5047405   4.5036045   4.5048152
   4.5048024   4.5037151   4.5046469   4.5035318   4.4980152   4.4888816
   0.8718286   0.8704073   0.8705440   0.8718020   0.8765900   0.8736465
   0.8736803   0.8765867   0.8726063   0.8658030   0.8657223   0.8728096
   0.8726283   0.8658179   0.8656815   0.8727454   0.8766009   0.8736646
   0.8737372   0.8766284   0.8718035   0.8703886   0.8705373   0.8717686
   5.9399446   5.9319887   6.1742765   6.1457663   6.1463619   6.1747699
   6.1683984   6.1732867   6.1744003   6.1699812   5.9352612   5.9431839
   5.9164911   5.9772965   6.1585002   6.1787754   6.1800297   6.1594113
   6.1584660   6.1787599   6.1800193   6.1594514   5.9804722   5.9194458
   5.9399897   5.9320296   6.1682872   6.1731813   6.1744886   6.1701398
   6.1742102   6.1456449   6.1464228   6.1747861   5.9352326   5.9432221
   8.4763728   8.4773936   8.4766537   8.4776693   8.4931248   8.4817194
   8.4775235   8.4762974   8.4817091   8.4935079   8.4778612   8.4766109
 TTTTTTTTTTTTTTTTTTTTTTTTTTTTTT MOQGAD      TELAPSE      103.49 TCPU     2428.98
 TTTTTTTTTTTTTTTTTTTTTTTTTTTTTT SHELLXN     TELAPSE      118.16 TCPU     2896.90
 TTTTTTTTTTTTTTTTTTTTTTTTTTTTTT MONMO3      TELAPSE      118.70 TCPU     2914.22
 NUMERICALLY INTEGRATED DENSITY    395.9999820385
 TTTTTTTTTTTTTTTTTTTTTTTTTTTTTT NUMDFT      TELAPSE      120.07 TCPU     2957.82
 CYC   4 ETOT(AU) -2.578218459875E+03 DETOT -5.87E-03 tst  4.13E-05 PX  2.02E-02
 TTTTTTTTTTTTTTTTTTTTTTTTTTTTTT DIIS        TELAPSE      120.26 TCPU     2964.06
 DIIS TEST: 0.10174E-01 AT SCF   CYCLE   4 - DIIS ACTIVE - HISTORY:     4 CYCLES
 TTTTTTTTTTTTTTTTTTTTTTTTTTTTTT FDIK        TELAPSE      122.08 TCPU     3022.13
 INSULATING STATE
 TOP OF VALENCE BANDS -    BAND    198; K    1; EIG -2.4401946E-01 AU
 BOTTOM OF VIRTUAL BANDS - BAND    199; K    1; EIG -8.4368421E-02 AU
 DIRECT ENERGY BAND GAP:   4.3443 eV
 TTTTTTTTTTTTTTTTTTTTTTTTTTTTTT PDIG        TELAPSE      123.57 TCPU     3029.01
 CHARGE NORMALIZATION FACTOR   1.00000000
 TOTAL ATOMIC CHARGES:
   4.4888590   4.4989011   4.5043384   4.5087733   4.5044106   4.5088471
   4.5085269   4.5041829   4.5083845   4.5040072   4.4986743   4.4885916
   0.8768970   0.8698885   0.8699562   0.8770995   0.8786039   0.8776356
   0.8778120   0.8787324   0.8733011   0.8699206   0.8702299   0.8734285
   0.8733137   0.8699300   0.8701964   0.8733703   0.8785985   0.8776479
   0.8778712   0.8787926   0.8768645   0.8698712   0.8699508   0.8770730
   5.9185561   5.9249961   6.1677165   6.1598465   6.1594129   6.1674431
   6.1704845   6.1692552   6.1684032   6.1692992   5.9238881   5.9173366
   5.9325751   5.9355185   6.1711823   6.1677417   6.1673416   6.1708542
   6.1712827   6.1678220   6.1672142   6.1707770   5.9340217   5.9315909
   5.9188022   5.9252299   6.1704296   6.1691888   6.1684853   6.1694049
   6.1677256   6.1597856   6.1593934   6.1673938   5.9236502   5.9171588
   8.4887737   8.4864365   8.4889669   8.4866480   8.4941812   8.4875333
   8.4864480   8.4889710   8.4876269   8.4938372   8.4866845   8.4892027
 TTTTTTTTTTTTTTTTTTTTTTTTTTTTTT MOQGAD      TELAPSE      123.66 TCPU     3029.10
 TTTTTTTTTTTTTTTTTTTTTTTTTTTTTT SHELLXN     TELAPSE      138.36 TCPU     3497.70
 TTTTTTTTTTTTTTTTTTTTTTTTTTTTTT MONMO3      TELAPSE      138.90 TCPU     3515.07
 NUMERICALLY INTEGRATED DENSITY    395.9999818524
 TTTTTTTTTTTTTTTTTTTTTTTTTTTTTT NUMDFT      TELAPSE      140.26 TCPU     3558.58
 CYC   5 ETOT(AU) -2.578220746156E+03 DETOT -2.29E-03 tst  2.40E-05 PX  1.13E-02
 TTTTTTTTTTTTTTTTTTTTTTTTTTTTTT DIIS        TELAPSE      140.48 TCPU     3565.38
 DIIS TEST: 0.62905E-03 AT SCF   CYCLE   5 - DIIS ACTIVE - HISTORY:     5 CYCLES
 TTTTTTTTTTTTTTTTTTTTTTTTTTTTTT FDIK        TELAPSE      142.30 TCPU     3623.30
 INSULATING STATE
 TOP OF VALENCE BANDS -    BAND    198; K    1; EIG -2.4354660E-01 AU
 BOTTOM OF VIRTUAL BANDS - BAND    199; K    1; EIG -8.3755735E-02 AU
 DIRECT ENERGY BAND GAP:   4.3481 eV
 TTTTTTTTTTTTTTTTTTTTTTTTTTTTTT PDIG        TELAPSE      143.79 TCPU     3630.17
 CHARGE NORMALIZATION FACTOR   1.00000000
 TOTAL ATOMIC CHARGES:
   4.4896512   4.4987442   4.5045394   4.5081202   4.5046166   4.5081949
   4.5080755   4.5045765   4.5079293   4.5043973   4.4987345   4.4894717
   0.8773556   0.8716318   0.8717534   0.8773805   0.8797887   0.8788991
   0.8789204   0.8797791   0.8761767   0.8705596   0.8705587   0.8763621
   0.8762025   0.8705777   0.8705145   0.8762950   0.8797932   0.8789148
   0.8789770   0.8798269   0.8773330   0.8716185   0.8717439   0.8773457
   5.9188483   5.9170575   6.1692360   6.1559967   6.1563834   6.1695398
   6.1682682   6.1675725   6.1685892   6.1696829   5.9198361   5.9215288
   5.9137376   5.9454191   6.1623771   6.1727032   6.1736599   6.1630871
   6.1623477   6.1726963   6.1736353   6.1631184   5.9476899   5.9159304
   5.9189876   5.9171881   6.1681773   6.1674762   6.1686975   6.1698360
   6.1691570   6.1558615   6.1564429   6.1695675   5.9196991   5.9214590
   8.4887127   8.4881077   8.4889570   8.4883553   8.4981840   8.4887953
   8.4882756   8.4887057   8.4889019   8.4986065   8.4885618   8.4889855
 TTTTTTTTTTTTTTTTTTTTTTTTTTTTTT MOQGAD      TELAPSE      143.88 TCPU     3630.26
 TTTTTTTTTTTTTTTTTTTTTTTTTTTTTT SHELLXN     TELAPSE      158.60 TCPU     4099.59
 TTTTTTTTTTTTTTTTTTTTTTTTTTTTTT MONMO3      TELAPSE      159.14 TCPU     4116.93
 NUMERICALLY INTEGRATED DENSITY    395.9999818309
 TTTTTTTTTTTTTTTTTTTTTTTTTTTTTT NUMDFT      TELAPSE      160.50 TCPU     4160.42
 CYC   6 ETOT(AU) -2.578220824377E+03 DETOT -7.82E-05 tst  7.48E-06 PX  4.38E-03
 TTTTTTTTTTTTTTTTTTTTTTTTTTTTTT DIIS        TELAPSE      160.74 TCPU     4167.24
 DIIS TEST: 0.34635E-03 AT SCF   CYCLE   6 - DIIS ACTIVE - HISTORY:     6 CYCLES
 TTTTTTTTTTTTTTTTTTTTTTTTTTTTTT FDIK        TELAPSE      162.56 TCPU     4225.01
 INSULATING STATE
 TOP OF VALENCE BANDS -    BAND    198; K    1; EIG -2.4359615E-01 AU
 BOTTOM OF VIRTUAL BANDS - BAND    199; K    1; EIG -8.3726605E-02 AU
 DIRECT ENERGY BAND GAP:   4.3503 eV
 TTTTTTTTTTTTTTTTTTTTTTTTTTTTTT PDIG        TELAPSE      164.05 TCPU     4231.88
 CHARGE NORMALIZATION FACTOR   1.00000000
 TOTAL ATOMIC CHARGES:
   4.4898560   4.4986534   4.5043498   4.5083064   4.5044260   4.5083807
   4.5081100   4.5042510   4.5079652   4.5040722   4.4984726   4.4896048
   0.8776489   0.8715639   0.8716445   0.8777848   0.8797764   0.8788311
   0.8789650   0.8798627   0.8755383   0.8707588   0.8709575   0.8756811
   0.8755568   0.8707718   0.8709199   0.8756192   0.8797767   0.8788467
   0.8790215   0.8799156   0.8776221   0.8715500   0.8716356   0.8777538
   5.9194508   5.9206730   6.1686883   6.1567275   6.1566059   6.1686411
   6.1687280   6.1686537   6.1683401   6.1683059   5.9208080   5.9195046
   5.9221940   5.9417851   6.1657390   6.1702994   6.1703791   6.1657787
   6.1657899   6.1703487   6.1702891   6.1657410   5.9416376   5.9223444
   5.9196440   5.9208540   6.1686481   6.1685665   6.1684400   6.1684435
   6.1686578   6.1566324   6.1566244   6.1686247   5.9206209   5.9193802
   8.4883579   8.4870510   8.4885731   8.4872785   8.4965578   8.4884372
   8.4871227   8.4885006   8.4885082   8.4964344   8.4873851   8.4887534
 TTTTTTTTTTTTTTTTTTTTTTTTTTTTTT MOQGAD      TELAPSE      164.14 TCPU     4231.97
 TTTTTTTTTTTTTTTTTTTTTTTTTTTTTT SHELLXN     TELAPSE      178.85 TCPU     4701.08
 TTTTTTTTTTTTTTTTTTTTTTTTTTTTTT MONMO3      TELAPSE      179.40 TCPU     4718.43
 NUMERICALLY INTEGRATED DENSITY    395.9999818269
 TTTTTTTTTTTTTTTTTTTTTTTTTTTTTT NUMDFT      TELAPSE      180.77 TCPU     4762.15
 CYC   7 ETOT(AU) -2.578220915117E+03 DETOT -9.07E-05 tst  1.51E-06 PX  1.91E-03
 TTTTTTTTTTTTTTTTTTTTTTTTTTTTTT DIIS        TELAPSE      181.03 TCPU     4768.95
 DIIS TEST: 0.48869E-05 AT SCF   CYCLE   7 - DIIS ACTIVE - HISTORY:     7 CYCLES
 TTTTTTTTTTTTTTTTTTTTTTTTTTTTTT FDIK        TELAPSE      182.85 TCPU     4826.82
 INSULATING STATE
 TOP OF VALENCE BANDS -    BAND    198; K    1; EIG -2.4362637E-01 AU
 BOTTOM OF VIRTUAL BANDS - BAND    199; K    1; EIG -8.3759402E-02 AU
 DIRECT ENERGY BAND GAP:   4.3502 eV
 TTTTTTTTTTTTTTTTTTTTTTTTTTTTTT PDIG        TELAPSE      184.33 TCPU     4833.69
 CHARGE NORMALIZATION FACTOR   1.00000000
 TOTAL ATOMIC CHARGES:
   4.4896847   4.4987227   4.5044673   4.5084011   4.5045430   4.5084755
   4.5082732   4.5044236   4.5081284   4.5042452   4.4986241   4.4894678
   0.8776747   0.8714187   0.8715184   0.8777716   0.8797154   0.8788466
   0.8789263   0.8797567   0.8754520   0.8707677   0.8708893   0.8756135
   0.8754728   0.8707830   0.8708492   0.8755496   0.8797157   0.8788610
   0.8789839   0.8798097   0.8776486   0.8714045   0.8715100   0.8777398
   5.9187596   5.9203934   6.1681190   6.1571053   6.1571552   6.1681843
   6.1687655   6.1679054   6.1681939   6.1691630   5.9216452   5.9199036
   5.9216751   5.9413798   6.1656483   6.1701306   6.1705429   6.1659453
   6.1656745   6.1701597   6.1704749   6.1659306   5.9421553   5.9226027
   5.9189436   5.9205677   6.1686903   6.1678220   6.1682904   6.1692952
   6.1680777   6.1570014   6.1571816   6.1681792   5.9214654   5.9197889
   8.4884322   8.4871669   8.4886557   8.4873999   8.4963781   8.4881221
   8.4872670   8.4885021   8.4882286   8.4964999   8.4875333   8.4887625
 TTTTTTTTTTTTTTTTTTTTTTTTTTTTTT MOQGAD      TELAPSE      184.43 TCPU     4833.78
 TTTTTTTTTTTTTTTTTTTTTTTTTTTTTT SHELLXN     TELAPSE      199.13 TCPU     5302.52
 TTTTTTTTTTTTTTTTTTTTTTTTTTTTTT MONMO3      TELAPSE      199.68 TCPU     5319.93
 NUMERICALLY INTEGRATED DENSITY    395.9999818222
 TTTTTTTTTTTTTTTTTTTTTTTTTTTTTT NUMDFT      TELAPSE      201.04 TCPU     5363.67
 CYC   8 ETOT(AU) -2.578220915603E+03 DETOT -4.86E-07 tst  2.02E-08 PX  2.05E-04
 TTTTTTTTTTTTTTTTTTTTTTTTTTTTTT DIIS        TELAPSE      201.33 TCPU     5370.51
 DIIS TEST: 0.18074E-05 AT SCF   CYCLE   8 - DIIS ACTIVE - HISTORY:     8 CYCLES
 TTTTTTTTTTTTTTTTTTTTTTTTTTTTTT FDIK        TELAPSE      203.15 TCPU     5428.36
 INSULATING STATE
 TOP OF VALENCE BANDS -    BAND    198; K    1; EIG -2.4361994E-01 AU
 BOTTOM OF VIRTUAL BANDS - BAND    199; K    1; EIG -8.3768042E-02 AU
 DIRECT ENERGY BAND GAP:   4.3498 eV
 TTTTTTTTTTTTTTTTTTTTTTTTTTTTTT PDIG        TELAPSE      204.64 TCPU     5435.22
 CHARGE NORMALIZATION FACTOR   1.00000000
 TOTAL ATOMIC CHARGES:
   4.4896682   4.4987999   4.5045012   4.5084208   4.5045767   4.5084950
   4.5082603   4.5044323   4.5081158   4.5042541   4.4986620   4.4894354
   0.8776186   0.8714553   0.8715453   0.8777343   0.8797273   0.8787979
   0.8789063   0.8797924   0.8754465   0.8707249   0.8708856   0.8755993
   0.8754663   0.8707391   0.8708465   0.8755363   0.8797277   0.8788129
   0.8789634   0.8798453   0.8775921   0.8714411   0.8715369   0.8777028
   5.9190779   5.9205393   6.1683607   6.1569537   6.1569218   6.1683732
   6.1688345   6.1682038   6.1681827   6.1688132   5.9212207   5.9196664
   5.9218148   5.9416114   6.1656941   6.1702713   6.1705161   6.1658593
   6.1657299   6.1703090   6.1704396   6.1658354   5.9419188   5.9223495
   5.9192654   5.9207160   6.1687574   6.1681187   6.1682805   6.1689475
   6.1683241   6.1568538   6.1569447   6.1683634   5.9210383   5.9195480
   8.4884510   8.4871670   8.4886711   8.4873977   8.4964592   8.4882218
   8.4872550   8.4885588   8.4883073   8.4964553   8.4875194   8.4888159
 TTTTTTTTTTTTTTTTTTTTTTTTTTTTTT MOQGAD      TELAPSE      204.73 TCPU     5435.31
 TTTTTTTTTTTTTTTTTTTTTTTTTTTTTT SHELLXN     TELAPSE      219.42 TCPU     5903.51
 +++ ENERGIES IN A.U. +++
 ::: EXT EL-POLE                                  -2.4369474689852E+03
 ::: EXT EL-SPHEROPOLE                             2.7914867787673E+01
 ::: BIELET ZONE E-E                               4.1435384027143E+03
 ::: TOTAL E-E                                     1.7345058015168E+03
 ::: TOTAL E-N + N-E                              -7.1292517089405E+03
 ::: TOTAL N-N                                     5.2410236102366E+02
 ::: KINETIC ENERGY                                2.5598535456422E+03
 ::: PSEUDO TOTAL   ENERGY                        -2.3107900007579E+03
 ::: VIRIAL COEFFICIENT                            1.0511356543569E+00
 TTTTTTTTTTTTTTTTTTTTTTTTTTTTTT MONMO3      TELAPSE      219.96 TCPU     5920.84
 NUMERICALLY INTEGRATED DENSITY    395.9999818227
 EXCHANGE ENERGY: -0.252051948302E+03  CORRELATION ENERGY: -0.153789667091E+02
 TTTTTTTTTTTTTTTTTTTTTTTTTTTTTT NUMDFT      TELAPSE      221.32 TCPU     5964.42
 CYC   9 ETOT(AU) -2.578220915769E+03 DETOT -1.66E-07 tst  4.44E-09 PX  2.05E-04

 == SCF ENDED - CONVERGENCE ON ENERGY      E(AU) -2.5782209157695E+03 CYCLES   9


 ENERGY EXPRESSION=HARTREE+FOCK EXCH*0.00000+(HSESOL     EXCH)*1.00000+PBESOL     CORR


 TOTAL ENERGY(DFT)(AU)(  9) -2.5782209157695E+03 DE-1.7E-07 tester 4.4E-09
 TTTTTTTTTTTTTTTTTTTTTTTTTTTTTT EDFT        TELAPSE      221.32 TCPU     5964.43
 
 INFORMATION **** DFTD3 ENERGY **** CALCULATE DFTD3 ENERGY

           DFT-D V3(BJ)
 DF                                         hsesol3c  
 parameters
 s6       :    1.0000
 s8       :    0.0000
 a1       :    0.5196
 a2       :    4.9385
 k1 k3    :   16.0000   -4.0000
 Cutoff   :   50.2022
 CN-Cutoff:   21.1671
 ABC-Cutoff:   21.1671
 
 Edisp /kcal,au:   -48.7067 -0.07761910

 E6    /kcal :   -51.8138
 E8    /kcal :     0.0000
 E6(ABC) "   :   3.107042
 
 INFORMATION **** DFTD3 ENERGY **** NORMAL TERMINATION OF DFTD3 MODULE

 GCP ENERGY CALCULATION
  level        hsesol3c            basis:hsesol3c
  Nbf            948
  Atoms           84

  Parameters: 
  sigma     1.0000
  eta       1.4281
  alpha     0.2936
  beta      1.9467

  dmp_scal      4.0000
  dmp_exp       6.0000
 cutoffs: 
   distance [bohr] 60.0
   noise    [a.u.] 2.2E-16
 SR-damping   T
 ** gCP correction **
  Egcp:        0.1658831844 / (a.u.) ||     104.0933 / (kcal/mol)
 INFORMATION **** GCP **** NORMAL TERMINATION OF GCP MODULE

 *******************************************************************************

 DFT-D3-GCP DISPERSION AND COUNTERPOISE CORRECTION

 D3 DISPERSION ENERGY (AU)      -7.7619102061936E-02
 GCP ENERGY (AU)                 1.6588318439953E-01
 TOTAL ENERGY + DISP + GCP (AU) -2.5781326516871E+03

 *******************************************************************************

 EIGENVECTORS IN FORTRAN UNIT 10
 TTTTTTTTTTTTTTTTTTTTTTTTTTTTTT END         TELAPSE      224.05 TCPU     5973.11
 EEEEEEEEEE TERMINATION  DATE 19 02 2026 TIME 20:30:05.2
