 Default number of threads is:           32

         
 *******************************************************************************
 *                                                                             *
 *                               CRYSTAL23                                     *
 *                      public : 1.0.1 - October 2022                          *
 *                       HTTP://WWW.CRYSTAL.UNITO.IT                           *
 *                                                                             *
 *                              MAIN AUTHORS                                   *
 *                                                                             *
 *  R. DOVESI(1,11), V.R. SAUNDERS(2), C. ROETTI(1,11), R. ORLANDO(1,11),      *
 *  C.M. ZICOVICH-WILSON(1,3), F. PASCALE(4), B. CIVALLERI(1,11),              *
 *  K. DOLL(5), N.M. HARRISON(6), I.J. BUSH(7), Ph. D'ARCO(8),                 *
 *  M. LLUNELL(9), M. CAUSA'(10), Y. NOEL(8), L. MASCHIO(1,11), A. ERBA(1,11)  *
 *  M. RE'RAT(14), S. CASASSA(1,11), B.G. SEARLE(2), J.K. DESMARAIS(1)         *
 *                                                                             *
 *        CONTRIBUTIONS TO THE CODE HAVE ALSO BEEN GIVEN BY                    *
 *                                                                             *
 *  M. FERRABONE(1,11), M. DE LA PIERRE(1,11), M. FERRERO(1,11),               *
 *  J. BAIMA(1,11), E. ALBANESE(1,11), M.F. PEINTINGER(12), R. BAST(13),       *
 *  B. KIRTMAN(15), V. LACIVITA(1,11), R. DEMICHELIS(1,16)                     *
 *  G. BRANDEBURG(17), S. SALUSTRO(1,11), G. SANSONE(1,11)                     *
 *  M.T. RUGGIERO(18), L.E. DAGA(1), L. DONA'(1), A. COSSARD(1)                *
 *                                                                             *
 * (1) THEORETICAL CHEMISTRY GROUP - UNIVERSITA' DI TORINO - TORINO (ITALY)    *
 * (2) SCIENTIFIC COMPUTING DEPARTMENT - STFC DARESBURY (UK)                   *
 * (3) UNIVERSIDAD AUTONOMA DEL ESTADO DE MORELOS - CUERNAVACA (MEXICO)        *
 * (4) UNIVERSITE' DE LORRAINE - NANCY (FRANCE)                                *
 * (5) UNIVERSITAET STUTTGART- STUTTGART (GERMANY)                             *
 * (6) IMPERIAL COLLEGE - LONDON (UK)                                          *
 * (7) SCIENTIFIC COMPUTING DEPARTMENT - STFC RAL (UK)                         *
 * (8) UPMC - SORBONNE UNIVERSITES - PARIS (FRANCE)                            *
 * (9) UNIVERSIDAD DE BARCELONA - BARCELONA (SPAIN)                            *
 *(10) UNIVERSITA' DI NAPOLI "FEDERICO II" - NAPOLI (ITALY)                    *
 *(11) NIS - NANOSTRUCTURED INTERFACES AND SURFACES - TORINO (ITALY)           *
 *(12) MPI FUER CHEMISCHE ENERGIEKONVERSION - MUELHEIM AN DER RUHR (GERMANY)   *
 *(13) UNIVERSITY OF TROMSO - TROMSO (NORWAY)                                  *
 *(14) UNIVERSITE' DE PAU ET DES PAYS DE L'ADOUR - PAU (FRANCE)                *
 *(15) UNIVERSITY OF CALIFORNIA SANTA BARBARA - SANTA BARBARA (USA)            *
 *(16) CURTIN UNIVERSITY - PERTH (AUSTRALIA)                                   *
 *(17) UNIVERSITY COLLEGE LONDON - LONDON (UK)                                 *
 *(18) UNIVERSITY OF VERMONT - BURLINGTON (USA)                                *
 *                                                                             *
 *******************************************************************************
 EEEEEEEEEE STARTING  DATE 19 02 2026 TIME 19:57:25.1
 cof-1_z33_L050_serr                                                             

 CRYSTAL CALCULATION
 (INPUT ACCORDING TO THE INTERNATIONAL TABLES FOR X-RAY CRYSTALLOGRAPHY)
 CRYSTAL FAMILY                       :  TRICLINIC   
 CRYSTAL CLASS  (GROTH - 1921)        :  TRICLINIC PEDIAL                     

 SPACE GROUP (NONCENTROSYMMETRIC)     :  P 1             

 LATTICE PARAMETERS  (ANGSTROMS AND DEGREES) - CONVENTIONAL CELL
        A           B           C        ALPHA        BETA       GAMMA
    15.02361    15.02392     6.60000    90.00032    89.99994   119.99596


 NUMBER OF IRREDUCIBLE ATOMS IN THE CONVENTIONAL CELL:   84

 INPUT COORDINATES

 ATOM AT. N.              COORDINATES
   1   5     6.136805400000E-01  2.273182200000E-01  2.507237400000E-01
   2   5     8.057969300000E-01  6.115900500000E-01  7.507237400000E-01
   3   5     7.727362000000E-01  3.863778800000E-01  2.507237500000E-01
   4   5     9.648525900000E-01  7.706497100000E-01  7.507237500000E-01
   5   5     6.136762700000E-01  3.863606700000E-01  2.492020600000E-01
   6   5     8.057926600000E-01  7.706325000000E-01  7.492020600000E-01
   7   5     2.272552500000E-01  6.136332200000E-01  2.507237500000E-01
   8   5     4.193716400000E-01  9.979050500000E-01  7.507237500000E-01
   9   5     3.863632200000E-01  6.136124500000E-01  2.507237500000E-01
  10   5     5.784796100000E-01  9.978842800000E-01  7.507237500000E-01
  11   5     3.863435000000E-01  7.727516500000E-01  2.492020600000E-01
  12   5     5.784598900000E-01  1.570234800000E-01  7.492020600000E-01
  13   1     9.030436200000E-01  3.089300500000E-01  2.475689700000E-01
  14   1     9.516001000000E-02  6.932018800000E-01  7.475689700000E-01
  15   1     9.663453000000E-02  6.910534400000E-01  2.470865600000E-01
  16   1     2.887509200000E-01  7.532527000000E-02  7.470865500000E-01
  17   1     9.029714200000E-01  5.940724300000E-01  2.470123000000E-01
  18   1     9.508781000000E-02  9.783442600000E-01  7.470123000000E-01
  19   1     9.673618000000E-02  4.056849400000E-01  2.470308300000E-01
  20   1     2.888525700000E-01  7.899567700000E-01  7.470308200000E-01
  21   1     6.910324000000E-01  9.700412000000E-02  2.524310500000E-01
  22   1     8.831487900000E-01  4.812759500000E-01  7.524310500000E-01
  23   1     3.089297200000E-01  9.034373100000E-01  2.529135000000E-01
  24   1     5.010461100000E-01  2.877091400000E-01  7.529135000000E-01
  25   1     4.058699900000E-01  9.704998000000E-02  2.529877900000E-01
  26   1     5.979863800000E-01  4.813218100000E-01  7.529877900000E-01
  27   1     5.943122100000E-01  9.033473200000E-01  2.529691500000E-01
  28   1     7.864286000000E-01  2.876191500000E-01  7.529691500000E-01
  29   1     6.910727400000E-01  5.940542100000E-01  2.475690000000E-01
  30   1     8.831891300000E-01  9.783260400000E-01  7.475690000000E-01
  31   1     3.089618300000E-01  4.056093300000E-01  2.470865300000E-01
  32   1     5.010782200000E-01  7.898811600000E-01  7.470865200000E-01
  33   1     4.058405700000E-01  3.088232500000E-01  2.470122500000E-01
  34   1     5.979569600000E-01  6.930950800000E-01  7.470122500000E-01
  35   1     5.942908800000E-01  6.909579300000E-01  2.470308900000E-01
  36   1     7.864072700000E-01  7.522976000000E-02  7.470308800000E-01
  37   6     8.918903100000E-01  4.459436900000E-01  2.491463800000E-01
  38   6     8.400670000000E-02  8.302155200000E-01  7.491463800000E-01
  39   6     9.464891100000E-01  3.927856300000E-01  2.476432100000E-01
  40   6     1.386055000000E-01  7.770574600000E-01  7.476432100000E-01
  41   6     5.338812000000E-02  6.071853000000E-01  2.475133600000E-01
  42   6     2.455045100000E-01  9.914571300000E-01  7.475133600000E-01
  43   6     9.464521100000E-01  5.536921900000E-01  2.479030600000E-01
  44   6     1.385685000000E-01  9.379640200000E-01  7.479030600000E-01
  45   6     5.342634000000E-02  4.462499700000E-01  2.469009200000E-01
  46   6     2.455427300000E-01  8.305218000000E-01  7.469009300000E-01
  47   6     1.080358900000E-01  5.540356300000E-01  2.479216000000E-01
  48   6     3.001522800000E-01  9.383074600000E-01  7.479216000000E-01
  49   6     5.540394200000E-01  1.081684600000E-01  2.508536600000E-01
  50   6     7.461558100000E-01  4.924402900000E-01  7.508536600000E-01
  51   6     6.071778500000E-01  5.355594000000E-02  2.523568000000E-01
  52   6     7.992942400000E-01  4.378277700000E-01  7.523568000000E-01
  53   6     3.927986700000E-01  9.466631600000E-01  2.524867000000E-01
  54   6     5.849150600000E-01  3.309349900000E-01  7.524867000000E-01
  55   6     4.462875800000E-01  5.360286000000E-02  2.520970100000E-01
  56   6     6.384039700000E-01  4.378746900000E-01  7.520970100000E-01
  57   6     5.537168500000E-01  9.466235600000E-01  2.530990800000E-01
  58   6     7.458332400000E-01  3.308953900000E-01  7.530990800000E-01
  59   6     4.459279100000E-01  8.919920600000E-01  2.520784300000E-01
  60   6     6.380443000000E-01  2.762638900000E-01  7.520784300000E-01
  61   6     5.540448700000E-01  4.458745500000E-01  2.491463800000E-01
  62   6     7.461612600000E-01  8.301463800000E-01  7.491463800000E-01
  63   6     6.072102200000E-01  5.536257800000E-01  2.476432500000E-01
  64   6     7.993266100000E-01  9.378976100000E-01  7.476432500000E-01
  65   6     3.928233700000E-01  4.461720300000E-01  2.475133300000E-01
  66   6     5.849397600000E-01  8.304438600000E-01  7.475133300000E-01
  67   6     4.462872600000E-01  3.926899900000E-01  2.479030200000E-01
  68   6     6.384036500000E-01  7.769618200000E-01  7.479030200000E-01
  69   6     5.537429600000E-01  6.070980000000E-01  2.469009700000E-01
  70   6     7.458593500000E-01  9.913698300000E-01  7.469009600000E-01
  71   6     4.459599800000E-01  5.539582300000E-01  2.479216000000E-01
  72   6     6.380763700000E-01  9.382300600000E-01  7.479216000000E-01
  73   8     5.607366800000E-01  2.803706300000E-01  2.496103100000E-01
  74   8     7.528530700000E-01  6.646424600000E-01  7.496103100000E-01
  75   8     7.196817000000E-01  2.803783300000E-01  2.528207200000E-01
  76   8     9.117980900000E-01  6.646501600000E-01  7.528207200000E-01
  77   8     7.196794200000E-01  4.393234600000E-01  2.479772800000E-01
  78   8     9.117958100000E-01  8.235952900000E-01  7.479772800000E-01
  79   8     2.803245100000E-01  7.196511100000E-01  2.496103300000E-01
  80   8     4.724409000000E-01  1.039229400000E-01  7.496103300000E-01
  81   8     2.803439700000E-01  5.606956100000E-01  2.528207100000E-01
  82   8     4.724603600000E-01  9.449674400000E-01  7.528207100000E-01
  83   8     4.392638400000E-01  7.196354200000E-01  2.479772700000E-01
  84   8     6.313802300000E-01  1.039072500000E-01  7.479772800000E-01

 *******************************************************************************

 << INFORMATION >>: FROM NOW ON, ALL COORDINATES REFER TO THE PRIMITIVE CELL

 *******************************************************************************

 LATTICE PARAMETERS  (ANGSTROMS AND DEGREES) - PRIMITIVE CELL
       A          B          C        ALPHA      BETA     GAMMA        VOLUME
   15.02361   15.02392    6.60000    90.00032  89.99994 119.99596   1290.178217

 COORDINATES OF THE EQUIVALENT ATOMS (FRACTIONAL UNITS)

 N. ATOM EQUIV AT. N.          X                  Y                  Z

   1   1   1    5 B    -3.86319460000E-01  2.27318220000E-01  2.50723740000E-01

   2   2   1    5 B    -1.94203070000E-01 -3.88409950000E-01 -2.49276260000E-01

   3   3   1    5 B    -2.27263800000E-01  3.86377880000E-01  2.50723750000E-01

   4   4   1    5 B    -3.51474100000E-02 -2.29350290000E-01 -2.49276250000E-01

   5   5   1    5 B    -3.86323730000E-01  3.86360670000E-01  2.49202060000E-01

   6   6   1    5 B    -1.94207340000E-01 -2.29367500000E-01 -2.50797940000E-01

   7   7   1    5 B     2.27255250000E-01 -3.86366780000E-01  2.50723750000E-01

   8   8   1    5 B     4.19371640000E-01 -2.09495000000E-03 -2.49276250000E-01

   9   9   1    5 B     3.86363220000E-01 -3.86387550000E-01  2.50723750000E-01

  10  10   1    5 B    -4.21520390000E-01 -2.11572000000E-03 -2.49276250000E-01

  11  11   1    5 B     3.86343500000E-01 -2.27248350000E-01  2.49202060000E-01

  12  12   1    5 B    -4.21540110000E-01  1.57023480000E-01 -2.50797940000E-01

  13  13   1    1 H    -9.69563800000E-02  3.08930050000E-01  2.47568970000E-01

  14  14   1    1 H     9.51600100000E-02 -3.06798120000E-01 -2.52431030000E-01

  15  15   1    1 H     9.66345300000E-02 -3.08946560000E-01  2.47086560000E-01

  16  16   1    1 H     2.88750920000E-01  7.53252700000E-02 -2.52913450000E-01

  17  17   1    1 H    -9.70285800000E-02 -4.05927570000E-01  2.47012300000E-01

  18  18   1    1 H     9.50878100000E-02 -2.16557400000E-02 -2.52987700000E-01

  19  19   1    1 H     9.67361800000E-02  4.05684940000E-01  2.47030830000E-01

  20  20   1    1 H     2.88852570000E-01 -2.10043230000E-01 -2.52969180000E-01

  21  21   1    1 H    -3.08967600000E-01  9.70041200000E-02  2.52431050000E-01

  22  22   1    1 H    -1.16851210000E-01  4.81275950000E-01 -2.47568950000E-01

  23  23   1    1 H     3.08929720000E-01 -9.65626900000E-02  2.52913500000E-01

  24  24   1    1 H    -4.98953890000E-01  2.87709140000E-01 -2.47086500000E-01

  25  25   1    1 H     4.05869990000E-01  9.70499800000E-02  2.52987790000E-01

  26  26   1    1 H    -4.02013620000E-01  4.81321810000E-01 -2.47012210000E-01

  27  27   1    1 H    -4.05687790000E-01 -9.66526800000E-02  2.52969150000E-01

  28  28   1    1 H    -2.13571400000E-01  2.87619150000E-01 -2.47030850000E-01

  29  29   1    1 H    -3.08927260000E-01 -4.05945790000E-01  2.47569000000E-01

  30  30   1    1 H    -1.16810870000E-01 -2.16739600000E-02 -2.52431000000E-01

  31  31   1    1 H     3.08961830000E-01  4.05609330000E-01  2.47086530000E-01

  32  32   1    1 H    -4.98921780000E-01 -2.10118840000E-01 -2.52913480000E-01

  33  33   1    1 H     4.05840570000E-01  3.08823250000E-01  2.47012250000E-01

  34  34   1    1 H    -4.02043040000E-01 -3.06904920000E-01 -2.52987750000E-01

  35  35   1    1 H    -4.05709120000E-01 -3.09042070000E-01  2.47030890000E-01

  36  36   1    1 H    -2.13592730000E-01  7.52297600000E-02 -2.52969120000E-01

  37  37   1    6 C    -1.08109690000E-01  4.45943690000E-01  2.49146380000E-01

  38  38   1    6 C     8.40067000000E-02 -1.69784480000E-01 -2.50853620000E-01

  39  39   1    6 C    -5.35108900000E-02  3.92785630000E-01  2.47643210000E-01

  40  40   1    6 C     1.38605500000E-01 -2.22942540000E-01 -2.52356790000E-01

  41  41   1    6 C     5.33881200000E-02 -3.92814700000E-01  2.47513360000E-01

  42  42   1    6 C     2.45504510000E-01 -8.54287000000E-03 -2.52486640000E-01

  43  43   1    6 C    -5.35478900000E-02 -4.46307810000E-01  2.47903060000E-01

  44  44   1    6 C     1.38568500000E-01 -6.20359800000E-02 -2.52096940000E-01

  45  45   1    6 C     5.34263400000E-02  4.46249970000E-01  2.46900920000E-01

  46  46   1    6 C     2.45542730000E-01 -1.69478200000E-01 -2.53099070000E-01

  47  47   1    6 C     1.08035890000E-01 -4.45964370000E-01  2.47921600000E-01

  48  48   1    6 C     3.00152280000E-01 -6.16925400000E-02 -2.52078400000E-01

  49  49   1    6 C    -4.45960580000E-01  1.08168460000E-01  2.50853660000E-01

  50  50   1    6 C    -2.53844190000E-01  4.92440290000E-01 -2.49146340000E-01

  51  51   1    6 C    -3.92822150000E-01  5.35559400000E-02  2.52356800000E-01

  52  52   1    6 C    -2.00705760000E-01  4.37827770000E-01 -2.47643200000E-01

  53  53   1    6 C     3.92798670000E-01 -5.33368400000E-02  2.52486700000E-01

  54  54   1    6 C    -4.15084940000E-01  3.30934990000E-01 -2.47513300000E-01

  55  55   1    6 C     4.46287580000E-01  5.36028600000E-02  2.52097010000E-01

  56  56   1    6 C    -3.61596030000E-01  4.37874690000E-01 -2.47902990000E-01

  57  57   1    6 C    -4.46283150000E-01 -5.33764400000E-02  2.53099080000E-01

  58  58   1    6 C    -2.54166760000E-01  3.30895390000E-01 -2.46900920000E-01

  59  59   1    6 C     4.45927910000E-01 -1.08007940000E-01  2.52078430000E-01

  60  60   1    6 C    -3.61955700000E-01  2.76263890000E-01 -2.47921570000E-01

  61  61   1    6 C    -4.45955130000E-01  4.45874550000E-01  2.49146380000E-01

  62  62   1    6 C    -2.53838740000E-01 -1.69853620000E-01 -2.50853620000E-01

  63  63   1    6 C    -3.92789780000E-01 -4.46374220000E-01  2.47643250000E-01

  64  64   1    6 C    -2.00673390000E-01 -6.21023900000E-02 -2.52356750000E-01

  65  65   1    6 C     3.92823370000E-01  4.46172030000E-01  2.47513330000E-01

  66  66   1    6 C    -4.15060240000E-01 -1.69556140000E-01 -2.52486670000E-01

  67  67   1    6 C     4.46287260000E-01  3.92689990000E-01  2.47903020000E-01

  68  68   1    6 C    -3.61596350000E-01 -2.23038180000E-01 -2.52096980000E-01

  69  69   1    6 C    -4.46257040000E-01 -3.92902000000E-01  2.46900970000E-01

  70  70   1    6 C    -2.54140650000E-01 -8.63017000000E-03 -2.53099040000E-01

  71  71   1    6 C     4.45959980000E-01 -4.46041770000E-01  2.47921600000E-01

  72  72   1    6 C    -3.61923630000E-01 -6.17699400000E-02 -2.52078400000E-01

  73  73   1    8 O    -4.39263320000E-01  2.80370630000E-01  2.49610310000E-01

  74  74   1    8 O    -2.47146930000E-01 -3.35357540000E-01 -2.50389690000E-01

  75  75   1    8 O    -2.80318300000E-01  2.80378330000E-01  2.52820720000E-01

  76  76   1    8 O    -8.82019100000E-02 -3.35349840000E-01 -2.47179280000E-01

  77  77   1    8 O    -2.80320580000E-01  4.39323460000E-01  2.47977280000E-01

  78  78   1    8 O    -8.82041900000E-02 -1.76404710000E-01 -2.52022720000E-01

  79  79   1    8 O     2.80324510000E-01 -2.80348890000E-01  2.49610330000E-01

  80  80   1    8 O     4.72440900000E-01  1.03922940000E-01 -2.50389670000E-01

  81  81   1    8 O     2.80343970000E-01 -4.39304390000E-01  2.52820710000E-01

  82  82   1    8 O     4.72460360000E-01 -5.50325600000E-02 -2.47179290000E-01

  83  83   1    8 O     4.39263840000E-01 -2.80364580000E-01  2.47977270000E-01

  84  84   1    8 O    -3.68619770000E-01  1.03907250000E-01 -2.52022720000E-01

 NUMBER OF SYMMETRY OPERATORS         :    1
 *******************************************************************************
 * GEOMETRY EDITING - INPUT COORDINATES ARE GIVEN IN ANGSTROM         
 *******************************************************************************

 GCALCO - MAX INDICES DIRECT LATTICE VECTOR    11    11    23
 NO.OF VECTORS CREATED 6999 STARS 3500 RMAX   244.92321 BOHR

 GEOMETRY FOR WAVE FUNCTION - DIMENSIONALITY OF THE SYSTEM    3
 (NON PERIODIC DIRECTION: LATTICE PARAMETER FORMALLY SET TO 500)
 *******************************************************************************
 LATTICE PARAMETERS (ANGSTROMS AND DEGREES) - BOHR = 0.5291772083 ANGSTROM
 PRIMITIVE CELL - CENTRING CODE 1/0 VOLUME=  1290.178217 - DENSITY  1.004 g/cm^3
         A              B              C           ALPHA      BETA       GAMMA 
    15.02361100    15.02391600     6.60000000    90.000323  89.999944 119.995964
 *******************************************************************************
 ATOMS IN THE ASYMMETRIC UNIT   84 - ATOMS IN THE UNIT CELL:   84
     ATOM                 X/A                 Y/B                 Z/C    
 *******************************************************************************
      1 T   5 B    -3.863194600000E-01  2.273182200000E-01  2.507237400000E-01
      2 T   5 B    -1.942030700000E-01 -3.884099500000E-01 -2.492762600000E-01
      3 T   5 B    -2.272638000000E-01  3.863778800000E-01  2.507237500000E-01
      4 T   5 B    -3.514741000000E-02 -2.293502900000E-01 -2.492762500000E-01
      5 T   5 B    -3.863237300000E-01  3.863606700000E-01  2.492020600000E-01
      6 T   5 B    -1.942073400000E-01 -2.293675000000E-01 -2.507979400000E-01
      7 T   5 B     2.272552500000E-01 -3.863667800000E-01  2.507237500000E-01
      8 T   5 B     4.193716400000E-01 -2.094950000000E-03 -2.492762500000E-01
      9 T   5 B     3.863632200000E-01 -3.863875500000E-01  2.507237500000E-01
     10 T   5 B    -4.215203900000E-01 -2.115720000000E-03 -2.492762500000E-01
     11 T   5 B     3.863435000000E-01 -2.272483500000E-01  2.492020600000E-01
     12 T   5 B    -4.215401100000E-01  1.570234800000E-01 -2.507979400000E-01
     13 T   1 H    -9.695638000000E-02  3.089300500000E-01  2.475689700000E-01
     14 T   1 H     9.516001000000E-02 -3.067981200000E-01 -2.524310300000E-01
     15 T   1 H     9.663453000000E-02 -3.089465600000E-01  2.470865600000E-01
     16 T   1 H     2.887509200000E-01  7.532527000000E-02 -2.529134500000E-01
     17 T   1 H    -9.702858000000E-02 -4.059275700000E-01  2.470123000000E-01
     18 T   1 H     9.508781000000E-02 -2.165574000000E-02 -2.529877000000E-01
     19 T   1 H     9.673618000000E-02  4.056849400000E-01  2.470308300000E-01
     20 T   1 H     2.888525700000E-01 -2.100432300000E-01 -2.529691800000E-01
     21 T   1 H    -3.089676000000E-01  9.700412000000E-02  2.524310500000E-01
     22 T   1 H    -1.168512100000E-01  4.812759500000E-01 -2.475689500000E-01
     23 T   1 H     3.089297200000E-01 -9.656269000000E-02  2.529135000000E-01
     24 T   1 H    -4.989538900000E-01  2.877091400000E-01 -2.470865000000E-01
     25 T   1 H     4.058699900000E-01  9.704998000000E-02  2.529877900000E-01
     26 T   1 H    -4.020136200000E-01  4.813218100000E-01 -2.470122100000E-01
     27 T   1 H    -4.056877900000E-01 -9.665268000000E-02  2.529691500000E-01
     28 T   1 H    -2.135714000000E-01  2.876191500000E-01 -2.470308500000E-01
     29 T   1 H    -3.089272600000E-01 -4.059457900000E-01  2.475690000000E-01
     30 T   1 H    -1.168108700000E-01 -2.167396000000E-02 -2.524310000000E-01
     31 T   1 H     3.089618300000E-01  4.056093300000E-01  2.470865300000E-01
     32 T   1 H    -4.989217800000E-01 -2.101188400000E-01 -2.529134800000E-01
     33 T   1 H     4.058405700000E-01  3.088232500000E-01  2.470122500000E-01
     34 T   1 H    -4.020430400000E-01 -3.069049200000E-01 -2.529877500000E-01
     35 T   1 H    -4.057091200000E-01 -3.090420700000E-01  2.470308900000E-01
     36 T   1 H    -2.135927300000E-01  7.522976000000E-02 -2.529691200000E-01
     37 T   6 C    -1.081096900000E-01  4.459436900000E-01  2.491463800000E-01
     38 T   6 C     8.400670000000E-02 -1.697844800000E-01 -2.508536200000E-01
     39 T   6 C    -5.351089000000E-02  3.927856300000E-01  2.476432100000E-01
     40 T   6 C     1.386055000000E-01 -2.229425400000E-01 -2.523567900000E-01
     41 T   6 C     5.338812000000E-02 -3.928147000000E-01  2.475133600000E-01
     42 T   6 C     2.455045100000E-01 -8.542870000000E-03 -2.524866400000E-01
     43 T   6 C    -5.354789000000E-02 -4.463078100000E-01  2.479030600000E-01
     44 T   6 C     1.385685000000E-01 -6.203598000000E-02 -2.520969400000E-01
     45 T   6 C     5.342634000000E-02  4.462499700000E-01  2.469009200000E-01
     46 T   6 C     2.455427300000E-01 -1.694782000000E-01 -2.530990700000E-01
     47 T   6 C     1.080358900000E-01 -4.459643700000E-01  2.479216000000E-01
     48 T   6 C     3.001522800000E-01 -6.169254000000E-02 -2.520784000000E-01
     49 T   6 C    -4.459605800000E-01  1.081684600000E-01  2.508536600000E-01
     50 T   6 C    -2.538441900000E-01  4.924402900000E-01 -2.491463400000E-01
     51 T   6 C    -3.928221500000E-01  5.355594000000E-02  2.523568000000E-01
     52 T   6 C    -2.007057600000E-01  4.378277700000E-01 -2.476432000000E-01
     53 T   6 C     3.927986700000E-01 -5.333684000000E-02  2.524867000000E-01
     54 T   6 C    -4.150849400000E-01  3.309349900000E-01 -2.475133000000E-01
     55 T   6 C     4.462875800000E-01  5.360286000000E-02  2.520970100000E-01
     56 T   6 C    -3.615960300000E-01  4.378746900000E-01 -2.479029900000E-01
     57 T   6 C    -4.462831500000E-01 -5.337644000000E-02  2.530990800000E-01
     58 T   6 C    -2.541667600000E-01  3.308953900000E-01 -2.469009200000E-01
     59 T   6 C     4.459279100000E-01 -1.080079400000E-01  2.520784300000E-01
     60 T   6 C    -3.619557000000E-01  2.762638900000E-01 -2.479215700000E-01
     61 T   6 C    -4.459551300000E-01  4.458745500000E-01  2.491463800000E-01
     62 T   6 C    -2.538387400000E-01 -1.698536200000E-01 -2.508536200000E-01
     63 T   6 C    -3.927897800000E-01 -4.463742200000E-01  2.476432500000E-01
     64 T   6 C    -2.006733900000E-01 -6.210239000000E-02 -2.523567500000E-01
     65 T   6 C     3.928233700000E-01  4.461720300000E-01  2.475133300000E-01
     66 T   6 C    -4.150602400000E-01 -1.695561400000E-01 -2.524866700000E-01
     67 T   6 C     4.462872600000E-01  3.926899900000E-01  2.479030200000E-01
     68 T   6 C    -3.615963500000E-01 -2.230381800000E-01 -2.520969800000E-01
     69 T   6 C    -4.462570400000E-01 -3.929020000000E-01  2.469009700000E-01
     70 T   6 C    -2.541406500000E-01 -8.630170000000E-03 -2.530990400000E-01
     71 T   6 C     4.459599800000E-01 -4.460417700000E-01  2.479216000000E-01
     72 T   6 C    -3.619236300000E-01 -6.176994000000E-02 -2.520784000000E-01
     73 T   8 O    -4.392633200000E-01  2.803706300000E-01  2.496103100000E-01
     74 T   8 O    -2.471469300000E-01 -3.353575400000E-01 -2.503896900000E-01
     75 T   8 O    -2.803183000000E-01  2.803783300000E-01  2.528207200000E-01
     76 T   8 O    -8.820191000000E-02 -3.353498400000E-01 -2.471792800000E-01
     77 T   8 O    -2.803205800000E-01  4.393234600000E-01  2.479772800000E-01
     78 T   8 O    -8.820419000000E-02 -1.764047100000E-01 -2.520227200000E-01
     79 T   8 O     2.803245100000E-01 -2.803488900000E-01  2.496103300000E-01
     80 T   8 O     4.724409000000E-01  1.039229400000E-01 -2.503896700000E-01
     81 T   8 O     2.803439700000E-01 -4.393043900000E-01  2.528207100000E-01
     82 T   8 O     4.724603600000E-01 -5.503256000000E-02 -2.471792900000E-01
     83 T   8 O     4.392638400000E-01 -2.803645800000E-01  2.479772700000E-01
     84 T   8 O    -3.686197700000E-01  1.039072500000E-01 -2.520227200000E-01

 T = ATOM BELONGING TO THE ASYMMETRIC UNIT

 ****    1 SYMMOPS - TRANSLATORS IN FRACTIONAL UNITS
 **** MATRICES AND TRANSLATORS IN THE CRYSTALLOGRAPHIC REFERENCE FRAME
   V INV                    ROTATION MATRICES                   TRANSLATORS
   1   1  1.00 -0.00  0.00  0.00  1.00  0.00  0.00  0.00  1.00  0.00  0.00  0.00

 DIRECT LATTICE VECTORS CARTESIAN COMPONENTS (ANGSTROM)
          X                    Y                    Z
   0.130113578931E+02  -0.751088897922E+01   0.000000000000E+00
   0.000000000000E+00   0.150239160000E+02   0.000000000000E+00
  -0.140295695767E-04  -0.372069289925E-04   0.659999999988E+01


 CARTESIAN COORDINATES - PRIMITIVE CELL
 *******************************************************************************
 *      ATOM          X(ANGSTROM)         Y(ANGSTROM)         Z(ANGSTROM)
 *******************************************************************************
    1     5 B    -5.026544272659E+00  6.316803088460E+00  1.654776683970E+00
    2     5 B    -2.526842150462E+00 -4.376791489367E+00 -1.645223315970E+00
    3     5 B    -2.957014155482E+00  7.511852655512E+00  1.654776749970E+00
    4     5 B    -4.573120332855E-01 -3.181741922315E+00 -1.645223249970E+00
    5     5 B    -5.026599809808E+00 -6.317640374193E+00  1.644733595970E+00
    6     5 B    -2.526897687611E+00 -1.987318952020E+00 -1.655266403970E+00
    7     5 B     2.956895873280E+00 -7.511640329265E+00  1.654776749970E+00
    8     5 B     5.456597995477E+00 -3.181318907092E+00 -1.645223249970E+00
    9     5 B     5.027106614587E+00  6.316921325621E+00  1.654776749970E+00
   10     5 B    -5.484549156272E+00  3.134215727010E+00 -1.645223249970E+00
   11     5 B     5.026850051958E+00 -6.315952529924E+00  1.644733595970E+00
   12     5 B     7.526552174155E+00 -1.985631107751E+00 -1.655266403970E+00
   13     1 H    -1.261537633481E+00  5.369558515801E+00  1.633955201970E+00
   14     1 H     1.238164488716E+00 -5.324036062026E+00 -1.666044797970E+00
   15     1 H     1.257342988139E+00 -5.367407585650E+00  1.630771295970E+00
   16     1 H     3.757045110336E+00 -1.037086163477E+00 -1.669228769970E+00
   17     1 H    -1.262477045711E+00 -5.369860012142E+00  1.630281179970E+00
   18     1 H     1.237225076486E+00 -1.039538589969E+00 -1.669718819970E+00
   19     1 H     1.258665593451E+00  5.368392561513E+00  1.630403477970E+00
   20     1 H     3.758367715648E+00 -5.325202016314E+00 -1.669596587970E+00
   21     1 H    -4.020091562458E+00  3.777993700125E+00  1.666044929970E+00
   22     1 H    -1.520389440261E+00 -6.915600877702E+00 -1.633955069970E+00
   23     1 H     4.019591602454E+00 -3.771095982729E+00  1.669229099970E+00
   24     1 H     6.519293724651E+00  5.592254394438E-01 -1.630770899970E+00
   25     1 H     5.280916148631E+00 -1.590383100463E+00  1.669719413970E+00
   26     1 H    -5.230739622228E+00 -4.773088699073E+00 -1.630280585970E+00
   27     1 H    -5.278552577581E+00  1.594964793214E+00  1.669596389970E+00
   28     1 H    -2.778850455385E+00  5.925286215387E+00 -1.630403609970E+00
   29     1 H    -4.019566616068E+00 -3.778586308282E+00  1.633955399970E+00
   30     1 H    -1.519864493871E+00  5.517351138906E-01 -1.666044599970E+00
   31     1 H     4.020009478906E+00  3.773253305460E+00  1.630771097970E+00
   32     1 H    -6.491646291954E+00  5.905477068495E-01 -1.669228967970E+00
   33     1 H     5.280533438317E+00  1.591501911748E+00  1.630280849970E+00
   34     1 H    -5.231122332543E+00 -1.591203686863E+00 -1.669719149970E+00
   35     1 H    -5.278830026534E+00 -1.595795133231E+00  1.630403873970E+00
   36     1 H    -2.779127904337E+00  2.734526288942E+00 -1.669596191970E+00
   37     6 C    -1.406657363714E+00  7.511811148486E+00  1.644366107970E+00
   38     6 C     1.093044758483E+00 -3.181783429341E+00 -1.655633891970E+00
   39     6 C    -6.962528152936E-01  6.303083451053E+00  1.634445185970E+00
   40     6 C     1.803449306903E+00 -4.390511126774E+00 -1.665554813970E+00
   41     6 C     6.946484640515E-01 -6.302616507706E+00  1.633588175970E+00
   42     6 C     3.194350586248E+00 -1.972295085533E+00 -1.666411823970E+00
   43     6 C    -6.967342391813E-01 -6.303108014434E+00  1.636160195970E+00
   44     6 C     1.802967883016E+00 -1.972786592261E+00 -1.663839803970E+00
   45     6 C     6.951457667425E-01  6.303133569552E+00  1.629546071970E+00
   46     6 C     3.194847888939E+00 -4.390461008276E+00 -1.670453861970E+00
   47     6 C     1.405690151852E+00 -7.511586033835E+00  1.636282559970E+00
   48     6 C     3.905392274048E+00 -3.181264611662E+00 -1.663717439970E+00
   49     6 C     7.208801661113E+00 -2.536224050334E+00  1.655634155970E+00
   50     6 C    -3.302854109747E+00 -5.718929648945E+00 -1.644365843970E+00
   51     6 C    -5.111153122427E+00  3.755054111667E+00  1.665554879970E+00
   52     6 C    -2.611451000230E+00 -6.938540466160E+00 -1.634445119970E+00
   53     6 C     5.110840533007E+00 -3.751604799674E+00  1.666412219970E+00
   54     6 C     7.610542655204E+00  5.787166224989E-01 -1.633587779970E+00
   55     6 C     5.806803889794E+00 -2.546700979939E+00  1.663840265970E+00
   56     6 C    -4.704851881066E+00 -5.729406578550E+00 -1.636159733970E+00
   57     6 C    -5.806753337162E+00  2.550050624966E+00  1.670453927970E+00
   58     6 C    -3.307051214965E+00  6.880372047139E+00 -1.629546071970E+00
   59     6 C     5.802124094961E+00 -4.972026621701E+00  1.663717637970E+00
   60     6 C     8.301826217158E+00 -6.417051995284E-01 -1.636282361970E+00
   61     6 C     7.208872596966E+00  2.537403007692E+00  1.644366107970E+00
   62     6 C    -3.302783173894E+00 -6.453025909189E-01 -1.655633891970E+00
   63     6 C    -5.110731878643E+00 -3.756097570139E+00  1.634445449970E+00
   64     6 C    -2.611029756446E+00  5.742238520334E-01 -1.665554549970E+00
   65     6 C     5.111161983321E+00  3.752789170547E+00  1.633587977970E+00
   66     6 C    -5.400493787539E+00  5.700835719363E-01 -1.666412021970E+00
   67     6 C     5.806799784999E+00  2.547718137392E+00  1.636159931970E+00
   68     6 C    -4.704855985861E+00 -6.349874612185E-01 -1.663840067970E+00
   69     6 C    -5.806413523650E+00 -2.551148747025E+00  1.629546401970E+00
   70     6 C    -3.306711401453E+00  1.779172675148E+00 -1.670453663970E+00
   71     6 C     5.802541427527E+00  4.973056791674E+00  1.636282559970E+00
   72     6 C    -4.709114343333E+00  1.790351193063E+00 -1.663717439970E+00
   73     8 O     7.295942125319E+00  6.245566995733E-04  1.647428045970E+00
   74     8 O    -3.215713645541E+00 -3.182081041911E+00 -1.652571953970E+00
   75     8 O    -3.647325272239E+00  6.317810701600E+00  1.668616751970E+00
   76     8 O    -1.147623150042E+00 -4.375783876227E+00 -1.631383247970E+00
   77     8 O    -3.647354870184E+00 -6.318109711634E+00  1.636650047970E+00
   78     8 O    -1.147652747987E+00 -1.987788289461E+00 -1.663349951970E+00
   79     8 O     3.647399023880E+00 -6.317433734050E+00  1.647428177970E+00
   80     8 O     6.147101146077E+00 -1.987112311877E+00 -1.652571821970E+00
   81     8 O     3.647652179865E+00  6.318201904864E+00  1.668616685970E+00
   82     8 O     6.147354302061E+00 -4.375392672963E+00 -1.631383313970E+00
   83     8 O    -7.295942340353E+00 -5.560813757980E-04  1.636649981970E+00
   84     8 O    -4.796240218156E+00  4.329765340797E+00 -1.663349951970E+00

 *******************************************************************************
 STARTING BASIS SET HANDLING 
 *******************************************************************************

 Loading internal basis set: SOLDEF2MSVP         

 Please cite in your publication:
 L. Dona', J. G. Brandenburg and B. Civalleri, J. Chem. Phys., 151, 121101 (2019
 )                                                                              
                                                                                
                    

 *******************************************************************************
 LOCAL ATOMIC FUNCTIONS BASIS SET
 *******************************************************************************
   ATOM   X(AU)   Y(AU)   Z(AU)  N. TYPE  EXPONENT  S COEF   P COEF   D/F/G COEF
 *******************************************************************************
   1 B   -9.499  11.937   3.127
                                  1 S  
                                         2.410E+03 1.755E-03 0.000E+00 0.000E+00
                                         3.619E+02 1.344E-02 0.000E+00 0.000E+00
                                         8.231E+01 6.637E-02 0.000E+00 0.000E+00
                                         2.311E+01 2.303E-01 0.000E+00 0.000E+00
                                         7.252E+00 5.150E-01 0.000E+00 0.000E+00
                                  2 S  
                                         2.367E+00 1.000E+00 0.000E+00 0.000E+00
                                  3 S  
                                         5.533E-01 1.000E+00 0.000E+00 0.000E+00
                                  4 S  
                                         1.716E-01 1.000E+00 0.000E+00 0.000E+00
                           5-     7 P  
                                         6.002E+00 0.000E+00-3.555E-02 0.000E+00
                                         1.240E+00 0.000E+00-1.983E-01 0.000E+00
                                         3.367E-01 0.000E+00-5.048E-01 0.000E+00
                           8-    10 P  
                                         1.256E-01 0.000E+00 1.000E+00 0.000E+00
                          11-    15 D  
                                         8.880E-01 0.000E+00 0.000E+00 1.000E+00
   2 B   -4.775  -8.271  -3.109
   3 B   -5.588  14.195   3.127
   4 B   -0.864  -6.013  -3.109
   5 B   -9.499 -11.939   3.108
   6 B   -4.775  -3.755  -3.128
   7 B    5.588 -14.195   3.127
   8 B   10.311  -6.012  -3.109
   9 B    9.500  11.937   3.127
  10 B  -10.364   5.923  -3.109
  11 B    9.499 -11.935   3.108
  12 B   14.223  -3.752  -3.128
  13 H   -2.384  10.147   3.088
                                181 S  
                                         1.874E+01 1.968E-02 0.000E+00 0.000E+00
                                         2.826E+00 1.380E-01 0.000E+00 0.000E+00
                                         6.401E-01 4.783E-01 0.000E+00 0.000E+00
                                182 S  
                                         1.756E-01 1.000E+00 0.000E+00 0.000E+00
  14 H    2.340 -10.061  -3.148
  15 H    2.376 -10.143   3.082
  16 H    7.100  -1.960  -3.154
  17 H   -2.386 -10.148   3.081
  18 H    2.338  -1.964  -3.155
  19 H    2.379  10.145   3.081
  20 H    7.102 -10.063  -3.155
  21 H   -7.597   7.139   3.148
  22 H   -2.873 -13.069  -3.088
  23 H    7.596  -7.126   3.154
  24 H   12.320   1.057  -3.082
  25 H    9.979  -3.005   3.155
  26 H   -9.885  -9.020  -3.081
  27 H   -9.975   3.014   3.155
  28 H   -5.251  11.197  -3.081
  29 H   -7.596  -7.140   3.088
  30 H   -2.872   1.043  -3.148
  31 H    7.597   7.130   3.082
  32 H  -12.267   1.116  -3.154
  33 H    9.979   3.008   3.081
  34 H   -9.885  -3.007  -3.155
  35 H   -9.976  -3.016   3.081
  36 H   -5.252   5.168  -3.155
  37 C   -2.658  14.195   3.107
                                229 S  
                                         3.624E+03 1.634E-03 0.000E+00 0.000E+00
                                         5.440E+02 1.252E-02 0.000E+00 0.000E+00
                                         1.237E+02 6.211E-02 0.000E+00 0.000E+00
                                         3.476E+01 2.182E-01 0.000E+00 0.000E+00
                                         1.093E+01 4.980E-01 0.000E+00 0.000E+00
                                230 S  
                                         3.574E+00 1.000E+00 0.000E+00 0.000E+00
                                231 S  
                                         7.742E-01 1.000E+00 0.000E+00 0.000E+00
                                232 S  
                                         2.330E-01 1.000E+00 0.000E+00 0.000E+00
                         233-   235 P  
                                         9.443E+00 0.000E+00 3.790E-02 0.000E+00
                                         2.002E+00 0.000E+00 2.082E-01 0.000E+00
                                         5.463E-01 0.000E+00 5.047E-01 0.000E+00
                         236-   238 P  
                                         1.820E-01 0.000E+00 1.000E+00 0.000E+00
                         239-   243 D  
                                         8.880E-01 0.000E+00 0.000E+00 1.000E+00
  38 C    2.066  -6.013  -3.129
  39 C   -1.316  11.911   3.089
  40 C    3.408  -8.297  -3.147
  41 C    1.313 -11.910   3.087
  42 C    6.036  -3.727  -3.149
  43 C   -1.317 -11.911   3.092
  44 C    3.407  -3.728  -3.144
  45 C    1.314  11.911   3.079
  46 C    6.037  -8.297  -3.157
  47 C    2.656 -14.195   3.092
  48 C    7.380  -6.012  -3.144
  49 C   13.623  -4.793   3.129
  50 C   -6.241 -10.807  -3.107
  51 C   -9.659   7.096   3.147
  52 C   -4.935 -13.112  -3.089
  53 C    9.658  -7.090   3.149
  54 C   14.382   1.094  -3.087
  55 C   10.973  -4.813   3.144
  56 C   -8.891 -10.827  -3.092
  57 C  -10.973   4.819   3.157
  58 C   -6.249  13.002  -3.079
  59 C   10.964  -9.396   3.144
  60 C   15.688  -1.213  -3.092
  61 C   13.623   4.795   3.107
  62 C   -6.241  -1.219  -3.129
  63 C   -9.658  -7.098   3.089
  64 C   -4.934   1.085  -3.147
  65 C    9.659   7.092   3.087
  66 C  -10.205   1.077  -3.149
  67 C   10.973   4.814   3.092
  68 C   -8.891  -1.200  -3.144
  69 C  -10.973  -4.821   3.079
  70 C   -6.249   3.362  -3.157
  71 C   10.965   9.398   3.092
  72 C   -8.899   3.383  -3.144
  73 O   13.787   0.001   3.113
                                769 S  
                                         6.773E+03 1.727E-03 0.000E+00 0.000E+00
                                         1.017E+03 1.325E-02 0.000E+00 0.000E+00
                                         2.313E+02 6.603E-02 0.000E+00 0.000E+00
                                         6.501E+01 2.353E-01 0.000E+00 0.000E+00
                                         2.050E+01 5.498E-01 0.000E+00 0.000E+00
                                770 S  
                                         6.716E+00 1.000E+00 0.000E+00 0.000E+00
                                771 S  
                                         1.147E+00 1.000E+00 0.000E+00 0.000E+00
                                772 S  
                                         3.342E-01 1.000E+00 0.000E+00 0.000E+00
                         773-   775 P  
                                         1.769E+01 0.000E+00 4.359E-02 0.000E+00
                                         3.854E+00 0.000E+00 2.318E-01 0.000E+00
                                         1.047E+00 0.000E+00 5.146E-01 0.000E+00
                         776-   778 P  
                                         2.759E-01 0.000E+00 1.000E+00 0.000E+00
                         779-   783 D  
                                         8.000E-01 0.000E+00 0.000E+00 1.000E+00
  74 O   -6.077  -6.013  -3.123
  75 O   -6.892  11.939   3.153
  76 O   -2.169  -8.269  -3.083
  77 O   -6.893 -11.939   3.093
  78 O   -2.169  -3.756  -3.143
  79 O    6.893 -11.938   3.113
  80 O   11.616  -3.755  -3.123
  81 O    6.893  11.940   3.153
  82 O   11.617  -8.268  -3.083
  83 O  -13.787  -0.001   3.093
  84 O   -9.064   8.182  -3.143

 *******************************************************************************
 FINISHED BASIS SET HANDLING 
 *******************************************************************************

 INFORMATION **** SET_MPP **** PCRYSTAL CALCULATION
 INFORMATION **** READM2 **** NEW DEFAULT: FOCK/KS MATRIX MIXING SET TO 30 %
 INFORMATION **** READM2 **** NEW DEFAULT: FULL DIRECT SCF MODE
 INFORMATION **** READM2 **** NEW DEFAULT: COULOMB BIPOLAR BUFFER SET TO 32 Mb
 INFORMATION **** READM2 **** NEW DEFAULT: EXCHANGE BIPOLAR BUFFER SET TO 32 Mb

 *******************************************************************************
 NEW DEFAULT: DFT INTEGRATION GRID INCREASED TO XLGRID
 NEW DEFAULT: DIIS ACCELERATOR ACTIVE
 USE KEYWORD NODIIS TO TURN IT OFF
 *******************************************************************************

 WARNING **** RDDFTP **** HSEsol-HJS ACTIVE
 RANGE SEPARATION - OMEGA:   0.110000000000000     
 WARNING **** RDDFTP **** HSEsol-3c has to be combined with sol-def2-mSVP basis set
 *******************************************************************************
 N. OF ATOMS PER CELL        84  COULOMB OVERLAP TOL         (T1) 10**   -6
 NUMBER OF SHELLS           468  COULOMB PENETRATION TOL     (T2) 10**   -6
 NUMBER OF AO               948  EXCHANGE OVERLAP TOL        (T3) 10**   -6
 N. OF ELECTRONS PER CELL   396  EXCHANGE PSEUDO OVP (F(G))  (T4) 10**   -6
 CORE ELECTRONS PER CELL    120  EXCHANGE PSEUDO OVP (P(G))  (T5) 10**  -12
 N. OF SYMMETRY OPERATORS     1  POLE ORDER IN MONO ZONE                  4
 *******************************************************************************
 TYPE OF CALCULATION :  RESTRICTED CLOSED SHELL
 KOHN-SHAM HAMILTONIAN

 (EXCHANGE)[CORRELATION] FUNCTIONAL:(HSEsol GGA)[PBEsol]

 RANGE-SEPARATED HYBRID FUNCTIONAL 
 OMEGA (SHORT-RANGE)[LONG-RANGE]:(    0.1100)[    0.0000]

 HYBRID EXCHANGE - PERCENTAGE OF FOCK EXCHANGE    25.0000

 CAPPA:IS1  2;IS2  2;IS3  8; K PTS MONK NET  20; SYMMOPS:K SPACE   2;G SPACE   1

 *******************************************************************************
 MAX NUMBER OF SCF CYCLES      50  CONVERGENCE ON DELTAP        10**-16
 WEIGHT OF F(I) IN F(I+1)      30% CONVERGENCE ON ENERGY        10**- 6
 SHRINK. FACT.(MONKH.)    2  2  8  NUMBER OF K POINTS IN THE IBZ     20
 SHRINKING FACTOR(GILAT NET)    8  NUMBER OF K POINTS(GILAT NET)   1028
 *******************************************************************************
 *** K POINTS COORDINATES (OBLIQUE COORDINATES IN UNITS OF IS =  2)
   1-R(  0  0  0)   2-R(  1  0  0)   3-R(  0  1  0)   4-R(  1  1  0)
   5-C(  0  0  1)   6-C(  1  0  1)   7-C(  0  1  1)   8-C(  1  1  1)
   9-C(  0  0  2)  10-C(  1  0  2)  11-C(  0  1  2)  12-C(  1  1  2)
  13-C(  0  0  3)  14-C(  1  0  3)  15-C(  0  1  3)  16-C(  1  1  3)
  17-R(  0  0  4)  18-R(  1  0  4)  19-R(  0  1  4)  20-R(  1  1  4)

 DIRECT LATTICE VECTORS COMPON. (A.U.)     RECIP. LATTICE VECTORS COMPON. (A.U.) 
        X            Y            Z              X            Y            Z
   24.5879030  -14.1935232    0.0000000      0.2555397    0.0000000    0.0000005
    0.0000000   28.3910867    0.0000000      0.1277517    0.2213084    0.0000015
   -0.0000265   -0.0000703   12.4721925      0.0000000    0.0000000    0.5037755

 DISK SPACE FOR EIGENVECTORS (FTN 10)    28758528 REALS

 SYMMETRY ADAPTION OF THE BLOCH FUNCTIONS DISABLED
 TTTTTTTTTTTTTTTTTTTTTTTTTTTTTT gordsh1     TELAPSE        0.05 TCPU        0.05

 MATRIX SIZE: P(G)  772374, F(G)  145309, P(G) IRR  388353, F(G) IRR  146341
 MAX G-VECTOR INDEX FOR 1- AND 2-ELECTRON INTEGRALS  55

 TTTTTTTTTTTTTTTTTTTTTTTTTTTTTT INPUT       TELAPSE        2.77 TCPU        2.77

 NEIGHBORS OF THE NON-EQUIVALENT ATOMS

 N = NUMBER OF NEIGHBORS AT DISTANCE R
    ATOM  N     R/ANG      R/AU   NEIGHBORS (ATOM LABELS AND CELL INDICES)
   1 B    1     1.3791     2.6061   73 O   -1 0 0
   1 B    1     1.3793     2.6065   75 O    0 0 0
   1 B    1     1.5503     2.9297   49 C   -1 0 0
   1 B    1     2.3895     4.5155    5 B    0 1 0
   1 B    1     2.3898     4.5160    3 B    0 0 0
   1 B    1     2.5632     4.8437   51 C    0 0 0

   2 B    1     1.3791     2.6061   74 O    0 0 0
   2 B    1     1.3793     2.6065   76 O    0 0 0
   2 B    1     1.5503     2.9297   50 C    0 0 0
   2 B    1     2.3895     4.5155    6 B    0 0 0
   2 B    1     2.3898     4.5160    4 B    0 0 0
   2 B    1     2.5632     4.8437   52 C    0 0 0

   3 B    1     1.3793     2.6065   77 O    0 1 0
   3 B    1     1.3793     2.6065   75 O    0 0 0
   3 B    1     1.5504     2.9298   37 C    0 0 0
   3 B    1     2.3895     4.5156    5 B    0 1 0
   3 B    1     2.3898     4.5160    1 B    0 0 0
   3 B    1     2.5634     4.8440   43 C    0 1 0

   4 B    1     1.3793     2.6065   78 O    0 0 0
   4 B    1     1.3793     2.6065   76 O    0 0 0
   4 B    1     1.5504     2.9298   38 C    0 0 0
   4 B    1     2.3895     4.5156    6 B    0 0 0
   4 B    1     2.3898     4.5160    2 B    0 0 0
   4 B    1     2.5634     4.8440   44 C    0 0 0

   5 B    1     1.3791     2.6061   73 O   -1-1 0
   5 B    1     1.3793     2.6064   77 O    0 0 0
   5 B    1     1.5502     2.9294   61 C   -1-1 0
   5 B    1     2.3895     4.5155    1 B    0-1 0
   5 B    1     2.3895     4.5156    3 B    0-1 0
   5 B    1     2.5629     4.8433   63 C    0 0 0

   6 B    1     1.3791     2.6061   74 O    0 0 0
   6 B    1     1.3793     2.6064   78 O    0 0 0
   6 B    1     1.5502     2.9294   62 C    0 0 0
   6 B    1     2.3895     4.5155    2 B    0 0 0
   6 B    1     2.3895     4.5156    4 B    0 0 0
   6 B    1     2.5629     4.8433   64 C    0 0 0

   7 B    1     1.3795     2.6068   79 O    0 0 0
   7 B    1     1.3795     2.6070   81 O    0-1 0
   7 B    1     1.5513     2.9316   47 C    0 0 0
   7 B    1     2.3905     4.5174   11 B    0 0 0
   7 B    1     2.3905     4.5175    9 B    0-1 0
   7 B    1     2.5648     4.8468   45 C    0-1 0

   8 B    1     1.3795     2.6068   80 O    0 0 0
   8 B    1     1.3795     2.6070   82 O    0 0 0
   8 B    1     1.5513     2.9316   48 C    0 0 0
   8 B    1     2.3905     4.5174   12 B    0 0 0
   8 B    1     2.3905     4.5175   10 B    1 0 0
   8 B    1     2.5648     4.8468   46 C    0 0 0

   9 B    1     1.3795     2.6069   81 O    0 0 0
   9 B    1     1.3797     2.6072   83 O    1 1 0
   9 B    1     1.5516     2.9322   71 C    0 0 0
   9 B    1     2.3905     4.5175    7 B    0 1 0
   9 B    1     2.3911     4.5185   11 B    0 1 0
   9 B    1     2.5651     4.8473   69 C    1 1 0

  10 B    1     1.3795     2.6069   82 O   -1 0 0
  10 B    1     1.3797     2.6072   84 O    0 0 0
  10 B    1     1.5516     2.9322   72 C    0 0 0
  10 B    1     2.3905     4.5175    8 B   -1 0 0
  10 B    1     2.3911     4.5185   12 B   -1 0 0
  10 B    1     2.5651     4.8473   70 C    0 0 0

  11 B    1     1.3795     2.6068   79 O    0 0 0
  11 B    1     1.3796     2.6071   83 O    1 0 0
  11 B    1     1.5516     2.9322   59 C    0 0 0
  11 B    1     2.3905     4.5174    7 B    0 0 0
  11 B    1     2.3911     4.5185    9 B    0-1 0
  11 B    1     2.5651     4.8473   57 C    1 0 0

  12 B    1     1.3795     2.6068   80 O    0 0 0
  12 B    1     1.3796     2.6071   84 O    1 0 0
  12 B    1     1.5516     2.9322   60 C    0 0 0
  12 B    1     2.3905     4.5174    8 B    0 0 0
  12 B    1     2.3911     4.5185   10 B    1 0 0
  12 B    1     2.5651     4.8473   58 C    1 0 0

  13 H    1     1.0913     2.0623   39 C    0 0 0
  13 H    1     2.1472     4.0576   37 C    0 0 0
  13 H    1     2.1680     4.0969   45 C    0 0 0
  13 H    1     2.5202     4.7625   19 H    0 0 0
  13 H    1     2.5676     4.8520   75 O    0 0 0
  13 H    1     2.7321     5.1630    3 B    0 0 0

  14 H    1     1.0913     2.0623   40 C    0 0 0
  14 H    1     2.1472     4.0576   38 C    0 0 0
  14 H    1     2.1680     4.0969   46 C    0 0 0
  14 H    1     2.5202     4.7625   20 H    0 0 0
  14 H    1     2.5676     4.8520   76 O    0 0 0
  14 H    1     2.7321     5.1630    4 B    0 0 0

  15 H    1     1.0914     2.0625   41 C    0 0 0
  15 H    1     2.1493     4.0616   47 C    0 0 0
  15 H    1     2.1666     4.0942   43 C    0 0 0
  15 H    1     2.5198     4.7618   17 H    0 0 0
  15 H    1     2.5720     4.8604   79 O    0 0 0
  15 H    1     2.7362     5.1707    7 B    0 0 0

  16 H    1     1.0914     2.0625   42 C    0 0 0
  16 H    1     2.1493     4.0616   48 C    0 0 0
  16 H    1     2.1666     4.0942   44 C    0 0 0
  16 H    1     2.5198     4.7618   18 H    0 0 0
  16 H    1     2.5720     4.8604   80 O    0 0 0
  16 H    1     2.7362     5.1707    8 B    0 0 0

  17 H    1     1.0914     2.0624   43 C    0 0 0
  17 H    1     2.1471     4.0575   37 C    0-1 0
  17 H    1     2.1680     4.0970   41 C    0 0 0
  17 H    1     2.5198     4.7618   15 H    0 0 0
  17 H    1     2.5665     4.8500   77 O    0 0 0
  17 H    1     2.7315     5.1618    3 B    0-1 0

  18 H    1     1.0914     2.0624   44 C    0 0 0
  18 H    1     2.1471     4.0575   38 C    0 0 0
  18 H    1     2.1680     4.0970   42 C    0 0 0
  18 H    1     2.5198     4.7618   16 H    0 0 0
  18 H    1     2.5665     4.8500   78 O    0 0 0
  18 H    1     2.7315     5.1618    4 B    0 0 0

  19 H    1     1.0915     2.0626   45 C    0 0 0
  19 H    1     2.1490     4.0610   47 C    0 1 0
  19 H    1     2.1669     4.0948   39 C    0 0 0
  19 H    1     2.5202     4.7625   13 H    0 0 0
  19 H    1     2.5712     4.8588   81 O    0 0 0
  19 H    1     2.7351     5.1686    7 B    0 1 0

  20 H    1     1.0915     2.0626   46 C    0 0 0
  20 H    1     2.1490     4.0610   48 C    0 0 0
  20 H    1     2.1669     4.0948   40 C    0 0 0
  20 H    1     2.5202     4.7625   14 H    0 0 0
  20 H    1     2.5712     4.8588   82 O    0 0 0
  20 H    1     2.7351     5.1686    8 B    0 0 0

  21 H    1     1.0913     2.0623   51 C    0 0 0
  21 H    1     2.1469     4.0571   49 C   -1 0 0
  21 H    1     2.1680     4.0968   57 C    0 0 0
  21 H    1     2.5198     4.7617   27 H    0 0 0
  21 H    1     2.5670     4.8510   75 O    0 0 0
  21 H    1     2.7310     5.1609    1 B    0 0 0

  22 H    1     1.0913     2.0623   52 C    0 0 0
  22 H    1     2.1469     4.0571   50 C    0 0 0
  22 H    1     2.1680     4.0968   58 C    0-1 0
  22 H    1     2.5198     4.7617   28 H    0-1 0
  22 H    1     2.5670     4.8510   76 O    0 0 0
  22 H    1     2.7310     5.1609    2 B    0 0 0

  23 H    1     1.0914     2.0625   53 C    0 0 0
  23 H    1     2.1493     4.0617   59 C    0 0 0
  23 H    1     2.1664     4.0939   55 C    0 0 0
  23 H    1     2.5192     4.7606   25 H    0 0 0
  23 H    1     2.5735     4.8632   79 O    0 0 0
  23 H    1     2.7371     5.1723   11 B    0 0 0

  24 H    1     1.0914     2.0625   54 C    0 0 0
  24 H    1     2.1493     4.0617   60 C    0 0 0
  24 H    1     2.1664     4.0939   56 C    1 1 0
  24 H    1     2.5192     4.7606   26 H    1 1 0
  24 H    1     2.5735     4.8632   80 O    0 0 0
  24 H    1     2.7371     5.1723   12 B    0 0 0

  25 H    1     1.0914     2.0624   55 C    0 0 0
  25 H    1     2.1475     4.0581   49 C    0 0 0
  25 H    1     2.1679     4.0967   53 C    0 0 0
  25 H    1     2.5192     4.7606   23 H    0 0 0
  25 H    1     2.5675     4.8519   73 O    0 0 0
  25 H    1     2.7328     5.1643    1 B    1 0 0

  26 H    1     1.0914     2.0624   56 C    0 0 0
  26 H    1     2.1475     4.0581   50 C    0 0 0
  26 H    1     2.1679     4.0967   54 C   -1-1 0
  26 H    1     2.5192     4.7606   24 H   -1-1 0
  26 H    1     2.5675     4.8519   74 O    0 0 0
  26 H    1     2.7328     5.1643    2 B    0 0 0

  27 H    1     1.0914     2.0625   57 C    0 0 0
  27 H    1     2.1491     4.0612   59 C   -1 0 0
  27 H    1     2.1666     4.0942   51 C    0 0 0
  27 H    1     2.5198     4.7617   21 H    0 0 0
  27 H    1     2.5723     4.8609   83 O    0 0 0
  27 H    1     2.7355     5.1693   11 B   -1 0 0

  28 H    1     1.0914     2.0625   58 C    0 0 0
  28 H    1     2.1491     4.0612   60 C   -1 0 0
  28 H    1     2.1666     4.0942   52 C    0 1 0
  28 H    1     2.5198     4.7617   22 H    0 1 0
  28 H    1     2.5723     4.8609   84 O    0 0 0
  28 H    1     2.7355     5.1693   12 B   -1 0 0

  29 H    1     1.0914     2.0624   63 C    0 0 0
  29 H    1     2.1475     4.0582   61 C   -1-1 0
  29 H    1     2.1678     4.0966   69 C    0 0 0
  29 H    1     2.5200     4.7621   35 H    0 0 0
  29 H    1     2.5667     4.8503   77 O    0 0 0
  29 H    1     2.7315     5.1618    5 B    0 0 0

  30 H    1     1.0914     2.0624   64 C    0 0 0
  30 H    1     2.1475     4.0582   62 C    0 0 0
  30 H    1     2.1678     4.0966   70 C    0 0 0
  30 H    1     2.5200     4.7621   36 H    0 0 0
  30 H    1     2.5667     4.8503   78 O    0 0 0
  30 H    1     2.7315     5.1618    6 B    0 0 0

  31 H    1     1.0913     2.0623   65 C    0 0 0
  31 H    1     2.1487     4.0605   71 C    0 0 0
  31 H    1     2.1667     4.0945   67 C    0 0 0
  31 H    1     2.5197     4.7616   33 H    0 0 0
  31 H    1     2.5723     4.8610   81 O    0 0 0
  31 H    1     2.7359     5.1701    9 B    0 0 0

  32 H    1     1.0913     2.0623   66 C    0 0 0
  32 H    1     2.1487     4.0605   72 C    0 0 0
  32 H    1     2.1667     4.0945   68 C    0 0 0
  32 H    1     2.5197     4.7616   34 H    0 0 0
  32 H    1     2.5723     4.8610   82 O   -1 0 0
  32 H    1     2.7359     5.1701   10 B    0 0 0

  33 H    1     1.0915     2.0626   67 C    0 0 0
  33 H    1     2.1479     4.0589   61 C    0 0 0
  33 H    1     2.1679     4.0968   65 C    0 0 0
  33 H    1     2.5197     4.7616   31 H    0 0 0
  33 H    1     2.5677     4.8522   73 O    0 0 0
  33 H    1     2.7331     5.1648    5 B    1 1 0

  34 H    1     1.0915     2.0626   68 C    0 0 0
  34 H    1     2.1479     4.0589   62 C    0 0 0
  34 H    1     2.1679     4.0968   66 C    0 0 0
  34 H    1     2.5197     4.7616   32 H    0 0 0
  34 H    1     2.5677     4.8522   74 O    0 0 0
  34 H    1     2.7331     5.1648    6 B    0 0 0

  35 H    1     1.0914     2.0624   69 C    0 0 0
  35 H    1     2.1486     4.0602   71 C   -1-1 0
  35 H    1     2.1668     4.0947   63 C    0 0 0
  35 H    1     2.5200     4.7621   29 H    0 0 0
  35 H    1     2.5717     4.8598   83 O    0 0 0
  35 H    1     2.7349     5.1682    9 B   -1-1 0

  36 H    1     1.0914     2.0624   70 C    0 0 0
  36 H    1     2.1486     4.0602   72 C    0 0 0
  36 H    1     2.1668     4.0947   64 C    0 0 0
  36 H    1     2.5200     4.7621   30 H    0 0 0
  36 H    1     2.5717     4.8598   84 O    0 0 0
  36 H    1     2.7349     5.1682   10 B    0 0 0

  37 C    1     1.4020     2.6495   43 C    0 1 0
  37 C    1     1.4021     2.6495   39 C    0 0 0
  37 C    1     1.5504     2.9298    3 B    0 0 0
  37 C    1     2.1471     4.0575   17 H    0 1 0
  37 C    1     2.1472     4.0576   13 H    0 0 0
  37 C    1     2.4246     4.5817   41 C    0 1 0

  38 C    1     1.4020     2.6495   44 C    0 0 0
  38 C    1     1.4021     2.6495   40 C    0 0 0
  38 C    1     1.5504     2.9298    4 B    0 0 0
  38 C    1     2.1471     4.0575   18 H    0 0 0
  38 C    1     2.1472     4.0576   14 H    0 0 0
  38 C    1     2.4246     4.5817   42 C    0 0 0

  39 C    1     1.0913     2.0623   13 H    0 0 0
  39 C    1     1.3914     2.6294   45 C    0 0 0
  39 C    1     1.4021     2.6495   37 C    0 0 0
  39 C    1     2.1669     4.0948   19 H    0 0 0
  39 C    1     2.4177     4.5688   43 C    0 1 0
  39 C    1     2.4250     4.5825   47 C    0 1 0

  40 C    1     1.0913     2.0623   14 H    0 0 0
  40 C    1     1.3914     2.6294   46 C    0 0 0
  40 C    1     1.4021     2.6495   38 C    0 0 0
  40 C    1     2.1669     4.0948   20 H    0 0 0
  40 C    1     2.4177     4.5688   44 C    0 0 0
  40 C    1     2.4250     4.5825   48 C    0 0 0

  41 C    1     1.0914     2.0625   15 H    0 0 0
  41 C    1     1.3914     2.6293   43 C    0 0 0
  41 C    1     1.4026     2.6505   47 C    0 0 0
  41 C    1     2.1680     4.0970   17 H    0 0 0
  41 C    1     2.4182     4.5697   45 C    0-1 0
  41 C    1     2.4246     4.5817   37 C    0-1 0

  42 C    1     1.0914     2.0625   16 H    0 0 0
  42 C    1     1.3914     2.6293   44 C    0 0 0
  42 C    1     1.4026     2.6505   48 C    0 0 0
  42 C    1     2.1680     4.0970   18 H    0 0 0
  42 C    1     2.4182     4.5697   46 C    0 0 0
  42 C    1     2.4246     4.5817   38 C    0 0 0

  43 C    1     1.0914     2.0624   17 H    0 0 0
  43 C    1     1.3914     2.6293   41 C    0 0 0
  43 C    1     1.4020     2.6495   37 C    0-1 0
  43 C    1     2.1666     4.0942   15 H    0 0 0
  43 C    1     2.4177     4.5688   39 C    0-1 0
  43 C    1     2.4250     4.5826   47 C    0 0 0

  44 C    1     1.0914     2.0624   18 H    0 0 0
  44 C    1     1.3914     2.6293   42 C    0 0 0
  44 C    1     1.4020     2.6495   38 C    0 0 0
  44 C    1     2.1666     4.0942   16 H    0 0 0
  44 C    1     2.4177     4.5688   40 C    0 0 0
  44 C    1     2.4250     4.5826   48 C    0 0 0

  45 C    1     1.0915     2.0626   19 H    0 0 0
  45 C    1     1.3914     2.6294   39 C    0 0 0
  45 C    1     1.4025     2.6504   47 C    0 1 0
  45 C    1     2.1680     4.0969   13 H    0 0 0
  45 C    1     2.4182     4.5697   41 C    0 1 0
  45 C    1     2.4246     4.5818   37 C    0 0 0

  46 C    1     1.0915     2.0626   20 H    0 0 0
  46 C    1     1.3914     2.6294   40 C    0 0 0
  46 C    1     1.4025     2.6504   48 C    0 0 0
  46 C    1     2.1680     4.0969   14 H    0 0 0
  46 C    1     2.4182     4.5697   42 C    0 0 0
  46 C    1     2.4246     4.5818   38 C    0 0 0

  47 C    1     1.4025     2.6504   45 C    0-1 0
  47 C    1     1.4026     2.6505   41 C    0 0 0
  47 C    1     1.5513     2.9316    7 B    0 0 0
  47 C    1     2.1490     4.0610   19 H    0-1 0
  47 C    1     2.1493     4.0616   15 H    0 0 0
  47 C    1     2.4250     4.5825   39 C    0-1 0

  48 C    1     1.4025     2.6504   46 C    0 0 0
  48 C    1     1.4026     2.6505   42 C    0 0 0
  48 C    1     1.5513     2.9316    8 B    0 0 0
  48 C    1     2.1490     4.0610   20 H    0 0 0
  48 C    1     2.1493     4.0616   16 H    0 0 0
  48 C    1     2.4250     4.5825   40 C    0 0 0

  49 C    1     1.4020     2.6494   51 C    1 0 0
  49 C    1     1.4021     2.6495   55 C    0 0 0
  49 C    1     1.5503     2.9297    1 B    1 0 0
  49 C    1     2.1469     4.0571   21 H    1 0 0
  49 C    1     2.1475     4.0581   25 H    0 0 0
  49 C    1     2.4246     4.5818   53 C    0 0 0

  50 C    1     1.4020     2.6494   52 C    0 0 0
  50 C    1     1.4021     2.6495   56 C    0 0 0
  50 C    1     1.5503     2.9297    2 B    0 0 0
  50 C    1     2.1469     4.0571   22 H    0 0 0
  50 C    1     2.1475     4.0581   26 H    0 0 0
  50 C    1     2.4246     4.5818   54 C   -1-1 0

  51 C    1     1.0913     2.0623   21 H    0 0 0
  51 C    1     1.3914     2.6293   57 C    0 0 0
  51 C    1     1.4020     2.6494   49 C   -1 0 0
  51 C    1     2.1666     4.0942   27 H    0 0 0
  51 C    1     2.4175     4.5684   55 C   -1 0 0
  51 C    1     2.4251     4.5828   59 C   -1 0 0

  52 C    1     1.0913     2.0623   22 H    0 0 0
  52 C    1     1.3914     2.6293   58 C    0-1 0
  52 C    1     1.4020     2.6494   50 C    0 0 0
  52 C    1     2.1666     4.0942   28 H    0-1 0
  52 C    1     2.4175     4.5684   56 C    0 0 0
  52 C    1     2.4251     4.5828   60 C   -1-1 0

  53 C    1     1.0914     2.0625   23 H    0 0 0
  53 C    1     1.3915     2.6295   55 C    0 0 0
  53 C    1     1.4026     2.6505   59 C    0 0 0
  53 C    1     2.1679     4.0967   25 H    0 0 0
  53 C    1     2.4179     4.5691   57 C    1 0 0
  53 C    1     2.4246     4.5818   49 C    0 0 0

  54 C    1     1.0914     2.0625   24 H    0 0 0
  54 C    1     1.3915     2.6295   56 C    1 1 0
  54 C    1     1.4026     2.6505   60 C    0 0 0
  54 C    1     2.1679     4.0967   26 H    1 1 0
  54 C    1     2.4179     4.5691   58 C    1 0 0
  54 C    1     2.4246     4.5818   50 C    1 1 0

  55 C    1     1.0914     2.0624   25 H    0 0 0
  55 C    1     1.3915     2.6295   53 C    0 0 0
  55 C    1     1.4021     2.6495   49 C    0 0 0
  55 C    1     2.1664     4.0939   23 H    0 0 0
  55 C    1     2.4175     4.5684   51 C    1 0 0
  55 C    1     2.4253     4.5832   59 C    0 0 0

  56 C    1     1.0914     2.0624   26 H    0 0 0
  56 C    1     1.3915     2.6295   54 C   -1-1 0
  56 C    1     1.4021     2.6495   50 C    0 0 0
  56 C    1     2.1664     4.0939   24 H   -1-1 0
  56 C    1     2.4175     4.5684   52 C    0 0 0
  56 C    1     2.4253     4.5832   60 C   -1-1 0

  57 C    1     1.0914     2.0625   27 H    0 0 0
  57 C    1     1.3914     2.6293   51 C    0 0 0
  57 C    1     1.4025     2.6504   59 C   -1 0 0
  57 C    1     2.1680     4.0968   21 H    0 0 0
  57 C    1     2.4179     4.5691   53 C   -1 0 0
  57 C    1     2.4247     4.5819   49 C   -1 0 0

  58 C    1     1.0914     2.0625   28 H    0 0 0
  58 C    1     1.3914     2.6293   52 C    0 1 0
  58 C    1     1.4025     2.6504   60 C   -1 0 0
  58 C    1     2.1680     4.0968   22 H    0 1 0
  58 C    1     2.4179     4.5691   54 C   -1 0 0
  58 C    1     2.4247     4.5819   50 C    0 1 0

  59 C    1     1.4025     2.6504   57 C    1 0 0
  59 C    1     1.4026     2.6505   53 C    0 0 0
  59 C    1     1.5516     2.9322   11 B    0 0 0
  59 C    1     2.1491     4.0612   27 H    1 0 0
  59 C    1     2.1493     4.0617   23 H    0 0 0
  59 C    1     2.4251     4.5828   51 C    1 0 0

  60 C    1     1.4025     2.6504   58 C    1 0 0
  60 C    1     1.4026     2.6505   54 C    0 0 0
  60 C    1     1.5516     2.9322   12 B    0 0 0
  60 C    1     2.1491     4.0612   28 H    1 0 0
  60 C    1     2.1493     4.0617   24 H    0 0 0
  60 C    1     2.4251     4.5828   52 C    1 1 0

  61 C    1     1.4021     2.6496   63 C    1 1 0
  61 C    1     1.4021     2.6497   67 C    0 0 0
  61 C    1     1.5502     2.9294    5 B    1 1 0
  61 C    1     2.1475     4.0582   29 H    1 1 0
  61 C    1     2.1479     4.0589   33 H    0 0 0
  61 C    1     2.4244     4.5814   65 C    0 0 0

  62 C    1     1.4021     2.6496   64 C    0 0 0
  62 C    1     1.4021     2.6497   68 C    0 0 0
  62 C    1     1.5502     2.9294    6 B    0 0 0
  62 C    1     2.1475     4.0582   30 H    0 0 0
  62 C    1     2.1479     4.0589   34 H    0 0 0
  62 C    1     2.4244     4.5814   66 C    0 0 0

  63 C    1     1.0914     2.0624   29 H    0 0 0
  63 C    1     1.3914     2.6293   69 C    0 0 0
  63 C    1     1.4021     2.6496   61 C   -1-1 0
  63 C    1     2.1668     4.0947   35 H    0 0 0
  63 C    1     2.4179     4.5692   67 C   -1-1 0
  63 C    1     2.4251     4.5827   71 C   -1-1 0

  64 C    1     1.0914     2.0624   30 H    0 0 0
  64 C    1     1.3914     2.6293   70 C    0 0 0
  64 C    1     1.4021     2.6496   62 C    0 0 0
  64 C    1     2.1668     4.0947   36 H    0 0 0
  64 C    1     2.4179     4.5692   68 C    0 0 0
  64 C    1     2.4251     4.5827   72 C    0 0 0

  65 C    1     1.0913     2.0623   31 H    0 0 0
  65 C    1     1.3914     2.6294   67 C    0 0 0
  65 C    1     1.4025     2.6504   71 C    0 0 0
  65 C    1     2.1679     4.0968   33 H    0 0 0
  65 C    1     2.4178     4.5690   69 C    1 1 0
  65 C    1     2.4244     4.5814   61 C    0 0 0

  66 C    1     1.0913     2.0623   32 H    0 0 0
  66 C    1     1.3914     2.6294   68 C    0 0 0
  66 C    1     1.4025     2.6504   72 C    0 0 0
  66 C    1     2.1679     4.0968   34 H    0 0 0
  66 C    1     2.4178     4.5690   70 C    0 0 0
  66 C    1     2.4244     4.5814   62 C    0 0 0

  67 C    1     1.0915     2.0626   33 H    0 0 0
  67 C    1     1.3914     2.6294   65 C    0 0 0
  67 C    1     1.4021     2.6497   61 C    0 0 0
  67 C    1     2.1667     4.0945   31 H    0 0 0
  67 C    1     2.4179     4.5692   63 C    1 1 0
  67 C    1     2.4253     4.5832   71 C    0 0 0

  68 C    1     1.0915     2.0626   34 H    0 0 0
  68 C    1     1.3914     2.6294   66 C    0 0 0
  68 C    1     1.4021     2.6497   62 C    0 0 0
  68 C    1     2.1667     4.0945   32 H    0 0 0
  68 C    1     2.4179     4.5692   64 C    0 0 0
  68 C    1     2.4253     4.5832   72 C    0 0 0

  69 C    1     1.0914     2.0624   35 H    0 0 0
  69 C    1     1.3914     2.6293   63 C    0 0 0
  69 C    1     1.4025     2.6503   71 C   -1-1 0
  69 C    1     2.1678     4.0966   29 H    0 0 0
  69 C    1     2.4178     4.5690   65 C   -1-1 0
  69 C    1     2.4245     4.5817   61 C   -1-1 0

  70 C    1     1.0914     2.0624   36 H    0 0 0
  70 C    1     1.3914     2.6293   64 C    0 0 0
  70 C    1     1.4025     2.6503   72 C    0 0 0
  70 C    1     2.1678     4.0966   30 H    0 0 0
  70 C    1     2.4178     4.5690   66 C    0 0 0
  70 C    1     2.4245     4.5817   62 C    0 0 0

  71 C    1     1.4025     2.6503   69 C    1 1 0
  71 C    1     1.4025     2.6504   65 C    0 0 0
  71 C    1     1.5516     2.9322    9 B    0 0 0
  71 C    1     2.1486     4.0602   35 H    1 1 0
  71 C    1     2.1487     4.0605   31 H    0 0 0
  71 C    1     2.4251     4.5827   63 C    1 1 0

  72 C    1     1.4025     2.6503   70 C    0 0 0
  72 C    1     1.4025     2.6504   66 C    0 0 0
  72 C    1     1.5516     2.9322   10 B    0 0 0
  72 C    1     2.1486     4.0602   36 H    0 0 0
  72 C    1     2.1487     4.0605   32 H    0 0 0
  72 C    1     2.4251     4.5827   64 C    0 0 0

  73 O    1     1.3791     2.6061    1 B    1 0 0
  73 O    1     1.3791     2.6061    5 B    1 1 0
  73 O    1     2.3880     4.5126   75 O    1 0 0
  73 O    1     2.3882     4.5130   77 O    1 1 0
  73 O    1     2.5383     4.7966   61 C    0 0 0
  73 O    1     2.5384     4.7968   49 C    0 0 0

  74 O    1     1.3791     2.6061    2 B    0 0 0
  74 O    1     1.3791     2.6061    6 B    0 0 0
  74 O    1     2.3880     4.5126   76 O    0 0 0
  74 O    1     2.3882     4.5130   78 O    0 0 0
  74 O    1     2.5383     4.7966   62 C    0 0 0
  74 O    1     2.5384     4.7968   50 C    0 0 0

  75 O    1     1.3793     2.6065    1 B    0 0 0
  75 O    1     1.3793     2.6065    3 B    0 0 0
  75 O    1     2.3880     4.5126   73 O   -1 0 0
  75 O    1     2.3882     4.5131   77 O    0 1 0
  75 O    1     2.5391     4.7981   37 C    0 0 0
  75 O    1     2.5395     4.7990   49 C   -1 0 0

  76 O    1     1.3793     2.6065    2 B    0 0 0
  76 O    1     1.3793     2.6065    4 B    0 0 0
  76 O    1     2.3880     4.5126   74 O    0 0 0
  76 O    1     2.3882     4.5131   78 O    0 0 0
  76 O    1     2.5391     4.7981   38 C    0 0 0
  76 O    1     2.5395     4.7990   50 C    0 0 0

  77 O    1     1.3793     2.6064    5 B    0 0 0
  77 O    1     1.3793     2.6065    3 B    0-1 0
  77 O    1     2.3882     4.5130   73 O   -1-1 0
  77 O    1     2.3882     4.5131   75 O    0-1 0
  77 O    1     2.5390     4.7980   37 C    0-1 0
  77 O    1     2.5391     4.7982   61 C   -1-1 0

  78 O    1     1.3793     2.6064    6 B    0 0 0
  78 O    1     1.3793     2.6065    4 B    0 0 0
  78 O    1     2.3882     4.5130   74 O    0 0 0
  78 O    1     2.3882     4.5131   76 O    0 0 0
  78 O    1     2.5390     4.7980   38 C    0 0 0
  78 O    1     2.5391     4.7982   62 C    0 0 0

  79 O    1     1.3795     2.6068   11 B    0 0 0
  79 O    1     1.3795     2.6068    7 B    0 0 0
  79 O    1     2.3880     4.5126   83 O    1 0 0
  79 O    1     2.3884     4.5134   81 O    0-1 0
  79 O    1     2.5400     4.7998   47 C    0 0 0
  79 O    1     2.5403     4.8005   59 C    0 0 0

  80 O    1     1.3795     2.6068   12 B    0 0 0
  80 O    1     1.3795     2.6068    8 B    0 0 0
  80 O    1     2.3880     4.5126   84 O    1 0 0
  80 O    1     2.3884     4.5134   82 O    0 0 0
  80 O    1     2.5400     4.7998   48 C    0 0 0
  80 O    1     2.5403     4.8005   60 C    0 0 0

  81 O    1     1.3795     2.6069    9 B    0 0 0
  81 O    1     1.3795     2.6070    7 B    0 1 0
  81 O    1     2.3881     4.5128   83 O    1 1 0
  81 O    1     2.3884     4.5134   79 O    0 1 0
  81 O    1     2.5404     4.8006   47 C    0 1 0
  81 O    1     2.5405     4.8008   71 C    0 0 0

  82 O    1     1.3795     2.6069   10 B    1 0 0
  82 O    1     1.3795     2.6070    8 B    0 0 0
  82 O    1     2.3881     4.5128   84 O    1 0 0
  82 O    1     2.3884     4.5134   80 O    0 0 0
  82 O    1     2.5404     4.8006   48 C    0 0 0
  82 O    1     2.5405     4.8008   72 C    1 0 0

  83 O    1     1.3796     2.6071   11 B   -1 0 0
  83 O    1     1.3797     2.6072    9 B   -1-1 0
  83 O    1     2.3880     4.5126   79 O   -1 0 0
  83 O    1     2.3881     4.5128   81 O   -1-1 0
  83 O    1     2.5409     4.8016   71 C   -1-1 0
  83 O    1     2.5410     4.8019   59 C   -1 0 0

  84 O    1     1.3796     2.6071   12 B   -1 0 0
  84 O    1     1.3797     2.6072   10 B    0 0 0
  84 O    1     2.3880     4.5126   80 O   -1 0 0
  84 O    1     2.3881     4.5128   82 O   -1 0 0
  84 O    1     2.5409     4.8016   72 C    0 0 0
  84 O    1     2.5410     4.8019   60 C   -1 0 0


 SYMMETRY ALLOWED INTERNAL DEGREE(S) OF FREEDOM: 249
 TTTTTTTTTTTTTTTTTTTTTTTTTTTTTT SYMM        TELAPSE        2.78 TCPU        2.77
 TTTTTTTTTTTTTTTTTTTTTTTTTTTTTT INT_SCREEN  TELAPSE        2.99 TCPU        2.99

 DFT PARAMETERS

     ATOM       ELECTRONS   NET CHARGE   R(ANGSTROM)
   1   5  B       5.0000      0.0000     0.89000000
  13   1  H       1.0000      0.0000     1.11000000
  37   6  C       6.0000      0.0000     0.77000000
  73   8  O       8.0000      0.0000     0.74000000

 SIZE OF GRID=    2525250
 TTTTTTTTTTTTTTTTTTTTTTTTTTTTTT MAKE_GRID2  TELAPSE       25.79 TCPU       25.76
 BECKE WEIGHT FUNCTION
 RADSAFE =     2.00
 TOLERANCES - DENSITY:10**- 6; POTENTIAL:10**- 9; GRID WGT:10**-14

 RADIAL INTEGRATION  - INTERVALS (POINTS,UPPER LIMIT):            1( 75,  4.0*R)

 ANGULAR INTEGRATION - INTERVALS (ACCURACY LEVEL [N. POINTS] UPPER LIMIT):
  1(  4[  86]   0.2)  2(  8[ 194]   0.5)  3( 12[ 350]   0.9)  4( 16[ 974]   3.5)
  5( 12[ 350]9999.0)
 TTTTTTTTTTTTTTTTTTTTTTTTTTTTTT INT_CALC    TELAPSE       26.07 TCPU       26.04
 EEEEEEEEEE INT_CALC TERMINATION  DATE 19 02 2026 TIME 19:57:51.2

 *******************************************************************************
 cof-1_z33_L050_serr                                                             
 CRYSTAL - SCF - TYPE OF CALCULATION :  RESTRICTED CLOSED SHELL
 *******************************************************************************

 CAPPA:IS1  2;IS2  2;IS3  8; K PTS MONK NET  20; SYMMOPS:K SPACE   2;G SPACE   1

 TTTTTTTTTTTTTTTTTTTTTTTTTTTTTT SDIK        TELAPSE       28.11 TCPU       47.57

 AAAAAAAAAAAAAAAAAAAAAAAAAAAAAAAAAAAAAAAAAAAAAAAAAAAAAAAAAAAAAAAAAAAAAAAAAAAAAAA
         ATOMIC WAVEFUNCTION(S)


 NUCLEAR CHARGE  5.0  SYMMETRY SPECIES            S    P
 N. ELECTRONS    5.0  NUMBER OF PRIMITIVE GTOS    8    4
                      NUMBER OF CONTRACTED GTOS   4    2
                      NUMBER OF CLOSED SHELLS     2    0
                      OPEN SHELL OCCUPATION       0    1

  ZNUC  SCFIT    TOTAL HF ENERGY   KINETIC ENERGY   VIRIAL THEOREM ACCURACY
   5.0    11    -2.451164084E+01  2.462155050E+01 -1.995536038E+00  1.5E-06

 NUCLEAR CHARGE  1.0  SYMMETRY SPECIES            S
 N. ELECTRONS    1.0  NUMBER OF PRIMITIVE GTOS    4
                      NUMBER OF CONTRACTED GTOS   2
                      NUMBER OF CLOSED SHELLS     0
                      OPEN SHELL OCCUPATION       1

  ZNUC  SCFIT    TOTAL HF ENERGY   KINETIC ENERGY   VIRIAL THEOREM ACCURACY
   1.0     1    -4.977266687E-01  5.190767460E-01 -1.958869132E+00  0.0E+00

 NUCLEAR CHARGE  6.0  SYMMETRY SPECIES            S    P
 N. ELECTRONS    6.0  NUMBER OF PRIMITIVE GTOS    8    4
                      NUMBER OF CONTRACTED GTOS   4    2
                      NUMBER OF CLOSED SHELLS     2    0
                      OPEN SHELL OCCUPATION       0    2

  ZNUC  SCFIT    TOTAL HF ENERGY   KINETIC ENERGY   VIRIAL THEOREM ACCURACY
   6.0     9    -3.766704647E+01  3.775180683E+01 -1.997754800E+00  1.1E-06

 NUCLEAR CHARGE  8.0  SYMMETRY SPECIES            S    P
 N. ELECTRONS    8.0  NUMBER OF PRIMITIVE GTOS    8    4
                      NUMBER OF CONTRACTED GTOS   4    2
                      NUMBER OF CLOSED SHELLS     2    0
                      OPEN SHELL OCCUPATION       0    4

  ZNUC  SCFIT    TOTAL HF ENERGY   KINETIC ENERGY   VIRIAL THEOREM ACCURACY
   8.0    12    -7.477373220E+01  7.477365593E+01 -2.000001020E+00  3.8E-06

 AAAAAAAAAAAAAAAAAAAAAAAAAAAAAAAAAAAAAAAAAAAAAAAAAAAAAAAAAAAAAAAAAAAAAAAAAAAAAAA

 CHARGE NORMALIZATION FACTOR   1.00000000
 TOTAL ATOMIC CHARGES:
   5.0000000   5.0000000   5.0000000   5.0000000   5.0000000   5.0000000
   5.0000000   5.0000000   5.0000000   5.0000000   5.0000000   5.0000000
   1.0000000   1.0000000   1.0000000   1.0000000   1.0000000   1.0000000
   1.0000000   1.0000000   1.0000000   1.0000000   1.0000000   1.0000000
   1.0000000   1.0000000   1.0000000   1.0000000   1.0000000   1.0000000
   1.0000000   1.0000000   1.0000000   1.0000000   1.0000000   1.0000000
   6.0000000   6.0000000   6.0000000   6.0000000   6.0000000   6.0000000
   6.0000000   6.0000000   6.0000000   6.0000000   6.0000000   6.0000000
   6.0000000   6.0000000   6.0000000   6.0000000   6.0000000   6.0000000
   6.0000000   6.0000000   6.0000000   6.0000000   6.0000000   6.0000000
   6.0000000   6.0000000   6.0000000   6.0000000   6.0000000   6.0000000
   6.0000000   6.0000000   6.0000000   6.0000000   6.0000000   6.0000000
   8.0000000   8.0000000   8.0000000   8.0000000   8.0000000   8.0000000
   8.0000000   8.0000000   8.0000000   8.0000000   8.0000000   8.0000000
 TTTTTTTTTTTTTTTTTTTTTTTTTTTTTT MOQGAD      TELAPSE       28.21 TCPU       49.83
 TTTTTTTTTTTTTTTTTTTTTTTTTTTTTT SHELLXN     TELAPSE       49.88 TCPU      733.05
 TTTTTTTTTTTTTTTTTTTTTTTTTTTTTT MONMO3      TELAPSE       50.48 TCPU      752.38
 NUMERICALLY INTEGRATED DENSITY    395.9998487817
 TTTTTTTTTTTTTTTTTTTTTTTTTTTTTT NUMDFT      TELAPSE       52.16 TCPU      805.98
 CYC   0 ETOT(AU) -2.591971150066E+03 DETOT -2.59E+03 tst  0.00E+00 PX  1.00E+00
 TTTTTTTTTTTTTTTTTTTTTTTTTTTTTT DIIS        TELAPSE       52.29 TCPU      810.06
 TTTTTTTTTTTTTTTTTTTTTTTTTTTTTT FDIK        TELAPSE       54.37 TCPU      876.02
 INSULATING STATE
 TOP OF VALENCE BANDS -    BAND    198; K    4; EIG -3.0816112E-01 AU
 TOP OF VALENCE BANDS -    BAND    198; K    1; EIG -3.0911952E-01 AU
 BOTTOM OF VIRTUAL BANDS - BAND    199; K    1; EIG -1.7745202E-01 AU
 INDIRECT ENERGY BAND GAP:   3.5568 eV
 TTTTTTTTTTTTTTTTTTTTTTTTTTTTTT PDIG        TELAPSE       55.94 TCPU      882.95
 CHARGE NORMALIZATION FACTOR   1.00000000
 TOTAL ATOMIC CHARGES:
   4.1152474   4.1530297   4.1560603   4.1656132   4.1562816   4.1658728
   4.1654564   4.1559470   4.1652346   4.1557301   4.1526645   4.1148267
   0.7858810   0.7852383   0.7853470   0.7859973   0.7834237   0.7850905
   0.7852094   0.7835445   0.7861381   0.7862061   0.7863677   0.7862997
   0.7861301   0.7861969   0.7863283   0.7862605   0.7834279   0.7850924
   0.7852747   0.7836127   0.7858352   0.7851882   0.7853430   0.7859901
   6.0488437   6.0436581   6.2713410   6.2680661   6.2680417   6.2712986
   6.2687063   6.2642254   6.2641661   6.2686541   6.0429304   6.0480983
   6.0595477   6.0417766   6.2568326   6.2594153   6.2595063   6.2569169
   6.2567529   6.2593095   6.2595431   6.2569251   6.0405317   6.0582365
   6.0492200   6.0440054   6.2684843   6.2639964   6.2645384   6.2690216
   6.2709765   6.2676930   6.2683243   6.2715724   6.0424639   6.0476235
   8.7108419   8.6926326   8.7109525   8.6927447   8.7044016   8.6907816
   8.6930600   8.7112834   8.6911872   8.7047992   8.6932308   8.7114529
 TTTTTTTTTTTTTTTTTTTTTTTTTTTTTT MOQGAD      TELAPSE       56.05 TCPU      883.05
 TTTTTTTTTTTTTTTTTTTTTTTTTTTTTT SHELLXN     TELAPSE       78.27 TCPU     1592.02
 TTTTTTTTTTTTTTTTTTTTTTTTTTTTTT MONMO3      TELAPSE       78.88 TCPU     1611.39
 NUMERICALLY INTEGRATED DENSITY    395.9998953736
 TTTTTTTTTTTTTTTTTTTTTTTTTTTTTT NUMDFT      TELAPSE       80.59 TCPU     1665.92
 CYC   1 ETOT(AU) -2.577661353951E+03 DETOT  1.43E+01 tst  0.00E+00 PX  1.00E+00
 TTTTTTTTTTTTTTTTTTTTTTTTTTTTTT DIIS        TELAPSE       80.78 TCPU     1672.10
 DIIS TEST: 0.21702E+01 AT SCF   CYCLE   1 - MIX   30 %
 TTTTTTTTTTTTTTTTTTTTTTTTTTTTTT FDIK        TELAPSE       82.83 TCPU     1737.43
 INSULATING STATE
 TOP OF VALENCE BANDS -    BAND    198; K    4; EIG -2.2222771E-01 AU
 TOP OF VALENCE BANDS -    BAND    198; K    1; EIG -2.2440320E-01 AU
 BOTTOM OF VIRTUAL BANDS - BAND    199; K    1; EIG -1.0447633E-01 AU
 INDIRECT ENERGY BAND GAP:   3.2042 eV
 TTTTTTTTTTTTTTTTTTTTTTTTTTTTTT PDIG        TELAPSE       84.41 TCPU     1744.38
 CHARGE NORMALIZATION FACTOR   1.00000000
 TOTAL ATOMIC CHARGES:
   4.6410419   4.6822625   4.6618162   4.7202922   4.6617249   4.7203376
   4.7205028   4.6620415   4.7204873   4.6620488   4.6823087   4.6408584
   0.9132722   0.8983452   0.8983977   0.9132700   0.9190808   0.9146780
   0.9147128   0.9192458   0.8979933   0.8870755   0.8869719   0.8981157
   0.8979686   0.8870675   0.8869490   0.8980613   0.9190814   0.9146709
   0.9147841   0.9193153   0.9132086   0.8982845   0.8983957   0.9132593
   5.8560424   5.8847600   6.1544175   6.1376628   6.1381067   6.1548024
   6.1276157   6.1477139   6.1483823   6.1284171   5.8874282   5.8587413
   5.9369952   5.8651467   6.1566466   6.1355899   6.1366696   6.1572926
   6.1568070   6.1357391   6.1366347   6.1573580   5.8682825   5.9399953
   5.8559740   5.8847052   6.1276910   6.1477658   6.1482535   6.1283107
   6.1546399   6.1378818   6.1378883   6.1544846   5.8876484   5.8589487
   8.3518468   8.3260889   8.3522213   8.3264544   8.3398700   8.3393348
   8.3259436   8.3516322   8.3390680   8.3398351   8.3263266   8.3520112
 TTTTTTTTTTTTTTTTTTTTTTTTTTTTTT MOQGAD      TELAPSE       84.51 TCPU     1744.48
 TTTTTTTTTTTTTTTTTTTTTTTTTTTTTT SHELLXN     TELAPSE      106.76 TCPU     2454.24
 TTTTTTTTTTTTTTTTTTTTTTTTTTTTTT MONMO3      TELAPSE      107.36 TCPU     2473.35
 NUMERICALLY INTEGRATED DENSITY    395.9998637588
 TTTTTTTTTTTTTTTTTTTTTTTTTTTTTT NUMDFT      TELAPSE      108.99 TCPU     2525.40
 CYC   2 ETOT(AU) -2.578042690958E+03 DETOT -3.81E-01 tst  3.96E-03 PX  1.59E-01
 TTTTTTTTTTTTTTTTTTTTTTTTTTTTTT DIIS        TELAPSE      109.17 TCPU     2531.03
 DIIS TEST: 0.89990E+00 AT SCF   CYCLE   2 - DIIS ACTIVE - HISTORY:     2 CYCLES
 TTTTTTTTTTTTTTTTTTTTTTTTTTTTTT FDIK        TELAPSE      111.11 TCPU     2593.00
 INSULATING STATE
 TOP OF VALENCE BANDS -    BAND    198; K    4; EIG -2.3302484E-01 AU
 TOP OF VALENCE BANDS -    BAND    198; K    1; EIG -2.3515679E-01 AU
 BOTTOM OF VIRTUAL BANDS - BAND    199; K    1; EIG -1.0119339E-01 AU
 INDIRECT ENERGY BAND GAP:   3.5873 eV
 TTTTTTTTTTTTTTTTTTTTTTTTTTTTTT PDIG        TELAPSE      112.71 TCPU     2599.97
 CHARGE NORMALIZATION FACTOR   1.00000000
 TOTAL ATOMIC CHARGES:
   4.4289116   4.4811769   4.4799186   4.5116517   4.4799895   4.5118067
   4.5113591   4.4797281   4.5112042   4.4795798   4.4805694   4.4286533
   0.8909533   0.8797337   0.8798104   0.8912242   0.8934645   0.8932250
   0.8933540   0.8934815   0.8815269   0.8704846   0.8709304   0.8815686
   0.8815479   0.8704891   0.8708727   0.8814880   0.8934624   0.8932307
   0.8934030   0.8935494   0.8909448   0.8797386   0.8797513   0.8911586
   5.9196153   5.8808481   6.1631587   6.1697736   6.1695403   6.1630052
   6.1670980   6.1448734   6.1441275   6.1658607   5.8798452   5.9186348
   5.9150758   5.9037896   6.1570420   6.1782058   6.1777476   6.1569108
   6.1571408   6.1783987   6.1776115   6.1568122   5.9023604   5.9140190
   5.9199633   5.8811650   6.1670885   6.1448220   6.1442697   6.1659028
   6.1630995   6.1696257   6.1695666   6.1630053   5.8795204   5.9183914
   8.5259989   8.5142575   8.5261313   8.5144352   8.5316358   8.5011370
   8.5144597   8.5263973   8.5012957   8.5311728   8.5146376   8.5265832
 TTTTTTTTTTTTTTTTTTTTTTTTTTTTTT MOQGAD      TELAPSE      112.81 TCPU     2600.07
 TTTTTTTTTTTTTTTTTTTTTTTTTTTTTT SHELLXN     TELAPSE      135.12 TCPU     3311.71
 TTTTTTTTTTTTTTTTTTTTTTTTTTTTTT MONMO3      TELAPSE      135.72 TCPU     3330.81
 NUMERICALLY INTEGRATED DENSITY    395.9998661486
 TTTTTTTTTTTTTTTTTTTTTTTTTTTTTT NUMDFT      TELAPSE      137.37 TCPU     3383.36
 CYC   3 ETOT(AU) -2.578227046487E+03 DETOT -1.84E-01 tst  5.50E-04 PX  6.90E-02
 TTTTTTTTTTTTTTTTTTTTTTTTTTTTTT DIIS        TELAPSE      137.56 TCPU     3389.42
 DIIS TEST: 0.37063E-01 AT SCF   CYCLE   3 - DIIS ACTIVE - HISTORY:     3 CYCLES
 TTTTTTTTTTTTTTTTTTTTTTTTTTTTTT FDIK        TELAPSE      139.46 TCPU     3450.32
 INSULATING STATE
 TOP OF VALENCE BANDS -    BAND    198; K    4; EIG -2.4318137E-01 AU
 TOP OF VALENCE BANDS -    BAND    198; K    1; EIG -2.4499111E-01 AU
 BOTTOM OF VIRTUAL BANDS - BAND    199; K    1; EIG -1.0896441E-01 AU
 INDIRECT ENERGY BAND GAP:   3.6522 eV
 TTTTTTTTTTTTTTTTTTTTTTTTTTTTTT PDIG        TELAPSE      141.03 TCPU     3457.26
 CHARGE NORMALIZATION FACTOR   1.00000000
 TOTAL ATOMIC CHARGES:
   4.4464103   4.4781547   4.4824624   4.5127564   4.4824916   4.5129094
   4.5128382   4.4825496   4.5126849   4.4824364   4.4780248   4.4461532
   0.8745151   0.8645191   0.8646615   0.8745456   0.8806211   0.8731045
   0.8730981   0.8807262   0.8617099   0.8567716   0.8566215   0.8619922
   0.8617242   0.8568060   0.8565447   0.8618958   0.8806529   0.8731118
   0.8731574   0.8807623   0.8745024   0.8644856   0.8646217   0.8744974
   5.9239127   5.9508028   6.1839993   6.1671030   6.1674034   6.1840188
   6.1490330   6.1833538   6.1845411   6.1508140   5.9535734   5.9266005
   6.0089904   5.9121164   6.1831723   6.1642942   6.1654914   6.1838003
   6.1830733   6.1642075   6.1656062   6.1840120   5.9149247   6.0112515
   5.9239063   5.9508472   6.1489534   6.1832403   6.1846508   6.1509227
   6.1838879   6.1670271   6.1674783   6.1840031   5.9536144   5.9266582
   8.4993543   8.4740938   8.4996489   8.4743713   8.4816566   8.4872348
   8.4741713   8.4991427   8.4872390   8.4823058   8.4744949   8.4994804
 TTTTTTTTTTTTTTTTTTTTTTTTTTTTTT MOQGAD      TELAPSE      141.13 TCPU     3457.36
 TTTTTTTTTTTTTTTTTTTTTTTTTTTTTT SHELLXN     TELAPSE      163.57 TCPU     4172.91
 TTTTTTTTTTTTTTTTTTTTTTTTTTTTTT MONMO3      TELAPSE      164.17 TCPU     4192.06
 NUMERICALLY INTEGRATED DENSITY    395.9998684454
 TTTTTTTTTTTTTTTTTTTTTTTTTTTTTT NUMDFT      TELAPSE      165.85 TCPU     4245.63
 CYC   4 ETOT(AU) -2.578233405130E+03 DETOT -6.36E-03 tst  7.04E-05 PX  2.24E-02
 TTTTTTTTTTTTTTTTTTTTTTTTTTTTTT DIIS        TELAPSE      166.07 TCPU     4252.53
 DIIS TEST: 0.16202E-01 AT SCF   CYCLE   4 - DIIS ACTIVE - HISTORY:     4 CYCLES
 TTTTTTTTTTTTTTTTTTTTTTTTTTTTTT FDIK        TELAPSE      168.02 TCPU     4314.58
 INSULATING STATE
 TOP OF VALENCE BANDS -    BAND    198; K    4; EIG -2.4245735E-01 AU
 TOP OF VALENCE BANDS -    BAND    198; K    1; EIG -2.4436537E-01 AU
 BOTTOM OF VIRTUAL BANDS - BAND    199; K    1; EIG -1.0880732E-01 AU
 INDIRECT ENERGY BAND GAP:   3.6368 eV
 TTTTTTTTTTTTTTTTTTTTTTTTTTTTTT PDIG        TELAPSE      169.62 TCPU     4321.54
 CHARGE NORMALIZATION FACTOR   1.00000000
 TOTAL ATOMIC CHARGES:
   4.4410218   4.4854822   4.4829056   4.5192539   4.4829568   4.5194013
   4.5191856   4.4829268   4.5190439   4.4827961   4.4851045   4.4408076
   0.8754266   0.8650337   0.8651127   0.8755889   0.8805602   0.8769339
   0.8770972   0.8806840   0.8647298   0.8556623   0.8559613   0.8648222
   0.8647310   0.8556597   0.8559110   0.8647486   0.8805661   0.8769373
   0.8771551   0.8807491   0.8753994   0.8650108   0.8650729   0.8755449
   5.9327311   5.9275946   6.1735716   6.1755406   6.1755400   6.1736738
   6.1724772   6.1615899   6.1609475   6.1714850   5.9271967   5.9323733
   5.9596626   5.9385202   6.1698817   6.1805387   6.1804946   6.1698729
   6.1699815   6.1807161   6.1803856   6.1698292   5.9380063   5.9594231
   5.9329515   5.9278150   6.1724666   6.1615436   6.1610306   6.1715063
   6.1735761   6.1754884   6.1755160   6.1735968   5.9270185   5.9322462
   8.4988088   8.4848219   8.4990032   8.4850392   8.5006980   8.4801421
   8.4848950   8.4990514   8.4801419   8.5002081   8.4851308   8.4992850
 TTTTTTTTTTTTTTTTTTTTTTTTTTTTTT MOQGAD      TELAPSE      169.72 TCPU     4321.64
 TTTTTTTTTTTTTTTTTTTTTTTTTTTTTT SHELLXN     TELAPSE      191.99 TCPU     5031.68
 TTTTTTTTTTTTTTTTTTTTTTTTTTTTTT MONMO3      TELAPSE      192.60 TCPU     5050.96
 NUMERICALLY INTEGRATED DENSITY    395.9998682615
 TTTTTTTTTTTTTTTTTTTTTTTTTTTTTT NUMDFT      TELAPSE      194.31 TCPU     5105.68
 CYC   5 ETOT(AU) -2.578236597449E+03 DETOT -3.19E-03 tst  4.62E-05 PX  1.20E-02
 TTTTTTTTTTTTTTTTTTTTTTTTTTTTTT DIIS        TELAPSE      194.57 TCPU     5112.73
 DIIS TEST: 0.27534E-02 AT SCF   CYCLE   5 - DIIS ACTIVE - HISTORY:     5 CYCLES
 TTTTTTTTTTTTTTTTTTTTTTTTTTTTTT FDIK        TELAPSE      196.60 TCPU     5177.57
 INSULATING STATE
 TOP OF VALENCE BANDS -    BAND    198; K    4; EIG -2.4160193E-01 AU
 TOP OF VALENCE BANDS -    BAND    198; K    1; EIG -2.4354090E-01 AU
 BOTTOM OF VIRTUAL BANDS - BAND    199; K    1; EIG -1.0872429E-01 AU
 INDIRECT ENERGY BAND GAP:   3.6158 eV
 TTTTTTTTTTTTTTTTTTTTTTTTTTTTTT PDIG        TELAPSE      198.18 TCPU     5184.52
 CHARGE NORMALIZATION FACTOR   1.00000000
 TOTAL ATOMIC CHARGES:
   4.4434076   4.4846616   4.4831935   4.5186366   4.4832300   4.5187857
   4.5185902   4.4831846   4.5184468   4.4830666   4.4843609   4.4431660
   0.8773518   0.8666611   0.8667791   0.8774870   0.8824141   0.8781372
   0.8782015   0.8825052   0.8660159   0.8574232   0.8575509   0.8661842
   0.8660252   0.8574367   0.8574884   0.8661010   0.8824283   0.8781410
   0.8782597   0.8825604   0.8773329   0.8666387   0.8667371   0.8774384
   5.9275180   5.9218210   6.1796728   6.1699054   6.1699365   6.1796293
   6.1613102   6.1680311   6.1683024   6.1616331   5.9227807   5.9284535
   5.9700815   5.9152970   6.1754842   6.1734594   6.1738868   6.1757381
   6.1754926   6.1735183   6.1738739   6.1757967   5.9160651   5.9707840
   5.9276742   5.9219925   6.1612756   6.1679627   6.1684063   6.1616898
   6.1796150   6.1698143   6.1699655   6.1795989   5.9226563   5.9283772
   8.5054819   8.4858669   8.5057056   8.4861030   8.4979932   8.4867989
   8.4859812   8.5055458   8.4868629   8.4980787   8.4862389   8.5058133
 TTTTTTTTTTTTTTTTTTTTTTTTTTTTTT MOQGAD      TELAPSE      198.28 TCPU     5184.62
 TTTTTTTTTTTTTTTTTTTTTTTTTTTTTT SHELLXN     TELAPSE      220.56 TCPU     5895.33
 TTTTTTTTTTTTTTTTTTTTTTTTTTTTTT MONMO3      TELAPSE      221.16 TCPU     5914.50
 NUMERICALLY INTEGRATED DENSITY    395.9998681366
 TTTTTTTTTTTTTTTTTTTTTTTTTTTTTT NUMDFT      TELAPSE      222.89 TCPU     5969.51
 CYC   6 ETOT(AU) -2.578237198017E+03 DETOT -6.01E-04 tst  1.12E-05 PX  5.52E-03
 TTTTTTTTTTTTTTTTTTTTTTTTTTTTTT DIIS        TELAPSE      223.15 TCPU     5976.61
 DIIS TEST: 0.35461E-03 AT SCF   CYCLE   6 - DIIS ACTIVE - HISTORY:     6 CYCLES
 TTTTTTTTTTTTTTTTTTTTTTTTTTTTTT FDIK        TELAPSE      225.22 TCPU     6042.42
 INSULATING STATE
 TOP OF VALENCE BANDS -    BAND    198; K    4; EIG -2.4147544E-01 AU
 TOP OF VALENCE BANDS -    BAND    198; K    1; EIG -2.4336504E-01 AU
 BOTTOM OF VIRTUAL BANDS - BAND    199; K    1; EIG -1.0824110E-01 AU
 INDIRECT ENERGY BAND GAP:   3.6255 eV
 TTTTTTTTTTTTTTTTTTTTTTTTTTTTTT PDIG        TELAPSE      226.83 TCPU     6049.39
 CHARGE NORMALIZATION FACTOR   1.00000000
 TOTAL ATOMIC CHARGES:
   4.4428804   4.4846364   4.4836367   4.5181673   4.4836781   4.5183164
   4.5181097   4.4836350   4.5179652   4.4835135   4.4843055   4.4426354
   0.8777929   0.8665600   0.8666624   0.8779226   0.8826038   0.8783077
   0.8783963   0.8827044   0.8665513   0.8580113   0.8581618   0.8667055
   0.8665605   0.8580238   0.8581009   0.8666224   0.8826182   0.8783132
   0.8784529   0.8827587   0.8777750   0.8665375   0.8666197   0.8778738
   5.9248266   5.9260585   6.1754308   6.1730532   6.1731295   6.1754574
   6.1627729   6.1674556   6.1675118   6.1628195   5.9267999   5.9255506
   5.9668713   5.9199835   6.1729212   6.1747359   6.1751024   6.1731393
   6.1729406   6.1748141   6.1750750   6.1731859   5.9206014   5.9674680
   5.9249820   5.9262309   6.1627367   6.1673787   6.1676205   6.1628812
   6.1753735   6.1729730   6.1731555   6.1754199   5.9266787   5.9254712
   8.5037562   8.4856727   8.5039792   8.4859054   8.4988796   8.4862050
   8.4857789   8.5038550   8.4862386   8.4988487   8.4860379   8.5041198
 TTTTTTTTTTTTTTTTTTTTTTTTTTTTTT MOQGAD      TELAPSE      226.93 TCPU     6049.49
 TTTTTTTTTTTTTTTTTTTTTTTTTTTTTT SHELLXN     TELAPSE      249.35 TCPU     6764.69
 TTTTTTTTTTTTTTTTTTTTTTTTTTTTTT MONMO3      TELAPSE      249.95 TCPU     6783.74
 NUMERICALLY INTEGRATED DENSITY    395.9998680558
 TTTTTTTTTTTTTTTTTTTTTTTTTTTTTT NUMDFT      TELAPSE      251.64 TCPU     6837.83
 CYC   7 ETOT(AU) -2.578237270110E+03 DETOT -7.21E-05 tst  9.63E-07 PX  1.14E-03
 TTTTTTTTTTTTTTTTTTTTTTTTTTTTTT DIIS        TELAPSE      251.94 TCPU     6844.87
 DIIS TEST: 0.58540E-04 AT SCF   CYCLE   7 - DIIS ACTIVE - HISTORY:     7 CYCLES
 TTTTTTTTTTTTTTTTTTTTTTTTTTTTTT FDIK        TELAPSE      254.00 TCPU     6910.17
 INSULATING STATE
 TOP OF VALENCE BANDS -    BAND    198; K    4; EIG -2.4161685E-01 AU
 TOP OF VALENCE BANDS -    BAND    198; K    1; EIG -2.4353033E-01 AU
 BOTTOM OF VIRTUAL BANDS - BAND    199; K    1; EIG -1.0841911E-01 AU
 INDIRECT ENERGY BAND GAP:   3.6245 eV
 TTTTTTTTTTTTTTTTTTTTTTTTTTTTTT PDIG        TELAPSE      255.58 TCPU     6917.11
 CHARGE NORMALIZATION FACTOR   1.00000000
 TOTAL ATOMIC CHARGES:
   4.4429132   4.4846838   4.4836711   4.5183284   4.4837132   4.5184774
   4.5182707   4.4836696   4.5181266   4.4835472   4.4843538   4.4426747
   0.8776246   0.8667232   0.8668277   0.8777610   0.8824590   0.8783601
   0.8784502   0.8825568   0.8663567   0.8577268   0.8578905   0.8665067
   0.8663652   0.8577378   0.8578305   0.8664244   0.8824722   0.8783648
   0.8785074   0.8826130   0.8776054   0.8667013   0.8667853   0.8777125
   5.9272204   5.9242400   6.1768053   6.1716342   6.1716823   6.1768180
   6.1632677   6.1666316   6.1666640   6.1632623   5.9248981   5.9278675
   5.9675735   5.9201905   6.1733485   6.1747730   6.1751028   6.1735487
   6.1733771   6.1748588   6.1750677   6.1735856   5.9207038   5.9680906
   5.9273868   5.9244194   6.1632351   6.1665629   6.1667672   6.1633164
   6.1767579   6.1715534   6.1717017   6.1767774   5.9247661   5.9277815
   8.5036953   8.4855925   8.5039140   8.4858246   8.4985902   8.4856339
   8.4856963   8.5038017   8.4856741   8.4985326   8.4859516   8.5040628
 TTTTTTTTTTTTTTTTTTTTTTTTTTTTTT MOQGAD      TELAPSE      255.68 TCPU     6917.21
 TTTTTTTTTTTTTTTTTTTTTTTTTTTTTT SHELLXN     TELAPSE      277.89 TCPU     7625.92
 TTTTTTTTTTTTTTTTTTTTTTTTTTTTTT MONMO3      TELAPSE      278.50 TCPU     7645.20
 NUMERICALLY INTEGRATED DENSITY    395.9998680601
 TTTTTTTTTTTTTTTTTTTTTTTTTTTTTT NUMDFT      TELAPSE      280.21 TCPU     7699.94
 CYC   8 ETOT(AU) -2.578237284718E+03 DETOT -1.46E-05 tst  1.63E-07 PX  5.76E-04
 TTTTTTTTTTTTTTTTTTTTTTTTTTTTTT DIIS        TELAPSE      280.53 TCPU     7707.00
 DIIS TEST: 0.82004E-06 AT SCF   CYCLE   8 - DIIS ACTIVE - HISTORY:     8 CYCLES
 TTTTTTTTTTTTTTTTTTTTTTTTTTTTTT FDIK        TELAPSE      282.58 TCPU     7772.30
 INSULATING STATE
 TOP OF VALENCE BANDS -    BAND    198; K    4; EIG -2.4161013E-01 AU
 TOP OF VALENCE BANDS -    BAND    198; K    1; EIG -2.4352273E-01 AU
 BOTTOM OF VIRTUAL BANDS - BAND    199; K    1; EIG -1.0842270E-01 AU
 INDIRECT ENERGY BAND GAP:   3.6242 eV
 TTTTTTTTTTTTTTTTTTTTTTTTTTTTTT PDIG        TELAPSE      284.19 TCPU     7779.26
 CHARGE NORMALIZATION FACTOR   1.00000000
 TOTAL ATOMIC CHARGES:
   4.4429321   4.4847279   4.4835691   4.5184708   4.4836098   4.5186196
   4.5184168   4.4835676   4.5182730   4.4834464   4.4844052   4.4426944
   0.8775825   0.8667016   0.8668088   0.8777189   0.8824963   0.8783233
   0.8784085   0.8825930   0.8663185   0.8577293   0.8578862   0.8664726
   0.8663272   0.8577409   0.8578255   0.8663900   0.8825098   0.8783277
   0.8784661   0.8826488   0.8775635   0.8666794   0.8667665   0.8776703
   5.9269110   5.9243508   6.1768266   6.1716975   6.1717412   6.1768276
   6.1631899   6.1666675   6.1667439   6.1632460   5.9250627   5.9276083
   5.9674201   5.9203031   6.1733996   6.1746699   6.1750161   6.1736064
   6.1734224   6.1747508   6.1749864   6.1736494   5.9208610   5.9679668
   5.9270736   5.9245282   6.1631582   6.1665987   6.1668466   6.1632995
   6.1767765   6.1716156   6.1717627   6.1767891   5.9249335   5.9275256
   8.5037834   8.4856139   8.5040042   8.4858467   8.4986163   8.4856336
   8.4857186   8.5038816   8.4856772   8.4985846   8.4859745   8.5041446
 TTTTTTTTTTTTTTTTTTTTTTTTTTTTTT MOQGAD      TELAPSE      284.29 TCPU     7779.36
 TTTTTTTTTTTTTTTTTTTTTTTTTTTTTT SHELLXN     TELAPSE      306.62 TCPU     8491.58
 TTTTTTTTTTTTTTTTTTTTTTTTTTTTTT MONMO3      TELAPSE      307.23 TCPU     8510.82
 NUMERICALLY INTEGRATED DENSITY    395.9998680545
 TTTTTTTTTTTTTTTTTTTTTTTTTTTTTT NUMDFT      TELAPSE      308.93 TCPU     8565.25
 CYC   9 ETOT(AU) -2.578237284690E+03 DETOT  2.74E-08 tst  3.37E-09 PX  8.24E-05
 TTTTTTTTTTTTTTTTTTTTTTTTTTTTTT DIIS        TELAPSE      309.27 TCPU     8572.49
 DIIS TEST: 0.69341E-07 AT SCF   CYCLE   9 - DIIS ACTIVE - HISTORY:     9 CYCLES
 TTTTTTTTTTTTTTTTTTTTTTTTTTTTTT FDIK        TELAPSE      311.31 TCPU     8637.52
 INSULATING STATE
 TOP OF VALENCE BANDS -    BAND    198; K    4; EIG -2.4161432E-01 AU
 TOP OF VALENCE BANDS -    BAND    198; K    1; EIG -2.4352697E-01 AU
 BOTTOM OF VIRTUAL BANDS - BAND    199; K    1; EIG -1.0842315E-01 AU
 INDIRECT ENERGY BAND GAP:   3.6243 eV
 TTTTTTTTTTTTTTTTTTTTTTTTTTTTTT PDIG        TELAPSE      312.89 TCPU     8644.47
 CHARGE NORMALIZATION FACTOR   1.00000000
 TOTAL ATOMIC CHARGES:
   4.4429404   4.4847212   4.4835947   4.5184222   4.4836363   4.5185711
   4.5183653   4.4835934   4.5182213   4.4834713   4.4843919   4.4427015
   0.8775943   0.8666897   0.8667937   0.8777303   0.8824805   0.8783181
   0.8784094   0.8825796   0.8663222   0.8577158   0.8578804   0.8664717
   0.8663305   0.8577267   0.8578204   0.8663896   0.8824938   0.8783229
   0.8784665   0.8826357   0.8775750   0.8666676   0.8667513   0.8776819
   5.9270173   5.9243659   6.1767400   6.1717463   6.1717969   6.1767559
   6.1632169   6.1667143   6.1667395   6.1632024   5.9250151   5.9276561
   5.9675088   5.9202015   6.1733780   6.1747516   6.1750798   6.1735775
   6.1734073   6.1748378   6.1750444   6.1736137   5.9207068   5.9680217
   5.9271836   5.9245453   6.1631842   6.1666450   6.1668430   6.1632571
   6.1766925   6.1716662   6.1718162   6.1767148   5.9248835   5.9275698
   8.5037439   8.4856055   8.5039624   8.4858374   8.4986535   8.4856762
   8.4857096   8.5038516   8.4857148   8.4985931   8.4859648   8.5041124
 TTTTTTTTTTTTTTTTTTTTTTTTTTTTTT MOQGAD      TELAPSE      312.99 TCPU     8644.57
 TTTTTTTTTTTTTTTTTTTTTTTTTTTTTT SHELLXN     TELAPSE      335.34 TCPU     9357.05
 +++ ENERGIES IN A.U. +++
 ::: EXT EL-POLE                                  -3.0211354999528E+03
 ::: EXT EL-SPHEROPOLE                             3.4753713457205E+01
 ::: BIELET ZONE E-E                               4.5327082906345E+03
 ::: TOTAL E-E                                     1.5463265041389E+03
 ::: TOTAL E-N + N-E                              -6.7397642109333E+03
 ::: TOTAL N-N                                     3.2274513521292E+02
 ::: KINETIC ENERGY                                2.5599077001782E+03
 ::: PSEUDO TOTAL   ENERGY                        -2.3107848714033E+03
 ::: VIRIAL COEFFICIENT                            1.0511473112116E+00
 TTTTTTTTTTTTTTTTTTTTTTTTTTTTTT MONMO3      TELAPSE      335.93 TCPU     9376.19
 NUMERICALLY INTEGRATED DENSITY    395.9998680539
 EXCHANGE ENERGY: -0.252047455516E+03  CORRELATION ENERGY: -0.154049577884E+02
 TTTTTTTTTTTTTTTTTTTTTTTTTTTTTT NUMDFT      TELAPSE      337.64 TCPU     9430.55
 CYC  10 ETOT(AU) -2.578237284708E+03 DETOT -1.78E-08 tst  2.74E-10 PX  8.24E-05

 == SCF ENDED - CONVERGENCE ON ENERGY      E(AU) -2.5782372847082E+03 CYCLES  10


 ENERGY EXPRESSION=HARTREE+FOCK EXCH*0.00000+(HSESOL     EXCH)*1.00000+PBESOL     CORR


 TOTAL ENERGY(DFT)(AU)( 10) -2.5782372847082E+03 DE-1.8E-08 tester 2.7E-10
 TTTTTTTTTTTTTTTTTTTTTTTTTTTTTT EDFT        TELAPSE      337.64 TCPU     9430.56
 
 INFORMATION **** DFTD3 ENERGY **** CALCULATE DFTD3 ENERGY

           DFT-D V3(BJ)
 DF                                         hsesol3c  
 parameters
 s6       :    1.0000
 s8       :    0.0000
 a1       :    0.5196
 a2       :    4.9385
 k1 k3    :   16.0000   -4.0000
 Cutoff   :   50.2022
 CN-Cutoff:   21.1671
 ABC-Cutoff:   21.1671
 
 Edisp /kcal,au:   -57.8571 -0.09220115

 E6    /kcal :   -62.0659
 E8    /kcal :     0.0000
 E6(ABC) "   :   4.208816
 
 INFORMATION **** DFTD3 ENERGY **** NORMAL TERMINATION OF DFTD3 MODULE

 GCP ENERGY CALCULATION
  level        hsesol3c            basis:hsesol3c
  Nbf            948
  Atoms           84

  Parameters: 
  sigma     1.0000
  eta       1.4281
  alpha     0.2936
  beta      1.9467

  dmp_scal      4.0000
  dmp_exp       6.0000
 cutoffs: 
   distance [bohr] 60.0
   noise    [a.u.] 2.2E-16
 SR-damping   T
 ** gCP correction **
  Egcp:        0.1678472097 / (a.u.) ||     105.3257 / (kcal/mol)
 INFORMATION **** GCP **** NORMAL TERMINATION OF GCP MODULE

 *******************************************************************************

 DFT-D3-GCP DISPERSION AND COUNTERPOISE CORRECTION

 D3 DISPERSION ENERGY (AU)      -9.2201146291739E-02
 GCP ENERGY (AU)                 1.6784720973160E-01
 TOTAL ENERGY + DISP + GCP (AU) -2.5781616386447E+03

 *******************************************************************************

 EIGENVECTORS IN FORTRAN UNIT  8
 TTTTTTTTTTTTTTTTTTTTTTTTTTTTTT END         TELAPSE      341.23 TCPU     9440.00
 EEEEEEEEEE TERMINATION  DATE 19 02 2026 TIME 20:03:06.4
