 Default number of threads is:           32

         
 *******************************************************************************
 *                                                                             *
 *                               CRYSTAL23                                     *
 *                      public : 1.0.1 - October 2022                          *
 *                       HTTP://WWW.CRYSTAL.UNITO.IT                           *
 *                                                                             *
 *                              MAIN AUTHORS                                   *
 *                                                                             *
 *  R. DOVESI(1,11), V.R. SAUNDERS(2), C. ROETTI(1,11), R. ORLANDO(1,11),      *
 *  C.M. ZICOVICH-WILSON(1,3), F. PASCALE(4), B. CIVALLERI(1,11),              *
 *  K. DOLL(5), N.M. HARRISON(6), I.J. BUSH(7), Ph. D'ARCO(8),                 *
 *  M. LLUNELL(9), M. CAUSA'(10), Y. NOEL(8), L. MASCHIO(1,11), A. ERBA(1,11)  *
 *  M. RE'RAT(14), S. CASASSA(1,11), B.G. SEARLE(2), J.K. DESMARAIS(1)         *
 *                                                                             *
 *        CONTRIBUTIONS TO THE CODE HAVE ALSO BEEN GIVEN BY                    *
 *                                                                             *
 *  M. FERRABONE(1,11), M. DE LA PIERRE(1,11), M. FERRERO(1,11),               *
 *  J. BAIMA(1,11), E. ALBANESE(1,11), M.F. PEINTINGER(12), R. BAST(13),       *
 *  B. KIRTMAN(15), V. LACIVITA(1,11), R. DEMICHELIS(1,16)                     *
 *  G. BRANDEBURG(17), S. SALUSTRO(1,11), G. SANSONE(1,11)                     *
 *  M.T. RUGGIERO(18), L.E. DAGA(1), L. DONA'(1), A. COSSARD(1)                *
 *                                                                             *
 * (1) THEORETICAL CHEMISTRY GROUP - UNIVERSITA' DI TORINO - TORINO (ITALY)    *
 * (2) SCIENTIFIC COMPUTING DEPARTMENT - STFC DARESBURY (UK)                   *
 * (3) UNIVERSIDAD AUTONOMA DEL ESTADO DE MORELOS - CUERNAVACA (MEXICO)        *
 * (4) UNIVERSITE' DE LORRAINE - NANCY (FRANCE)                                *
 * (5) UNIVERSITAET STUTTGART- STUTTGART (GERMANY)                             *
 * (6) IMPERIAL COLLEGE - LONDON (UK)                                          *
 * (7) SCIENTIFIC COMPUTING DEPARTMENT - STFC RAL (UK)                         *
 * (8) UPMC - SORBONNE UNIVERSITES - PARIS (FRANCE)                            *
 * (9) UNIVERSIDAD DE BARCELONA - BARCELONA (SPAIN)                            *
 *(10) UNIVERSITA' DI NAPOLI "FEDERICO II" - NAPOLI (ITALY)                    *
 *(11) NIS - NANOSTRUCTURED INTERFACES AND SURFACES - TORINO (ITALY)           *
 *(12) MPI FUER CHEMISCHE ENERGIEKONVERSION - MUELHEIM AN DER RUHR (GERMANY)   *
 *(13) UNIVERSITY OF TROMSO - TROMSO (NORWAY)                                  *
 *(14) UNIVERSITE' DE PAU ET DES PAYS DE L'ADOUR - PAU (FRANCE)                *
 *(15) UNIVERSITY OF CALIFORNIA SANTA BARBARA - SANTA BARBARA (USA)            *
 *(16) CURTIN UNIVERSITY - PERTH (AUSTRALIA)                                   *
 *(17) UNIVERSITY COLLEGE LONDON - LONDON (UK)                                 *
 *(18) UNIVERSITY OF VERMONT - BURLINGTON (USA)                                *
 *                                                                             *
 *******************************************************************************
 EEEEEEEEEE STARTING  DATE 19 02 2026 TIME 19:05:35.2
 cof-1_z40_L000_incl                                                             

 CRYSTAL CALCULATION
 (INPUT ACCORDING TO THE INTERNATIONAL TABLES FOR X-RAY CRYSTALLOGRAPHY)
 CRYSTAL FAMILY                       :  TRICLINIC   
 CRYSTAL CLASS  (GROTH - 1921)        :  TRICLINIC PEDIAL                     

 SPACE GROUP (NONCENTROSYMMETRIC)     :  P 1             

 LATTICE PARAMETERS  (ANGSTROMS AND DEGREES) - CONVENTIONAL CELL
        A           B           C        ALPHA        BETA       GAMMA
    15.02361    15.02392     4.00000    90.00032    89.99994   119.99596


 NUMBER OF IRREDUCIBLE ATOMS IN THE CONVENTIONAL CELL:   42

 INPUT COORDINATES

 ATOM AT. N.              COORDINATES
   1   5     6.136805400000E-01  2.273182200000E-01  5.011941800000E-01
   2   5     7.727362000000E-01  3.863778800000E-01  5.011942000000E-01
   3   5     6.136762700000E-01  3.863606700000E-01  4.986834000000E-01
   4   5     2.272552500000E-01  6.136332200000E-01  5.011941900000E-01
   5   5     3.863632200000E-01  6.136124500000E-01  5.011941900000E-01
   6   5     3.863435000000E-01  7.727516500000E-01  4.986834000000E-01
   7   1     9.030436200000E-01  3.089300500000E-01  4.959888000000E-01
   8   1     9.663453000000E-02  6.910534400000E-01  4.951928100000E-01
   9   1     9.029714200000E-01  5.940724300000E-01  4.950703100000E-01
  10   1     9.673618000000E-02  4.056849400000E-01  4.951008600000E-01
  11   1     6.910324000000E-01  9.700412000000E-02  5.040112300000E-01
  12   1     3.089297200000E-01  9.034373100000E-01  5.048072800000E-01
  13   1     4.058699900000E-01  9.704998000000E-02  5.049298600000E-01
  14   1     5.943122100000E-01  9.033473200000E-01  5.048991000000E-01
  15   1     6.910727400000E-01  5.940542100000E-01  4.959888500000E-01
  16   1     3.089618300000E-01  4.056093300000E-01  4.951927600000E-01
  17   1     4.058405700000E-01  3.088232500000E-01  4.950702100000E-01
  18   1     5.942908800000E-01  6.909579300000E-01  4.951009600000E-01
  19   6     8.918903100000E-01  4.459436900000E-01  4.985915300000E-01
  20   6     9.464891100000E-01  3.927856300000E-01  4.961113000000E-01
  21   6     5.338812000000E-02  6.071853000000E-01  4.958970400000E-01
  22   6     9.464521100000E-01  5.536921900000E-01  4.965400500000E-01
  23   6     5.342634000000E-02  4.462499700000E-01  4.948865200000E-01
  24   6     1.080358900000E-01  5.540356300000E-01  4.965706400000E-01
  25   6     5.540394200000E-01  1.081684600000E-01  5.014085400000E-01
  26   6     6.071778500000E-01  5.355594000000E-02  5.038887200000E-01
  27   6     3.927986700000E-01  9.466631600000E-01  5.041030600000E-01
  28   6     4.462875800000E-01  5.360286000000E-02  5.034600700000E-01
  29   6     5.537168500000E-01  9.466235600000E-01  5.051134800000E-01
  30   6     4.459279100000E-01  8.919920600000E-01  5.034294200000E-01
  31   6     5.540448700000E-01  4.458745500000E-01  4.985915200000E-01
  32   6     6.072102200000E-01  5.536257800000E-01  4.961113500000E-01
  33   6     3.928233700000E-01  4.461720300000E-01  4.958969900000E-01
  34   6     4.462872600000E-01  3.926899900000E-01  4.965399800000E-01
  35   6     5.537429600000E-01  6.070980000000E-01  4.948865900000E-01
  36   6     4.459599800000E-01  5.539582300000E-01  4.965706400000E-01
  37   8     5.607366800000E-01  2.803706300000E-01  4.993570100000E-01
  38   8     7.196817000000E-01  2.803783300000E-01  5.046541900000E-01
  39   8     7.196794200000E-01  4.393234600000E-01  4.966625200000E-01
  40   8     2.803245100000E-01  7.196511100000E-01  4.993570400000E-01
  41   8     2.803439700000E-01  5.606956100000E-01  5.046541800000E-01
  42   8     4.392638400000E-01  7.196354200000E-01  4.966625000000E-01

 *******************************************************************************

 << INFORMATION >>: FROM NOW ON, ALL COORDINATES REFER TO THE PRIMITIVE CELL

 *******************************************************************************

 LATTICE PARAMETERS  (ANGSTROMS AND DEGREES) - PRIMITIVE CELL
       A          B          C        ALPHA      BETA     GAMMA        VOLUME
   15.02361   15.02392    4.00000    90.00032  89.99994 119.99596    781.926192

 COORDINATES OF THE EQUIVALENT ATOMS (FRACTIONAL UNITS)

 N. ATOM EQUIV AT. N.          X                  Y                  Z

   1   1   1    5 B    -3.86319460000E-01  2.27318220000E-01 -4.98805820000E-01

   2   2   1    5 B    -2.27263800000E-01  3.86377880000E-01 -4.98805800000E-01

   3   3   1    5 B    -3.86323730000E-01  3.86360670000E-01  4.98683400000E-01

   4   4   1    5 B     2.27255250000E-01 -3.86366780000E-01 -4.98805810000E-01

   5   5   1    5 B     3.86363220000E-01 -3.86387550000E-01 -4.98805810000E-01

   6   6   1    5 B     3.86343500000E-01 -2.27248350000E-01  4.98683400000E-01

   7   7   1    1 H    -9.69563800000E-02  3.08930050000E-01  4.95988800000E-01

   8   8   1    1 H     9.66345300000E-02 -3.08946560000E-01  4.95192810000E-01

   9   9   1    1 H    -9.70285800000E-02 -4.05927570000E-01  4.95070310000E-01

  10  10   1    1 H     9.67361800000E-02  4.05684940000E-01  4.95100860000E-01

  11  11   1    1 H    -3.08967600000E-01  9.70041200000E-02 -4.95988770000E-01

  12  12   1    1 H     3.08929720000E-01 -9.65626900000E-02 -4.95192720000E-01

  13  13   1    1 H     4.05869990000E-01  9.70499800000E-02 -4.95070140000E-01

  14  14   1    1 H    -4.05687790000E-01 -9.66526800000E-02 -4.95100900000E-01

  15  15   1    1 H    -3.08927260000E-01 -4.05945790000E-01  4.95988850000E-01

  16  16   1    1 H     3.08961830000E-01  4.05609330000E-01  4.95192760000E-01

  17  17   1    1 H     4.05840570000E-01  3.08823250000E-01  4.95070210000E-01

  18  18   1    1 H    -4.05709120000E-01 -3.09042070000E-01  4.95100960000E-01

  19  19   1    6 C    -1.08109690000E-01  4.45943690000E-01  4.98591530000E-01

  20  20   1    6 C    -5.35108900000E-02  3.92785630000E-01  4.96111300000E-01

  21  21   1    6 C     5.33881200000E-02 -3.92814700000E-01  4.95897040000E-01

  22  22   1    6 C    -5.35478900000E-02 -4.46307810000E-01  4.96540050000E-01

  23  23   1    6 C     5.34263400000E-02  4.46249970000E-01  4.94886520000E-01

  24  24   1    6 C     1.08035890000E-01 -4.45964370000E-01  4.96570640000E-01

  25  25   1    6 C    -4.45960580000E-01  1.08168460000E-01 -4.98591460000E-01

  26  26   1    6 C    -3.92822150000E-01  5.35559400000E-02 -4.96111280000E-01

  27  27   1    6 C     3.92798670000E-01 -5.33368400000E-02 -4.95896940000E-01

  28  28   1    6 C     4.46287580000E-01  5.36028600000E-02 -4.96539930000E-01

  29  29   1    6 C    -4.46283150000E-01 -5.33764400000E-02 -4.94886520000E-01

  30  30   1    6 C     4.45927910000E-01 -1.08007940000E-01 -4.96570580000E-01

  31  31   1    6 C    -4.45955130000E-01  4.45874550000E-01  4.98591520000E-01

  32  32   1    6 C    -3.92789780000E-01 -4.46374220000E-01  4.96111350000E-01

  33  33   1    6 C     3.92823370000E-01  4.46172030000E-01  4.95896990000E-01

  34  34   1    6 C     4.46287260000E-01  3.92689990000E-01  4.96539980000E-01

  35  35   1    6 C    -4.46257040000E-01 -3.92902000000E-01  4.94886590000E-01

  36  36   1    6 C     4.45959980000E-01 -4.46041770000E-01  4.96570640000E-01

  37  37   1    8 O    -4.39263320000E-01  2.80370630000E-01  4.99357010000E-01

  38  38   1    8 O    -2.80318300000E-01  2.80378330000E-01 -4.95345810000E-01

  39  39   1    8 O    -2.80320580000E-01  4.39323460000E-01  4.96662520000E-01

  40  40   1    8 O     2.80324510000E-01 -2.80348890000E-01  4.99357040000E-01

  41  41   1    8 O     2.80343970000E-01 -4.39304390000E-01 -4.95345820000E-01

  42  42   1    8 O     4.39263840000E-01 -2.80364580000E-01  4.96662500000E-01

 NUMBER OF SYMMETRY OPERATORS         :    1
 *******************************************************************************
 * GEOMETRY EDITING - INPUT COORDINATES ARE GIVEN IN ANGSTROM         
 *******************************************************************************

 GCALCO - MAX INDICES DIRECT LATTICE VECTOR     9     9    32
 NO.OF VECTORS CREATED 6999 STARS 3500 RMAX   206.35613 BOHR

 GEOMETRY FOR WAVE FUNCTION - DIMENSIONALITY OF THE SYSTEM    3
 (NON PERIODIC DIRECTION: LATTICE PARAMETER FORMALLY SET TO 500)
 *******************************************************************************
 LATTICE PARAMETERS (ANGSTROMS AND DEGREES) - BOHR = 0.5291772083 ANGSTROM
 PRIMITIVE CELL - CENTRING CODE 1/0 VOLUME=   781.926192 - DENSITY  0.828 g/cm^3
         A              B              C           ALPHA      BETA       GAMMA 
    15.02361100    15.02391600     4.00000000    90.000323  89.999944 119.995964
 *******************************************************************************
 ATOMS IN THE ASYMMETRIC UNIT   42 - ATOMS IN THE UNIT CELL:   42
     ATOM                 X/A                 Y/B                 Z/C    
 *******************************************************************************
      1 T   5 B    -3.863194600000E-01  2.273182200000E-01 -4.988058200000E-01
      2 T   5 B    -2.272638000000E-01  3.863778800000E-01 -4.988058000000E-01
      3 T   5 B    -3.863237300000E-01  3.863606700000E-01  4.986834000000E-01
      4 T   5 B     2.272552500000E-01 -3.863667800000E-01 -4.988058100000E-01
      5 T   5 B     3.863632200000E-01 -3.863875500000E-01 -4.988058100000E-01
      6 T   5 B     3.863435000000E-01 -2.272483500000E-01  4.986834000000E-01
      7 T   1 H    -9.695638000000E-02  3.089300500000E-01  4.959888000000E-01
      8 T   1 H     9.663453000000E-02 -3.089465600000E-01  4.951928100000E-01
      9 T   1 H    -9.702858000000E-02 -4.059275700000E-01  4.950703100000E-01
     10 T   1 H     9.673618000000E-02  4.056849400000E-01  4.951008600000E-01
     11 T   1 H    -3.089676000000E-01  9.700412000000E-02 -4.959887700000E-01
     12 T   1 H     3.089297200000E-01 -9.656269000000E-02 -4.951927200000E-01
     13 T   1 H     4.058699900000E-01  9.704998000000E-02 -4.950701400000E-01
     14 T   1 H    -4.056877900000E-01 -9.665268000000E-02 -4.951009000000E-01
     15 T   1 H    -3.089272600000E-01 -4.059457900000E-01  4.959888500000E-01
     16 T   1 H     3.089618300000E-01  4.056093300000E-01  4.951927600000E-01
     17 T   1 H     4.058405700000E-01  3.088232500000E-01  4.950702100000E-01
     18 T   1 H    -4.057091200000E-01 -3.090420700000E-01  4.951009600000E-01
     19 T   6 C    -1.081096900000E-01  4.459436900000E-01  4.985915300000E-01
     20 T   6 C    -5.351089000000E-02  3.927856300000E-01  4.961113000000E-01
     21 T   6 C     5.338812000000E-02 -3.928147000000E-01  4.958970400000E-01
     22 T   6 C    -5.354789000000E-02 -4.463078100000E-01  4.965400500000E-01
     23 T   6 C     5.342634000000E-02  4.462499700000E-01  4.948865200000E-01
     24 T   6 C     1.080358900000E-01 -4.459643700000E-01  4.965706400000E-01
     25 T   6 C    -4.459605800000E-01  1.081684600000E-01 -4.985914600000E-01
     26 T   6 C    -3.928221500000E-01  5.355594000000E-02 -4.961112800000E-01
     27 T   6 C     3.927986700000E-01 -5.333684000000E-02 -4.958969400000E-01
     28 T   6 C     4.462875800000E-01  5.360286000000E-02 -4.965399300000E-01
     29 T   6 C    -4.462831500000E-01 -5.337644000000E-02 -4.948865200000E-01
     30 T   6 C     4.459279100000E-01 -1.080079400000E-01 -4.965705800000E-01
     31 T   6 C    -4.459551300000E-01  4.458745500000E-01  4.985915200000E-01
     32 T   6 C    -3.927897800000E-01 -4.463742200000E-01  4.961113500000E-01
     33 T   6 C     3.928233700000E-01  4.461720300000E-01  4.958969900000E-01
     34 T   6 C     4.462872600000E-01  3.926899900000E-01  4.965399800000E-01
     35 T   6 C    -4.462570400000E-01 -3.929020000000E-01  4.948865900000E-01
     36 T   6 C     4.459599800000E-01 -4.460417700000E-01  4.965706400000E-01
     37 T   8 O    -4.392633200000E-01  2.803706300000E-01  4.993570100000E-01
     38 T   8 O    -2.803183000000E-01  2.803783300000E-01 -4.953458100000E-01
     39 T   8 O    -2.803205800000E-01  4.393234600000E-01  4.966625200000E-01
     40 T   8 O     2.803245100000E-01 -2.803488900000E-01  4.993570400000E-01
     41 T   8 O     2.803439700000E-01 -4.393043900000E-01 -4.953458200000E-01
     42 T   8 O     4.392638400000E-01 -2.803645800000E-01  4.966625000000E-01

 T = ATOM BELONGING TO THE ASYMMETRIC UNIT

 ****    1 SYMMOPS - TRANSLATORS IN FRACTIONAL UNITS
 **** MATRICES AND TRANSLATORS IN THE CRYSTALLOGRAPHIC REFERENCE FRAME
   V INV                    ROTATION MATRICES                   TRANSLATORS
   1   1  1.00  0.00  0.00  0.00  1.00  0.00 -0.00 -0.00  1.00  0.00  0.00  0.00

 DIRECT LATTICE VECTORS CARTESIAN COMPONENTS (ANGSTROM)
          X                    Y                    Z
   0.130113578931E+02  -0.751088897922E+01   0.000000000000E+00
   0.000000000000E+00   0.150239160000E+02   0.000000000000E+00
  -0.850276944040E-05  -0.225496539349E-04   0.399999999993E+01


 CARTESIAN COORDINATES - PRIMITIVE CELL
 *******************************************************************************
 *      ATOM          X(ANGSTROM)         Y(ANGSTROM)         Z(ANGSTROM)
 *******************************************************************************
    1     5 B    -5.026536513881E+00  6.316823665019E+00 -1.995223279964E+00
    2     5 B    -2.957006396705E+00  7.511873232071E+00 -1.995223199964E+00
    3     5 B    -5.026600553801E+00 -6.317642347288E+00  1.994733599964E+00
    4     5 B     2.956903632057E+00 -7.511619752706E+00 -1.995223239964E+00
    5     5 B     5.027114373365E+00  6.316941902180E+00 -1.995223239964E+00
    6     5 B     5.026849307966E+00 -6.315954503019E+00  1.994733599964E+00
    7     1 H    -1.261538377474E+00  5.369556542707E+00  1.983955199964E+00
    8     1 H     1.257342244147E+00 -5.367409558744E+00  1.980771239964E+00
    9     1 H    -1.262477789704E+00 -5.369861985237E+00  1.980281239964E+00
   10     1 H     1.258664849459E+00  5.368390588418E+00  1.980403439964E+00
   11     1 H    -4.020083803681E+00  3.778014276684E+00 -1.983955079964E+00
   12     1 H     4.019599361231E+00 -3.771075406170E+00 -1.980770879964E+00
   13     1 H     5.280923907409E+00 -1.590362523904E+00 -1.980280559964E+00
   14     1 H    -5.278544818804E+00  1.594985369773E+00 -1.980403599964E+00
   15     1 H    -4.019567360060E+00 -3.778588281377E+00  1.983955399964E+00
   16     1 H     4.020008734914E+00  3.773251332365E+00  1.980771039964E+00
   17     1 H     5.280532694324E+00  1.591499938653E+00  1.980280839964E+00
   18     1 H    -5.278830770526E+00 -1.595797106326E+00  1.980403839964E+00
   19     6 C    -1.406658107706E+00  7.511809175391E+00  1.994366119964E+00
   20     6 C    -6.962535592860E-01  6.303081477958E+00  1.984445199964E+00
   21     6 C     6.946477200593E-01 -6.302618480801E+00  1.983588159964E+00
   22     6 C    -6.967349831736E-01 -6.303109987529E+00  1.986160199964E+00
   23     6 C     6.951450227501E-01  6.303131596457E+00  1.979546079964E+00
   24     6 C     1.405689407859E+00 -7.511588006930E+00  1.986282559964E+00
   25     6 C     7.208809419890E+00 -2.536203473775E+00 -1.994365839964E+00
   26     6 C    -5.111145363650E+00  3.755074688226E+00 -1.984445119964E+00
   27     6 C     5.110848291784E+00 -3.751584223115E+00 -1.983587759964E+00
   28     6 C     5.806811648571E+00 -2.546680403380E+00 -1.986159719964E+00
   29     6 C    -5.806745578385E+00  2.550071201526E+00 -1.979546079964E+00
   30     6 C     5.802131853738E+00 -4.972006045142E+00 -1.986282319964E+00
   31     6 C     7.208871852973E+00  2.537401034597E+00  1.994366079964E+00
   32     6 C    -5.110732622635E+00 -3.756099543234E+00  1.984445399964E+00
   33     6 C     5.111161239329E+00  3.752787197452E+00  1.983587959964E+00
   34     6 C     5.806799041007E+00  2.547716164297E+00  1.986159919964E+00
   35     6 C    -5.806414267643E+00 -2.551150720120E+00  1.979546359964E+00
   36     6 C     5.802540683535E+00  4.973054818579E+00  1.986282559964E+00
   37     8 O     7.295941381327E+00  6.225836048895E-04  1.997428039964E+00
   38     8 O    -3.647317513462E+00  6.317831278160E+00 -1.981383239964E+00
   39     8 O    -3.647355614176E+00 -6.318111684729E+00  1.986650079964E+00
   40     8 O     3.647398279888E+00 -6.317435707145E+00  1.997428159964E+00
   41     8 O     3.647659938642E+00  6.318222481423E+00 -1.981383279964E+00
   42     8 O    -7.295943084345E+00 -5.580544706205E-04  1.986649999964E+00

 *******************************************************************************
 STARTING BASIS SET HANDLING 
 *******************************************************************************

 Loading internal basis set: SOLDEF2MSVP         

 Please cite in your publication:
 L. Dona', J. G. Brandenburg and B. Civalleri, J. Chem. Phys., 151, 121101 (2019
 )                                                                              
                                                                                
                    

 *******************************************************************************
 LOCAL ATOMIC FUNCTIONS BASIS SET
 *******************************************************************************
   ATOM   X(AU)   Y(AU)   Z(AU)  N. TYPE  EXPONENT  S COEF   P COEF   D/F/G COEF
 *******************************************************************************
   1 B   -9.499  11.937  -3.770
                                  1 S  
                                         2.410E+03 1.755E-03 0.000E+00 0.000E+00
                                         3.619E+02 1.344E-02 0.000E+00 0.000E+00
                                         8.231E+01 6.637E-02 0.000E+00 0.000E+00
                                         2.311E+01 2.303E-01 0.000E+00 0.000E+00
                                         7.252E+00 5.150E-01 0.000E+00 0.000E+00
                                  2 S  
                                         2.367E+00 1.000E+00 0.000E+00 0.000E+00
                                  3 S  
                                         5.533E-01 1.000E+00 0.000E+00 0.000E+00
                                  4 S  
                                         1.716E-01 1.000E+00 0.000E+00 0.000E+00
                           5-     7 P  
                                         6.002E+00 0.000E+00-3.555E-02 0.000E+00
                                         1.240E+00 0.000E+00-1.983E-01 0.000E+00
                                         3.367E-01 0.000E+00-5.048E-01 0.000E+00
                           8-    10 P  
                                         1.256E-01 0.000E+00 1.000E+00 0.000E+00
                          11-    15 D  
                                         8.880E-01 0.000E+00 0.000E+00 1.000E+00
   2 B   -5.588  14.195  -3.770
   3 B   -9.499 -11.939   3.770
   4 B    5.588 -14.195  -3.770
   5 B    9.500  11.937  -3.770
   6 B    9.499 -11.935   3.770
   7 H   -2.384  10.147   3.749
                                 91 S  
                                         1.874E+01 1.968E-02 0.000E+00 0.000E+00
                                         2.826E+00 1.380E-01 0.000E+00 0.000E+00
                                         6.401E-01 4.783E-01 0.000E+00 0.000E+00
                                 92 S  
                                         1.756E-01 1.000E+00 0.000E+00 0.000E+00
   8 H    2.376 -10.143   3.743
   9 H   -2.386 -10.148   3.742
  10 H    2.379  10.145   3.742
  11 H   -7.597   7.139  -3.749
  12 H    7.596  -7.126  -3.743
  13 H    9.979  -3.005  -3.742
  14 H   -9.975   3.014  -3.742
  15 H   -7.596  -7.140   3.749
  16 H    7.597   7.130   3.743
  17 H    9.979   3.007   3.742
  18 H   -9.976  -3.016   3.742
  19 C   -2.658  14.195   3.769
                                115 S  
                                         3.624E+03 1.634E-03 0.000E+00 0.000E+00
                                         5.440E+02 1.252E-02 0.000E+00 0.000E+00
                                         1.237E+02 6.211E-02 0.000E+00 0.000E+00
                                         3.476E+01 2.182E-01 0.000E+00 0.000E+00
                                         1.093E+01 4.980E-01 0.000E+00 0.000E+00
                                116 S  
                                         3.574E+00 1.000E+00 0.000E+00 0.000E+00
                                117 S  
                                         7.742E-01 1.000E+00 0.000E+00 0.000E+00
                                118 S  
                                         2.330E-01 1.000E+00 0.000E+00 0.000E+00
                         119-   121 P  
                                         9.443E+00 0.000E+00 3.790E-02 0.000E+00
                                         2.002E+00 0.000E+00 2.082E-01 0.000E+00
                                         5.463E-01 0.000E+00 5.047E-01 0.000E+00
                         122-   124 P  
                                         1.820E-01 0.000E+00 1.000E+00 0.000E+00
                         125-   129 D  
                                         8.880E-01 0.000E+00 0.000E+00 1.000E+00
  20 C   -1.316  11.911   3.750
  21 C    1.313 -11.910   3.748
  22 C   -1.317 -11.911   3.753
  23 C    1.314  11.911   3.741
  24 C    2.656 -14.195   3.754
  25 C   13.623  -4.793  -3.769
  26 C   -9.659   7.096  -3.750
  27 C    9.658  -7.089  -3.748
  28 C   10.973  -4.813  -3.753
  29 C  -10.973   4.819  -3.741
  30 C   10.964  -9.396  -3.754
  31 C   13.623   4.795   3.769
  32 C   -9.658  -7.098   3.750
  33 C    9.659   7.092   3.748
  34 C   10.973   4.814   3.753
  35 C  -10.973  -4.821   3.741
  36 C   10.965   9.398   3.754
  37 O   13.787   0.001   3.775
                                385 S  
                                         6.773E+03 1.727E-03 0.000E+00 0.000E+00
                                         1.017E+03 1.325E-02 0.000E+00 0.000E+00
                                         2.313E+02 6.603E-02 0.000E+00 0.000E+00
                                         6.501E+01 2.353E-01 0.000E+00 0.000E+00
                                         2.050E+01 5.498E-01 0.000E+00 0.000E+00
                                386 S  
                                         6.716E+00 1.000E+00 0.000E+00 0.000E+00
                                387 S  
                                         1.147E+00 1.000E+00 0.000E+00 0.000E+00
                                388 S  
                                         3.342E-01 1.000E+00 0.000E+00 0.000E+00
                         389-   391 P  
                                         1.769E+01 0.000E+00 4.359E-02 0.000E+00
                                         3.854E+00 0.000E+00 2.318E-01 0.000E+00
                                         1.047E+00 0.000E+00 5.146E-01 0.000E+00
                         392-   394 P  
                                         2.759E-01 0.000E+00 1.000E+00 0.000E+00
                         395-   399 D  
                                         8.000E-01 0.000E+00 0.000E+00 1.000E+00
  38 O   -6.892  11.939  -3.744
  39 O   -6.893 -11.940   3.754
  40 O    6.893 -11.938   3.775
  41 O    6.893  11.940  -3.744
  42 O  -13.787  -0.001   3.754

 *******************************************************************************
 FINISHED BASIS SET HANDLING 
 *******************************************************************************

 INFORMATION **** SET_MPP **** PCRYSTAL CALCULATION
 INFORMATION **** READM2 **** NEW DEFAULT: FOCK/KS MATRIX MIXING SET TO 30 %
 INFORMATION **** READM2 **** NEW DEFAULT: FULL DIRECT SCF MODE
 INFORMATION **** READM2 **** NEW DEFAULT: COULOMB BIPOLAR BUFFER SET TO 32 Mb
 INFORMATION **** READM2 **** NEW DEFAULT: EXCHANGE BIPOLAR BUFFER SET TO 32 Mb

 *******************************************************************************
 NEW DEFAULT: DFT INTEGRATION GRID INCREASED TO XLGRID
 NEW DEFAULT: DIIS ACCELERATOR ACTIVE
 USE KEYWORD NODIIS TO TURN IT OFF
 *******************************************************************************

 WARNING **** RDDFTP **** HSEsol-HJS ACTIVE
 RANGE SEPARATION - OMEGA:   0.110000000000000     
 WARNING **** RDDFTP **** HSEsol-3c has to be combined with sol-def2-mSVP basis set
 *******************************************************************************
 N. OF ATOMS PER CELL        42  COULOMB OVERLAP TOL         (T1) 10**   -6
 NUMBER OF SHELLS           234  COULOMB PENETRATION TOL     (T2) 10**   -6
 NUMBER OF AO               474  EXCHANGE OVERLAP TOL        (T3) 10**   -6
 N. OF ELECTRONS PER CELL   198  EXCHANGE PSEUDO OVP (F(G))  (T4) 10**   -6
 CORE ELECTRONS PER CELL     60  EXCHANGE PSEUDO OVP (P(G))  (T5) 10**  -12
 N. OF SYMMETRY OPERATORS     1  POLE ORDER IN MONO ZONE                  4
 *******************************************************************************
 TYPE OF CALCULATION :  RESTRICTED CLOSED SHELL
 KOHN-SHAM HAMILTONIAN

 (EXCHANGE)[CORRELATION] FUNCTIONAL:(HSEsol GGA)[PBEsol]

 RANGE-SEPARATED HYBRID FUNCTIONAL 
 OMEGA (SHORT-RANGE)[LONG-RANGE]:(    0.1100)[    0.0000]

 HYBRID EXCHANGE - PERCENTAGE OF FOCK EXCHANGE    25.0000

 CAPPA:IS1  2;IS2  2;IS3  8; K PTS MONK NET  20; SYMMOPS:K SPACE   2;G SPACE   1

 *******************************************************************************
 MAX NUMBER OF SCF CYCLES      50  CONVERGENCE ON DELTAP        10**-16
 WEIGHT OF F(I) IN F(I+1)      30% CONVERGENCE ON ENERGY        10**- 6
 SHRINK. FACT.(MONKH.)    2  2  8  NUMBER OF K POINTS IN THE IBZ     20
 SHRINKING FACTOR(GILAT NET)    8  NUMBER OF K POINTS(GILAT NET)   1028
 *******************************************************************************
 *** K POINTS COORDINATES (OBLIQUE COORDINATES IN UNITS OF IS =  2)
   1-R(  0  0  0)   2-R(  1  0  0)   3-R(  0  1  0)   4-R(  1  1  0)
   5-C(  0  0  1)   6-C(  1  0  1)   7-C(  0  1  1)   8-C(  1  1  1)
   9-C(  0  0  2)  10-C(  1  0  2)  11-C(  0  1  2)  12-C(  1  1  2)
  13-C(  0  0  3)  14-C(  1  0  3)  15-C(  0  1  3)  16-C(  1  1  3)
  17-R(  0  0  4)  18-R(  1  0  4)  19-R(  0  1  4)  20-R(  1  1  4)

 DIRECT LATTICE VECTORS COMPON. (A.U.)     RECIP. LATTICE VECTORS COMPON. (A.U.) 
        X            Y            Z              X            Y            Z
   24.5879030  -14.1935232    0.0000000      0.2555397    0.0000000    0.0000005
    0.0000000   28.3910867    0.0000000      0.1277517    0.2213084    0.0000015
   -0.0000161   -0.0000426    7.5589045      0.0000000    0.0000000    0.8312296

 DISK SPACE FOR EIGENVECTORS (FTN 10)     7189632 REALS

 SYMMETRY ADAPTION OF THE BLOCH FUNCTIONS DISABLED
 TTTTTTTTTTTTTTTTTTTTTTTTTTTTTT gordsh1     TELAPSE        0.04 TCPU        0.04

 MATRIX SIZE: P(G)  335352, F(G)   71451, P(G) IRR  169959, F(G) IRR   72147
 MAX G-VECTOR INDEX FOR 1- AND 2-ELECTRON INTEGRALS 109

 TTTTTTTTTTTTTTTTTTTTTTTTTTTTTT INPUT       TELAPSE        0.29 TCPU        0.29

 NEIGHBORS OF THE NON-EQUIVALENT ATOMS

 N = NUMBER OF NEIGHBORS AT DISTANCE R
    ATOM  N     R/ANG      R/AU   NEIGHBORS (ATOM LABELS AND CELL INDICES)
   1 B    1     1.3791     2.6061   37 O   -1 0-1
   1 B    1     1.3793     2.6065   38 O    0 0 0
   1 B    1     1.5503     2.9297   25 C   -1 0 0
   1 B    1     2.3895     4.5155    3 B    0 1-1
   1 B    1     2.3898     4.5160    2 B    0 0 0
   1 B    1     2.5632     4.8437   26 C    0 0 0

   2 B    1     1.3793     2.6065   39 O    0 1-1
   2 B    1     1.3793     2.6065   38 O    0 0 0
   2 B    1     1.5504     2.9298   19 C    0 0-1
   2 B    1     2.3895     4.5156    3 B    0 1-1
   2 B    1     2.3898     4.5160    1 B    0 0 0
   2 B    1     2.5634     4.8440   22 C    0 1-1

   3 B    1     1.3791     2.6061   37 O   -1-1 0
   3 B    1     1.3793     2.6064   39 O    0 0 0
   3 B    1     1.5502     2.9294   31 C   -1-1 0
   3 B    1     2.3895     4.5155    1 B    0-1 1
   3 B    1     2.3895     4.5156    2 B    0-1 1
   3 B    1     2.5629     4.8433   32 C    0 0 0

   4 B    1     1.3795     2.6068   40 O    0 0-1
   4 B    1     1.3795     2.6070   41 O    0-1 0
   4 B    1     1.5513     2.9316   24 C    0 0-1
   4 B    1     2.3905     4.5174    6 B    0 0-1
   4 B    1     2.3905     4.5175    5 B    0-1 0
   4 B    1     2.5648     4.8468   23 C    0-1-1

   5 B    1     1.3795     2.6069   41 O    0 0 0
   5 B    1     1.3797     2.6072   42 O    1 1-1
   5 B    1     1.5516     2.9322   36 C    0 0-1
   5 B    1     2.3905     4.5175    4 B    0 1 0
   5 B    1     2.3911     4.5185    6 B    0 1-1
   5 B    1     2.5651     4.8473   35 C    1 1-1

   6 B    1     1.3795     2.6068   40 O    0 0 0
   6 B    1     1.3796     2.6071   42 O    1 0 0
   6 B    1     1.5516     2.9322   30 C    0 0 1
   6 B    1     2.3905     4.5174    4 B    0 0 1
   6 B    1     2.3911     4.5185    5 B    0-1 1
   6 B    1     2.5651     4.8473   29 C    1 0 1

   7 H    1     1.0913     2.0623   20 C    0 0 0
   7 H    1     2.1472     4.0576   19 C    0 0 0
   7 H    1     2.1680     4.0969   23 C    0 0 0
   7 H    1     2.5202     4.7625   10 H    0 0 0
   7 H    1     2.5676     4.8520   38 O    0 0 1
   7 H    1     2.7321     5.1630    2 B    0 0 1

   8 H    1     1.0914     2.0625   21 C    0 0 0
   8 H    1     2.1493     4.0616   24 C    0 0 0
   8 H    1     2.1666     4.0942   22 C    0 0 0
   8 H    1     2.5198     4.7618    9 H    0 0 0
   8 H    1     2.5720     4.8604   40 O    0 0 0
   8 H    1     2.7362     5.1707    4 B    0 0 1

   9 H    1     1.0914     2.0624   22 C    0 0 0
   9 H    1     2.1471     4.0575   19 C    0-1 0
   9 H    1     2.1680     4.0970   21 C    0 0 0
   9 H    1     2.5198     4.7618    8 H    0 0 0
   9 H    1     2.5665     4.8500   39 O    0 0 0
   9 H    1     2.7315     5.1618    2 B    0-1 1

  10 H    1     1.0915     2.0626   23 C    0 0 0
  10 H    1     2.1490     4.0610   24 C    0 1 0
  10 H    1     2.1669     4.0948   20 C    0 0 0
  10 H    1     2.5202     4.7625    7 H    0 0 0
  10 H    1     2.5712     4.8588   41 O    0 0 1
  10 H    1     2.7351     5.1686    4 B    0 1 1

  11 H    1     1.0913     2.0623   26 C    0 0 0
  11 H    1     2.1469     4.0571   25 C   -1 0 0
  11 H    1     2.1680     4.0968   29 C    0 0 0
  11 H    1     2.5198     4.7617   14 H    0 0 0
  11 H    1     2.5670     4.8510   38 O    0 0 0
  11 H    1     2.7310     5.1609    1 B    0 0 0

  12 H    1     1.0914     2.0625   27 C    0 0 0
  12 H    1     2.1493     4.0617   30 C    0 0 0
  12 H    1     2.1664     4.0939   28 C    0 0 0
  12 H    1     2.5192     4.7606   13 H    0 0 0
  12 H    1     2.5735     4.8632   40 O    0 0-1
  12 H    1     2.7371     5.1723    6 B    0 0-1

  13 H    1     1.0914     2.0624   28 C    0 0 0
  13 H    1     2.1475     4.0581   25 C    0 0 0
  13 H    1     2.1679     4.0967   27 C    0 0 0
  13 H    1     2.5192     4.7606   12 H    0 0 0
  13 H    1     2.5675     4.8519   37 O    0 0-1
  13 H    1     2.7328     5.1643    1 B    1 0 0

  14 H    1     1.0914     2.0625   29 C    0 0 0
  14 H    1     2.1491     4.0612   30 C   -1 0 0
  14 H    1     2.1666     4.0942   26 C    0 0 0
  14 H    1     2.5198     4.7617   11 H    0 0 0
  14 H    1     2.5723     4.8609   42 O    0 0-1
  14 H    1     2.7355     5.1693    6 B   -1 0-1

  15 H    1     1.0914     2.0624   32 C    0 0 0
  15 H    1     2.1475     4.0582   31 C   -1-1 0
  15 H    1     2.1678     4.0966   35 C    0 0 0
  15 H    1     2.5200     4.7621   18 H    0 0 0
  15 H    1     2.5667     4.8503   39 O    0 0 0
  15 H    1     2.7315     5.1618    3 B    0 0 0

  16 H    1     1.0913     2.0623   33 C    0 0 0
  16 H    1     2.1487     4.0605   36 C    0 0 0
  16 H    1     2.1667     4.0945   34 C    0 0 0
  16 H    1     2.5197     4.7616   17 H    0 0 0
  16 H    1     2.5723     4.8610   41 O    0 0 1
  16 H    1     2.7359     5.1701    5 B    0 0 1

  17 H    1     1.0915     2.0626   34 C    0 0 0
  17 H    1     2.1479     4.0589   31 C    0 0 0
  17 H    1     2.1679     4.0968   33 C    0 0 0
  17 H    1     2.5197     4.7616   16 H    0 0 0
  17 H    1     2.5677     4.8522   37 O    0 0 0
  17 H    1     2.7331     5.1648    3 B    1 1 0

  18 H    1     1.0914     2.0624   35 C    0 0 0
  18 H    1     2.1486     4.0602   36 C   -1-1 0
  18 H    1     2.1668     4.0947   32 C    0 0 0
  18 H    1     2.5200     4.7621   15 H    0 0 0
  18 H    1     2.5717     4.8598   42 O    0 0 0
  18 H    1     2.7349     5.1682    5 B   -1-1 1

  19 C    1     1.4020     2.6495   22 C    0 1 0
  19 C    1     1.4021     2.6495   20 C    0 0 0
  19 C    1     1.5504     2.9298    2 B    0 0 1
  19 C    1     2.1471     4.0575    9 H    0 1 0
  19 C    1     2.1472     4.0576    7 H    0 0 0
  19 C    1     2.4246     4.5817   21 C    0 1 0

  20 C    1     1.0913     2.0623    7 H    0 0 0
  20 C    1     1.3914     2.6294   23 C    0 0 0
  20 C    1     1.4021     2.6495   19 C    0 0 0
  20 C    1     2.1669     4.0948   10 H    0 0 0
  20 C    1     2.4177     4.5688   22 C    0 1 0
  20 C    1     2.4250     4.5825   24 C    0 1 0

  21 C    1     1.0914     2.0625    8 H    0 0 0
  21 C    1     1.3914     2.6293   22 C    0 0 0
  21 C    1     1.4026     2.6505   24 C    0 0 0
  21 C    1     2.1680     4.0970    9 H    0 0 0
  21 C    1     2.4182     4.5697   23 C    0-1 0
  21 C    1     2.4246     4.5817   19 C    0-1 0

  22 C    1     1.0914     2.0624    9 H    0 0 0
  22 C    1     1.3914     2.6293   21 C    0 0 0
  22 C    1     1.4020     2.6495   19 C    0-1 0
  22 C    1     2.1666     4.0942    8 H    0 0 0
  22 C    1     2.4177     4.5688   20 C    0-1 0
  22 C    1     2.4250     4.5826   24 C    0 0 0

  23 C    1     1.0915     2.0626   10 H    0 0 0
  23 C    1     1.3914     2.6294   20 C    0 0 0
  23 C    1     1.4025     2.6504   24 C    0 1 0
  23 C    1     2.1680     4.0969    7 H    0 0 0
  23 C    1     2.4182     4.5697   21 C    0 1 0
  23 C    1     2.4246     4.5818   19 C    0 0 0

  24 C    1     1.4025     2.6504   23 C    0-1 0
  24 C    1     1.4026     2.6505   21 C    0 0 0
  24 C    1     1.5513     2.9316    4 B    0 0 1
  24 C    1     2.1490     4.0610   10 H    0-1 0
  24 C    1     2.1493     4.0616    8 H    0 0 0
  24 C    1     2.4250     4.5825   20 C    0-1 0

  25 C    1     1.4020     2.6494   26 C    1 0 0
  25 C    1     1.4021     2.6495   28 C    0 0 0
  25 C    1     1.5503     2.9297    1 B    1 0 0
  25 C    1     2.1469     4.0571   11 H    1 0 0
  25 C    1     2.1475     4.0581   13 H    0 0 0
  25 C    1     2.4246     4.5818   27 C    0 0 0

  26 C    1     1.0913     2.0623   11 H    0 0 0
  26 C    1     1.3914     2.6293   29 C    0 0 0
  26 C    1     1.4020     2.6494   25 C   -1 0 0
  26 C    1     2.1666     4.0942   14 H    0 0 0
  26 C    1     2.4175     4.5684   28 C   -1 0 0
  26 C    1     2.4251     4.5828   30 C   -1 0 0

  27 C    1     1.0914     2.0625   12 H    0 0 0
  27 C    1     1.3915     2.6295   28 C    0 0 0
  27 C    1     1.4026     2.6505   30 C    0 0 0
  27 C    1     2.1679     4.0967   13 H    0 0 0
  27 C    1     2.4179     4.5691   29 C    1 0 0
  27 C    1     2.4246     4.5818   25 C    0 0 0

  28 C    1     1.0914     2.0624   13 H    0 0 0
  28 C    1     1.3915     2.6295   27 C    0 0 0
  28 C    1     1.4021     2.6495   25 C    0 0 0
  28 C    1     2.1664     4.0939   12 H    0 0 0
  28 C    1     2.4175     4.5684   26 C    1 0 0
  28 C    1     2.4253     4.5832   30 C    0 0 0

  29 C    1     1.0914     2.0625   14 H    0 0 0
  29 C    1     1.3914     2.6293   26 C    0 0 0
  29 C    1     1.4025     2.6504   30 C   -1 0 0
  29 C    1     2.1680     4.0968   11 H    0 0 0
  29 C    1     2.4179     4.5691   27 C   -1 0 0
  29 C    1     2.4247     4.5819   25 C   -1 0 0

  30 C    1     1.4025     2.6504   29 C    1 0 0
  30 C    1     1.4026     2.6505   27 C    0 0 0
  30 C    1     1.5516     2.9322    6 B    0 0-1
  30 C    1     2.1491     4.0612   14 H    1 0 0
  30 C    1     2.1493     4.0617   12 H    0 0 0
  30 C    1     2.4251     4.5828   26 C    1 0 0

  31 C    1     1.4021     2.6496   32 C    1 1 0
  31 C    1     1.4021     2.6497   34 C    0 0 0
  31 C    1     1.5502     2.9294    3 B    1 1 0
  31 C    1     2.1475     4.0582   15 H    1 1 0
  31 C    1     2.1479     4.0589   17 H    0 0 0
  31 C    1     2.4244     4.5814   33 C    0 0 0

  32 C    1     1.0914     2.0624   15 H    0 0 0
  32 C    1     1.3914     2.6293   35 C    0 0 0
  32 C    1     1.4021     2.6496   31 C   -1-1 0
  32 C    1     2.1668     4.0947   18 H    0 0 0
  32 C    1     2.4179     4.5692   34 C   -1-1 0
  32 C    1     2.4251     4.5827   36 C   -1-1 0

  33 C    1     1.0913     2.0623   16 H    0 0 0
  33 C    1     1.3914     2.6294   34 C    0 0 0
  33 C    1     1.4025     2.6504   36 C    0 0 0
  33 C    1     2.1679     4.0968   17 H    0 0 0
  33 C    1     2.4178     4.5690   35 C    1 1 0
  33 C    1     2.4244     4.5814   31 C    0 0 0

  34 C    1     1.0915     2.0626   17 H    0 0 0
  34 C    1     1.3914     2.6294   33 C    0 0 0
  34 C    1     1.4021     2.6497   31 C    0 0 0
  34 C    1     2.1667     4.0945   16 H    0 0 0
  34 C    1     2.4179     4.5692   32 C    1 1 0
  34 C    1     2.4253     4.5832   36 C    0 0 0

  35 C    1     1.0914     2.0624   18 H    0 0 0
  35 C    1     1.3914     2.6293   32 C    0 0 0
  35 C    1     1.4025     2.6503   36 C   -1-1 0
  35 C    1     2.1678     4.0966   15 H    0 0 0
  35 C    1     2.4178     4.5690   33 C   -1-1 0
  35 C    1     2.4245     4.5817   31 C   -1-1 0

  36 C    1     1.4025     2.6503   35 C    1 1 0
  36 C    1     1.4025     2.6504   33 C    0 0 0
  36 C    1     1.5516     2.9322    5 B    0 0 1
  36 C    1     2.1486     4.0602   18 H    1 1 0
  36 C    1     2.1487     4.0605   16 H    0 0 0
  36 C    1     2.4251     4.5827   32 C    1 1 0

  37 O    1     1.3791     2.6061    1 B    1 0 1
  37 O    1     1.3791     2.6061    3 B    1 1 0
  37 O    1     2.3880     4.5126   38 O    1 0 1
  37 O    1     2.3882     4.5130   39 O    1 1 0
  37 O    1     2.5383     4.7966   31 C    0 0 0
  37 O    1     2.5384     4.7968   25 C    0 0 1

  38 O    1     1.3793     2.6065    1 B    0 0 0
  38 O    1     1.3793     2.6065    2 B    0 0 0
  38 O    1     2.3880     4.5126   37 O   -1 0-1
  38 O    1     2.3882     4.5131   39 O    0 1-1
  38 O    1     2.5391     4.7981   19 C    0 0-1
  38 O    1     2.5395     4.7990   25 C   -1 0 0

  39 O    1     1.3793     2.6064    3 B    0 0 0
  39 O    1     1.3793     2.6065    2 B    0-1 1
  39 O    1     2.3882     4.5130   37 O   -1-1 0
  39 O    1     2.3882     4.5131   38 O    0-1 1
  39 O    1     2.5390     4.7980   19 C    0-1 0
  39 O    1     2.5391     4.7982   31 C   -1-1 0

  40 O    1     1.3795     2.6068    6 B    0 0 0
  40 O    1     1.3795     2.6068    4 B    0 0 1
  40 O    1     2.3880     4.5126   42 O    1 0 0
  40 O    1     2.3884     4.5134   41 O    0-1 1
  40 O    1     2.5400     4.7998   24 C    0 0 0
  40 O    1     2.5403     4.8005   30 C    0 0 1

  41 O    1     1.3795     2.6069    5 B    0 0 0
  41 O    1     1.3795     2.6070    4 B    0 1 0
  41 O    1     2.3881     4.5128   42 O    1 1-1
  41 O    1     2.3884     4.5134   40 O    0 1-1
  41 O    1     2.5404     4.8006   24 C    0 1-1
  41 O    1     2.5405     4.8008   36 C    0 0-1

  42 O    1     1.3796     2.6071    6 B   -1 0 0
  42 O    1     1.3797     2.6072    5 B   -1-1 1
  42 O    1     2.3880     4.5126   40 O   -1 0 0
  42 O    1     2.3881     4.5128   41 O   -1-1 1
  42 O    1     2.5409     4.8016   36 C   -1-1 0
  42 O    1     2.5410     4.8019   30 C   -1 0 1


 SYMMETRY ALLOWED INTERNAL DEGREE(S) OF FREEDOM: 123
 TTTTTTTTTTTTTTTTTTTTTTTTTTTTTT SYMM        TELAPSE        0.29 TCPU        0.29
 TTTTTTTTTTTTTTTTTTTTTTTTTTTTTT INT_SCREEN  TELAPSE        0.32 TCPU        0.31

 DFT PARAMETERS

     ATOM       ELECTRONS   NET CHARGE   R(ANGSTROM)
   1   5  B       5.0000      0.0000     0.89000000
   7   1  H       1.0000      0.0000     1.11000000
  19   6  C       6.0000      0.0000     0.77000000
  37   8  O       8.0000      0.0000     0.74000000

 SIZE OF GRID=    1307227
 TTTTTTTTTTTTTTTTTTTTTTTTTTTTTT MAKE_GRID2  TELAPSE       10.00 TCPU        9.99
 BECKE WEIGHT FUNCTION
 RADSAFE =     2.00
 TOLERANCES - DENSITY:10**- 6; POTENTIAL:10**- 9; GRID WGT:10**-14

 RADIAL INTEGRATION  - INTERVALS (POINTS,UPPER LIMIT):            1( 75,  4.0*R)

 ANGULAR INTEGRATION - INTERVALS (ACCURACY LEVEL [N. POINTS] UPPER LIMIT):
  1(  4[  86]   0.2)  2(  8[ 194]   0.5)  3( 12[ 350]   0.9)  4( 16[ 974]   3.5)
  5( 12[ 350]9999.0)
 TTTTTTTTTTTTTTTTTTTTTTTTTTTTTT INT_CALC    TELAPSE       10.09 TCPU       10.08
 EEEEEEEEEE INT_CALC TERMINATION  DATE 19 02 2026 TIME 19:05:45.3

 *******************************************************************************
 cof-1_z40_L000_incl                                                             
 CRYSTAL - SCF - TYPE OF CALCULATION :  RESTRICTED CLOSED SHELL
 *******************************************************************************

 CAPPA:IS1  2;IS2  2;IS3  8; K PTS MONK NET  20; SYMMOPS:K SPACE   2;G SPACE   1

 TTTTTTTTTTTTTTTTTTTTTTTTTTTTTT SDIK        TELAPSE       10.68 TCPU       18.11

 AAAAAAAAAAAAAAAAAAAAAAAAAAAAAAAAAAAAAAAAAAAAAAAAAAAAAAAAAAAAAAAAAAAAAAAAAAAAAAA
         ATOMIC WAVEFUNCTION(S)


 NUCLEAR CHARGE  5.0  SYMMETRY SPECIES            S    P
 N. ELECTRONS    5.0  NUMBER OF PRIMITIVE GTOS    8    4
                      NUMBER OF CONTRACTED GTOS   4    2
                      NUMBER OF CLOSED SHELLS     2    0
                      OPEN SHELL OCCUPATION       0    1

  ZNUC  SCFIT    TOTAL HF ENERGY   KINETIC ENERGY   VIRIAL THEOREM ACCURACY
   5.0    11    -2.451164084E+01  2.462155050E+01 -1.995536038E+00  1.5E-06

 NUCLEAR CHARGE  1.0  SYMMETRY SPECIES            S
 N. ELECTRONS    1.0  NUMBER OF PRIMITIVE GTOS    4
                      NUMBER OF CONTRACTED GTOS   2
                      NUMBER OF CLOSED SHELLS     0
                      OPEN SHELL OCCUPATION       1

  ZNUC  SCFIT    TOTAL HF ENERGY   KINETIC ENERGY   VIRIAL THEOREM ACCURACY
   1.0     1    -4.977266687E-01  5.190767460E-01 -1.958869132E+00  0.0E+00

 NUCLEAR CHARGE  6.0  SYMMETRY SPECIES            S    P
 N. ELECTRONS    6.0  NUMBER OF PRIMITIVE GTOS    8    4
                      NUMBER OF CONTRACTED GTOS   4    2
                      NUMBER OF CLOSED SHELLS     2    0
                      OPEN SHELL OCCUPATION       0    2

  ZNUC  SCFIT    TOTAL HF ENERGY   KINETIC ENERGY   VIRIAL THEOREM ACCURACY
   6.0     9    -3.766704647E+01  3.775180683E+01 -1.997754800E+00  1.1E-06

 NUCLEAR CHARGE  8.0  SYMMETRY SPECIES            S    P
 N. ELECTRONS    8.0  NUMBER OF PRIMITIVE GTOS    8    4
                      NUMBER OF CONTRACTED GTOS   4    2
                      NUMBER OF CLOSED SHELLS     2    0
                      OPEN SHELL OCCUPATION       0    4

  ZNUC  SCFIT    TOTAL HF ENERGY   KINETIC ENERGY   VIRIAL THEOREM ACCURACY
   8.0    12    -7.477373220E+01  7.477365593E+01 -2.000001020E+00  3.8E-06

 AAAAAAAAAAAAAAAAAAAAAAAAAAAAAAAAAAAAAAAAAAAAAAAAAAAAAAAAAAAAAAAAAAAAAAAAAAAAAAA

 CHARGE NORMALIZATION FACTOR   1.00000000
 TOTAL ATOMIC CHARGES:
   5.0000000   5.0000000   5.0000000   5.0000000   5.0000000   5.0000000
   1.0000000   1.0000000   1.0000000   1.0000000   1.0000000   1.0000000
   1.0000000   1.0000000   1.0000000   1.0000000   1.0000000   1.0000000
   6.0000000   6.0000000   6.0000000   6.0000000   6.0000000   6.0000000
   6.0000000   6.0000000   6.0000000   6.0000000   6.0000000   6.0000000
   6.0000000   6.0000000   6.0000000   6.0000000   6.0000000   6.0000000
   8.0000000   8.0000000   8.0000000   8.0000000   8.0000000   8.0000000
 TTTTTTTTTTTTTTTTTTTTTTTTTTTTTT MOQGAD      TELAPSE       10.73 TCPU       19.68
 TTTTTTTTTTTTTTTTTTTTTTTTTTTTTT SHELLXN     TELAPSE       18.28 TCPU      260.95
 TTTTTTTTTTTTTTTTTTTTTTTTTTTTTT MONMO3      TELAPSE       18.43 TCPU      265.84
 NUMERICALLY INTEGRATED DENSITY    197.9999710858
 TTTTTTTTTTTTTTTTTTTTTTTTTTTTTT NUMDFT      TELAPSE       18.98 TCPU      283.37
 CYC   0 ETOT(AU) -1.295958605489E+03 DETOT -1.30E+03 tst  0.00E+00 PX  1.00E+00
 TTTTTTTTTTTTTTTTTTTTTTTTTTTTTT DIIS        TELAPSE       19.01 TCPU      284.42
 TTTTTTTTTTTTTTTTTTTTTTTTTTTTTT FDIK        TELAPSE       19.50 TCPU      299.89
 INSULATING STATE
 TOP OF VALENCE BANDS -    BAND     99; K    1; EIG -3.0605780E-01 AU
 BOTTOM OF VIRTUAL BANDS - BAND    100; K   17; EIG -1.6787168E-01 AU
 INDIRECT ENERGY BAND GAP:   3.7602 eV
 BOTTOM OF VIRTUAL BANDS - BAND    100; K    1; EIG -1.4303802E-01 AU
 TTTTTTTTTTTTTTTTTTTTTTTTTTTTTT PDIG        TELAPSE       19.78 TCPU      306.03
 CHARGE NORMALIZATION FACTOR   1.00000000
 TOTAL ATOMIC CHARGES:
   4.1464330   4.1462782   4.1465068   4.1461846   4.1459715   4.1461463
   0.7856937   0.7858060   0.7856514   0.7857681   0.7856730   0.7858350
   0.7856612   0.7857983   0.7856528   0.7858332   0.7856437   0.7857992
   6.0496174   6.2680949   6.2680504   6.2680448   6.2679751   6.0488725
   6.0496711   6.2680806   6.2681483   6.2679873   6.2681628   6.0484271
   6.0499874   6.2678069   6.2683487   6.2677242   6.2683346   6.0483970
   8.6967224   8.6968275   8.6967690   8.6971378   8.6971660   8.6973102
 TTTTTTTTTTTTTTTTTTTTTTTTTTTTTT MOQGAD      TELAPSE       19.83 TCPU      306.08
 TTTTTTTTTTTTTTTTTTTTTTTTTTTTTT SHELLXN     TELAPSE       27.67 TCPU      556.02
 TTTTTTTTTTTTTTTTTTTTTTTTTTTTTT MONMO3      TELAPSE       27.82 TCPU      560.90
 NUMERICALLY INTEGRATED DENSITY    197.9999851286
 TTTTTTTTTTTTTTTTTTTTTTTTTTTTTT NUMDFT      TELAPSE       28.38 TCPU      578.78
 CYC   1 ETOT(AU) -1.288805883139E+03 DETOT  7.15E+00 tst  0.00E+00 PX  1.00E+00
 TTTTTTTTTTTTTTTTTTTTTTTTTTTTTT DIIS        TELAPSE       28.43 TCPU      580.18
 DIIS TEST: 0.11207E+01 AT SCF   CYCLE   1 - MIX   30 %
 TTTTTTTTTTTTTTTTTTTTTTTTTTTTTT FDIK        TELAPSE       28.91 TCPU      595.77
 INSULATING STATE
 TOP OF VALENCE BANDS -    BAND     99; K    1; EIG -2.0877813E-01 AU
 BOTTOM OF VIRTUAL BANDS - BAND    100; K   17; EIG -9.1402597E-02 AU
 INDIRECT ENERGY BAND GAP:   3.1940 eV
 BOTTOM OF VIRTUAL BANDS - BAND    100; K    1; EIG -6.0223168E-02 AU
 TTTTTTTTTTTTTTTTTTTTTTTTTTTTTT PDIG        TELAPSE       29.20 TCPU      601.91
 CHARGE NORMALIZATION FACTOR   1.00000000
 TOTAL ATOMIC CHARGES:
   4.7092127   4.7091443   4.7091476   4.7095767   4.7095599   4.7096582
   0.9197177   0.9197832   0.9196963   0.9197304   0.9197239   0.9197873
   0.9196998   0.9197688   0.9196846   0.9197952   0.9196594   0.9197955
   5.8633855   6.1232794   6.1238536   6.1231448   6.1238299   5.8662170
   5.8631995   6.1229956   6.1238517   6.1232614   6.1237212   5.8666687
   5.8633156   6.1232376   6.1236651   6.1235107   6.1235726   5.8664450
   8.3391244   8.3395112   8.3394624   8.3389940   8.3391982   8.3394135
 TTTTTTTTTTTTTTTTTTTTTTTTTTTTTT MOQGAD      TELAPSE       29.25 TCPU      601.96
 TTTTTTTTTTTTTTTTTTTTTTTTTTTTTT SHELLXN     TELAPSE       37.08 TCPU      851.90
 TTTTTTTTTTTTTTTTTTTTTTTTTTTTTT MONMO3      TELAPSE       37.24 TCPU      856.78
 NUMERICALLY INTEGRATED DENSITY    197.9999853109
 TTTTTTTTTTTTTTTTTTTTTTTTTTTTTT NUMDFT      TELAPSE       37.80 TCPU      874.65
 CYC   2 ETOT(AU) -1.289000764971E+03 DETOT -1.95E-01 tst  4.80E-03 PX  1.57E-01
 TTTTTTTTTTTTTTTTTTTTTTTTTTTTTT DIIS        TELAPSE       37.84 TCPU      876.11
 DIIS TEST: 0.48600E+00 AT SCF   CYCLE   2 - DIIS ACTIVE - HISTORY:     2 CYCLES
 TTTTTTTTTTTTTTTTTTTTTTTTTTTTTT FDIK        TELAPSE       38.33 TCPU      891.84
 INSULATING STATE
 TOP OF VALENCE BANDS -    BAND     99; K    1; EIG -2.2498914E-01 AU
 BOTTOM OF VIRTUAL BANDS - BAND    100; K   17; EIG -8.6974644E-02 AU
 INDIRECT ENERGY BAND GAP:   3.7556 eV
 BOTTOM OF VIRTUAL BANDS - BAND    100; K    1; EIG -5.4062984E-02 AU
 TTTTTTTTTTTTTTTTTTTTTTTTTTTTTT PDIG        TELAPSE       38.61 TCPU      897.97
 CHARGE NORMALIZATION FACTOR   1.00000000
 TOTAL ATOMIC CHARGES:
   4.4941780   4.4940368   4.4941620   4.4935203   4.4933339   4.4934404
   0.8920590   0.8921853   0.8920308   0.8921438   0.8920146   0.8922297
   0.8920503   0.8921544   0.8920307   0.8921861   0.8920620   0.8921535
   5.8920789   6.1612174   6.1604700   6.1611360   6.1603603   5.8904515
   5.8922371   6.1612150   6.1604222   6.1612674   6.1603829   5.8901422
   5.8923786   6.1610936   6.1605035   6.1611466   6.1604353   5.8901566
   8.5089889   8.5091593   8.5091247   8.5091199   8.5092234   8.5093171
 TTTTTTTTTTTTTTTTTTTTTTTTTTTTTT MOQGAD      TELAPSE       38.66 TCPU      898.02
 TTTTTTTTTTTTTTTTTTTTTTTTTTTTTT SHELLXN     TELAPSE       46.50 TCPU     1147.97
 TTTTTTTTTTTTTTTTTTTTTTTTTTTTTT MONMO3      TELAPSE       46.65 TCPU     1152.84
 NUMERICALLY INTEGRATED DENSITY    197.9999837975
 TTTTTTTTTTTTTTTTTTTTTTTTTTTTTT NUMDFT      TELAPSE       47.21 TCPU     1170.64
 CYC   3 ETOT(AU) -1.289102807315E+03 DETOT -1.02E-01 tst  7.46E-04 PX  5.94E-02
 TTTTTTTTTTTTTTTTTTTTTTTTTTTTTT DIIS        TELAPSE       47.26 TCPU     1172.33
 DIIS TEST: 0.10265E-01 AT SCF   CYCLE   3 - DIIS ACTIVE - HISTORY:     3 CYCLES
 TTTTTTTTTTTTTTTTTTTTTTTTTTTTTT FDIK        TELAPSE       47.75 TCPU     1187.96
 INSULATING STATE
 TOP OF VALENCE BANDS -    BAND     99; K    1; EIG -2.3469641E-01 AU
 BOTTOM OF VIRTUAL BANDS - BAND    100; K   17; EIG -9.6598098E-02 AU
 INDIRECT ENERGY BAND GAP:   3.7578 eV
 BOTTOM OF VIRTUAL BANDS - BAND    100; K    1; EIG -6.4781240E-02 AU
 TTTTTTTTTTTTTTTTTTTTTTTTTTTTTT PDIG        TELAPSE       48.04 TCPU     1194.10
 CHARGE NORMALIZATION FACTOR   1.00000000
 TOTAL ATOMIC CHARGES:
   4.5008765   4.5007818   4.5008820   4.5013487   4.5011918   4.5013312
   0.8757738   0.8758152   0.8757531   0.8757618   0.8757795   0.8758195
   0.8757821   0.8757717   0.8757604   0.8758038   0.8757616   0.8757937
   5.9427633   6.1595925   6.1610703   6.1594807   6.1610546   5.9474466
   5.9424767   6.1593664   6.1611775   6.1594345   6.1611673   5.9477301
   5.9427192   6.1594228   6.1611264   6.1594872   6.1611023   5.9475507
   8.4814112   8.4817225   8.4816680   8.4815709   8.4817230   8.4819469
 TTTTTTTTTTTTTTTTTTTTTTTTTTTTTT MOQGAD      TELAPSE       48.09 TCPU     1194.15
 TTTTTTTTTTTTTTTTTTTTTTTTTTTTTT SHELLXN     TELAPSE       55.92 TCPU     1444.09
 TTTTTTTTTTTTTTTTTTTTTTTTTTTTTT MONMO3      TELAPSE       56.08 TCPU     1448.98
 NUMERICALLY INTEGRATED DENSITY    197.9999844725
 TTTTTTTTTTTTTTTTTTTTTTTTTTTTTT NUMDFT      TELAPSE       56.63 TCPU     1466.79
 CYC   4 ETOT(AU) -1.289104892555E+03 DETOT -2.09E-03 tst  2.94E-05 PX  1.23E-02
 TTTTTTTTTTTTTTTTTTTTTTTTTTTTTT DIIS        TELAPSE       56.69 TCPU     1468.62
 DIIS TEST: 0.37560E-02 AT SCF   CYCLE   4 - DIIS ACTIVE - HISTORY:     4 CYCLES
 TTTTTTTTTTTTTTTTTTTTTTTTTTTTTT FDIK        TELAPSE       57.18 TCPU     1484.36
 INSULATING STATE
 TOP OF VALENCE BANDS -    BAND     99; K    1; EIG -2.3307687E-01 AU
 BOTTOM OF VIRTUAL BANDS - BAND    100; K   17; EIG -9.5483295E-02 AU
 INDIRECT ENERGY BAND GAP:   3.7441 eV
 BOTTOM OF VIRTUAL BANDS - BAND    100; K    1; EIG -6.3393707E-02 AU
 TTTTTTTTTTTTTTTTTTTTTTTTTTTTTT PDIG        TELAPSE       57.46 TCPU     1490.49
 CHARGE NORMALIZATION FACTOR   1.00000000
 TOTAL ATOMIC CHARGES:
   4.5026285   4.5025023   4.5026164   4.5020475   4.5018837   4.5020002
   0.8790313   0.8792193   0.8790014   0.8791788   0.8789988   0.8792584
   0.8790100   0.8792028   0.8789978   0.8792277   0.8790084   0.8792094
   5.9219724   6.1646437   6.1632648   6.1645608   6.1631810   5.9187446
   5.9221117   6.1645905   6.1632221   6.1647205   6.1631335   5.9185412
   5.9222236   6.1645381   6.1632599   6.1646724   6.1631489   5.9185275
   8.4912180   8.4914202   8.4913717   8.4911805   8.4913116   8.4914184
 TTTTTTTTTTTTTTTTTTTTTTTTTTTTTT MOQGAD      TELAPSE       57.51 TCPU     1490.53
 TTTTTTTTTTTTTTTTTTTTTTTTTTTTTT SHELLXN     TELAPSE       65.34 TCPU     1740.30
 TTTTTTTTTTTTTTTTTTTTTTTTTTTTTT MONMO3      TELAPSE       65.49 TCPU     1745.18
 NUMERICALLY INTEGRATED DENSITY    197.9999846337
 TTTTTTTTTTTTTTTTTTTTTTTTTTTTTT NUMDFT      TELAPSE       66.05 TCPU     1763.01
 CYC   5 ETOT(AU) -1.289105727606E+03 DETOT -8.35E-04 tst  6.64E-06 PX  7.41E-03
 TTTTTTTTTTTTTTTTTTTTTTTTTTTTTT DIIS        TELAPSE       66.12 TCPU     1765.08
 DIIS TEST: 0.13553E-03 AT SCF   CYCLE   5 - DIIS ACTIVE - HISTORY:     5 CYCLES
 TTTTTTTTTTTTTTTTTTTTTTTTTTTTTT FDIK        TELAPSE       66.61 TCPU     1780.73
 INSULATING STATE
 TOP OF VALENCE BANDS -    BAND     99; K    1; EIG -2.3283687E-01 AU
 BOTTOM OF VIRTUAL BANDS - BAND    100; K   17; EIG -9.4913119E-02 AU
 INDIRECT ENERGY BAND GAP:   3.7531 eV
 BOTTOM OF VIRTUAL BANDS - BAND    100; K    1; EIG -6.2815623E-02 AU
 TTTTTTTTTTTTTTTTTTTTTTTTTTTTTT PDIG        TELAPSE       66.89 TCPU     1786.86
 CHARGE NORMALIZATION FACTOR   1.00000000
 TOTAL ATOMIC CHARGES:
   4.5015529   4.5014470   4.5015500   4.5021898   4.5020330   4.5021623
   0.8801272   0.8800941   0.8801055   0.8800453   0.8801198   0.8801082
   0.8801360   0.8800492   0.8801109   0.8800864   0.8801251   0.8800659
   5.9180269   6.1616766   6.1641844   6.1615715   6.1641269   5.9252906
   5.9177915   6.1615104   6.1642551   6.1615102   6.1642922   5.9254657
   5.9180347   6.1615197   6.1642323   6.1615082   6.1642601   5.9253210
   8.4902181   8.4905063   8.4904659   8.4905530   8.4906801   8.4908901
 TTTTTTTTTTTTTTTTTTTTTTTTTTTTTT MOQGAD      TELAPSE       66.94 TCPU     1786.91
 TTTTTTTTTTTTTTTTTTTTTTTTTTTTTT SHELLXN     TELAPSE       74.77 TCPU     2036.81
 TTTTTTTTTTTTTTTTTTTTTTTTTTTTTT MONMO3      TELAPSE       74.93 TCPU     2041.69
 NUMERICALLY INTEGRATED DENSITY    197.9999845525
 TTTTTTTTTTTTTTTTTTTTTTTTTTTTTT NUMDFT      TELAPSE       75.49 TCPU     2059.54
 CYC   6 ETOT(AU) -1.289105720970E+03 DETOT  6.64E-06 tst  1.81E-06 PX  1.59E-03
 TTTTTTTTTTTTTTTTTTTTTTTTTTTTTT DIIS        TELAPSE       75.55 TCPU     2061.63
 DIIS TEST: 0.14942E-03 AT SCF   CYCLE   6 - DIIS ACTIVE - HISTORY:     6 CYCLES
 TTTTTTTTTTTTTTTTTTTTTTTTTTTTTT FDIK        TELAPSE       76.04 TCPU     2077.25
 INSULATING STATE
 TOP OF VALENCE BANDS -    BAND     99; K    1; EIG -2.3283915E-01 AU
 BOTTOM OF VIRTUAL BANDS - BAND    100; K   17; EIG -9.4939858E-02 AU
 INDIRECT ENERGY BAND GAP:   3.7524 eV
 BOTTOM OF VIRTUAL BANDS - BAND    100; K    1; EIG -6.2841921E-02 AU
 TTTTTTTTTTTTTTTTTTTTTTTTTTTTTT PDIG        TELAPSE       76.32 TCPU     2083.38
 CHARGE NORMALIZATION FACTOR   1.00000000
 TOTAL ATOMIC CHARGES:
   4.5021004   4.5019837   4.5020930   4.5018789   4.5017172   4.5018410
   0.8800412   0.8801671   0.8800163   0.8801212   0.8800235   0.8801916
   0.8800352   0.8801363   0.8800185   0.8801650   0.8800283   0.8801483
   5.9220117   6.1628996   6.1626529   6.1627998   6.1625911   5.9219261
   5.9219694   6.1627769   6.1626784   6.1628688   6.1626285   5.9219085
   5.9221486   6.1627546   6.1626882   6.1628474   6.1626169   5.9218264
   8.4902729   8.4905131   8.4904653   8.4903429   8.4904766   8.4906289
 TTTTTTTTTTTTTTTTTTTTTTTTTTTTTT MOQGAD      TELAPSE       76.36 TCPU     2083.43
 TTTTTTTTTTTTTTTTTTTTTTTTTTTTTT SHELLXN     TELAPSE       84.20 TCPU     2333.39
 TTTTTTTTTTTTTTTTTTTTTTTTTTTTTT MONMO3      TELAPSE       84.36 TCPU     2338.27
 NUMERICALLY INTEGRATED DENSITY    197.9999845528
 TTTTTTTTTTTTTTTTTTTTTTTTTTTTTT NUMDFT      TELAPSE       84.91 TCPU     2356.10
 CYC   7 ETOT(AU) -1.289105760495E+03 DETOT -3.95E-05 tst  8.72E-07 PX  1.02E-03
 TTTTTTTTTTTTTTTTTTTTTTTTTTTTTT DIIS        TELAPSE       84.99 TCPU     2358.44
 DIIS TEST: 0.26521E-05 AT SCF   CYCLE   7 - DIIS ACTIVE - HISTORY:     7 CYCLES
 TTTTTTTTTTTTTTTTTTTTTTTTTTTTTT FDIK        TELAPSE       85.48 TCPU     2374.09
 INSULATING STATE
 TOP OF VALENCE BANDS -    BAND     99; K    1; EIG -2.3285362E-01 AU
 BOTTOM OF VIRTUAL BANDS - BAND    100; K   17; EIG -9.5012984E-02 AU
 INDIRECT ENERGY BAND GAP:   3.7508 eV
 BOTTOM OF VIRTUAL BANDS - BAND    100; K    1; EIG -6.2911325E-02 AU
 TTTTTTTTTTTTTTTTTTTTTTTTTTTTTT PDIG        TELAPSE       85.76 TCPU     2380.23
 CHARGE NORMALIZATION FACTOR   1.00000000
 TOTAL ATOMIC CHARGES:
   4.5022426   4.5021227   4.5022334   4.5021111   4.5019489   4.5020700
   0.8799738   0.8800773   0.8799467   0.8800336   0.8799499   0.8801078
   0.8799632   0.8800508   0.8799463   0.8800799   0.8799584   0.8800609
   5.9214797   6.1627613   6.1628287   6.1626715   6.1627558   5.9221716
   5.9214917   6.1626693   6.1628241   6.1627577   6.1627764   5.9220998
   5.9216479   6.1626395   6.1628408   6.1627269   6.1627748   5.9220402
   8.4903422   8.4905756   8.4905285   8.4904374   8.4905692   8.4907119
 TTTTTTTTTTTTTTTTTTTTTTTTTTTTTT MOQGAD      TELAPSE       85.81 TCPU     2380.28
 TTTTTTTTTTTTTTTTTTTTTTTTTTTTTT SHELLXN     TELAPSE       93.65 TCPU     2630.27
 TTTTTTTTTTTTTTTTTTTTTTTTTTTTTT MONMO3      TELAPSE       93.81 TCPU     2635.15
 NUMERICALLY INTEGRATED DENSITY    197.9999845562
 TTTTTTTTTTTTTTTTTTTTTTTTTTTTTT NUMDFT      TELAPSE       94.36 TCPU     2652.98
 CYC   8 ETOT(AU) -1.289105761005E+03 DETOT -5.10E-07 tst  8.49E-09 PX  1.39E-04
 TTTTTTTTTTTTTTTTTTTTTTTTTTTTTT DIIS        TELAPSE       94.44 TCPU     2655.53
 DIIS TEST: 0.42404E-07 AT SCF   CYCLE   8 - DIIS ACTIVE - HISTORY:     8 CYCLES
 TTTTTTTTTTTTTTTTTTTTTTTTTTTTTT FDIK        TELAPSE       94.93 TCPU     2671.25
 INSULATING STATE
 TOP OF VALENCE BANDS -    BAND     99; K    1; EIG -2.3286500E-01 AU
 BOTTOM OF VIRTUAL BANDS - BAND    100; K   17; EIG -9.5002625E-02 AU
 INDIRECT ENERGY BAND GAP:   3.7514 eV
 BOTTOM OF VIRTUAL BANDS - BAND    100; K    1; EIG -6.2901065E-02 AU
 TTTTTTTTTTTTTTTTTTTTTTTTTTTTTT PDIG        TELAPSE       95.21 TCPU     2677.38
 CHARGE NORMALIZATION FACTOR   1.00000000
 TOTAL ATOMIC CHARGES:
   4.5022080   4.5020944   4.5022018   4.5020723   4.5019125   4.5020371
   0.8799541   0.8800673   0.8799298   0.8800209   0.8799385   0.8800897
   0.8799509   0.8800337   0.8799326   0.8800640   0.8799431   0.8800467
   5.9215043   6.1628545   6.1628563   6.1627536   6.1627952   5.9220773
   5.9214232   6.1627228   6.1628909   6.1627960   6.1628595   5.9220985
   5.9216143   6.1627073   6.1628937   6.1627791   6.1628433   5.9220046
   8.4903095   8.4905587   8.4905130   8.4904068   8.4905383   8.4907018
 TTTTTTTTTTTTTTTTTTTTTTTTTTTTTT MOQGAD      TELAPSE       95.26 TCPU     2677.43
 TTTTTTTTTTTTTTTTTTTTTTTTTTTTTT SHELLXN     TELAPSE      103.10 TCPU     2927.42
 +++ ENERGIES IN A.U. +++
 ::: EXT EL-POLE                                  -1.2333893554031E+03
 ::: EXT EL-SPHEROPOLE                             1.4298882685119E+01
 ::: BIELET ZONE E-E                               2.1621178002510E+03
 ::: TOTAL E-E                                     9.4302732753306E+02
 ::: TOTAL E-N + N-E                              -3.7152834708540E+03
 ::: TOTAL N-N                                     3.3693102227022E+02
 ::: KINETIC ENERGY                                1.2799325015837E+03
 ::: PSEUDO TOTAL   ENERGY                        -1.1553926194671E+03
 ::: VIRIAL COEFFICIENT                            1.0511389140777E+00
 TTTTTTTTTTTTTTTTTTTTTTTTTTTTTT MONMO3      TELAPSE      103.25 TCPU     2932.30
 NUMERICALLY INTEGRATED DENSITY    197.9999845545
 EXCHANGE ENERGY: -0.126022233153E+03  CORRELATION ENERGY: -0.769090845302E+01
 TTTTTTTTTTTTTTTTTTTTTTTTTTTTTT NUMDFT      TELAPSE      103.81 TCPU     2950.13
 CYC   9 ETOT(AU) -1.289105761073E+03 DETOT -6.89E-08 tst  3.38E-10 PX  1.39E-04

 == SCF ENDED - CONVERGENCE ON ENERGY      E(AU) -1.2891057610734E+03 CYCLES   9


 ENERGY EXPRESSION=HARTREE+FOCK EXCH*0.00000+(HSESOL     EXCH)*1.00000+PBESOL     CORR


 TOTAL ENERGY(DFT)(AU)(  9) -1.2891057610734E+03 DE-6.9E-08 tester 3.4E-10
 TTTTTTTTTTTTTTTTTTTTTTTTTTTTTT EDFT        TELAPSE      103.81 TCPU     2950.14
 
 INFORMATION **** DFTD3 ENERGY **** CALCULATE DFTD3 ENERGY

           DFT-D V3(BJ)
 DF                                         hsesol3c  
 parameters
 s6       :    1.0000
 s8       :    0.0000
 a1       :    0.5196
 a2       :    4.9385
 k1 k3    :   16.0000   -4.0000
 Cutoff   :   50.2022
 CN-Cutoff:   21.1671
 ABC-Cutoff:   21.1671
 
 Edisp /kcal,au:   -26.2159 -0.04177766

 E6    /kcal :   -27.9814
 E8    /kcal :     0.0000
 E6(ABC) "   :   1.765490
 
 INFORMATION **** DFTD3 ENERGY **** NORMAL TERMINATION OF DFTD3 MODULE

 GCP ENERGY CALCULATION
  level        hsesol3c            basis:hsesol3c
  Nbf            474
  Atoms           42

  Parameters: 
  sigma     1.0000
  eta       1.4281
  alpha     0.2936
  beta      1.9467

  dmp_scal      4.0000
  dmp_exp       6.0000
 cutoffs: 
   distance [bohr] 60.0
   noise    [a.u.] 2.2E-16
 SR-damping   T
 ** gCP correction **
  Egcp:        0.0829955657 / (a.u.) ||      52.0805 / (kcal/mol)
 INFORMATION **** GCP **** NORMAL TERMINATION OF GCP MODULE

 *******************************************************************************

 DFT-D3-GCP DISPERSION AND COUNTERPOISE CORRECTION

 D3 DISPERSION ENERGY (AU)      -4.1777661010796E-02
 GCP ENERGY (AU)                 8.2995565655643E-02
 TOTAL ENERGY + DISP + GCP (AU) -1.2890645431688E+03

 *******************************************************************************

 EIGENVECTORS IN FORTRAN UNIT 10
 TTTTTTTTTTTTTTTTTTTTTTTTTTTTTT END         TELAPSE      104.91 TCPU     2957.22
 EEEEEEEEEE TERMINATION  DATE 19 02 2026 TIME 19:07:20.1
