 Default number of threads is:           32

         
 *******************************************************************************
 *                                                                             *
 *                               CRYSTAL23                                     *
 *                      public : 1.0.1 - October 2022                          *
 *                       HTTP://WWW.CRYSTAL.UNITO.IT                           *
 *                                                                             *
 *                              MAIN AUTHORS                                   *
 *                                                                             *
 *  R. DOVESI(1,11), V.R. SAUNDERS(2), C. ROETTI(1,11), R. ORLANDO(1,11),      *
 *  C.M. ZICOVICH-WILSON(1,3), F. PASCALE(4), B. CIVALLERI(1,11),              *
 *  K. DOLL(5), N.M. HARRISON(6), I.J. BUSH(7), Ph. D'ARCO(8),                 *
 *  M. LLUNELL(9), M. CAUSA'(10), Y. NOEL(8), L. MASCHIO(1,11), A. ERBA(1,11)  *
 *  M. RE'RAT(14), S. CASASSA(1,11), B.G. SEARLE(2), J.K. DESMARAIS(1)         *
 *                                                                             *
 *        CONTRIBUTIONS TO THE CODE HAVE ALSO BEEN GIVEN BY                    *
 *                                                                             *
 *  M. FERRABONE(1,11), M. DE LA PIERRE(1,11), M. FERRERO(1,11),               *
 *  J. BAIMA(1,11), E. ALBANESE(1,11), M.F. PEINTINGER(12), R. BAST(13),       *
 *  B. KIRTMAN(15), V. LACIVITA(1,11), R. DEMICHELIS(1,16)                     *
 *  G. BRANDEBURG(17), S. SALUSTRO(1,11), G. SANSONE(1,11)                     *
 *  M.T. RUGGIERO(18), L.E. DAGA(1), L. DONA'(1), A. COSSARD(1)                *
 *                                                                             *
 * (1) THEORETICAL CHEMISTRY GROUP - UNIVERSITA' DI TORINO - TORINO (ITALY)    *
 * (2) SCIENTIFIC COMPUTING DEPARTMENT - STFC DARESBURY (UK)                   *
 * (3) UNIVERSIDAD AUTONOMA DEL ESTADO DE MORELOS - CUERNAVACA (MEXICO)        *
 * (4) UNIVERSITE' DE LORRAINE - NANCY (FRANCE)                                *
 * (5) UNIVERSITAET STUTTGART- STUTTGART (GERMANY)                             *
 * (6) IMPERIAL COLLEGE - LONDON (UK)                                          *
 * (7) SCIENTIFIC COMPUTING DEPARTMENT - STFC RAL (UK)                         *
 * (8) UPMC - SORBONNE UNIVERSITES - PARIS (FRANCE)                            *
 * (9) UNIVERSIDAD DE BARCELONA - BARCELONA (SPAIN)                            *
 *(10) UNIVERSITA' DI NAPOLI "FEDERICO II" - NAPOLI (ITALY)                    *
 *(11) NIS - NANOSTRUCTURED INTERFACES AND SURFACES - TORINO (ITALY)           *
 *(12) MPI FUER CHEMISCHE ENERGIEKONVERSION - MUELHEIM AN DER RUHR (GERMANY)   *
 *(13) UNIVERSITY OF TROMSO - TROMSO (NORWAY)                                  *
 *(14) UNIVERSITE' DE PAU ET DES PAYS DE L'ADOUR - PAU (FRANCE)                *
 *(15) UNIVERSITY OF CALIFORNIA SANTA BARBARA - SANTA BARBARA (USA)            *
 *(16) CURTIN UNIVERSITY - PERTH (AUSTRALIA)                                   *
 *(17) UNIVERSITY COLLEGE LONDON - LONDON (UK)                                 *
 *(18) UNIVERSITY OF VERMONT - BURLINGTON (USA)                                *
 *                                                                             *
 *******************************************************************************
 EEEEEEEEEE STARTING  DATE 19 02 2026 TIME 20:15:46.4
 cof-1_z37_L050_serr                                                             

 CRYSTAL CALCULATION
 (INPUT ACCORDING TO THE INTERNATIONAL TABLES FOR X-RAY CRYSTALLOGRAPHY)
 CRYSTAL FAMILY                       :  TRICLINIC   
 CRYSTAL CLASS  (GROTH - 1921)        :  TRICLINIC PEDIAL                     

 SPACE GROUP (NONCENTROSYMMETRIC)     :  P 1             

 LATTICE PARAMETERS  (ANGSTROMS AND DEGREES) - CONVENTIONAL CELL
        A           B           C        ALPHA        BETA       GAMMA
    15.02361    15.02392     7.40000    90.00032    89.99994   119.99596


 NUMBER OF IRREDUCIBLE ATOMS IN THE CONVENTIONAL CELL:   84

 INPUT COORDINATES

 ATOM AT. N.              COORDINATES
   1   5     6.136805400000E-01  2.273182200000E-01  2.506455000000E-01
   2   5     8.057969300000E-01  6.115900500000E-01  7.506455000000E-01
   3   5     7.727362000000E-01  3.863778800000E-01  2.506455100000E-01
   4   5     9.648525900000E-01  7.706497100000E-01  7.506455100000E-01
   5   5     6.136762700000E-01  3.863606700000E-01  2.492883200000E-01
   6   5     8.057926600000E-01  7.706325000000E-01  7.492883200000E-01
   7   5     2.272552500000E-01  6.136332200000E-01  2.506455100000E-01
   8   5     4.193716400000E-01  9.979050500000E-01  7.506455100000E-01
   9   5     3.863632200000E-01  6.136124500000E-01  2.506455000000E-01
  10   5     5.784796100000E-01  9.978842800000E-01  7.506455000000E-01
  11   5     3.863435000000E-01  7.727516500000E-01  2.492883200000E-01
  12   5     5.784598900000E-01  1.570234800000E-01  7.492883200000E-01
  13   1     9.030436200000E-01  3.089300500000E-01  2.478317800000E-01
  14   1     9.516001000000E-02  6.932018800000E-01  7.478317800000E-01
  15   1     9.663453000000E-02  6.910534400000E-01  2.474015200000E-01
  16   1     2.887509200000E-01  7.532527000000E-02  7.474015200000E-01
  17   1     9.029714200000E-01  5.940724300000E-01  2.473353000000E-01
  18   1     9.508781000000E-02  9.783442600000E-01  7.473353000000E-01
  19   1     9.673618000000E-02  4.056849400000E-01  2.473518100000E-01
  20   1     2.888525700000E-01  7.899567700000E-01  7.473518100000E-01
  21   1     6.910324000000E-01  9.700412000000E-02  2.521682400000E-01
  22   1     8.831487900000E-01  4.812759500000E-01  7.521682300000E-01
  23   1     3.089297200000E-01  9.034373100000E-01  2.525985200000E-01
  24   1     5.010461100000E-01  2.877091400000E-01  7.525985300000E-01
  25   1     4.058699900000E-01  9.704998000000E-02  2.526647900000E-01
  26   1     5.979863800000E-01  4.813218100000E-01  7.526647900000E-01
  27   1     5.943122100000E-01  9.033473200000E-01  2.526481600000E-01
  28   1     7.864286000000E-01  2.876191500000E-01  7.526481600000E-01
  29   1     6.910727400000E-01  5.940542100000E-01  2.478318100000E-01
  30   1     8.831891300000E-01  9.783260400000E-01  7.478318100000E-01
  31   1     3.089618300000E-01  4.056093300000E-01  2.474014900000E-01
  32   1     5.010782200000E-01  7.898811600000E-01  7.474014900000E-01
  33   1     4.058405700000E-01  3.088232500000E-01  2.473352500000E-01
  34   1     5.979569600000E-01  6.930950800000E-01  7.473352500000E-01
  35   1     5.942908800000E-01  6.909579300000E-01  2.473518700000E-01
  36   1     7.864072700000E-01  7.522976000000E-02  7.473518700000E-01
  37   6     8.918903100000E-01  4.459436900000E-01  2.492386600000E-01
  38   6     8.400670000000E-02  8.302155200000E-01  7.492386600000E-01
  39   6     9.464891100000E-01  3.927856300000E-01  2.478980000000E-01
  40   6     1.386055000000E-01  7.770574600000E-01  7.478980000000E-01
  41   6     5.338812000000E-02  6.071853000000E-01  2.477821800000E-01
  42   6     2.455045100000E-01  9.914571300000E-01  7.477821800000E-01
  43   6     9.464521100000E-01  5.536921900000E-01  2.481297500000E-01
  44   6     1.385685000000E-01  9.379640200000E-01  7.481297600000E-01
  45   6     5.342634000000E-02  4.462499700000E-01  2.472359600000E-01
  46   6     2.455427300000E-01  8.305218000000E-01  7.472359600000E-01
  47   6     1.080358900000E-01  5.540356300000E-01  2.481462900000E-01
  48   6     3.001522800000E-01  9.383074600000E-01  7.481462900000E-01
  49   6     5.540394200000E-01  1.081684600000E-01  2.507613700000E-01
  50   6     7.461558100000E-01  4.924402900000E-01  7.507613700000E-01
  51   6     6.071778500000E-01  5.355594000000E-02  2.521020100000E-01
  52   6     7.992942400000E-01  4.378277700000E-01  7.521020100000E-01
  53   6     3.927986700000E-01  9.466631600000E-01  2.522178700000E-01
  54   6     5.849150600000E-01  3.309349900000E-01  7.522178700000E-01
  55   6     4.462875800000E-01  5.360286000000E-02  2.518703100000E-01
  56   6     6.384039700000E-01  4.378746900000E-01  7.518703100000E-01
  57   6     5.537168500000E-01  9.466235600000E-01  2.527640400000E-01
  58   6     7.458332400000E-01  3.308953900000E-01  7.527640400000E-01
  59   6     4.459279100000E-01  8.919920600000E-01  2.518537400000E-01
  60   6     6.380443000000E-01  2.762638900000E-01  7.518537400000E-01
  61   6     5.540448700000E-01  4.458745500000E-01  2.492386600000E-01
  62   6     7.461612600000E-01  8.301463800000E-01  7.492386600000E-01
  63   6     6.072102200000E-01  5.536257800000E-01  2.478980300000E-01
  64   6     7.993266100000E-01  9.378976100000E-01  7.478980300000E-01
  65   6     3.928233700000E-01  4.461720300000E-01  2.477821600000E-01
  66   6     5.849397600000E-01  8.304438600000E-01  7.477821600000E-01
  67   6     4.462872600000E-01  3.926899900000E-01  2.481297200000E-01
  68   6     6.384036500000E-01  7.769618200000E-01  7.481297200000E-01
  69   6     5.537429600000E-01  6.070980000000E-01  2.472359900000E-01
  70   6     7.458593500000E-01  9.913698300000E-01  7.472359900000E-01
  71   6     4.459599800000E-01  5.539582300000E-01  2.481462900000E-01
  72   6     6.380763700000E-01  9.382300600000E-01  7.481462900000E-01
  73   8     5.607366800000E-01  2.803706300000E-01  2.496524400000E-01
  74   8     7.528530700000E-01  6.646424600000E-01  7.496524400000E-01
  75   8     7.196817000000E-01  2.803783300000E-01  2.525157700000E-01
  76   8     9.117980900000E-01  6.646501600000E-01  7.525157700000E-01
  77   8     7.196794200000E-01  4.393234600000E-01  2.481959500000E-01
  78   8     9.117958100000E-01  8.235952900000E-01  7.481959500000E-01
  79   8     2.803245100000E-01  7.196511100000E-01  2.496524500000E-01
  80   8     4.724409000000E-01  1.039229400000E-01  7.496524500000E-01
  81   8     2.803439700000E-01  5.606956100000E-01  2.525157700000E-01
  82   8     4.724603600000E-01  9.449674400000E-01  7.525157700000E-01
  83   8     4.392638400000E-01  7.196354200000E-01  2.481959400000E-01
  84   8     6.313802300000E-01  1.039072500000E-01  7.481959400000E-01

 *******************************************************************************

 << INFORMATION >>: FROM NOW ON, ALL COORDINATES REFER TO THE PRIMITIVE CELL

 *******************************************************************************

 LATTICE PARAMETERS  (ANGSTROMS AND DEGREES) - PRIMITIVE CELL
       A          B          C        ALPHA      BETA     GAMMA        VOLUME
   15.02361   15.02392    7.40000    90.00032  89.99994 119.99596   1446.563455

 COORDINATES OF THE EQUIVALENT ATOMS (FRACTIONAL UNITS)

 N. ATOM EQUIV AT. N.          X                  Y                  Z

   1   1   1    5 B    -3.86319460000E-01  2.27318220000E-01  2.50645500000E-01

   2   2   1    5 B    -1.94203070000E-01 -3.88409950000E-01 -2.49354500000E-01

   3   3   1    5 B    -2.27263800000E-01  3.86377880000E-01  2.50645510000E-01

   4   4   1    5 B    -3.51474100000E-02 -2.29350290000E-01 -2.49354490000E-01

   5   5   1    5 B    -3.86323730000E-01  3.86360670000E-01  2.49288320000E-01

   6   6   1    5 B    -1.94207340000E-01 -2.29367500000E-01 -2.50711680000E-01

   7   7   1    5 B     2.27255250000E-01 -3.86366780000E-01  2.50645510000E-01

   8   8   1    5 B     4.19371640000E-01 -2.09495000000E-03 -2.49354490000E-01

   9   9   1    5 B     3.86363220000E-01 -3.86387550000E-01  2.50645500000E-01

  10  10   1    5 B    -4.21520390000E-01 -2.11572000000E-03 -2.49354500000E-01

  11  11   1    5 B     3.86343500000E-01 -2.27248350000E-01  2.49288320000E-01

  12  12   1    5 B    -4.21540110000E-01  1.57023480000E-01 -2.50711680000E-01

  13  13   1    1 H    -9.69563800000E-02  3.08930050000E-01  2.47831780000E-01

  14  14   1    1 H     9.51600100000E-02 -3.06798120000E-01 -2.52168220000E-01

  15  15   1    1 H     9.66345300000E-02 -3.08946560000E-01  2.47401520000E-01

  16  16   1    1 H     2.88750920000E-01  7.53252700000E-02 -2.52598480000E-01

  17  17   1    1 H    -9.70285800000E-02 -4.05927570000E-01  2.47335300000E-01

  18  18   1    1 H     9.50878100000E-02 -2.16557400000E-02 -2.52664700000E-01

  19  19   1    1 H     9.67361800000E-02  4.05684940000E-01  2.47351810000E-01

  20  20   1    1 H     2.88852570000E-01 -2.10043230000E-01 -2.52648190000E-01

  21  21   1    1 H    -3.08967600000E-01  9.70041200000E-02  2.52168240000E-01

  22  22   1    1 H    -1.16851210000E-01  4.81275950000E-01 -2.47831770000E-01

  23  23   1    1 H     3.08929720000E-01 -9.65626900000E-02  2.52598520000E-01

  24  24   1    1 H    -4.98953890000E-01  2.87709140000E-01 -2.47401470000E-01

  25  25   1    1 H     4.05869990000E-01  9.70499800000E-02  2.52664790000E-01

  26  26   1    1 H    -4.02013620000E-01  4.81321810000E-01 -2.47335210000E-01

  27  27   1    1 H    -4.05687790000E-01 -9.66526800000E-02  2.52648160000E-01

  28  28   1    1 H    -2.13571400000E-01  2.87619150000E-01 -2.47351840000E-01

  29  29   1    1 H    -3.08927260000E-01 -4.05945790000E-01  2.47831810000E-01

  30  30   1    1 H    -1.16810870000E-01 -2.16739600000E-02 -2.52168190000E-01

  31  31   1    1 H     3.08961830000E-01  4.05609330000E-01  2.47401490000E-01

  32  32   1    1 H    -4.98921780000E-01 -2.10118840000E-01 -2.52598510000E-01

  33  33   1    1 H     4.05840570000E-01  3.08823250000E-01  2.47335250000E-01

  34  34   1    1 H    -4.02043040000E-01 -3.06904920000E-01 -2.52664750000E-01

  35  35   1    1 H    -4.05709120000E-01 -3.09042070000E-01  2.47351870000E-01

  36  36   1    1 H    -2.13592730000E-01  7.52297600000E-02 -2.52648130000E-01

  37  37   1    6 C    -1.08109690000E-01  4.45943690000E-01  2.49238660000E-01

  38  38   1    6 C     8.40067000000E-02 -1.69784480000E-01 -2.50761340000E-01

  39  39   1    6 C    -5.35108900000E-02  3.92785630000E-01  2.47898000000E-01

  40  40   1    6 C     1.38605500000E-01 -2.22942540000E-01 -2.52102000000E-01

  41  41   1    6 C     5.33881200000E-02 -3.92814700000E-01  2.47782180000E-01

  42  42   1    6 C     2.45504510000E-01 -8.54287000000E-03 -2.52217820000E-01

  43  43   1    6 C    -5.35478900000E-02 -4.46307810000E-01  2.48129750000E-01

  44  44   1    6 C     1.38568500000E-01 -6.20359800000E-02 -2.51870240000E-01

  45  45   1    6 C     5.34263400000E-02  4.46249970000E-01  2.47235960000E-01

  46  46   1    6 C     2.45542730000E-01 -1.69478200000E-01 -2.52764040000E-01

  47  47   1    6 C     1.08035890000E-01 -4.45964370000E-01  2.48146290000E-01

  48  48   1    6 C     3.00152280000E-01 -6.16925400000E-02 -2.51853710000E-01

  49  49   1    6 C    -4.45960580000E-01  1.08168460000E-01  2.50761370000E-01

  50  50   1    6 C    -2.53844190000E-01  4.92440290000E-01 -2.49238630000E-01

  51  51   1    6 C    -3.92822150000E-01  5.35559400000E-02  2.52102010000E-01

  52  52   1    6 C    -2.00705760000E-01  4.37827770000E-01 -2.47897990000E-01

  53  53   1    6 C     3.92798670000E-01 -5.33368400000E-02  2.52217870000E-01

  54  54   1    6 C    -4.15084940000E-01  3.30934990000E-01 -2.47782130000E-01

  55  55   1    6 C     4.46287580000E-01  5.36028600000E-02  2.51870310000E-01

  56  56   1    6 C    -3.61596030000E-01  4.37874690000E-01 -2.48129690000E-01

  57  57   1    6 C    -4.46283150000E-01 -5.33764400000E-02  2.52764040000E-01

  58  58   1    6 C    -2.54166760000E-01  3.30895390000E-01 -2.47235960000E-01

  59  59   1    6 C     4.45927910000E-01 -1.08007940000E-01  2.51853740000E-01

  60  60   1    6 C    -3.61955700000E-01  2.76263890000E-01 -2.48146260000E-01

  61  61   1    6 C    -4.45955130000E-01  4.45874550000E-01  2.49238660000E-01

  62  62   1    6 C    -2.53838740000E-01 -1.69853620000E-01 -2.50761340000E-01

  63  63   1    6 C    -3.92789780000E-01 -4.46374220000E-01  2.47898030000E-01

  64  64   1    6 C    -2.00673390000E-01 -6.21023900000E-02 -2.52101970000E-01

  65  65   1    6 C     3.92823370000E-01  4.46172030000E-01  2.47782160000E-01

  66  66   1    6 C    -4.15060240000E-01 -1.69556140000E-01 -2.52217840000E-01

  67  67   1    6 C     4.46287260000E-01  3.92689990000E-01  2.48129720000E-01

  68  68   1    6 C    -3.61596350000E-01 -2.23038180000E-01 -2.51870280000E-01

  69  69   1    6 C    -4.46257040000E-01 -3.92902000000E-01  2.47235990000E-01

  70  70   1    6 C    -2.54140650000E-01 -8.63017000000E-03 -2.52764010000E-01

  71  71   1    6 C     4.45959980000E-01 -4.46041770000E-01  2.48146290000E-01

  72  72   1    6 C    -3.61923630000E-01 -6.17699400000E-02 -2.51853710000E-01

  73  73   1    8 O    -4.39263320000E-01  2.80370630000E-01  2.49652440000E-01

  74  74   1    8 O    -2.47146930000E-01 -3.35357540000E-01 -2.50347560000E-01

  75  75   1    8 O    -2.80318300000E-01  2.80378330000E-01  2.52515770000E-01

  76  76   1    8 O    -8.82019100000E-02 -3.35349840000E-01 -2.47484230000E-01

  77  77   1    8 O    -2.80320580000E-01  4.39323460000E-01  2.48195950000E-01

  78  78   1    8 O    -8.82041900000E-02 -1.76404710000E-01 -2.51804050000E-01

  79  79   1    8 O     2.80324510000E-01 -2.80348890000E-01  2.49652450000E-01

  80  80   1    8 O     4.72440900000E-01  1.03922940000E-01 -2.50347550000E-01

  81  81   1    8 O     2.80343970000E-01 -4.39304390000E-01  2.52515770000E-01

  82  82   1    8 O     4.72460360000E-01 -5.50325600000E-02 -2.47484230000E-01

  83  83   1    8 O     4.39263840000E-01 -2.80364580000E-01  2.48195940000E-01

  84  84   1    8 O    -3.68619770000E-01  1.03907250000E-01 -2.51804060000E-01

 NUMBER OF SYMMETRY OPERATORS         :    1
 *******************************************************************************
 * GEOMETRY EDITING - INPUT COORDINATES ARE GIVEN IN ANGSTROM         
 *******************************************************************************

 GCALCO - MAX INDICES DIRECT LATTICE VECTOR    12    12    21
 NO.OF VECTORS CREATED 6999 STARS 3500 RMAX   253.28002 BOHR

 GEOMETRY FOR WAVE FUNCTION - DIMENSIONALITY OF THE SYSTEM    3
 (NON PERIODIC DIRECTION: LATTICE PARAMETER FORMALLY SET TO 500)
 *******************************************************************************
 LATTICE PARAMETERS (ANGSTROMS AND DEGREES) - BOHR = 0.5291772083 ANGSTROM
 PRIMITIVE CELL - CENTRING CODE 1/0 VOLUME=  1446.563455 - DENSITY  0.896 g/cm^3
         A              B              C           ALPHA      BETA       GAMMA 
    15.02361100    15.02391600     7.40000000    90.000323  89.999944 119.995964
 *******************************************************************************
 ATOMS IN THE ASYMMETRIC UNIT   84 - ATOMS IN THE UNIT CELL:   84
     ATOM                 X/A                 Y/B                 Z/C    
 *******************************************************************************
      1 T   5 B    -3.863194600000E-01  2.273182200000E-01  2.506455000000E-01
      2 T   5 B    -1.942030700000E-01 -3.884099500000E-01 -2.493545000000E-01
      3 T   5 B    -2.272638000000E-01  3.863778800000E-01  2.506455100000E-01
      4 T   5 B    -3.514741000000E-02 -2.293502900000E-01 -2.493544900000E-01
      5 T   5 B    -3.863237300000E-01  3.863606700000E-01  2.492883200000E-01
      6 T   5 B    -1.942073400000E-01 -2.293675000000E-01 -2.507116800000E-01
      7 T   5 B     2.272552500000E-01 -3.863667800000E-01  2.506455100000E-01
      8 T   5 B     4.193716400000E-01 -2.094950000000E-03 -2.493544900000E-01
      9 T   5 B     3.863632200000E-01 -3.863875500000E-01  2.506455000000E-01
     10 T   5 B    -4.215203900000E-01 -2.115720000000E-03 -2.493545000000E-01
     11 T   5 B     3.863435000000E-01 -2.272483500000E-01  2.492883200000E-01
     12 T   5 B    -4.215401100000E-01  1.570234800000E-01 -2.507116800000E-01
     13 T   1 H    -9.695638000000E-02  3.089300500000E-01  2.478317800000E-01
     14 T   1 H     9.516001000000E-02 -3.067981200000E-01 -2.521682200000E-01
     15 T   1 H     9.663453000000E-02 -3.089465600000E-01  2.474015200000E-01
     16 T   1 H     2.887509200000E-01  7.532527000000E-02 -2.525984800000E-01
     17 T   1 H    -9.702858000000E-02 -4.059275700000E-01  2.473353000000E-01
     18 T   1 H     9.508781000000E-02 -2.165574000000E-02 -2.526647000000E-01
     19 T   1 H     9.673618000000E-02  4.056849400000E-01  2.473518100000E-01
     20 T   1 H     2.888525700000E-01 -2.100432300000E-01 -2.526481900000E-01
     21 T   1 H    -3.089676000000E-01  9.700412000000E-02  2.521682400000E-01
     22 T   1 H    -1.168512100000E-01  4.812759500000E-01 -2.478317700000E-01
     23 T   1 H     3.089297200000E-01 -9.656269000000E-02  2.525985200000E-01
     24 T   1 H    -4.989538900000E-01  2.877091400000E-01 -2.474014700000E-01
     25 T   1 H     4.058699900000E-01  9.704998000000E-02  2.526647900000E-01
     26 T   1 H    -4.020136200000E-01  4.813218100000E-01 -2.473352100000E-01
     27 T   1 H    -4.056877900000E-01 -9.665268000000E-02  2.526481600000E-01
     28 T   1 H    -2.135714000000E-01  2.876191500000E-01 -2.473518400000E-01
     29 T   1 H    -3.089272600000E-01 -4.059457900000E-01  2.478318100000E-01
     30 T   1 H    -1.168108700000E-01 -2.167396000000E-02 -2.521681900000E-01
     31 T   1 H     3.089618300000E-01  4.056093300000E-01  2.474014900000E-01
     32 T   1 H    -4.989217800000E-01 -2.101188400000E-01 -2.525985100000E-01
     33 T   1 H     4.058405700000E-01  3.088232500000E-01  2.473352500000E-01
     34 T   1 H    -4.020430400000E-01 -3.069049200000E-01 -2.526647500000E-01
     35 T   1 H    -4.057091200000E-01 -3.090420700000E-01  2.473518700000E-01
     36 T   1 H    -2.135927300000E-01  7.522976000000E-02 -2.526481300000E-01
     37 T   6 C    -1.081096900000E-01  4.459436900000E-01  2.492386600000E-01
     38 T   6 C     8.400670000000E-02 -1.697844800000E-01 -2.507613400000E-01
     39 T   6 C    -5.351089000000E-02  3.927856300000E-01  2.478980000000E-01
     40 T   6 C     1.386055000000E-01 -2.229425400000E-01 -2.521020000000E-01
     41 T   6 C     5.338812000000E-02 -3.928147000000E-01  2.477821800000E-01
     42 T   6 C     2.455045100000E-01 -8.542870000000E-03 -2.522178200000E-01
     43 T   6 C    -5.354789000000E-02 -4.463078100000E-01  2.481297500000E-01
     44 T   6 C     1.385685000000E-01 -6.203598000000E-02 -2.518702400000E-01
     45 T   6 C     5.342634000000E-02  4.462499700000E-01  2.472359600000E-01
     46 T   6 C     2.455427300000E-01 -1.694782000000E-01 -2.527640400000E-01
     47 T   6 C     1.080358900000E-01 -4.459643700000E-01  2.481462900000E-01
     48 T   6 C     3.001522800000E-01 -6.169254000000E-02 -2.518537100000E-01
     49 T   6 C    -4.459605800000E-01  1.081684600000E-01  2.507613700000E-01
     50 T   6 C    -2.538441900000E-01  4.924402900000E-01 -2.492386300000E-01
     51 T   6 C    -3.928221500000E-01  5.355594000000E-02  2.521020100000E-01
     52 T   6 C    -2.007057600000E-01  4.378277700000E-01 -2.478979900000E-01
     53 T   6 C     3.927986700000E-01 -5.333684000000E-02  2.522178700000E-01
     54 T   6 C    -4.150849400000E-01  3.309349900000E-01 -2.477821300000E-01
     55 T   6 C     4.462875800000E-01  5.360286000000E-02  2.518703100000E-01
     56 T   6 C    -3.615960300000E-01  4.378746900000E-01 -2.481296900000E-01
     57 T   6 C    -4.462831500000E-01 -5.337644000000E-02  2.527640400000E-01
     58 T   6 C    -2.541667600000E-01  3.308953900000E-01 -2.472359600000E-01
     59 T   6 C     4.459279100000E-01 -1.080079400000E-01  2.518537400000E-01
     60 T   6 C    -3.619557000000E-01  2.762638900000E-01 -2.481462600000E-01
     61 T   6 C    -4.459551300000E-01  4.458745500000E-01  2.492386600000E-01
     62 T   6 C    -2.538387400000E-01 -1.698536200000E-01 -2.507613400000E-01
     63 T   6 C    -3.927897800000E-01 -4.463742200000E-01  2.478980300000E-01
     64 T   6 C    -2.006733900000E-01 -6.210239000000E-02 -2.521019700000E-01
     65 T   6 C     3.928233700000E-01  4.461720300000E-01  2.477821600000E-01
     66 T   6 C    -4.150602400000E-01 -1.695561400000E-01 -2.522178400000E-01
     67 T   6 C     4.462872600000E-01  3.926899900000E-01  2.481297200000E-01
     68 T   6 C    -3.615963500000E-01 -2.230381800000E-01 -2.518702800000E-01
     69 T   6 C    -4.462570400000E-01 -3.929020000000E-01  2.472359900000E-01
     70 T   6 C    -2.541406500000E-01 -8.630170000000E-03 -2.527640100000E-01
     71 T   6 C     4.459599800000E-01 -4.460417700000E-01  2.481462900000E-01
     72 T   6 C    -3.619236300000E-01 -6.176994000000E-02 -2.518537100000E-01
     73 T   8 O    -4.392633200000E-01  2.803706300000E-01  2.496524400000E-01
     74 T   8 O    -2.471469300000E-01 -3.353575400000E-01 -2.503475600000E-01
     75 T   8 O    -2.803183000000E-01  2.803783300000E-01  2.525157700000E-01
     76 T   8 O    -8.820191000000E-02 -3.353498400000E-01 -2.474842300000E-01
     77 T   8 O    -2.803205800000E-01  4.393234600000E-01  2.481959500000E-01
     78 T   8 O    -8.820419000000E-02 -1.764047100000E-01 -2.518040500000E-01
     79 T   8 O     2.803245100000E-01 -2.803488900000E-01  2.496524500000E-01
     80 T   8 O     4.724409000000E-01  1.039229400000E-01 -2.503475500000E-01
     81 T   8 O     2.803439700000E-01 -4.393043900000E-01  2.525157700000E-01
     82 T   8 O     4.724603600000E-01 -5.503256000000E-02 -2.474842300000E-01
     83 T   8 O     4.392638400000E-01 -2.803645800000E-01  2.481959400000E-01
     84 T   8 O    -3.686197700000E-01  1.039072500000E-01 -2.518040600000E-01

 T = ATOM BELONGING TO THE ASYMMETRIC UNIT

 ****    1 SYMMOPS - TRANSLATORS IN FRACTIONAL UNITS
 **** MATRICES AND TRANSLATORS IN THE CRYSTALLOGRAPHIC REFERENCE FRAME
   V INV                    ROTATION MATRICES                   TRANSLATORS
   1   1  1.00 -0.00  0.00  0.00  1.00  0.00  0.00 -0.00  1.00  0.00  0.00  0.00

 DIRECT LATTICE VECTORS CARTESIAN COMPONENTS (ANGSTROM)
          X                    Y                    Z
   0.130113578931E+02  -0.751088897922E+01   0.000000000000E+00
   0.000000000000E+00   0.150239160000E+02   0.000000000000E+00
  -0.157301234647E-04  -0.417168597795E-04   0.739999999987E+01


 CARTESIAN COORDINATES - PRIMITIVE CELL
 *******************************************************************************
 *      ATOM          X(ANGSTROM)         Y(ANGSTROM)         Z(ANGSTROM)
 *******************************************************************************
    1     5 B    -5.026544697797E+00  6.316801960977E+00  1.854776699966E+00
    2     5 B    -2.526841725323E+00 -4.376790361884E+00 -1.845223299967E+00
    3     5 B    -2.957014580621E+00  7.511851528029E+00  1.854776773966E+00
    4     5 B    -4.573116081471E-01 -3.181740794832E+00 -1.845223225967E+00
    5     5 B    -5.026600234947E+00 -6.317641501675E+00  1.844733567967E+00
    6     5 B    -2.526897262473E+00 -1.987317824537E+00 -1.855266431966E+00
    7     5 B     2.956895448141E+00 -7.511641456748E+00  1.854776773966E+00
    8     5 B     5.456598420615E+00 -3.181317779610E+00 -1.845223225967E+00
    9     5 B     5.027106189449E+00  6.316920198138E+00  1.854776699966E+00
   10     5 B    -5.484548731134E+00  3.134216854493E+00 -1.845223299967E+00
   11     5 B     5.026849626820E+00 -6.315953657406E+00  1.844733567967E+00
   12     5 B     7.526552599294E+00 -1.985629980268E+00 -1.855266431966E+00
   13     1 H    -1.261538058620E+00  5.369557388319E+00  1.833955171967E+00
   14     1 H     1.238164913854E+00 -5.324034934543E+00 -1.866044827966E+00
   15     1 H     1.257342563001E+00 -5.367408713132E+00  1.830771247967E+00
   16     1 H     3.757045535475E+00 -1.037085035994E+00 -1.869228751966E+00
   17     1 H    -1.262477470850E+00 -5.369861139625E+00  1.830281219967E+00
   18     1 H     1.237225501624E+00 -1.039537462487E+00 -1.869718779966E+00
   19     1 H     1.258665168313E+00  5.368391434031E+00  1.830403393967E+00
   20     1 H     3.758368140786E+00 -5.325200888831E+00 -1.869596605966E+00
   21     1 H    -4.020091987596E+00  3.777992572642E+00  1.866044975966E+00
   22     1 H    -1.520389015122E+00 -6.915599750219E+00 -1.833955097967E+00
   23     1 H     4.019591177316E+00 -3.771097110212E+00  1.869229047966E+00
   24     1 H     6.519294149789E+00  5.592265669264E-01 -1.830770877967E+00
   25     1 H     5.280915723493E+00 -1.590384227946E+00  1.869719445966E+00
   26     1 H    -5.230739197090E+00 -4.773087571591E+00 -1.830280553967E+00
   27     1 H    -5.278553002720E+00  1.594963665731E+00  1.869596383966E+00
   28     1 H    -2.778850030246E+00  5.925287342869E+00 -1.830403615967E+00
   29     1 H    -4.019567041206E+00 -3.778587435765E+00  1.833955393967E+00
   30     1 H    -1.519864068733E+00  5.517362413733E-01 -1.866044605966E+00
   31     1 H     4.020009053768E+00  3.773252177977E+00  1.830771025967E+00
   32     1 H    -6.491645866815E+00  5.905488343322E-01 -1.869228973966E+00
   33     1 H     5.280533013178E+00  1.591500784265E+00  1.830280849967E+00
   34     1 H    -5.231121907405E+00 -1.591202559380E+00 -1.869719149966E+00
   35     1 H    -5.278830451672E+00 -1.595796260714E+00  1.830403837967E+00
   36     1 H    -2.779127479199E+00  2.734527416425E+00 -1.869596161966E+00
   37     6 C    -1.406657788852E+00  7.511810021003E+00  1.844366083967E+00
   38     6 C     1.093045183621E+00 -3.181782301858E+00 -1.855633915966E+00
   39     6 C    -6.962532404321E-01  6.303082323570E+00  1.834445199967E+00
   40     6 C     1.803449732042E+00 -4.390509999292E+00 -1.865554799966E+00
   41     6 C     6.946480389132E-01 -6.302617635189E+00  1.833588131967E+00
   42     6 C     3.194351011387E+00 -1.972293958050E+00 -1.866411867966E+00
   43     6 C    -6.967346643196E-01 -6.303109141917E+00  1.836160149967E+00
   44     6 C     1.802968308154E+00 -1.972785464779E+00 -1.863839775966E+00
   45     6 C     6.951453416039E-01  6.303132442069E+00  1.829546103967E+00
   46     6 C     3.194848314078E+00 -4.390459880793E+00 -1.870453895966E+00
   47     6 C     1.405689726713E+00 -7.511587161318E+00  1.836282545967E+00
   48     6 C     3.905392699187E+00 -3.181263484179E+00 -1.863717453966E+00
   49     6 C     7.208801235974E+00 -2.536225177817E+00  1.855634137966E+00
   50     6 C    -3.302853684609E+00 -5.718928521462E+00 -1.844365861967E+00
   51     6 C    -5.111153547566E+00  3.755052984184E+00  1.865554873966E+00
   52     6 C    -2.611450575092E+00 -6.938539338678E+00 -1.834445125967E+00
   53     6 C     5.110840107868E+00 -3.751605927157E+00  1.866412237966E+00
   54     6 C     7.610543080342E+00  5.787177499815E-01 -1.833587761967E+00
   55     6 C     5.806803464655E+00 -2.546702107422E+00  1.863840293966E+00
   56     6 C    -4.704851455928E+00 -5.729405451067E+00 -1.836159705967E+00
   57     6 C    -5.806753762300E+00  2.550049497484E+00  1.870453895966E+00
   58     6 C    -3.307050789826E+00  6.880373174622E+00 -1.829546103967E+00
   59     6 C     5.802123669822E+00 -4.972027749184E+00  1.863717675966E+00
   60     6 C     8.301826642296E+00 -6.417040720459E-01 -1.836282323967E+00
   61     6 C     7.208872171827E+00  2.537401880209E+00  1.844366083967E+00
   62     6 C    -3.302782748756E+00 -6.453014634361E-01 -1.855633915966E+00
   63     6 C    -5.110732303782E+00 -3.756098697622E+00  1.834445421967E+00
   64     6 C    -2.611029331308E+00  5.742249795163E-01 -1.865554577966E+00
   65     6 C     5.111161558183E+00  3.752788043064E+00  1.833587983967E+00
   66     6 C    -5.400493362400E+00  5.700846994190E-01 -1.866412015966E+00
   67     6 C     5.806799359860E+00  2.547717009909E+00  1.836159927967E+00
   68     6 C    -4.704855560722E+00 -6.349863337358E-01 -1.863840071966E+00
   69     6 C    -5.806413948789E+00 -2.551149874507E+00  1.829546325967E+00
   70     6 C    -3.306710976315E+00  1.779173802631E+00 -1.870453673966E+00
   71     6 C     5.802541002389E+00  4.973055664191E+00  1.836282545967E+00
   72     6 C    -4.709113918194E+00  1.790352320546E+00 -1.863717453966E+00
   73     8 O     7.295941700181E+00  6.234292168210E-04  1.847428055966E+00
   74     8 O    -3.215713220402E+00 -3.182079914428E+00 -1.852571943966E+00
   75     8 O    -3.647325697377E+00  6.317809574118E+00  1.868616697966E+00
   76     8 O    -1.147622724904E+00 -4.375782748744E+00 -1.831383301967E+00
   77     8 O    -3.647355295322E+00 -6.318110839117E+00  1.836650029967E+00
   78     8 O    -1.147652322848E+00 -1.987787161978E+00 -1.863349969966E+00
   79     8 O     3.647398598742E+00 -6.317434861533E+00  1.847428129966E+00
   80     8 O     6.147101571216E+00 -1.987111184394E+00 -1.852571869966E+00
   81     8 O     3.647651754726E+00  6.318200777381E+00  1.868616697966E+00
   82     8 O     6.147354727200E+00 -4.375391545481E+00 -1.831383301967E+00
   83     8 O    -7.295942765491E+00 -5.572088583482E-04  1.836649955967E+00
   84     8 O    -4.796239793017E+00  4.329766468280E+00 -1.863350043966E+00

 *******************************************************************************
 STARTING BASIS SET HANDLING 
 *******************************************************************************

 Loading internal basis set: SOLDEF2MSVP         

 Please cite in your publication:
 L. Dona', J. G. Brandenburg and B. Civalleri, J. Chem. Phys., 151, 121101 (2019
 )                                                                              
                                                                                
                    

 *******************************************************************************
 LOCAL ATOMIC FUNCTIONS BASIS SET
 *******************************************************************************
   ATOM   X(AU)   Y(AU)   Z(AU)  N. TYPE  EXPONENT  S COEF   P COEF   D/F/G COEF
 *******************************************************************************
   1 B   -9.499  11.937   3.505
                                  1 S  
                                         2.410E+03 1.755E-03 0.000E+00 0.000E+00
                                         3.619E+02 1.344E-02 0.000E+00 0.000E+00
                                         8.231E+01 6.637E-02 0.000E+00 0.000E+00
                                         2.311E+01 2.303E-01 0.000E+00 0.000E+00
                                         7.252E+00 5.150E-01 0.000E+00 0.000E+00
                                  2 S  
                                         2.367E+00 1.000E+00 0.000E+00 0.000E+00
                                  3 S  
                                         5.533E-01 1.000E+00 0.000E+00 0.000E+00
                                  4 S  
                                         1.716E-01 1.000E+00 0.000E+00 0.000E+00
                           5-     7 P  
                                         6.002E+00 0.000E+00-3.555E-02 0.000E+00
                                         1.240E+00 0.000E+00-1.983E-01 0.000E+00
                                         3.367E-01 0.000E+00-5.048E-01 0.000E+00
                           8-    10 P  
                                         1.256E-01 0.000E+00 1.000E+00 0.000E+00
                          11-    15 D  
                                         8.880E-01 0.000E+00 0.000E+00 1.000E+00
   2 B   -4.775  -8.271  -3.487
   3 B   -5.588  14.195   3.505
   4 B   -0.864  -6.013  -3.487
   5 B   -9.499 -11.939   3.486
   6 B   -4.775  -3.755  -3.506
   7 B    5.588 -14.195   3.505
   8 B   10.311  -6.012  -3.487
   9 B    9.500  11.937   3.505
  10 B  -10.364   5.923  -3.487
  11 B    9.499 -11.935   3.486
  12 B   14.223  -3.752  -3.506
  13 H   -2.384  10.147   3.466
                                181 S  
                                         1.874E+01 1.968E-02 0.000E+00 0.000E+00
                                         2.826E+00 1.380E-01 0.000E+00 0.000E+00
                                         6.401E-01 4.783E-01 0.000E+00 0.000E+00
                                182 S  
                                         1.756E-01 1.000E+00 0.000E+00 0.000E+00
  14 H    2.340 -10.061  -3.526
  15 H    2.376 -10.143   3.460
  16 H    7.100  -1.960  -3.532
  17 H   -2.386 -10.148   3.459
  18 H    2.338  -1.964  -3.533
  19 H    2.379  10.145   3.459
  20 H    7.102 -10.063  -3.533
  21 H   -7.597   7.139   3.526
  22 H   -2.873 -13.069  -3.466
  23 H    7.596  -7.126   3.532
  24 H   12.320   1.057  -3.460
  25 H    9.979  -3.005   3.533
  26 H   -9.885  -9.020  -3.459
  27 H   -9.975   3.014   3.533
  28 H   -5.251  11.197  -3.459
  29 H   -7.596  -7.140   3.466
  30 H   -2.872   1.043  -3.526
  31 H    7.597   7.130   3.460
  32 H  -12.267   1.116  -3.532
  33 H    9.979   3.008   3.459
  34 H   -9.885  -3.007  -3.533
  35 H   -9.976  -3.016   3.459
  36 H   -5.252   5.168  -3.533
  37 C   -2.658  14.195   3.485
                                229 S  
                                         3.624E+03 1.634E-03 0.000E+00 0.000E+00
                                         5.440E+02 1.252E-02 0.000E+00 0.000E+00
                                         1.237E+02 6.211E-02 0.000E+00 0.000E+00
                                         3.476E+01 2.182E-01 0.000E+00 0.000E+00
                                         1.093E+01 4.980E-01 0.000E+00 0.000E+00
                                230 S  
                                         3.574E+00 1.000E+00 0.000E+00 0.000E+00
                                231 S  
                                         7.742E-01 1.000E+00 0.000E+00 0.000E+00
                                232 S  
                                         2.330E-01 1.000E+00 0.000E+00 0.000E+00
                         233-   235 P  
                                         9.443E+00 0.000E+00 3.790E-02 0.000E+00
                                         2.002E+00 0.000E+00 2.082E-01 0.000E+00
                                         5.463E-01 0.000E+00 5.047E-01 0.000E+00
                         236-   238 P  
                                         1.820E-01 0.000E+00 1.000E+00 0.000E+00
                         239-   243 D  
                                         8.880E-01 0.000E+00 0.000E+00 1.000E+00
  38 C    2.066  -6.013  -3.507
  39 C   -1.316  11.911   3.467
  40 C    3.408  -8.297  -3.525
  41 C    1.313 -11.910   3.465
  42 C    6.036  -3.727  -3.527
  43 C   -1.317 -11.911   3.470
  44 C    3.407  -3.728  -3.522
  45 C    1.314  11.911   3.457
  46 C    6.037  -8.297  -3.535
  47 C    2.656 -14.195   3.470
  48 C    7.380  -6.012  -3.522
  49 C   13.623  -4.793   3.507
  50 C   -6.241 -10.807  -3.485
  51 C   -9.659   7.096   3.525
  52 C   -4.935 -13.112  -3.467
  53 C    9.658  -7.090   3.527
  54 C   14.382   1.094  -3.465
  55 C   10.973  -4.813   3.522
  56 C   -8.891 -10.827  -3.470
  57 C  -10.973   4.819   3.535
  58 C   -6.249  13.002  -3.457
  59 C   10.964  -9.396   3.522
  60 C   15.688  -1.213  -3.470
  61 C   13.623   4.795   3.485
  62 C   -6.241  -1.219  -3.507
  63 C   -9.658  -7.098   3.467
  64 C   -4.934   1.085  -3.525
  65 C    9.659   7.092   3.465
  66 C  -10.205   1.077  -3.527
  67 C   10.973   4.814   3.470
  68 C   -8.891  -1.200  -3.522
  69 C  -10.973  -4.821   3.457
  70 C   -6.249   3.362  -3.535
  71 C   10.965   9.398   3.470
  72 C   -8.899   3.383  -3.522
  73 O   13.787   0.001   3.491
                                769 S  
                                         6.773E+03 1.727E-03 0.000E+00 0.000E+00
                                         1.017E+03 1.325E-02 0.000E+00 0.000E+00
                                         2.313E+02 6.603E-02 0.000E+00 0.000E+00
                                         6.501E+01 2.353E-01 0.000E+00 0.000E+00
                                         2.050E+01 5.498E-01 0.000E+00 0.000E+00
                                770 S  
                                         6.716E+00 1.000E+00 0.000E+00 0.000E+00
                                771 S  
                                         1.147E+00 1.000E+00 0.000E+00 0.000E+00
                                772 S  
                                         3.342E-01 1.000E+00 0.000E+00 0.000E+00
                         773-   775 P  
                                         1.769E+01 0.000E+00 4.359E-02 0.000E+00
                                         3.854E+00 0.000E+00 2.318E-01 0.000E+00
                                         1.047E+00 0.000E+00 5.146E-01 0.000E+00
                         776-   778 P  
                                         2.759E-01 0.000E+00 1.000E+00 0.000E+00
                         779-   783 D  
                                         8.000E-01 0.000E+00 0.000E+00 1.000E+00
  74 O   -6.077  -6.013  -3.501
  75 O   -6.892  11.939   3.531
  76 O   -2.169  -8.269  -3.461
  77 O   -6.893 -11.939   3.471
  78 O   -2.169  -3.756  -3.521
  79 O    6.893 -11.938   3.491
  80 O   11.616  -3.755  -3.501
  81 O    6.893  11.940   3.531
  82 O   11.617  -8.268  -3.461
  83 O  -13.787  -0.001   3.471
  84 O   -9.064   8.182  -3.521

 *******************************************************************************
 FINISHED BASIS SET HANDLING 
 *******************************************************************************

 INFORMATION **** SET_MPP **** PCRYSTAL CALCULATION
 INFORMATION **** READM2 **** NEW DEFAULT: FOCK/KS MATRIX MIXING SET TO 30 %
 INFORMATION **** READM2 **** NEW DEFAULT: FULL DIRECT SCF MODE
 INFORMATION **** READM2 **** NEW DEFAULT: COULOMB BIPOLAR BUFFER SET TO 32 Mb
 INFORMATION **** READM2 **** NEW DEFAULT: EXCHANGE BIPOLAR BUFFER SET TO 32 Mb

 *******************************************************************************
 NEW DEFAULT: DFT INTEGRATION GRID INCREASED TO XLGRID
 NEW DEFAULT: DIIS ACCELERATOR ACTIVE
 USE KEYWORD NODIIS TO TURN IT OFF
 *******************************************************************************

 WARNING **** RDDFTP **** HSEsol-HJS ACTIVE
 RANGE SEPARATION - OMEGA:   0.110000000000000     
 WARNING **** RDDFTP **** HSEsol-3c has to be combined with sol-def2-mSVP basis set
 *******************************************************************************
 N. OF ATOMS PER CELL        84  COULOMB OVERLAP TOL         (T1) 10**   -6
 NUMBER OF SHELLS           468  COULOMB PENETRATION TOL     (T2) 10**   -6
 NUMBER OF AO               948  EXCHANGE OVERLAP TOL        (T3) 10**   -6
 N. OF ELECTRONS PER CELL   396  EXCHANGE PSEUDO OVP (F(G))  (T4) 10**   -6
 CORE ELECTRONS PER CELL    120  EXCHANGE PSEUDO OVP (P(G))  (T5) 10**  -12
 N. OF SYMMETRY OPERATORS     1  POLE ORDER IN MONO ZONE                  4
 *******************************************************************************
 TYPE OF CALCULATION :  RESTRICTED CLOSED SHELL
 KOHN-SHAM HAMILTONIAN

 (EXCHANGE)[CORRELATION] FUNCTIONAL:(HSEsol GGA)[PBEsol]

 RANGE-SEPARATED HYBRID FUNCTIONAL 
 OMEGA (SHORT-RANGE)[LONG-RANGE]:(    0.1100)[    0.0000]

 HYBRID EXCHANGE - PERCENTAGE OF FOCK EXCHANGE    25.0000

 CAPPA:IS1  2;IS2  2;IS3  8; K PTS MONK NET  20; SYMMOPS:K SPACE   2;G SPACE   1

 *******************************************************************************
 MAX NUMBER OF SCF CYCLES      50  CONVERGENCE ON DELTAP        10**-16
 WEIGHT OF F(I) IN F(I+1)      30% CONVERGENCE ON ENERGY        10**- 6
 SHRINK. FACT.(MONKH.)    2  2  8  NUMBER OF K POINTS IN THE IBZ     20
 SHRINKING FACTOR(GILAT NET)    8  NUMBER OF K POINTS(GILAT NET)   1028
 *******************************************************************************
 *** K POINTS COORDINATES (OBLIQUE COORDINATES IN UNITS OF IS =  2)
   1-R(  0  0  0)   2-R(  1  0  0)   3-R(  0  1  0)   4-R(  1  1  0)
   5-C(  0  0  1)   6-C(  1  0  1)   7-C(  0  1  1)   8-C(  1  1  1)
   9-C(  0  0  2)  10-C(  1  0  2)  11-C(  0  1  2)  12-C(  1  1  2)
  13-C(  0  0  3)  14-C(  1  0  3)  15-C(  0  1  3)  16-C(  1  1  3)
  17-R(  0  0  4)  18-R(  1  0  4)  19-R(  0  1  4)  20-R(  1  1  4)

 DIRECT LATTICE VECTORS COMPON. (A.U.)     RECIP. LATTICE VECTORS COMPON. (A.U.) 
        X            Y            Z              X            Y            Z
   24.5879030  -14.1935232    0.0000000      0.2555397    0.0000000    0.0000005
    0.0000000   28.3910867    0.0000000      0.1277517    0.2213084    0.0000015
   -0.0000297   -0.0000788   13.9839734      0.0000000    0.0000000    0.4493133

 DISK SPACE FOR EIGENVECTORS (FTN 10)    28758528 REALS

 SYMMETRY ADAPTION OF THE BLOCH FUNCTIONS DISABLED
 TTTTTTTTTTTTTTTTTTTTTTTTTTTTTT gordsh1     TELAPSE        0.05 TCPU        0.05

 MATRIX SIZE: P(G)  672344, F(G)  132094, P(G) IRR  338218, F(G) IRR  133126
 MAX G-VECTOR INDEX FOR 1- AND 2-ELECTRON INTEGRALS  43

 TTTTTTTTTTTTTTTTTTTTTTTTTTTTTT INPUT       TELAPSE        2.76 TCPU        2.75

 NEIGHBORS OF THE NON-EQUIVALENT ATOMS

 N = NUMBER OF NEIGHBORS AT DISTANCE R
    ATOM  N     R/ANG      R/AU   NEIGHBORS (ATOM LABELS AND CELL INDICES)
   1 B    1     1.3791     2.6061   73 O   -1 0 0
   1 B    1     1.3793     2.6065   75 O    0 0 0
   1 B    1     1.5503     2.9297   49 C   -1 0 0
   1 B    1     2.3895     4.5155    5 B    0 1 0
   1 B    1     2.3898     4.5160    3 B    0 0 0
   1 B    1     2.5632     4.8437   51 C    0 0 0

   2 B    1     1.3791     2.6061   74 O    0 0 0
   2 B    1     1.3793     2.6065   76 O    0 0 0
   2 B    1     1.5503     2.9297   50 C    0 0 0
   2 B    1     2.3895     4.5155    6 B    0 0 0
   2 B    1     2.3898     4.5160    4 B    0 0 0
   2 B    1     2.5632     4.8437   52 C    0 0 0

   3 B    1     1.3793     2.6065   77 O    0 1 0
   3 B    1     1.3793     2.6065   75 O    0 0 0
   3 B    1     1.5504     2.9298   37 C    0 0 0
   3 B    1     2.3895     4.5156    5 B    0 1 0
   3 B    1     2.3898     4.5160    1 B    0 0 0
   3 B    1     2.5634     4.8440   43 C    0 1 0

   4 B    1     1.3793     2.6065   78 O    0 0 0
   4 B    1     1.3793     2.6065   76 O    0 0 0
   4 B    1     1.5504     2.9298   38 C    0 0 0
   4 B    1     2.3895     4.5156    6 B    0 0 0
   4 B    1     2.3898     4.5160    2 B    0 0 0
   4 B    1     2.5634     4.8440   44 C    0 0 0

   5 B    1     1.3791     2.6061   73 O   -1-1 0
   5 B    1     1.3793     2.6064   77 O    0 0 0
   5 B    1     1.5502     2.9294   61 C   -1-1 0
   5 B    1     2.3895     4.5155    1 B    0-1 0
   5 B    1     2.3895     4.5156    3 B    0-1 0
   5 B    1     2.5629     4.8433   63 C    0 0 0

   6 B    1     1.3791     2.6061   74 O    0 0 0
   6 B    1     1.3793     2.6064   78 O    0 0 0
   6 B    1     1.5502     2.9294   62 C    0 0 0
   6 B    1     2.3895     4.5155    2 B    0 0 0
   6 B    1     2.3895     4.5156    4 B    0 0 0
   6 B    1     2.5629     4.8433   64 C    0 0 0

   7 B    1     1.3795     2.6068   79 O    0 0 0
   7 B    1     1.3795     2.6070   81 O    0-1 0
   7 B    1     1.5513     2.9316   47 C    0 0 0
   7 B    1     2.3905     4.5174   11 B    0 0 0
   7 B    1     2.3905     4.5175    9 B    0-1 0
   7 B    1     2.5648     4.8468   45 C    0-1 0

   8 B    1     1.3795     2.6068   80 O    0 0 0
   8 B    1     1.3795     2.6070   82 O    0 0 0
   8 B    1     1.5513     2.9316   48 C    0 0 0
   8 B    1     2.3905     4.5174   12 B    0 0 0
   8 B    1     2.3905     4.5175   10 B    1 0 0
   8 B    1     2.5648     4.8468   46 C    0 0 0

   9 B    1     1.3795     2.6069   81 O    0 0 0
   9 B    1     1.3797     2.6072   83 O    1 1 0
   9 B    1     1.5516     2.9322   71 C    0 0 0
   9 B    1     2.3905     4.5175    7 B    0 1 0
   9 B    1     2.3911     4.5185   11 B    0 1 0
   9 B    1     2.5651     4.8473   69 C    1 1 0

  10 B    1     1.3795     2.6069   82 O   -1 0 0
  10 B    1     1.3797     2.6072   84 O    0 0 0
  10 B    1     1.5516     2.9322   72 C    0 0 0
  10 B    1     2.3905     4.5175    8 B   -1 0 0
  10 B    1     2.3911     4.5185   12 B   -1 0 0
  10 B    1     2.5651     4.8473   70 C    0 0 0

  11 B    1     1.3795     2.6068   79 O    0 0 0
  11 B    1     1.3796     2.6071   83 O    1 0 0
  11 B    1     1.5516     2.9322   59 C    0 0 0
  11 B    1     2.3905     4.5174    7 B    0 0 0
  11 B    1     2.3911     4.5185    9 B    0-1 0
  11 B    1     2.5651     4.8473   57 C    1 0 0

  12 B    1     1.3795     2.6068   80 O    0 0 0
  12 B    1     1.3796     2.6071   84 O    1 0 0
  12 B    1     1.5516     2.9322   60 C    0 0 0
  12 B    1     2.3905     4.5174    8 B    0 0 0
  12 B    1     2.3911     4.5185   10 B    1 0 0
  12 B    1     2.5651     4.8473   58 C    1 0 0

  13 H    1     1.0913     2.0623   39 C    0 0 0
  13 H    1     2.1472     4.0576   37 C    0 0 0
  13 H    1     2.1680     4.0969   45 C    0 0 0
  13 H    1     2.5202     4.7625   19 H    0 0 0
  13 H    1     2.5676     4.8520   75 O    0 0 0
  13 H    1     2.7321     5.1630    3 B    0 0 0

  14 H    1     1.0913     2.0623   40 C    0 0 0
  14 H    1     2.1472     4.0576   38 C    0 0 0
  14 H    1     2.1680     4.0969   46 C    0 0 0
  14 H    1     2.5202     4.7625   20 H    0 0 0
  14 H    1     2.5676     4.8520   76 O    0 0 0
  14 H    1     2.7321     5.1630    4 B    0 0 0

  15 H    1     1.0914     2.0625   41 C    0 0 0
  15 H    1     2.1493     4.0616   47 C    0 0 0
  15 H    1     2.1666     4.0942   43 C    0 0 0
  15 H    1     2.5198     4.7618   17 H    0 0 0
  15 H    1     2.5720     4.8604   79 O    0 0 0
  15 H    1     2.7362     5.1707    7 B    0 0 0

  16 H    1     1.0914     2.0625   42 C    0 0 0
  16 H    1     2.1493     4.0616   48 C    0 0 0
  16 H    1     2.1666     4.0942   44 C    0 0 0
  16 H    1     2.5198     4.7618   18 H    0 0 0
  16 H    1     2.5720     4.8604   80 O    0 0 0
  16 H    1     2.7362     5.1707    8 B    0 0 0

  17 H    1     1.0914     2.0624   43 C    0 0 0
  17 H    1     2.1471     4.0575   37 C    0-1 0
  17 H    1     2.1680     4.0970   41 C    0 0 0
  17 H    1     2.5198     4.7618   15 H    0 0 0
  17 H    1     2.5665     4.8500   77 O    0 0 0
  17 H    1     2.7315     5.1618    3 B    0-1 0

  18 H    1     1.0914     2.0624   44 C    0 0 0
  18 H    1     2.1471     4.0575   38 C    0 0 0
  18 H    1     2.1680     4.0970   42 C    0 0 0
  18 H    1     2.5198     4.7618   16 H    0 0 0
  18 H    1     2.5665     4.8500   78 O    0 0 0
  18 H    1     2.7315     5.1618    4 B    0 0 0

  19 H    1     1.0915     2.0626   45 C    0 0 0
  19 H    1     2.1490     4.0610   47 C    0 1 0
  19 H    1     2.1669     4.0948   39 C    0 0 0
  19 H    1     2.5202     4.7625   13 H    0 0 0
  19 H    1     2.5712     4.8588   81 O    0 0 0
  19 H    1     2.7351     5.1686    7 B    0 1 0

  20 H    1     1.0915     2.0626   46 C    0 0 0
  20 H    1     2.1490     4.0610   48 C    0 0 0
  20 H    1     2.1669     4.0948   40 C    0 0 0
  20 H    1     2.5202     4.7625   14 H    0 0 0
  20 H    1     2.5712     4.8588   82 O    0 0 0
  20 H    1     2.7351     5.1686    8 B    0 0 0

  21 H    1     1.0913     2.0623   51 C    0 0 0
  21 H    1     2.1469     4.0571   49 C   -1 0 0
  21 H    1     2.1680     4.0968   57 C    0 0 0
  21 H    1     2.5198     4.7617   27 H    0 0 0
  21 H    1     2.5670     4.8510   75 O    0 0 0
  21 H    1     2.7310     5.1609    1 B    0 0 0

  22 H    1     1.0913     2.0623   52 C    0 0 0
  22 H    1     2.1469     4.0571   50 C    0 0 0
  22 H    1     2.1680     4.0968   58 C    0-1 0
  22 H    1     2.5198     4.7617   28 H    0-1 0
  22 H    1     2.5670     4.8510   76 O    0 0 0
  22 H    1     2.7310     5.1609    2 B    0 0 0

  23 H    1     1.0914     2.0625   53 C    0 0 0
  23 H    1     2.1493     4.0617   59 C    0 0 0
  23 H    1     2.1664     4.0939   55 C    0 0 0
  23 H    1     2.5192     4.7606   25 H    0 0 0
  23 H    1     2.5735     4.8632   79 O    0 0 0
  23 H    1     2.7371     5.1723   11 B    0 0 0

  24 H    1     1.0914     2.0625   54 C    0 0 0
  24 H    1     2.1493     4.0617   60 C    0 0 0
  24 H    1     2.1664     4.0939   56 C    1 1 0
  24 H    1     2.5192     4.7606   26 H    1 1 0
  24 H    1     2.5735     4.8632   80 O    0 0 0
  24 H    1     2.7371     5.1723   12 B    0 0 0

  25 H    1     1.0914     2.0624   55 C    0 0 0
  25 H    1     2.1475     4.0581   49 C    0 0 0
  25 H    1     2.1679     4.0967   53 C    0 0 0
  25 H    1     2.5192     4.7606   23 H    0 0 0
  25 H    1     2.5675     4.8519   73 O    0 0 0
  25 H    1     2.7328     5.1643    1 B    1 0 0

  26 H    1     1.0914     2.0624   56 C    0 0 0
  26 H    1     2.1475     4.0581   50 C    0 0 0
  26 H    1     2.1679     4.0967   54 C   -1-1 0
  26 H    1     2.5192     4.7606   24 H   -1-1 0
  26 H    1     2.5675     4.8519   74 O    0 0 0
  26 H    1     2.7328     5.1643    2 B    0 0 0

  27 H    1     1.0914     2.0625   57 C    0 0 0
  27 H    1     2.1491     4.0612   59 C   -1 0 0
  27 H    1     2.1666     4.0942   51 C    0 0 0
  27 H    1     2.5198     4.7617   21 H    0 0 0
  27 H    1     2.5723     4.8609   83 O    0 0 0
  27 H    1     2.7355     5.1693   11 B   -1 0 0

  28 H    1     1.0914     2.0625   58 C    0 0 0
  28 H    1     2.1491     4.0612   60 C   -1 0 0
  28 H    1     2.1666     4.0942   52 C    0 1 0
  28 H    1     2.5198     4.7617   22 H    0 1 0
  28 H    1     2.5723     4.8609   84 O    0 0 0
  28 H    1     2.7355     5.1693   12 B   -1 0 0

  29 H    1     1.0914     2.0624   63 C    0 0 0
  29 H    1     2.1475     4.0582   61 C   -1-1 0
  29 H    1     2.1678     4.0966   69 C    0 0 0
  29 H    1     2.5200     4.7621   35 H    0 0 0
  29 H    1     2.5667     4.8503   77 O    0 0 0
  29 H    1     2.7315     5.1618    5 B    0 0 0

  30 H    1     1.0914     2.0624   64 C    0 0 0
  30 H    1     2.1475     4.0582   62 C    0 0 0
  30 H    1     2.1678     4.0966   70 C    0 0 0
  30 H    1     2.5200     4.7621   36 H    0 0 0
  30 H    1     2.5667     4.8503   78 O    0 0 0
  30 H    1     2.7315     5.1618    6 B    0 0 0

  31 H    1     1.0913     2.0623   65 C    0 0 0
  31 H    1     2.1487     4.0605   71 C    0 0 0
  31 H    1     2.1667     4.0945   67 C    0 0 0
  31 H    1     2.5197     4.7616   33 H    0 0 0
  31 H    1     2.5723     4.8610   81 O    0 0 0
  31 H    1     2.7359     5.1701    9 B    0 0 0

  32 H    1     1.0913     2.0623   66 C    0 0 0
  32 H    1     2.1487     4.0605   72 C    0 0 0
  32 H    1     2.1667     4.0945   68 C    0 0 0
  32 H    1     2.5197     4.7616   34 H    0 0 0
  32 H    1     2.5723     4.8610   82 O   -1 0 0
  32 H    1     2.7359     5.1701   10 B    0 0 0

  33 H    1     1.0915     2.0626   67 C    0 0 0
  33 H    1     2.1479     4.0589   61 C    0 0 0
  33 H    1     2.1679     4.0968   65 C    0 0 0
  33 H    1     2.5197     4.7616   31 H    0 0 0
  33 H    1     2.5677     4.8522   73 O    0 0 0
  33 H    1     2.7331     5.1648    5 B    1 1 0

  34 H    1     1.0915     2.0626   68 C    0 0 0
  34 H    1     2.1479     4.0589   62 C    0 0 0
  34 H    1     2.1679     4.0968   66 C    0 0 0
  34 H    1     2.5197     4.7616   32 H    0 0 0
  34 H    1     2.5677     4.8522   74 O    0 0 0
  34 H    1     2.7331     5.1648    6 B    0 0 0

  35 H    1     1.0914     2.0624   69 C    0 0 0
  35 H    1     2.1486     4.0602   71 C   -1-1 0
  35 H    1     2.1668     4.0947   63 C    0 0 0
  35 H    1     2.5200     4.7621   29 H    0 0 0
  35 H    1     2.5717     4.8598   83 O    0 0 0
  35 H    1     2.7349     5.1682    9 B   -1-1 0

  36 H    1     1.0914     2.0624   70 C    0 0 0
  36 H    1     2.1486     4.0602   72 C    0 0 0
  36 H    1     2.1668     4.0947   64 C    0 0 0
  36 H    1     2.5200     4.7621   30 H    0 0 0
  36 H    1     2.5717     4.8598   84 O    0 0 0
  36 H    1     2.7349     5.1682   10 B    0 0 0

  37 C    1     1.4020     2.6495   43 C    0 1 0
  37 C    1     1.4021     2.6495   39 C    0 0 0
  37 C    1     1.5504     2.9298    3 B    0 0 0
  37 C    1     2.1471     4.0575   17 H    0 1 0
  37 C    1     2.1472     4.0576   13 H    0 0 0
  37 C    1     2.4246     4.5817   41 C    0 1 0

  38 C    1     1.4020     2.6495   44 C    0 0 0
  38 C    1     1.4021     2.6495   40 C    0 0 0
  38 C    1     1.5504     2.9298    4 B    0 0 0
  38 C    1     2.1471     4.0575   18 H    0 0 0
  38 C    1     2.1472     4.0576   14 H    0 0 0
  38 C    1     2.4246     4.5817   42 C    0 0 0

  39 C    1     1.0913     2.0623   13 H    0 0 0
  39 C    1     1.3914     2.6294   45 C    0 0 0
  39 C    1     1.4021     2.6495   37 C    0 0 0
  39 C    1     2.1669     4.0948   19 H    0 0 0
  39 C    1     2.4177     4.5688   43 C    0 1 0
  39 C    1     2.4250     4.5825   47 C    0 1 0

  40 C    1     1.0913     2.0623   14 H    0 0 0
  40 C    1     1.3914     2.6294   46 C    0 0 0
  40 C    1     1.4021     2.6495   38 C    0 0 0
  40 C    1     2.1669     4.0948   20 H    0 0 0
  40 C    1     2.4177     4.5688   44 C    0 0 0
  40 C    1     2.4250     4.5825   48 C    0 0 0

  41 C    1     1.0914     2.0625   15 H    0 0 0
  41 C    1     1.3914     2.6293   43 C    0 0 0
  41 C    1     1.4026     2.6505   47 C    0 0 0
  41 C    1     2.1680     4.0970   17 H    0 0 0
  41 C    1     2.4182     4.5697   45 C    0-1 0
  41 C    1     2.4246     4.5817   37 C    0-1 0

  42 C    1     1.0914     2.0625   16 H    0 0 0
  42 C    1     1.3914     2.6293   44 C    0 0 0
  42 C    1     1.4026     2.6505   48 C    0 0 0
  42 C    1     2.1680     4.0970   18 H    0 0 0
  42 C    1     2.4182     4.5697   46 C    0 0 0
  42 C    1     2.4246     4.5817   38 C    0 0 0

  43 C    1     1.0914     2.0624   17 H    0 0 0
  43 C    1     1.3914     2.6293   41 C    0 0 0
  43 C    1     1.4020     2.6495   37 C    0-1 0
  43 C    1     2.1666     4.0942   15 H    0 0 0
  43 C    1     2.4177     4.5688   39 C    0-1 0
  43 C    1     2.4250     4.5826   47 C    0 0 0

  44 C    1     1.0914     2.0624   18 H    0 0 0
  44 C    1     1.3914     2.6293   42 C    0 0 0
  44 C    1     1.4020     2.6495   38 C    0 0 0
  44 C    1     2.1666     4.0942   16 H    0 0 0
  44 C    1     2.4177     4.5688   40 C    0 0 0
  44 C    1     2.4250     4.5826   48 C    0 0 0

  45 C    1     1.0915     2.0626   19 H    0 0 0
  45 C    1     1.3914     2.6294   39 C    0 0 0
  45 C    1     1.4025     2.6504   47 C    0 1 0
  45 C    1     2.1680     4.0969   13 H    0 0 0
  45 C    1     2.4182     4.5697   41 C    0 1 0
  45 C    1     2.4246     4.5818   37 C    0 0 0

  46 C    1     1.0915     2.0626   20 H    0 0 0
  46 C    1     1.3914     2.6294   40 C    0 0 0
  46 C    1     1.4025     2.6504   48 C    0 0 0
  46 C    1     2.1680     4.0969   14 H    0 0 0
  46 C    1     2.4182     4.5697   42 C    0 0 0
  46 C    1     2.4246     4.5818   38 C    0 0 0

  47 C    1     1.4025     2.6504   45 C    0-1 0
  47 C    1     1.4026     2.6505   41 C    0 0 0
  47 C    1     1.5513     2.9316    7 B    0 0 0
  47 C    1     2.1490     4.0610   19 H    0-1 0
  47 C    1     2.1493     4.0616   15 H    0 0 0
  47 C    1     2.4250     4.5825   39 C    0-1 0

  48 C    1     1.4025     2.6504   46 C    0 0 0
  48 C    1     1.4026     2.6505   42 C    0 0 0
  48 C    1     1.5513     2.9316    8 B    0 0 0
  48 C    1     2.1490     4.0610   20 H    0 0 0
  48 C    1     2.1493     4.0616   16 H    0 0 0
  48 C    1     2.4250     4.5825   40 C    0 0 0

  49 C    1     1.4020     2.6494   51 C    1 0 0
  49 C    1     1.4021     2.6495   55 C    0 0 0
  49 C    1     1.5503     2.9297    1 B    1 0 0
  49 C    1     2.1469     4.0571   21 H    1 0 0
  49 C    1     2.1475     4.0581   25 H    0 0 0
  49 C    1     2.4246     4.5818   53 C    0 0 0

  50 C    1     1.4020     2.6494   52 C    0 0 0
  50 C    1     1.4021     2.6495   56 C    0 0 0
  50 C    1     1.5503     2.9297    2 B    0 0 0
  50 C    1     2.1469     4.0571   22 H    0 0 0
  50 C    1     2.1475     4.0581   26 H    0 0 0
  50 C    1     2.4246     4.5818   54 C   -1-1 0

  51 C    1     1.0913     2.0623   21 H    0 0 0
  51 C    1     1.3914     2.6293   57 C    0 0 0
  51 C    1     1.4020     2.6494   49 C   -1 0 0
  51 C    1     2.1666     4.0942   27 H    0 0 0
  51 C    1     2.4175     4.5684   55 C   -1 0 0
  51 C    1     2.4251     4.5828   59 C   -1 0 0

  52 C    1     1.0913     2.0623   22 H    0 0 0
  52 C    1     1.3914     2.6293   58 C    0-1 0
  52 C    1     1.4020     2.6494   50 C    0 0 0
  52 C    1     2.1666     4.0942   28 H    0-1 0
  52 C    1     2.4175     4.5684   56 C    0 0 0
  52 C    1     2.4251     4.5828   60 C   -1-1 0

  53 C    1     1.0914     2.0625   23 H    0 0 0
  53 C    1     1.3915     2.6295   55 C    0 0 0
  53 C    1     1.4026     2.6505   59 C    0 0 0
  53 C    1     2.1679     4.0967   25 H    0 0 0
  53 C    1     2.4179     4.5691   57 C    1 0 0
  53 C    1     2.4246     4.5818   49 C    0 0 0

  54 C    1     1.0914     2.0625   24 H    0 0 0
  54 C    1     1.3915     2.6295   56 C    1 1 0
  54 C    1     1.4026     2.6505   60 C    0 0 0
  54 C    1     2.1679     4.0967   26 H    1 1 0
  54 C    1     2.4179     4.5691   58 C    1 0 0
  54 C    1     2.4246     4.5818   50 C    1 1 0

  55 C    1     1.0914     2.0624   25 H    0 0 0
  55 C    1     1.3915     2.6295   53 C    0 0 0
  55 C    1     1.4021     2.6495   49 C    0 0 0
  55 C    1     2.1664     4.0939   23 H    0 0 0
  55 C    1     2.4175     4.5684   51 C    1 0 0
  55 C    1     2.4253     4.5832   59 C    0 0 0

  56 C    1     1.0914     2.0624   26 H    0 0 0
  56 C    1     1.3915     2.6295   54 C   -1-1 0
  56 C    1     1.4021     2.6495   50 C    0 0 0
  56 C    1     2.1664     4.0939   24 H   -1-1 0
  56 C    1     2.4175     4.5684   52 C    0 0 0
  56 C    1     2.4253     4.5832   60 C   -1-1 0

  57 C    1     1.0914     2.0625   27 H    0 0 0
  57 C    1     1.3914     2.6293   51 C    0 0 0
  57 C    1     1.4025     2.6504   59 C   -1 0 0
  57 C    1     2.1680     4.0968   21 H    0 0 0
  57 C    1     2.4179     4.5691   53 C   -1 0 0
  57 C    1     2.4247     4.5819   49 C   -1 0 0

  58 C    1     1.0914     2.0625   28 H    0 0 0
  58 C    1     1.3914     2.6293   52 C    0 1 0
  58 C    1     1.4025     2.6504   60 C   -1 0 0
  58 C    1     2.1680     4.0968   22 H    0 1 0
  58 C    1     2.4179     4.5691   54 C   -1 0 0
  58 C    1     2.4247     4.5819   50 C    0 1 0

  59 C    1     1.4025     2.6504   57 C    1 0 0
  59 C    1     1.4026     2.6505   53 C    0 0 0
  59 C    1     1.5516     2.9322   11 B    0 0 0
  59 C    1     2.1491     4.0612   27 H    1 0 0
  59 C    1     2.1493     4.0617   23 H    0 0 0
  59 C    1     2.4251     4.5828   51 C    1 0 0

  60 C    1     1.4025     2.6504   58 C    1 0 0
  60 C    1     1.4026     2.6505   54 C    0 0 0
  60 C    1     1.5516     2.9322   12 B    0 0 0
  60 C    1     2.1491     4.0612   28 H    1 0 0
  60 C    1     2.1493     4.0617   24 H    0 0 0
  60 C    1     2.4251     4.5828   52 C    1 1 0

  61 C    1     1.4021     2.6496   63 C    1 1 0
  61 C    1     1.4021     2.6497   67 C    0 0 0
  61 C    1     1.5502     2.9294    5 B    1 1 0
  61 C    1     2.1475     4.0582   29 H    1 1 0
  61 C    1     2.1479     4.0589   33 H    0 0 0
  61 C    1     2.4244     4.5814   65 C    0 0 0

  62 C    1     1.4021     2.6496   64 C    0 0 0
  62 C    1     1.4021     2.6497   68 C    0 0 0
  62 C    1     1.5502     2.9294    6 B    0 0 0
  62 C    1     2.1475     4.0582   30 H    0 0 0
  62 C    1     2.1479     4.0589   34 H    0 0 0
  62 C    1     2.4244     4.5814   66 C    0 0 0

  63 C    1     1.0914     2.0624   29 H    0 0 0
  63 C    1     1.3914     2.6293   69 C    0 0 0
  63 C    1     1.4021     2.6496   61 C   -1-1 0
  63 C    1     2.1668     4.0947   35 H    0 0 0
  63 C    1     2.4179     4.5692   67 C   -1-1 0
  63 C    1     2.4251     4.5827   71 C   -1-1 0

  64 C    1     1.0914     2.0624   30 H    0 0 0
  64 C    1     1.3914     2.6293   70 C    0 0 0
  64 C    1     1.4021     2.6496   62 C    0 0 0
  64 C    1     2.1668     4.0947   36 H    0 0 0
  64 C    1     2.4179     4.5692   68 C    0 0 0
  64 C    1     2.4251     4.5827   72 C    0 0 0

  65 C    1     1.0913     2.0623   31 H    0 0 0
  65 C    1     1.3914     2.6294   67 C    0 0 0
  65 C    1     1.4025     2.6504   71 C    0 0 0
  65 C    1     2.1679     4.0968   33 H    0 0 0
  65 C    1     2.4178     4.5690   69 C    1 1 0
  65 C    1     2.4244     4.5814   61 C    0 0 0

  66 C    1     1.0913     2.0623   32 H    0 0 0
  66 C    1     1.3914     2.6294   68 C    0 0 0
  66 C    1     1.4025     2.6504   72 C    0 0 0
  66 C    1     2.1679     4.0968   34 H    0 0 0
  66 C    1     2.4178     4.5690   70 C    0 0 0
  66 C    1     2.4244     4.5814   62 C    0 0 0

  67 C    1     1.0915     2.0626   33 H    0 0 0
  67 C    1     1.3914     2.6294   65 C    0 0 0
  67 C    1     1.4021     2.6497   61 C    0 0 0
  67 C    1     2.1667     4.0945   31 H    0 0 0
  67 C    1     2.4179     4.5692   63 C    1 1 0
  67 C    1     2.4253     4.5832   71 C    0 0 0

  68 C    1     1.0915     2.0626   34 H    0 0 0
  68 C    1     1.3914     2.6294   66 C    0 0 0
  68 C    1     1.4021     2.6497   62 C    0 0 0
  68 C    1     2.1667     4.0945   32 H    0 0 0
  68 C    1     2.4179     4.5692   64 C    0 0 0
  68 C    1     2.4253     4.5832   72 C    0 0 0

  69 C    1     1.0914     2.0624   35 H    0 0 0
  69 C    1     1.3914     2.6293   63 C    0 0 0
  69 C    1     1.4025     2.6503   71 C   -1-1 0
  69 C    1     2.1678     4.0966   29 H    0 0 0
  69 C    1     2.4178     4.5690   65 C   -1-1 0
  69 C    1     2.4245     4.5817   61 C   -1-1 0

  70 C    1     1.0914     2.0624   36 H    0 0 0
  70 C    1     1.3914     2.6293   64 C    0 0 0
  70 C    1     1.4025     2.6503   72 C    0 0 0
  70 C    1     2.1678     4.0966   30 H    0 0 0
  70 C    1     2.4178     4.5690   66 C    0 0 0
  70 C    1     2.4245     4.5817   62 C    0 0 0

  71 C    1     1.4025     2.6503   69 C    1 1 0
  71 C    1     1.4025     2.6504   65 C    0 0 0
  71 C    1     1.5516     2.9322    9 B    0 0 0
  71 C    1     2.1486     4.0602   35 H    1 1 0
  71 C    1     2.1487     4.0605   31 H    0 0 0
  71 C    1     2.4251     4.5827   63 C    1 1 0

  72 C    1     1.4025     2.6503   70 C    0 0 0
  72 C    1     1.4025     2.6504   66 C    0 0 0
  72 C    1     1.5516     2.9322   10 B    0 0 0
  72 C    1     2.1486     4.0602   36 H    0 0 0
  72 C    1     2.1487     4.0605   32 H    0 0 0
  72 C    1     2.4251     4.5827   64 C    0 0 0

  73 O    1     1.3791     2.6061    1 B    1 0 0
  73 O    1     1.3791     2.6061    5 B    1 1 0
  73 O    1     2.3880     4.5126   75 O    1 0 0
  73 O    1     2.3882     4.5130   77 O    1 1 0
  73 O    1     2.5383     4.7966   61 C    0 0 0
  73 O    1     2.5384     4.7968   49 C    0 0 0

  74 O    1     1.3791     2.6061    2 B    0 0 0
  74 O    1     1.3791     2.6061    6 B    0 0 0
  74 O    1     2.3880     4.5126   76 O    0 0 0
  74 O    1     2.3882     4.5130   78 O    0 0 0
  74 O    1     2.5383     4.7966   62 C    0 0 0
  74 O    1     2.5384     4.7968   50 C    0 0 0

  75 O    1     1.3793     2.6065    1 B    0 0 0
  75 O    1     1.3793     2.6065    3 B    0 0 0
  75 O    1     2.3880     4.5126   73 O   -1 0 0
  75 O    1     2.3882     4.5131   77 O    0 1 0
  75 O    1     2.5391     4.7981   37 C    0 0 0
  75 O    1     2.5395     4.7990   49 C   -1 0 0

  76 O    1     1.3793     2.6065    2 B    0 0 0
  76 O    1     1.3793     2.6065    4 B    0 0 0
  76 O    1     2.3880     4.5126   74 O    0 0 0
  76 O    1     2.3882     4.5131   78 O    0 0 0
  76 O    1     2.5391     4.7981   38 C    0 0 0
  76 O    1     2.5395     4.7990   50 C    0 0 0

  77 O    1     1.3793     2.6064    5 B    0 0 0
  77 O    1     1.3793     2.6065    3 B    0-1 0
  77 O    1     2.3882     4.5130   73 O   -1-1 0
  77 O    1     2.3882     4.5131   75 O    0-1 0
  77 O    1     2.5390     4.7980   37 C    0-1 0
  77 O    1     2.5391     4.7982   61 C   -1-1 0

  78 O    1     1.3793     2.6064    6 B    0 0 0
  78 O    1     1.3793     2.6065    4 B    0 0 0
  78 O    1     2.3882     4.5130   74 O    0 0 0
  78 O    1     2.3882     4.5131   76 O    0 0 0
  78 O    1     2.5390     4.7980   38 C    0 0 0
  78 O    1     2.5391     4.7982   62 C    0 0 0

  79 O    1     1.3795     2.6068   11 B    0 0 0
  79 O    1     1.3795     2.6068    7 B    0 0 0
  79 O    1     2.3880     4.5126   83 O    1 0 0
  79 O    1     2.3884     4.5134   81 O    0-1 0
  79 O    1     2.5400     4.7998   47 C    0 0 0
  79 O    1     2.5403     4.8005   59 C    0 0 0

  80 O    1     1.3795     2.6068   12 B    0 0 0
  80 O    1     1.3795     2.6068    8 B    0 0 0
  80 O    1     2.3880     4.5126   84 O    1 0 0
  80 O    1     2.3884     4.5134   82 O    0 0 0
  80 O    1     2.5400     4.7998   48 C    0 0 0
  80 O    1     2.5403     4.8005   60 C    0 0 0

  81 O    1     1.3795     2.6069    9 B    0 0 0
  81 O    1     1.3795     2.6070    7 B    0 1 0
  81 O    1     2.3881     4.5128   83 O    1 1 0
  81 O    1     2.3884     4.5134   79 O    0 1 0
  81 O    1     2.5404     4.8006   47 C    0 1 0
  81 O    1     2.5405     4.8008   71 C    0 0 0

  82 O    1     1.3795     2.6069   10 B    1 0 0
  82 O    1     1.3795     2.6070    8 B    0 0 0
  82 O    1     2.3881     4.5128   84 O    1 0 0
  82 O    1     2.3884     4.5134   80 O    0 0 0
  82 O    1     2.5404     4.8006   48 C    0 0 0
  82 O    1     2.5405     4.8008   72 C    1 0 0

  83 O    1     1.3796     2.6071   11 B   -1 0 0
  83 O    1     1.3797     2.6072    9 B   -1-1 0
  83 O    1     2.3880     4.5126   79 O   -1 0 0
  83 O    1     2.3881     4.5128   81 O   -1-1 0
  83 O    1     2.5409     4.8016   71 C   -1-1 0
  83 O    1     2.5410     4.8019   59 C   -1 0 0

  84 O    1     1.3796     2.6071   12 B   -1 0 0
  84 O    1     1.3797     2.6072   10 B    0 0 0
  84 O    1     2.3880     4.5126   80 O   -1 0 0
  84 O    1     2.3881     4.5128   82 O   -1 0 0
  84 O    1     2.5409     4.8016   72 C    0 0 0
  84 O    1     2.5410     4.8019   60 C   -1 0 0


 SYMMETRY ALLOWED INTERNAL DEGREE(S) OF FREEDOM: 249
 TTTTTTTTTTTTTTTTTTTTTTTTTTTTTT SYMM        TELAPSE        2.76 TCPU        2.76
 TTTTTTTTTTTTTTTTTTTTTTTTTTTTTT INT_SCREEN  TELAPSE        2.98 TCPU        2.98

 DFT PARAMETERS

     ATOM       ELECTRONS   NET CHARGE   R(ANGSTROM)
   1   5  B       5.0000      0.0000     0.89000000
  13   1  H       1.0000      0.0000     1.11000000
  37   6  C       6.0000      0.0000     0.77000000
  73   8  O       8.0000      0.0000     0.74000000

 SIZE OF GRID=    2596810
 TTTTTTTTTTTTTTTTTTTTTTTTTTTTTT MAKE_GRID2  TELAPSE       22.91 TCPU       22.89
 BECKE WEIGHT FUNCTION
 RADSAFE =     2.00
 TOLERANCES - DENSITY:10**- 6; POTENTIAL:10**- 9; GRID WGT:10**-14

 RADIAL INTEGRATION  - INTERVALS (POINTS,UPPER LIMIT):            1( 75,  4.0*R)

 ANGULAR INTEGRATION - INTERVALS (ACCURACY LEVEL [N. POINTS] UPPER LIMIT):
  1(  4[  86]   0.2)  2(  8[ 194]   0.5)  3( 12[ 350]   0.9)  4( 16[ 974]   3.5)
  5( 12[ 350]9999.0)
 TTTTTTTTTTTTTTTTTTTTTTTTTTTTTT INT_CALC    TELAPSE       23.17 TCPU       23.14
 EEEEEEEEEE INT_CALC TERMINATION  DATE 19 02 2026 TIME 20:16:09.6

 *******************************************************************************
 cof-1_z37_L050_serr                                                             
 CRYSTAL - SCF - TYPE OF CALCULATION :  RESTRICTED CLOSED SHELL
 *******************************************************************************

 CAPPA:IS1  2;IS2  2;IS3  8; K PTS MONK NET  20; SYMMOPS:K SPACE   2;G SPACE   1

 TTTTTTTTTTTTTTTTTTTTTTTTTTTTTT SDIK        TELAPSE       25.14 TCPU       50.60

 AAAAAAAAAAAAAAAAAAAAAAAAAAAAAAAAAAAAAAAAAAAAAAAAAAAAAAAAAAAAAAAAAAAAAAAAAAAAAAA
         ATOMIC WAVEFUNCTION(S)


 NUCLEAR CHARGE  5.0  SYMMETRY SPECIES            S    P
 N. ELECTRONS    5.0  NUMBER OF PRIMITIVE GTOS    8    4
                      NUMBER OF CONTRACTED GTOS   4    2
                      NUMBER OF CLOSED SHELLS     2    0
                      OPEN SHELL OCCUPATION       0    1

  ZNUC  SCFIT    TOTAL HF ENERGY   KINETIC ENERGY   VIRIAL THEOREM ACCURACY
   5.0    11    -2.451164084E+01  2.462155050E+01 -1.995536038E+00  1.5E-06

 NUCLEAR CHARGE  1.0  SYMMETRY SPECIES            S
 N. ELECTRONS    1.0  NUMBER OF PRIMITIVE GTOS    4
                      NUMBER OF CONTRACTED GTOS   2
                      NUMBER OF CLOSED SHELLS     0
                      OPEN SHELL OCCUPATION       1

  ZNUC  SCFIT    TOTAL HF ENERGY   KINETIC ENERGY   VIRIAL THEOREM ACCURACY
   1.0     1    -4.977266687E-01  5.190767460E-01 -1.958869132E+00  0.0E+00

 NUCLEAR CHARGE  6.0  SYMMETRY SPECIES            S    P
 N. ELECTRONS    6.0  NUMBER OF PRIMITIVE GTOS    8    4
                      NUMBER OF CONTRACTED GTOS   4    2
                      NUMBER OF CLOSED SHELLS     2    0
                      OPEN SHELL OCCUPATION       0    2

  ZNUC  SCFIT    TOTAL HF ENERGY   KINETIC ENERGY   VIRIAL THEOREM ACCURACY
   6.0     9    -3.766704647E+01  3.775180683E+01 -1.997754800E+00  1.1E-06

 NUCLEAR CHARGE  8.0  SYMMETRY SPECIES            S    P
 N. ELECTRONS    8.0  NUMBER OF PRIMITIVE GTOS    8    4
                      NUMBER OF CONTRACTED GTOS   4    2
                      NUMBER OF CLOSED SHELLS     2    0
                      OPEN SHELL OCCUPATION       0    4

  ZNUC  SCFIT    TOTAL HF ENERGY   KINETIC ENERGY   VIRIAL THEOREM ACCURACY
   8.0    12    -7.477373220E+01  7.477365593E+01 -2.000001020E+00  3.8E-06

 AAAAAAAAAAAAAAAAAAAAAAAAAAAAAAAAAAAAAAAAAAAAAAAAAAAAAAAAAAAAAAAAAAAAAAAAAAAAAAA

 CHARGE NORMALIZATION FACTOR   1.00000000
 TOTAL ATOMIC CHARGES:
   5.0000000   5.0000000   5.0000000   5.0000000   5.0000000   5.0000000
   5.0000000   5.0000000   5.0000000   5.0000000   5.0000000   5.0000000
   1.0000000   1.0000000   1.0000000   1.0000000   1.0000000   1.0000000
   1.0000000   1.0000000   1.0000000   1.0000000   1.0000000   1.0000000
   1.0000000   1.0000000   1.0000000   1.0000000   1.0000000   1.0000000
   1.0000000   1.0000000   1.0000000   1.0000000   1.0000000   1.0000000
   6.0000000   6.0000000   6.0000000   6.0000000   6.0000000   6.0000000
   6.0000000   6.0000000   6.0000000   6.0000000   6.0000000   6.0000000
   6.0000000   6.0000000   6.0000000   6.0000000   6.0000000   6.0000000
   6.0000000   6.0000000   6.0000000   6.0000000   6.0000000   6.0000000
   6.0000000   6.0000000   6.0000000   6.0000000   6.0000000   6.0000000
   6.0000000   6.0000000   6.0000000   6.0000000   6.0000000   6.0000000
   8.0000000   8.0000000   8.0000000   8.0000000   8.0000000   8.0000000
   8.0000000   8.0000000   8.0000000   8.0000000   8.0000000   8.0000000
 TTTTTTTTTTTTTTTTTTTTTTTTTTTTTT MOQGAD      TELAPSE       25.24 TCPU       53.63
 TTTTTTTTTTTTTTTTTTTTTTTTTTTTTT SHELLXN     TELAPSE       41.98 TCPU      588.83
 TTTTTTTTTTTTTTTTTTTTTTTTTTTTTT MONMO3      TELAPSE       42.57 TCPU      607.74
 NUMERICALLY INTEGRATED DENSITY    395.9999160858
 TTTTTTTTTTTTTTTTTTTTTTTTTTTTTT NUMDFT      TELAPSE       44.08 TCPU      656.03
 CYC   0 ETOT(AU) -2.591921836323E+03 DETOT -2.59E+03 tst  0.00E+00 PX  1.00E+00
 TTTTTTTTTTTTTTTTTTTTTTTTTTTTTT DIIS        TELAPSE       44.20 TCPU      659.65
 TTTTTTTTTTTTTTTTTTTTTTTTTTTTTT FDIK        TELAPSE       46.19 TCPU      723.26
 INSULATING STATE
 TOP OF VALENCE BANDS -    BAND    198; K    4; EIG -3.1263335E-01 AU
 TOP OF VALENCE BANDS -    BAND    198; K    1; EIG -3.1307140E-01 AU
 BOTTOM OF VIRTUAL BANDS - BAND    199; K    1; EIG -1.6706899E-01 AU
 INDIRECT ENERGY BAND GAP:   3.9610 eV
 TTTTTTTTTTTTTTTTTTTTTTTTTTTTTT PDIG        TELAPSE       47.81 TCPU      730.18
 CHARGE NORMALIZATION FACTOR   1.00000000
 TOTAL ATOMIC CHARGES:
   4.1348965   4.1592261   4.1646231   4.1661327   4.1648337   4.1663891
   4.1659717   4.1644350   4.1657482   4.1642055   4.1588453   4.1345586
   0.7853605   0.7852593   0.7853726   0.7854765   0.7844455   0.7850205
   0.7851396   0.7845691   0.7857874   0.7856633   0.7858254   0.7859517
   0.7857778   0.7856512   0.7857885   0.7859132   0.7844510   0.7850228
   0.7852045   0.7846341   0.7853130   0.7852112   0.7853680   0.7854680
   6.0461657   6.0430679   6.2675098   6.2660808   6.2660468   6.2674694
   6.2661568   6.2645294   6.2644700   6.2661007   6.0423445   6.0454552
   6.0525938   6.0426950   6.2635220   6.2620814   6.2621679   6.2635862
   6.2634392   6.2619882   6.2621904   6.2635961   6.0414722   6.0513212
   6.0465352   6.0434246   6.2659299   6.2642966   6.2648394   6.2664799
   6.2671438   6.2657028   6.2663230   6.2677393   6.0418818   6.0449951
   8.6995101   8.6912571   8.6996052   8.6913636   8.6966992   8.6907929
   8.6916840   8.6999333   8.6912003   8.6971027   8.6918595   8.7001100
 TTTTTTTTTTTTTTTTTTTTTTTTTTTTTT MOQGAD      TELAPSE       47.91 TCPU      730.28
 TTTTTTTTTTTTTTTTTTTTTTTTTTTTTT SHELLXN     TELAPSE       65.23 TCPU     1282.68
 TTTTTTTTTTTTTTTTTTTTTTTTTTTTTT MONMO3      TELAPSE       65.82 TCPU     1301.49
 NUMERICALLY INTEGRATED DENSITY    395.9999426150
 TTTTTTTTTTTTTTTTTTTTTTTTTTTTTT NUMDFT      TELAPSE       67.36 TCPU     1350.73
 CYC   1 ETOT(AU) -2.577647063870E+03 DETOT  1.43E+01 tst  0.00E+00 PX  1.00E+00
 TTTTTTTTTTTTTTTTTTTTTTTTTTTTTT DIIS        TELAPSE       67.50 TCPU     1355.41
 DIIS TEST: 0.21896E+01 AT SCF   CYCLE   1 - MIX   30 %
 TTTTTTTTTTTTTTTTTTTTTTTTTTTTTT FDIK        TELAPSE       69.51 TCPU     1419.47
 INSULATING STATE
 TOP OF VALENCE BANDS -    BAND    198; K    4; EIG -2.2637541E-01 AU
 TOP OF VALENCE BANDS -    BAND    198; K    1; EIG -2.2776831E-01 AU
 BOTTOM OF VIRTUAL BANDS - BAND    199; K    1; EIG -9.2591282E-02 AU
 INDIRECT ENERGY BAND GAP:   3.6405 eV
 TTTTTTTTTTTTTTTTTTTTTTTTTTTTTT PDIG        TELAPSE       71.15 TCPU     1426.40
 CHARGE NORMALIZATION FACTOR   1.00000000
 TOTAL ATOMIC CHARGES:
   4.6684079   4.6938930   4.6794062   4.7180480   4.6793374   4.7180412
   4.7182072   4.6795075   4.7181835   4.6795036   4.6939327   4.6683274
   0.9122341   0.9021738   0.9022369   0.9122339   0.9171301   0.9141768
   0.9142057   0.9172668   0.9028634   0.8949398   0.8948491   0.9029542
   0.9028383   0.8949258   0.8948380   0.9029192   0.9171323   0.9141705
   0.9142804   0.9173434   0.9121719   0.9021192   0.9022364   0.9122259
   5.8562960   5.8803178   6.1467893   6.1334660   6.1338661   6.1472064
   6.1289481   6.1457497   6.1463881   6.1296968   5.8829704   5.8589661
   5.9116069   5.8687588   6.1511321   6.1308011   6.1317377   6.1517818
   6.1513278   6.1309412   6.1316708   6.1517693   5.8719313   5.9146664
   5.8562020   5.8802580   6.1290287   6.1458072   6.1462400   6.1295956
   6.1470103   6.1336866   6.1336435   6.1468782   5.8831983   5.8591833
   8.3436252   8.3260140   8.3439910   8.3263583   8.3371986   8.3389128
   8.3258616   8.3434221   8.3386398   8.3371548   8.3262471   8.3437956
 TTTTTTTTTTTTTTTTTTTTTTTTTTTTTT MOQGAD      TELAPSE       71.25 TCPU     1426.50
 TTTTTTTTTTTTTTTTTTTTTTTTTTTTTT SHELLXN     TELAPSE       88.62 TCPU     1980.46
 TTTTTTTTTTTTTTTTTTTTTTTTTTTTTT MONMO3      TELAPSE       89.21 TCPU     1999.33
 NUMERICALLY INTEGRATED DENSITY    395.9999363839
 TTTTTTTTTTTTTTTTTTTTTTTTTTTTTT NUMDFT      TELAPSE       90.75 TCPU     2048.56
 CYC   2 ETOT(AU) -2.578033523002E+03 DETOT -3.86E-01 tst  3.68E-03 PX  1.59E-01
 TTTTTTTTTTTTTTTTTTTTTTTTTTTTTT DIIS        TELAPSE       90.92 TCPU     2053.90
 DIIS TEST: 0.90267E+00 AT SCF   CYCLE   2 - DIIS ACTIVE - HISTORY:     2 CYCLES
 TTTTTTTTTTTTTTTTTTTTTTTTTTTTTT FDIK        TELAPSE       92.91 TCPU     2117.73
 INSULATING STATE
 TOP OF VALENCE BANDS -    BAND    198; K    4; EIG -2.3795681E-01 AU
 TOP OF VALENCE BANDS -    BAND    198; K    1; EIG -2.3938872E-01 AU
 BOTTOM OF VIRTUAL BANDS - BAND    199; K    1; EIG -8.9444433E-02 AU
 INDIRECT ENERGY BAND GAP:   4.0412 eV
 TTTTTTTTTTTTTTTTTTTTTTTTTTTTTT PDIG        TELAPSE       94.54 TCPU     2124.65
 CHARGE NORMALIZATION FACTOR   1.00000000
 TOTAL ATOMIC CHARGES:
   4.4611475   4.4909645   4.4899484   4.5101268   4.4900080   4.5102028
   4.5098527   4.4896981   4.5096925   4.4895517   4.4904263   4.4609339
   0.8901788   0.8825931   0.8827007   0.8904244   0.8925142   0.8926595
   0.8927935   0.8925758   0.8836398   0.8755098   0.8758903   0.8837057
   0.8836613   0.8755183   0.8758472   0.8836402   0.8925182   0.8926663
   0.8928465   0.8926484   0.8901723   0.8826042   0.8826446   0.8903610
   5.9103148   5.8823774   6.1600728   6.1655371   6.1652594   6.1599209
   6.1644585   6.1481989   6.1475168   6.1633409   5.8815220   5.9094717
   5.9053510   5.9016783   6.1603949   6.1708413   6.1703849   6.1602177
   6.1605010   6.1709419   6.1702750   6.1601163   5.9004821   5.9044823
   5.9105902   5.8826694   6.1644303   6.1481332   6.1476447   6.1634478
   6.1600062   6.1653942   6.1653215   6.1599016   5.8812294   5.9092399
   8.5179471   8.5120982   8.5180890   8.5122575   8.5234798   8.5033243
   8.5123099   8.5182976   8.5034694   8.5232072   8.5125016   8.5184845
 TTTTTTTTTTTTTTTTTTTTTTTTTTTTTT MOQGAD      TELAPSE       94.63 TCPU     2124.75
 TTTTTTTTTTTTTTTTTTTTTTTTTTTTTT SHELLXN     TELAPSE      112.06 TCPU     2680.52
 TTTTTTTTTTTTTTTTTTTTTTTTTTTTTT MONMO3      TELAPSE      112.65 TCPU     2699.37
 NUMERICALLY INTEGRATED DENSITY    395.9999355271
 TTTTTTTTTTTTTTTTTTTTTTTTTTTTTT NUMDFT      TELAPSE      114.19 TCPU     2748.73
 CYC   3 ETOT(AU) -2.578219443104E+03 DETOT -1.86E-01 tst  6.24E-04 PX  6.71E-02
 TTTTTTTTTTTTTTTTTTTTTTTTTTTTTT DIIS        TELAPSE      114.38 TCPU     2754.75
 DIIS TEST: 0.31988E-01 AT SCF   CYCLE   3 - DIIS ACTIVE - HISTORY:     3 CYCLES
 TTTTTTTTTTTTTTTTTTTTTTTTTTTTTT FDIK        TELAPSE      116.39 TCPU     2818.91
 INSULATING STATE
 TOP OF VALENCE BANDS -    BAND    198; K    4; EIG -2.4840970E-01 AU
 TOP OF VALENCE BANDS -    BAND    198; K    1; EIG -2.4933497E-01 AU
 BOTTOM OF VIRTUAL BANDS - BAND    199; K    1; EIG -9.7111862E-02 AU
 INDIRECT ENERGY BAND GAP:   4.1170 eV
 TTTTTTTTTTTTTTTTTTTTTTTTTTTTTT PDIG        TELAPSE      118.02 TCPU     2825.85
 CHARGE NORMALIZATION FACTOR   1.00000000
 TOTAL ATOMIC CHARGES:
   4.4726477   4.4916543   4.4936256   4.5125446   4.4936631   4.5126215
   4.5125482   4.4935527   4.5123875   4.4934251   4.4914652   4.4724177
   0.8729678   0.8668318   0.8669702   0.8730001   0.8786828   0.8725332
   0.8725283   0.8787556   0.8643595   0.8608921   0.8607739   0.8645615
   0.8643710   0.8609151   0.8607214   0.8644900   0.8787118   0.8725431
   0.8725897   0.8788072   0.8729547   0.8668120   0.8669311   0.8729519
   5.9248666   5.9487850   6.1768551   6.1645588   6.1648219   6.1769980
   6.1535936   6.1798949   6.1809558   6.1550882   5.9513813   5.9273878
   5.9821822   5.9244761   6.1813243   6.1629635   6.1639499   6.1819767
   6.1813045   6.1628829   6.1640127   6.1820804   5.9271618   5.9844617
   5.9248366   5.9488168   6.1535193   6.1797883   6.1810401   6.1552233
   6.1767630   6.1644858   6.1649015   6.1769551   5.9514242   5.9274405
   8.4886449   8.4725609   8.4889256   8.4728116   8.4787926   8.4843617
   8.4726103   8.4884891   8.4843495   8.4793433   8.4729328   8.4888105
 TTTTTTTTTTTTTTTTTTTTTTTTTTTTTT MOQGAD      TELAPSE      118.12 TCPU     2825.95
 TTTTTTTTTTTTTTTTTTTTTTTTTTTTTT SHELLXN     TELAPSE      135.53 TCPU     3381.34
 TTTTTTTTTTTTTTTTTTTTTTTTTTTTTT MONMO3      TELAPSE      136.12 TCPU     3400.20
 NUMERICALLY INTEGRATED DENSITY    395.9999366037
 TTTTTTTTTTTTTTTTTTTTTTTTTTTTTT NUMDFT      TELAPSE      137.67 TCPU     3449.59
 CYC   4 ETOT(AU) -2.578225610144E+03 DETOT -6.17E-03 tst  3.47E-05 PX  1.81E-02
 TTTTTTTTTTTTTTTTTTTTTTTTTTTTTT DIIS        TELAPSE      137.88 TCPU     3456.26
 DIIS TEST: 0.11656E-01 AT SCF   CYCLE   4 - DIIS ACTIVE - HISTORY:     4 CYCLES
 TTTTTTTTTTTTTTTTTTTTTTTTTTTTTT FDIK        TELAPSE      139.89 TCPU     3520.37
 INSULATING STATE
 TOP OF VALENCE BANDS -    BAND    198; K    4; EIG -2.4705957E-01 AU
 TOP OF VALENCE BANDS -    BAND    198; K    1; EIG -2.4833545E-01 AU
 BOTTOM OF VIRTUAL BANDS - BAND    199; K    1; EIG -9.7160165E-02 AU
 INDIRECT ENERGY BAND GAP:   4.0790 eV
 TTTTTTTTTTTTTTTTTTTTTTTTTTTTTT PDIG        TELAPSE      141.51 TCPU     3527.28
 CHARGE NORMALIZATION FACTOR   1.00000000
 TOTAL ATOMIC CHARGES:
   4.4708261   4.4965672   4.4937156   4.5178982   4.4937578   4.5179686
   4.5178102   4.4936449   4.5176635   4.4935145   4.4962188   4.4706770
   0.8751542   0.8682355   0.8683399   0.8753144   0.8792624   0.8770671
   0.8772374   0.8794095   0.8679651   0.8610564   0.8613298   0.8680572
   0.8679666   0.8610523   0.8612976   0.8680032   0.8792711   0.8770712
   0.8772995   0.8794836   0.8751286   0.8682224   0.8683031   0.8752707
   5.9290296   5.9231191   6.1696980   6.1708301   6.1707507   6.1697800
   6.1711353   6.1619530   6.1612915   6.1701167   5.9226654   5.9286119
   5.9430749   5.9359741   6.1713997   6.1742926   6.1741309   6.1713335
   6.1715286   6.1744027   6.1740255   6.1712491   5.9355069   5.9428710
   5.9292054   5.9233247   6.1711160   6.1619037   6.1613576   6.1701880
   6.1697004   6.1707752   6.1707521   6.1696863   5.9224962   5.9284852
   8.4923930   8.4846953   8.4925828   8.4848897   8.4959650   8.4818826
   8.4847910   8.4926249   8.4818730   8.4955962   8.4850303   8.4928531
 TTTTTTTTTTTTTTTTTTTTTTTTTTTTTT MOQGAD      TELAPSE      141.60 TCPU     3527.38
 TTTTTTTTTTTTTTTTTTTTTTTTTTTTTT SHELLXN     TELAPSE      159.00 TCPU     4082.36
 TTTTTTTTTTTTTTTTTTTTTTTTTTTTTT MONMO3      TELAPSE      159.59 TCPU     4101.22
 NUMERICALLY INTEGRATED DENSITY    395.9999365553
 TTTTTTTTTTTTTTTTTTTTTTTTTTTTTT NUMDFT      TELAPSE      161.14 TCPU     4150.59
 CYC   5 ETOT(AU) -2.578228040262E+03 DETOT -2.43E-03 tst  2.17E-05 PX  9.83E-03
 TTTTTTTTTTTTTTTTTTTTTTTTTTTTTT DIIS        TELAPSE      161.37 TCPU     4157.41
 DIIS TEST: 0.14417E-02 AT SCF   CYCLE   5 - DIIS ACTIVE - HISTORY:     5 CYCLES
 TTTTTTTTTTTTTTTTTTTTTTTTTTTTTT FDIK        TELAPSE      163.38 TCPU     4221.32
 INSULATING STATE
 TOP OF VALENCE BANDS -    BAND    198; K    4; EIG -2.4635442E-01 AU
 TOP OF VALENCE BANDS -    BAND    198; K    1; EIG -2.4761250E-01 AU
 BOTTOM OF VIRTUAL BANDS - BAND    199; K    1; EIG -9.6767692E-02 AU
 INDIRECT ENERGY BAND GAP:   4.0705 eV
 TTTTTTTTTTTTTTTTTTTTTTTTTTTTTT PDIG        TELAPSE      165.01 TCPU     4228.24
 CHARGE NORMALIZATION FACTOR   1.00000000
 TOTAL ATOMIC CHARGES:
   4.4720936   4.4959231   4.4941825   4.5169957   4.4942181   4.5170694
   4.5169128   4.4940496   4.5167617   4.4939250   4.4956309   4.4718871
   0.8766133   0.8696453   0.8697802   0.8767307   0.8811932   0.8777010
   0.8777450   0.8812736   0.8689207   0.8628898   0.8629637   0.8690722
   0.8689311   0.8629025   0.8629186   0.8690077   0.8812108   0.8777072
   0.8778060   0.8813365   0.8765973   0.8696333   0.8697396   0.8766814
   5.9219284   5.9217466   6.1742316   6.1662394   6.1662552   6.1742372
   6.1601723   6.1693415   6.1697869   6.1607007   5.9230151   5.9231566
   5.9530023   5.9168323   6.1761329   6.1679688   6.1683904   6.1764498
   6.1761691   6.1679636   6.1683837   6.1764694   5.9179683   5.9540340
   5.9220250   5.9218848   6.1601251   6.1692628   6.1698766   6.1608134
   6.1741623   6.1661457   6.1663148   6.1741935   5.9229221   5.9230954
   8.4972138   8.4845127   8.4974399   8.4847299   8.4927634   8.4879709
   8.4846223   8.4972477   8.4880340   8.4930112   8.4848913   8.4975149
 TTTTTTTTTTTTTTTTTTTTTTTTTTTTTT MOQGAD      TELAPSE      165.11 TCPU     4228.34
 TTTTTTTTTTTTTTTTTTTTTTTTTTTTTT SHELLXN     TELAPSE      182.51 TCPU     4783.27
 TTTTTTTTTTTTTTTTTTTTTTTTTTTTTT MONMO3      TELAPSE      183.10 TCPU     4802.13
 NUMERICALLY INTEGRATED DENSITY    395.9999365055
 TTTTTTTTTTTTTTTTTTTTTTTTTTTTTT NUMDFT      TELAPSE      184.65 TCPU     4851.53
 CYC   6 ETOT(AU) -2.578228311384E+03 DETOT -2.71E-04 tst  6.96E-06 PX  4.51E-03
 TTTTTTTTTTTTTTTTTTTTTTTTTTTTTT DIIS        TELAPSE      184.90 TCPU     4858.36
 DIIS TEST: 0.42966E-03 AT SCF   CYCLE   6 - DIIS ACTIVE - HISTORY:     6 CYCLES
 TTTTTTTTTTTTTTTTTTTTTTTTTTTTTT FDIK        TELAPSE      186.92 TCPU     4922.60
 INSULATING STATE
 TOP OF VALENCE BANDS -    BAND    198; K    4; EIG -2.4637316E-01 AU
 TOP OF VALENCE BANDS -    BAND    198; K    1; EIG -2.4778951E-01 AU
 BOTTOM OF VIRTUAL BANDS - BAND    199; K    1; EIG -9.6514611E-02 AU
 INDIRECT ENERGY BAND GAP:   4.0779 eV
 TTTTTTTTTTTTTTTTTTTTTTTTTTTTTT PDIG        TELAPSE      188.54 TCPU     4929.51
 CHARGE NORMALIZATION FACTOR   1.00000000
 TOTAL ATOMIC CHARGES:
   4.4716747   4.4960435   4.4944351   4.5168747   4.4944750   4.5169479
   4.5167832   4.4943231   4.5166322   4.4941949   4.4957161   4.4714758
   0.8768641   0.8695204   0.8696371   0.8769872   0.8810645   0.8779662
   0.8780603   0.8811709   0.8692770   0.8630048   0.8631417   0.8694043
   0.8692854   0.8630130   0.8631008   0.8693425   0.8810804   0.8779734
   0.8781201   0.8812357   0.8768467   0.8695087   0.8695966   0.8769388
   5.9221948   5.9240090   6.1707662   6.1687141   6.1687431   6.1708384
   6.1632766   6.1670895   6.1671024   6.1632277   5.9246962   5.9228681
   5.9489453   5.9232145   6.1735774   6.1699427   6.1701868   6.1737807
   6.1736431   6.1699762   6.1701466   6.1737665   5.9238717   5.9496196
   5.9223094   5.9241628   6.1632333   6.1670116   6.1671913   6.1633351
   6.1707144   6.1686346   6.1687871   6.1707791   5.9245874   5.9227902
   8.4952500   8.4844298   8.4954668   8.4846399   8.4939389   8.4862733
   8.4845361   8.4953557   8.4862916   8.4939558   8.4847991   8.4956127
 TTTTTTTTTTTTTTTTTTTTTTTTTTTTTT MOQGAD      TELAPSE      188.64 TCPU     4929.61
 TTTTTTTTTTTTTTTTTTTTTTTTTTTTTT SHELLXN     TELAPSE      205.96 TCPU     5482.26
 TTTTTTTTTTTTTTTTTTTTTTTTTTTTTT MONMO3      TELAPSE      206.56 TCPU     5501.17
 NUMERICALLY INTEGRATED DENSITY    395.9999364867
 TTTTTTTTTTTTTTTTTTTTTTTTTTTTTT NUMDFT      TELAPSE      208.10 TCPU     5550.40
 CYC   7 ETOT(AU) -2.578228411691E+03 DETOT -1.00E-04 tst  1.11E-06 PX  1.50E-03
 TTTTTTTTTTTTTTTTTTTTTTTTTTTTTT DIIS        TELAPSE      208.38 TCPU     5557.25
 DIIS TEST: 0.20037E-04 AT SCF   CYCLE   7 - DIIS ACTIVE - HISTORY:     7 CYCLES
 TTTTTTTTTTTTTTTTTTTTTTTTTTTTTT FDIK        TELAPSE      210.38 TCPU     5621.04
 INSULATING STATE
 TOP OF VALENCE BANDS -    BAND    198; K    4; EIG -2.4644965E-01 AU
 TOP OF VALENCE BANDS -    BAND    198; K    1; EIG -2.4776825E-01 AU
 BOTTOM OF VIRTUAL BANDS - BAND    199; K    1; EIG -9.6619260E-02 AU
 INDIRECT ENERGY BAND GAP:   4.0771 eV
 TTTTTTTTTTTTTTTTTTTTTTTTTTTTTT PDIG        TELAPSE      212.02 TCPU     5627.97
 CHARGE NORMALIZATION FACTOR   1.00000000
 TOTAL ATOMIC CHARGES:
   4.4717222   4.4960893   4.4944069   4.5170452   4.4944463   4.5171182
   4.5169557   4.4942952   4.5168053   4.4941673   4.4957686   4.4715306
   0.8767342   0.8696379   0.8697589   0.8768631   0.8809887   0.8779917
   0.8780817   0.8810910   0.8691461   0.8628488   0.8629898   0.8692750
   0.8691543   0.8628565   0.8629489   0.8692134   0.8810038   0.8779979
   0.8781423   0.8811570   0.8767161   0.8696263   0.8697189   0.8768149
   5.9236699   5.9227233   6.1717689   6.1677534   6.1677532   6.1718170
   6.1634777   6.1666006   6.1666398   6.1634482   5.9233996   5.9243331
   5.9495655   5.9231239   6.1739152   6.1697949   6.1700225   6.1741064
   6.1739836   6.1698298   6.1699808   6.1740900   5.9237354   5.9501977
   5.9237912   5.9228822   6.1634378   6.1665289   6.1667238   6.1635497
   6.1717226   6.1676733   6.1677938   6.1717563   5.9232836   5.9242511
   8.4953152   8.4844291   8.4955299   8.4846391   8.4937293   8.4859619
   8.4845330   8.4954186   8.4859920   8.4937521   8.4847936   8.4956736
 TTTTTTTTTTTTTTTTTTTTTTTTTTTTTT MOQGAD      TELAPSE      212.12 TCPU     5628.07
 TTTTTTTTTTTTTTTTTTTTTTTTTTTTTT SHELLXN     TELAPSE      229.51 TCPU     6182.66
 TTTTTTTTTTTTTTTTTTTTTTTTTTTTTT MONMO3      TELAPSE      230.09 TCPU     6201.50
 NUMERICALLY INTEGRATED DENSITY    395.9999364852
 TTTTTTTTTTTTTTTTTTTTTTTTTTTTTT NUMDFT      TELAPSE      231.64 TCPU     6250.82
 CYC   8 ETOT(AU) -2.578228416358E+03 DETOT -4.67E-06 tst  6.88E-08 PX  3.56E-04
 TTTTTTTTTTTTTTTTTTTTTTTTTTTTTT DIIS        TELAPSE      231.94 TCPU     6257.64
 DIIS TEST: 0.11945E-05 AT SCF   CYCLE   8 - DIIS ACTIVE - HISTORY:     8 CYCLES
 TTTTTTTTTTTTTTTTTTTTTTTTTTTTTT FDIK        TELAPSE      233.96 TCPU     6321.95
 INSULATING STATE
 TOP OF VALENCE BANDS -    BAND    198; K    4; EIG -2.4644198E-01 AU
 TOP OF VALENCE BANDS -    BAND    198; K    1; EIG -2.4777219E-01 AU
 BOTTOM OF VIRTUAL BANDS - BAND    199; K    1; EIG -9.6620735E-02 AU
 INDIRECT ENERGY BAND GAP:   4.0768 eV
 TTTTTTTTTTTTTTTTTTTTTTTTTTTTTT PDIG        TELAPSE      235.57 TCPU     6328.86
 CHARGE NORMALIZATION FACTOR   1.00000000
 TOTAL ATOMIC CHARGES:
   4.4717540   4.4961153   4.4943613   4.5171274   4.4944000   4.5172003
   4.5170394   4.4942492   4.5168892   4.4941219   4.4957974   4.4715623
   0.8767124   0.8696041   0.8697259   0.8768407   0.8810161   0.8779490
   0.8780369   0.8811179   0.8691220   0.8628500   0.8629875   0.8692526
   0.8691303   0.8628580   0.8629464   0.8691908   0.8810314   0.8779552
   0.8780976   0.8811837   0.8766945   0.8695923   0.8696858   0.8767925
   5.9233117   5.9229470   6.1716616   6.1678944   6.1678954   6.1717076
   6.1633937   6.1667022   6.1667611   6.1633923   5.9236505   5.9240000
   5.9494094   5.9232125   6.1739071   6.1697689   6.1700055   6.1741028
   6.1739725   6.1698015   6.1699667   6.1740896   5.9238477   5.9500587
   5.9234305   5.9231044   6.1633540   6.1666299   6.1668451   6.1634941
   6.1716135   6.1678142   6.1679374   6.1716480   5.9235367   5.9239200
   8.4953607   8.4844473   8.4955765   8.4846576   8.4937788   8.4860068
   8.4845517   8.4954606   8.4860376   8.4938135   8.4848128   8.4957166
 TTTTTTTTTTTTTTTTTTTTTTTTTTTTTT MOQGAD      TELAPSE      235.67 TCPU     6328.95
 TTTTTTTTTTTTTTTTTTTTTTTTTTTTTT SHELLXN     TELAPSE      253.08 TCPU     6884.12
 TTTTTTTTTTTTTTTTTTTTTTTTTTTTTT MONMO3      TELAPSE      253.67 TCPU     6902.95
 NUMERICALLY INTEGRATED DENSITY    395.9999364845
 TTTTTTTTTTTTTTTTTTTTTTTTTTTTTT NUMDFT      TELAPSE      255.21 TCPU     6952.28
 CYC   9 ETOT(AU) -2.578228416402E+03 DETOT -4.34E-08 tst  4.43E-09 PX  9.39E-05
 TTTTTTTTTTTTTTTTTTTTTTTTTTTTTT DIIS        TELAPSE      255.54 TCPU     6959.17
 DIIS TEST: 0.39075E-07 AT SCF   CYCLE   9 - DIIS ACTIVE - HISTORY:     9 CYCLES
 TTTTTTTTTTTTTTTTTTTTTTTTTTTTTT FDIK        TELAPSE      257.55 TCPU     7023.28
 INSULATING STATE
 TOP OF VALENCE BANDS -    BAND    198; K    4; EIG -2.4644410E-01 AU
 TOP OF VALENCE BANDS -    BAND    198; K    1; EIG -2.4777345E-01 AU
 BOTTOM OF VIRTUAL BANDS - BAND    199; K    1; EIG -9.6618117E-02 AU
 INDIRECT ENERGY BAND GAP:   4.0770 eV
 TTTTTTTTTTTTTTTTTTTTTTTTTTTTTT PDIG        TELAPSE      259.18 TCPU     7030.21
 CHARGE NORMALIZATION FACTOR   1.00000000
 TOTAL ATOMIC CHARGES:
   4.4717473   4.4961111   4.4943745   4.5170868   4.4944136   4.5171597
   4.5169978   4.4942633   4.5168474   4.4941356   4.4957902   4.4715547
   0.8767212   0.8695948   0.8697148   0.8768488   0.8810018   0.8779483
   0.8780399   0.8811058   0.8691265   0.8628450   0.8629858   0.8692549
   0.8691345   0.8628526   0.8629450   0.8691935   0.8810171   0.8779547
   0.8781003   0.8811717   0.8767031   0.8695831   0.8696748   0.8768007
   5.9233884   5.9229444   6.1716128   6.1679309   6.1679373   6.1716672
   6.1634181   6.1667234   6.1667529   6.1633787   5.9236153   5.9240466
   5.9494673   5.9231228   6.1738999   6.1698169   6.1700466   6.1740928
   6.1739685   6.1698520   6.1700048   6.1740763   5.9237363   5.9501032
   5.9235087   5.9231025   6.1633775   6.1666505   6.1668378   6.1634814
   6.1715657   6.1678513   6.1679783   6.1716064   5.9235005   5.9239651
   8.4953385   8.4844379   8.4955532   8.4846478   8.4937964   8.4860332
   8.4845425   8.4954431   8.4860602   8.4938161   8.4848035   8.4956982
 TTTTTTTTTTTTTTTTTTTTTTTTTTTTTT MOQGAD      TELAPSE      259.28 TCPU     7030.31
 TTTTTTTTTTTTTTTTTTTTTTTTTTTTTT SHELLXN     TELAPSE      276.57 TCPU     7581.69
 +++ ENERGIES IN A.U. +++
 ::: EXT EL-POLE                                  -2.7240906490121E+03
 ::: EXT EL-SPHEROPOLE                             3.0970782187959E+01
 ::: BIELET ZONE E-E                               4.2511537046619E+03
 ::: TOTAL E-E                                     1.5580338378378E+03
 ::: TOTAL E-N + N-E                              -6.7706310945523E+03
 ::: TOTAL N-N                                     3.4194729559095E+02
 ::: KINETIC ENERGY                                2.5598528674263E+03
 ::: PSEUDO TOTAL   ENERGY                        -2.3107970936972E+03
 ::: VIRIAL COEFFICIENT                            1.0511339915036E+00
 TTTTTTTTTTTTTTTTTTTTTTTTTTTTTT MONMO3      TELAPSE      277.16 TCPU     7600.51
 NUMERICALLY INTEGRATED DENSITY    395.9999364844
 EXCHANGE ENERGY: -0.252046800449E+03  CORRELATION ENERGY: -0.153845223160E+02
 TTTTTTTTTTTTTTTTTTTTTTTTTTTTTT NUMDFT      TELAPSE      278.69 TCPU     7649.41
 CYC  10 ETOT(AU) -2.578228416462E+03 DETOT -6.07E-08 tst  1.65E-10 PX  9.39E-05

 == SCF ENDED - CONVERGENCE ON ENERGY      E(AU) -2.5782284164625E+03 CYCLES  10


 ENERGY EXPRESSION=HARTREE+FOCK EXCH*0.00000+(HSESOL     EXCH)*1.00000+PBESOL     CORR


 TOTAL ENERGY(DFT)(AU)( 10) -2.5782284164625E+03 DE-6.1E-08 tester 1.6E-10
 TTTTTTTTTTTTTTTTTTTTTTTTTTTTTT EDFT        TELAPSE      278.69 TCPU     7649.43
 
 INFORMATION **** DFTD3 ENERGY **** CALCULATE DFTD3 ENERGY

           DFT-D V3(BJ)
 DF                                         hsesol3c  
 parameters
 s6       :    1.0000
 s8       :    0.0000
 a1       :    0.5196
 a2       :    4.9385
 k1 k3    :   16.0000   -4.0000
 Cutoff   :   50.2022
 CN-Cutoff:   21.1671
 ABC-Cutoff:   21.1671
 
 Edisp /kcal,au:   -51.6427 -0.08229789

 E6    /kcal :   -55.0029
 E8    /kcal :     0.0000
 E6(ABC) "   :   3.360224
 
 INFORMATION **** DFTD3 ENERGY **** NORMAL TERMINATION OF DFTD3 MODULE

 GCP ENERGY CALCULATION
  level        hsesol3c            basis:hsesol3c
  Nbf            948
  Atoms           84

  Parameters: 
  sigma     1.0000
  eta       1.4281
  alpha     0.2936
  beta      1.9467

  dmp_scal      4.0000
  dmp_exp       6.0000
 cutoffs: 
   distance [bohr] 60.0
   noise    [a.u.] 2.2E-16
 SR-damping   T
 ** gCP correction **
  Egcp:        0.1661345291 / (a.u.) ||     104.2510 / (kcal/mol)
 INFORMATION **** GCP **** NORMAL TERMINATION OF GCP MODULE

 *******************************************************************************

 DFT-D3-GCP DISPERSION AND COUNTERPOISE CORRECTION

 D3 DISPERSION ENERGY (AU)      -8.2297890217849E-02
 GCP ENERGY (AU)                 1.6613452911631E-01
 TOTAL ENERGY + DISP + GCP (AU) -2.5781445798236E+03

 *******************************************************************************

 EIGENVECTORS IN FORTRAN UNIT  8
 TTTTTTTTTTTTTTTTTTTTTTTTTTTTTT END         TELAPSE      281.90 TCPU     7658.47
 EEEEEEEEEE TERMINATION  DATE 19 02 2026 TIME 20:20:28.3
