 Default number of threads is:           32

         
 *******************************************************************************
 *                                                                             *
 *                               CRYSTAL23                                     *
 *                      public : 1.0.1 - October 2022                          *
 *                       HTTP://WWW.CRYSTAL.UNITO.IT                           *
 *                                                                             *
 *                              MAIN AUTHORS                                   *
 *                                                                             *
 *  R. DOVESI(1,11), V.R. SAUNDERS(2), C. ROETTI(1,11), R. ORLANDO(1,11),      *
 *  C.M. ZICOVICH-WILSON(1,3), F. PASCALE(4), B. CIVALLERI(1,11),              *
 *  K. DOLL(5), N.M. HARRISON(6), I.J. BUSH(7), Ph. D'ARCO(8),                 *
 *  M. LLUNELL(9), M. CAUSA'(10), Y. NOEL(8), L. MASCHIO(1,11), A. ERBA(1,11)  *
 *  M. RE'RAT(14), S. CASASSA(1,11), B.G. SEARLE(2), J.K. DESMARAIS(1)         *
 *                                                                             *
 *        CONTRIBUTIONS TO THE CODE HAVE ALSO BEEN GIVEN BY                    *
 *                                                                             *
 *  M. FERRABONE(1,11), M. DE LA PIERRE(1,11), M. FERRERO(1,11),               *
 *  J. BAIMA(1,11), E. ALBANESE(1,11), M.F. PEINTINGER(12), R. BAST(13),       *
 *  B. KIRTMAN(15), V. LACIVITA(1,11), R. DEMICHELIS(1,16)                     *
 *  G. BRANDEBURG(17), S. SALUSTRO(1,11), G. SANSONE(1,11)                     *
 *  M.T. RUGGIERO(18), L.E. DAGA(1), L. DONA'(1), A. COSSARD(1)                *
 *                                                                             *
 * (1) THEORETICAL CHEMISTRY GROUP - UNIVERSITA' DI TORINO - TORINO (ITALY)    *
 * (2) SCIENTIFIC COMPUTING DEPARTMENT - STFC DARESBURY (UK)                   *
 * (3) UNIVERSIDAD AUTONOMA DEL ESTADO DE MORELOS - CUERNAVACA (MEXICO)        *
 * (4) UNIVERSITE' DE LORRAINE - NANCY (FRANCE)                                *
 * (5) UNIVERSITAET STUTTGART- STUTTGART (GERMANY)                             *
 * (6) IMPERIAL COLLEGE - LONDON (UK)                                          *
 * (7) SCIENTIFIC COMPUTING DEPARTMENT - STFC RAL (UK)                         *
 * (8) UPMC - SORBONNE UNIVERSITES - PARIS (FRANCE)                            *
 * (9) UNIVERSIDAD DE BARCELONA - BARCELONA (SPAIN)                            *
 *(10) UNIVERSITA' DI NAPOLI "FEDERICO II" - NAPOLI (ITALY)                    *
 *(11) NIS - NANOSTRUCTURED INTERFACES AND SURFACES - TORINO (ITALY)           *
 *(12) MPI FUER CHEMISCHE ENERGIEKONVERSION - MUELHEIM AN DER RUHR (GERMANY)   *
 *(13) UNIVERSITY OF TROMSO - TROMSO (NORWAY)                                  *
 *(14) UNIVERSITE' DE PAU ET DES PAYS DE L'ADOUR - PAU (FRANCE)                *
 *(15) UNIVERSITY OF CALIFORNIA SANTA BARBARA - SANTA BARBARA (USA)            *
 *(16) CURTIN UNIVERSITY - PERTH (AUSTRALIA)                                   *
 *(17) UNIVERSITY COLLEGE LONDON - LONDON (UK)                                 *
 *(18) UNIVERSITY OF VERMONT - BURLINGTON (USA)                                *
 *                                                                             *
 *******************************************************************************
 EEEEEEEEEE STARTING  DATE 19 02 2026 TIME 20:23:39.8
 cof-1_z40_L030_serr                                                             

 CRYSTAL CALCULATION
 (INPUT ACCORDING TO THE INTERNATIONAL TABLES FOR X-RAY CRYSTALLOGRAPHY)
 CRYSTAL FAMILY                       :  TRICLINIC   
 CRYSTAL CLASS  (GROTH - 1921)        :  TRICLINIC PEDIAL                     

 SPACE GROUP (NONCENTROSYMMETRIC)     :  P 1             

 LATTICE PARAMETERS  (ANGSTROMS AND DEGREES) - CONVENTIONAL CELL
        A           B           C        ALPHA        BETA       GAMMA
    15.02361    15.02392     8.00000    90.00032    89.99994   119.99596


 NUMBER OF IRREDUCIBLE ATOMS IN THE CONVENTIONAL CELL:   84

 INPUT COORDINATES

 ATOM AT. N.              COORDINATES
   1   5     6.136805400000E-01  2.273182200000E-01  2.505970900000E-01
   2   5     7.289503700000E-01  4.578813200000E-01  7.505970900000E-01
   3   5     7.727362000000E-01  3.863778800000E-01  2.505971000000E-01
   4   5     8.880060300000E-01  6.169409800000E-01  7.505971000000E-01
   5   5     6.136762700000E-01  3.863606700000E-01  2.493417000000E-01
   6   5     7.289461000000E-01  6.169237700000E-01  7.493417000000E-01
   7   5     2.272552500000E-01  6.136332200000E-01  2.505970900000E-01
   8   5     3.425250800000E-01  8.441963200000E-01  7.505970900000E-01
   9   5     3.863632200000E-01  6.136124500000E-01  2.505970900000E-01
  10   5     5.016330500000E-01  8.441755500000E-01  7.505970900000E-01
  11   5     3.863435000000E-01  7.727516500000E-01  2.493417000000E-01
  12   5     5.016133300000E-01  3.314750000000E-03  7.493417000000E-01
  13   1     9.030436200000E-01  3.089300500000E-01  2.479944000000E-01
  14   1     1.831345000000E-02  5.394931500000E-01  7.479944000000E-01
  15   1     9.663453000000E-02  6.910534400000E-01  2.475964000000E-01
  16   1     2.119043600000E-01  9.216165400000E-01  7.475964100000E-01
  17   1     9.029714200000E-01  5.940724300000E-01  2.475351600000E-01
  18   1     1.824125000000E-02  8.246355300000E-01  7.475351600000E-01
  19   1     9.673618000000E-02  4.056849400000E-01  2.475504300000E-01
  20   1     2.120060100000E-01  6.362480400000E-01  7.475504300000E-01
  21   1     6.910324000000E-01  9.700412000000E-02  2.520056200000E-01
  22   1     8.063022300000E-01  3.275672200000E-01  7.520056100000E-01
  23   1     3.089297200000E-01  9.034373100000E-01  2.524036400000E-01
  24   1     4.241995500000E-01  1.340004100000E-01  7.524036400000E-01
  25   1     4.058699900000E-01  9.704998000000E-02  2.524649300000E-01
  26   1     5.211398200000E-01  3.276130800000E-01  7.524649300000E-01
  27   1     5.943122100000E-01  9.033473200000E-01  2.524495500000E-01
  28   1     7.095820400000E-01  1.339104200000E-01  7.524495500000E-01
  29   1     6.910727400000E-01  5.940542100000E-01  2.479944200000E-01
  30   1     8.063425700000E-01  8.246173100000E-01  7.479944300000E-01
  31   1     3.089618300000E-01  4.056093300000E-01  2.475963800000E-01
  32   1     4.242316600000E-01  6.361724300000E-01  7.475963800000E-01
  33   1     4.058405700000E-01  3.088232500000E-01  2.475351100000E-01
  34   1     5.211104000000E-01  5.393863500000E-01  7.475351000000E-01
  35   1     5.942908800000E-01  6.909579300000E-01  2.475504800000E-01
  36   1     7.095607100000E-01  9.215210300000E-01  7.475504800000E-01
  37   6     8.918903100000E-01  4.459436900000E-01  2.492957700000E-01
  38   6     7.160140000000E-03  6.765067900000E-01  7.492957700000E-01
  39   6     9.464891100000E-01  3.927856300000E-01  2.480556500000E-01
  40   6     6.175894000000E-02  6.233487300000E-01  7.480556500000E-01
  41   6     5.338812000000E-02  6.071853000000E-01  2.479485200000E-01
  42   6     1.686579500000E-01  8.377484000000E-01  7.479485200000E-01
  43   6     9.464521100000E-01  5.536921900000E-01  2.482700300000E-01
  44   6     6.172194000000E-02  7.842552900000E-01  7.482700300000E-01
  45   6     5.342634000000E-02  4.462499700000E-01  2.474432600000E-01
  46   6     1.686961700000E-01  6.768130700000E-01  7.474432600000E-01
  47   6     1.080358900000E-01  5.540356300000E-01  2.482853200000E-01
  48   6     2.233057200000E-01  7.845987300000E-01  7.482853200000E-01
  49   6     5.540394200000E-01  1.081684600000E-01  2.507042700000E-01
  50   6     6.693092500000E-01  3.387315600000E-01  7.507042700000E-01
  51   6     6.071778500000E-01  5.355594000000E-02  2.519443600000E-01
  52   6     7.224476800000E-01  2.841190400000E-01  7.519443600000E-01
  53   6     3.927986700000E-01  9.466631600000E-01  2.520515300000E-01
  54   6     5.080685000000E-01  1.772262600000E-01  7.520515300000E-01
  55   6     4.462875800000E-01  5.360286000000E-02  2.517300400000E-01
  56   6     5.615574100000E-01  2.841659600000E-01  7.517300400000E-01
  57   6     5.537168500000E-01  9.466235600000E-01  2.525567400000E-01
  58   6     6.689866800000E-01  1.771866600000E-01  7.525567400000E-01
  59   6     4.459279100000E-01  8.919920600000E-01  2.517147100000E-01
  60   6     5.611977400000E-01  1.225551600000E-01  7.517147100000E-01
  61   6     5.540448700000E-01  4.458745500000E-01  2.492957600000E-01
  62   6     6.693147000000E-01  6.764376500000E-01  7.492957600000E-01
  63   6     6.072102200000E-01  5.536257800000E-01  2.480556800000E-01
  64   6     7.224800500000E-01  7.841888800000E-01  7.480556800000E-01
  65   6     3.928233700000E-01  4.461720300000E-01  2.479484900000E-01
  66   6     5.080932000000E-01  6.767351300000E-01  7.479484900000E-01
  67   6     4.462872600000E-01  3.926899900000E-01  2.482699900000E-01
  68   6     5.615570900000E-01  6.232530900000E-01  7.482699900000E-01
  69   6     5.537429600000E-01  6.070980000000E-01  2.474433000000E-01
  70   6     6.690127900000E-01  8.376611000000E-01  7.474433000000E-01
  71   6     4.459599800000E-01  5.539582300000E-01  2.482853200000E-01
  72   6     5.612298100000E-01  7.845213300000E-01  7.482853200000E-01
  73   8     5.607366800000E-01  2.803706300000E-01  2.496785000000E-01
  74   8     6.760065100000E-01  5.109337300000E-01  7.496785000000E-01
  75   8     7.196817000000E-01  2.803783300000E-01  2.523271000000E-01
  76   8     8.349515300000E-01  5.109414300000E-01  7.523270900000E-01
  77   8     7.196794200000E-01  4.393234600000E-01  2.483312600000E-01
  78   8     8.349492500000E-01  6.698865600000E-01  7.483312600000E-01
  79   8     2.803245100000E-01  7.196511100000E-01  2.496785200000E-01
  80   8     3.955943400000E-01  9.502142100000E-01  7.496785200000E-01
  81   8     2.803439700000E-01  5.606956100000E-01  2.523270900000E-01
  82   8     3.956138000000E-01  7.912587100000E-01  7.523270900000E-01
  83   8     4.392638400000E-01  7.196354200000E-01  2.483312500000E-01
  84   8     5.545336700000E-01  9.501985200000E-01  7.483312500000E-01

 *******************************************************************************

 << INFORMATION >>: FROM NOW ON, ALL COORDINATES REFER TO THE PRIMITIVE CELL

 *******************************************************************************

 LATTICE PARAMETERS  (ANGSTROMS AND DEGREES) - PRIMITIVE CELL
       A          B          C        ALPHA      BETA     GAMMA        VOLUME
   15.02361   15.02392    8.00000    90.00032  89.99994 119.99596   1563.852384

 COORDINATES OF THE EQUIVALENT ATOMS (FRACTIONAL UNITS)

 N. ATOM EQUIV AT. N.          X                  Y                  Z

   1   1   1    5 B    -3.86319460000E-01  2.27318220000E-01  2.50597090000E-01

   2   2   1    5 B    -2.71049630000E-01  4.57881320000E-01 -2.49402910000E-01

   3   3   1    5 B    -2.27263800000E-01  3.86377880000E-01  2.50597100000E-01

   4   4   1    5 B    -1.11993970000E-01 -3.83059020000E-01 -2.49402900000E-01

   5   5   1    5 B    -3.86323730000E-01  3.86360670000E-01  2.49341700000E-01

   6   6   1    5 B    -2.71053900000E-01 -3.83076230000E-01 -2.50658300000E-01

   7   7   1    5 B     2.27255250000E-01 -3.86366780000E-01  2.50597090000E-01

   8   8   1    5 B     3.42525080000E-01 -1.55803680000E-01 -2.49402910000E-01

   9   9   1    5 B     3.86363220000E-01 -3.86387550000E-01  2.50597090000E-01

  10  10   1    5 B    -4.98366950000E-01 -1.55824450000E-01 -2.49402910000E-01

  11  11   1    5 B     3.86343500000E-01 -2.27248350000E-01  2.49341700000E-01

  12  12   1    5 B    -4.98386670000E-01  3.31475000000E-03 -2.50658300000E-01

  13  13   1    1 H    -9.69563800000E-02  3.08930050000E-01  2.47994400000E-01

  14  14   1    1 H     1.83134500000E-02 -4.60506850000E-01 -2.52005600000E-01

  15  15   1    1 H     9.66345300000E-02 -3.08946560000E-01  2.47596400000E-01

  16  16   1    1 H     2.11904360000E-01 -7.83834600000E-02 -2.52403590000E-01

  17  17   1    1 H    -9.70285800000E-02 -4.05927570000E-01  2.47535160000E-01

  18  18   1    1 H     1.82412500000E-02 -1.75364470000E-01 -2.52464840000E-01

  19  19   1    1 H     9.67361800000E-02  4.05684940000E-01  2.47550430000E-01

  20  20   1    1 H     2.12006010000E-01 -3.63751960000E-01 -2.52449570000E-01

  21  21   1    1 H    -3.08967600000E-01  9.70041200000E-02  2.52005620000E-01

  22  22   1    1 H    -1.93697770000E-01  3.27567220000E-01 -2.47994390000E-01

  23  23   1    1 H     3.08929720000E-01 -9.65626900000E-02  2.52403640000E-01

  24  24   1    1 H     4.24199550000E-01  1.34000410000E-01 -2.47596360000E-01

  25  25   1    1 H     4.05869990000E-01  9.70499800000E-02  2.52464930000E-01

  26  26   1    1 H    -4.78860180000E-01  3.27613080000E-01 -2.47535070000E-01

  27  27   1    1 H    -4.05687790000E-01 -9.66526800000E-02  2.52449550000E-01

  28  28   1    1 H    -2.90417960000E-01  1.33910420000E-01 -2.47550450000E-01

  29  29   1    1 H    -3.08927260000E-01 -4.05945790000E-01  2.47994420000E-01

  30  30   1    1 H    -1.93657430000E-01 -1.75382690000E-01 -2.52005570000E-01

  31  31   1    1 H     3.08961830000E-01  4.05609330000E-01  2.47596380000E-01

  32  32   1    1 H     4.24231660000E-01 -3.63827570000E-01 -2.52403620000E-01

  33  33   1    1 H     4.05840570000E-01  3.08823250000E-01  2.47535110000E-01

  34  34   1    1 H    -4.78889600000E-01 -4.60613650000E-01 -2.52464900000E-01

  35  35   1    1 H    -4.05709120000E-01 -3.09042070000E-01  2.47550480000E-01

  36  36   1    1 H    -2.90439290000E-01 -7.84789700000E-02 -2.52449520000E-01

  37  37   1    6 C    -1.08109690000E-01  4.45943690000E-01  2.49295770000E-01

  38  38   1    6 C     7.16014000000E-03 -3.23493210000E-01 -2.50704230000E-01

  39  39   1    6 C    -5.35108900000E-02  3.92785630000E-01  2.48055650000E-01

  40  40   1    6 C     6.17589400000E-02 -3.76651270000E-01 -2.51944350000E-01

  41  41   1    6 C     5.33881200000E-02 -3.92814700000E-01  2.47948520000E-01

  42  42   1    6 C     1.68657950000E-01 -1.62251600000E-01 -2.52051480000E-01

  43  43   1    6 C    -5.35478900000E-02 -4.46307810000E-01  2.48270030000E-01

  44  44   1    6 C     6.17219400000E-02 -2.15744710000E-01 -2.51729970000E-01

  45  45   1    6 C     5.34263400000E-02  4.46249970000E-01  2.47443260000E-01

  46  46   1    6 C     1.68696170000E-01 -3.23186930000E-01 -2.52556740000E-01

  47  47   1    6 C     1.08035890000E-01 -4.45964370000E-01  2.48285320000E-01

  48  48   1    6 C     2.23305720000E-01 -2.15401270000E-01 -2.51714680000E-01

  49  49   1    6 C    -4.45960580000E-01  1.08168460000E-01  2.50704270000E-01

  50  50   1    6 C    -3.30690750000E-01  3.38731560000E-01 -2.49295730000E-01

  51  51   1    6 C    -3.92822150000E-01  5.35559400000E-02  2.51944360000E-01

  52  52   1    6 C    -2.77552320000E-01  2.84119040000E-01 -2.48055640000E-01

  53  53   1    6 C     3.92798670000E-01 -5.33368400000E-02  2.52051530000E-01

  54  54   1    6 C    -4.91931500000E-01  1.77226260000E-01 -2.47948470000E-01

  55  55   1    6 C     4.46287580000E-01  5.36028600000E-02  2.51730040000E-01

  56  56   1    6 C    -4.38442590000E-01  2.84165960000E-01 -2.48269960000E-01

  57  57   1    6 C    -4.46283150000E-01 -5.33764400000E-02  2.52556740000E-01

  58  58   1    6 C    -3.31013320000E-01  1.77186660000E-01 -2.47443260000E-01

  59  59   1    6 C     4.45927910000E-01 -1.08007940000E-01  2.51714710000E-01

  60  60   1    6 C    -4.38802260000E-01  1.22555160000E-01 -2.48285290000E-01

  61  61   1    6 C    -4.45955130000E-01  4.45874550000E-01  2.49295760000E-01

  62  62   1    6 C    -3.30685300000E-01 -3.23562350000E-01 -2.50704240000E-01

  63  63   1    6 C    -3.92789780000E-01 -4.46374220000E-01  2.48055680000E-01

  64  64   1    6 C    -2.77519950000E-01 -2.15811120000E-01 -2.51944320000E-01

  65  65   1    6 C     3.92823370000E-01  4.46172030000E-01  2.47948490000E-01

  66  66   1    6 C    -4.91906800000E-01 -3.23264870000E-01 -2.52051510000E-01

  67  67   1    6 C     4.46287260000E-01  3.92689990000E-01  2.48269990000E-01

  68  68   1    6 C    -4.38442910000E-01 -3.76746910000E-01 -2.51730010000E-01

  69  69   1    6 C    -4.46257040000E-01 -3.92902000000E-01  2.47443300000E-01

  70  70   1    6 C    -3.30987210000E-01 -1.62338900000E-01 -2.52556700000E-01

  71  71   1    6 C     4.45959980000E-01 -4.46041770000E-01  2.48285320000E-01

  72  72   1    6 C    -4.38770190000E-01 -2.15478670000E-01 -2.51714680000E-01

  73  73   1    8 O    -4.39263320000E-01  2.80370630000E-01  2.49678500000E-01

  74  74   1    8 O    -3.23993490000E-01 -4.89066270000E-01 -2.50321500000E-01

  75  75   1    8 O    -2.80318300000E-01  2.80378330000E-01  2.52327100000E-01

  76  76   1    8 O    -1.65048470000E-01 -4.89058570000E-01 -2.47672910000E-01

  77  77   1    8 O    -2.80320580000E-01  4.39323460000E-01  2.48331260000E-01

  78  78   1    8 O    -1.65050750000E-01 -3.30113440000E-01 -2.51668740000E-01

  79  79   1    8 O     2.80324510000E-01 -2.80348890000E-01  2.49678520000E-01

  80  80   1    8 O     3.95594340000E-01 -4.97857900000E-02 -2.50321480000E-01

  81  81   1    8 O     2.80343970000E-01 -4.39304390000E-01  2.52327090000E-01

  82  82   1    8 O     3.95613800000E-01 -2.08741290000E-01 -2.47672910000E-01

  83  83   1    8 O     4.39263840000E-01 -2.80364580000E-01  2.48331250000E-01

  84  84   1    8 O    -4.45466330000E-01 -4.98014800000E-02 -2.51668750000E-01

 NUMBER OF SYMMETRY OPERATORS         :    1
 *******************************************************************************
 * GEOMETRY EDITING - INPUT COORDINATES ARE GIVEN IN ANGSTROM         
 *******************************************************************************

 GCALCO - MAX INDICES DIRECT LATTICE VECTOR    12    12    21
 NO.OF VECTORS CREATED 6999 STARS 3500 RMAX   260.07972 BOHR

 GEOMETRY FOR WAVE FUNCTION - DIMENSIONALITY OF THE SYSTEM    3
 (NON PERIODIC DIRECTION: LATTICE PARAMETER FORMALLY SET TO 500)
 *******************************************************************************
 LATTICE PARAMETERS (ANGSTROMS AND DEGREES) - BOHR = 0.5291772083 ANGSTROM
 PRIMITIVE CELL - CENTRING CODE 1/0 VOLUME=  1563.852384 - DENSITY  0.828 g/cm^3
         A              B              C           ALPHA      BETA       GAMMA 
    15.02361100    15.02391600     8.00000000    90.000323  89.999944 119.995964
 *******************************************************************************
 ATOMS IN THE ASYMMETRIC UNIT   84 - ATOMS IN THE UNIT CELL:   84
     ATOM                 X/A                 Y/B                 Z/C    
 *******************************************************************************
      1 T   5 B    -3.863194600000E-01  2.273182200000E-01  2.505970900000E-01
      2 T   5 B    -2.710496300000E-01  4.578813200000E-01 -2.494029100000E-01
      3 T   5 B    -2.272638000000E-01  3.863778800000E-01  2.505971000000E-01
      4 T   5 B    -1.119939700000E-01 -3.830590200000E-01 -2.494029000000E-01
      5 T   5 B    -3.863237300000E-01  3.863606700000E-01  2.493417000000E-01
      6 T   5 B    -2.710539000000E-01 -3.830762300000E-01 -2.506583000000E-01
      7 T   5 B     2.272552500000E-01 -3.863667800000E-01  2.505970900000E-01
      8 T   5 B     3.425250800000E-01 -1.558036800000E-01 -2.494029100000E-01
      9 T   5 B     3.863632200000E-01 -3.863875500000E-01  2.505970900000E-01
     10 T   5 B    -4.983669500000E-01 -1.558244500000E-01 -2.494029100000E-01
     11 T   5 B     3.863435000000E-01 -2.272483500000E-01  2.493417000000E-01
     12 T   5 B    -4.983866700000E-01  3.314750000000E-03 -2.506583000000E-01
     13 T   1 H    -9.695638000000E-02  3.089300500000E-01  2.479944000000E-01
     14 T   1 H     1.831345000000E-02 -4.605068500000E-01 -2.520056000000E-01
     15 T   1 H     9.663453000000E-02 -3.089465600000E-01  2.475964000000E-01
     16 T   1 H     2.119043600000E-01 -7.838346000000E-02 -2.524035900000E-01
     17 T   1 H    -9.702858000000E-02 -4.059275700000E-01  2.475351600000E-01
     18 T   1 H     1.824125000000E-02 -1.753644700000E-01 -2.524648400000E-01
     19 T   1 H     9.673618000000E-02  4.056849400000E-01  2.475504300000E-01
     20 T   1 H     2.120060100000E-01 -3.637519600000E-01 -2.524495700000E-01
     21 T   1 H    -3.089676000000E-01  9.700412000000E-02  2.520056200000E-01
     22 T   1 H    -1.936977700000E-01  3.275672200000E-01 -2.479943900000E-01
     23 T   1 H     3.089297200000E-01 -9.656269000000E-02  2.524036400000E-01
     24 T   1 H     4.241995500000E-01  1.340004100000E-01 -2.475963600000E-01
     25 T   1 H     4.058699900000E-01  9.704998000000E-02  2.524649300000E-01
     26 T   1 H    -4.788601800000E-01  3.276130800000E-01 -2.475350700000E-01
     27 T   1 H    -4.056877900000E-01 -9.665268000000E-02  2.524495500000E-01
     28 T   1 H    -2.904179600000E-01  1.339104200000E-01 -2.475504500000E-01
     29 T   1 H    -3.089272600000E-01 -4.059457900000E-01  2.479944200000E-01
     30 T   1 H    -1.936574300000E-01 -1.753826900000E-01 -2.520055700000E-01
     31 T   1 H     3.089618300000E-01  4.056093300000E-01  2.475963800000E-01
     32 T   1 H     4.242316600000E-01 -3.638275700000E-01 -2.524036200000E-01
     33 T   1 H     4.058405700000E-01  3.088232500000E-01  2.475351100000E-01
     34 T   1 H    -4.788896000000E-01 -4.606136500000E-01 -2.524649000000E-01
     35 T   1 H    -4.057091200000E-01 -3.090420700000E-01  2.475504800000E-01
     36 T   1 H    -2.904392900000E-01 -7.847897000000E-02 -2.524495200000E-01
     37 T   6 C    -1.081096900000E-01  4.459436900000E-01  2.492957700000E-01
     38 T   6 C     7.160140000000E-03 -3.234932100000E-01 -2.507042300000E-01
     39 T   6 C    -5.351089000000E-02  3.927856300000E-01  2.480556500000E-01
     40 T   6 C     6.175894000000E-02 -3.766512700000E-01 -2.519443500000E-01
     41 T   6 C     5.338812000000E-02 -3.928147000000E-01  2.479485200000E-01
     42 T   6 C     1.686579500000E-01 -1.622516000000E-01 -2.520514800000E-01
     43 T   6 C    -5.354789000000E-02 -4.463078100000E-01  2.482700300000E-01
     44 T   6 C     6.172194000000E-02 -2.157447100000E-01 -2.517299700000E-01
     45 T   6 C     5.342634000000E-02  4.462499700000E-01  2.474432600000E-01
     46 T   6 C     1.686961700000E-01 -3.231869300000E-01 -2.525567400000E-01
     47 T   6 C     1.080358900000E-01 -4.459643700000E-01  2.482853200000E-01
     48 T   6 C     2.233057200000E-01 -2.154012700000E-01 -2.517146800000E-01
     49 T   6 C    -4.459605800000E-01  1.081684600000E-01  2.507042700000E-01
     50 T   6 C    -3.306907500000E-01  3.387315600000E-01 -2.492957300000E-01
     51 T   6 C    -3.928221500000E-01  5.355594000000E-02  2.519443600000E-01
     52 T   6 C    -2.775523200000E-01  2.841190400000E-01 -2.480556400000E-01
     53 T   6 C     3.927986700000E-01 -5.333684000000E-02  2.520515300000E-01
     54 T   6 C    -4.919315000000E-01  1.772262600000E-01 -2.479484700000E-01
     55 T   6 C     4.462875800000E-01  5.360286000000E-02  2.517300400000E-01
     56 T   6 C    -4.384425900000E-01  2.841659600000E-01 -2.482699600000E-01
     57 T   6 C    -4.462831500000E-01 -5.337644000000E-02  2.525567400000E-01
     58 T   6 C    -3.310133200000E-01  1.771866600000E-01 -2.474432600000E-01
     59 T   6 C     4.459279100000E-01 -1.080079400000E-01  2.517147100000E-01
     60 T   6 C    -4.388022600000E-01  1.225551600000E-01 -2.482852900000E-01
     61 T   6 C    -4.459551300000E-01  4.458745500000E-01  2.492957600000E-01
     62 T   6 C    -3.306853000000E-01 -3.235623500000E-01 -2.507042400000E-01
     63 T   6 C    -3.927897800000E-01 -4.463742200000E-01  2.480556800000E-01
     64 T   6 C    -2.775199500000E-01 -2.158111200000E-01 -2.519443200000E-01
     65 T   6 C     3.928233700000E-01  4.461720300000E-01  2.479484900000E-01
     66 T   6 C    -4.919068000000E-01 -3.232648700000E-01 -2.520515100000E-01
     67 T   6 C     4.462872600000E-01  3.926899900000E-01  2.482699900000E-01
     68 T   6 C    -4.384429100000E-01 -3.767469100000E-01 -2.517300100000E-01
     69 T   6 C    -4.462570400000E-01 -3.929020000000E-01  2.474433000000E-01
     70 T   6 C    -3.309872100000E-01 -1.623389000000E-01 -2.525567000000E-01
     71 T   6 C     4.459599800000E-01 -4.460417700000E-01  2.482853200000E-01
     72 T   6 C    -4.387701900000E-01 -2.154786700000E-01 -2.517146800000E-01
     73 T   8 O    -4.392633200000E-01  2.803706300000E-01  2.496785000000E-01
     74 T   8 O    -3.239934900000E-01 -4.890662700000E-01 -2.503215000000E-01
     75 T   8 O    -2.803183000000E-01  2.803783300000E-01  2.523271000000E-01
     76 T   8 O    -1.650484700000E-01 -4.890585700000E-01 -2.476729100000E-01
     77 T   8 O    -2.803205800000E-01  4.393234600000E-01  2.483312600000E-01
     78 T   8 O    -1.650507500000E-01 -3.301134400000E-01 -2.516687400000E-01
     79 T   8 O     2.803245100000E-01 -2.803488900000E-01  2.496785200000E-01
     80 T   8 O     3.955943400000E-01 -4.978579000000E-02 -2.503214800000E-01
     81 T   8 O     2.803439700000E-01 -4.393043900000E-01  2.523270900000E-01
     82 T   8 O     3.956138000000E-01 -2.087412900000E-01 -2.476729100000E-01
     83 T   8 O     4.392638400000E-01 -2.803645800000E-01  2.483312500000E-01
     84 T   8 O    -4.454663300000E-01 -4.980148000000E-02 -2.516687500000E-01

 T = ATOM BELONGING TO THE ASYMMETRIC UNIT

 ****    1 SYMMOPS - TRANSLATORS IN FRACTIONAL UNITS
 **** MATRICES AND TRANSLATORS IN THE CRYSTALLOGRAPHIC REFERENCE FRAME
   V INV                    ROTATION MATRICES                   TRANSLATORS
   1   1  1.00  0.00  0.00  0.00  1.00  0.00 -0.00 -0.00  1.00  0.00  0.00  0.00

 DIRECT LATTICE VECTORS CARTESIAN COMPONENTS (ANGSTROM)
          X                    Y                    Z
   0.130113578931E+02  -0.751088897922E+01   0.000000000000E+00
   0.000000000000E+00   0.150239160000E+02   0.000000000000E+00
  -0.170055388808E-04  -0.450993078697E-04   0.799999999985E+01


 CARTESIAN COORDINATES - PRIMITIVE CELL
 *******************************************************************************
 *      ATOM          X(ANGSTROM)         Y(ANGSTROM)         Z(ANGSTROM)
 *******************************************************************************
    1     5 B    -5.026545016651E+00  6.316801115365E+00  2.004776719964E+00
    2     5 B    -3.526719501480E+00 -6.108910583665E+00 -1.995223279964E+00
    3     5 B    -2.957014899475E+00  7.511850682417E+00  2.004776799964E+00
    4     5 B    -1.457189384304E+00 -4.913861016612E+00 -1.995223199964E+00
    5     5 B    -5.026600553801E+00 -6.317642347288E+00  1.994733599964E+00
    6     5 B    -3.526775038629E+00 -3.719438046317E+00 -2.005266399964E+00
    7     5 B     2.956895129287E+00 -7.511642302360E+00  2.004776719964E+00
    8     5 B     4.456720644459E+00 -4.913438001389E+00 -1.995223279964E+00
    9     5 B     5.027105870595E+00  6.316919352526E+00  2.004776719964E+00
   10     5 B    -6.484426507290E+00  1.402096632713E+00 -1.995223279964E+00
   11     5 B     5.026849307966E+00 -6.315954503019E+00  1.994733599964E+00
   12     5 B     6.526674823137E+00 -3.717750202048E+00 -2.005266399964E+00
   13     1 H    -1.261538377474E+00  5.369556542707E+00  1.983955199964E+00
   14     1 H     2.382871376976E-01 -7.056155156323E+00 -2.016044799963E+00
   15     1 H     1.257342244147E+00 -5.367409558744E+00  1.980771199964E+00
   16     1 H     2.757167759318E+00 -2.769205257774E+00 -2.019228719963E+00
   17     1 H    -1.262477789704E+00 -5.369861985237E+00  1.980281279964E+00
   18     1 H     2.373477254674E-01 -2.771657684267E+00 -2.019718719963E+00
   19     1 H     1.258664849459E+00  5.368390588418E+00  1.980403439964E+00
   20     1 H     2.758490364630E+00 -7.057321110611E+00 -2.019596559963E+00
   21     1 H    -4.020092306450E+00  3.777991727030E+00  2.016044959963E+00
   22     1 H    -2.520266791279E+00  6.376196028001E+00 -1.983955119964E+00
   23     1 H     4.019590858462E+00 -3.771097955824E+00  2.019229119963E+00
   24     1 H     5.519416373633E+00 -1.172893654854E+00 -1.980770879964E+00
   25     1 H     5.280915404639E+00 -1.590385073558E+00  2.019719439963E+00
   26     1 H     6.780740919810E+00  1.007819227413E+00 -1.980280559964E+00
   27     1 H    -5.278553321574E+00  1.594962820119E+00  2.019596399963E+00
   28     1 H    -3.778727806403E+00  4.193167121089E+00 -1.980403599964E+00
   29     1 H    -4.019567360060E+00 -3.778588281377E+00  1.983955359964E+00
   30     1 H    -2.519741844889E+00 -1.180383980407E+00 -2.016044559963E+00
   31     1 H     4.020008734914E+00  3.773251332365E+00  1.980771039964E+00
   32     1 H    -7.491523642972E+00 -1.141571387448E+00 -2.019228959963E+00
   33     1 H     5.280532694324E+00  1.591499938653E+00  1.980280879964E+00
   34     1 H    -6.230999683561E+00 -3.323322781160E+00 -2.019719199963E+00
   35     1 H    -5.278830770526E+00 -1.595797106326E+00  1.980403839964E+00
   36     1 H    -3.779005255355E+00  1.002407194645E+00 -2.019596159963E+00
   37     6 C    -1.406658107706E+00  7.511809175391E+00  1.994366159964E+00
   38     6 C     9.316740746492E-02 -4.913902523639E+00 -2.005633839964E+00
   39     6 C    -6.962535592860E-01  6.303081477958E+00  1.984445199964E+00
   40     6 C     8.035719558852E-01 -6.122630221072E+00 -2.015554799963E+00
   41     6 C     6.946477200593E-01 -6.302618480801E+00  1.983588159964E+00
   42     6 C     2.194473235230E+00 -3.704414179831E+00 -2.016411839963E+00
   43     6 C    -6.967349831737E-01 -6.303109987529E+00  1.986160239964E+00
   44     6 C     8.030905319976E-01 -3.704905686559E+00 -2.013839759963E+00
   45     6 C     6.951450227501E-01  6.303131596457E+00  1.979546079964E+00
   46     6 C     2.194970537921E+00 -6.122580102573E+00 -2.020453919963E+00
   47     6 C     1.405689407859E+00 -7.511588006930E+00  1.986282559964E+00
   48     6 C     2.905514923030E+00 -4.913383705959E+00 -2.013717439963E+00
   49     6 C     7.208800917120E+00 -2.536226023429E+00  2.005634159964E+00
   50     6 C    -4.302731460765E+00 -7.451048743242E+00 -1.994365839964E+00
   51     6 C    -5.111153866420E+00  3.755052138572E+00  2.015554879963E+00
   52     6 C    -3.611328351248E+00  6.353256439542E+00 -1.984445119964E+00
   53     6 C     5.110839789015E+00 -3.751606772769E+00  2.016412239963E+00
   54     6 C     6.610665304186E+00 -1.153402471798E+00 -1.983587759964E+00
   55     6 C     5.806803145801E+00 -2.546702953034E+00  2.013840319963E+00
   56     6 C     7.306628660972E+00  5.150134793638E-02 -1.986159679964E+00
   57     6 C    -5.806754081154E+00  2.550048651872E+00  2.020453919963E+00
   58     6 C    -4.306928565983E+00  5.148252952842E+00 -1.979546079964E+00
   59     6 C     5.802123350968E+00 -4.972028594796E+00  2.013717679963E+00
   60     6 C     7.301948866140E+00 -2.373824293826E+00 -1.986282319964E+00
   61     6 C     7.208871852973E+00  2.537401034597E+00  1.994366079964E+00
   62     6 C    -4.302660524912E+00 -2.377421685216E+00 -2.005633919964E+00
   63     6 C    -5.110732622635E+00 -3.756099543234E+00  1.984445439964E+00
   64     6 C    -3.610907107464E+00 -1.157895242264E+00 -2.015554559963E+00
   65     6 C     5.111161239329E+00  3.752787197453E+00  1.983587919964E+00
   66     6 C    -6.400371138556E+00 -1.162035522361E+00 -2.016412079963E+00
   67     6 C     5.806799041007E+00  2.547716164297E+00  1.986159919964E+00
   68     6 C    -5.704733336879E+00 -2.367106555516E+00 -2.013840079963E+00
   69     6 C    -5.806414267643E+00 -2.551150720120E+00  1.979546399964E+00
   70     6 C    -4.306588752471E+00  4.705358085057E-02 -2.020453599963E+00
   71     6 C     5.802540683535E+00  4.973054818579E+00  1.986282559964E+00
   72     6 C    -5.708991694351E+00  5.823209876584E-02 -2.013717439963E+00
   73     8 O     7.295941381327E+00  6.225836051150E-04  1.997427999964E+00
   74     8 O    -4.215590996558E+00 -4.914200136208E+00 -2.002571999964E+00
   75     8 O    -3.647326016232E+00  6.317808728505E+00  2.018616799963E+00
   76     8 O    -2.147500501060E+00 -6.107902970524E+00 -1.981383279964E+00
   77     8 O    -3.647355614176E+00 -6.318111684729E+00  1.986650079964E+00
   78     8 O    -2.147530099005E+00 -3.719907383759E+00 -2.013349919963E+00
   79     8 O     3.647398279888E+00 -6.317435707145E+00  1.997428159964E+00
   80     8 O     5.147223795059E+00 -3.719231406175E+00 -2.002571839964E+00
   81     8 O     3.647651435872E+00  6.318199931769E+00  2.018616719963E+00
   82     8 O     5.147476951043E+00 -6.107511767261E+00 -1.981383279964E+00
   83     8 O    -7.295943084345E+00 -5.580544706205E-04  1.986649999964E+00
   84     8 O    -5.796117569174E+00  2.597646246500E+00 -2.013349999963E+00

 *******************************************************************************
 STARTING BASIS SET HANDLING 
 *******************************************************************************

 Loading internal basis set: SOLDEF2MSVP         

 Please cite in your publication:
 L. Dona', J. G. Brandenburg and B. Civalleri, J. Chem. Phys., 151, 121101 (2019
 )                                                                              
                                                                                
                    

 *******************************************************************************
 LOCAL ATOMIC FUNCTIONS BASIS SET
 *******************************************************************************
   ATOM   X(AU)   Y(AU)   Z(AU)  N. TYPE  EXPONENT  S COEF   P COEF   D/F/G COEF
 *******************************************************************************
   1 B   -9.499  11.937   3.788
                                  1 S  
                                         2.410E+03 1.755E-03 0.000E+00 0.000E+00
                                         3.619E+02 1.344E-02 0.000E+00 0.000E+00
                                         8.231E+01 6.637E-02 0.000E+00 0.000E+00
                                         2.311E+01 2.303E-01 0.000E+00 0.000E+00
                                         7.252E+00 5.150E-01 0.000E+00 0.000E+00
                                  2 S  
                                         2.367E+00 1.000E+00 0.000E+00 0.000E+00
                                  3 S  
                                         5.533E-01 1.000E+00 0.000E+00 0.000E+00
                                  4 S  
                                         1.716E-01 1.000E+00 0.000E+00 0.000E+00
                           5-     7 P  
                                         6.002E+00 0.000E+00-3.555E-02 0.000E+00
                                         1.240E+00 0.000E+00-1.983E-01 0.000E+00
                                         3.367E-01 0.000E+00-5.048E-01 0.000E+00
                           8-    10 P  
                                         1.256E-01 0.000E+00 1.000E+00 0.000E+00
                          11-    15 D  
                                         8.880E-01 0.000E+00 0.000E+00 1.000E+00
   2 B   -6.665 -11.544  -3.770
   3 B   -5.588  14.195   3.788
   4 B   -2.754  -9.286  -3.770
   5 B   -9.499 -11.939   3.770
   6 B   -6.665  -7.029  -3.789
   7 B    5.588 -14.195   3.788
   8 B    8.422  -9.285  -3.770
   9 B    9.500  11.937   3.788
  10 B  -12.254   2.650  -3.770
  11 B    9.499 -11.935   3.770
  12 B   12.334  -7.026  -3.789
  13 H   -2.384  10.147   3.749
                                181 S  
                                         1.874E+01 1.968E-02 0.000E+00 0.000E+00
                                         2.826E+00 1.380E-01 0.000E+00 0.000E+00
                                         6.401E-01 4.783E-01 0.000E+00 0.000E+00
                                182 S  
                                         1.756E-01 1.000E+00 0.000E+00 0.000E+00
  14 H    0.450 -13.334  -3.810
  15 H    2.376 -10.143   3.743
  16 H    5.210  -5.233  -3.816
  17 H   -2.386 -10.148   3.742
  18 H    0.449  -5.238  -3.817
  19 H    2.379  10.145   3.742
  20 H    5.213 -13.336  -3.816
  21 H   -7.597   7.139   3.810
  22 H   -4.763  12.049  -3.749
  23 H    7.596  -7.126   3.816
  24 H   10.430  -2.216  -3.743
  25 H    9.979  -3.005   3.817
  26 H   12.814   1.905  -3.742
  27 H   -9.975   3.014   3.816
  28 H   -7.141   7.924  -3.742
  29 H   -7.596  -7.140   3.749
  30 H   -4.762  -2.231  -3.810
  31 H    7.597   7.130   3.743
  32 H  -14.157  -2.157  -3.816
  33 H    9.979   3.007   3.742
  34 H  -11.775  -6.280  -3.817
  35 H   -9.976  -3.016   3.742
  36 H   -7.141   1.894  -3.816
  37 C   -2.658  14.195   3.769
                                229 S  
                                         3.624E+03 1.634E-03 0.000E+00 0.000E+00
                                         5.440E+02 1.252E-02 0.000E+00 0.000E+00
                                         1.237E+02 6.211E-02 0.000E+00 0.000E+00
                                         3.476E+01 2.182E-01 0.000E+00 0.000E+00
                                         1.093E+01 4.980E-01 0.000E+00 0.000E+00
                                230 S  
                                         3.574E+00 1.000E+00 0.000E+00 0.000E+00
                                231 S  
                                         7.742E-01 1.000E+00 0.000E+00 0.000E+00
                                232 S  
                                         2.330E-01 1.000E+00 0.000E+00 0.000E+00
                         233-   235 P  
                                         9.443E+00 0.000E+00 3.790E-02 0.000E+00
                                         2.002E+00 0.000E+00 2.082E-01 0.000E+00
                                         5.463E-01 0.000E+00 5.047E-01 0.000E+00
                         236-   238 P  
                                         1.820E-01 0.000E+00 1.000E+00 0.000E+00
                         239-   243 D  
                                         8.880E-01 0.000E+00 0.000E+00 1.000E+00
  38 C    0.176  -9.286  -3.790
  39 C   -1.316  11.911   3.750
  40 C    1.519 -11.570  -3.809
  41 C    1.313 -11.910   3.748
  42 C    4.147  -7.000  -3.810
  43 C   -1.317 -11.911   3.753
  44 C    1.518  -7.001  -3.806
  45 C    1.314  11.911   3.741
  46 C    4.148 -11.570  -3.818
  47 C    2.656 -14.195   3.754
  48 C    5.491  -9.285  -3.805
  49 C   13.623  -4.793   3.790
  50 C   -8.131 -14.080  -3.769
  51 C   -9.659   7.096   3.809
  52 C   -6.824  12.006  -3.750
  53 C    9.658  -7.090   3.810
  54 C   12.492  -2.180  -3.748
  55 C   10.973  -4.813   3.806
  56 C   13.808   0.097  -3.753
  57 C  -10.973   4.819   3.818
  58 C   -8.139   9.729  -3.741
  59 C   10.964  -9.396   3.805
  60 C   13.799  -4.486  -3.754
  61 C   13.623   4.795   3.769
  62 C   -8.131  -4.493  -3.790
  63 C   -9.658  -7.098   3.750
  64 C   -6.824  -2.188  -3.809
  65 C    9.659   7.092   3.748
  66 C  -12.095  -2.196  -3.810
  67 C   10.973   4.814   3.753
  68 C  -10.780  -4.473  -3.806
  69 C  -10.973  -4.821   3.741
  70 C   -8.138   0.089  -3.818
  71 C   10.965   9.398   3.754
  72 C  -10.788   0.110  -3.805
  73 O   13.787   0.001   3.775
                                769 S  
                                         6.773E+03 1.727E-03 0.000E+00 0.000E+00
                                         1.017E+03 1.325E-02 0.000E+00 0.000E+00
                                         2.313E+02 6.603E-02 0.000E+00 0.000E+00
                                         6.501E+01 2.353E-01 0.000E+00 0.000E+00
                                         2.050E+01 5.498E-01 0.000E+00 0.000E+00
                                770 S  
                                         6.716E+00 1.000E+00 0.000E+00 0.000E+00
                                771 S  
                                         1.147E+00 1.000E+00 0.000E+00 0.000E+00
                                772 S  
                                         3.342E-01 1.000E+00 0.000E+00 0.000E+00
                         773-   775 P  
                                         1.769E+01 0.000E+00 4.359E-02 0.000E+00
                                         3.854E+00 0.000E+00 2.318E-01 0.000E+00
                                         1.047E+00 0.000E+00 5.146E-01 0.000E+00
                         776-   778 P  
                                         2.759E-01 0.000E+00 1.000E+00 0.000E+00
                         779-   783 D  
                                         8.000E-01 0.000E+00 0.000E+00 1.000E+00
  74 O   -7.966  -9.286  -3.784
  75 O   -6.892  11.939   3.815
  76 O   -4.058 -11.542  -3.744
  77 O   -6.893 -11.940   3.754
  78 O   -4.058  -7.030  -3.805
  79 O    6.893 -11.938   3.775
  80 O    9.727  -7.028  -3.784
  81 O    6.893  11.940   3.815
  82 O    9.727 -11.542  -3.744
  83 O  -13.787  -0.001   3.754
  84 O  -10.953   4.909  -3.805

 *******************************************************************************
 FINISHED BASIS SET HANDLING 
 *******************************************************************************

 INFORMATION **** SET_MPP **** PCRYSTAL CALCULATION
 INFORMATION **** READM2 **** NEW DEFAULT: FOCK/KS MATRIX MIXING SET TO 30 %
 INFORMATION **** READM2 **** NEW DEFAULT: FULL DIRECT SCF MODE
 INFORMATION **** READM2 **** NEW DEFAULT: COULOMB BIPOLAR BUFFER SET TO 32 Mb
 INFORMATION **** READM2 **** NEW DEFAULT: EXCHANGE BIPOLAR BUFFER SET TO 32 Mb

 *******************************************************************************
 NEW DEFAULT: DFT INTEGRATION GRID INCREASED TO XLGRID
 NEW DEFAULT: DIIS ACCELERATOR ACTIVE
 USE KEYWORD NODIIS TO TURN IT OFF
 *******************************************************************************

 WARNING **** RDDFTP **** HSEsol-HJS ACTIVE
 RANGE SEPARATION - OMEGA:   0.110000000000000     
 WARNING **** RDDFTP **** HSEsol-3c has to be combined with sol-def2-mSVP basis set
 *******************************************************************************
 N. OF ATOMS PER CELL        84  COULOMB OVERLAP TOL         (T1) 10**   -6
 NUMBER OF SHELLS           468  COULOMB PENETRATION TOL     (T2) 10**   -6
 NUMBER OF AO               948  EXCHANGE OVERLAP TOL        (T3) 10**   -6
 N. OF ELECTRONS PER CELL   396  EXCHANGE PSEUDO OVP (F(G))  (T4) 10**   -6
 CORE ELECTRONS PER CELL    120  EXCHANGE PSEUDO OVP (P(G))  (T5) 10**  -12
 N. OF SYMMETRY OPERATORS     1  POLE ORDER IN MONO ZONE                  4
 *******************************************************************************
 TYPE OF CALCULATION :  RESTRICTED CLOSED SHELL
 KOHN-SHAM HAMILTONIAN

 (EXCHANGE)[CORRELATION] FUNCTIONAL:(HSEsol GGA)[PBEsol]

 RANGE-SEPARATED HYBRID FUNCTIONAL 
 OMEGA (SHORT-RANGE)[LONG-RANGE]:(    0.1100)[    0.0000]

 HYBRID EXCHANGE - PERCENTAGE OF FOCK EXCHANGE    25.0000

 CAPPA:IS1  2;IS2  2;IS3  8; K PTS MONK NET  20; SYMMOPS:K SPACE   2;G SPACE   1

 *******************************************************************************
 MAX NUMBER OF SCF CYCLES      50  CONVERGENCE ON DELTAP        10**-16
 WEIGHT OF F(I) IN F(I+1)      30% CONVERGENCE ON ENERGY        10**- 6
 SHRINK. FACT.(MONKH.)    2  2  8  NUMBER OF K POINTS IN THE IBZ     20
 SHRINKING FACTOR(GILAT NET)    8  NUMBER OF K POINTS(GILAT NET)   1028
 *******************************************************************************
 *** K POINTS COORDINATES (OBLIQUE COORDINATES IN UNITS OF IS =  2)
   1-R(  0  0  0)   2-R(  1  0  0)   3-R(  0  1  0)   4-R(  1  1  0)
   5-C(  0  0  1)   6-C(  1  0  1)   7-C(  0  1  1)   8-C(  1  1  1)
   9-C(  0  0  2)  10-C(  1  0  2)  11-C(  0  1  2)  12-C(  1  1  2)
  13-C(  0  0  3)  14-C(  1  0  3)  15-C(  0  1  3)  16-C(  1  1  3)
  17-R(  0  0  4)  18-R(  1  0  4)  19-R(  0  1  4)  20-R(  1  1  4)

 DIRECT LATTICE VECTORS COMPON. (A.U.)     RECIP. LATTICE VECTORS COMPON. (A.U.) 
        X            Y            Z              X            Y            Z
   24.5879030  -14.1935232    0.0000000      0.2555397    0.0000000    0.0000005
    0.0000000   28.3910867    0.0000000      0.1277517    0.2213084    0.0000015
   -0.0000321   -0.0000852   15.1178091      0.0000000    0.0000000    0.4156148

 DISK SPACE FOR EIGENVECTORS (FTN 10)    28758528 REALS

 SYMMETRY ADAPTION OF THE BLOCH FUNCTIONS DISABLED
 TTTTTTTTTTTTTTTTTTTTTTTTTTTTTT gordsh1     TELAPSE        0.05 TCPU        0.05

 MATRIX SIZE: P(G)  644938, F(G)  133073, P(G) IRR  324407, F(G) IRR  134033
 MAX G-VECTOR INDEX FOR 1- AND 2-ELECTRON INTEGRALS  43

 TTTTTTTTTTTTTTTTTTTTTTTTTTTTTT INPUT       TELAPSE        2.57 TCPU        2.57

 NEIGHBORS OF THE NON-EQUIVALENT ATOMS

 N = NUMBER OF NEIGHBORS AT DISTANCE R
    ATOM  N     R/ANG      R/AU   NEIGHBORS (ATOM LABELS AND CELL INDICES)
   1 B    1     1.3791     2.6061   73 O   -1 0 0
   1 B    1     1.3793     2.6065   75 O    0 0 0
   1 B    1     1.5503     2.9297   49 C   -1 0 0
   1 B    1     2.3895     4.5155    5 B    0 1 0
   1 B    1     2.3898     4.5160    3 B    0 0 0
   1 B    1     2.5632     4.8437   51 C    0 0 0

   2 B    1     1.3791     2.6061   74 O    0 0 0
   2 B    1     1.3793     2.6065   76 O    0 0 0
   2 B    1     1.5503     2.9297   50 C    0 0 0
   2 B    1     2.3895     4.5155    6 B    0 0 0
   2 B    1     2.3898     4.5160    4 B    0 0 0
   2 B    1     2.5632     4.8437   52 C    0-1 0

   3 B    1     1.3793     2.6065   77 O    0 1 0
   3 B    1     1.3793     2.6065   75 O    0 0 0
   3 B    1     1.5504     2.9298   37 C    0 0 0
   3 B    1     2.3895     4.5156    5 B    0 1 0
   3 B    1     2.3898     4.5160    1 B    0 0 0
   3 B    1     2.5634     4.8440   43 C    0 1 0

   4 B    1     1.3793     2.6065   78 O    0 0 0
   4 B    1     1.3793     2.6065   76 O    0 0 0
   4 B    1     1.5504     2.9298   38 C    0 0 0
   4 B    1     2.3895     4.5156    6 B    0 0 0
   4 B    1     2.3898     4.5160    2 B    0 0 0
   4 B    1     2.5634     4.8440   44 C    0 0 0

   5 B    1     1.3791     2.6061   73 O   -1-1 0
   5 B    1     1.3793     2.6064   77 O    0 0 0
   5 B    1     1.5502     2.9294   61 C   -1-1 0
   5 B    1     2.3895     4.5155    1 B    0-1 0
   5 B    1     2.3895     4.5156    3 B    0-1 0
   5 B    1     2.5629     4.8433   63 C    0 0 0

   6 B    1     1.3791     2.6061   74 O    0 0 0
   6 B    1     1.3793     2.6064   78 O    0 0 0
   6 B    1     1.5502     2.9294   62 C    0 0 0
   6 B    1     2.3895     4.5155    2 B    0 0 0
   6 B    1     2.3895     4.5156    4 B    0 0 0
   6 B    1     2.5629     4.8433   64 C    0 0 0

   7 B    1     1.3795     2.6068   79 O    0 0 0
   7 B    1     1.3795     2.6070   81 O    0-1 0
   7 B    1     1.5513     2.9316   47 C    0 0 0
   7 B    1     2.3905     4.5174   11 B    0 0 0
   7 B    1     2.3905     4.5175    9 B    0-1 0
   7 B    1     2.5648     4.8468   45 C    0-1 0

   8 B    1     1.3795     2.6068   80 O    0 0 0
   8 B    1     1.3795     2.6070   82 O    0 0 0
   8 B    1     1.5513     2.9316   48 C    0 0 0
   8 B    1     2.3905     4.5174   12 B    0 0 0
   8 B    1     2.3905     4.5175   10 B    1 0 0
   8 B    1     2.5648     4.8468   46 C    0 0 0

   9 B    1     1.3795     2.6069   81 O    0 0 0
   9 B    1     1.3797     2.6072   83 O    1 1 0
   9 B    1     1.5516     2.9322   71 C    0 0 0
   9 B    1     2.3905     4.5175    7 B    0 1 0
   9 B    1     2.3911     4.5185   11 B    0 1 0
   9 B    1     2.5651     4.8473   69 C    1 1 0

  10 B    1     1.3795     2.6069   82 O   -1 0 0
  10 B    1     1.3797     2.6072   84 O    0 0 0
  10 B    1     1.5516     2.9322   72 C    0 0 0
  10 B    1     2.3905     4.5175    8 B   -1 0 0
  10 B    1     2.3911     4.5185   12 B   -1 0 0
  10 B    1     2.5651     4.8473   70 C    0 0 0

  11 B    1     1.3795     2.6068   79 O    0 0 0
  11 B    1     1.3796     2.6071   83 O    1 0 0
  11 B    1     1.5516     2.9322   59 C    0 0 0
  11 B    1     2.3905     4.5174    7 B    0 0 0
  11 B    1     2.3911     4.5185    9 B    0-1 0
  11 B    1     2.5651     4.8473   57 C    1 0 0

  12 B    1     1.3795     2.6068   80 O    0 0 0
  12 B    1     1.3796     2.6071   84 O    1 0 0
  12 B    1     1.5516     2.9322   60 C    0 0 0
  12 B    1     2.3905     4.5174    8 B    0 0 0
  12 B    1     2.3911     4.5185   10 B    1 0 0
  12 B    1     2.5651     4.8473   58 C    1 0 0

  13 H    1     1.0913     2.0623   39 C    0 0 0
  13 H    1     2.1472     4.0576   37 C    0 0 0
  13 H    1     2.1680     4.0969   45 C    0 0 0
  13 H    1     2.5202     4.7625   19 H    0 0 0
  13 H    1     2.5676     4.8520   75 O    0 0 0
  13 H    1     2.7321     5.1630    3 B    0 0 0

  14 H    1     1.0913     2.0623   40 C    0 0 0
  14 H    1     2.1472     4.0576   38 C    0 0 0
  14 H    1     2.1680     4.0969   46 C    0 0 0
  14 H    1     2.5202     4.7625   20 H    0 0 0
  14 H    1     2.5676     4.8520   76 O    0 0 0
  14 H    1     2.7321     5.1630    4 B    0 0 0

  15 H    1     1.0914     2.0625   41 C    0 0 0
  15 H    1     2.1493     4.0616   47 C    0 0 0
  15 H    1     2.1666     4.0942   43 C    0 0 0
  15 H    1     2.5198     4.7618   17 H    0 0 0
  15 H    1     2.5720     4.8604   79 O    0 0 0
  15 H    1     2.7362     5.1707    7 B    0 0 0

  16 H    1     1.0914     2.0625   42 C    0 0 0
  16 H    1     2.1493     4.0616   48 C    0 0 0
  16 H    1     2.1666     4.0942   44 C    0 0 0
  16 H    1     2.5198     4.7618   18 H    0 0 0
  16 H    1     2.5720     4.8604   80 O    0 0 0
  16 H    1     2.7362     5.1707    8 B    0 0 0

  17 H    1     1.0914     2.0624   43 C    0 0 0
  17 H    1     2.1471     4.0575   37 C    0-1 0
  17 H    1     2.1680     4.0970   41 C    0 0 0
  17 H    1     2.5198     4.7618   15 H    0 0 0
  17 H    1     2.5665     4.8500   77 O    0 0 0
  17 H    1     2.7315     5.1618    3 B    0-1 0

  18 H    1     1.0914     2.0624   44 C    0 0 0
  18 H    1     2.1471     4.0575   38 C    0 0 0
  18 H    1     2.1680     4.0970   42 C    0 0 0
  18 H    1     2.5198     4.7618   16 H    0 0 0
  18 H    1     2.5665     4.8500   78 O    0 0 0
  18 H    1     2.7315     5.1618    4 B    0 0 0

  19 H    1     1.0915     2.0626   45 C    0 0 0
  19 H    1     2.1490     4.0610   47 C    0 1 0
  19 H    1     2.1669     4.0948   39 C    0 0 0
  19 H    1     2.5202     4.7625   13 H    0 0 0
  19 H    1     2.5712     4.8588   81 O    0 0 0
  19 H    1     2.7351     5.1686    7 B    0 1 0

  20 H    1     1.0915     2.0626   46 C    0 0 0
  20 H    1     2.1490     4.0610   48 C    0 0 0
  20 H    1     2.1669     4.0948   40 C    0 0 0
  20 H    1     2.5202     4.7625   14 H    0 0 0
  20 H    1     2.5712     4.8588   82 O    0 0 0
  20 H    1     2.7351     5.1686    8 B    0 0 0

  21 H    1     1.0913     2.0623   51 C    0 0 0
  21 H    1     2.1469     4.0571   49 C   -1 0 0
  21 H    1     2.1680     4.0968   57 C    0 0 0
  21 H    1     2.5198     4.7617   27 H    0 0 0
  21 H    1     2.5670     4.8510   75 O    0 0 0
  21 H    1     2.7310     5.1609    1 B    0 0 0

  22 H    1     1.0913     2.0623   52 C    0 0 0
  22 H    1     2.1469     4.0571   50 C    0 1 0
  22 H    1     2.1680     4.0968   58 C    0 0 0
  22 H    1     2.5198     4.7617   28 H    0 0 0
  22 H    1     2.5670     4.8510   76 O    0 1 0
  22 H    1     2.7310     5.1609    2 B    0 1 0

  23 H    1     1.0914     2.0625   53 C    0 0 0
  23 H    1     2.1493     4.0617   59 C    0 0 0
  23 H    1     2.1664     4.0939   55 C    0 0 0
  23 H    1     2.5192     4.7606   25 H    0 0 0
  23 H    1     2.5735     4.8632   79 O    0 0 0
  23 H    1     2.7371     5.1723   11 B    0 0 0

  24 H    1     1.0914     2.0625   54 C    0 0 0
  24 H    1     2.1493     4.0617   60 C    0 0 0
  24 H    1     2.1664     4.0939   56 C    0 0 0
  24 H    1     2.5192     4.7606   26 H    0 0 0
  24 H    1     2.5735     4.8632   80 O    0 0 0
  24 H    1     2.7371     5.1723   12 B    0 0 0

  25 H    1     1.0914     2.0624   55 C    0 0 0
  25 H    1     2.1475     4.0581   49 C    0 0 0
  25 H    1     2.1679     4.0967   53 C    0 0 0
  25 H    1     2.5192     4.7606   23 H    0 0 0
  25 H    1     2.5675     4.8519   73 O    0 0 0
  25 H    1     2.7328     5.1643    1 B    1 0 0

  26 H    1     1.0914     2.0624   56 C    0 0 0
  26 H    1     2.1475     4.0581   50 C    1 1 0
  26 H    1     2.1679     4.0967   54 C    0 0 0
  26 H    1     2.5192     4.7606   24 H    0 0 0
  26 H    1     2.5675     4.8519   74 O    1 1 0
  26 H    1     2.7328     5.1643    2 B    1 1 0

  27 H    1     1.0914     2.0625   57 C    0 0 0
  27 H    1     2.1491     4.0612   59 C   -1 0 0
  27 H    1     2.1666     4.0942   51 C    0 0 0
  27 H    1     2.5198     4.7617   21 H    0 0 0
  27 H    1     2.5723     4.8609   83 O    0 0 0
  27 H    1     2.7355     5.1693   11 B   -1 0 0

  28 H    1     1.0914     2.0625   58 C    0 0 0
  28 H    1     2.1491     4.0612   60 C   -1 0 0
  28 H    1     2.1666     4.0942   52 C    0 0 0
  28 H    1     2.5198     4.7617   22 H    0 0 0
  28 H    1     2.5723     4.8609   84 O    0 0 0
  28 H    1     2.7355     5.1693   12 B   -1 0 0

  29 H    1     1.0914     2.0624   63 C    0 0 0
  29 H    1     2.1475     4.0582   61 C   -1-1 0
  29 H    1     2.1678     4.0966   69 C    0 0 0
  29 H    1     2.5200     4.7621   35 H    0 0 0
  29 H    1     2.5667     4.8503   77 O    0 0 0
  29 H    1     2.7315     5.1618    5 B    0 0 0

  30 H    1     1.0914     2.0624   64 C    0 0 0
  30 H    1     2.1475     4.0582   62 C    0 0 0
  30 H    1     2.1678     4.0966   70 C    0 0 0
  30 H    1     2.5200     4.7621   36 H    0 0 0
  30 H    1     2.5667     4.8503   78 O    0 0 0
  30 H    1     2.7315     5.1618    6 B    0 0 0

  31 H    1     1.0913     2.0623   65 C    0 0 0
  31 H    1     2.1487     4.0605   71 C    0 0 0
  31 H    1     2.1667     4.0945   67 C    0 0 0
  31 H    1     2.5197     4.7616   33 H    0 0 0
  31 H    1     2.5723     4.8610   81 O    0 0 0
  31 H    1     2.7359     5.1701    9 B    0 0 0

  32 H    1     1.0913     2.0623   66 C    0 0 0
  32 H    1     2.1487     4.0605   72 C    0 0 0
  32 H    1     2.1667     4.0945   68 C    0 0 0
  32 H    1     2.5197     4.7616   34 H    0 0 0
  32 H    1     2.5723     4.8610   82 O   -1 0 0
  32 H    1     2.7359     5.1701   10 B    0 0 0

  33 H    1     1.0915     2.0626   67 C    0 0 0
  33 H    1     2.1479     4.0589   61 C    0 0 0
  33 H    1     2.1679     4.0968   65 C    0 0 0
  33 H    1     2.5197     4.7616   31 H    0 0 0
  33 H    1     2.5677     4.8522   73 O    0 0 0
  33 H    1     2.7331     5.1648    5 B    1 1 0

  34 H    1     1.0915     2.0626   68 C    0 0 0
  34 H    1     2.1479     4.0589   62 C    0 0 0
  34 H    1     2.1679     4.0968   66 C    0 0 0
  34 H    1     2.5197     4.7616   32 H    0 0 0
  34 H    1     2.5677     4.8522   74 O    0 0 0
  34 H    1     2.7331     5.1648    6 B    0 0 0

  35 H    1     1.0914     2.0624   69 C    0 0 0
  35 H    1     2.1486     4.0602   71 C   -1-1 0
  35 H    1     2.1668     4.0947   63 C    0 0 0
  35 H    1     2.5200     4.7621   29 H    0 0 0
  35 H    1     2.5717     4.8598   83 O    0 0 0
  35 H    1     2.7349     5.1682    9 B   -1-1 0

  36 H    1     1.0914     2.0624   70 C    0 0 0
  36 H    1     2.1486     4.0602   72 C    0 0 0
  36 H    1     2.1668     4.0947   64 C    0 0 0
  36 H    1     2.5200     4.7621   30 H    0 0 0
  36 H    1     2.5717     4.8598   84 O    0 0 0
  36 H    1     2.7349     5.1682   10 B    0 0 0

  37 C    1     1.4020     2.6495   43 C    0 1 0
  37 C    1     1.4021     2.6495   39 C    0 0 0
  37 C    1     1.5504     2.9298    3 B    0 0 0
  37 C    1     2.1471     4.0575   17 H    0 1 0
  37 C    1     2.1472     4.0576   13 H    0 0 0
  37 C    1     2.4246     4.5817   41 C    0 1 0

  38 C    1     1.4020     2.6495   44 C    0 0 0
  38 C    1     1.4021     2.6495   40 C    0 0 0
  38 C    1     1.5504     2.9298    4 B    0 0 0
  38 C    1     2.1471     4.0575   18 H    0 0 0
  38 C    1     2.1472     4.0576   14 H    0 0 0
  38 C    1     2.4246     4.5817   42 C    0 0 0

  39 C    1     1.0913     2.0623   13 H    0 0 0
  39 C    1     1.3914     2.6294   45 C    0 0 0
  39 C    1     1.4021     2.6495   37 C    0 0 0
  39 C    1     2.1669     4.0948   19 H    0 0 0
  39 C    1     2.4177     4.5688   43 C    0 1 0
  39 C    1     2.4250     4.5825   47 C    0 1 0

  40 C    1     1.0913     2.0623   14 H    0 0 0
  40 C    1     1.3914     2.6294   46 C    0 0 0
  40 C    1     1.4021     2.6495   38 C    0 0 0
  40 C    1     2.1669     4.0948   20 H    0 0 0
  40 C    1     2.4177     4.5688   44 C    0 0 0
  40 C    1     2.4250     4.5825   48 C    0 0 0

  41 C    1     1.0914     2.0625   15 H    0 0 0
  41 C    1     1.3914     2.6293   43 C    0 0 0
  41 C    1     1.4026     2.6505   47 C    0 0 0
  41 C    1     2.1680     4.0970   17 H    0 0 0
  41 C    1     2.4182     4.5697   45 C    0-1 0
  41 C    1     2.4246     4.5817   37 C    0-1 0

  42 C    1     1.0914     2.0625   16 H    0 0 0
  42 C    1     1.3914     2.6293   44 C    0 0 0
  42 C    1     1.4026     2.6505   48 C    0 0 0
  42 C    1     2.1680     4.0970   18 H    0 0 0
  42 C    1     2.4182     4.5697   46 C    0 0 0
  42 C    1     2.4246     4.5817   38 C    0 0 0

  43 C    1     1.0914     2.0624   17 H    0 0 0
  43 C    1     1.3914     2.6293   41 C    0 0 0
  43 C    1     1.4020     2.6495   37 C    0-1 0
  43 C    1     2.1666     4.0942   15 H    0 0 0
  43 C    1     2.4177     4.5688   39 C    0-1 0
  43 C    1     2.4250     4.5826   47 C    0 0 0

  44 C    1     1.0914     2.0624   18 H    0 0 0
  44 C    1     1.3914     2.6293   42 C    0 0 0
  44 C    1     1.4020     2.6495   38 C    0 0 0
  44 C    1     2.1666     4.0942   16 H    0 0 0
  44 C    1     2.4177     4.5688   40 C    0 0 0
  44 C    1     2.4250     4.5826   48 C    0 0 0

  45 C    1     1.0915     2.0626   19 H    0 0 0
  45 C    1     1.3914     2.6294   39 C    0 0 0
  45 C    1     1.4025     2.6504   47 C    0 1 0
  45 C    1     2.1680     4.0969   13 H    0 0 0
  45 C    1     2.4182     4.5697   41 C    0 1 0
  45 C    1     2.4246     4.5818   37 C    0 0 0

  46 C    1     1.0915     2.0626   20 H    0 0 0
  46 C    1     1.3914     2.6294   40 C    0 0 0
  46 C    1     1.4025     2.6504   48 C    0 0 0
  46 C    1     2.1680     4.0969   14 H    0 0 0
  46 C    1     2.4182     4.5697   42 C    0 0 0
  46 C    1     2.4246     4.5818   38 C    0 0 0

  47 C    1     1.4025     2.6504   45 C    0-1 0
  47 C    1     1.4026     2.6505   41 C    0 0 0
  47 C    1     1.5513     2.9316    7 B    0 0 0
  47 C    1     2.1490     4.0610   19 H    0-1 0
  47 C    1     2.1493     4.0616   15 H    0 0 0
  47 C    1     2.4250     4.5825   39 C    0-1 0

  48 C    1     1.4025     2.6504   46 C    0 0 0
  48 C    1     1.4026     2.6505   42 C    0 0 0
  48 C    1     1.5513     2.9316    8 B    0 0 0
  48 C    1     2.1490     4.0610   20 H    0 0 0
  48 C    1     2.1493     4.0616   16 H    0 0 0
  48 C    1     2.4250     4.5825   40 C    0 0 0

  49 C    1     1.4020     2.6494   51 C    1 0 0
  49 C    1     1.4021     2.6495   55 C    0 0 0
  49 C    1     1.5503     2.9297    1 B    1 0 0
  49 C    1     2.1469     4.0571   21 H    1 0 0
  49 C    1     2.1475     4.0581   25 H    0 0 0
  49 C    1     2.4246     4.5818   53 C    0 0 0

  50 C    1     1.4020     2.6494   52 C    0-1 0
  50 C    1     1.4021     2.6495   56 C   -1-1 0
  50 C    1     1.5503     2.9297    2 B    0 0 0
  50 C    1     2.1469     4.0571   22 H    0-1 0
  50 C    1     2.1475     4.0581   26 H   -1-1 0
  50 C    1     2.4246     4.5818   54 C   -1-1 0

  51 C    1     1.0913     2.0623   21 H    0 0 0
  51 C    1     1.3914     2.6293   57 C    0 0 0
  51 C    1     1.4020     2.6494   49 C   -1 0 0
  51 C    1     2.1666     4.0942   27 H    0 0 0
  51 C    1     2.4175     4.5684   55 C   -1 0 0
  51 C    1     2.4251     4.5828   59 C   -1 0 0

  52 C    1     1.0913     2.0623   22 H    0 0 0
  52 C    1     1.3914     2.6293   58 C    0 0 0
  52 C    1     1.4020     2.6494   50 C    0 1 0
  52 C    1     2.1666     4.0942   28 H    0 0 0
  52 C    1     2.4175     4.5684   56 C   -1 0 0
  52 C    1     2.4251     4.5828   60 C   -1 0 0

  53 C    1     1.0914     2.0625   23 H    0 0 0
  53 C    1     1.3915     2.6295   55 C    0 0 0
  53 C    1     1.4026     2.6505   59 C    0 0 0
  53 C    1     2.1679     4.0967   25 H    0 0 0
  53 C    1     2.4179     4.5691   57 C    1 0 0
  53 C    1     2.4246     4.5818   49 C    0 0 0

  54 C    1     1.0914     2.0625   24 H    0 0 0
  54 C    1     1.3915     2.6295   56 C    0 0 0
  54 C    1     1.4026     2.6505   60 C    0 0 0
  54 C    1     2.1679     4.0967   26 H    0 0 0
  54 C    1     2.4179     4.5691   58 C    1 0 0
  54 C    1     2.4246     4.5818   50 C    1 1 0

  55 C    1     1.0914     2.0624   25 H    0 0 0
  55 C    1     1.3915     2.6295   53 C    0 0 0
  55 C    1     1.4021     2.6495   49 C    0 0 0
  55 C    1     2.1664     4.0939   23 H    0 0 0
  55 C    1     2.4175     4.5684   51 C    1 0 0
  55 C    1     2.4253     4.5832   59 C    0 0 0

  56 C    1     1.0914     2.0624   26 H    0 0 0
  56 C    1     1.3915     2.6295   54 C    0 0 0
  56 C    1     1.4021     2.6495   50 C    1 1 0
  56 C    1     2.1664     4.0939   24 H    0 0 0
  56 C    1     2.4175     4.5684   52 C    1 0 0
  56 C    1     2.4253     4.5832   60 C    0 0 0

  57 C    1     1.0914     2.0625   27 H    0 0 0
  57 C    1     1.3914     2.6293   51 C    0 0 0
  57 C    1     1.4025     2.6504   59 C   -1 0 0
  57 C    1     2.1680     4.0968   21 H    0 0 0
  57 C    1     2.4179     4.5691   53 C   -1 0 0
  57 C    1     2.4247     4.5819   49 C   -1 0 0

  58 C    1     1.0914     2.0625   28 H    0 0 0
  58 C    1     1.3914     2.6293   52 C    0 0 0
  58 C    1     1.4025     2.6504   60 C   -1 0 0
  58 C    1     2.1680     4.0968   22 H    0 0 0
  58 C    1     2.4179     4.5691   54 C   -1 0 0
  58 C    1     2.4247     4.5819   50 C    0 1 0

  59 C    1     1.4025     2.6504   57 C    1 0 0
  59 C    1     1.4026     2.6505   53 C    0 0 0
  59 C    1     1.5516     2.9322   11 B    0 0 0
  59 C    1     2.1491     4.0612   27 H    1 0 0
  59 C    1     2.1493     4.0617   23 H    0 0 0
  59 C    1     2.4251     4.5828   51 C    1 0 0

  60 C    1     1.4025     2.6504   58 C    1 0 0
  60 C    1     1.4026     2.6505   54 C    0 0 0
  60 C    1     1.5516     2.9322   12 B    0 0 0
  60 C    1     2.1491     4.0612   28 H    1 0 0
  60 C    1     2.1493     4.0617   24 H    0 0 0
  60 C    1     2.4251     4.5828   52 C    1 0 0

  61 C    1     1.4021     2.6496   63 C    1 1 0
  61 C    1     1.4021     2.6497   67 C    0 0 0
  61 C    1     1.5502     2.9294    5 B    1 1 0
  61 C    1     2.1475     4.0582   29 H    1 1 0
  61 C    1     2.1479     4.0589   33 H    0 0 0
  61 C    1     2.4244     4.5814   65 C    0 0 0

  62 C    1     1.4021     2.6496   64 C    0 0 0
  62 C    1     1.4021     2.6497   68 C    0 0 0
  62 C    1     1.5502     2.9294    6 B    0 0 0
  62 C    1     2.1475     4.0582   30 H    0 0 0
  62 C    1     2.1479     4.0589   34 H    0 0 0
  62 C    1     2.4244     4.5814   66 C    0 0 0

  63 C    1     1.0914     2.0624   29 H    0 0 0
  63 C    1     1.3914     2.6293   69 C    0 0 0
  63 C    1     1.4021     2.6496   61 C   -1-1 0
  63 C    1     2.1668     4.0947   35 H    0 0 0
  63 C    1     2.4179     4.5692   67 C   -1-1 0
  63 C    1     2.4251     4.5827   71 C   -1-1 0

  64 C    1     1.0914     2.0624   30 H    0 0 0
  64 C    1     1.3914     2.6293   70 C    0 0 0
  64 C    1     1.4021     2.6496   62 C    0 0 0
  64 C    1     2.1668     4.0947   36 H    0 0 0
  64 C    1     2.4179     4.5692   68 C    0 0 0
  64 C    1     2.4251     4.5827   72 C    0 0 0

  65 C    1     1.0913     2.0623   31 H    0 0 0
  65 C    1     1.3914     2.6294   67 C    0 0 0
  65 C    1     1.4025     2.6504   71 C    0 0 0
  65 C    1     2.1679     4.0968   33 H    0 0 0
  65 C    1     2.4178     4.5690   69 C    1 1 0
  65 C    1     2.4244     4.5814   61 C    0 0 0

  66 C    1     1.0913     2.0623   32 H    0 0 0
  66 C    1     1.3914     2.6294   68 C    0 0 0
  66 C    1     1.4025     2.6504   72 C    0 0 0
  66 C    1     2.1679     4.0968   34 H    0 0 0
  66 C    1     2.4178     4.5690   70 C    0 0 0
  66 C    1     2.4244     4.5814   62 C    0 0 0

  67 C    1     1.0915     2.0626   33 H    0 0 0
  67 C    1     1.3914     2.6294   65 C    0 0 0
  67 C    1     1.4021     2.6497   61 C    0 0 0
  67 C    1     2.1667     4.0945   31 H    0 0 0
  67 C    1     2.4179     4.5692   63 C    1 1 0
  67 C    1     2.4253     4.5832   71 C    0 0 0

  68 C    1     1.0915     2.0626   34 H    0 0 0
  68 C    1     1.3914     2.6294   66 C    0 0 0
  68 C    1     1.4021     2.6497   62 C    0 0 0
  68 C    1     2.1667     4.0945   32 H    0 0 0
  68 C    1     2.4179     4.5692   64 C    0 0 0
  68 C    1     2.4253     4.5832   72 C    0 0 0

  69 C    1     1.0914     2.0624   35 H    0 0 0
  69 C    1     1.3914     2.6293   63 C    0 0 0
  69 C    1     1.4025     2.6503   71 C   -1-1 0
  69 C    1     2.1678     4.0966   29 H    0 0 0
  69 C    1     2.4178     4.5690   65 C   -1-1 0
  69 C    1     2.4245     4.5817   61 C   -1-1 0

  70 C    1     1.0914     2.0624   36 H    0 0 0
  70 C    1     1.3914     2.6293   64 C    0 0 0
  70 C    1     1.4025     2.6503   72 C    0 0 0
  70 C    1     2.1678     4.0966   30 H    0 0 0
  70 C    1     2.4178     4.5690   66 C    0 0 0
  70 C    1     2.4245     4.5817   62 C    0 0 0

  71 C    1     1.4025     2.6503   69 C    1 1 0
  71 C    1     1.4025     2.6504   65 C    0 0 0
  71 C    1     1.5516     2.9322    9 B    0 0 0
  71 C    1     2.1486     4.0602   35 H    1 1 0
  71 C    1     2.1487     4.0605   31 H    0 0 0
  71 C    1     2.4251     4.5827   63 C    1 1 0

  72 C    1     1.4025     2.6503   70 C    0 0 0
  72 C    1     1.4025     2.6504   66 C    0 0 0
  72 C    1     1.5516     2.9322   10 B    0 0 0
  72 C    1     2.1486     4.0602   36 H    0 0 0
  72 C    1     2.1487     4.0605   32 H    0 0 0
  72 C    1     2.4251     4.5827   64 C    0 0 0

  73 O    1     1.3791     2.6061    1 B    1 0 0
  73 O    1     1.3791     2.6061    5 B    1 1 0
  73 O    1     2.3880     4.5126   75 O    1 0 0
  73 O    1     2.3882     4.5130   77 O    1 1 0
  73 O    1     2.5383     4.7966   61 C    0 0 0
  73 O    1     2.5384     4.7968   49 C    0 0 0

  74 O    1     1.3791     2.6061    2 B    0 0 0
  74 O    1     1.3791     2.6061    6 B    0 0 0
  74 O    1     2.3880     4.5126   76 O    0 0 0
  74 O    1     2.3882     4.5130   78 O    0 0 0
  74 O    1     2.5383     4.7966   62 C    0 0 0
  74 O    1     2.5384     4.7968   50 C    0 0 0

  75 O    1     1.3793     2.6065    1 B    0 0 0
  75 O    1     1.3793     2.6065    3 B    0 0 0
  75 O    1     2.3880     4.5126   73 O   -1 0 0
  75 O    1     2.3882     4.5131   77 O    0 1 0
  75 O    1     2.5391     4.7981   37 C    0 0 0
  75 O    1     2.5395     4.7990   49 C   -1 0 0

  76 O    1     1.3793     2.6065    2 B    0 0 0
  76 O    1     1.3793     2.6065    4 B    0 0 0
  76 O    1     2.3880     4.5126   74 O    0 0 0
  76 O    1     2.3882     4.5131   78 O    0 0 0
  76 O    1     2.5391     4.7981   38 C    0 0 0
  76 O    1     2.5395     4.7990   50 C    0 0 0

  77 O    1     1.3793     2.6064    5 B    0 0 0
  77 O    1     1.3793     2.6065    3 B    0-1 0
  77 O    1     2.3882     4.5130   73 O   -1-1 0
  77 O    1     2.3882     4.5131   75 O    0-1 0
  77 O    1     2.5390     4.7980   37 C    0-1 0
  77 O    1     2.5391     4.7982   61 C   -1-1 0

  78 O    1     1.3793     2.6064    6 B    0 0 0
  78 O    1     1.3793     2.6065    4 B    0 0 0
  78 O    1     2.3882     4.5130   74 O    0 0 0
  78 O    1     2.3882     4.5131   76 O    0 0 0
  78 O    1     2.5390     4.7980   38 C    0 0 0
  78 O    1     2.5391     4.7982   62 C    0 0 0

  79 O    1     1.3795     2.6068   11 B    0 0 0
  79 O    1     1.3795     2.6068    7 B    0 0 0
  79 O    1     2.3880     4.5126   83 O    1 0 0
  79 O    1     2.3884     4.5134   81 O    0-1 0
  79 O    1     2.5400     4.7998   47 C    0 0 0
  79 O    1     2.5403     4.8005   59 C    0 0 0

  80 O    1     1.3795     2.6068   12 B    0 0 0
  80 O    1     1.3795     2.6068    8 B    0 0 0
  80 O    1     2.3880     4.5126   84 O    1 0 0
  80 O    1     2.3884     4.5134   82 O    0 0 0
  80 O    1     2.5400     4.7998   48 C    0 0 0
  80 O    1     2.5403     4.8005   60 C    0 0 0

  81 O    1     1.3795     2.6069    9 B    0 0 0
  81 O    1     1.3795     2.6070    7 B    0 1 0
  81 O    1     2.3881     4.5128   83 O    1 1 0
  81 O    1     2.3884     4.5134   79 O    0 1 0
  81 O    1     2.5404     4.8006   47 C    0 1 0
  81 O    1     2.5405     4.8008   71 C    0 0 0

  82 O    1     1.3795     2.6069   10 B    1 0 0
  82 O    1     1.3795     2.6070    8 B    0 0 0
  82 O    1     2.3881     4.5128   84 O    1 0 0
  82 O    1     2.3884     4.5134   80 O    0 0 0
  82 O    1     2.5404     4.8006   48 C    0 0 0
  82 O    1     2.5405     4.8008   72 C    1 0 0

  83 O    1     1.3796     2.6071   11 B   -1 0 0
  83 O    1     1.3797     2.6072    9 B   -1-1 0
  83 O    1     2.3880     4.5126   79 O   -1 0 0
  83 O    1     2.3881     4.5128   81 O   -1-1 0
  83 O    1     2.5409     4.8016   71 C   -1-1 0
  83 O    1     2.5410     4.8019   59 C   -1 0 0

  84 O    1     1.3796     2.6071   12 B   -1 0 0
  84 O    1     1.3797     2.6072   10 B    0 0 0
  84 O    1     2.3880     4.5126   80 O   -1 0 0
  84 O    1     2.3881     4.5128   82 O   -1 0 0
  84 O    1     2.5409     4.8016   72 C    0 0 0
  84 O    1     2.5410     4.8019   60 C   -1 0 0


 SYMMETRY ALLOWED INTERNAL DEGREE(S) OF FREEDOM: 249
 TTTTTTTTTTTTTTTTTTTTTTTTTTTTTT SYMM        TELAPSE        2.58 TCPU        2.57
 TTTTTTTTTTTTTTTTTTTTTTTTTTTTTT INT_SCREEN  TELAPSE        2.78 TCPU        2.78

 DFT PARAMETERS

     ATOM       ELECTRONS   NET CHARGE   R(ANGSTROM)
   1   5  B       5.0000      0.0000     0.89000000
  13   1  H       1.0000      0.0000     1.11000000
  37   6  C       6.0000      0.0000     0.77000000
  73   8  O       8.0000      0.0000     0.74000000

 SIZE OF GRID=    2626323
 TTTTTTTTTTTTTTTTTTTTTTTTTTTTTT MAKE_GRID2  TELAPSE       21.71 TCPU       21.68
 BECKE WEIGHT FUNCTION
 RADSAFE =     2.00
 TOLERANCES - DENSITY:10**- 6; POTENTIAL:10**- 9; GRID WGT:10**-14

 RADIAL INTEGRATION  - INTERVALS (POINTS,UPPER LIMIT):            1( 75,  4.0*R)

 ANGULAR INTEGRATION - INTERVALS (ACCURACY LEVEL [N. POINTS] UPPER LIMIT):
  1(  4[  86]   0.2)  2(  8[ 194]   0.5)  3( 12[ 350]   0.9)  4( 16[ 974]   3.5)
  5( 12[ 350]9999.0)
 TTTTTTTTTTTTTTTTTTTTTTTTTTTTTT INT_CALC    TELAPSE       21.96 TCPU       21.93
 EEEEEEEEEE INT_CALC TERMINATION  DATE 19 02 2026 TIME 20:24:01.7

 *******************************************************************************
 cof-1_z40_L030_serr                                                             
 CRYSTAL - SCF - TYPE OF CALCULATION :  RESTRICTED CLOSED SHELL
 *******************************************************************************

 CAPPA:IS1  2;IS2  2;IS3  8; K PTS MONK NET  20; SYMMOPS:K SPACE   2;G SPACE   1

 TTTTTTTTTTTTTTTTTTTTTTTTTTTTTT SDIK        TELAPSE       23.96 TCPU       46.62

 AAAAAAAAAAAAAAAAAAAAAAAAAAAAAAAAAAAAAAAAAAAAAAAAAAAAAAAAAAAAAAAAAAAAAAAAAAAAAAA
         ATOMIC WAVEFUNCTION(S)


 NUCLEAR CHARGE  5.0  SYMMETRY SPECIES            S    P
 N. ELECTRONS    5.0  NUMBER OF PRIMITIVE GTOS    8    4
                      NUMBER OF CONTRACTED GTOS   4    2
                      NUMBER OF CLOSED SHELLS     2    0
                      OPEN SHELL OCCUPATION       0    1

  ZNUC  SCFIT    TOTAL HF ENERGY   KINETIC ENERGY   VIRIAL THEOREM ACCURACY
   5.0    11    -2.451164084E+01  2.462155050E+01 -1.995536038E+00  1.5E-06

 NUCLEAR CHARGE  1.0  SYMMETRY SPECIES            S
 N. ELECTRONS    1.0  NUMBER OF PRIMITIVE GTOS    4
                      NUMBER OF CONTRACTED GTOS   2
                      NUMBER OF CLOSED SHELLS     0
                      OPEN SHELL OCCUPATION       1

  ZNUC  SCFIT    TOTAL HF ENERGY   KINETIC ENERGY   VIRIAL THEOREM ACCURACY
   1.0     1    -4.977266687E-01  5.190767460E-01 -1.958869132E+00  0.0E+00

 NUCLEAR CHARGE  6.0  SYMMETRY SPECIES            S    P
 N. ELECTRONS    6.0  NUMBER OF PRIMITIVE GTOS    8    4
                      NUMBER OF CONTRACTED GTOS   4    2
                      NUMBER OF CLOSED SHELLS     2    0
                      OPEN SHELL OCCUPATION       0    2

  ZNUC  SCFIT    TOTAL HF ENERGY   KINETIC ENERGY   VIRIAL THEOREM ACCURACY
   6.0     9    -3.766704647E+01  3.775180683E+01 -1.997754800E+00  1.1E-06

 NUCLEAR CHARGE  8.0  SYMMETRY SPECIES            S    P
 N. ELECTRONS    8.0  NUMBER OF PRIMITIVE GTOS    8    4
                      NUMBER OF CONTRACTED GTOS   4    2
                      NUMBER OF CLOSED SHELLS     2    0
                      OPEN SHELL OCCUPATION       0    4

  ZNUC  SCFIT    TOTAL HF ENERGY   KINETIC ENERGY   VIRIAL THEOREM ACCURACY
   8.0    12    -7.477373220E+01  7.477365593E+01 -2.000001020E+00  3.8E-06

 AAAAAAAAAAAAAAAAAAAAAAAAAAAAAAAAAAAAAAAAAAAAAAAAAAAAAAAAAAAAAAAAAAAAAAAAAAAAAAA

 CHARGE NORMALIZATION FACTOR   1.00000000
 TOTAL ATOMIC CHARGES:
   5.0000000   5.0000000   5.0000000   5.0000000   5.0000000   5.0000000
   5.0000000   5.0000000   5.0000000   5.0000000   5.0000000   5.0000000
   1.0000000   1.0000000   1.0000000   1.0000000   1.0000000   1.0000000
   1.0000000   1.0000000   1.0000000   1.0000000   1.0000000   1.0000000
   1.0000000   1.0000000   1.0000000   1.0000000   1.0000000   1.0000000
   1.0000000   1.0000000   1.0000000   1.0000000   1.0000000   1.0000000
   6.0000000   6.0000000   6.0000000   6.0000000   6.0000000   6.0000000
   6.0000000   6.0000000   6.0000000   6.0000000   6.0000000   6.0000000
   6.0000000   6.0000000   6.0000000   6.0000000   6.0000000   6.0000000
   6.0000000   6.0000000   6.0000000   6.0000000   6.0000000   6.0000000
   6.0000000   6.0000000   6.0000000   6.0000000   6.0000000   6.0000000
   6.0000000   6.0000000   6.0000000   6.0000000   6.0000000   6.0000000
   8.0000000   8.0000000   8.0000000   8.0000000   8.0000000   8.0000000
   8.0000000   8.0000000   8.0000000   8.0000000   8.0000000   8.0000000
 TTTTTTTTTTTTTTTTTTTTTTTTTTTTTT MOQGAD      TELAPSE       24.05 TCPU       49.08
 TTTTTTTTTTTTTTTTTTTTTTTTTTTTTT SHELLXN     TELAPSE       39.22 TCPU      533.48
 TTTTTTTTTTTTTTTTTTTTTTTTTTTTTT MONMO3      TELAPSE       39.78 TCPU      551.31
 NUMERICALLY INTEGRATED DENSITY    395.9999927371
 TTTTTTTTTTTTTTTTTTTTTTTTTTTTTT NUMDFT      TELAPSE       41.21 TCPU      596.87
 CYC   0 ETOT(AU) -2.591913194212E+03 DETOT -2.59E+03 tst  0.00E+00 PX  1.00E+00
 TTTTTTTTTTTTTTTTTTTTTTTTTTTTTT DIIS        TELAPSE       41.31 TCPU      600.26
 TTTTTTTTTTTTTTTTTTTTTTTTTTTTTT FDIK        TELAPSE       43.15 TCPU      658.96
 INSULATING STATE
 TOP OF VALENCE BANDS -    BAND    198; K    3; EIG -3.1216584E-01 AU
 TOP OF VALENCE BANDS -    BAND    198; K    1; EIG -3.1220673E-01 AU
 BOTTOM OF VIRTUAL BANDS - BAND    199; K    1; EIG -1.5872528E-01 AU
 INDIRECT ENERGY BAND GAP:   4.1753 eV
 TTTTTTTTTTTTTTTTTTTTTTTTTTTTTT PDIG        TELAPSE       44.69 TCPU      665.87
 CHARGE NORMALIZATION FACTOR   1.00000000
 TOTAL ATOMIC CHARGES:
   4.1631143   4.1458532   4.1604926   4.1659946   4.1607376   4.1662563
   4.1658441   4.1603500   4.1656288   4.1601393   4.1455365   4.1626982
   0.7852180   0.7852720   0.7853880   0.7853335   0.7849397   0.7850781
   0.7851972   0.7850604   0.7854765   0.7857614   0.7859254   0.7856438
   0.7854659   0.7857517   0.7858890   0.7856059   0.7849422   0.7850803
   0.7852621   0.7851245   0.7851703   0.7852232   0.7853811   0.7853268
   6.0436047   6.0436093   6.2661322   6.2658453   6.2658106   6.2660944
   6.2651798   6.2647647   6.2647075   6.2651232   6.0428799   6.0428699
   6.0438838   6.0494835   6.2655447   6.2653788   6.2654544   6.2656179
   6.2654505   6.2652885   6.2654629   6.2656276   6.0482465   6.0426837
   6.0439565   6.0439726   6.2649509   6.2645296   6.2650761   6.2654915
   6.2657630   6.2654689   6.2660818   6.2663738   6.0424174   6.0423946
   8.6933827   8.6939401   8.6934897   8.6940452   8.6966912   8.6909449
   8.6943611   8.6938102   8.6913522   8.6970802   8.6945315   8.6939878
 TTTTTTTTTTTTTTTTTTTTTTTTTTTTTT MOQGAD      TELAPSE       44.78 TCPU      665.97
 TTTTTTTTTTTTTTTTTTTTTTTTTTTTTT SHELLXN     TELAPSE       60.55 TCPU     1168.79
 TTTTTTTTTTTTTTTTTTTTTTTTTTTTTT MONMO3      TELAPSE       61.11 TCPU     1186.60
 NUMERICALLY INTEGRATED DENSITY    395.9999970616
 TTTTTTTTTTTTTTTTTTTTTTTTTTTTTT NUMDFT      TELAPSE       62.55 TCPU     1232.77
 CYC   1 ETOT(AU) -2.577637423233E+03 DETOT  1.43E+01 tst  0.00E+00 PX  1.00E+00
 TTTTTTTTTTTTTTTTTTTTTTTTTTTTTT DIIS        TELAPSE       62.69 TCPU     1237.07
 DIIS TEST: 0.22110E+01 AT SCF   CYCLE   1 - MIX   30 %
 TTTTTTTTTTTTTTTTTTTTTTTTTTTTTT FDIK        TELAPSE       64.55 TCPU     1296.60
 INSULATING STATE
 TOP OF VALENCE BANDS -    BAND    198; K    1; EIG -2.2104082E-01 AU
 BOTTOM OF VIRTUAL BANDS - BAND    199; K    1; EIG -8.0188812E-02 AU
 DIRECT ENERGY BAND GAP:   3.8328 eV
 TTTTTTTTTTTTTTTTTTTTTTTTTTTTTT PDIG        TELAPSE       66.07 TCPU     1303.50
 CHARGE NORMALIZATION FACTOR   1.00000000
 TOTAL ATOMIC CHARGES:
   4.6718725   4.6979010   4.7011800   4.7055193   4.7011577   4.7055766
   4.7057696   4.7015058   4.7057394   4.7014908   4.6981932   4.6719088
   0.9124216   0.9072599   0.9073830   0.9124322   0.9177511   0.9155957
   0.9156426   0.9177748   0.9122600   0.9030757   0.9030907   0.9123922
   0.9122446   0.9030518   0.9030805   0.9123551   0.9177321   0.9155848
   0.9157110   0.9178462   0.9123571   0.9072140   0.9073840   0.9124232
   5.8672712   5.8645985   6.1451610   6.1024807   6.1029148   6.1455932
   6.1379925   6.1467734   6.1474047   6.1388228   5.8673084   5.8700112
   5.8484411   5.9118680   6.1306726   6.1469920   6.1477988   6.1313871
   6.1308644   6.1471608   6.1477174   6.1313117   5.9151554   5.8515605
   5.8671934   5.8645201   6.1380544   6.1468496   6.1472926   6.1387136
   6.1453918   6.1026651   6.1026744   6.1453258   5.8675017   5.8702217
   8.3326903   8.3308376   8.3330581   8.3311979   8.3544109   8.3405321
   8.3307266   8.3325038   8.3402416   8.3542622   8.3311218   8.3328721
 TTTTTTTTTTTTTTTTTTTTTTTTTTTTTT MOQGAD      TELAPSE       66.16 TCPU     1303.59
 TTTTTTTTTTTTTTTTTTTTTTTTTTTTTT SHELLXN     TELAPSE       81.93 TCPU     1806.36
 TTTTTTTTTTTTTTTTTTTTTTTTTTTTTT MONMO3      TELAPSE       82.49 TCPU     1824.17
 NUMERICALLY INTEGRATED DENSITY    396.0000038919
 TTTTTTTTTTTTTTTTTTTTTTTTTTTTTT NUMDFT      TELAPSE       83.93 TCPU     1870.23
 CYC   2 ETOT(AU) -2.578025899072E+03 DETOT -3.88E-01 tst  3.88E-03 PX  1.59E-01
 TTTTTTTTTTTTTTTTTTTTTTTTTTTTTT DIIS        TELAPSE       84.08 TCPU     1875.15
 DIIS TEST: 0.91819E+00 AT SCF   CYCLE   2 - DIIS ACTIVE - HISTORY:     2 CYCLES
 TTTTTTTTTTTTTTTTTTTTTTTTTTTTTT FDIK        TELAPSE       85.95 TCPU     1934.73
 INSULATING STATE
 TOP OF VALENCE BANDS -    BAND    198; K    1; EIG -2.3486666E-01 AU
 BOTTOM OF VIRTUAL BANDS - BAND    199; K    1; EIG -7.6855809E-02 AU
 DIRECT ENERGY BAND GAP:   4.2997 eV
 TTTTTTTTTTTTTTTTTTTTTTTTTTTTTT PDIG        TELAPSE       87.48 TCPU     1941.63
 CHARGE NORMALIZATION FACTOR   1.00000000
 TOTAL ATOMIC CHARGES:
   4.4848602   4.4822612   4.4939875   4.5024507   4.4940851   4.5026137
   4.5021172   4.4935494   4.5019535   4.4933782   4.4816725   4.4843045
   0.8932637   0.8811382   0.8812081   0.8935015   0.8917230   0.8935904
   0.8937148   0.8917785   0.8878170   0.8850591   0.8854379   0.8879115
   0.8878459   0.8850853   0.8853804   0.8878357   0.8917075   0.8935943
   0.8937611   0.8918476   0.8932563   0.8811642   0.8811472   0.8934481
   5.8856813   5.8956178   6.1555965   6.1684259   6.1679409   6.1551604
   6.1635106   6.1541086   6.1533922   6.1625390   5.8944669   5.8844746
   5.9163809   5.8952909   6.1656526   6.1561073   6.1554794   6.1653187
   6.1657230   6.1561586   6.1554126   6.1652768   5.8936221   5.9151325
   5.8859649   5.8958867   6.1634610   6.1540510   6.1535865   6.1626601
   6.1555069   6.1682856   6.1679884   6.1552091   5.8941437   5.8841509
   8.5156018   8.5133651   8.5157528   8.5135399   8.5151802   8.5076975
   8.5134966   8.5158866   8.5078823   8.5150238   8.5136727   8.5160846
 TTTTTTTTTTTTTTTTTTTTTTTTTTTTTT MOQGAD      TELAPSE       87.57 TCPU     1941.72
 TTTTTTTTTTTTTTTTTTTTTTTTTTTTTT SHELLXN     TELAPSE      103.34 TCPU     2444.63
 TTTTTTTTTTTTTTTTTTTTTTTTTTTTTT MONMO3      TELAPSE      103.89 TCPU     2462.44
 NUMERICALLY INTEGRATED DENSITY    396.0000009938
 TTTTTTTTTTTTTTTTTTTTTTTTTTTTTT NUMDFT      TELAPSE      105.34 TCPU     2508.55
 CYC   3 ETOT(AU) -2.578215124366E+03 DETOT -1.89E-01 tst  6.66E-04 PX  6.55E-02
 TTTTTTTTTTTTTTTTTTTTTTTTTTTTTT DIIS        TELAPSE      105.52 TCPU     2514.34
 DIIS TEST: 0.30481E-01 AT SCF   CYCLE   3 - DIIS ACTIVE - HISTORY:     3 CYCLES
 TTTTTTTTTTTTTTTTTTTTTTTTTTTTTT FDIK        TELAPSE      107.39 TCPU     2574.06
 INSULATING STATE
 TOP OF VALENCE BANDS -    BAND    198; K    1; EIG -2.4448416E-01 AU
 BOTTOM OF VIRTUAL BANDS - BAND    199; K    1; EIG -8.4872675E-02 AU
 DIRECT ENERGY BAND GAP:   4.3433 eV
 TTTTTTTTTTTTTTTTTTTTTTTTTTTTTT PDIG        TELAPSE      108.91 TCPU     2580.95
 CHARGE NORMALIZATION FACTOR   1.00000000
 TOTAL ATOMIC CHARGES:
   4.4864416   4.4930722   4.5017210   4.5039381   4.5018129   4.5040951
   4.5041444   4.5019297   4.5039791   4.5017746   4.4931159   4.4862792
   0.8718823   0.8702372   0.8704195   0.8718553   0.8770430   0.8737800
   0.8738121   0.8770302   0.8728308   0.8653338   0.8652800   0.8730473
   0.8728510   0.8653463   0.8652298   0.8729803   0.8770461   0.8737869
   0.8738643   0.8770814   0.8718602   0.8702349   0.8703768   0.8718128
   5.9400346   5.9318879   6.1753702   6.1442089   6.1448155   6.1758082
   6.1687084   6.1737571   6.1749026   6.1704012   5.9351283   5.9433528
   5.9146643   5.9825070   6.1578848   6.1799686   6.1811178   6.1588250
   6.1578519   6.1799433   6.1811689   6.1588800   5.9859377   5.9176617
   5.9400234   5.9318771   6.1686062   6.1736790   6.1750384   6.1705389
   6.1752848   6.1440820   6.1448895   6.1758517   5.9351310   5.9433702
   8.4768594   8.4783995   8.4771409   8.4786782   8.4960872   8.4823085
   8.4785530   8.4767785   8.4822323   8.4964989   8.4788849   8.4770938
 TTTTTTTTTTTTTTTTTTTTTTTTTTTTTT MOQGAD      TELAPSE      109.01 TCPU     2581.05
 TTTTTTTTTTTTTTTTTTTTTTTTTTTTTT SHELLXN     TELAPSE      124.77 TCPU     3083.81
 TTTTTTTTTTTTTTTTTTTTTTTTTTTTTT MONMO3      TELAPSE      125.33 TCPU     3101.61
 NUMERICALLY INTEGRATED DENSITY    396.0000013552
 TTTTTTTTTTTTTTTTTTTTTTTTTTTTTT NUMDFT      TELAPSE      126.77 TCPU     3147.73
 CYC   4 ETOT(AU) -2.578221065138E+03 DETOT -5.94E-03 tst  4.91E-05 PX  2.12E-02
 TTTTTTTTTTTTTTTTTTTTTTTTTTTTTT DIIS        TELAPSE      126.97 TCPU     3154.17
 DIIS TEST: 0.10633E-01 AT SCF   CYCLE   4 - DIIS ACTIVE - HISTORY:     4 CYCLES
 TTTTTTTTTTTTTTTTTTTTTTTTTTTTTT FDIK        TELAPSE      128.84 TCPU     3213.92
 INSULATING STATE
 TOP OF VALENCE BANDS -    BAND    198; K    1; EIG -2.4313044E-01 AU
 BOTTOM OF VIRTUAL BANDS - BAND    199; K    1; EIG -8.4815649E-02 AU
 DIRECT ENERGY BAND GAP:   4.3080 eV
 TTTTTTTTTTTTTTTTTTTTTTTTTTTTTT PDIG        TELAPSE      130.37 TCPU     3220.82
 CHARGE NORMALIZATION FACTOR   1.00000000
 TOTAL ATOMIC CHARGES:
   4.4863121   4.4939449   4.5023832   4.5082249   4.5024666   4.5083803
   4.5080875   4.5022016   4.5079331   4.5020532   4.4936067   4.4859551
   0.8770161   0.8693389   0.8694382   0.8772236   0.8788989   0.8777020
   0.8778746   0.8790127   0.8731354   0.8693741   0.8697219   0.8732578
   0.8731447   0.8693811   0.8696804   0.8731974   0.8788847   0.8777029
   0.8779293   0.8790836   0.8769868   0.8693385   0.8693964   0.8771882
   5.9184076   5.9259959   6.1684256   6.1594018   6.1589752   6.1681095
   6.1709417   6.1695881   6.1687122   6.1697496   5.9247316   5.9171507
   5.9341661   5.9386526   6.1719342   6.1679616   6.1674235   6.1716268
   6.1720495   6.1680366   6.1673455   6.1715564   5.9373164   5.9331759
   5.9185989   5.9261823   6.1709007   6.1695516   6.1688397   6.1698294
   6.1684175   6.1593390   6.1589652   6.1680844   5.9245254   5.9169472
   8.4892150   8.4869630   8.4894067   8.4871738   8.4960244   8.4875976
   8.4869789   8.4894187   8.4876294   8.4956607   8.4872084   8.4896501
 TTTTTTTTTTTTTTTTTTTTTTTTTTTTTT MOQGAD      TELAPSE      130.46 TCPU     3220.91
 TTTTTTTTTTTTTTTTTTTTTTTTTTTTTT SHELLXN     TELAPSE      146.23 TCPU     3723.78
 TTTTTTTTTTTTTTTTTTTTTTTTTTTTTT MONMO3      TELAPSE      146.78 TCPU     3741.55
 NUMERICALLY INTEGRATED DENSITY    396.0000013196
 TTTTTTTTTTTTTTTTTTTTTTTTTTTTTT NUMDFT      TELAPSE      148.22 TCPU     3787.58
 CYC   5 ETOT(AU) -2.578223445283E+03 DETOT -2.38E-03 tst  2.86E-05 PX  1.17E-02
 TTTTTTTTTTTTTTTTTTTTTTTTTTTTTT DIIS        TELAPSE      148.45 TCPU     3794.40
 DIIS TEST: 0.73386E-03 AT SCF   CYCLE   5 - DIIS ACTIVE - HISTORY:     5 CYCLES
 TTTTTTTTTTTTTTTTTTTTTTTTTTTTTT FDIK        TELAPSE      150.32 TCPU     3853.83
 INSULATING STATE
 TOP OF VALENCE BANDS -    BAND    198; K    1; EIG -2.4262391E-01 AU
 BOTTOM OF VIRTUAL BANDS - BAND    199; K    1; EIG -8.4195685E-02 AU
 DIRECT ENERGY BAND GAP:   4.3111 eV
 TTTTTTTTTTTTTTTTTTTTTTTTTTTTTT PDIG        TELAPSE      151.85 TCPU     3860.72
 CHARGE NORMALIZATION FACTOR   1.00000000
 TOTAL ATOMIC CHARGES:
   4.4870504   4.4938156   4.5026616   4.5075594   4.5027495   4.5077151
   4.5076487   4.5026983   4.5074906   4.5025471   4.4937191   4.4867967
   0.8775100   0.8710834   0.8712459   0.8775425   0.8801030   0.8790334
   0.8790556   0.8800871   0.8761523   0.8700736   0.8701136   0.8763446
   0.8761752   0.8700894   0.8700611   0.8762752   0.8800987   0.8790373
   0.8791080   0.8801456   0.8774901   0.8710866   0.8712008   0.8774990
   5.9185889   5.9176626   6.1698623   6.1557132   6.1560787   6.1700879
   6.1687345   6.1677040   6.1686917   6.1701648   5.9202641   5.9212037
   5.9144238   5.9486905   6.1627645   6.1731504   6.1739444   6.1634656
   6.1627452   6.1731374   6.1739729   6.1635068   5.9510693   5.9165393
   5.9186776   5.9177487   6.1686576   6.1676385   6.1688449   6.1702915
   6.1697672   6.1555770   6.1561453   6.1701397   5.9201558   5.9211051
   8.4893838   8.4889860   8.4896263   8.4892327   8.5003367   8.4890014
   8.4891671   8.4893795   8.4890448   8.5007580   8.4894451   8.4896588
 TTTTTTTTTTTTTTTTTTTTTTTTTTTTTT MOQGAD      TELAPSE      151.94 TCPU     3860.81
 TTTTTTTTTTTTTTTTTTTTTTTTTTTTTT SHELLXN     TELAPSE      167.72 TCPU     4363.79
 TTTTTTTTTTTTTTTTTTTTTTTTTTTTTT MONMO3      TELAPSE      168.27 TCPU     4381.60
 NUMERICALLY INTEGRATED DENSITY    396.0000013499
 TTTTTTTTTTTTTTTTTTTTTTTTTTTTTT NUMDFT      TELAPSE      169.72 TCPU     4427.67
 CYC   6 ETOT(AU) -2.578223551738E+03 DETOT -1.06E-04 tst  7.98E-06 PX  4.56E-03
 TTTTTTTTTTTTTTTTTTTTTTTTTTTTTT DIIS        TELAPSE      169.96 TCPU     4434.54
 DIIS TEST: 0.34725E-03 AT SCF   CYCLE   6 - DIIS ACTIVE - HISTORY:     6 CYCLES
 TTTTTTTTTTTTTTTTTTTTTTTTTTTTTT FDIK        TELAPSE      171.83 TCPU     4493.99
 INSULATING STATE
 TOP OF VALENCE BANDS -    BAND    198; K    1; EIG -2.4266955E-01 AU
 BOTTOM OF VIRTUAL BANDS - BAND    199; K    1; EIG -8.4156771E-02 AU
 DIRECT ENERGY BAND GAP:   4.3134 eV
 TTTTTTTTTTTTTTTTTTTTTTTTTTTTTT PDIG        TELAPSE      173.36 TCPU     4500.89
 CHARGE NORMALIZATION FACTOR   1.00000000
 TOTAL ATOMIC CHARGES:
   4.4873608   4.4936960   4.5024372   4.5077176   4.5025245   4.5078730
   4.5076375   4.5023199   4.5074803   4.5021686   4.4934103   4.4870248
   0.8777940   0.8710856   0.8712011   0.8779348   0.8801178   0.8789619
   0.8790937   0.8801918   0.8755374   0.8702588   0.8704959   0.8756794
   0.8755529   0.8702696   0.8704501   0.8756153   0.8801095   0.8789661
   0.8791456   0.8802552   0.8777703   0.8710887   0.8711560   0.8778948
   5.9193099   5.9212344   6.1694663   6.1561884   6.1560691   6.1693679
   6.1690981   6.1689263   6.1685881   6.1686762   5.9212103   5.9193259
   5.9228082   5.9453036   6.1660454   6.1707912   6.1707282   6.1660975
   6.1661075   6.1708344   6.1706906   6.1660689   5.9453119   5.9229382
   5.9194490   5.9213674   6.1690307   6.1688688   6.1687338   6.1687892
   6.1694178   6.1560906   6.1560970   6.1693767   5.9210561   5.9191757
   8.4889250   8.4878244   8.4891390   8.4880516   8.4987242   8.4886789
   8.4879053   8.4890735   8.4886864   8.4985884   8.4881609   8.4893264
 TTTTTTTTTTTTTTTTTTTTTTTTTTTTTT MOQGAD      TELAPSE      173.45 TCPU     4500.99
 TTTTTTTTTTTTTTTTTTTTTTTTTTTTTT SHELLXN     TELAPSE      189.23 TCPU     5003.79
 TTTTTTTTTTTTTTTTTTTTTTTTTTTTTT MONMO3      TELAPSE      189.79 TCPU     5021.59
 NUMERICALLY INTEGRATED DENSITY    396.0000013299
 TTTTTTTTTTTTTTTTTTTTTTTTTTTTTT NUMDFT      TELAPSE      191.23 TCPU     5067.67
 CYC   7 ETOT(AU) -2.578223641553E+03 DETOT -8.98E-05 tst  1.45E-06 PX  1.88E-03
 TTTTTTTTTTTTTTTTTTTTTTTTTTTTTT DIIS        TELAPSE      191.50 TCPU     5074.49
 DIIS TEST: 0.59250E-05 AT SCF   CYCLE   7 - DIIS ACTIVE - HISTORY:     7 CYCLES
 TTTTTTTTTTTTTTTTTTTTTTTTTTTTTT FDIK        TELAPSE      193.37 TCPU     5133.99
 INSULATING STATE
 TOP OF VALENCE BANDS -    BAND    198; K    1; EIG -2.4270556E-01 AU
 BOTTOM OF VIRTUAL BANDS - BAND    199; K    1; EIG -8.4188134E-02 AU
 DIRECT ENERGY BAND GAP:   4.3135 eV
 TTTTTTTTTTTTTTTTTTTTTTTTTTTTTT PDIG        TELAPSE      194.90 TCPU     5140.88
 CHARGE NORMALIZATION FACTOR   1.00000000
 TOTAL ATOMIC CHARGES:
   4.4871726   4.4937579   4.5025498   4.5078133   4.5026366   4.5079688
   4.5078131   4.5024989   4.5076559   4.5023481   4.4935661   4.4868768
   0.8778258   0.8709245   0.8710624   0.8779259   0.8800486   0.8789818
   0.8790582   0.8800782   0.8754469   0.8702723   0.8704282   0.8756116
   0.8754649   0.8702854   0.8703798   0.8755453   0.8800403   0.8789847
   0.8791114   0.8801416   0.8778028   0.8709271   0.8710179   0.8778851
   5.9185817   5.9209666   6.1688427   6.1566261   6.1566811   6.1688545
   6.1691598   6.1681211   6.1684121   6.1696052   5.9221141   5.9197377
   5.9222757   5.9448777   6.1659584   6.1706101   6.1708936   6.1662766
   6.1659945   6.1706320   6.1708789   6.1662722   5.9458504   5.9232116
   5.9187112   5.9210928   6.1690972   6.1680674   6.1685544   6.1697127
   6.1687830   6.1565192   6.1567171   6.1688751   5.9219671   5.9195976
   8.4889941   8.4879383   8.4892169   8.4881711   8.4985275   8.4883324
   8.4880512   8.4890651   8.4883754   8.4986532   8.4883109   8.4893260
 TTTTTTTTTTTTTTTTTTTTTTTTTTTTTT MOQGAD      TELAPSE      194.99 TCPU     5140.98
 TTTTTTTTTTTTTTTTTTTTTTTTTTTTTT SHELLXN     TELAPSE      210.77 TCPU     5643.78
 TTTTTTTTTTTTTTTTTTTTTTTTTTTTTT MONMO3      TELAPSE      211.33 TCPU     5661.60
 NUMERICALLY INTEGRATED DENSITY    396.0000013329
 TTTTTTTTTTTTTTTTTTTTTTTTTTTTTT NUMDFT      TELAPSE      212.77 TCPU     5707.74
 CYC   8 ETOT(AU) -2.578223642304E+03 DETOT -7.51E-07 tst  2.28E-08 PX  2.22E-04
 TTTTTTTTTTTTTTTTTTTTTTTTTTTTTT DIIS        TELAPSE      213.07 TCPU     5714.58
 DIIS TEST: 0.18712E-05 AT SCF   CYCLE   8 - DIIS ACTIVE - HISTORY:     8 CYCLES
 TTTTTTTTTTTTTTTTTTTTTTTTTTTTTT FDIK        TELAPSE      214.94 TCPU     5774.11
 INSULATING STATE
 TOP OF VALENCE BANDS -    BAND    198; K    1; EIG -2.4269860E-01 AU
 BOTTOM OF VIRTUAL BANDS - BAND    199; K    1; EIG -8.4198354E-02 AU
 DIRECT ENERGY BAND GAP:   4.3130 eV
 TTTTTTTTTTTTTTTTTTTTTTTTTTTTTT PDIG        TELAPSE      216.46 TCPU     5781.01
 CHARGE NORMALIZATION FACTOR   1.00000000
 TOTAL ATOMIC CHARGES:
   4.4871429   4.4938460   4.5025937   4.5078401   4.5026802   4.5079953
   4.5078028   4.5025130   4.5076459   4.5023624   4.4936107   4.4868288
   0.8777681   0.8709611   0.8710880   0.8778873   0.8800616   0.8789322
   0.8790368   0.8801140   0.8754381   0.8702275   0.8704233   0.8755925
   0.8754550   0.8702395   0.8703759   0.8755271   0.8800534   0.8789355
   0.8790895   0.8801773   0.8777447   0.8709637   0.8710434   0.8778468
   5.9189010   5.9211155   6.1690821   6.1564729   6.1564471   6.1690436
   6.1692368   6.1684138   6.1683918   6.1692536   5.9216835   5.9194943
   5.9224180   5.9451018   6.1660106   6.1707517   6.1708655   6.1661962
   6.1660563   6.1707821   6.1708425   6.1661829   5.9455997   5.9229584
   5.9190341   5.9212442   6.1691724   6.1683585   6.1685353   6.1693629
   6.1690270   6.1563700   6.1564797   6.1690596   5.9215340   5.9193505
   8.4890213   8.4879451   8.4892406   8.4881757   8.4986036   8.4884251
   8.4880446   8.4891313   8.4884478   8.4985997   8.4883024   8.4893889
 TTTTTTTTTTTTTTTTTTTTTTTTTTTTTT MOQGAD      TELAPSE      216.55 TCPU     5781.10
 TTTTTTTTTTTTTTTTTTTTTTTTTTTTTT SHELLXN     TELAPSE      232.33 TCPU     6283.96
 +++ ENERGIES IN A.U. +++
 ::: EXT EL-POLE                                  -2.5068562014762E+03
 ::: EXT EL-SPHEROPOLE                             2.8624434986526E+01
 ::: BIELET ZONE E-E                               4.2144959733583E+03
 ::: TOTAL E-E                                     1.7362642068686E+03
 ::: TOTAL E-N + N-E                              -7.1313680719809E+03
 ::: TOTAL N-N                                     5.2446430025795E+02
 ::: KINETIC ENERGY                                2.5598446860857E+03
 ::: PSEUDO TOTAL   ENERGY                        -2.3107948787686E+03
 ::: VIRIAL COEFFICIENT                            1.0511328756729E+00
 TTTTTTTTTTTTTTTTTTTTTTTTTTTTTT MONMO3      TELAPSE      232.89 TCPU     6301.79
 NUMERICALLY INTEGRATED DENSITY    396.0000013325
 EXCHANGE ENERGY: -0.252049028825E+03  CORRELATION ENERGY: -0.153797348785E+02
 TTTTTTTTTTTTTTTTTTTTTTTTTTTTTT NUMDFT      TELAPSE      234.34 TCPU     6347.92
 CYC   9 ETOT(AU) -2.578223642473E+03 DETOT -1.68E-07 tst  4.50E-09 PX  2.22E-04

 == SCF ENDED - CONVERGENCE ON ENERGY      E(AU) -2.5782236424726E+03 CYCLES   9


 ENERGY EXPRESSION=HARTREE+FOCK EXCH*0.00000+(HSESOL     EXCH)*1.00000+PBESOL     CORR


 TOTAL ENERGY(DFT)(AU)(  9) -2.5782236424726E+03 DE-1.7E-07 tester 4.5E-09
 TTTTTTTTTTTTTTTTTTTTTTTTTTTTTT EDFT        TELAPSE      234.34 TCPU     6347.93
 
 INFORMATION **** DFTD3 ENERGY **** CALCULATE DFTD3 ENERGY

           DFT-D V3(BJ)
 DF                                         hsesol3c  
 parameters
 s6       :    1.0000
 s8       :    0.0000
 a1       :    0.5196
 a2       :    4.9385
 k1 k3    :   16.0000   -4.0000
 Cutoff   :   50.2022
 CN-Cutoff:   21.1671
 ABC-Cutoff:   21.1671
 
 Edisp /kcal,au:   -50.0234 -0.07971732

 E6    /kcal :   -53.2924
 E8    /kcal :     0.0000
 E6(ABC) "   :   3.268987
 
 INFORMATION **** DFTD3 ENERGY **** NORMAL TERMINATION OF DFTD3 MODULE

 GCP ENERGY CALCULATION
  level        hsesol3c            basis:hsesol3c
  Nbf            948
  Atoms           84

  Parameters: 
  sigma     1.0000
  eta       1.4281
  alpha     0.2936
  beta      1.9467

  dmp_scal      4.0000
  dmp_exp       6.0000
 cutoffs: 
   distance [bohr] 60.0
   noise    [a.u.] 2.2E-16
 SR-damping   T
 ** gCP correction **
  Egcp:        0.1659197020 / (a.u.) ||     104.1162 / (kcal/mol)
 INFORMATION **** GCP **** NORMAL TERMINATION OF GCP MODULE

 *******************************************************************************

 DFT-D3-GCP DISPERSION AND COUNTERPOISE CORRECTION

 D3 DISPERSION ENERGY (AU)      -7.9717322714381E-02
 GCP ENERGY (AU)                 1.6591970203319E-01
 TOTAL ENERGY + DISP + GCP (AU) -2.5781374400932E+03

 *******************************************************************************

 EIGENVECTORS IN FORTRAN UNIT 10
 TTTTTTTTTTTTTTTTTTTTTTTTTTTTTT END         TELAPSE      237.16 TCPU     6356.70
 EEEEEEEEEE TERMINATION  DATE 19 02 2026 TIME 20:27:36.9
