 Default number of threads is:           32

         
 *******************************************************************************
 *                                                                             *
 *                               CRYSTAL23                                     *
 *                      public : 1.0.1 - October 2022                          *
 *                       HTTP://WWW.CRYSTAL.UNITO.IT                           *
 *                                                                             *
 *                              MAIN AUTHORS                                   *
 *                                                                             *
 *  R. DOVESI(1,11), V.R. SAUNDERS(2), C. ROETTI(1,11), R. ORLANDO(1,11),      *
 *  C.M. ZICOVICH-WILSON(1,3), F. PASCALE(4), B. CIVALLERI(1,11),              *
 *  K. DOLL(5), N.M. HARRISON(6), I.J. BUSH(7), Ph. D'ARCO(8),                 *
 *  M. LLUNELL(9), M. CAUSA'(10), Y. NOEL(8), L. MASCHIO(1,11), A. ERBA(1,11)  *
 *  M. RE'RAT(14), S. CASASSA(1,11), B.G. SEARLE(2), J.K. DESMARAIS(1)         *
 *                                                                             *
 *        CONTRIBUTIONS TO THE CODE HAVE ALSO BEEN GIVEN BY                    *
 *                                                                             *
 *  M. FERRABONE(1,11), M. DE LA PIERRE(1,11), M. FERRERO(1,11),               *
 *  J. BAIMA(1,11), E. ALBANESE(1,11), M.F. PEINTINGER(12), R. BAST(13),       *
 *  B. KIRTMAN(15), V. LACIVITA(1,11), R. DEMICHELIS(1,16)                     *
 *  G. BRANDEBURG(17), S. SALUSTRO(1,11), G. SANSONE(1,11)                     *
 *  M.T. RUGGIERO(18), L.E. DAGA(1), L. DONA'(1), A. COSSARD(1)                *
 *                                                                             *
 * (1) THEORETICAL CHEMISTRY GROUP - UNIVERSITA' DI TORINO - TORINO (ITALY)    *
 * (2) SCIENTIFIC COMPUTING DEPARTMENT - STFC DARESBURY (UK)                   *
 * (3) UNIVERSIDAD AUTONOMA DEL ESTADO DE MORELOS - CUERNAVACA (MEXICO)        *
 * (4) UNIVERSITE' DE LORRAINE - NANCY (FRANCE)                                *
 * (5) UNIVERSITAET STUTTGART- STUTTGART (GERMANY)                             *
 * (6) IMPERIAL COLLEGE - LONDON (UK)                                          *
 * (7) SCIENTIFIC COMPUTING DEPARTMENT - STFC RAL (UK)                         *
 * (8) UPMC - SORBONNE UNIVERSITES - PARIS (FRANCE)                            *
 * (9) UNIVERSIDAD DE BARCELONA - BARCELONA (SPAIN)                            *
 *(10) UNIVERSITA' DI NAPOLI "FEDERICO II" - NAPOLI (ITALY)                    *
 *(11) NIS - NANOSTRUCTURED INTERFACES AND SURFACES - TORINO (ITALY)           *
 *(12) MPI FUER CHEMISCHE ENERGIEKONVERSION - MUELHEIM AN DER RUHR (GERMANY)   *
 *(13) UNIVERSITY OF TROMSO - TROMSO (NORWAY)                                  *
 *(14) UNIVERSITE' DE PAU ET DES PAYS DE L'ADOUR - PAU (FRANCE)                *
 *(15) UNIVERSITY OF CALIFORNIA SANTA BARBARA - SANTA BARBARA (USA)            *
 *(16) CURTIN UNIVERSITY - PERTH (AUSTRALIA)                                   *
 *(17) UNIVERSITY COLLEGE LONDON - LONDON (UK)                                 *
 *(18) UNIVERSITY OF VERMONT - BURLINGTON (USA)                                *
 *                                                                             *
 *******************************************************************************
 EEEEEEEEEE STARTING  DATE 19 02 2026 TIME 20:23:39.4
 cof-1_z40_L040_serr                                                             

 CRYSTAL CALCULATION
 (INPUT ACCORDING TO THE INTERNATIONAL TABLES FOR X-RAY CRYSTALLOGRAPHY)
 CRYSTAL FAMILY                       :  TRICLINIC   
 CRYSTAL CLASS  (GROTH - 1921)        :  TRICLINIC PEDIAL                     

 SPACE GROUP (NONCENTROSYMMETRIC)     :  P 1             

 LATTICE PARAMETERS  (ANGSTROMS AND DEGREES) - CONVENTIONAL CELL
        A           B           C        ALPHA        BETA       GAMMA
    15.02361    15.02392     8.00000    90.00032    89.99994   119.99596


 NUMBER OF IRREDUCIBLE ATOMS IN THE CONVENTIONAL CELL:   84

 INPUT COORDINATES

 ATOM AT. N.              COORDINATES
   1   5     6.136805400000E-01  2.273182200000E-01  2.505970900000E-01
   2   5     7.673736500000E-01  5.347356900000E-01  7.505970900000E-01
   3   5     7.727362000000E-01  3.863778800000E-01  2.505971000000E-01
   4   5     9.264293100000E-01  6.937953500000E-01  7.505971000000E-01
   5   5     6.136762700000E-01  3.863606700000E-01  2.493417000000E-01
   6   5     7.673693800000E-01  6.937781400000E-01  7.493417000000E-01
   7   5     2.272552500000E-01  6.136332200000E-01  2.505970900000E-01
   8   5     3.809483600000E-01  9.210506900000E-01  7.505970900000E-01
   9   5     3.863632200000E-01  6.136124500000E-01  2.505970900000E-01
  10   5     5.400563300000E-01  9.210299200000E-01  7.505970900000E-01
  11   5     3.863435000000E-01  7.727516500000E-01  2.493417000000E-01
  12   5     5.400366100000E-01  8.016912000000E-02  7.493417000000E-01
  13   1     9.030436200000E-01  3.089300500000E-01  2.479944000000E-01
  14   1     5.673673000000E-02  6.163475200000E-01  7.479944000000E-01
  15   1     9.663453000000E-02  6.910534400000E-01  2.475964000000E-01
  16   1     2.503276400000E-01  9.984709100000E-01  7.475964100000E-01
  17   1     9.029714200000E-01  5.940724300000E-01  2.475351600000E-01
  18   1     5.666453000000E-02  9.014899000000E-01  7.475351600000E-01
  19   1     9.673618000000E-02  4.056849400000E-01  2.475504300000E-01
  20   1     2.504292900000E-01  7.131024100000E-01  7.475504300000E-01
  21   1     6.910324000000E-01  9.700412000000E-02  2.520056200000E-01
  22   1     8.447255100000E-01  4.044215900000E-01  7.520056100000E-01
  23   1     3.089297200000E-01  9.034373100000E-01  2.524036400000E-01
  24   1     4.626228300000E-01  2.108547800000E-01  7.524036400000E-01
  25   1     4.058699900000E-01  9.704998000000E-02  2.524649300000E-01
  26   1     5.595631000000E-01  4.044674500000E-01  7.524649300000E-01
  27   1     5.943122100000E-01  9.033473200000E-01  2.524495500000E-01
  28   1     7.480053200000E-01  2.107647900000E-01  7.524495500000E-01
  29   1     6.910727400000E-01  5.940542100000E-01  2.479944200000E-01
  30   1     8.447658500000E-01  9.014716800000E-01  7.479944300000E-01
  31   1     3.089618300000E-01  4.056093300000E-01  2.475963800000E-01
  32   1     4.626549400000E-01  7.130268000000E-01  7.475963800000E-01
  33   1     4.058405700000E-01  3.088232500000E-01  2.475351100000E-01
  34   1     5.595336800000E-01  6.162407200000E-01  7.475351000000E-01
  35   1     5.942908800000E-01  6.909579300000E-01  2.475504800000E-01
  36   1     7.479839900000E-01  9.983754000000E-01  7.475504800000E-01
  37   6     8.918903100000E-01  4.459436900000E-01  2.492957700000E-01
  38   6     4.558342000000E-02  7.533611600000E-01  7.492957700000E-01
  39   6     9.464891100000E-01  3.927856300000E-01  2.480556500000E-01
  40   6     1.001822200000E-01  7.002031000000E-01  7.480556500000E-01
  41   6     5.338812000000E-02  6.071853000000E-01  2.479485200000E-01
  42   6     2.070812300000E-01  9.146027700000E-01  7.479485200000E-01
  43   6     9.464521100000E-01  5.536921900000E-01  2.482700300000E-01
  44   6     1.001452200000E-01  8.611096600000E-01  7.482700300000E-01
  45   6     5.342634000000E-02  4.462499700000E-01  2.474432600000E-01
  46   6     2.071194500000E-01  7.536674400000E-01  7.474432600000E-01
  47   6     1.080358900000E-01  5.540356300000E-01  2.482853200000E-01
  48   6     2.617290000000E-01  8.614531000000E-01  7.482853200000E-01
  49   6     5.540394200000E-01  1.081684600000E-01  2.507042700000E-01
  50   6     7.077325300000E-01  4.155859300000E-01  7.507042700000E-01
  51   6     6.071778500000E-01  5.355594000000E-02  2.519443600000E-01
  52   6     7.608709600000E-01  3.609734100000E-01  7.519443600000E-01
  53   6     3.927986700000E-01  9.466631600000E-01  2.520515300000E-01
  54   6     5.464917800000E-01  2.540806300000E-01  7.520515300000E-01
  55   6     4.462875800000E-01  5.360286000000E-02  2.517300400000E-01
  56   6     5.999806900000E-01  3.610203300000E-01  7.517300400000E-01
  57   6     5.537168500000E-01  9.466235600000E-01  2.525567400000E-01
  58   6     7.074099600000E-01  2.540410300000E-01  7.525567400000E-01
  59   6     4.459279100000E-01  8.919920600000E-01  2.517147100000E-01
  60   6     5.996210200000E-01  1.994095300000E-01  7.517147100000E-01
  61   6     5.540448700000E-01  4.458745500000E-01  2.492957600000E-01
  62   6     7.077379800000E-01  7.532920200000E-01  7.492957600000E-01
  63   6     6.072102200000E-01  5.536257800000E-01  2.480556800000E-01
  64   6     7.609033300000E-01  8.610432500000E-01  7.480556800000E-01
  65   6     3.928233700000E-01  4.461720300000E-01  2.479484900000E-01
  66   6     5.465164800000E-01  7.535895000000E-01  7.479484900000E-01
  67   6     4.462872600000E-01  3.926899900000E-01  2.482699900000E-01
  68   6     5.999803700000E-01  7.001074600000E-01  7.482699900000E-01
  69   6     5.537429600000E-01  6.070980000000E-01  2.474433000000E-01
  70   6     7.074360700000E-01  9.145154700000E-01  7.474433000000E-01
  71   6     4.459599800000E-01  5.539582300000E-01  2.482853200000E-01
  72   6     5.996530900000E-01  8.613757000000E-01  7.482853200000E-01
  73   8     5.607366800000E-01  2.803706300000E-01  2.496785000000E-01
  74   8     7.144297900000E-01  5.877881000000E-01  7.496785000000E-01
  75   8     7.196817000000E-01  2.803783300000E-01  2.523271000000E-01
  76   8     8.733748100000E-01  5.877958000000E-01  7.523270900000E-01
  77   8     7.196794200000E-01  4.393234600000E-01  2.483312600000E-01
  78   8     8.733725300000E-01  7.467409300000E-01  7.483312600000E-01
  79   8     2.803245100000E-01  7.196511100000E-01  2.496785200000E-01
  80   8     4.340176200000E-01  2.706858000000E-02  7.496785200000E-01
  81   8     2.803439700000E-01  5.606956100000E-01  2.523270900000E-01
  82   8     4.340370800000E-01  8.681130800000E-01  7.523270900000E-01
  83   8     4.392638400000E-01  7.196354200000E-01  2.483312500000E-01
  84   8     5.929569500000E-01  2.705289000000E-02  7.483312500000E-01

 *******************************************************************************

 << INFORMATION >>: FROM NOW ON, ALL COORDINATES REFER TO THE PRIMITIVE CELL

 *******************************************************************************

 LATTICE PARAMETERS  (ANGSTROMS AND DEGREES) - PRIMITIVE CELL
       A          B          C        ALPHA      BETA     GAMMA        VOLUME
   15.02361   15.02392    8.00000    90.00032  89.99994 119.99596   1563.852384

 COORDINATES OF THE EQUIVALENT ATOMS (FRACTIONAL UNITS)

 N. ATOM EQUIV AT. N.          X                  Y                  Z

   1   1   1    5 B    -3.86319460000E-01  2.27318220000E-01  2.50597090000E-01

   2   2   1    5 B    -2.32626350000E-01 -4.65264310000E-01 -2.49402910000E-01

   3   3   1    5 B    -2.27263800000E-01  3.86377880000E-01  2.50597100000E-01

   4   4   1    5 B    -7.35706900000E-02 -3.06204650000E-01 -2.49402900000E-01

   5   5   1    5 B    -3.86323730000E-01  3.86360670000E-01  2.49341700000E-01

   6   6   1    5 B    -2.32630620000E-01 -3.06221860000E-01 -2.50658300000E-01

   7   7   1    5 B     2.27255250000E-01 -3.86366780000E-01  2.50597090000E-01

   8   8   1    5 B     3.80948360000E-01 -7.89493100000E-02 -2.49402910000E-01

   9   9   1    5 B     3.86363220000E-01 -3.86387550000E-01  2.50597090000E-01

  10  10   1    5 B    -4.59943670000E-01 -7.89700800000E-02 -2.49402910000E-01

  11  11   1    5 B     3.86343500000E-01 -2.27248350000E-01  2.49341700000E-01

  12  12   1    5 B    -4.59963390000E-01  8.01691200000E-02 -2.50658300000E-01

  13  13   1    1 H    -9.69563800000E-02  3.08930050000E-01  2.47994400000E-01

  14  14   1    1 H     5.67367300000E-02 -3.83652480000E-01 -2.52005600000E-01

  15  15   1    1 H     9.66345300000E-02 -3.08946560000E-01  2.47596400000E-01

  16  16   1    1 H     2.50327640000E-01 -1.52909000000E-03 -2.52403590000E-01

  17  17   1    1 H    -9.70285800000E-02 -4.05927570000E-01  2.47535160000E-01

  18  18   1    1 H     5.66645300000E-02 -9.85101000000E-02 -2.52464840000E-01

  19  19   1    1 H     9.67361800000E-02  4.05684940000E-01  2.47550430000E-01

  20  20   1    1 H     2.50429290000E-01 -2.86897590000E-01 -2.52449570000E-01

  21  21   1    1 H    -3.08967600000E-01  9.70041200000E-02  2.52005620000E-01

  22  22   1    1 H    -1.55274490000E-01  4.04421590000E-01 -2.47994390000E-01

  23  23   1    1 H     3.08929720000E-01 -9.65626900000E-02  2.52403640000E-01

  24  24   1    1 H     4.62622830000E-01  2.10854780000E-01 -2.47596360000E-01

  25  25   1    1 H     4.05869990000E-01  9.70499800000E-02  2.52464930000E-01

  26  26   1    1 H    -4.40436900000E-01  4.04467450000E-01 -2.47535070000E-01

  27  27   1    1 H    -4.05687790000E-01 -9.66526800000E-02  2.52449550000E-01

  28  28   1    1 H    -2.51994680000E-01  2.10764790000E-01 -2.47550450000E-01

  29  29   1    1 H    -3.08927260000E-01 -4.05945790000E-01  2.47994420000E-01

  30  30   1    1 H    -1.55234150000E-01 -9.85283200000E-02 -2.52005570000E-01

  31  31   1    1 H     3.08961830000E-01  4.05609330000E-01  2.47596380000E-01

  32  32   1    1 H     4.62654940000E-01 -2.86973200000E-01 -2.52403620000E-01

  33  33   1    1 H     4.05840570000E-01  3.08823250000E-01  2.47535110000E-01

  34  34   1    1 H    -4.40466320000E-01 -3.83759280000E-01 -2.52464900000E-01

  35  35   1    1 H    -4.05709120000E-01 -3.09042070000E-01  2.47550480000E-01

  36  36   1    1 H    -2.52016010000E-01 -1.62460000000E-03 -2.52449520000E-01

  37  37   1    6 C    -1.08109690000E-01  4.45943690000E-01  2.49295770000E-01

  38  38   1    6 C     4.55834200000E-02 -2.46638840000E-01 -2.50704230000E-01

  39  39   1    6 C    -5.35108900000E-02  3.92785630000E-01  2.48055650000E-01

  40  40   1    6 C     1.00182220000E-01 -2.99796900000E-01 -2.51944350000E-01

  41  41   1    6 C     5.33881200000E-02 -3.92814700000E-01  2.47948520000E-01

  42  42   1    6 C     2.07081230000E-01 -8.53972300000E-02 -2.52051480000E-01

  43  43   1    6 C    -5.35478900000E-02 -4.46307810000E-01  2.48270030000E-01

  44  44   1    6 C     1.00145220000E-01 -1.38890340000E-01 -2.51729970000E-01

  45  45   1    6 C     5.34263400000E-02  4.46249970000E-01  2.47443260000E-01

  46  46   1    6 C     2.07119450000E-01 -2.46332560000E-01 -2.52556740000E-01

  47  47   1    6 C     1.08035890000E-01 -4.45964370000E-01  2.48285320000E-01

  48  48   1    6 C     2.61729000000E-01 -1.38546900000E-01 -2.51714680000E-01

  49  49   1    6 C    -4.45960580000E-01  1.08168460000E-01  2.50704270000E-01

  50  50   1    6 C    -2.92267470000E-01  4.15585930000E-01 -2.49295730000E-01

  51  51   1    6 C    -3.92822150000E-01  5.35559400000E-02  2.51944360000E-01

  52  52   1    6 C    -2.39129040000E-01  3.60973410000E-01 -2.48055640000E-01

  53  53   1    6 C     3.92798670000E-01 -5.33368400000E-02  2.52051530000E-01

  54  54   1    6 C    -4.53508220000E-01  2.54080630000E-01 -2.47948470000E-01

  55  55   1    6 C     4.46287580000E-01  5.36028600000E-02  2.51730040000E-01

  56  56   1    6 C    -4.00019310000E-01  3.61020330000E-01 -2.48269960000E-01

  57  57   1    6 C    -4.46283150000E-01 -5.33764400000E-02  2.52556740000E-01

  58  58   1    6 C    -2.92590040000E-01  2.54041030000E-01 -2.47443260000E-01

  59  59   1    6 C     4.45927910000E-01 -1.08007940000E-01  2.51714710000E-01

  60  60   1    6 C    -4.00378980000E-01  1.99409530000E-01 -2.48285290000E-01

  61  61   1    6 C    -4.45955130000E-01  4.45874550000E-01  2.49295760000E-01

  62  62   1    6 C    -2.92262020000E-01 -2.46707980000E-01 -2.50704240000E-01

  63  63   1    6 C    -3.92789780000E-01 -4.46374220000E-01  2.48055680000E-01

  64  64   1    6 C    -2.39096670000E-01 -1.38956750000E-01 -2.51944320000E-01

  65  65   1    6 C     3.92823370000E-01  4.46172030000E-01  2.47948490000E-01

  66  66   1    6 C    -4.53483520000E-01 -2.46410500000E-01 -2.52051510000E-01

  67  67   1    6 C     4.46287260000E-01  3.92689990000E-01  2.48269990000E-01

  68  68   1    6 C    -4.00019630000E-01 -2.99892540000E-01 -2.51730010000E-01

  69  69   1    6 C    -4.46257040000E-01 -3.92902000000E-01  2.47443300000E-01

  70  70   1    6 C    -2.92563930000E-01 -8.54845300000E-02 -2.52556700000E-01

  71  71   1    6 C     4.45959980000E-01 -4.46041770000E-01  2.48285320000E-01

  72  72   1    6 C    -4.00346910000E-01 -1.38624300000E-01 -2.51714680000E-01

  73  73   1    8 O    -4.39263320000E-01  2.80370630000E-01  2.49678500000E-01

  74  74   1    8 O    -2.85570210000E-01 -4.12211900000E-01 -2.50321500000E-01

  75  75   1    8 O    -2.80318300000E-01  2.80378330000E-01  2.52327100000E-01

  76  76   1    8 O    -1.26625190000E-01 -4.12204200000E-01 -2.47672910000E-01

  77  77   1    8 O    -2.80320580000E-01  4.39323460000E-01  2.48331260000E-01

  78  78   1    8 O    -1.26627470000E-01 -2.53259070000E-01 -2.51668740000E-01

  79  79   1    8 O     2.80324510000E-01 -2.80348890000E-01  2.49678520000E-01

  80  80   1    8 O     4.34017620000E-01  2.70685800000E-02 -2.50321480000E-01

  81  81   1    8 O     2.80343970000E-01 -4.39304390000E-01  2.52327090000E-01

  82  82   1    8 O     4.34037080000E-01 -1.31886920000E-01 -2.47672910000E-01

  83  83   1    8 O     4.39263840000E-01 -2.80364580000E-01  2.48331250000E-01

  84  84   1    8 O    -4.07043050000E-01  2.70528900000E-02 -2.51668750000E-01

 NUMBER OF SYMMETRY OPERATORS         :    1
 *******************************************************************************
 * GEOMETRY EDITING - INPUT COORDINATES ARE GIVEN IN ANGSTROM         
 *******************************************************************************

 GCALCO - MAX INDICES DIRECT LATTICE VECTOR    12    12    21
 NO.OF VECTORS CREATED 6999 STARS 3500 RMAX   260.07972 BOHR

 GEOMETRY FOR WAVE FUNCTION - DIMENSIONALITY OF THE SYSTEM    3
 (NON PERIODIC DIRECTION: LATTICE PARAMETER FORMALLY SET TO 500)
 *******************************************************************************
 LATTICE PARAMETERS (ANGSTROMS AND DEGREES) - BOHR = 0.5291772083 ANGSTROM
 PRIMITIVE CELL - CENTRING CODE 1/0 VOLUME=  1563.852384 - DENSITY  0.828 g/cm^3
         A              B              C           ALPHA      BETA       GAMMA 
    15.02361100    15.02391600     8.00000000    90.000323  89.999944 119.995964
 *******************************************************************************
 ATOMS IN THE ASYMMETRIC UNIT   84 - ATOMS IN THE UNIT CELL:   84
     ATOM                 X/A                 Y/B                 Z/C    
 *******************************************************************************
      1 T   5 B    -3.863194600000E-01  2.273182200000E-01  2.505970900000E-01
      2 T   5 B    -2.326263500000E-01 -4.652643100000E-01 -2.494029100000E-01
      3 T   5 B    -2.272638000000E-01  3.863778800000E-01  2.505971000000E-01
      4 T   5 B    -7.357069000000E-02 -3.062046500000E-01 -2.494029000000E-01
      5 T   5 B    -3.863237300000E-01  3.863606700000E-01  2.493417000000E-01
      6 T   5 B    -2.326306200000E-01 -3.062218600000E-01 -2.506583000000E-01
      7 T   5 B     2.272552500000E-01 -3.863667800000E-01  2.505970900000E-01
      8 T   5 B     3.809483600000E-01 -7.894931000000E-02 -2.494029100000E-01
      9 T   5 B     3.863632200000E-01 -3.863875500000E-01  2.505970900000E-01
     10 T   5 B    -4.599436700000E-01 -7.897008000000E-02 -2.494029100000E-01
     11 T   5 B     3.863435000000E-01 -2.272483500000E-01  2.493417000000E-01
     12 T   5 B    -4.599633900000E-01  8.016912000000E-02 -2.506583000000E-01
     13 T   1 H    -9.695638000000E-02  3.089300500000E-01  2.479944000000E-01
     14 T   1 H     5.673673000000E-02 -3.836524800000E-01 -2.520056000000E-01
     15 T   1 H     9.663453000000E-02 -3.089465600000E-01  2.475964000000E-01
     16 T   1 H     2.503276400000E-01 -1.529090000000E-03 -2.524035900000E-01
     17 T   1 H    -9.702858000000E-02 -4.059275700000E-01  2.475351600000E-01
     18 T   1 H     5.666453000000E-02 -9.851010000000E-02 -2.524648400000E-01
     19 T   1 H     9.673618000000E-02  4.056849400000E-01  2.475504300000E-01
     20 T   1 H     2.504292900000E-01 -2.868975900000E-01 -2.524495700000E-01
     21 T   1 H    -3.089676000000E-01  9.700412000000E-02  2.520056200000E-01
     22 T   1 H    -1.552744900000E-01  4.044215900000E-01 -2.479943900000E-01
     23 T   1 H     3.089297200000E-01 -9.656269000000E-02  2.524036400000E-01
     24 T   1 H     4.626228300000E-01  2.108547800000E-01 -2.475963600000E-01
     25 T   1 H     4.058699900000E-01  9.704998000000E-02  2.524649300000E-01
     26 T   1 H    -4.404369000000E-01  4.044674500000E-01 -2.475350700000E-01
     27 T   1 H    -4.056877900000E-01 -9.665268000000E-02  2.524495500000E-01
     28 T   1 H    -2.519946800000E-01  2.107647900000E-01 -2.475504500000E-01
     29 T   1 H    -3.089272600000E-01 -4.059457900000E-01  2.479944200000E-01
     30 T   1 H    -1.552341500000E-01 -9.852832000000E-02 -2.520055700000E-01
     31 T   1 H     3.089618300000E-01  4.056093300000E-01  2.475963800000E-01
     32 T   1 H     4.626549400000E-01 -2.869732000000E-01 -2.524036200000E-01
     33 T   1 H     4.058405700000E-01  3.088232500000E-01  2.475351100000E-01
     34 T   1 H    -4.404663200000E-01 -3.837592800000E-01 -2.524649000000E-01
     35 T   1 H    -4.057091200000E-01 -3.090420700000E-01  2.475504800000E-01
     36 T   1 H    -2.520160100000E-01 -1.624600000000E-03 -2.524495200000E-01
     37 T   6 C    -1.081096900000E-01  4.459436900000E-01  2.492957700000E-01
     38 T   6 C     4.558342000000E-02 -2.466388400000E-01 -2.507042300000E-01
     39 T   6 C    -5.351089000000E-02  3.927856300000E-01  2.480556500000E-01
     40 T   6 C     1.001822200000E-01 -2.997969000000E-01 -2.519443500000E-01
     41 T   6 C     5.338812000000E-02 -3.928147000000E-01  2.479485200000E-01
     42 T   6 C     2.070812300000E-01 -8.539723000000E-02 -2.520514800000E-01
     43 T   6 C    -5.354789000000E-02 -4.463078100000E-01  2.482700300000E-01
     44 T   6 C     1.001452200000E-01 -1.388903400000E-01 -2.517299700000E-01
     45 T   6 C     5.342634000000E-02  4.462499700000E-01  2.474432600000E-01
     46 T   6 C     2.071194500000E-01 -2.463325600000E-01 -2.525567400000E-01
     47 T   6 C     1.080358900000E-01 -4.459643700000E-01  2.482853200000E-01
     48 T   6 C     2.617290000000E-01 -1.385469000000E-01 -2.517146800000E-01
     49 T   6 C    -4.459605800000E-01  1.081684600000E-01  2.507042700000E-01
     50 T   6 C    -2.922674700000E-01  4.155859300000E-01 -2.492957300000E-01
     51 T   6 C    -3.928221500000E-01  5.355594000000E-02  2.519443600000E-01
     52 T   6 C    -2.391290400000E-01  3.609734100000E-01 -2.480556400000E-01
     53 T   6 C     3.927986700000E-01 -5.333684000000E-02  2.520515300000E-01
     54 T   6 C    -4.535082200000E-01  2.540806300000E-01 -2.479484700000E-01
     55 T   6 C     4.462875800000E-01  5.360286000000E-02  2.517300400000E-01
     56 T   6 C    -4.000193100000E-01  3.610203300000E-01 -2.482699600000E-01
     57 T   6 C    -4.462831500000E-01 -5.337644000000E-02  2.525567400000E-01
     58 T   6 C    -2.925900400000E-01  2.540410300000E-01 -2.474432600000E-01
     59 T   6 C     4.459279100000E-01 -1.080079400000E-01  2.517147100000E-01
     60 T   6 C    -4.003789800000E-01  1.994095300000E-01 -2.482852900000E-01
     61 T   6 C    -4.459551300000E-01  4.458745500000E-01  2.492957600000E-01
     62 T   6 C    -2.922620200000E-01 -2.467079800000E-01 -2.507042400000E-01
     63 T   6 C    -3.927897800000E-01 -4.463742200000E-01  2.480556800000E-01
     64 T   6 C    -2.390966700000E-01 -1.389567500000E-01 -2.519443200000E-01
     65 T   6 C     3.928233700000E-01  4.461720300000E-01  2.479484900000E-01
     66 T   6 C    -4.534835200000E-01 -2.464105000000E-01 -2.520515100000E-01
     67 T   6 C     4.462872600000E-01  3.926899900000E-01  2.482699900000E-01
     68 T   6 C    -4.000196300000E-01 -2.998925400000E-01 -2.517300100000E-01
     69 T   6 C    -4.462570400000E-01 -3.929020000000E-01  2.474433000000E-01
     70 T   6 C    -2.925639300000E-01 -8.548453000000E-02 -2.525567000000E-01
     71 T   6 C     4.459599800000E-01 -4.460417700000E-01  2.482853200000E-01
     72 T   6 C    -4.003469100000E-01 -1.386243000000E-01 -2.517146800000E-01
     73 T   8 O    -4.392633200000E-01  2.803706300000E-01  2.496785000000E-01
     74 T   8 O    -2.855702100000E-01 -4.122119000000E-01 -2.503215000000E-01
     75 T   8 O    -2.803183000000E-01  2.803783300000E-01  2.523271000000E-01
     76 T   8 O    -1.266251900000E-01 -4.122042000000E-01 -2.476729100000E-01
     77 T   8 O    -2.803205800000E-01  4.393234600000E-01  2.483312600000E-01
     78 T   8 O    -1.266274700000E-01 -2.532590700000E-01 -2.516687400000E-01
     79 T   8 O     2.803245100000E-01 -2.803488900000E-01  2.496785200000E-01
     80 T   8 O     4.340176200000E-01  2.706858000000E-02 -2.503214800000E-01
     81 T   8 O     2.803439700000E-01 -4.393043900000E-01  2.523270900000E-01
     82 T   8 O     4.340370800000E-01 -1.318869200000E-01 -2.476729100000E-01
     83 T   8 O     4.392638400000E-01 -2.803645800000E-01  2.483312500000E-01
     84 T   8 O    -4.070430500000E-01  2.705289000000E-02 -2.516687500000E-01

 T = ATOM BELONGING TO THE ASYMMETRIC UNIT

 ****    1 SYMMOPS - TRANSLATORS IN FRACTIONAL UNITS
 **** MATRICES AND TRANSLATORS IN THE CRYSTALLOGRAPHIC REFERENCE FRAME
   V INV                    ROTATION MATRICES                   TRANSLATORS
   1   1  1.00  0.00  0.00  0.00  1.00  0.00 -0.00 -0.00  1.00  0.00  0.00  0.00

 DIRECT LATTICE VECTORS CARTESIAN COMPONENTS (ANGSTROM)
          X                    Y                    Z
   0.130113578931E+02  -0.751088897922E+01   0.000000000000E+00
   0.000000000000E+00   0.150239160000E+02   0.000000000000E+00
  -0.170055388808E-04  -0.450993078697E-04   0.799999999985E+01


 CARTESIAN COORDINATES - PRIMITIVE CELL
 *******************************************************************************
 *      ATOM          X(ANGSTROM)         Y(ANGSTROM)         Z(ANGSTROM)
 *******************************************************************************
    1     5 B    -5.026545016651E+00  6.316801115365E+00  2.004776719964E+00
    2     5 B    -3.026780453975E+00 -5.242849974849E+00 -1.995223279964E+00
    3     5 B    -2.957014899475E+00  7.511850682417E+00  2.004776799964E+00
    4     5 B    -9.572503367984E-01 -4.047800407797E+00 -1.995223199964E+00
    5     5 B    -5.026600553801E+00 -6.317642347288E+00  1.994733599964E+00
    6     5 B    -3.026835991124E+00 -2.853377437502E+00 -2.005266399964E+00
    7     5 B     2.956895129287E+00 -7.511642302360E+00  2.004776719964E+00
    8     5 B     4.956659691964E+00 -4.047377392574E+00 -1.995223279964E+00
    9     5 B     5.027105870595E+00  6.316919352526E+00  2.004776719964E+00
   10     5 B    -5.984487459785E+00  2.268157241529E+00 -1.995223279964E+00
   11     5 B     5.026849307966E+00 -6.315954503019E+00  1.994733599964E+00
   12     5 B     7.026613870642E+00 -2.851689593233E+00 -2.005266399964E+00
   13     1 H    -1.261538377474E+00  5.369556542707E+00  1.983955199964E+00
   14     1 H     7.382261852027E-01 -6.190094547507E+00 -2.016044799963E+00
   15     1 H     1.257342244147E+00 -5.367409558744E+00  1.980771199964E+00
   16     1 H     3.257106806823E+00 -1.903144648958E+00 -2.019228719963E+00
   17     1 H    -1.262477789704E+00 -5.369861985237E+00  1.980281279964E+00
   18     1 H     7.372867729725E-01 -1.905597075452E+00 -2.019718719963E+00
   19     1 H     1.258664849459E+00  5.368390588418E+00  1.980403439964E+00
   20     1 H     3.258429412135E+00 -6.191260501796E+00 -2.019596559963E+00
   21     1 H    -4.020092306450E+00  3.777991727030E+00  2.016044959963E+00
   22     1 H    -2.020327743774E+00  7.242256636816E+00 -1.983955119964E+00
   23     1 H     4.019590858462E+00 -3.771097955824E+00  2.019229119963E+00
   24     1 H     6.019355421138E+00 -3.068330460380E-01 -1.980770879964E+00
   25     1 H     5.280915404639E+00 -1.590385073558E+00  2.019719439963E+00
   26     1 H     7.280679967315E+00  1.873879836228E+00 -1.980280559964E+00
   27     1 H    -5.278553321574E+00  1.594962820119E+00  2.019596399963E+00
   28     1 H    -3.278788758897E+00  5.059227729905E+00 -1.980403599964E+00
   29     1 H    -4.019567360060E+00 -3.778588281377E+00  1.983955359964E+00
   30     1 H    -2.019802797384E+00 -3.143233715913E-01 -2.016044559963E+00
   31     1 H     4.020008734914E+00  3.773251332365E+00  1.980771039964E+00
   32     1 H    -6.991584595466E+00 -2.755107786322E-01 -2.019228959963E+00
   33     1 H     5.280532694324E+00  1.591499938653E+00  1.980280879964E+00
   34     1 H    -5.731060636056E+00 -2.457262172344E+00 -2.019719199963E+00
   35     1 H    -5.278830770526E+00 -1.595797106326E+00  1.980403839964E+00
   36     1 H    -3.279066207850E+00  1.868467803460E+00 -2.019596159963E+00
   37     6 C    -1.406658107706E+00  7.511809175391E+00  1.994366159964E+00
   38     6 C     5.931064549700E-01 -4.047841914823E+00 -2.005633839964E+00
   39     6 C    -6.962535592860E-01  6.303081477958E+00  1.984445199964E+00
   40     6 C     1.303511003390E+00 -5.256569612256E+00 -2.015554799963E+00
   41     6 C     6.946477200593E-01 -6.302618480801E+00  1.983588159964E+00
   42     6 C     2.694412282736E+00 -2.838353571015E+00 -2.016411839963E+00
   43     6 C    -6.967349831737E-01 -6.303109987529E+00  1.986160239964E+00
   44     6 C     1.303029579503E+00 -2.838845077743E+00 -2.013839759963E+00
   45     6 C     6.951450227501E-01  6.303131596457E+00  1.979546079964E+00
   46     6 C     2.694909585427E+00 -5.256519493757E+00 -2.020453919963E+00
   47     6 C     1.405689407859E+00 -7.511588006930E+00  1.986282559964E+00
   48     6 C     3.405453970536E+00 -4.047323097144E+00 -2.013717439963E+00
   49     6 C     7.208800917120E+00 -2.536226023429E+00  2.005634159964E+00
   50     6 C    -3.802792413260E+00 -6.584988134427E+00 -1.994365839964E+00
   51     6 C    -5.111153866420E+00  3.755052138572E+00  2.015554879963E+00
   52     6 C    -3.111389303743E+00  7.219317048358E+00 -1.984445119964E+00
   53     6 C     5.110839789015E+00 -3.751606772769E+00  2.016412239963E+00
   54     6 C     7.110604351691E+00 -2.873418629829E-01 -1.983587759964E+00
   55     6 C     5.806803145801E+00 -2.546702953034E+00  2.013840319963E+00
   56     6 C     7.806567708477E+00  9.175619567520E-01 -1.986159679964E+00
   57     6 C    -5.806754081154E+00  2.550048651872E+00  2.020453919963E+00
   58     6 C    -3.806989518478E+00  6.014313561658E+00 -1.979546079964E+00
   59     6 C     5.802123350968E+00 -4.972028594796E+00  2.013717679963E+00
   60     6 C     7.801887913645E+00 -1.507763685010E+00 -1.986282319964E+00
   61     6 C     7.208871852973E+00  2.537401034597E+00  1.994366079964E+00
   62     6 C    -3.802721477407E+00 -1.511361076400E+00 -2.005633919964E+00
   63     6 C    -5.110732622635E+00 -3.756099543234E+00  1.984445439964E+00
   64     6 C    -3.110968059959E+00 -2.918346334482E-01 -2.015554559963E+00
   65     6 C     5.111161239329E+00  3.752787197453E+00  1.983587919964E+00
   66     6 C    -5.900432091051E+00 -2.959749135451E-01 -2.016412079963E+00
   67     6 C     5.806799041007E+00  2.547716164297E+00  1.986159919964E+00
   68     6 C    -5.204794289374E+00 -1.501045946700E+00 -2.013840079963E+00
   69     6 C    -5.806414267643E+00 -2.551150720120E+00  1.979546399964E+00
   70     6 C    -3.806649704966E+00  9.131141896661E-01 -2.020453599963E+00
   71     6 C     5.802540683535E+00  4.973054818579E+00  1.986282559964E+00
   72     6 C    -5.209052646846E+00  9.242927075814E-01 -2.013717439963E+00
   73     8 O     7.295941381327E+00  6.225836051150E-04  1.997427999964E+00
   74     8 O    -3.715651949053E+00 -4.048139527392E+00 -2.002571999964E+00
   75     8 O    -3.647326016232E+00  6.317808728505E+00  2.018616799963E+00
   76     8 O    -1.647561453555E+00 -5.241842361708E+00 -1.981383279964E+00
   77     8 O    -3.647355614176E+00 -6.318111684729E+00  1.986650079964E+00
   78     8 O    -1.647591051500E+00 -2.853846774943E+00 -2.013349919963E+00
   79     8 O     3.647398279888E+00 -6.317435707145E+00  1.997428159964E+00
   80     8 O     5.647162842564E+00 -2.853170797359E+00 -2.002571839964E+00
   81     8 O     3.647651435872E+00  6.318199931769E+00  2.018616719963E+00
   82     8 O     5.647415998549E+00 -5.241451158445E+00 -1.981383279964E+00
   83     8 O    -7.295943084345E+00 -5.580544706205E-04  1.986649999964E+00
   84     8 O    -5.296178521669E+00  3.463706855315E+00 -2.013349999963E+00

 *******************************************************************************
 STARTING BASIS SET HANDLING 
 *******************************************************************************

 Loading internal basis set: SOLDEF2MSVP         

 Please cite in your publication:
 L. Dona', J. G. Brandenburg and B. Civalleri, J. Chem. Phys., 151, 121101 (2019
 )                                                                              
                                                                                
                    

 *******************************************************************************
 LOCAL ATOMIC FUNCTIONS BASIS SET
 *******************************************************************************
   ATOM   X(AU)   Y(AU)   Z(AU)  N. TYPE  EXPONENT  S COEF   P COEF   D/F/G COEF
 *******************************************************************************
   1 B   -9.499  11.937   3.788
                                  1 S  
                                         2.410E+03 1.755E-03 0.000E+00 0.000E+00
                                         3.619E+02 1.344E-02 0.000E+00 0.000E+00
                                         8.231E+01 6.637E-02 0.000E+00 0.000E+00
                                         2.311E+01 2.303E-01 0.000E+00 0.000E+00
                                         7.252E+00 5.150E-01 0.000E+00 0.000E+00
                                  2 S  
                                         2.367E+00 1.000E+00 0.000E+00 0.000E+00
                                  3 S  
                                         5.533E-01 1.000E+00 0.000E+00 0.000E+00
                                  4 S  
                                         1.716E-01 1.000E+00 0.000E+00 0.000E+00
                           5-     7 P  
                                         6.002E+00 0.000E+00-3.555E-02 0.000E+00
                                         1.240E+00 0.000E+00-1.983E-01 0.000E+00
                                         3.367E-01 0.000E+00-5.048E-01 0.000E+00
                           8-    10 P  
                                         1.256E-01 0.000E+00 1.000E+00 0.000E+00
                          11-    15 D  
                                         8.880E-01 0.000E+00 0.000E+00 1.000E+00
   2 B   -5.720  -9.908  -3.770
   3 B   -5.588  14.195   3.788
   4 B   -1.809  -7.649  -3.770
   5 B   -9.499 -11.939   3.770
   6 B   -5.720  -5.392  -3.789
   7 B    5.588 -14.195   3.788
   8 B    9.367  -7.648  -3.770
   9 B    9.500  11.937   3.788
  10 B  -11.309   4.286  -3.770
  11 B    9.499 -11.935   3.770
  12 B   13.278  -5.389  -3.789
  13 H   -2.384  10.147   3.749
                                181 S  
                                         1.874E+01 1.968E-02 0.000E+00 0.000E+00
                                         2.826E+00 1.380E-01 0.000E+00 0.000E+00
                                         6.401E-01 4.783E-01 0.000E+00 0.000E+00
                                182 S  
                                         1.756E-01 1.000E+00 0.000E+00 0.000E+00
  14 H    1.395 -11.698  -3.810
  15 H    2.376 -10.143   3.743
  16 H    6.155  -3.596  -3.816
  17 H   -2.386 -10.148   3.742
  18 H    1.393  -3.601  -3.817
  19 H    2.379  10.145   3.742
  20 H    6.158 -11.700  -3.816
  21 H   -7.597   7.139   3.810
  22 H   -3.818  13.686  -3.749
  23 H    7.596  -7.126   3.816
  24 H   11.375  -0.580  -3.743
  25 H    9.979  -3.005   3.817
  26 H   13.758   3.541  -3.742
  27 H   -9.975   3.014   3.816
  28 H   -6.196   9.561  -3.742
  29 H   -7.596  -7.140   3.749
  30 H   -3.817  -0.594  -3.810
  31 H    7.597   7.130   3.743
  32 H  -13.212  -0.521  -3.816
  33 H    9.979   3.007   3.742
  34 H  -10.830  -4.644  -3.817
  35 H   -9.976  -3.016   3.742
  36 H   -6.197   3.531  -3.816
  37 C   -2.658  14.195   3.769
                                229 S  
                                         3.624E+03 1.634E-03 0.000E+00 0.000E+00
                                         5.440E+02 1.252E-02 0.000E+00 0.000E+00
                                         1.237E+02 6.211E-02 0.000E+00 0.000E+00
                                         3.476E+01 2.182E-01 0.000E+00 0.000E+00
                                         1.093E+01 4.980E-01 0.000E+00 0.000E+00
                                230 S  
                                         3.574E+00 1.000E+00 0.000E+00 0.000E+00
                                231 S  
                                         7.742E-01 1.000E+00 0.000E+00 0.000E+00
                                232 S  
                                         2.330E-01 1.000E+00 0.000E+00 0.000E+00
                         233-   235 P  
                                         9.443E+00 0.000E+00 3.790E-02 0.000E+00
                                         2.002E+00 0.000E+00 2.082E-01 0.000E+00
                                         5.463E-01 0.000E+00 5.047E-01 0.000E+00
                         236-   238 P  
                                         1.820E-01 0.000E+00 1.000E+00 0.000E+00
                         239-   243 D  
                                         8.880E-01 0.000E+00 0.000E+00 1.000E+00
  38 C    1.121  -7.649  -3.790
  39 C   -1.316  11.911   3.750
  40 C    2.463  -9.933  -3.809
  41 C    1.313 -11.910   3.748
  42 C    5.092  -5.364  -3.810
  43 C   -1.317 -11.911   3.753
  44 C    2.462  -5.365  -3.806
  45 C    1.314  11.911   3.741
  46 C    5.093  -9.933  -3.818
  47 C    2.656 -14.195   3.754
  48 C    6.435  -7.648  -3.805
  49 C   13.623  -4.793   3.790
  50 C   -7.186 -12.444  -3.769
  51 C   -9.659   7.096   3.809
  52 C   -5.880  13.643  -3.750
  53 C    9.658  -7.090   3.810
  54 C   13.437  -0.543  -3.748
  55 C   10.973  -4.813   3.806
  56 C   14.752   1.734  -3.753
  57 C  -10.973   4.819   3.818
  58 C   -7.194  11.365  -3.741
  59 C   10.964  -9.396   3.805
  60 C   14.743  -2.849  -3.754
  61 C   13.623   4.795   3.769
  62 C   -7.186  -2.856  -3.790
  63 C   -9.658  -7.098   3.750
  64 C   -5.879  -0.551  -3.809
  65 C    9.659   7.092   3.748
  66 C  -11.150  -0.559  -3.810
  67 C   10.973   4.814   3.753
  68 C   -9.836  -2.837  -3.806
  69 C  -10.973  -4.821   3.741
  70 C   -7.194   1.726  -3.818
  71 C   10.965   9.398   3.754
  72 C   -9.844   1.747  -3.805
  73 O   13.787   0.001   3.775
                                769 S  
                                         6.773E+03 1.727E-03 0.000E+00 0.000E+00
                                         1.017E+03 1.325E-02 0.000E+00 0.000E+00
                                         2.313E+02 6.603E-02 0.000E+00 0.000E+00
                                         6.501E+01 2.353E-01 0.000E+00 0.000E+00
                                         2.050E+01 5.498E-01 0.000E+00 0.000E+00
                                770 S  
                                         6.716E+00 1.000E+00 0.000E+00 0.000E+00
                                771 S  
                                         1.147E+00 1.000E+00 0.000E+00 0.000E+00
                                772 S  
                                         3.342E-01 1.000E+00 0.000E+00 0.000E+00
                         773-   775 P  
                                         1.769E+01 0.000E+00 4.359E-02 0.000E+00
                                         3.854E+00 0.000E+00 2.318E-01 0.000E+00
                                         1.047E+00 0.000E+00 5.146E-01 0.000E+00
                         776-   778 P  
                                         2.759E-01 0.000E+00 1.000E+00 0.000E+00
                         779-   783 D  
                                         8.000E-01 0.000E+00 0.000E+00 1.000E+00
  74 O   -7.022  -7.650  -3.784
  75 O   -6.892  11.939   3.815
  76 O   -3.113  -9.906  -3.744
  77 O   -6.893 -11.940   3.754
  78 O   -3.113  -5.393  -3.805
  79 O    6.893 -11.938   3.775
  80 O   10.672  -5.392  -3.784
  81 O    6.893  11.940   3.815
  82 O   10.672  -9.905  -3.744
  83 O  -13.787  -0.001   3.754
  84 O  -10.008   6.545  -3.805

 *******************************************************************************
 FINISHED BASIS SET HANDLING 
 *******************************************************************************

 INFORMATION **** SET_MPP **** PCRYSTAL CALCULATION
 INFORMATION **** READM2 **** NEW DEFAULT: FOCK/KS MATRIX MIXING SET TO 30 %
 INFORMATION **** READM2 **** NEW DEFAULT: FULL DIRECT SCF MODE
 INFORMATION **** READM2 **** NEW DEFAULT: COULOMB BIPOLAR BUFFER SET TO 32 Mb
 INFORMATION **** READM2 **** NEW DEFAULT: EXCHANGE BIPOLAR BUFFER SET TO 32 Mb

 *******************************************************************************
 NEW DEFAULT: DFT INTEGRATION GRID INCREASED TO XLGRID
 NEW DEFAULT: DIIS ACCELERATOR ACTIVE
 USE KEYWORD NODIIS TO TURN IT OFF
 *******************************************************************************

 WARNING **** RDDFTP **** HSEsol-HJS ACTIVE
 RANGE SEPARATION - OMEGA:   0.110000000000000     
 WARNING **** RDDFTP **** HSEsol-3c has to be combined with sol-def2-mSVP basis set
 *******************************************************************************
 N. OF ATOMS PER CELL        84  COULOMB OVERLAP TOL         (T1) 10**   -6
 NUMBER OF SHELLS           468  COULOMB PENETRATION TOL     (T2) 10**   -6
 NUMBER OF AO               948  EXCHANGE OVERLAP TOL        (T3) 10**   -6
 N. OF ELECTRONS PER CELL   396  EXCHANGE PSEUDO OVP (F(G))  (T4) 10**   -6
 CORE ELECTRONS PER CELL    120  EXCHANGE PSEUDO OVP (P(G))  (T5) 10**  -12
 N. OF SYMMETRY OPERATORS     1  POLE ORDER IN MONO ZONE                  4
 *******************************************************************************
 TYPE OF CALCULATION :  RESTRICTED CLOSED SHELL
 KOHN-SHAM HAMILTONIAN

 (EXCHANGE)[CORRELATION] FUNCTIONAL:(HSEsol GGA)[PBEsol]

 RANGE-SEPARATED HYBRID FUNCTIONAL 
 OMEGA (SHORT-RANGE)[LONG-RANGE]:(    0.1100)[    0.0000]

 HYBRID EXCHANGE - PERCENTAGE OF FOCK EXCHANGE    25.0000

 CAPPA:IS1  2;IS2  2;IS3  8; K PTS MONK NET  20; SYMMOPS:K SPACE   2;G SPACE   1

 *******************************************************************************
 MAX NUMBER OF SCF CYCLES      50  CONVERGENCE ON DELTAP        10**-16
 WEIGHT OF F(I) IN F(I+1)      30% CONVERGENCE ON ENERGY        10**- 6
 SHRINK. FACT.(MONKH.)    2  2  8  NUMBER OF K POINTS IN THE IBZ     20
 SHRINKING FACTOR(GILAT NET)    8  NUMBER OF K POINTS(GILAT NET)   1028
 *******************************************************************************
 *** K POINTS COORDINATES (OBLIQUE COORDINATES IN UNITS OF IS =  2)
   1-R(  0  0  0)   2-R(  1  0  0)   3-R(  0  1  0)   4-R(  1  1  0)
   5-C(  0  0  1)   6-C(  1  0  1)   7-C(  0  1  1)   8-C(  1  1  1)
   9-C(  0  0  2)  10-C(  1  0  2)  11-C(  0  1  2)  12-C(  1  1  2)
  13-C(  0  0  3)  14-C(  1  0  3)  15-C(  0  1  3)  16-C(  1  1  3)
  17-R(  0  0  4)  18-R(  1  0  4)  19-R(  0  1  4)  20-R(  1  1  4)

 DIRECT LATTICE VECTORS COMPON. (A.U.)     RECIP. LATTICE VECTORS COMPON. (A.U.) 
        X            Y            Z              X            Y            Z
   24.5879030  -14.1935232    0.0000000      0.2555397    0.0000000    0.0000005
    0.0000000   28.3910867    0.0000000      0.1277517    0.2213084    0.0000015
   -0.0000321   -0.0000852   15.1178091      0.0000000    0.0000000    0.4156148

 DISK SPACE FOR EIGENVECTORS (FTN 10)    28758528 REALS

 SYMMETRY ADAPTION OF THE BLOCH FUNCTIONS DISABLED
 TTTTTTTTTTTTTTTTTTTTTTTTTTTTTT gordsh1     TELAPSE        0.05 TCPU        0.05

 MATRIX SIZE: P(G)  632664, F(G)  128026, P(G) IRR  318270, F(G) IRR  128986
 MAX G-VECTOR INDEX FOR 1- AND 2-ELECTRON INTEGRALS  43

 TTTTTTTTTTTTTTTTTTTTTTTTTTTTTT INPUT       TELAPSE        2.52 TCPU        2.52

 NEIGHBORS OF THE NON-EQUIVALENT ATOMS

 N = NUMBER OF NEIGHBORS AT DISTANCE R
    ATOM  N     R/ANG      R/AU   NEIGHBORS (ATOM LABELS AND CELL INDICES)
   1 B    1     1.3791     2.6061   73 O   -1 0 0
   1 B    1     1.3793     2.6065   75 O    0 0 0
   1 B    1     1.5503     2.9297   49 C   -1 0 0
   1 B    1     2.3895     4.5155    5 B    0 1 0
   1 B    1     2.3898     4.5160    3 B    0 0 0
   1 B    1     2.5632     4.8437   51 C    0 0 0

   2 B    1     1.3791     2.6061   74 O    0 0 0
   2 B    1     1.3793     2.6065   76 O    0 0 0
   2 B    1     1.5503     2.9297   50 C    0 0 0
   2 B    1     2.3895     4.5155    6 B    0 0 0
   2 B    1     2.3898     4.5160    4 B    0 0 0
   2 B    1     2.5632     4.8437   52 C    0-1 0

   3 B    1     1.3793     2.6065   77 O    0 1 0
   3 B    1     1.3793     2.6065   75 O    0 0 0
   3 B    1     1.5504     2.9298   37 C    0 0 0
   3 B    1     2.3895     4.5156    5 B    0 1 0
   3 B    1     2.3898     4.5160    1 B    0 0 0
   3 B    1     2.5634     4.8440   43 C    0 1 0

   4 B    1     1.3793     2.6065   78 O    0 0 0
   4 B    1     1.3793     2.6065   76 O    0 0 0
   4 B    1     1.5504     2.9298   38 C    0 0 0
   4 B    1     2.3895     4.5156    6 B    0 0 0
   4 B    1     2.3898     4.5160    2 B    0 0 0
   4 B    1     2.5634     4.8440   44 C    0 0 0

   5 B    1     1.3791     2.6061   73 O   -1-1 0
   5 B    1     1.3793     2.6064   77 O    0 0 0
   5 B    1     1.5502     2.9294   61 C   -1-1 0
   5 B    1     2.3895     4.5155    1 B    0-1 0
   5 B    1     2.3895     4.5156    3 B    0-1 0
   5 B    1     2.5629     4.8433   63 C    0 0 0

   6 B    1     1.3791     2.6061   74 O    0 0 0
   6 B    1     1.3793     2.6064   78 O    0 0 0
   6 B    1     1.5502     2.9294   62 C    0 0 0
   6 B    1     2.3895     4.5155    2 B    0 0 0
   6 B    1     2.3895     4.5156    4 B    0 0 0
   6 B    1     2.5629     4.8433   64 C    0 0 0

   7 B    1     1.3795     2.6068   79 O    0 0 0
   7 B    1     1.3795     2.6070   81 O    0-1 0
   7 B    1     1.5513     2.9316   47 C    0 0 0
   7 B    1     2.3905     4.5174   11 B    0 0 0
   7 B    1     2.3905     4.5175    9 B    0-1 0
   7 B    1     2.5648     4.8468   45 C    0-1 0

   8 B    1     1.3795     2.6068   80 O    0 0 0
   8 B    1     1.3795     2.6070   82 O    0 0 0
   8 B    1     1.5513     2.9316   48 C    0 0 0
   8 B    1     2.3905     4.5174   12 B    0 0 0
   8 B    1     2.3905     4.5175   10 B    1 0 0
   8 B    1     2.5648     4.8468   46 C    0 0 0

   9 B    1     1.3795     2.6069   81 O    0 0 0
   9 B    1     1.3797     2.6072   83 O    1 1 0
   9 B    1     1.5516     2.9322   71 C    0 0 0
   9 B    1     2.3905     4.5175    7 B    0 1 0
   9 B    1     2.3911     4.5185   11 B    0 1 0
   9 B    1     2.5651     4.8473   69 C    1 1 0

  10 B    1     1.3795     2.6069   82 O   -1 0 0
  10 B    1     1.3797     2.6072   84 O    0 0 0
  10 B    1     1.5516     2.9322   72 C    0 0 0
  10 B    1     2.3905     4.5175    8 B   -1 0 0
  10 B    1     2.3911     4.5185   12 B   -1 0 0
  10 B    1     2.5651     4.8473   70 C    0 0 0

  11 B    1     1.3795     2.6068   79 O    0 0 0
  11 B    1     1.3796     2.6071   83 O    1 0 0
  11 B    1     1.5516     2.9322   59 C    0 0 0
  11 B    1     2.3905     4.5174    7 B    0 0 0
  11 B    1     2.3911     4.5185    9 B    0-1 0
  11 B    1     2.5651     4.8473   57 C    1 0 0

  12 B    1     1.3795     2.6068   80 O    0 0 0
  12 B    1     1.3796     2.6071   84 O    1 0 0
  12 B    1     1.5516     2.9322   60 C    0 0 0
  12 B    1     2.3905     4.5174    8 B    0 0 0
  12 B    1     2.3911     4.5185   10 B    1 0 0
  12 B    1     2.5651     4.8473   58 C    1 0 0

  13 H    1     1.0913     2.0623   39 C    0 0 0
  13 H    1     2.1472     4.0576   37 C    0 0 0
  13 H    1     2.1680     4.0969   45 C    0 0 0
  13 H    1     2.5202     4.7625   19 H    0 0 0
  13 H    1     2.5676     4.8520   75 O    0 0 0
  13 H    1     2.7321     5.1630    3 B    0 0 0

  14 H    1     1.0913     2.0623   40 C    0 0 0
  14 H    1     2.1472     4.0576   38 C    0 0 0
  14 H    1     2.1680     4.0969   46 C    0 0 0
  14 H    1     2.5202     4.7625   20 H    0 0 0
  14 H    1     2.5676     4.8520   76 O    0 0 0
  14 H    1     2.7321     5.1630    4 B    0 0 0

  15 H    1     1.0914     2.0625   41 C    0 0 0
  15 H    1     2.1493     4.0616   47 C    0 0 0
  15 H    1     2.1666     4.0942   43 C    0 0 0
  15 H    1     2.5198     4.7618   17 H    0 0 0
  15 H    1     2.5720     4.8604   79 O    0 0 0
  15 H    1     2.7362     5.1707    7 B    0 0 0

  16 H    1     1.0914     2.0625   42 C    0 0 0
  16 H    1     2.1493     4.0616   48 C    0 0 0
  16 H    1     2.1666     4.0942   44 C    0 0 0
  16 H    1     2.5198     4.7618   18 H    0 0 0
  16 H    1     2.5720     4.8604   80 O    0 0 0
  16 H    1     2.7362     5.1707    8 B    0 0 0

  17 H    1     1.0914     2.0624   43 C    0 0 0
  17 H    1     2.1471     4.0575   37 C    0-1 0
  17 H    1     2.1680     4.0970   41 C    0 0 0
  17 H    1     2.5198     4.7618   15 H    0 0 0
  17 H    1     2.5665     4.8500   77 O    0 0 0
  17 H    1     2.7315     5.1618    3 B    0-1 0

  18 H    1     1.0914     2.0624   44 C    0 0 0
  18 H    1     2.1471     4.0575   38 C    0 0 0
  18 H    1     2.1680     4.0970   42 C    0 0 0
  18 H    1     2.5198     4.7618   16 H    0 0 0
  18 H    1     2.5665     4.8500   78 O    0 0 0
  18 H    1     2.7315     5.1618    4 B    0 0 0

  19 H    1     1.0915     2.0626   45 C    0 0 0
  19 H    1     2.1490     4.0610   47 C    0 1 0
  19 H    1     2.1669     4.0948   39 C    0 0 0
  19 H    1     2.5202     4.7625   13 H    0 0 0
  19 H    1     2.5712     4.8588   81 O    0 0 0
  19 H    1     2.7351     5.1686    7 B    0 1 0

  20 H    1     1.0915     2.0626   46 C    0 0 0
  20 H    1     2.1490     4.0610   48 C    0 0 0
  20 H    1     2.1669     4.0948   40 C    0 0 0
  20 H    1     2.5202     4.7625   14 H    0 0 0
  20 H    1     2.5712     4.8588   82 O    0 0 0
  20 H    1     2.7351     5.1686    8 B    0 0 0

  21 H    1     1.0913     2.0623   51 C    0 0 0
  21 H    1     2.1469     4.0571   49 C   -1 0 0
  21 H    1     2.1680     4.0968   57 C    0 0 0
  21 H    1     2.5198     4.7617   27 H    0 0 0
  21 H    1     2.5670     4.8510   75 O    0 0 0
  21 H    1     2.7310     5.1609    1 B    0 0 0

  22 H    1     1.0913     2.0623   52 C    0 0 0
  22 H    1     2.1469     4.0571   50 C    0 1 0
  22 H    1     2.1680     4.0968   58 C    0 0 0
  22 H    1     2.5198     4.7617   28 H    0 0 0
  22 H    1     2.5670     4.8510   76 O    0 1 0
  22 H    1     2.7310     5.1609    2 B    0 1 0

  23 H    1     1.0914     2.0625   53 C    0 0 0
  23 H    1     2.1493     4.0617   59 C    0 0 0
  23 H    1     2.1664     4.0939   55 C    0 0 0
  23 H    1     2.5192     4.7606   25 H    0 0 0
  23 H    1     2.5735     4.8632   79 O    0 0 0
  23 H    1     2.7371     5.1723   11 B    0 0 0

  24 H    1     1.0914     2.0625   54 C    0 0 0
  24 H    1     2.1493     4.0617   60 C    0 0 0
  24 H    1     2.1664     4.0939   56 C    0 0 0
  24 H    1     2.5192     4.7606   26 H    0 0 0
  24 H    1     2.5735     4.8632   80 O    0 0 0
  24 H    1     2.7371     5.1723   12 B    0 0 0

  25 H    1     1.0914     2.0624   55 C    0 0 0
  25 H    1     2.1475     4.0581   49 C    0 0 0
  25 H    1     2.1679     4.0967   53 C    0 0 0
  25 H    1     2.5192     4.7606   23 H    0 0 0
  25 H    1     2.5675     4.8519   73 O    0 0 0
  25 H    1     2.7328     5.1643    1 B    1 0 0

  26 H    1     1.0914     2.0624   56 C    0 0 0
  26 H    1     2.1475     4.0581   50 C    1 1 0
  26 H    1     2.1679     4.0967   54 C    0 0 0
  26 H    1     2.5192     4.7606   24 H    0 0 0
  26 H    1     2.5675     4.8519   74 O    1 1 0
  26 H    1     2.7328     5.1643    2 B    1 1 0

  27 H    1     1.0914     2.0625   57 C    0 0 0
  27 H    1     2.1491     4.0612   59 C   -1 0 0
  27 H    1     2.1666     4.0942   51 C    0 0 0
  27 H    1     2.5198     4.7617   21 H    0 0 0
  27 H    1     2.5723     4.8609   83 O    0 0 0
  27 H    1     2.7355     5.1693   11 B   -1 0 0

  28 H    1     1.0914     2.0625   58 C    0 0 0
  28 H    1     2.1491     4.0612   60 C   -1 0 0
  28 H    1     2.1666     4.0942   52 C    0 0 0
  28 H    1     2.5198     4.7617   22 H    0 0 0
  28 H    1     2.5723     4.8609   84 O    0 0 0
  28 H    1     2.7355     5.1693   12 B   -1 0 0

  29 H    1     1.0914     2.0624   63 C    0 0 0
  29 H    1     2.1475     4.0582   61 C   -1-1 0
  29 H    1     2.1678     4.0966   69 C    0 0 0
  29 H    1     2.5200     4.7621   35 H    0 0 0
  29 H    1     2.5667     4.8503   77 O    0 0 0
  29 H    1     2.7315     5.1618    5 B    0 0 0

  30 H    1     1.0914     2.0624   64 C    0 0 0
  30 H    1     2.1475     4.0582   62 C    0 0 0
  30 H    1     2.1678     4.0966   70 C    0 0 0
  30 H    1     2.5200     4.7621   36 H    0 0 0
  30 H    1     2.5667     4.8503   78 O    0 0 0
  30 H    1     2.7315     5.1618    6 B    0 0 0

  31 H    1     1.0913     2.0623   65 C    0 0 0
  31 H    1     2.1487     4.0605   71 C    0 0 0
  31 H    1     2.1667     4.0945   67 C    0 0 0
  31 H    1     2.5197     4.7616   33 H    0 0 0
  31 H    1     2.5723     4.8610   81 O    0 0 0
  31 H    1     2.7359     5.1701    9 B    0 0 0

  32 H    1     1.0913     2.0623   66 C    0 0 0
  32 H    1     2.1487     4.0605   72 C    0 0 0
  32 H    1     2.1667     4.0945   68 C    0 0 0
  32 H    1     2.5197     4.7616   34 H    0 0 0
  32 H    1     2.5723     4.8610   82 O   -1 0 0
  32 H    1     2.7359     5.1701   10 B    0 0 0

  33 H    1     1.0915     2.0626   67 C    0 0 0
  33 H    1     2.1479     4.0589   61 C    0 0 0
  33 H    1     2.1679     4.0968   65 C    0 0 0
  33 H    1     2.5197     4.7616   31 H    0 0 0
  33 H    1     2.5677     4.8522   73 O    0 0 0
  33 H    1     2.7331     5.1648    5 B    1 1 0

  34 H    1     1.0915     2.0626   68 C    0 0 0
  34 H    1     2.1479     4.0589   62 C    0 0 0
  34 H    1     2.1679     4.0968   66 C    0 0 0
  34 H    1     2.5197     4.7616   32 H    0 0 0
  34 H    1     2.5677     4.8522   74 O    0 0 0
  34 H    1     2.7331     5.1648    6 B    0 0 0

  35 H    1     1.0914     2.0624   69 C    0 0 0
  35 H    1     2.1486     4.0602   71 C   -1-1 0
  35 H    1     2.1668     4.0947   63 C    0 0 0
  35 H    1     2.5200     4.7621   29 H    0 0 0
  35 H    1     2.5717     4.8598   83 O    0 0 0
  35 H    1     2.7349     5.1682    9 B   -1-1 0

  36 H    1     1.0914     2.0624   70 C    0 0 0
  36 H    1     2.1486     4.0602   72 C    0 0 0
  36 H    1     2.1668     4.0947   64 C    0 0 0
  36 H    1     2.5200     4.7621   30 H    0 0 0
  36 H    1     2.5717     4.8598   84 O    0 0 0
  36 H    1     2.7349     5.1682   10 B    0 0 0

  37 C    1     1.4020     2.6495   43 C    0 1 0
  37 C    1     1.4021     2.6495   39 C    0 0 0
  37 C    1     1.5504     2.9298    3 B    0 0 0
  37 C    1     2.1471     4.0575   17 H    0 1 0
  37 C    1     2.1472     4.0576   13 H    0 0 0
  37 C    1     2.4246     4.5817   41 C    0 1 0

  38 C    1     1.4020     2.6495   44 C    0 0 0
  38 C    1     1.4021     2.6495   40 C    0 0 0
  38 C    1     1.5504     2.9298    4 B    0 0 0
  38 C    1     2.1471     4.0575   18 H    0 0 0
  38 C    1     2.1472     4.0576   14 H    0 0 0
  38 C    1     2.4246     4.5817   42 C    0 0 0

  39 C    1     1.0913     2.0623   13 H    0 0 0
  39 C    1     1.3914     2.6294   45 C    0 0 0
  39 C    1     1.4021     2.6495   37 C    0 0 0
  39 C    1     2.1669     4.0948   19 H    0 0 0
  39 C    1     2.4177     4.5688   43 C    0 1 0
  39 C    1     2.4250     4.5825   47 C    0 1 0

  40 C    1     1.0913     2.0623   14 H    0 0 0
  40 C    1     1.3914     2.6294   46 C    0 0 0
  40 C    1     1.4021     2.6495   38 C    0 0 0
  40 C    1     2.1669     4.0948   20 H    0 0 0
  40 C    1     2.4177     4.5688   44 C    0 0 0
  40 C    1     2.4250     4.5825   48 C    0 0 0

  41 C    1     1.0914     2.0625   15 H    0 0 0
  41 C    1     1.3914     2.6293   43 C    0 0 0
  41 C    1     1.4026     2.6505   47 C    0 0 0
  41 C    1     2.1680     4.0970   17 H    0 0 0
  41 C    1     2.4182     4.5697   45 C    0-1 0
  41 C    1     2.4246     4.5817   37 C    0-1 0

  42 C    1     1.0914     2.0625   16 H    0 0 0
  42 C    1     1.3914     2.6293   44 C    0 0 0
  42 C    1     1.4026     2.6505   48 C    0 0 0
  42 C    1     2.1680     4.0970   18 H    0 0 0
  42 C    1     2.4182     4.5697   46 C    0 0 0
  42 C    1     2.4246     4.5817   38 C    0 0 0

  43 C    1     1.0914     2.0624   17 H    0 0 0
  43 C    1     1.3914     2.6293   41 C    0 0 0
  43 C    1     1.4020     2.6495   37 C    0-1 0
  43 C    1     2.1666     4.0942   15 H    0 0 0
  43 C    1     2.4177     4.5688   39 C    0-1 0
  43 C    1     2.4250     4.5826   47 C    0 0 0

  44 C    1     1.0914     2.0624   18 H    0 0 0
  44 C    1     1.3914     2.6293   42 C    0 0 0
  44 C    1     1.4020     2.6495   38 C    0 0 0
  44 C    1     2.1666     4.0942   16 H    0 0 0
  44 C    1     2.4177     4.5688   40 C    0 0 0
  44 C    1     2.4250     4.5826   48 C    0 0 0

  45 C    1     1.0915     2.0626   19 H    0 0 0
  45 C    1     1.3914     2.6294   39 C    0 0 0
  45 C    1     1.4025     2.6504   47 C    0 1 0
  45 C    1     2.1680     4.0969   13 H    0 0 0
  45 C    1     2.4182     4.5697   41 C    0 1 0
  45 C    1     2.4246     4.5818   37 C    0 0 0

  46 C    1     1.0915     2.0626   20 H    0 0 0
  46 C    1     1.3914     2.6294   40 C    0 0 0
  46 C    1     1.4025     2.6504   48 C    0 0 0
  46 C    1     2.1680     4.0969   14 H    0 0 0
  46 C    1     2.4182     4.5697   42 C    0 0 0
  46 C    1     2.4246     4.5818   38 C    0 0 0

  47 C    1     1.4025     2.6504   45 C    0-1 0
  47 C    1     1.4026     2.6505   41 C    0 0 0
  47 C    1     1.5513     2.9316    7 B    0 0 0
  47 C    1     2.1490     4.0610   19 H    0-1 0
  47 C    1     2.1493     4.0616   15 H    0 0 0
  47 C    1     2.4250     4.5825   39 C    0-1 0

  48 C    1     1.4025     2.6504   46 C    0 0 0
  48 C    1     1.4026     2.6505   42 C    0 0 0
  48 C    1     1.5513     2.9316    8 B    0 0 0
  48 C    1     2.1490     4.0610   20 H    0 0 0
  48 C    1     2.1493     4.0616   16 H    0 0 0
  48 C    1     2.4250     4.5825   40 C    0 0 0

  49 C    1     1.4020     2.6494   51 C    1 0 0
  49 C    1     1.4021     2.6495   55 C    0 0 0
  49 C    1     1.5503     2.9297    1 B    1 0 0
  49 C    1     2.1469     4.0571   21 H    1 0 0
  49 C    1     2.1475     4.0581   25 H    0 0 0
  49 C    1     2.4246     4.5818   53 C    0 0 0

  50 C    1     1.4020     2.6494   52 C    0-1 0
  50 C    1     1.4021     2.6495   56 C   -1-1 0
  50 C    1     1.5503     2.9297    2 B    0 0 0
  50 C    1     2.1469     4.0571   22 H    0-1 0
  50 C    1     2.1475     4.0581   26 H   -1-1 0
  50 C    1     2.4246     4.5818   54 C   -1-1 0

  51 C    1     1.0913     2.0623   21 H    0 0 0
  51 C    1     1.3914     2.6293   57 C    0 0 0
  51 C    1     1.4020     2.6494   49 C   -1 0 0
  51 C    1     2.1666     4.0942   27 H    0 0 0
  51 C    1     2.4175     4.5684   55 C   -1 0 0
  51 C    1     2.4251     4.5828   59 C   -1 0 0

  52 C    1     1.0913     2.0623   22 H    0 0 0
  52 C    1     1.3914     2.6293   58 C    0 0 0
  52 C    1     1.4020     2.6494   50 C    0 1 0
  52 C    1     2.1666     4.0942   28 H    0 0 0
  52 C    1     2.4175     4.5684   56 C   -1 0 0
  52 C    1     2.4251     4.5828   60 C   -1 0 0

  53 C    1     1.0914     2.0625   23 H    0 0 0
  53 C    1     1.3915     2.6295   55 C    0 0 0
  53 C    1     1.4026     2.6505   59 C    0 0 0
  53 C    1     2.1679     4.0967   25 H    0 0 0
  53 C    1     2.4179     4.5691   57 C    1 0 0
  53 C    1     2.4246     4.5818   49 C    0 0 0

  54 C    1     1.0914     2.0625   24 H    0 0 0
  54 C    1     1.3915     2.6295   56 C    0 0 0
  54 C    1     1.4026     2.6505   60 C    0 0 0
  54 C    1     2.1679     4.0967   26 H    0 0 0
  54 C    1     2.4179     4.5691   58 C    1 0 0
  54 C    1     2.4246     4.5818   50 C    1 1 0

  55 C    1     1.0914     2.0624   25 H    0 0 0
  55 C    1     1.3915     2.6295   53 C    0 0 0
  55 C    1     1.4021     2.6495   49 C    0 0 0
  55 C    1     2.1664     4.0939   23 H    0 0 0
  55 C    1     2.4175     4.5684   51 C    1 0 0
  55 C    1     2.4253     4.5832   59 C    0 0 0

  56 C    1     1.0914     2.0624   26 H    0 0 0
  56 C    1     1.3915     2.6295   54 C    0 0 0
  56 C    1     1.4021     2.6495   50 C    1 1 0
  56 C    1     2.1664     4.0939   24 H    0 0 0
  56 C    1     2.4175     4.5684   52 C    1 0 0
  56 C    1     2.4253     4.5832   60 C    0 0 0

  57 C    1     1.0914     2.0625   27 H    0 0 0
  57 C    1     1.3914     2.6293   51 C    0 0 0
  57 C    1     1.4025     2.6504   59 C   -1 0 0
  57 C    1     2.1680     4.0968   21 H    0 0 0
  57 C    1     2.4179     4.5691   53 C   -1 0 0
  57 C    1     2.4247     4.5819   49 C   -1 0 0

  58 C    1     1.0914     2.0625   28 H    0 0 0
  58 C    1     1.3914     2.6293   52 C    0 0 0
  58 C    1     1.4025     2.6504   60 C   -1 0 0
  58 C    1     2.1680     4.0968   22 H    0 0 0
  58 C    1     2.4179     4.5691   54 C   -1 0 0
  58 C    1     2.4247     4.5819   50 C    0 1 0

  59 C    1     1.4025     2.6504   57 C    1 0 0
  59 C    1     1.4026     2.6505   53 C    0 0 0
  59 C    1     1.5516     2.9322   11 B    0 0 0
  59 C    1     2.1491     4.0612   27 H    1 0 0
  59 C    1     2.1493     4.0617   23 H    0 0 0
  59 C    1     2.4251     4.5828   51 C    1 0 0

  60 C    1     1.4025     2.6504   58 C    1 0 0
  60 C    1     1.4026     2.6505   54 C    0 0 0
  60 C    1     1.5516     2.9322   12 B    0 0 0
  60 C    1     2.1491     4.0612   28 H    1 0 0
  60 C    1     2.1493     4.0617   24 H    0 0 0
  60 C    1     2.4251     4.5828   52 C    1 0 0

  61 C    1     1.4021     2.6496   63 C    1 1 0
  61 C    1     1.4021     2.6497   67 C    0 0 0
  61 C    1     1.5502     2.9294    5 B    1 1 0
  61 C    1     2.1475     4.0582   29 H    1 1 0
  61 C    1     2.1479     4.0589   33 H    0 0 0
  61 C    1     2.4244     4.5814   65 C    0 0 0

  62 C    1     1.4021     2.6496   64 C    0 0 0
  62 C    1     1.4021     2.6497   68 C    0 0 0
  62 C    1     1.5502     2.9294    6 B    0 0 0
  62 C    1     2.1475     4.0582   30 H    0 0 0
  62 C    1     2.1479     4.0589   34 H    0 0 0
  62 C    1     2.4244     4.5814   66 C    0 0 0

  63 C    1     1.0914     2.0624   29 H    0 0 0
  63 C    1     1.3914     2.6293   69 C    0 0 0
  63 C    1     1.4021     2.6496   61 C   -1-1 0
  63 C    1     2.1668     4.0947   35 H    0 0 0
  63 C    1     2.4179     4.5692   67 C   -1-1 0
  63 C    1     2.4251     4.5827   71 C   -1-1 0

  64 C    1     1.0914     2.0624   30 H    0 0 0
  64 C    1     1.3914     2.6293   70 C    0 0 0
  64 C    1     1.4021     2.6496   62 C    0 0 0
  64 C    1     2.1668     4.0947   36 H    0 0 0
  64 C    1     2.4179     4.5692   68 C    0 0 0
  64 C    1     2.4251     4.5827   72 C    0 0 0

  65 C    1     1.0913     2.0623   31 H    0 0 0
  65 C    1     1.3914     2.6294   67 C    0 0 0
  65 C    1     1.4025     2.6504   71 C    0 0 0
  65 C    1     2.1679     4.0968   33 H    0 0 0
  65 C    1     2.4178     4.5690   69 C    1 1 0
  65 C    1     2.4244     4.5814   61 C    0 0 0

  66 C    1     1.0913     2.0623   32 H    0 0 0
  66 C    1     1.3914     2.6294   68 C    0 0 0
  66 C    1     1.4025     2.6504   72 C    0 0 0
  66 C    1     2.1679     4.0968   34 H    0 0 0
  66 C    1     2.4178     4.5690   70 C    0 0 0
  66 C    1     2.4244     4.5814   62 C    0 0 0

  67 C    1     1.0915     2.0626   33 H    0 0 0
  67 C    1     1.3914     2.6294   65 C    0 0 0
  67 C    1     1.4021     2.6497   61 C    0 0 0
  67 C    1     2.1667     4.0945   31 H    0 0 0
  67 C    1     2.4179     4.5692   63 C    1 1 0
  67 C    1     2.4253     4.5832   71 C    0 0 0

  68 C    1     1.0915     2.0626   34 H    0 0 0
  68 C    1     1.3914     2.6294   66 C    0 0 0
  68 C    1     1.4021     2.6497   62 C    0 0 0
  68 C    1     2.1667     4.0945   32 H    0 0 0
  68 C    1     2.4179     4.5692   64 C    0 0 0
  68 C    1     2.4253     4.5832   72 C    0 0 0

  69 C    1     1.0914     2.0624   35 H    0 0 0
  69 C    1     1.3914     2.6293   63 C    0 0 0
  69 C    1     1.4025     2.6503   71 C   -1-1 0
  69 C    1     2.1678     4.0966   29 H    0 0 0
  69 C    1     2.4178     4.5690   65 C   -1-1 0
  69 C    1     2.4245     4.5817   61 C   -1-1 0

  70 C    1     1.0914     2.0624   36 H    0 0 0
  70 C    1     1.3914     2.6293   64 C    0 0 0
  70 C    1     1.4025     2.6503   72 C    0 0 0
  70 C    1     2.1678     4.0966   30 H    0 0 0
  70 C    1     2.4178     4.5690   66 C    0 0 0
  70 C    1     2.4245     4.5817   62 C    0 0 0

  71 C    1     1.4025     2.6503   69 C    1 1 0
  71 C    1     1.4025     2.6504   65 C    0 0 0
  71 C    1     1.5516     2.9322    9 B    0 0 0
  71 C    1     2.1486     4.0602   35 H    1 1 0
  71 C    1     2.1487     4.0605   31 H    0 0 0
  71 C    1     2.4251     4.5827   63 C    1 1 0

  72 C    1     1.4025     2.6503   70 C    0 0 0
  72 C    1     1.4025     2.6504   66 C    0 0 0
  72 C    1     1.5516     2.9322   10 B    0 0 0
  72 C    1     2.1486     4.0602   36 H    0 0 0
  72 C    1     2.1487     4.0605   32 H    0 0 0
  72 C    1     2.4251     4.5827   64 C    0 0 0

  73 O    1     1.3791     2.6061    1 B    1 0 0
  73 O    1     1.3791     2.6061    5 B    1 1 0
  73 O    1     2.3880     4.5126   75 O    1 0 0
  73 O    1     2.3882     4.5130   77 O    1 1 0
  73 O    1     2.5383     4.7966   61 C    0 0 0
  73 O    1     2.5384     4.7968   49 C    0 0 0

  74 O    1     1.3791     2.6061    2 B    0 0 0
  74 O    1     1.3791     2.6061    6 B    0 0 0
  74 O    1     2.3880     4.5126   76 O    0 0 0
  74 O    1     2.3882     4.5130   78 O    0 0 0
  74 O    1     2.5383     4.7966   62 C    0 0 0
  74 O    1     2.5384     4.7968   50 C    0 0 0

  75 O    1     1.3793     2.6065    1 B    0 0 0
  75 O    1     1.3793     2.6065    3 B    0 0 0
  75 O    1     2.3880     4.5126   73 O   -1 0 0
  75 O    1     2.3882     4.5131   77 O    0 1 0
  75 O    1     2.5391     4.7981   37 C    0 0 0
  75 O    1     2.5395     4.7990   49 C   -1 0 0

  76 O    1     1.3793     2.6065    2 B    0 0 0
  76 O    1     1.3793     2.6065    4 B    0 0 0
  76 O    1     2.3880     4.5126   74 O    0 0 0
  76 O    1     2.3882     4.5131   78 O    0 0 0
  76 O    1     2.5391     4.7981   38 C    0 0 0
  76 O    1     2.5395     4.7990   50 C    0 0 0

  77 O    1     1.3793     2.6064    5 B    0 0 0
  77 O    1     1.3793     2.6065    3 B    0-1 0
  77 O    1     2.3882     4.5130   73 O   -1-1 0
  77 O    1     2.3882     4.5131   75 O    0-1 0
  77 O    1     2.5390     4.7980   37 C    0-1 0
  77 O    1     2.5391     4.7982   61 C   -1-1 0

  78 O    1     1.3793     2.6064    6 B    0 0 0
  78 O    1     1.3793     2.6065    4 B    0 0 0
  78 O    1     2.3882     4.5130   74 O    0 0 0
  78 O    1     2.3882     4.5131   76 O    0 0 0
  78 O    1     2.5390     4.7980   38 C    0 0 0
  78 O    1     2.5391     4.7982   62 C    0 0 0

  79 O    1     1.3795     2.6068   11 B    0 0 0
  79 O    1     1.3795     2.6068    7 B    0 0 0
  79 O    1     2.3880     4.5126   83 O    1 0 0
  79 O    1     2.3884     4.5134   81 O    0-1 0
  79 O    1     2.5400     4.7998   47 C    0 0 0
  79 O    1     2.5403     4.8005   59 C    0 0 0

  80 O    1     1.3795     2.6068   12 B    0 0 0
  80 O    1     1.3795     2.6068    8 B    0 0 0
  80 O    1     2.3880     4.5126   84 O    1 0 0
  80 O    1     2.3884     4.5134   82 O    0 0 0
  80 O    1     2.5400     4.7998   48 C    0 0 0
  80 O    1     2.5403     4.8005   60 C    0 0 0

  81 O    1     1.3795     2.6069    9 B    0 0 0
  81 O    1     1.3795     2.6070    7 B    0 1 0
  81 O    1     2.3881     4.5128   83 O    1 1 0
  81 O    1     2.3884     4.5134   79 O    0 1 0
  81 O    1     2.5404     4.8006   47 C    0 1 0
  81 O    1     2.5405     4.8008   71 C    0 0 0

  82 O    1     1.3795     2.6069   10 B    1 0 0
  82 O    1     1.3795     2.6070    8 B    0 0 0
  82 O    1     2.3881     4.5128   84 O    1 0 0
  82 O    1     2.3884     4.5134   80 O    0 0 0
  82 O    1     2.5404     4.8006   48 C    0 0 0
  82 O    1     2.5405     4.8008   72 C    1 0 0

  83 O    1     1.3796     2.6071   11 B   -1 0 0
  83 O    1     1.3797     2.6072    9 B   -1-1 0
  83 O    1     2.3880     4.5126   79 O   -1 0 0
  83 O    1     2.3881     4.5128   81 O   -1-1 0
  83 O    1     2.5409     4.8016   71 C   -1-1 0
  83 O    1     2.5410     4.8019   59 C   -1 0 0

  84 O    1     1.3796     2.6071   12 B   -1 0 0
  84 O    1     1.3797     2.6072   10 B    0 0 0
  84 O    1     2.3880     4.5126   80 O   -1 0 0
  84 O    1     2.3881     4.5128   82 O   -1 0 0
  84 O    1     2.5409     4.8016   72 C    0 0 0
  84 O    1     2.5410     4.8019   60 C   -1 0 0


 SYMMETRY ALLOWED INTERNAL DEGREE(S) OF FREEDOM: 249
 TTTTTTTTTTTTTTTTTTTTTTTTTTTTTT SYMM        TELAPSE        2.53 TCPU        2.52
 TTTTTTTTTTTTTTTTTTTTTTTTTTTTTT INT_SCREEN  TELAPSE        2.73 TCPU        2.72

 DFT PARAMETERS

     ATOM       ELECTRONS   NET CHARGE   R(ANGSTROM)
   1   5  B       5.0000      0.0000     0.89000000
  13   1  H       1.0000      0.0000     1.11000000
  37   6  C       6.0000      0.0000     0.77000000
  73   8  O       8.0000      0.0000     0.74000000

 SIZE OF GRID=    2633499
 TTTTTTTTTTTTTTTTTTTTTTTTTTTTTT MAKE_GRID2  TELAPSE       21.11 TCPU       21.09
 BECKE WEIGHT FUNCTION
 RADSAFE =     2.00
 TOLERANCES - DENSITY:10**- 6; POTENTIAL:10**- 9; GRID WGT:10**-14

 RADIAL INTEGRATION  - INTERVALS (POINTS,UPPER LIMIT):            1( 75,  4.0*R)

 ANGULAR INTEGRATION - INTERVALS (ACCURACY LEVEL [N. POINTS] UPPER LIMIT):
  1(  4[  86]   0.2)  2(  8[ 194]   0.5)  3( 12[ 350]   0.9)  4( 16[ 974]   3.5)
  5( 12[ 350]9999.0)
 TTTTTTTTTTTTTTTTTTTTTTTTTTTTTT INT_CALC    TELAPSE       21.35 TCPU       21.33
 EEEEEEEEEE INT_CALC TERMINATION  DATE 19 02 2026 TIME 20:24:00.7

 *******************************************************************************
 cof-1_z40_L040_serr                                                             
 CRYSTAL - SCF - TYPE OF CALCULATION :  RESTRICTED CLOSED SHELL
 *******************************************************************************

 CAPPA:IS1  2;IS2  2;IS3  8; K PTS MONK NET  20; SYMMOPS:K SPACE   2;G SPACE   1

 TTTTTTTTTTTTTTTTTTTTTTTTTTTTTT SDIK        TELAPSE       23.27 TCPU       46.92

 AAAAAAAAAAAAAAAAAAAAAAAAAAAAAAAAAAAAAAAAAAAAAAAAAAAAAAAAAAAAAAAAAAAAAAAAAAAAAAA
         ATOMIC WAVEFUNCTION(S)


 NUCLEAR CHARGE  5.0  SYMMETRY SPECIES            S    P
 N. ELECTRONS    5.0  NUMBER OF PRIMITIVE GTOS    8    4
                      NUMBER OF CONTRACTED GTOS   4    2
                      NUMBER OF CLOSED SHELLS     2    0
                      OPEN SHELL OCCUPATION       0    1

  ZNUC  SCFIT    TOTAL HF ENERGY   KINETIC ENERGY   VIRIAL THEOREM ACCURACY
   5.0    11    -2.451164084E+01  2.462155050E+01 -1.995536038E+00  1.5E-06

 NUCLEAR CHARGE  1.0  SYMMETRY SPECIES            S
 N. ELECTRONS    1.0  NUMBER OF PRIMITIVE GTOS    4
                      NUMBER OF CONTRACTED GTOS   2
                      NUMBER OF CLOSED SHELLS     0
                      OPEN SHELL OCCUPATION       1

  ZNUC  SCFIT    TOTAL HF ENERGY   KINETIC ENERGY   VIRIAL THEOREM ACCURACY
   1.0     1    -4.977266687E-01  5.190767460E-01 -1.958869132E+00  0.0E+00

 NUCLEAR CHARGE  6.0  SYMMETRY SPECIES            S    P
 N. ELECTRONS    6.0  NUMBER OF PRIMITIVE GTOS    8    4
                      NUMBER OF CONTRACTED GTOS   4    2
                      NUMBER OF CLOSED SHELLS     2    0
                      OPEN SHELL OCCUPATION       0    2

  ZNUC  SCFIT    TOTAL HF ENERGY   KINETIC ENERGY   VIRIAL THEOREM ACCURACY
   6.0     9    -3.766704647E+01  3.775180683E+01 -1.997754800E+00  1.1E-06

 NUCLEAR CHARGE  8.0  SYMMETRY SPECIES            S    P
 N. ELECTRONS    8.0  NUMBER OF PRIMITIVE GTOS    8    4
                      NUMBER OF CONTRACTED GTOS   4    2
                      NUMBER OF CLOSED SHELLS     2    0
                      OPEN SHELL OCCUPATION       0    4

  ZNUC  SCFIT    TOTAL HF ENERGY   KINETIC ENERGY   VIRIAL THEOREM ACCURACY
   8.0    12    -7.477373220E+01  7.477365593E+01 -2.000001020E+00  3.8E-06

 AAAAAAAAAAAAAAAAAAAAAAAAAAAAAAAAAAAAAAAAAAAAAAAAAAAAAAAAAAAAAAAAAAAAAAAAAAAAAAA

 CHARGE NORMALIZATION FACTOR   1.00000000
 TOTAL ATOMIC CHARGES:
   5.0000000   5.0000000   5.0000000   5.0000000   5.0000000   5.0000000
   5.0000000   5.0000000   5.0000000   5.0000000   5.0000000   5.0000000
   1.0000000   1.0000000   1.0000000   1.0000000   1.0000000   1.0000000
   1.0000000   1.0000000   1.0000000   1.0000000   1.0000000   1.0000000
   1.0000000   1.0000000   1.0000000   1.0000000   1.0000000   1.0000000
   1.0000000   1.0000000   1.0000000   1.0000000   1.0000000   1.0000000
   6.0000000   6.0000000   6.0000000   6.0000000   6.0000000   6.0000000
   6.0000000   6.0000000   6.0000000   6.0000000   6.0000000   6.0000000
   6.0000000   6.0000000   6.0000000   6.0000000   6.0000000   6.0000000
   6.0000000   6.0000000   6.0000000   6.0000000   6.0000000   6.0000000
   6.0000000   6.0000000   6.0000000   6.0000000   6.0000000   6.0000000
   6.0000000   6.0000000   6.0000000   6.0000000   6.0000000   6.0000000
   8.0000000   8.0000000   8.0000000   8.0000000   8.0000000   8.0000000
   8.0000000   8.0000000   8.0000000   8.0000000   8.0000000   8.0000000
 TTTTTTTTTTTTTTTTTTTTTTTTTTTTTT MOQGAD      TELAPSE       23.36 TCPU       49.65
 TTTTTTTTTTTTTTTTTTTTTTTTTTTTTT SHELLXN     TELAPSE       37.80 TCPU      510.62
 TTTTTTTTTTTTTTTTTTTTTTTTTTTTTT MONMO3      TELAPSE       38.34 TCPU      527.87
 NUMERICALLY INTEGRATED DENSITY    395.9999411007
 TTTTTTTTTTTTTTTTTTTTTTTTTTTTTT NUMDFT      TELAPSE       39.72 TCPU      571.80
 CYC   0 ETOT(AU) -2.591912473960E+03 DETOT -2.59E+03 tst  0.00E+00 PX  1.00E+00
 TTTTTTTTTTTTTTTTTTTTTTTTTTTTTT DIIS        TELAPSE       39.82 TCPU      575.02
 TTTTTTTTTTTTTTTTTTTTTTTTTTTTTT FDIK        TELAPSE       41.62 TCPU      632.65
 INSULATING STATE
 TOP OF VALENCE BANDS -    BAND    198; K    3; EIG -3.1338159E-01 AU
 TOP OF VALENCE BANDS -    BAND    198; K    1; EIG -3.1346901E-01 AU
 BOTTOM OF VIRTUAL BANDS - BAND    199; K    1; EIG -1.5850916E-01 AU
 INDIRECT ENERGY BAND GAP:   4.2143 eV
 TTTTTTTTTTTTTTTTTTTTTTTTTTTTTT PDIG        TELAPSE       43.11 TCPU      639.51
 CHARGE NORMALIZATION FACTOR   1.00000000
 TOTAL ATOMIC CHARGES:
   4.1573268   4.1540525   4.1648398   4.1663478   4.1650914   4.1666024
   4.1661882   4.1646864   4.1659697   4.1644611   4.1537089   4.1569503
   0.7851738   0.7852201   0.7853356   0.7852891   0.7847779   0.7850209
   0.7851406   0.7848976   0.7854661   0.7857004   0.7858673   0.7856294
   0.7854558   0.7856906   0.7858307   0.7855928   0.7847804   0.7850231
   0.7852052   0.7849605   0.7851263   0.7851718   0.7853286   0.7852828
   6.0442719   6.0428329   6.2658034   6.2657429   6.2657087   6.2657654
   6.2652548   6.2647841   6.2647277   6.2651997   6.0421075   6.0435416
   6.0459640   6.0460715   6.2649315   6.2646094   6.2646814   6.2650018
   6.2648392   6.2645197   6.2646961   6.2650149   6.0448528   6.0447435
   6.0446296   6.0431896   6.2650286   6.2645541   6.2651017   6.2655784
   6.2654293   6.2653680   6.2659821   6.2660421   6.0416430   6.0430712
   8.6932792   8.6917380   8.6933869   8.6918472   8.6954046   8.6907813
   8.6921656   8.6937073   8.6911859   8.6957999   8.6923406   8.6938869
 TTTTTTTTTTTTTTTTTTTTTTTTTTTTTT MOQGAD      TELAPSE       43.20 TCPU      639.60
 TTTTTTTTTTTTTTTTTTTTTTTTTTTTTT SHELLXN     TELAPSE       57.82 TCPU     1105.80
 TTTTTTTTTTTTTTTTTTTTTTTTTTTTTT MONMO3      TELAPSE       58.36 TCPU     1123.03
 NUMERICALLY INTEGRATED DENSITY    395.9999642552
 TTTTTTTTTTTTTTTTTTTTTTTTTTTTTT NUMDFT      TELAPSE       59.75 TCPU     1167.57
 CYC   1 ETOT(AU) -2.577640056396E+03 DETOT  1.43E+01 tst  0.00E+00 PX  1.00E+00
 TTTTTTTTTTTTTTTTTTTTTTTTTTTTTT DIIS        TELAPSE       59.88 TCPU     1171.63
 DIIS TEST: 0.21967E+01 AT SCF   CYCLE   1 - MIX   30 %
 TTTTTTTTTTTTTTTTTTTTTTTTTTTTTT FDIK        TELAPSE       61.71 TCPU     1230.15
 INSULATING STATE
 TOP OF VALENCE BANDS -    BAND    198; K    3; EIG -2.2542169E-01 AU
 TOP OF VALENCE BANDS -    BAND    198; K    1; EIG -2.2544051E-01 AU
 BOTTOM OF VIRTUAL BANDS - BAND    199; K    1; EIG -8.1071267E-02 AU
 INDIRECT ENERGY BAND GAP:   3.9280 eV
 TTTTTTTTTTTTTTTTTTTTTTTTTTTTTT PDIG        TELAPSE       63.20 TCPU     1237.01
 CHARGE NORMALIZATION FACTOR   1.00000000
 TOTAL ATOMIC CHARGES:
   4.6740864   4.6900155   4.6914665   4.7123892   4.6914436   4.7124017
   4.7125696   4.6917139   4.7125274   4.6916891   4.6902236   4.6740289
   0.9121989   0.9033990   0.9034895   0.9122001   0.9180579   0.9146063
   0.9146519   0.9181139   0.9081260   0.8986230   0.8986042   0.9082349
   0.9081064   0.8985993   0.8985918   0.9081853   0.9180441   0.9146049
   0.9147157   0.9181985   0.9121410   0.9033549   0.9035003   0.9121921
   5.8626774   5.8731057   6.1431448   6.1186252   6.1190122   6.1435630
   6.1349575   6.1461169   6.1467332   6.1357155   5.8758044   5.8653792
   5.8765679   5.8915040   6.1388304   6.1457004   6.1465185   6.1394852
   6.1390219   6.1458660   6.1464353   6.1394524   5.8947020   5.8796605
   5.8626138   5.8730339   6.1350617   6.1461652   6.1466280   6.1355972
   6.1433277   6.1188472   6.1187293   6.1432979   5.8760291   5.8655772
   8.3352628   8.3263707   8.3356356   8.3267188   8.3471441   8.3400758
   8.3262286   8.3350650   8.3398023   8.3470542   8.3266249   8.3354337
 TTTTTTTTTTTTTTTTTTTTTTTTTTTTTT MOQGAD      TELAPSE       63.29 TCPU     1237.10
 TTTTTTTTTTTTTTTTTTTTTTTTTTTTTT SHELLXN     TELAPSE       77.91 TCPU     1703.29
 TTTTTTTTTTTTTTTTTTTTTTTTTTTTTT MONMO3      TELAPSE       78.45 TCPU     1720.51
 NUMERICALLY INTEGRATED DENSITY    395.9999593214
 TTTTTTTTTTTTTTTTTTTTTTTTTTTTTT NUMDFT      TELAPSE       79.84 TCPU     1765.04
 CYC   2 ETOT(AU) -2.578029185961E+03 DETOT -3.89E-01 tst  4.24E-03 PX  1.59E-01
 TTTTTTTTTTTTTTTTTTTTTTTTTTTTTT DIIS        TELAPSE       79.99 TCPU     1769.83
 DIIS TEST: 0.90142E+00 AT SCF   CYCLE   2 - DIIS ACTIVE - HISTORY:     2 CYCLES
 TTTTTTTTTTTTTTTTTTTTTTTTTTTTTT FDIK        TELAPSE       81.81 TCPU     1827.83
 INSULATING STATE
 TOP OF VALENCE BANDS -    BAND    198; K    3; EIG -2.3802080E-01 AU
 TOP OF VALENCE BANDS -    BAND    198; K    1; EIG -2.3802969E-01 AU
 BOTTOM OF VIRTUAL BANDS - BAND    199; K    1; EIG -7.7317648E-02 AU
 INDIRECT ENERGY BAND GAP:   4.3730 eV
 TTTTTTTTTTTTTTTTTTTTTTTTTTTTTT PDIG        TELAPSE       83.29 TCPU     1834.69
 CHARGE NORMALIZATION FACTOR   1.00000000
 TOTAL ATOMIC CHARGES:
   4.4808690   4.4827815   4.4935563   4.5063550   4.4936620   4.5064617
   4.5060577   4.4932141   4.5058818   4.4930350   4.4823015   4.4805298
   0.8918064   0.8814149   0.8814957   0.8920523   0.8930043   0.8930551
   0.8931945   0.8930475   0.8867536   0.8810307   0.8814145   0.8868431
   0.8867795   0.8810446   0.8813612   0.8867510   0.8929947   0.8930711
   0.8932336   0.8931372   0.8918043   0.8814435   0.8814542   0.8919960
   5.8974506   5.8892240   6.1576069   6.1660130   6.1656177   6.1573135
   6.1610985   6.1519451   6.1512332   6.1600781   5.8882960   5.8964479
   5.9102111   5.9003872   6.1606618   6.1646254   6.1640608   6.1603069
   6.1607383   6.1647170   6.1639611   6.1602660   5.8989185   5.9092561
   5.8977587   5.8894935   6.1610879   6.1518548   6.1514276   6.1601682
   6.1574733   6.1658960   6.1656057   6.1573793   5.8880082   5.8961482
   8.5155736   8.5127736   8.5157311   8.5129405   8.5176325   8.5060135
   8.5129391   8.5158961   8.5061891   8.5174491   8.5131363   8.5161008
 TTTTTTTTTTTTTTTTTTTTTTTTTTTTTT MOQGAD      TELAPSE       83.38 TCPU     1834.78
 TTTTTTTTTTTTTTTTTTTTTTTTTTTTTT SHELLXN     TELAPSE       98.00 TCPU     2300.94
 TTTTTTTTTTTTTTTTTTTTTTTTTTTTTT MONMO3      TELAPSE       98.54 TCPU     2318.16
 NUMERICALLY INTEGRATED DENSITY    395.9999582103
 TTTTTTTTTTTTTTTTTTTTTTTTTTTTTT NUMDFT      TELAPSE       99.93 TCPU     2362.68
 CYC   3 ETOT(AU) -2.578215572308E+03 DETOT -1.86E-01 tst  6.06E-04 PX  6.54E-02
 TTTTTTTTTTTTTTTTTTTTTTTTTTTTTT DIIS        TELAPSE      100.10 TCPU     2368.22
 DIIS TEST: 0.28888E-01 AT SCF   CYCLE   3 - DIIS ACTIVE - HISTORY:     3 CYCLES
 TTTTTTTTTTTTTTTTTTTTTTTTTTTTTT FDIK        TELAPSE      101.93 TCPU     2426.81
 INSULATING STATE
 TOP OF VALENCE BANDS -    BAND    198; K    3; EIG -2.4777723E-01 AU
 TOP OF VALENCE BANDS -    BAND    198; K    1; EIG -2.4783930E-01 AU
 BOTTOM OF VIRTUAL BANDS - BAND    199; K    1; EIG -8.5666868E-02 AU
 INDIRECT ENERGY BAND GAP:   4.4112 eV
 TTTTTTTTTTTTTTTTTTTTTTTTTTTTTT PDIG        TELAPSE      103.43 TCPU     2433.68
 CHARGE NORMALIZATION FACTOR   1.00000000
 TOTAL ATOMIC CHARGES:
   4.4852425   4.4893487   4.4989185   4.5092731   4.4990160   4.5093773
   4.5093272   4.4990016   4.5091491   4.4988379   4.4893372   4.4849849
   0.8722845   0.8674858   0.8676360   0.8722824   0.8782966   0.8728987
   0.8729227   0.8782985   0.8686984   0.8626981   0.8626243   0.8688941
   0.8687149   0.8627112   0.8625709   0.8688034   0.8783057   0.8729180
   0.8729689   0.8783706   0.8722715   0.8674866   0.8676120   0.8722390
   5.9332654   5.9412185   6.1726107   6.1555242   6.1559079   6.1728772
   6.1633212   6.1760307   6.1771108   6.1648660   5.9441484   5.9361860
   5.9436025   5.9577913   6.1672170   6.1777847   6.1787940   6.1679811
   6.1671870   6.1777548   6.1788299   6.1680766   5.9607730   5.9462221
   5.9332757   5.9412205   6.1632751   6.1759126   6.1772499   6.1649736
   6.1724713   6.1554533   6.1559104   6.1729201   5.9441867   5.9361967
   8.4785943   8.4731235   8.4788851   8.4733842   8.4882795   8.4825321
   8.4732043   8.4784645   8.4824989   8.4887725   8.4735426   8.4787848
 TTTTTTTTTTTTTTTTTTTTTTTTTTTTTT MOQGAD      TELAPSE      103.53 TCPU     2433.77
 TTTTTTTTTTTTTTTTTTTTTTTTTTTTTT SHELLXN     TELAPSE      118.62 TCPU     2915.11
 TTTTTTTTTTTTTTTTTTTTTTTTTTTTTT MONMO3      TELAPSE      119.16 TCPU     2932.34
 NUMERICALLY INTEGRATED DENSITY    395.9999593835
 TTTTTTTTTTTTTTTTTTTTTTTTTTTTTT NUMDFT      TELAPSE      120.55 TCPU     2976.92
 CYC   4 ETOT(AU) -2.578221691907E+03 DETOT -6.12E-03 tst  2.74E-05 PX  1.48E-02
 TTTTTTTTTTTTTTTTTTTTTTTTTTTTTT DIIS        TELAPSE      120.75 TCPU     2983.09
 DIIS TEST: 0.86218E-02 AT SCF   CYCLE   4 - DIIS ACTIVE - HISTORY:     4 CYCLES
 TTTTTTTTTTTTTTTTTTTTTTTTTTTTTT FDIK        TELAPSE      122.56 TCPU     3041.04
 INSULATING STATE
 TOP OF VALENCE BANDS -    BAND    198; K    3; EIG -2.4610341E-01 AU
 TOP OF VALENCE BANDS -    BAND    198; K    1; EIG -2.4617250E-01 AU
 BOTTOM OF VIRTUAL BANDS - BAND    199; K    1; EIG -8.5420350E-02 AU
 INDIRECT ENERGY BAND GAP:   4.3724 eV
 TTTTTTTTTTTTTTTTTTTTTTTTTTTTTT PDIG        TELAPSE      124.05 TCPU     3047.90
 CHARGE NORMALIZATION FACTOR   1.00000000
 TOTAL ATOMIC CHARGES:
   4.4852812   4.4911318   4.4994866   4.5137769   4.4995799   4.5138753
   4.5136532   4.4993688   4.5134892   4.4992082   4.4908503   4.4850726
   0.8766043   0.8683903   0.8684867   0.8768013   0.8801086   0.8777760
   0.8779706   0.8802244   0.8716719   0.8659333   0.8662781   0.8717829
   0.8716780   0.8659306   0.8662388   0.8717045   0.8800996   0.8777884
   0.8780186   0.8803183   0.8765816   0.8683964   0.8684649   0.8767631
   5.9232987   5.9226952   6.1682684   6.1644987   6.1641994   6.1681501
   6.1691441   6.1659600   6.1650576   6.1678849   5.9217056   5.9222756
   5.9373279   5.9352260   6.1700459   6.1736205   6.1731728   6.1697119
   6.1701665   6.1737367   6.1730595   6.1696532   5.9340563   5.9366563
   5.9235248   5.9228928   6.1691491   6.1658952   6.1651854   6.1679335
   6.1682180   6.1644624   6.1641223   6.1681369   5.9215195   5.9220734
   8.4902164   8.4859709   8.4904107   8.4861680   8.4956356   8.4857005
   8.4860257   8.4904686   8.4857272   8.4952397   8.4862662   8.4907005
 TTTTTTTTTTTTTTTTTTTTTTTTTTTTTT MOQGAD      TELAPSE      124.14 TCPU     3047.99
 TTTTTTTTTTTTTTTTTTTTTTTTTTTTTT SHELLXN     TELAPSE      139.07 TCPU     3524.37
 TTTTTTTTTTTTTTTTTTTTTTTTTTTTTT MONMO3      TELAPSE      139.61 TCPU     3541.61
 NUMERICALLY INTEGRATED DENSITY    395.9999591813
 TTTTTTTTTTTTTTTTTTTTTTTTTTTTTT NUMDFT      TELAPSE      141.03 TCPU     3587.02
 CYC   5 ETOT(AU) -2.578223659543E+03 DETOT -1.97E-03 tst  6.44E-06 PX  7.91E-03
 TTTTTTTTTTTTTTTTTTTTTTTTTTTTTT DIIS        TELAPSE      141.25 TCPU     3593.77
 DIIS TEST: 0.22832E-03 AT SCF   CYCLE   5 - DIIS ACTIVE - HISTORY:     5 CYCLES
 TTTTTTTTTTTTTTTTTTTTTTTTTTTTTT FDIK        TELAPSE      143.10 TCPU     3652.53
 INSULATING STATE
 TOP OF VALENCE BANDS -    BAND    198; K    3; EIG -2.4583319E-01 AU
 TOP OF VALENCE BANDS -    BAND    198; K    1; EIG -2.4590005E-01 AU
 BOTTOM OF VIRTUAL BANDS - BAND    199; K    1; EIG -8.4695142E-02 AU
 INDIRECT ENERGY BAND GAP:   4.3848 eV
 TTTTTTTTTTTTTTTTTTTTTTTTTTTTTT PDIG        TELAPSE      144.58 TCPU     3659.40
 CHARGE NORMALIZATION FACTOR   1.00000000
 TOTAL ATOMIC CHARGES:
   4.4859084   4.4910701   4.4998248   4.5123349   4.4999194   4.5124376
   4.5123281   4.4998030   4.5121549   4.4996430   4.4910085   4.4856078
   0.8771639   0.8699088   0.8700676   0.8771839   0.8818451   0.8781731
   0.8781374   0.8818003   0.8735113   0.8668853   0.8668089   0.8737069
   0.8735345   0.8669026   0.8667510   0.8736128   0.8818510   0.8781907
   0.8781825   0.8818745   0.8771562   0.8699166   0.8700399   0.8771357
   5.9186746   5.9213070   6.1699371   6.1601532   6.1604707   6.1700866
   6.1621786   6.1701966   6.1716769   6.1642207   5.9246487   5.9219578
   5.9289622   5.9367059   6.1659218   6.1751627   6.1761968   6.1667385
   6.1658608   6.1751177   6.1762467   6.1668511   5.9397465   5.9315932
   5.9187369   5.9213572   6.1621390   6.1700786   6.1718412   6.1643362
   6.1697590   6.1600418   6.1604982   6.1701677   5.9246226   5.9219094
   8.4899906   8.4845377   8.4902637   8.4847836   8.4963902   8.4893101
   8.4846859   8.4898637   8.4893965   8.4971310   8.4849965   8.4901692
 TTTTTTTTTTTTTTTTTTTTTTTTTTTTTT MOQGAD      TELAPSE      144.67 TCPU     3659.48
 TTTTTTTTTTTTTTTTTTTTTTTTTTTTTT SHELLXN     TELAPSE      159.72 TCPU     4139.55
 TTTTTTTTTTTTTTTTTTTTTTTTTTTTTT MONMO3      TELAPSE      160.27 TCPU     4157.04
 NUMERICALLY INTEGRATED DENSITY    395.9999591362
 TTTTTTTTTTTTTTTTTTTTTTTTTTTTTT NUMDFT      TELAPSE      161.69 TCPU     4202.51
 CYC   6 ETOT(AU) -2.578223675083E+03 DETOT -1.55E-05 tst  1.59E-06 PX  2.00E-03
 TTTTTTTTTTTTTTTTTTTTTTTTTTTTTT DIIS        TELAPSE      161.93 TCPU     4209.30
 DIIS TEST: 0.19661E-03 AT SCF   CYCLE   6 - DIIS ACTIVE - HISTORY:     6 CYCLES
 TTTTTTTTTTTTTTTTTTTTTTTTTTTTTT FDIK        TELAPSE      163.79 TCPU     4268.56
 INSULATING STATE
 TOP OF VALENCE BANDS -    BAND    198; K    3; EIG -2.4586682E-01 AU
 TOP OF VALENCE BANDS -    BAND    198; K    1; EIG -2.4593728E-01 AU
 BOTTOM OF VIRTUAL BANDS - BAND    199; K    1; EIG -8.4822829E-02 AU
 INDIRECT ENERGY BAND GAP:   4.3822 eV
 TTTTTTTTTTTTTTTTTTTTTTTTTTTTTT PDIG        TELAPSE      165.28 TCPU     4275.43
 CHARGE NORMALIZATION FACTOR   1.00000000
 TOTAL ATOMIC CHARGES:
   4.4859376   4.4910422   4.4997573   4.5129516   4.4998532   4.5130516
   4.5128481   4.4996638   4.5126797   4.4995016   4.4907972   4.4856908
   0.8774172   0.8695996   0.8697054   0.8775573   0.8812725   0.8784585
   0.8786027   0.8813503   0.8730671   0.8668430   0.8670707   0.8731958
   0.8730789   0.8668468   0.8670260   0.8731123   0.8812694   0.8784745
   0.8786480   0.8814362   0.8774006   0.8696076   0.8696804   0.8775151
   5.9216743   5.9224297   6.1684705   6.1622243   6.1621384   6.1684678
   6.1659894   6.1677486   6.1673927   6.1655104   5.9225549   5.9217773
   5.9338447   5.9362090   6.1677028   6.1740980   6.1740687   6.1676952
   6.1677727   6.1741677   6.1740009   6.1676840   5.9362364   5.9341242
   5.9218427   5.9225736   6.1659719   6.1676589   6.1675384   6.1655909
   6.1683782   6.1621645   6.1620967   6.1684828   5.9224271   5.9216285
   8.4897411   8.4851188   8.4899602   8.4853316   8.4960846   8.4873570
   8.4852028   8.4899024   8.4873720   8.4959550   8.4854695   8.4901577
 TTTTTTTTTTTTTTTTTTTTTTTTTTTTTT MOQGAD      TELAPSE      165.37 TCPU     4275.52
 TTTTTTTTTTTTTTTTTTTTTTTTTTTTTT SHELLXN     TELAPSE      180.39 TCPU     4754.41
 TTTTTTTTTTTTTTTTTTTTTTTTTTTTTT MONMO3      TELAPSE      180.94 TCPU     4772.26
 NUMERICALLY INTEGRATED DENSITY    395.9999591428
 TTTTTTTTTTTTTTTTTTTTTTTTTTTTTT NUMDFT      TELAPSE      182.37 TCPU     4817.89
 CYC   7 ETOT(AU) -2.578223726013E+03 DETOT -5.09E-05 tst  5.54E-07 PX  1.12E-03
 TTTTTTTTTTTTTTTTTTTTTTTTTTTTTT DIIS        TELAPSE      182.63 TCPU     4824.69
 DIIS TEST: 0.27943E-05 AT SCF   CYCLE   7 - DIIS ACTIVE - HISTORY:     7 CYCLES
 TTTTTTTTTTTTTTTTTTTTTTTTTTTTTT FDIK        TELAPSE      184.50 TCPU     4884.06
 INSULATING STATE
 TOP OF VALENCE BANDS -    BAND    198; K    3; EIG -2.4586848E-01 AU
 TOP OF VALENCE BANDS -    BAND    198; K    1; EIG -2.4593868E-01 AU
 BOTTOM OF VIRTUAL BANDS - BAND    199; K    1; EIG -8.4855863E-02 AU
 INDIRECT ENERGY BAND GAP:   4.3814 eV
 TTTTTTTTTTTTTTTTTTTTTTTTTTTTTT PDIG        TELAPSE      185.98 TCPU     4890.93
 CHARGE NORMALIZATION FACTOR   1.00000000
 TOTAL ATOMIC CHARGES:
   4.4858252   4.4910737   4.4998017   4.5130880   4.4998963   4.5131883
   4.5130204   4.4997286   4.5128516   4.4995677   4.4909018   4.4855721
   0.8773734   0.8695707   0.8696992   0.8774854   0.8812998   0.8784424
   0.8785177   0.8813301   0.8729728   0.8668462   0.8669818   0.8731260
   0.8729878   0.8668539   0.8669330   0.8730394   0.8812977   0.8784571
   0.8785645   0.8814150   0.8773584   0.8695785   0.8696742   0.8774418
   5.9210614   5.9219406   6.1685129   6.1621276   6.1621187   6.1685137
   6.1656060   6.1673570   6.1676635   6.1660142   5.9231235   5.9221927
   5.9334132   5.9358262   6.1677000   6.1739017   6.1741833   6.1679343
   6.1677333   6.1739399   6.1741487   6.1679584   5.9367417   5.9343720
   5.9212105   5.9220694   6.1655917   6.1672687   6.1678068   6.1660917
   6.1684025   6.1620550   6.1620909   6.1685459   5.9230120   5.9220633
   8.4898990   8.4851861   8.4901316   8.4854070   8.4958332   8.4871960
   8.4852820   8.4899582   8.4872607   8.4960090   8.4855560   8.4902261
 TTTTTTTTTTTTTTTTTTTTTTTTTTTTTT MOQGAD      TELAPSE      186.07 TCPU     4891.01
 TTTTTTTTTTTTTTTTTTTTTTTTTTTTTT SHELLXN     TELAPSE      201.13 TCPU     5371.16
 TTTTTTTTTTTTTTTTTTTTTTTTTTTTTT MONMO3      TELAPSE      201.69 TCPU     5389.00
 NUMERICALLY INTEGRATED DENSITY    395.9999591429
 TTTTTTTTTTTTTTTTTTTTTTTTTTTTTT NUMDFT      TELAPSE      203.12 TCPU     5434.70
 CYC   8 ETOT(AU) -2.578223725846E+03 DETOT  1.67E-07 tst  1.45E-08 PX  1.65E-04
 TTTTTTTTTTTTTTTTTTTTTTTTTTTTTT DIIS        TELAPSE      203.40 TCPU     5441.46
 DIIS TEST: 0.13140E-05 AT SCF   CYCLE   8 - DIIS ACTIVE - HISTORY:     8 CYCLES
 TTTTTTTTTTTTTTTTTTTTTTTTTTTTTT FDIK        TELAPSE      205.26 TCPU     5500.58
 INSULATING STATE
 TOP OF VALENCE BANDS -    BAND    198; K    3; EIG -2.4586816E-01 AU
 TOP OF VALENCE BANDS -    BAND    198; K    1; EIG -2.4593831E-01 AU
 BOTTOM OF VIRTUAL BANDS - BAND    199; K    1; EIG -8.4854647E-02 AU
 INDIRECT ENERGY BAND GAP:   4.3814 eV
 TTTTTTTTTTTTTTTTTTTTTTTTTTTTTT PDIG        TELAPSE      206.75 TCPU     5507.46
 CHARGE NORMALIZATION FACTOR   1.00000000
 TOTAL ATOMIC CHARGES:
   4.4858374   4.4911182   4.4998032   4.5130787   4.4998980   4.5131787
   4.5129948   4.4997220   4.5128263   4.4995609   4.4909112   4.4855871
   0.8773432   0.8695830   0.8697000   0.8774671   0.8813070   0.8783965
   0.8785071   0.8813622   0.8729864   0.8668106   0.8669905   0.8731279
   0.8729999   0.8668166   0.8669435   0.8730427   0.8813047   0.8784120
   0.8785531   0.8814472   0.8773275   0.8695907   0.8696750   0.8774242
   5.9212795   5.9221932   6.1685818   6.1620713   6.1620320   6.1685875
   6.1657053   6.1676829   6.1676585   6.1656730   5.9228559   5.9219070
   5.9334826   5.9360811   6.1677032   6.1740505   6.1741837   6.1678205
   6.1677517   6.1741019   6.1741355   6.1678299   5.9365705   5.9341175
   5.9214352   5.9223270   6.1656887   6.1675928   6.1678035   6.1657532
   6.1684785   6.1620045   6.1619989   6.1686123   5.9227393   5.9217707
   8.4898658   8.4851483   8.4900928   8.4853658   8.4959736   8.4873280
   8.4852408   8.4899759   8.4873638   8.4959985   8.4855121   8.4902384
 TTTTTTTTTTTTTTTTTTTTTTTTTTTTTT MOQGAD      TELAPSE      206.84 TCPU     5507.55
 TTTTTTTTTTTTTTTTTTTTTTTTTTTTTT SHELLXN     TELAPSE      221.88 TCPU     5987.53
 +++ ENERGIES IN A.U. +++
 ::: EXT EL-POLE                                  -2.5300622639102E+03
 ::: EXT EL-SPHEROPOLE                             2.8623083171959E+01
 ::: BIELET ZONE E-E                               4.1538654976612E+03
 ::: TOTAL E-E                                     1.6524263169230E+03
 ::: TOTAL E-N + N-E                              -6.9638680727352E+03
 ::: TOTAL N-N                                     4.4079654305713E+02
 ::: KINETIC ENERGY                                2.5598526033654E+03
 ::: PSEUDO TOTAL   ENERGY                        -2.3107926093897E+03
 ::: VIRIAL COEFFICIENT                            1.0511349078195E+00
 TTTTTTTTTTTTTTTTTTTTTTTTTTTTTT MONMO3      TELAPSE      222.45 TCPU     6005.67
 NUMERICALLY INTEGRATED DENSITY    395.9999591415
 EXCHANGE ENERGY: -0.252051571137E+03  CORRELATION ENERGY: -0.153795456211E+02
 TTTTTTTTTTTTTTTTTTTTTTTTTTTTTT NUMDFT      TELAPSE      223.86 TCPU     6050.63
 CYC   9 ETOT(AU) -2.578223726148E+03 DETOT -3.02E-07 tst  3.45E-09 PX  1.65E-04

 == SCF ENDED - CONVERGENCE ON ENERGY      E(AU) -2.5782237261478E+03 CYCLES   9


 ENERGY EXPRESSION=HARTREE+FOCK EXCH*0.00000+(HSESOL     EXCH)*1.00000+PBESOL     CORR


 TOTAL ENERGY(DFT)(AU)(  9) -2.5782237261478E+03 DE-3.0E-07 tester 3.4E-09
 TTTTTTTTTTTTTTTTTTTTTTTTTTTTTT EDFT        TELAPSE      223.86 TCPU     6050.64
 
 INFORMATION **** DFTD3 ENERGY **** CALCULATE DFTD3 ENERGY

           DFT-D V3(BJ)
 DF                                         hsesol3c  
 parameters
 s6       :    1.0000
 s8       :    0.0000
 a1       :    0.5196
 a2       :    4.9385
 k1 k3    :   16.0000   -4.0000
 Cutoff   :   50.2022
 CN-Cutoff:   21.1671
 ABC-Cutoff:   21.1671
 
 Edisp /kcal,au:   -48.8399 -0.07783140

 E6    /kcal :   -51.9058
 E8    /kcal :     0.0000
 E6(ABC) "   :   3.065845
 
 INFORMATION **** DFTD3 ENERGY **** NORMAL TERMINATION OF DFTD3 MODULE

 GCP ENERGY CALCULATION
  level        hsesol3c            basis:hsesol3c
  Nbf            948
  Atoms           84

  Parameters: 
  sigma     1.0000
  eta       1.4281
  alpha     0.2936
  beta      1.9467

  dmp_scal      4.0000
  dmp_exp       6.0000
 cutoffs: 
   distance [bohr] 60.0
   noise    [a.u.] 2.2E-16
 SR-damping   T
 ** gCP correction **
  Egcp:        0.1659100174 / (a.u.) ||     104.1101 / (kcal/mol)
 INFORMATION **** GCP **** NORMAL TERMINATION OF GCP MODULE

 *******************************************************************************

 DFT-D3-GCP DISPERSION AND COUNTERPOISE CORRECTION

 D3 DISPERSION ENERGY (AU)      -7.7831395841206E-02
 GCP ENERGY (AU)                 1.6591001741852E-01
 TOTAL ENERGY + DISP + GCP (AU) -2.5781356475262E+03

 *******************************************************************************

 EIGENVECTORS IN FORTRAN UNIT 10
 TTTTTTTTTTTTTTTTTTTTTTTTTTTTTT END         TELAPSE      226.68 TCPU     6059.40
 EEEEEEEEEE TERMINATION  DATE 19 02 2026 TIME 20:27:26.1
