 Default number of threads is:           32

         
 *******************************************************************************
 *                                                                             *
 *                               CRYSTAL23                                     *
 *                      public : 1.0.1 - October 2022                          *
 *                       HTTP://WWW.CRYSTAL.UNITO.IT                           *
 *                                                                             *
 *                              MAIN AUTHORS                                   *
 *                                                                             *
 *  R. DOVESI(1,11), V.R. SAUNDERS(2), C. ROETTI(1,11), R. ORLANDO(1,11),      *
 *  C.M. ZICOVICH-WILSON(1,3), F. PASCALE(4), B. CIVALLERI(1,11),              *
 *  K. DOLL(5), N.M. HARRISON(6), I.J. BUSH(7), Ph. D'ARCO(8),                 *
 *  M. LLUNELL(9), M. CAUSA'(10), Y. NOEL(8), L. MASCHIO(1,11), A. ERBA(1,11)  *
 *  M. RE'RAT(14), S. CASASSA(1,11), B.G. SEARLE(2), J.K. DESMARAIS(1)         *
 *                                                                             *
 *        CONTRIBUTIONS TO THE CODE HAVE ALSO BEEN GIVEN BY                    *
 *                                                                             *
 *  M. FERRABONE(1,11), M. DE LA PIERRE(1,11), M. FERRERO(1,11),               *
 *  J. BAIMA(1,11), E. ALBANESE(1,11), M.F. PEINTINGER(12), R. BAST(13),       *
 *  B. KIRTMAN(15), V. LACIVITA(1,11), R. DEMICHELIS(1,16)                     *
 *  G. BRANDEBURG(17), S. SALUSTRO(1,11), G. SANSONE(1,11)                     *
 *  M.T. RUGGIERO(18), L.E. DAGA(1), L. DONA'(1), A. COSSARD(1)                *
 *                                                                             *
 * (1) THEORETICAL CHEMISTRY GROUP - UNIVERSITA' DI TORINO - TORINO (ITALY)    *
 * (2) SCIENTIFIC COMPUTING DEPARTMENT - STFC DARESBURY (UK)                   *
 * (3) UNIVERSIDAD AUTONOMA DEL ESTADO DE MORELOS - CUERNAVACA (MEXICO)        *
 * (4) UNIVERSITE' DE LORRAINE - NANCY (FRANCE)                                *
 * (5) UNIVERSITAET STUTTGART- STUTTGART (GERMANY)                             *
 * (6) IMPERIAL COLLEGE - LONDON (UK)                                          *
 * (7) SCIENTIFIC COMPUTING DEPARTMENT - STFC RAL (UK)                         *
 * (8) UPMC - SORBONNE UNIVERSITES - PARIS (FRANCE)                            *
 * (9) UNIVERSIDAD DE BARCELONA - BARCELONA (SPAIN)                            *
 *(10) UNIVERSITA' DI NAPOLI "FEDERICO II" - NAPOLI (ITALY)                    *
 *(11) NIS - NANOSTRUCTURED INTERFACES AND SURFACES - TORINO (ITALY)           *
 *(12) MPI FUER CHEMISCHE ENERGIEKONVERSION - MUELHEIM AN DER RUHR (GERMANY)   *
 *(13) UNIVERSITY OF TROMSO - TROMSO (NORWAY)                                  *
 *(14) UNIVERSITE' DE PAU ET DES PAYS DE L'ADOUR - PAU (FRANCE)                *
 *(15) UNIVERSITY OF CALIFORNIA SANTA BARBARA - SANTA BARBARA (USA)            *
 *(16) CURTIN UNIVERSITY - PERTH (AUSTRALIA)                                   *
 *(17) UNIVERSITY COLLEGE LONDON - LONDON (UK)                                 *
 *(18) UNIVERSITY OF VERMONT - BURLINGTON (USA)                                *
 *                                                                             *
 *******************************************************************************
 EEEEEEEEEE STARTING  DATE 19 02 2026 TIME 18:52:40.6
 cof-1_z37_L060_incl                                                             

 CRYSTAL CALCULATION
 (INPUT ACCORDING TO THE INTERNATIONAL TABLES FOR X-RAY CRYSTALLOGRAPHY)
 CRYSTAL FAMILY                       :  TRICLINIC   
 CRYSTAL CLASS  (GROTH - 1921)        :  TRICLINIC PEDIAL                     

 SPACE GROUP (NONCENTROSYMMETRIC)     :  P 1             

 LATTICE PARAMETERS  (ANGSTROMS AND DEGREES) - CONVENTIONAL CELL
        A           B           C        ALPHA        BETA       GAMMA
    15.02361    15.02392     7.04911    42.50973    89.99997   119.99596


 NUMBER OF IRREDUCIBLE ATOMS IN THE CONVENTIONAL CELL:   42

 INPUT COORDINATES

 ATOM AT. N.              COORDINATES
   1   5     4.981141900000E-01 -3.837980000000E-03  5.012861900000E-01
   2   5     6.571698500000E-01  1.552216800000E-01  5.012862000000E-01
   3   5     4.987356800000E-01  1.564561300000E-01  4.985718400000E-01
   4   5     1.116889000000E-01  3.824770200000E-01  5.012862000000E-01
   5   5     2.707968700000E-01  3.824562500000E-01  5.012861900000E-01
   6   5     2.714029100000E-01  5.428471000000E-01  4.985718500000E-01
   7   1     7.887746100000E-01  8.036879000000E-02  4.956588000000E-01
   8   1    -1.743610000000E-02  4.628889900000E-01  4.947982800000E-01
   9   1     7.889313200000E-01  3.659690500000E-01  4.946658400000E-01
  10   1    -1.731153000000E-02  1.775663300000E-01  4.946988700000E-01
  11   1     5.747639600000E-01 -1.355564000000E-01  5.043316200000E-01
  12   1     1.924628800000E-01  6.704799500000E-01  5.051921900000E-01
  13   1     2.893726000000E-01 -1.359684900000E-01  5.053247200000E-01
  14   1     4.778224900000E-01  6.703441900000E-01  5.052914600000E-01
  15   1     5.768037100000E-01  3.654929300000E-01  4.956588500000E-01
  16   1     1.948912100000E-01  1.774449000000E-01  4.947982300000E-01
  17   1     2.918005000000E-01  8.071992000000E-02  4.946657400000E-01
  18   1     4.802431400000E-01  4.628392700000E-01  4.946989800000E-01
  19   6     7.769726200000E-01  2.160849400000E-01  4.984725400000E-01
  20   6     8.321895700000E-01  1.641633000000E-01  4.957912300000E-01
  21   6    -6.085803000000E-02  3.786697800000E-01  4.955596000000E-01
  22   6     8.320457100000E-01  3.248561300000E-01  4.962547400000E-01
  23   6    -6.056795000000E-02  2.182382000000E-01  4.944671600000E-01
  24   6    -6.378130000000E-03  3.251843200000E-01  4.962878100000E-01
  25   6     4.384196500000E-01 -1.230946000000E-01  5.015179300000E-01
  26   6     4.909399400000E-01 -1.789435100000E-01  5.041991700000E-01
  27   6     2.765073400000E-01  7.140568600000E-01  5.044308900000E-01
  28   6     3.301565000000E-01 -1.786829000000E-01  5.037357700000E-01
  29   6     4.371737000000E-01  7.135135600000E-01  5.055232200000E-01
  30   6     3.298044700000E-01  6.597215800000E-01  5.037026400000E-01
  31   6     4.391271800000E-01  2.160158100000E-01  4.984725300000E-01
  32   6     4.929106600000E-01  3.250034300000E-01  4.957912900000E-01
  33   6     2.785772400000E-01  2.176565400000E-01  4.955595500000E-01
  34   6     3.318808800000E-01  1.638539600000E-01  4.962546700000E-01
  35   6     4.397486500000E-01  3.790862000000E-01  4.944672300000E-01
  36   6     3.315459600000E-01  3.251069200000E-01  4.962878100000E-01
  37   8     4.456282100000E-01  5.013028000000E-02  4.993000800000E-01
  38   8     6.032530200000E-01  4.749729000000E-02  5.050266900000E-01
  39   8     6.052425000000E-01  2.104263500000E-01  4.963871400000E-01
  40   8     1.652160300000E-01  4.894107500000E-01  4.993001100000E-01
  41   8     1.639152900000E-01  3.278145700000E-01  5.050266900000E-01
  42   8     3.248269200000E-01  4.907383200000E-01  4.963871200000E-01

 *******************************************************************************

 << INFORMATION >>: FROM NOW ON, ALL COORDINATES REFER TO THE PRIMITIVE CELL

 *******************************************************************************

 LATTICE PARAMETERS  (ANGSTROMS AND DEGREES) - PRIMITIVE CELL
       A          B          C        ALPHA      BETA     GAMMA        VOLUME
   15.02361   15.02392    7.04911    42.50973  89.99997 119.99596    723.288627

 COORDINATES OF THE EQUIVALENT ATOMS (FRACTIONAL UNITS)

 N. ATOM EQUIV AT. N.          X                  Y                  Z

   1   1   1    5 B     4.98114190000E-01 -3.83798000000E-03 -4.98713810000E-01

   2   2   1    5 B    -3.42830150000E-01  1.55221680000E-01 -4.98713800000E-01

   3   3   1    5 B     4.98735680000E-01  1.56456130000E-01  4.98571840000E-01

   4   4   1    5 B     1.11688900000E-01  3.82477020000E-01 -4.98713800000E-01

   5   5   1    5 B     2.70796870000E-01  3.82456250000E-01 -4.98713810000E-01

   6   6   1    5 B     2.71402910000E-01 -4.57152900000E-01  4.98571850000E-01

   7   7   1    1 H    -2.11225390000E-01  8.03687900000E-02  4.95658800000E-01

   8   8   1    1 H    -1.74361000000E-02  4.62888990000E-01  4.94798280000E-01

   9   9   1    1 H    -2.11068680000E-01  3.65969050000E-01  4.94665840000E-01

  10  10   1    1 H    -1.73115300000E-02  1.77566330000E-01  4.94698870000E-01

  11  11   1    1 H    -4.25236040000E-01 -1.35556400000E-01 -4.95668380000E-01

  12  12   1    1 H     1.92462880000E-01 -3.29520050000E-01 -4.94807810000E-01

  13  13   1    1 H     2.89372600000E-01 -1.35968490000E-01 -4.94675280000E-01

  14  14   1    1 H     4.77822490000E-01 -3.29655810000E-01 -4.94708540000E-01

  15  15   1    1 H    -4.23196290000E-01  3.65492930000E-01  4.95658850000E-01

  16  16   1    1 H     1.94891210000E-01  1.77444900000E-01  4.94798230000E-01

  17  17   1    1 H     2.91800500000E-01  8.07199200000E-02  4.94665740000E-01

  18  18   1    1 H     4.80243140000E-01  4.62839270000E-01  4.94698980000E-01

  19  19   1    6 C    -2.23027380000E-01  2.16084940000E-01  4.98472540000E-01

  20  20   1    6 C    -1.67810430000E-01  1.64163300000E-01  4.95791230000E-01

  21  21   1    6 C    -6.08580300000E-02  3.78669780000E-01  4.95559600000E-01

  22  22   1    6 C    -1.67954290000E-01  3.24856130000E-01  4.96254740000E-01

  23  23   1    6 C    -6.05679500000E-02  2.18238200000E-01  4.94467160000E-01

  24  24   1    6 C    -6.37813000000E-03  3.25184320000E-01  4.96287810000E-01

  25  25   1    6 C     4.38419650000E-01 -1.23094600000E-01 -4.98482070000E-01

  26  26   1    6 C     4.90939940000E-01 -1.78943510000E-01 -4.95800830000E-01

  27  27   1    6 C     2.76507340000E-01 -2.85943140000E-01 -4.95569110000E-01

  28  28   1    6 C     3.30156500000E-01 -1.78682900000E-01 -4.96264230000E-01

  29  29   1    6 C     4.37173700000E-01 -2.86486440000E-01 -4.94476780000E-01

  30  30   1    6 C     3.29804470000E-01 -3.40278420000E-01 -4.96297360000E-01

  31  31   1    6 C     4.39127180000E-01  2.16015810000E-01  4.98472530000E-01

  32  32   1    6 C     4.92910660000E-01  3.25003430000E-01  4.95791290000E-01

  33  33   1    6 C     2.78577240000E-01  2.17656540000E-01  4.95559550000E-01

  34  34   1    6 C     3.31880880000E-01  1.63853960000E-01  4.96254670000E-01

  35  35   1    6 C     4.39748650000E-01  3.79086200000E-01  4.94467230000E-01

  36  36   1    6 C     3.31545960000E-01  3.25106920000E-01  4.96287810000E-01

  37  37   1    8 O     4.45628210000E-01  5.01302800000E-02  4.99300080000E-01

  38  38   1    8 O    -3.96746980000E-01  4.74972900000E-02 -4.94973310000E-01

  39  39   1    8 O    -3.94757500000E-01  2.10426350000E-01  4.96387140000E-01

  40  40   1    8 O     1.65216030000E-01  4.89410750000E-01  4.99300110000E-01

  41  41   1    8 O     1.63915290000E-01  3.27814570000E-01 -4.94973310000E-01

  42  42   1    8 O     3.24826920000E-01  4.90738320000E-01  4.96387120000E-01

 NUMBER OF SYMMETRY OPERATORS         :    1
 *******************************************************************************
 * GEOMETRY EDITING - INPUT COORDINATES ARE GIVEN IN ANGSTROM         
 *******************************************************************************

 GCALCO - MAX INDICES DIRECT LATTICE VECTOR     9    13    25
 NO.OF VECTORS CREATED 6999 STARS 3500 RMAX   206.21894 BOHR

 GEOMETRY FOR WAVE FUNCTION - DIMENSIONALITY OF THE SYSTEM    3
 (NON PERIODIC DIRECTION: LATTICE PARAMETER FORMALLY SET TO 500)
 *******************************************************************************
 LATTICE PARAMETERS (ANGSTROMS AND DEGREES) - BOHR = 0.5291772083 ANGSTROM
 PRIMITIVE CELL - CENTRING CODE 1/0 VOLUME=   723.288627 - DENSITY  0.896 g/cm^3
         A              B              C           ALPHA      BETA       GAMMA 
    15.02361100    15.02391600     7.04911300    42.509728  89.999970 119.995964
 *******************************************************************************
 ATOMS IN THE ASYMMETRIC UNIT   42 - ATOMS IN THE UNIT CELL:   42
     ATOM                 X/A                 Y/B                 Z/C    
 *******************************************************************************
      1 T   5 B     4.981141900000E-01 -3.837980000000E-03 -4.987138100000E-01
      2 T   5 B    -3.428301500000E-01  1.552216800000E-01 -4.987138000000E-01
      3 T   5 B     4.987356800000E-01  1.564561300000E-01  4.985718400000E-01
      4 T   5 B     1.116889000000E-01  3.824770200000E-01 -4.987138000000E-01
      5 T   5 B     2.707968700000E-01  3.824562500000E-01 -4.987138100000E-01
      6 T   5 B     2.714029100000E-01 -4.571529000000E-01  4.985718500000E-01
      7 T   1 H    -2.112253900000E-01  8.036879000000E-02  4.956588000000E-01
      8 T   1 H    -1.743610000000E-02  4.628889900000E-01  4.947982800000E-01
      9 T   1 H    -2.110686800000E-01  3.659690500000E-01  4.946658400000E-01
     10 T   1 H    -1.731153000000E-02  1.775663300000E-01  4.946988700000E-01
     11 T   1 H    -4.252360400000E-01 -1.355564000000E-01 -4.956683800000E-01
     12 T   1 H     1.924628800000E-01 -3.295200500000E-01 -4.948078100000E-01
     13 T   1 H     2.893726000000E-01 -1.359684900000E-01 -4.946752800000E-01
     14 T   1 H     4.778224900000E-01 -3.296558100000E-01 -4.947085400000E-01
     15 T   1 H    -4.231962900000E-01  3.654929300000E-01  4.956588500000E-01
     16 T   1 H     1.948912100000E-01  1.774449000000E-01  4.947982300000E-01
     17 T   1 H     2.918005000000E-01  8.071992000000E-02  4.946657400000E-01
     18 T   1 H     4.802431400000E-01  4.628392700000E-01  4.946989800000E-01
     19 T   6 C    -2.230273800000E-01  2.160849400000E-01  4.984725400000E-01
     20 T   6 C    -1.678104300000E-01  1.641633000000E-01  4.957912300000E-01
     21 T   6 C    -6.085803000000E-02  3.786697800000E-01  4.955596000000E-01
     22 T   6 C    -1.679542900000E-01  3.248561300000E-01  4.962547400000E-01
     23 T   6 C    -6.056795000000E-02  2.182382000000E-01  4.944671600000E-01
     24 T   6 C    -6.378130000000E-03  3.251843200000E-01  4.962878100000E-01
     25 T   6 C     4.384196500000E-01 -1.230946000000E-01 -4.984820700000E-01
     26 T   6 C     4.909399400000E-01 -1.789435100000E-01 -4.958008300000E-01
     27 T   6 C     2.765073400000E-01 -2.859431400000E-01 -4.955691100000E-01
     28 T   6 C     3.301565000000E-01 -1.786829000000E-01 -4.962642300000E-01
     29 T   6 C     4.371737000000E-01 -2.864864400000E-01 -4.944767800000E-01
     30 T   6 C     3.298044700000E-01 -3.402784200000E-01 -4.962973600000E-01
     31 T   6 C     4.391271800000E-01  2.160158100000E-01  4.984725300000E-01
     32 T   6 C     4.929106600000E-01  3.250034300000E-01  4.957912900000E-01
     33 T   6 C     2.785772400000E-01  2.176565400000E-01  4.955595500000E-01
     34 T   6 C     3.318808800000E-01  1.638539600000E-01  4.962546700000E-01
     35 T   6 C     4.397486500000E-01  3.790862000000E-01  4.944672300000E-01
     36 T   6 C     3.315459600000E-01  3.251069200000E-01  4.962878100000E-01
     37 T   8 O     4.456282100000E-01  5.013028000000E-02  4.993000800000E-01
     38 T   8 O    -3.967469800000E-01  4.749729000000E-02 -4.949733100000E-01
     39 T   8 O    -3.947575000000E-01  2.104263500000E-01  4.963871400000E-01
     40 T   8 O     1.652160300000E-01  4.894107500000E-01  4.993001100000E-01
     41 T   8 O     1.639152900000E-01  3.278145700000E-01 -4.949733100000E-01
     42 T   8 O     3.248269200000E-01  4.907383200000E-01  4.963871200000E-01

 T = ATOM BELONGING TO THE ASYMMETRIC UNIT

 ****    1 SYMMOPS - TRANSLATORS IN FRACTIONAL UNITS
 **** MATRICES AND TRANSLATORS IN THE CRYSTALLOGRAPHIC REFERENCE FRAME
   V INV                    ROTATION MATRICES                   TRANSLATORS
   1   1  1.00 -0.00  0.00  0.00  1.00  0.00  0.00 -0.00  1.00  0.00  0.00  0.00

 DIRECT LATTICE VECTORS CARTESIAN COMPONENTS (ANGSTROM)
          X                    Y                    Z
   0.130113578931E+02  -0.751088897922E+01   0.000000000000E+00
   0.000000000000E+00   0.150239160000E+02   0.000000000000E+00
   0.299962603689E+01   0.519634261251E+01   0.370003529428E+01


 CARTESIAN COORDINATES - PRIMITIVE CELL
 *******************************************************************************
 *      ATOM          X(ANGSTROM)         Y(ANGSTROM)         Z(ANGSTROM)
 *******************************************************************************
    1     5 B     1.985561031376E+00  3.437143695940E+00 -5.545293993029E+00
    2     5 B    -5.956640677617E+00  2.315508906688E+00 -1.845258661746E+00
    3     5 B    -2.026974357124E+00 -1.121298878326E+00  5.544768699018E+00
    4     5 B    -4.273064885509E-02  2.315931921910E+00 -1.845258661746E+00
    5     5 B     2.027480062456E+00  1.120577524833E+00 -1.845258698746E+00
    6     5 B     2.027223460857E+00  3.511619642638E+00 -1.855301852547E+00
    7     1 H    -4.261164140387E+00  1.732147350564E-01 -1.866080240361E+00
    8     1 H    -1.742283570553E+00  4.460164688864E+00 -1.869264194732E+00
    9     1 H     1.737148434621E+00 -1.735185158681E-01  5.530316361158E+00
   10     1 H    -1.740960938525E+00  1.720488122677E-01 -1.869632015241E+00
   11     1 H    -4.020092046887E+00  3.777992607384E+00  1.866044794023E+00
   12     1 H     4.019591059566E+00 -3.771097171409E+00  1.869228933396E+00
   13     1 H     5.280915650241E+00 -1.590384268941E+00  1.869719299073E+00
   14     1 H    -5.278553046680E+00  1.594963652040E+00  1.869596235900E+00
   15     1 H    -1.019941159437E+00  1.417755245560E+00  5.533990533206E+00
   16     1 H     1.020382900345E+00 -1.423090454476E+00 -1.869264379734E+00
   17     1 H     2.280906935244E+00 -3.604841810775E+00 -1.869754597410E+00
   18     1 H     4.732901274166E+00  7.208881840378E-01 -1.869631608237E+00
   19     6 C    -4.406283888363E+00  2.315467366186E+00 -1.855669303052E+00
   20     6 C    -3.695879317439E+00  1.106739621613E+00 -1.865590244687E+00
   21     6 C    -2.304978166896E+00  3.524955727288E+00 -1.866447283862E+00
   22     6 C    -3.696360774721E+00  3.524464274588E+00 -1.863875241328E+00
   23     6 C    -2.304480743666E+00  1.106789694422E+00 -1.870489350419E+00
   24     6 C    -1.593936332342E+00  2.315986217182E+00 -1.863752881160E+00
   25     6 C     1.209549140512E+00  2.095005517659E+00 -5.544436546849E+00
   26     6 C     1.900952147664E+00  8.753947594475E-01 -5.534515864217E+00
   27     6 C    -8.884120815290E-01  8.796248549313E-01 -5.533658492039E+00
   28     6 C    -1.924487601579E-01  2.084528724566E+00 -5.536230460572E+00
   29     6 C     1.205352011315E+00 -3.296087103603E-01 -5.529616832486E+00
   30     6 C    -1.971285260876E-01 -3.407968904736E-01 -5.536353042742E+00
   31     6 C     4.209246042321E+00 -2.658940676332E+00 -1.855669340052E+00
   32     6 C     4.900999432019E+00 -1.439414217275E+00 -1.865590022685E+00
   33     6 C     2.111535462619E+00 -1.443554553777E+00 -1.866447468864E+00
   34     6 C     2.807173299712E+00 -2.648625636832E+00 -1.863875500330E+00
   35     6 C     4.205317808745E+00 -2.344655381248E-01 -1.870489091416E+00
   36     6 C     2.802914943334E+00 -2.232869573092E-01 -1.863752881160E+00
   37     8 O    -2.715790208424E+00 -2.316061021673E+00  5.547463212721E+00
   38     8 O    -6.646951778012E+00  1.121466911997E+00 -1.831418716728E+00
   39     8 O    -6.477292870553E-01 -1.121768176799E+00  5.536685231910E+00
   40     8 O     6.477724692875E-01  3.510138564092E+00 -1.852607264843E+00
   41     8 O     6.480256740920E-01  1.121858115260E+00 -1.831418716728E+00
   42     8 O     2.715789002058E+00  2.316127295525E+00 -1.863385430655E+00

 *******************************************************************************
 STARTING BASIS SET HANDLING 
 *******************************************************************************

 Loading internal basis set: SOLDEF2MSVP         

 Please cite in your publication:
 L. Dona', J. G. Brandenburg and B. Civalleri, J. Chem. Phys., 151, 121101 (2019
 )                                                                              
                                                                                
                    

 *******************************************************************************
 LOCAL ATOMIC FUNCTIONS BASIS SET
 *******************************************************************************
   ATOM   X(AU)   Y(AU)   Z(AU)  N. TYPE  EXPONENT  S COEF   P COEF   D/F/G COEF
 *******************************************************************************
   1 B    3.752   6.495 -10.479
                                  1 S  
                                         2.410E+03 1.755E-03 0.000E+00 0.000E+00
                                         3.619E+02 1.344E-02 0.000E+00 0.000E+00
                                         8.231E+01 6.637E-02 0.000E+00 0.000E+00
                                         2.311E+01 2.303E-01 0.000E+00 0.000E+00
                                         7.252E+00 5.150E-01 0.000E+00 0.000E+00
                                  2 S  
                                         2.367E+00 1.000E+00 0.000E+00 0.000E+00
                                  3 S  
                                         5.533E-01 1.000E+00 0.000E+00 0.000E+00
                                  4 S  
                                         1.716E-01 1.000E+00 0.000E+00 0.000E+00
                           5-     7 P  
                                         6.002E+00 0.000E+00-3.555E-02 0.000E+00
                                         1.240E+00 0.000E+00-1.983E-01 0.000E+00
                                         3.367E-01 0.000E+00-5.048E-01 0.000E+00
                           8-    10 P  
                                         1.256E-01 0.000E+00 1.000E+00 0.000E+00
                          11-    15 D  
                                         8.880E-01 0.000E+00 0.000E+00 1.000E+00
   2 B  -11.256   4.376  -3.487
   3 B   -3.830  -2.119  10.478
   4 B   -0.081   4.376  -3.487
   5 B    3.831   2.118  -3.487
   6 B    3.831   6.636  -3.506
   7 H   -8.052   0.327  -3.526
                                 91 S  
                                         1.874E+01 1.968E-02 0.000E+00 0.000E+00
                                         2.826E+00 1.380E-01 0.000E+00 0.000E+00
                                         6.401E-01 4.783E-01 0.000E+00 0.000E+00
                                 92 S  
                                         1.756E-01 1.000E+00 0.000E+00 0.000E+00
   8 H   -3.292   8.428  -3.532
   9 H    3.283  -0.328  10.451
  10 H   -3.290   0.325  -3.533
  11 H   -7.597   7.139   3.526
  12 H    7.596  -7.126   3.532
  13 H    9.979  -3.005   3.533
  14 H   -9.975   3.014   3.533
  15 H   -1.927   2.679  10.458
  16 H    1.928  -2.689  -3.532
  17 H    4.310  -6.812  -3.533
  18 H    8.944   1.362  -3.533
  19 C   -8.327   4.376  -3.507
                                115 S  
                                         3.624E+03 1.634E-03 0.000E+00 0.000E+00
                                         5.440E+02 1.252E-02 0.000E+00 0.000E+00
                                         1.237E+02 6.211E-02 0.000E+00 0.000E+00
                                         3.476E+01 2.182E-01 0.000E+00 0.000E+00
                                         1.093E+01 4.980E-01 0.000E+00 0.000E+00
                                116 S  
                                         3.574E+00 1.000E+00 0.000E+00 0.000E+00
                                117 S  
                                         7.742E-01 1.000E+00 0.000E+00 0.000E+00
                                118 S  
                                         2.330E-01 1.000E+00 0.000E+00 0.000E+00
                         119-   121 P  
                                         9.443E+00 0.000E+00 3.790E-02 0.000E+00
                                         2.002E+00 0.000E+00 2.082E-01 0.000E+00
                                         5.463E-01 0.000E+00 5.047E-01 0.000E+00
                         122-   124 P  
                                         1.820E-01 0.000E+00 1.000E+00 0.000E+00
                         125-   129 D  
                                         8.880E-01 0.000E+00 0.000E+00 1.000E+00
  20 C   -6.984   2.091  -3.525
  21 C   -4.356   6.661  -3.527
  22 C   -6.985   6.660  -3.522
  23 C   -4.355   2.092  -3.535
  24 C   -3.012   4.377  -3.522
  25 C    2.286   3.959 -10.477
  26 C    3.592   1.654 -10.459
  27 C   -1.679   1.662 -10.457
  28 C   -0.364   3.939 -10.462
  29 C    2.278  -0.623 -10.449
  30 C   -0.373  -0.644 -10.462
  31 C    7.954  -5.025  -3.507
  32 C    9.262  -2.720  -3.525
  33 C    3.990  -2.728  -3.527
  34 C    5.305  -5.005  -3.522
  35 C    7.947  -0.443  -3.535
  36 C    5.297  -0.422  -3.522
  37 O   -5.132  -4.377  10.483
                                385 S  
                                         6.773E+03 1.727E-03 0.000E+00 0.000E+00
                                         1.017E+03 1.325E-02 0.000E+00 0.000E+00
                                         2.313E+02 6.603E-02 0.000E+00 0.000E+00
                                         6.501E+01 2.353E-01 0.000E+00 0.000E+00
                                         2.050E+01 5.498E-01 0.000E+00 0.000E+00
                                386 S  
                                         6.716E+00 1.000E+00 0.000E+00 0.000E+00
                                387 S  
                                         1.147E+00 1.000E+00 0.000E+00 0.000E+00
                                388 S  
                                         3.342E-01 1.000E+00 0.000E+00 0.000E+00
                         389-   391 P  
                                         1.769E+01 0.000E+00 4.359E-02 0.000E+00
                                         3.854E+00 0.000E+00 2.318E-01 0.000E+00
                                         1.047E+00 0.000E+00 5.146E-01 0.000E+00
                         392-   394 P  
                                         2.759E-01 0.000E+00 1.000E+00 0.000E+00
                         395-   399 D  
                                         8.000E-01 0.000E+00 0.000E+00 1.000E+00
  38 O  -12.561   2.119  -3.461
  39 O   -1.224  -2.120  10.463
  40 O    1.224   6.633  -3.501
  41 O    1.225   2.120  -3.461
  42 O    5.132   4.377  -3.521

 *******************************************************************************
 FINISHED BASIS SET HANDLING 
 *******************************************************************************

 INFORMATION **** SET_MPP **** PCRYSTAL CALCULATION
 INFORMATION **** READM2 **** NEW DEFAULT: FOCK/KS MATRIX MIXING SET TO 30 %
 INFORMATION **** READM2 **** NEW DEFAULT: FULL DIRECT SCF MODE
 INFORMATION **** READM2 **** NEW DEFAULT: COULOMB BIPOLAR BUFFER SET TO 32 Mb
 INFORMATION **** READM2 **** NEW DEFAULT: EXCHANGE BIPOLAR BUFFER SET TO 32 Mb

 *******************************************************************************
 NEW DEFAULT: DFT INTEGRATION GRID INCREASED TO XLGRID
 NEW DEFAULT: DIIS ACCELERATOR ACTIVE
 USE KEYWORD NODIIS TO TURN IT OFF
 *******************************************************************************

 WARNING **** RDDFTP **** HSEsol-HJS ACTIVE
 RANGE SEPARATION - OMEGA:   0.110000000000000     
 WARNING **** RDDFTP **** HSEsol-3c has to be combined with sol-def2-mSVP basis set
 *******************************************************************************
 N. OF ATOMS PER CELL        42  COULOMB OVERLAP TOL         (T1) 10**   -6
 NUMBER OF SHELLS           234  COULOMB PENETRATION TOL     (T2) 10**   -6
 NUMBER OF AO               474  EXCHANGE OVERLAP TOL        (T3) 10**   -6
 N. OF ELECTRONS PER CELL   198  EXCHANGE PSEUDO OVP (F(G))  (T4) 10**   -6
 CORE ELECTRONS PER CELL     60  EXCHANGE PSEUDO OVP (P(G))  (T5) 10**  -12
 N. OF SYMMETRY OPERATORS     1  POLE ORDER IN MONO ZONE                  4
 *******************************************************************************
 TYPE OF CALCULATION :  RESTRICTED CLOSED SHELL
 KOHN-SHAM HAMILTONIAN

 (EXCHANGE)[CORRELATION] FUNCTIONAL:(HSEsol GGA)[PBEsol]

 RANGE-SEPARATED HYBRID FUNCTIONAL 
 OMEGA (SHORT-RANGE)[LONG-RANGE]:(    0.1100)[    0.0000]

 HYBRID EXCHANGE - PERCENTAGE OF FOCK EXCHANGE    25.0000

 CAPPA:IS1  2;IS2  2;IS3  8; K PTS MONK NET  20; SYMMOPS:K SPACE   2;G SPACE   1

 *******************************************************************************
 MAX NUMBER OF SCF CYCLES      50  CONVERGENCE ON DELTAP        10**-16
 WEIGHT OF F(I) IN F(I+1)      30% CONVERGENCE ON ENERGY        10**- 6
 SHRINK. FACT.(MONKH.)    2  2  8  NUMBER OF K POINTS IN THE IBZ     20
 SHRINKING FACTOR(GILAT NET)    8  NUMBER OF K POINTS(GILAT NET)   1028
 *******************************************************************************
 *** K POINTS COORDINATES (OBLIQUE COORDINATES IN UNITS OF IS =  2)
   1-R(  0  0  0)   2-R(  1  0  0)   3-R(  0  1  0)   4-R(  1  1  0)
   5-C(  0  0  1)   6-C(  1  0  1)   7-C(  0  1  1)   8-C(  1  1  1)
   9-C(  0  0  2)  10-C(  1  0  2)  11-C(  0  1  2)  12-C(  1  1  2)
  13-C(  0  0  3)  14-C(  1  0  3)  15-C(  0  1  3)  16-C(  1  1  3)
  17-R(  0  0  4)  18-R(  1  0  4)  19-R(  0  1  4)  20-R(  1  1  4)

 DIRECT LATTICE VECTORS COMPON. (A.U.)     RECIP. LATTICE VECTORS COMPON. (A.U.) 
        X            Y            Z              X            Y            Z
   24.5879030  -14.1935232    0.0000000      0.2555397    0.0000000   -0.2071665
    0.0000000   28.3910867    0.0000000      0.1277517    0.2213084   -0.4143748
    5.6684717    9.8196644    6.9920534      0.0000000    0.0000000    0.8986180

 DISK SPACE FOR EIGENVECTORS (FTN 10)     7189632 REALS

 SYMMETRY ADAPTION OF THE BLOCH FUNCTIONS DISABLED
 TTTTTTTTTTTTTTTTTTTTTTTTTTTTTT gordsh1     TELAPSE        0.04 TCPU        0.04

 MATRIX SIZE: P(G)  321850, F(G)   63637, P(G) IRR  162164, F(G) IRR   64153
 MAX G-VECTOR INDEX FOR 1- AND 2-ELECTRON INTEGRALS  67

 TTTTTTTTTTTTTTTTTTTTTTTTTTTTTT INPUT       TELAPSE        0.40 TCPU        0.40

 NEIGHBORS OF THE NON-EQUIVALENT ATOMS

 N = NUMBER OF NEIGHBORS AT DISTANCE R
    ATOM  N     R/ANG      R/AU   NEIGHBORS (ATOM LABELS AND CELL INDICES)
   1 B    1     1.3791     2.6061   37 O    1 2-3
   1 B    1     1.3793     2.6065   38 O    1 1-1
   1 B    1     1.5503     2.9297   25 C    0 0 0
   1 B    1     2.3895     4.5155    3 B    1 2-3
   1 B    1     2.3898     4.5160    2 B    1 1-1
   1 B    1     2.5632     4.8437   26 C    0 0 0

   2 B    1     1.3793     2.6065   39 O    0 1-2
   2 B    1     1.3793     2.6065   38 O    0 0 0
   2 B    1     1.5504     2.9298   19 C    0 0 0
   2 B    1     2.3895     4.5156    3 B    0 1-2
   2 B    1     2.3898     4.5160    1 B   -1-1 1
   2 B    1     2.5634     4.8440   22 C    0 0 0

   3 B    1     1.3791     2.6061   37 O    0 0 0
   3 B    1     1.3793     2.6064   39 O    0 0 0
   3 B    1     1.5502     2.9294   31 C   -1-1 2
   3 B    1     2.3895     4.5155    1 B   -1-2 3
   3 B    1     2.3895     4.5156    2 B    0-1 2
   3 B    1     2.5629     4.8433   32 C   -1-1 2

   4 B    1     1.3795     2.6068   40 O    0 0 0
   4 B    1     1.3795     2.6070   41 O    0 0 0
   4 B    1     1.5513     2.9316   24 C    0 0 0
   4 B    1     2.3905     4.5174    6 B    0 0 0
   4 B    1     2.3905     4.5175    5 B    0 0 0
   4 B    1     2.5648     4.8468   23 C    0 0 0

   5 B    1     1.3795     2.6069   41 O    0 0 0
   5 B    1     1.3797     2.6072   42 O    0 0 0
   5 B    1     1.5516     2.9322   36 C    0 0 0
   5 B    1     2.3905     4.5175    4 B    0 0 0
   5 B    1     2.3911     4.5185    6 B    0 0 0
   5 B    1     2.5651     4.8473   35 C    0 0 0

   6 B    1     1.3795     2.6068   40 O    0 0 0
   6 B    1     1.3796     2.6071   42 O    0 0 0
   6 B    1     1.5516     2.9322   30 C    0 0 1
   6 B    1     2.3905     4.5174    4 B    0 0 0
   6 B    1     2.3911     4.5185    5 B    0 0 0
   6 B    1     2.5651     4.8473   29 C    0 0 1

   7 H    1     1.0913     2.0623   20 C    0 0 0
   7 H    1     2.1472     4.0576   19 C    0 0 0
   7 H    1     2.1680     4.0969   23 C    0 0 0
   7 H    1     2.5202     4.7625   10 H    0 0 0
   7 H    1     2.5676     4.8520   38 O    0 0 0
   7 H    1     2.7321     5.1630    2 B    0 0 0

   8 H    1     1.0914     2.0625   21 C    0 0 0
   8 H    1     2.1493     4.0616   24 C    0 0 0
   8 H    1     2.1666     4.0942   22 C    0 0 0
   8 H    1     2.5198     4.7618    9 H    0 1-2
   8 H    1     2.5720     4.8604   40 O    0 0 0
   8 H    1     2.7362     5.1707    4 B    0 0 0

   9 H    1     1.0914     2.0624   22 C    0-1 2
   9 H    1     2.1471     4.0575   19 C    0-1 2
   9 H    1     2.1680     4.0970   21 C    0-1 2
   9 H    1     2.5198     4.7618    8 H    0-1 2
   9 H    1     2.5665     4.8500   39 O    0 0 0
   9 H    1     2.7315     5.1618    2 B    0-1 2

  10 H    1     1.0915     2.0626   23 C    0 0 0
  10 H    1     2.1490     4.0610   24 C    0 0 0
  10 H    1     2.1669     4.0948   20 C    0 0 0
  10 H    1     2.5202     4.7625    7 H    0 0 0
  10 H    1     2.5712     4.8588   41 O    0 0 0
  10 H    1     2.7351     5.1686    4 B    0 0 0

  11 H    1     1.0913     2.0623   26 C   -1-1 2
  11 H    1     2.1469     4.0571   25 C   -1-1 2
  11 H    1     2.1680     4.0968   29 C   -1-1 2
  11 H    1     2.5198     4.7617   14 H    0 0 0
  11 H    1     2.5670     4.8510   38 O    0 0 1
  11 H    1     2.7310     5.1609    1 B   -1-1 2

  12 H    1     1.0914     2.0625   27 C    0-1 2
  12 H    1     2.1493     4.0617   30 C    0-1 2
  12 H    1     2.1664     4.0939   28 C    0-1 2
  12 H    1     2.5192     4.7606   13 H    0 0 0
  12 H    1     2.5735     4.8632   40 O    0-1 1
  12 H    1     2.7371     5.1723    6 B    0-1 1

  13 H    1     1.0914     2.0624   28 C    0-1 2
  13 H    1     2.1475     4.0581   25 C    0-1 2
  13 H    1     2.1679     4.0967   27 C    0-1 2
  13 H    1     2.5192     4.7606   12 H    0 0 0
  13 H    1     2.5675     4.8519   37 O    1 1-1
  13 H    1     2.7328     5.1643    1 B    0-1 2

  14 H    1     1.0914     2.0625   29 C   -1-1 2
  14 H    1     2.1491     4.0612   30 C   -1-1 2
  14 H    1     2.1666     4.0942   26 C   -1-1 2
  14 H    1     2.5198     4.7617   11 H    0 0 0
  14 H    1     2.5723     4.8609   42 O   -1-1 1
  14 H    1     2.7355     5.1693    6 B   -1-1 1

  15 H    1     1.0914     2.0624   32 C   -1-1 2
  15 H    1     2.1475     4.0582   31 C   -1-1 2
  15 H    1     2.1678     4.0966   35 C   -1-1 2
  15 H    1     2.5200     4.7621   18 H   -1-1 2
  15 H    1     2.5667     4.8503   39 O    0 0 0
  15 H    1     2.7315     5.1618    3 B    0 0 0

  16 H    1     1.0913     2.0623   33 C    0 0 0
  16 H    1     2.1487     4.0605   36 C    0 0 0
  16 H    1     2.1667     4.0945   34 C    0 0 0
  16 H    1     2.5197     4.7616   17 H    0 0 0
  16 H    1     2.5723     4.8610   41 O    0 0 0
  16 H    1     2.7359     5.1701    5 B    0 0 0

  17 H    1     1.0915     2.0626   34 C    0 0 0
  17 H    1     2.1479     4.0589   31 C    0 0 0
  17 H    1     2.1679     4.0968   33 C    0 0 0
  17 H    1     2.5197     4.7616   16 H    0 0 0
  17 H    1     2.5677     4.8522   37 O    1 1-2
  17 H    1     2.7331     5.1648    3 B    1 1-2

  18 H    1     1.0914     2.0624   35 C    0 0 0
  18 H    1     2.1486     4.0602   36 C    0 0 0
  18 H    1     2.1668     4.0947   32 C    0 0 0
  18 H    1     2.5200     4.7621   15 H    1 1-2
  18 H    1     2.5717     4.8598   42 O    0 0 0
  18 H    1     2.7349     5.1682    5 B    0 0 0

  19 C    1     1.4020     2.6495   22 C    0 0 0
  19 C    1     1.4021     2.6495   20 C    0 0 0
  19 C    1     1.5504     2.9298    2 B    0 0 0
  19 C    1     2.1471     4.0575    9 H    0 1-2
  19 C    1     2.1472     4.0576    7 H    0 0 0
  19 C    1     2.4246     4.5817   21 C    0 0 0

  20 C    1     1.0913     2.0623    7 H    0 0 0
  20 C    1     1.3914     2.6294   23 C    0 0 0
  20 C    1     1.4021     2.6495   19 C    0 0 0
  20 C    1     2.1669     4.0948   10 H    0 0 0
  20 C    1     2.4177     4.5688   22 C    0 0 0
  20 C    1     2.4250     4.5825   24 C    0 0 0

  21 C    1     1.0914     2.0625    8 H    0 0 0
  21 C    1     1.3914     2.6293   22 C    0 0 0
  21 C    1     1.4026     2.6505   24 C    0 0 0
  21 C    1     2.1680     4.0970    9 H    0 1-2
  21 C    1     2.4182     4.5697   23 C    0 0 0
  21 C    1     2.4246     4.5817   19 C    0 0 0

  22 C    1     1.0914     2.0624    9 H    0 1-2
  22 C    1     1.3914     2.6293   21 C    0 0 0
  22 C    1     1.4020     2.6495   19 C    0 0 0
  22 C    1     2.1666     4.0942    8 H    0 0 0
  22 C    1     2.4177     4.5688   20 C    0 0 0
  22 C    1     2.4250     4.5826   24 C    0 0 0

  23 C    1     1.0915     2.0626   10 H    0 0 0
  23 C    1     1.3914     2.6294   20 C    0 0 0
  23 C    1     1.4025     2.6504   24 C    0 0 0
  23 C    1     2.1680     4.0969    7 H    0 0 0
  23 C    1     2.4182     4.5697   21 C    0 0 0
  23 C    1     2.4246     4.5818   19 C    0 0 0

  24 C    1     1.4025     2.6504   23 C    0 0 0
  24 C    1     1.4026     2.6505   21 C    0 0 0
  24 C    1     1.5513     2.9316    4 B    0 0 0
  24 C    1     2.1490     4.0610   10 H    0 0 0
  24 C    1     2.1493     4.0616    8 H    0 0 0
  24 C    1     2.4250     4.5825   20 C    0 0 0

  25 C    1     1.4020     2.6494   26 C    0 0 0
  25 C    1     1.4021     2.6495   28 C    0 0 0
  25 C    1     1.5503     2.9297    1 B    0 0 0
  25 C    1     2.1469     4.0571   11 H    1 1-2
  25 C    1     2.1475     4.0581   13 H    0 1-2
  25 C    1     2.4246     4.5818   27 C    0 0 0

  26 C    1     1.0913     2.0623   11 H    1 1-2
  26 C    1     1.3914     2.6293   29 C    0 0 0
  26 C    1     1.4020     2.6494   25 C    0 0 0
  26 C    1     2.1666     4.0942   14 H    1 1-2
  26 C    1     2.4175     4.5684   28 C    0 0 0
  26 C    1     2.4251     4.5828   30 C    0 0 0

  27 C    1     1.0914     2.0625   12 H    0 1-2
  27 C    1     1.3915     2.6295   28 C    0 0 0
  27 C    1     1.4026     2.6505   30 C    0 0 0
  27 C    1     2.1679     4.0967   13 H    0 1-2
  27 C    1     2.4179     4.5691   29 C    0 0 0
  27 C    1     2.4246     4.5818   25 C    0 0 0

  28 C    1     1.0914     2.0624   13 H    0 1-2
  28 C    1     1.3915     2.6295   27 C    0 0 0
  28 C    1     1.4021     2.6495   25 C    0 0 0
  28 C    1     2.1664     4.0939   12 H    0 1-2
  28 C    1     2.4175     4.5684   26 C    0 0 0
  28 C    1     2.4253     4.5832   30 C    0 0 0

  29 C    1     1.0914     2.0625   14 H    1 1-2
  29 C    1     1.3914     2.6293   26 C    0 0 0
  29 C    1     1.4025     2.6504   30 C    0 0 0
  29 C    1     2.1680     4.0968   11 H    1 1-2
  29 C    1     2.4179     4.5691   27 C    0 0 0
  29 C    1     2.4247     4.5819   25 C    0 0 0

  30 C    1     1.4025     2.6504   29 C    0 0 0
  30 C    1     1.4026     2.6505   27 C    0 0 0
  30 C    1     1.5516     2.9322    6 B    0 0-1
  30 C    1     2.1491     4.0612   14 H    1 1-2
  30 C    1     2.1493     4.0617   12 H    0 1-2
  30 C    1     2.4251     4.5828   26 C    0 0 0

  31 C    1     1.4021     2.6496   32 C    0 0 0
  31 C    1     1.4021     2.6497   34 C    0 0 0
  31 C    1     1.5502     2.9294    3 B    1 1-2
  31 C    1     2.1475     4.0582   15 H    1 1-2
  31 C    1     2.1479     4.0589   17 H    0 0 0
  31 C    1     2.4244     4.5814   33 C    0 0 0

  32 C    1     1.0914     2.0624   15 H    1 1-2
  32 C    1     1.3914     2.6293   35 C    0 0 0
  32 C    1     1.4021     2.6496   31 C    0 0 0
  32 C    1     2.1668     4.0947   18 H    0 0 0
  32 C    1     2.4179     4.5692   34 C    0 0 0
  32 C    1     2.4251     4.5827   36 C    0 0 0

  33 C    1     1.0913     2.0623   16 H    0 0 0
  33 C    1     1.3914     2.6294   34 C    0 0 0
  33 C    1     1.4025     2.6504   36 C    0 0 0
  33 C    1     2.1679     4.0968   17 H    0 0 0
  33 C    1     2.4178     4.5690   35 C    0 0 0
  33 C    1     2.4244     4.5814   31 C    0 0 0

  34 C    1     1.0915     2.0626   17 H    0 0 0
  34 C    1     1.3914     2.6294   33 C    0 0 0
  34 C    1     1.4021     2.6497   31 C    0 0 0
  34 C    1     2.1667     4.0945   16 H    0 0 0
  34 C    1     2.4179     4.5692   32 C    0 0 0
  34 C    1     2.4253     4.5832   36 C    0 0 0

  35 C    1     1.0914     2.0624   18 H    0 0 0
  35 C    1     1.3914     2.6293   32 C    0 0 0
  35 C    1     1.4025     2.6503   36 C    0 0 0
  35 C    1     2.1678     4.0966   15 H    1 1-2
  35 C    1     2.4178     4.5690   33 C    0 0 0
  35 C    1     2.4245     4.5817   31 C    0 0 0

  36 C    1     1.4025     2.6503   35 C    0 0 0
  36 C    1     1.4025     2.6504   33 C    0 0 0
  36 C    1     1.5516     2.9322    5 B    0 0 0
  36 C    1     2.1486     4.0602   18 H    0 0 0
  36 C    1     2.1487     4.0605   16 H    0 0 0
  36 C    1     2.4251     4.5827   32 C    0 0 0

  37 O    1     1.3791     2.6061    1 B   -1-2 3
  37 O    1     1.3791     2.6061    3 B    0 0 0
  37 O    1     2.3880     4.5126   38 O    0-1 2
  37 O    1     2.3882     4.5130   39 O    0 0 0
  37 O    1     2.5383     4.7966   31 C   -1-1 2
  37 O    1     2.5384     4.7968   25 C   -1-2 3

  38 O    1     1.3793     2.6065    1 B   -1-1 1
  38 O    1     1.3793     2.6065    2 B    0 0 0
  38 O    1     2.3880     4.5126   37 O    0 1-2
  38 O    1     2.3882     4.5131   39 O    0 1-2
  38 O    1     2.5391     4.7981   19 C    0 0 0
  38 O    1     2.5395     4.7990   25 C   -1-1 1

  39 O    1     1.3793     2.6064    3 B    0 0 0
  39 O    1     1.3793     2.6065    2 B    0-1 2
  39 O    1     2.3882     4.5130   37 O    0 0 0
  39 O    1     2.3882     4.5131   38 O    0-1 2
  39 O    1     2.5390     4.7980   19 C    0-1 2
  39 O    1     2.5391     4.7982   31 C   -1-1 2

  40 O    1     1.3795     2.6068    6 B    0 0 0
  40 O    1     1.3795     2.6068    4 B    0 0 0
  40 O    1     2.3880     4.5126   42 O    0 0 0
  40 O    1     2.3884     4.5134   41 O    0 0 0
  40 O    1     2.5400     4.7998   24 C    0 0 0
  40 O    1     2.5403     4.8005   30 C    0 0 1

  41 O    1     1.3795     2.6069    5 B    0 0 0
  41 O    1     1.3795     2.6070    4 B    0 0 0
  41 O    1     2.3881     4.5128   42 O    0 0 0
  41 O    1     2.3884     4.5134   40 O    0 0 0
  41 O    1     2.5404     4.8006   24 C    0 0 0
  41 O    1     2.5405     4.8008   36 C    0 0 0

  42 O    1     1.3796     2.6071    6 B    0 0 0
  42 O    1     1.3797     2.6072    5 B    0 0 0
  42 O    1     2.3880     4.5126   40 O    0 0 0
  42 O    1     2.3881     4.5128   41 O    0 0 0
  42 O    1     2.5409     4.8016   36 C    0 0 0
  42 O    1     2.5410     4.8019   30 C    0 0 1


 SYMMETRY ALLOWED INTERNAL DEGREE(S) OF FREEDOM: 123
 TTTTTTTTTTTTTTTTTTTTTTTTTTTTTT SYMM        TELAPSE        0.40 TCPU        0.40
 TTTTTTTTTTTTTTTTTTTTTTTTTTTTTT INT_SCREEN  TELAPSE        0.44 TCPU        0.44

 DFT PARAMETERS

     ATOM       ELECTRONS   NET CHARGE   R(ANGSTROM)
   1   5  B       5.0000      0.0000     0.89000000
   7   1  H       1.0000      0.0000     1.11000000
  19   6  C       6.0000      0.0000     0.77000000
  37   8  O       8.0000      0.0000     0.74000000

 SIZE OF GRID=    1303380
 TTTTTTTTTTTTTTTTTTTTTTTTTTTTTT MAKE_GRID2  TELAPSE        9.09 TCPU        9.08
 BECKE WEIGHT FUNCTION
 RADSAFE =     2.00
 TOLERANCES - DENSITY:10**- 6; POTENTIAL:10**- 9; GRID WGT:10**-14

 RADIAL INTEGRATION  - INTERVALS (POINTS,UPPER LIMIT):            1( 75,  4.0*R)

 ANGULAR INTEGRATION - INTERVALS (ACCURACY LEVEL [N. POINTS] UPPER LIMIT):
  1(  4[  86]   0.2)  2(  8[ 194]   0.5)  3( 12[ 350]   0.9)  4( 16[ 974]   3.5)
  5( 12[ 350]9999.0)
 TTTTTTTTTTTTTTTTTTTTTTTTTTTTTT INT_CALC    TELAPSE        9.17 TCPU        9.16
 EEEEEEEEEE INT_CALC TERMINATION  DATE 19 02 2026 TIME 18:52:49.8

 *******************************************************************************
 cof-1_z37_L060_incl                                                             
 CRYSTAL - SCF - TYPE OF CALCULATION :  RESTRICTED CLOSED SHELL
 *******************************************************************************

 CAPPA:IS1  2;IS2  2;IS3  8; K PTS MONK NET  20; SYMMOPS:K SPACE   2;G SPACE   1

 TTTTTTTTTTTTTTTTTTTTTTTTTTTTTT SDIK        TELAPSE        9.79 TCPU       18.02

 AAAAAAAAAAAAAAAAAAAAAAAAAAAAAAAAAAAAAAAAAAAAAAAAAAAAAAAAAAAAAAAAAAAAAAAAAAAAAAA
         ATOMIC WAVEFUNCTION(S)


 NUCLEAR CHARGE  5.0  SYMMETRY SPECIES            S    P
 N. ELECTRONS    5.0  NUMBER OF PRIMITIVE GTOS    8    4
                      NUMBER OF CONTRACTED GTOS   4    2
                      NUMBER OF CLOSED SHELLS     2    0
                      OPEN SHELL OCCUPATION       0    1

  ZNUC  SCFIT    TOTAL HF ENERGY   KINETIC ENERGY   VIRIAL THEOREM ACCURACY
   5.0    11    -2.451164084E+01  2.462155050E+01 -1.995536038E+00  1.5E-06

 NUCLEAR CHARGE  1.0  SYMMETRY SPECIES            S
 N. ELECTRONS    1.0  NUMBER OF PRIMITIVE GTOS    4
                      NUMBER OF CONTRACTED GTOS   2
                      NUMBER OF CLOSED SHELLS     0
                      OPEN SHELL OCCUPATION       1

  ZNUC  SCFIT    TOTAL HF ENERGY   KINETIC ENERGY   VIRIAL THEOREM ACCURACY
   1.0     1    -4.977266687E-01  5.190767460E-01 -1.958869132E+00  0.0E+00

 NUCLEAR CHARGE  6.0  SYMMETRY SPECIES            S    P
 N. ELECTRONS    6.0  NUMBER OF PRIMITIVE GTOS    8    4
                      NUMBER OF CONTRACTED GTOS   4    2
                      NUMBER OF CLOSED SHELLS     2    0
                      OPEN SHELL OCCUPATION       0    2

  ZNUC  SCFIT    TOTAL HF ENERGY   KINETIC ENERGY   VIRIAL THEOREM ACCURACY
   6.0     9    -3.766704647E+01  3.775180683E+01 -1.997754800E+00  1.1E-06

 NUCLEAR CHARGE  8.0  SYMMETRY SPECIES            S    P
 N. ELECTRONS    8.0  NUMBER OF PRIMITIVE GTOS    8    4
                      NUMBER OF CONTRACTED GTOS   4    2
                      NUMBER OF CLOSED SHELLS     2    0
                      OPEN SHELL OCCUPATION       0    4

  ZNUC  SCFIT    TOTAL HF ENERGY   KINETIC ENERGY   VIRIAL THEOREM ACCURACY
   8.0    12    -7.477373220E+01  7.477365593E+01 -2.000001020E+00  3.8E-06

 AAAAAAAAAAAAAAAAAAAAAAAAAAAAAAAAAAAAAAAAAAAAAAAAAAAAAAAAAAAAAAAAAAAAAAAAAAAAAAA

 CHARGE NORMALIZATION FACTOR   1.00000000
 TOTAL ATOMIC CHARGES:
   5.0000000   5.0000000   5.0000000   5.0000000   5.0000000   5.0000000
   1.0000000   1.0000000   1.0000000   1.0000000   1.0000000   1.0000000
   1.0000000   1.0000000   1.0000000   1.0000000   1.0000000   1.0000000
   6.0000000   6.0000000   6.0000000   6.0000000   6.0000000   6.0000000
   6.0000000   6.0000000   6.0000000   6.0000000   6.0000000   6.0000000
   6.0000000   6.0000000   6.0000000   6.0000000   6.0000000   6.0000000
   8.0000000   8.0000000   8.0000000   8.0000000   8.0000000   8.0000000
 TTTTTTTTTTTTTTTTTTTTTTTTTTTTTT MOQGAD      TELAPSE        9.84 TCPU       19.42
 TTTTTTTTTTTTTTTTTTTTTTTTTTTTTT SHELLXN     TELAPSE       16.76 TCPU      240.41
 TTTTTTTTTTTTTTTTTTTTTTTTTTTTTT MONMO3      TELAPSE       16.90 TCPU      245.02
 NUMERICALLY INTEGRATED DENSITY    197.9999512385
 TTTTTTTTTTTTTTTTTTTTTTTTTTTTTT NUMDFT      TELAPSE       17.51 TCPU      264.44
 CYC   0 ETOT(AU) -1.295960314199E+03 DETOT -1.30E+03 tst  0.00E+00 PX  1.00E+00
 TTTTTTTTTTTTTTTTTTTTTTTTTTTTTT DIIS        TELAPSE       17.54 TCPU      265.62
 TTTTTTTTTTTTTTTTTTTTTTTTTTTTTT FDIK        TELAPSE       18.04 TCPU      281.34
 INSULATING STATE
 TOP OF VALENCE BANDS -    BAND     99; K    1; EIG -3.1084935E-01 AU
 BOTTOM OF VIRTUAL BANDS - BAND    100; K   17; EIG -1.6222436E-01 AU
 INDIRECT ENERGY BAND GAP:   4.0443 eV
 BOTTOM OF VIRTUAL BANDS - BAND    100; K    1; EIG -1.5578163E-01 AU
 TTTTTTTTTTTTTTTTTTTTTTTTTTTTTT PDIG        TELAPSE       18.40 TCPU      287.18
 CHARGE NORMALIZATION FACTOR   1.00000000
 TOTAL ATOMIC CHARGES:
   4.1488444   4.1651945   4.1655447   4.1647823   4.1644724   4.1482138
   0.7853226   0.7854576   0.7848860   0.7849916   0.7856845   0.7859009
   0.7856710   0.7858401   0.7848735   0.7850598   0.7852715   0.7854523
   6.0443103   6.2663866   6.2664355   6.2656982   6.2658233   6.0437683
   6.0456528   6.2632682   6.2634620   6.2632060   6.2634303   6.0444715
   6.0447125   6.2654602   6.2661906   6.2659952   6.2667222   6.0433384
   8.6950445   8.6953253   8.6939241   8.6956101   8.6944203   8.6958800
 TTTTTTTTTTTTTTTTTTTTTTTTTTTTTT MOQGAD      TELAPSE       18.44 TCPU      287.22
 TTTTTTTTTTTTTTTTTTTTTTTTTTTTTT SHELLXN     TELAPSE       25.64 TCPU      516.63
 TTTTTTTTTTTTTTTTTTTTTTTTTTTTTT MONMO3      TELAPSE       25.79 TCPU      521.22
 NUMERICALLY INTEGRATED DENSITY    197.9999715998
 TTTTTTTTTTTTTTTTTTTTTTTTTTTTTT NUMDFT      TELAPSE       26.40 TCPU      540.94
 CYC   1 ETOT(AU) -1.288819643949E+03 DETOT  7.14E+00 tst  0.00E+00 PX  1.00E+00
 TTTTTTTTTTTTTTTTTTTTTTTTTTTTTT DIIS        TELAPSE       26.45 TCPU      542.48
 DIIS TEST: 0.11032E+01 AT SCF   CYCLE   1 - MIX   30 %
 TTTTTTTTTTTTTTTTTTTTTTTTTTTTTT FDIK        TELAPSE       26.95 TCPU      558.48
 INSULATING STATE
 TOP OF VALENCE BANDS -    BAND     99; K    1; EIG -2.2361468E-01 AU
 BOTTOM OF VIRTUAL BANDS - BAND    100; K   17; EIG -8.8417729E-02 AU
 INDIRECT ENERGY BAND GAP:   3.6789 eV
 BOTTOM OF VIRTUAL BANDS - BAND    100; K    1; EIG -7.7556294E-02 AU
 TTTTTTTTTTTTTTTTTTTTTTTTTTTTTT PDIG        TELAPSE       27.28 TCPU      564.31
 CHARGE NORMALIZATION FACTOR   1.00000000
 TOTAL ATOMIC CHARGES:
   4.7012578   4.7005957   4.7010959   4.7006243   4.7004535   4.7016191
   0.9081735   0.9082829   0.9125071   0.9124395   0.9002851   0.9003361
   0.9004043   0.9002222   0.9124325   0.9125394   0.9082350   0.9082326
   5.8668391   6.1442387   6.1450270   6.1337561   6.1338993   5.8692174
   5.8935459   6.1304627   6.1311397   6.1308677   6.1308141   5.8969510
   5.8666861   6.1336006   6.1341049   6.1447114   6.1444161   5.8692250
   8.3372079   8.3375184   8.3309916   8.3372334   8.3304395   8.3373698
 TTTTTTTTTTTTTTTTTTTTTTTTTTTTTT MOQGAD      TELAPSE       27.33 TCPU      564.36
 TTTTTTTTTTTTTTTTTTTTTTTTTTTTTT SHELLXN     TELAPSE       34.53 TCPU      793.78
 TTTTTTTTTTTTTTTTTTTTTTTTTTTTTT MONMO3      TELAPSE       34.68 TCPU      798.37
 NUMERICALLY INTEGRATED DENSITY    197.9999664715
 TTTTTTTTTTTTTTTTTTTTTTTTTTTTTT NUMDFT      TELAPSE       35.29 TCPU      818.06
 CYC   2 ETOT(AU) -1.289013499421E+03 DETOT -1.94E-01 tst  3.58E-03 PX  1.59E-01
 TTTTTTTTTTTTTTTTTTTTTTTTTTTTTT DIIS        TELAPSE       35.34 TCPU      819.71
 DIIS TEST: 0.45601E+00 AT SCF   CYCLE   2 - DIIS ACTIVE - HISTORY:     2 CYCLES
 TTTTTTTTTTTTTTTTTTTTTTTTTTTTTT FDIK        TELAPSE       35.84 TCPU      835.62
 INSULATING STATE
 TOP OF VALENCE BANDS -    BAND     99; K    1; EIG -2.3560576E-01 AU
 BOTTOM OF VIRTUAL BANDS - BAND    100; K   17; EIG -8.3361019E-02 AU
 INDIRECT ENERGY BAND GAP:   4.1428 eV
 BOTTOM OF VIRTUAL BANDS - BAND    100; K    1; EIG -7.3547010E-02 AU
 TTTTTTTTTTTTTTTTTTTTTTTTTTTTTT PDIG        TELAPSE       36.17 TCPU      841.46
 CHARGE NORMALIZATION FACTOR   1.00000000
 TOTAL ATOMIC CHARGES:
   4.4889530   4.5001831   4.5005187   4.5000492   4.4997282   4.4889926
   0.8872329   0.8875216   0.8904283   0.8903236   0.8801495   0.8804860
   0.8802980   0.8803190   0.8903023   0.8904660   0.8873627   0.8873676
   5.8941384   6.1622067   6.1619437   6.1590154   6.1589253   5.8941313
   5.8958766   6.1640666   6.1635971   6.1639310   6.1637577   5.8951316
   5.8941863   6.1590277   6.1589811   6.1618908   6.1621960   5.8940359
   8.5128974   8.5133428   8.5144992   8.5132460   8.5146821   8.5136109
 TTTTTTTTTTTTTTTTTTTTTTTTTTTTTT MOQGAD      TELAPSE       36.22 TCPU      841.50
 TTTTTTTTTTTTTTTTTTTTTTTTTTTTTT SHELLXN     TELAPSE       43.42 TCPU     1070.95
 TTTTTTTTTTTTTTTTTTTTTTTTTTTTTT MONMO3      TELAPSE       43.57 TCPU     1075.54
 NUMERICALLY INTEGRATED DENSITY    197.9999670025
 TTTTTTTTTTTTTTTTTTTTTTTTTTTTTT NUMDFT      TELAPSE       44.18 TCPU     1095.27
 CYC   3 ETOT(AU) -1.289107596710E+03 DETOT -9.41E-02 tst  7.12E-04 PX  6.53E-02
 TTTTTTTTTTTTTTTTTTTTTTTTTTTTTT DIIS        TELAPSE       44.24 TCPU     1097.15
 DIIS TEST: 0.13991E-01 AT SCF   CYCLE   3 - DIIS ACTIVE - HISTORY:     3 CYCLES
 TTTTTTTTTTTTTTTTTTTTTTTTTTTTTT FDIK        TELAPSE       44.74 TCPU     1113.17
 INSULATING STATE
 TOP OF VALENCE BANDS -    BAND     99; K    1; EIG -2.4604971E-01 AU
 BOTTOM OF VIRTUAL BANDS - BAND    100; K   17; EIG -9.2000688E-02 AU
 INDIRECT ENERGY BAND GAP:   4.1919 eV
 BOTTOM OF VIRTUAL BANDS - BAND    100; K    1; EIG -8.1276797E-02 AU
 TTTTTTTTTTTTTTTTTTTTTTTTTTTTTT PDIG        TELAPSE       45.08 TCPU     1119.01
 CHARGE NORMALIZATION FACTOR   1.00000000
 TOTAL ATOMIC CHARGES:
   4.4954910   4.5043839   4.5047506   4.5042611   4.5039524   4.4955855
   0.8698840   0.8700232   0.8733363   0.8732847   0.8629911   0.8631099
   0.8630765   0.8630085   0.8732864   0.8733833   0.8699373   0.8699636
   5.9376320   6.1728866   6.1734918   6.1658988   6.1662205   5.9391527
   5.9553884   6.1661242   6.1667848   6.1664736   6.1664469   5.9573611
   5.9378033   6.1656136   6.1665389   6.1731245   6.1731600   5.9389146
   8.4813262   8.4815523   8.4757539   8.4814806   8.4755696   8.4815917
 TTTTTTTTTTTTTTTTTTTTTTTTTTTTTT MOQGAD      TELAPSE       45.12 TCPU     1119.05
 TTTTTTTTTTTTTTTTTTTTTTTTTTTTTT SHELLXN     TELAPSE       52.33 TCPU     1348.54
 TTTTTTTTTTTTTTTTTTTTTTTTTTTTTT MONMO3      TELAPSE       52.47 TCPU     1353.14
 NUMERICALLY INTEGRATED DENSITY    197.9999673159
 TTTTTTTTTTTTTTTTTTTTTTTTTTTTTT NUMDFT      TELAPSE       53.09 TCPU     1372.85
 CYC   4 ETOT(AU) -1.289110568991E+03 DETOT -2.97E-03 tst  2.69E-05 PX  1.38E-02
 TTTTTTTTTTTTTTTTTTTTTTTTTTTTTT DIIS        TELAPSE       53.15 TCPU     1374.82
 DIIS TEST: 0.40540E-02 AT SCF   CYCLE   4 - DIIS ACTIVE - HISTORY:     4 CYCLES
 TTTTTTTTTTTTTTTTTTTTTTTTTTTTTT FDIK        TELAPSE       53.65 TCPU     1390.78
 INSULATING STATE
 TOP OF VALENCE BANDS -    BAND     99; K    1; EIG -2.4402045E-01 AU
 BOTTOM OF VIRTUAL BANDS - BAND    100; K   17; EIG -9.1653023E-02 AU
 INDIRECT ENERGY BAND GAP:   4.1461 eV
 BOTTOM OF VIRTUAL BANDS - BAND    100; K    1; EIG -8.1195559E-02 AU
 TTTTTTTTTTTTTTTTTTTTTTTTTTTTTT PDIG        TELAPSE       53.98 TCPU     1396.62
 CHARGE NORMALIZATION FACTOR   1.00000000
 TOTAL ATOMIC CHARGES:
   4.4986122   4.5060324   4.5064294   4.5060004   4.5056926   4.4987678
   0.8730731   0.8733032   0.8765595   0.8765178   0.8658623   0.8661437
   0.8660000   0.8659943   0.8764600   0.8766528   0.8731796   0.8731889
   5.9219860   6.1716509   6.1716424   6.1658241   6.1656652   5.9222269
   5.9340520   6.1679020   6.1675375   6.1678248   6.1676442   5.9342015
   5.9219378   6.1657614   6.1657843   6.1714795   6.1717247   5.9221823
   8.4900359   8.4904495   8.4885998   8.4902871   8.4885262   8.4906042
 TTTTTTTTTTTTTTTTTTTTTTTTTTTTTT MOQGAD      TELAPSE       54.03 TCPU     1396.66
 TTTTTTTTTTTTTTTTTTTTTTTTTTTTTT SHELLXN     TELAPSE       61.24 TCPU     1626.39
 TTTTTTTTTTTTTTTTTTTTTTTTTTTTTT MONMO3      TELAPSE       61.38 TCPU     1630.99
 NUMERICALLY INTEGRATED DENSITY    197.9999673227
 TTTTTTTTTTTTTTTTTTTTTTTTTTTTTT NUMDFT      TELAPSE       62.00 TCPU     1650.69
 CYC   5 ETOT(AU) -1.289111499939E+03 DETOT -9.31E-04 tst  6.77E-06 PX  6.69E-03
 TTTTTTTTTTTTTTTTTTTTTTTTTTTTTT DIIS        TELAPSE       62.07 TCPU     1652.94
 DIIS TEST: 0.59786E-04 AT SCF   CYCLE   5 - DIIS ACTIVE - HISTORY:     5 CYCLES
 TTTTTTTTTTTTTTTTTTTTTTTTTTTTTT FDIK        TELAPSE       62.57 TCPU     1668.93
 INSULATING STATE
 TOP OF VALENCE BANDS -    BAND     99; K    1; EIG -2.4383231E-01 AU
 BOTTOM OF VIRTUAL BANDS - BAND    100; K   17; EIG -9.1082210E-02 AU
 INDIRECT ENERGY BAND GAP:   4.1565 eV
 BOTTOM OF VIRTUAL BANDS - BAND    100; K    1; EIG -8.0780154E-02 AU
 TTTTTTTTTTTTTTTTTTTTTTTTTTTTTT PDIG        TELAPSE       62.91 TCPU     1674.77
 CHARGE NORMALIZATION FACTOR   1.00000000
 TOTAL ATOMIC CHARGES:
   4.4976497   4.5063789   4.5067510   4.5062384   4.5059379   4.4977072
   0.8739546   0.8741213   0.8773535   0.8772553   0.8668832   0.8670107
   0.8669661   0.8669174   0.8772785   0.8773644   0.8740153   0.8740503
   5.9214421   6.1709412   6.1713855   6.1649920   6.1654484   5.9228796
   5.9326607   6.1670746   6.1677066   6.1674332   6.1673662   5.9341006
   5.9216736   6.1647946   6.1656963   6.1711040   6.1711373   5.9225748
   8.4903009   8.4905429   8.4868882   8.4905054   8.4868767   8.4906408
 TTTTTTTTTTTTTTTTTTTTTTTTTTTTTT MOQGAD      TELAPSE       62.96 TCPU     1674.82
 TTTTTTTTTTTTTTTTTTTTTTTTTTTTTT SHELLXN     TELAPSE       70.16 TCPU     1904.31
 TTTTTTTTTTTTTTTTTTTTTTTTTTTTTT MONMO3      TELAPSE       70.31 TCPU     1908.90
 NUMERICALLY INTEGRATED DENSITY    197.9999673026
 TTTTTTTTTTTTTTTTTTTTTTTTTTTTTT NUMDFT      TELAPSE       70.92 TCPU     1928.66
 CYC   6 ETOT(AU) -1.289111516427E+03 DETOT -1.65E-05 tst  1.30E-07 PX  1.01E-03
 TTTTTTTTTTTTTTTTTTTTTTTTTTTTTT DIIS        TELAPSE       71.00 TCPU     1930.96
 DIIS TEST: 0.61637E-05 AT SCF   CYCLE   6 - DIIS ACTIVE - HISTORY:     6 CYCLES
 TTTTTTTTTTTTTTTTTTTTTTTTTTTTTT FDIK        TELAPSE       71.49 TCPU     1946.91
 INSULATING STATE
 TOP OF VALENCE BANDS -    BAND     99; K    1; EIG -2.4383391E-01 AU
 BOTTOM OF VIRTUAL BANDS - BAND    100; K   17; EIG -9.1185894E-02 AU
 INDIRECT ENERGY BAND GAP:   4.1538 eV
 BOTTOM OF VIRTUAL BANDS - BAND    100; K    1; EIG -8.0796866E-02 AU
 TTTTTTTTTTTTTTTTTTTTTTTTTTTTTT PDIG        TELAPSE       71.83 TCPU     1952.75
 CHARGE NORMALIZATION FACTOR   1.00000000
 TOTAL ATOMIC CHARGES:
   4.4981842   4.5062184   4.5066008   4.5061883   4.5058800   4.4983315
   0.8739131   0.8741374   0.8773471   0.8773151   0.8667184   0.8670021
   0.8668626   0.8668463   0.8772538   0.8774431   0.8740195   0.8740218
   5.9220113   6.1709889   6.1710188   6.1652566   6.1650196   5.9222077
   5.9340512   6.1672549   6.1668794   6.1671438   6.1670142   5.9342845
   5.9219377   6.1651575   6.1651725   6.1708194   6.1711016   5.9222000
   8.4898022   8.4902195   8.4879276   8.4900575   8.4878126   8.4903777
 TTTTTTTTTTTTTTTTTTTTTTTTTTTTTT MOQGAD      TELAPSE       71.87 TCPU     1952.79
 TTTTTTTTTTTTTTTTTTTTTTTTTTTTTT SHELLXN     TELAPSE       79.08 TCPU     2182.34
 TTTTTTTTTTTTTTTTTTTTTTTTTTTTTT MONMO3      TELAPSE       79.22 TCPU     2186.93
 NUMERICALLY INTEGRATED DENSITY    197.9999672959
 TTTTTTTTTTTTTTTTTTTTTTTTTTTTTT NUMDFT      TELAPSE       79.84 TCPU     2206.64
 CYC   7 ETOT(AU) -1.289111517181E+03 DETOT -7.54E-07 tst  1.41E-08 PX  4.06E-04
 TTTTTTTTTTTTTTTTTTTTTTTTTTTTTT DIIS        TELAPSE       79.92 TCPU     2209.25
 DIIS TEST: 0.12117E-05 AT SCF   CYCLE   7 - DIIS ACTIVE - HISTORY:     7 CYCLES
 TTTTTTTTTTTTTTTTTTTTTTTTTTTTTT FDIK        TELAPSE       80.42 TCPU     2225.25
 INSULATING STATE
 TOP OF VALENCE BANDS -    BAND     99; K    1; EIG -2.4384339E-01 AU
 BOTTOM OF VIRTUAL BANDS - BAND    100; K   17; EIG -9.1193476E-02 AU
 INDIRECT ENERGY BAND GAP:   4.1538 eV
 BOTTOM OF VIRTUAL BANDS - BAND    100; K    1; EIG -8.0808971E-02 AU
 TTTTTTTTTTTTTTTTTTTTTTTTTTTTTT PDIG        TELAPSE       80.75 TCPU     2231.09
 CHARGE NORMALIZATION FACTOR   1.00000000
 TOTAL ATOMIC CHARGES:
   4.4981715   4.5063070   4.5066893   4.5062165   4.5059111   4.4982800
   0.8738942   0.8740938   0.8773390   0.8772598   0.8667356   0.8669351
   0.8668424   0.8668171   0.8772501   0.8773837   0.8739772   0.8740017
   5.9216400   6.1709698   6.1711936   6.1650303   6.1652317   5.9225481
   5.9335223   6.1670727   6.1672464   6.1672448   6.1670980   5.9343453
   5.9217585   6.1649082   6.1654065   6.1709795   6.1710969   5.9223487
   8.4900271   8.4903455   8.4876002   8.4902481   8.4875677   8.4904649
 TTTTTTTTTTTTTTTTTTTTTTTTTTTTTT MOQGAD      TELAPSE       80.80 TCPU     2231.13
 TTTTTTTTTTTTTTTTTTTTTTTTTTTTTT SHELLXN     TELAPSE       88.00 TCPU     2460.55
 +++ ENERGIES IN A.U. +++
 ::: EXT EL-POLE                                  -1.4089434322614E+03
 ::: EXT EL-SPHEROPOLE                             1.5475235997660E+01
 ::: BIELET ZONE E-E                               2.0964879339506E+03
 ::: TOTAL E-E                                     7.0301973768684E+02
 ::: TOTAL E-N + N-E                              -3.2334074866274E+03
 ::: TOTAL N-N                                     9.5059906163561E+01
 ::: KINETIC ENERGY                                1.2799329548644E+03
 ::: PSEUDO TOTAL   ENERGY                        -1.1553948879126E+03
 ::: VIRIAL COEFFICIENT                            1.0511381115775E+00
 TTTTTTTTTTTTTTTTTTTTTTTTTTTTTT MONMO3      TELAPSE       88.15 TCPU     2465.15
 NUMERICALLY INTEGRATED DENSITY    197.9999672966
 EXCHANGE ENERGY: -0.126024470567E+03  CORRELATION ENERGY: -0.769215889968E+01
 TTTTTTTTTTTTTTTTTTTTTTTTTTTTTT NUMDFT      TELAPSE       88.76 TCPU     2484.91
 CYC   8 ETOT(AU) -1.289111517379E+03 DETOT -1.99E-07 tst  3.86E-09 PX  4.06E-04

 == SCF ENDED - CONVERGENCE ON ENERGY      E(AU) -1.2891115173795E+03 CYCLES   8


 ENERGY EXPRESSION=HARTREE+FOCK EXCH*0.00000+(HSESOL     EXCH)*1.00000+PBESOL     CORR


 TOTAL ENERGY(DFT)(AU)(  8) -1.2891115173795E+03 DE-2.0E-07 tester 3.9E-09
 TTTTTTTTTTTTTTTTTTTTTTTTTTTTTT EDFT        TELAPSE       88.76 TCPU     2484.93
 
 INFORMATION **** DFTD3 ENERGY **** CALCULATE DFTD3 ENERGY

           DFT-D V3(BJ)
 DF                                         hsesol3c  
 parameters
 s6       :    1.0000
 s8       :    0.0000
 a1       :    0.5196
 a2       :    4.9385
 k1 k3    :   16.0000   -4.0000
 Cutoff   :   50.2022
 CN-Cutoff:   21.1671
 ABC-Cutoff:   21.1671
 
 Edisp /kcal,au:   -25.2632 -0.04025953

 E6    /kcal :   -26.7108
 E8    /kcal :     0.0000
 E6(ABC) "   :   1.447574
 
 INFORMATION **** DFTD3 ENERGY **** NORMAL TERMINATION OF DFTD3 MODULE

 GCP ENERGY CALCULATION
  level        hsesol3c            basis:hsesol3c
  Nbf            474
  Atoms           42

  Parameters: 
  sigma     1.0000
  eta       1.4281
  alpha     0.2936
  beta      1.9467

  dmp_scal      4.0000
  dmp_exp       6.0000
 cutoffs: 
   distance [bohr] 60.0
   noise    [a.u.] 2.2E-16
 SR-damping   T
 ** gCP correction **
  Egcp:        0.0830439409 / (a.u.) ||      52.1109 / (kcal/mol)
 INFORMATION **** GCP **** NORMAL TERMINATION OF GCP MODULE

 *******************************************************************************

 DFT-D3-GCP DISPERSION AND COUNTERPOISE CORRECTION

 D3 DISPERSION ENERGY (AU)      -4.0259531518889E-02
 GCP ENERGY (AU)                 8.3043940933862E-02
 TOTAL ENERGY + DISP + GCP (AU) -1.2890687329701E+03

 *******************************************************************************

 EIGENVECTORS IN FORTRAN UNIT  8
 TTTTTTTTTTTTTTTTTTTTTTTTTTTTTT END         TELAPSE       90.34 TCPU     2492.04
 EEEEEEEEEE TERMINATION  DATE 19 02 2026 TIME 18:54:10.9
