 Default number of threads is:           32

         
 *******************************************************************************
 *                                                                             *
 *                               CRYSTAL23                                     *
 *                      public : 1.0.1 - October 2022                          *
 *                       HTTP://WWW.CRYSTAL.UNITO.IT                           *
 *                                                                             *
 *                              MAIN AUTHORS                                   *
 *                                                                             *
 *  R. DOVESI(1,11), V.R. SAUNDERS(2), C. ROETTI(1,11), R. ORLANDO(1,11),      *
 *  C.M. ZICOVICH-WILSON(1,3), F. PASCALE(4), B. CIVALLERI(1,11),              *
 *  K. DOLL(5), N.M. HARRISON(6), I.J. BUSH(7), Ph. D'ARCO(8),                 *
 *  M. LLUNELL(9), M. CAUSA'(10), Y. NOEL(8), L. MASCHIO(1,11), A. ERBA(1,11)  *
 *  M. RE'RAT(14), S. CASASSA(1,11), B.G. SEARLE(2), J.K. DESMARAIS(1)         *
 *                                                                             *
 *        CONTRIBUTIONS TO THE CODE HAVE ALSO BEEN GIVEN BY                    *
 *                                                                             *
 *  M. FERRABONE(1,11), M. DE LA PIERRE(1,11), M. FERRERO(1,11),               *
 *  J. BAIMA(1,11), E. ALBANESE(1,11), M.F. PEINTINGER(12), R. BAST(13),       *
 *  B. KIRTMAN(15), V. LACIVITA(1,11), R. DEMICHELIS(1,16)                     *
 *  G. BRANDEBURG(17), S. SALUSTRO(1,11), G. SANSONE(1,11)                     *
 *  M.T. RUGGIERO(18), L.E. DAGA(1), L. DONA'(1), A. COSSARD(1)                *
 *                                                                             *
 * (1) THEORETICAL CHEMISTRY GROUP - UNIVERSITA' DI TORINO - TORINO (ITALY)    *
 * (2) SCIENTIFIC COMPUTING DEPARTMENT - STFC DARESBURY (UK)                   *
 * (3) UNIVERSIDAD AUTONOMA DEL ESTADO DE MORELOS - CUERNAVACA (MEXICO)        *
 * (4) UNIVERSITE' DE LORRAINE - NANCY (FRANCE)                                *
 * (5) UNIVERSITAET STUTTGART- STUTTGART (GERMANY)                             *
 * (6) IMPERIAL COLLEGE - LONDON (UK)                                          *
 * (7) SCIENTIFIC COMPUTING DEPARTMENT - STFC RAL (UK)                         *
 * (8) UPMC - SORBONNE UNIVERSITES - PARIS (FRANCE)                            *
 * (9) UNIVERSIDAD DE BARCELONA - BARCELONA (SPAIN)                            *
 *(10) UNIVERSITA' DI NAPOLI "FEDERICO II" - NAPOLI (ITALY)                    *
 *(11) NIS - NANOSTRUCTURED INTERFACES AND SURFACES - TORINO (ITALY)           *
 *(12) MPI FUER CHEMISCHE ENERGIEKONVERSION - MUELHEIM AN DER RUHR (GERMANY)   *
 *(13) UNIVERSITY OF TROMSO - TROMSO (NORWAY)                                  *
 *(14) UNIVERSITE' DE PAU ET DES PAYS DE L'ADOUR - PAU (FRANCE)                *
 *(15) UNIVERSITY OF CALIFORNIA SANTA BARBARA - SANTA BARBARA (USA)            *
 *(16) CURTIN UNIVERSITY - PERTH (AUSTRALIA)                                   *
 *(17) UNIVERSITY COLLEGE LONDON - LONDON (UK)                                 *
 *(18) UNIVERSITY OF VERMONT - BURLINGTON (USA)                                *
 *                                                                             *
 *******************************************************************************
 EEEEEEEEEE STARTING  DATE 19 02 2026 TIME 19:21:23.3
 cof-1_z44_L087_incl                                                             

 CRYSTAL CALCULATION
 (INPUT ACCORDING TO THE INTERNATIONAL TABLES FOR X-RAY CRYSTALLOGRAPHY)
 CRYSTAL FAMILY                       :  TRICLINIC   
 CRYSTAL CLASS  (GROTH - 1921)        :  TRICLINIC PEDIAL                     

 SPACE GROUP (NONCENTROSYMMETRIC)     :  P 1             

 LATTICE PARAMETERS  (ANGSTROMS AND DEGREES) - CONVENTIONAL CELL
        A           B           C        ALPHA        BETA       GAMMA
    15.02361    15.02392     9.72661    39.43210    89.99997   119.99596


 NUMBER OF IRREDUCIBLE ATOMS IN THE CONVENTIONAL CELL:   42

 INPUT COORDINATES

 ATOM AT. N.              COORDINATES
   1   5     4.466692300000E-01 -1.067383500000E-01  5.010797600000E-01
   2   5     6.057248900000E-01  5.232131000000E-02  5.010797700000E-01
   3   5     4.474257300000E-01  5.382579000000E-02  4.987972600000E-01
   4   5     6.024394000000E-02  2.795766500000E-01  5.010797700000E-01
   5   5     2.193519100000E-01  2.795558800000E-01  5.010797600000E-01
   6   5     2.200929600000E-01  4.402167700000E-01  4.987972600000E-01
   7   1     7.376095400000E-01 -2.197175000000E-02  4.963476600000E-01
   8   1    -6.855837000000E-02  3.606340600000E-01  4.956240300000E-01
   9   1     7.378156400000E-01  2.637273000000E-01  4.955126700000E-01
  10   1    -6.842886000000E-02  7.532129000000E-02  4.955404500000E-01
  11   1     5.231675300000E-01 -2.387597400000E-01  5.036406800000E-01
  12   1     1.408236500000E-01  5.671909900000E-01  5.043643500000E-01
  13   1     2.377267800000E-01 -2.392706300000E-01  5.044757900000E-01
  14   1     4.261783200000E-01  5.670453600000E-01  5.044478200000E-01
  15   1     5.256386400000E-01  2.631523900000E-01  4.963477000000E-01
  16   1     1.437689500000E-01  7.518998000000E-02  4.956239800000E-01
  17   1     2.406848200000E-01 -2.152182000000E-02  4.955125800000E-01
  18   1     4.291258100000E-01  3.605942200000E-01  4.955405400000E-01
  19   6     7.256676100000E-01  1.134644900000E-01  4.987137400000E-01
  20   6     7.810179100000E-01  6.180959000000E-02  4.964590100000E-01
  21   6    -1.120181600000E-01  2.763391200000E-01  4.962642400000E-01
  22   6     7.808510000000E-01  2.224563100000E-01  4.968487800000E-01
  23   6    -1.116737500000E-01  1.160162200000E-01  4.953456000000E-01
  24   6    -5.757449000000E-02  2.227812100000E-01  4.968765900000E-01
  25   6     3.869631600000E-01 -2.260180200000E-01  5.012746300000E-01
  26   6     4.393501000000E-01 -2.821336800000E-01  5.035293100000E-01
  27   6     2.249059800000E-01  6.108436400000E-01  5.037241600000E-01
  28   6     2.785897100000E-01 -2.818269700000E-01  5.031396400000E-01
  29   6     3.855180000000E-01  6.101916700000E-01  5.046427100000E-01
  30   6     2.782393300000E-01  5.565808100000E-01  5.031117700000E-01
  31   6     3.878221700000E-01  1.133953500000E-01  4.987137400000E-01
  32   6     4.417390100000E-01  2.226497100000E-01  4.964590600000E-01
  33   6     2.274171100000E-01  1.153258800000E-01  4.962641900000E-01
  34   6     2.806861700000E-01  6.145415000000E-02  4.968487200000E-01
  35   6     3.886428500000E-01  2.768642100000E-01  4.953456600000E-01
  36   6     2.803496000000E-01  2.227038100000E-01  4.968765900000E-01
  37   8     3.942820300000E-01 -5.257250000000E-02  4.994096300000E-01
  38   8     5.516220200000E-01 -5.577521000000E-02  5.042251800000E-01
  39   8     5.540412000000E-01  1.080133500000E-01  4.969601200000E-01
  40   8     1.138698600000E-01  3.867079600000E-01  4.994096500000E-01
  41   8     1.122842900000E-01  2.245420800000E-01  5.042251700000E-01
  42   8     2.736256300000E-01  3.883253200000E-01  4.969601000000E-01

 *******************************************************************************

 << INFORMATION >>: FROM NOW ON, ALL COORDINATES REFER TO THE PRIMITIVE CELL

 *******************************************************************************

 LATTICE PARAMETERS  (ANGSTROMS AND DEGREES) - PRIMITIVE CELL
       A          B          C        ALPHA      BETA     GAMMA        VOLUME
   15.02361   15.02392    9.72661    39.43210  89.99997 119.99596    860.128856

 COORDINATES OF THE EQUIVALENT ATOMS (FRACTIONAL UNITS)

 N. ATOM EQUIV AT. N.          X                  Y                  Z

   1   1   1    5 B     4.46669230000E-01 -1.06738350000E-01 -4.98920240000E-01

   2   2   1    5 B    -3.94275110000E-01  5.23213100000E-02 -4.98920230000E-01

   3   3   1    5 B     4.47425730000E-01  5.38257900000E-02  4.98797260000E-01

   4   4   1    5 B     6.02439400000E-02  2.79576650000E-01 -4.98920230000E-01

   5   5   1    5 B     2.19351910000E-01  2.79555880000E-01 -4.98920240000E-01

   6   6   1    5 B     2.20092960000E-01  4.40216770000E-01  4.98797260000E-01

   7   7   1    1 H    -2.62390460000E-01 -2.19717500000E-02  4.96347660000E-01

   8   8   1    1 H    -6.85583700000E-02  3.60634060000E-01  4.95624030000E-01

   9   9   1    1 H    -2.62184360000E-01  2.63727300000E-01  4.95512670000E-01

  10  10   1    1 H    -6.84288600000E-02  7.53212900000E-02  4.95540450000E-01

  11  11   1    1 H    -4.76832470000E-01 -2.38759740000E-01 -4.96359320000E-01

  12  12   1    1 H     1.40823650000E-01 -4.32809010000E-01 -4.95635650000E-01

  13  13   1    1 H     2.37726780000E-01 -2.39270630000E-01 -4.95524210000E-01

  14  14   1    1 H     4.26178320000E-01 -4.32954640000E-01 -4.95552180000E-01

  15  15   1    1 H    -4.74361360000E-01  2.63152390000E-01  4.96347700000E-01

  16  16   1    1 H     1.43768950000E-01  7.51899800000E-02  4.95623980000E-01

  17  17   1    1 H     2.40684820000E-01 -2.15218200000E-02  4.95512580000E-01

  18  18   1    1 H     4.29125810000E-01  3.60594220000E-01  4.95540540000E-01

  19  19   1    6 C    -2.74332390000E-01  1.13464490000E-01  4.98713740000E-01

  20  20   1    6 C    -2.18982090000E-01  6.18095900000E-02  4.96459010000E-01

  21  21   1    6 C    -1.12018160000E-01  2.76339120000E-01  4.96264240000E-01

  22  22   1    6 C    -2.19149000000E-01  2.22456310000E-01  4.96848780000E-01

  23  23   1    6 C    -1.11673750000E-01  1.16016220000E-01  4.95345600000E-01

  24  24   1    6 C    -5.75744900000E-02  2.22781210000E-01  4.96876590000E-01

  25  25   1    6 C     3.86963160000E-01 -2.26018020000E-01 -4.98725370000E-01

  26  26   1    6 C     4.39350100000E-01 -2.82133680000E-01 -4.96470690000E-01

  27  27   1    6 C     2.24905980000E-01 -3.89156360000E-01 -4.96275840000E-01

  28  28   1    6 C     2.78589710000E-01 -2.81826970000E-01 -4.96860360000E-01

  29  29   1    6 C     3.85518000000E-01 -3.89808330000E-01 -4.95357290000E-01

  30  30   1    6 C     2.78239330000E-01 -4.43419190000E-01 -4.96888230000E-01

  31  31   1    6 C     3.87822170000E-01  1.13395350000E-01  4.98713740000E-01

  32  32   1    6 C     4.41739010000E-01  2.22649710000E-01  4.96459060000E-01

  33  33   1    6 C     2.27417110000E-01  1.15325880000E-01  4.96264190000E-01

  34  34   1    6 C     2.80686170000E-01  6.14541500000E-02  4.96848720000E-01

  35  35   1    6 C     3.88642850000E-01  2.76864210000E-01  4.95345660000E-01

  36  36   1    6 C     2.80349600000E-01  2.22703810000E-01  4.96876590000E-01

  37  37   1    8 O     3.94282030000E-01 -5.25725000000E-02  4.99409630000E-01

  38  38   1    8 O    -4.48377980000E-01 -5.57752100000E-02 -4.95774820000E-01

  39  39   1    8 O    -4.45958800000E-01  1.08013350000E-01  4.96960120000E-01

  40  40   1    8 O     1.13869860000E-01  3.86707960000E-01  4.99409650000E-01

  41  41   1    8 O     1.12284290000E-01  2.24542080000E-01 -4.95774830000E-01

  42  42   1    8 O     2.73625630000E-01  3.88325320000E-01  4.96960100000E-01

 NUMBER OF SYMMETRY OPERATORS         :    1
 *******************************************************************************
 * GEOMETRY EDITING - INPUT COORDINATES ARE GIVEN IN ANGSTROM         
 *******************************************************************************

 GCALCO - MAX INDICES DIRECT LATTICE VECTOR    10    15    21
 NO.OF VECTORS CREATED 6999 STARS 3500 RMAX   222.38330 BOHR

 GEOMETRY FOR WAVE FUNCTION - DIMENSIONALITY OF THE SYSTEM    3
 (NON PERIODIC DIRECTION: LATTICE PARAMETER FORMALLY SET TO 500)
 *******************************************************************************
 LATTICE PARAMETERS (ANGSTROMS AND DEGREES) - BOHR = 0.5291772083 ANGSTROM
 PRIMITIVE CELL - CENTRING CODE 1/0 VOLUME=   860.128856 - DENSITY  0.753 g/cm^3
         A              B              C           ALPHA      BETA       GAMMA 
    15.02361100    15.02391600     9.72661300    39.432098  89.999974 119.995964
 *******************************************************************************
 ATOMS IN THE ASYMMETRIC UNIT   42 - ATOMS IN THE UNIT CELL:   42
     ATOM                 X/A                 Y/B                 Z/C    
 *******************************************************************************
      1 T   5 B     4.466692300000E-01 -1.067383500000E-01 -4.989202400000E-01
      2 T   5 B    -3.942751100000E-01  5.232131000000E-02 -4.989202300000E-01
      3 T   5 B     4.474257300000E-01  5.382579000000E-02  4.987972600000E-01
      4 T   5 B     6.024394000000E-02  2.795766500000E-01 -4.989202300000E-01
      5 T   5 B     2.193519100000E-01  2.795558800000E-01 -4.989202400000E-01
      6 T   5 B     2.200929600000E-01  4.402167700000E-01  4.987972600000E-01
      7 T   1 H    -2.623904600000E-01 -2.197175000000E-02  4.963476600000E-01
      8 T   1 H    -6.855837000000E-02  3.606340600000E-01  4.956240300000E-01
      9 T   1 H    -2.621843600000E-01  2.637273000000E-01  4.955126700000E-01
     10 T   1 H    -6.842886000000E-02  7.532129000000E-02  4.955404500000E-01
     11 T   1 H    -4.768324700000E-01 -2.387597400000E-01 -4.963593200000E-01
     12 T   1 H     1.408236500000E-01 -4.328090100000E-01 -4.956356500000E-01
     13 T   1 H     2.377267800000E-01 -2.392706300000E-01 -4.955242100000E-01
     14 T   1 H     4.261783200000E-01 -4.329546400000E-01 -4.955521800000E-01
     15 T   1 H    -4.743613600000E-01  2.631523900000E-01  4.963477000000E-01
     16 T   1 H     1.437689500000E-01  7.518998000000E-02  4.956239800000E-01
     17 T   1 H     2.406848200000E-01 -2.152182000000E-02  4.955125800000E-01
     18 T   1 H     4.291258100000E-01  3.605942200000E-01  4.955405400000E-01
     19 T   6 C    -2.743323900000E-01  1.134644900000E-01  4.987137400000E-01
     20 T   6 C    -2.189820900000E-01  6.180959000000E-02  4.964590100000E-01
     21 T   6 C    -1.120181600000E-01  2.763391200000E-01  4.962642400000E-01
     22 T   6 C    -2.191490000000E-01  2.224563100000E-01  4.968487800000E-01
     23 T   6 C    -1.116737500000E-01  1.160162200000E-01  4.953456000000E-01
     24 T   6 C    -5.757449000000E-02  2.227812100000E-01  4.968765900000E-01
     25 T   6 C     3.869631600000E-01 -2.260180200000E-01 -4.987253700000E-01
     26 T   6 C     4.393501000000E-01 -2.821336800000E-01 -4.964706900000E-01
     27 T   6 C     2.249059800000E-01 -3.891563600000E-01 -4.962758400000E-01
     28 T   6 C     2.785897100000E-01 -2.818269700000E-01 -4.968603600000E-01
     29 T   6 C     3.855180000000E-01 -3.898083300000E-01 -4.953572900000E-01
     30 T   6 C     2.782393300000E-01 -4.434191900000E-01 -4.968882300000E-01
     31 T   6 C     3.878221700000E-01  1.133953500000E-01  4.987137400000E-01
     32 T   6 C     4.417390100000E-01  2.226497100000E-01  4.964590600000E-01
     33 T   6 C     2.274171100000E-01  1.153258800000E-01  4.962641900000E-01
     34 T   6 C     2.806861700000E-01  6.145415000000E-02  4.968487200000E-01
     35 T   6 C     3.886428500000E-01  2.768642100000E-01  4.953456600000E-01
     36 T   6 C     2.803496000000E-01  2.227038100000E-01  4.968765900000E-01
     37 T   8 O     3.942820300000E-01 -5.257250000000E-02  4.994096300000E-01
     38 T   8 O    -4.483779800000E-01 -5.577521000000E-02 -4.957748200000E-01
     39 T   8 O    -4.459588000000E-01  1.080133500000E-01  4.969601200000E-01
     40 T   8 O     1.138698600000E-01  3.867079600000E-01  4.994096500000E-01
     41 T   8 O     1.122842900000E-01  2.245420800000E-01 -4.957748300000E-01
     42 T   8 O     2.736256300000E-01  3.883253200000E-01  4.969601000000E-01

 T = ATOM BELONGING TO THE ASYMMETRIC UNIT

 ****    1 SYMMOPS - TRANSLATORS IN FRACTIONAL UNITS
 **** MATRICES AND TRANSLATORS IN THE CRYSTALLOGRAPHIC REFERENCE FRAME
   V INV                    ROTATION MATRICES                   TRANSLATORS
   1   1  1.00 -0.00  0.00  0.00  1.00  0.00  0.00 -0.00  1.00  0.00  0.00  0.00

 DIRECT LATTICE VECTORS CARTESIAN COMPONENTS (ANGSTROM)
          X                    Y                    Z
   0.130113578931E+02  -0.751088897922E+01   0.000000000000E+00
   0.000000000000E+00   0.150239160000E+02   0.000000000000E+00
   0.433671304733E+01   0.751262059435E+01   0.440005138631E+01


 CARTESIAN COORDINATES - PRIMITIVE CELL
 *******************************************************************************
 *      ATOM          X(ANGSTROM)         Y(ANGSTROM)         Z(ANGSTROM)
 *******************************************************************************
    1     5 B    -6.886137503737E-01 -1.195414065659E+00 -6.595326079976E+00
    2     5 B     1.380916410170E+00 -3.644234805776E-04 -6.595326035975E+00
    3     5 B    -6.898879567153E-01  1.194977304573E+00  6.594784961656E+00
    4     5 B    -1.379818406792E+00 -3.478346872128E-04 -2.195274649668E+00
    5     5 B     6.903922911489E-01 -1.195702254927E+00 -2.195274693669E+00
    6     5 B     6.901358103851E-01  1.195339960133E+00 -2.205317810958E+00
    7     1 H    -1.261538809648E+00  5.369555540368E+00  2.183955209473E+00
    8     1 H    -3.079371338495E+00  2.143884830326E+00 -2.219280186018E+00
    9     1 H    -1.262478280814E+00 -5.369862888441E+00  2.180281210566E+00
   10     1 H    -3.078048700011E+00 -2.144230899943E+00 -2.219647942313E+00
   11     1 H    -4.020092814076E+00  3.777990810636E+00  2.216044872235E+00
   12     1 H    -3.171226801219E-01  3.740196397433E+00 -2.180822328886E+00
   13     1 H     5.280914955901E+00 -1.590386089046E+00  2.219719399148E+00
   14     1 H     3.396091043141E+00  1.595368296916E+00 -2.180455056596E+00
   15     1 H    -4.019567878993E+00 -3.778589133470E+00  2.183955385475E+00
   16     1 H    -3.167048043370E-01 -3.739370353697E+00 -2.219280406021E+00
   17     1 H     5.280532203250E+00  1.591499035420E+00  2.180280814562E+00
   18     1 H     3.395813573025E+00 -1.595391573874E+00 -2.219647546309E+00
   19     6 C    -5.743371572138E+00 -8.123891069447E-04 -2.205685303250E+00
   20     6 C    -5.032967126360E+00 -1.209540156994E+00 -2.215606231112E+00
   21     6 C    -3.642065813082E+00  1.208676045121E+00 -2.216463229120E+00
   22     6 C    -5.033448531461E+00  1.208184506570E+00 -2.213891223083E+00
   23     6 C    -3.641568449384E+00 -1.209489956411E+00 -2.220505292326E+00
   24     6 C    -2.931024151466E+00 -2.935036244456E-04 -2.213768857654E+00
   25     6 C     2.872087347073E+00  4.975068433638E+00 -2.194417255655E+00
   26     6 C     3.563490472509E+00  3.755457536614E+00 -2.184496547795E+00
   27     6 C     7.741262876644E-01  3.759687593888E+00 -2.183639197783E+00
   28     6 C     1.470089616218E+00  4.964591520569E+00 -2.186211115819E+00
   29     6 C     2.867890249581E+00  2.550454118073E+00 -2.179597530582E+00
   30     6 C     1.465409832447E+00  2.539265869580E+00 -2.186333745251E+00
   31     6 C     2.872158388541E+00 -4.975220529901E+00 -2.205685303250E+00
   32     6 C     3.563911790070E+00 -3.755694157379E+00 -2.215606011109E+00
   33     6 C     7.744477495787E-01 -3.759834351758E+00 -2.216463449123E+00
   34     6 C     1.470085492743E+00 -4.964905341624E+00 -2.213891487086E+00
   35     6 C     2.868230153256E+00 -2.550745252184E+00 -2.220505028323E+00
   36     6 C     1.465827124210E+00 -2.539566678116E+00 -2.213768857654E+00
   37     8 O    -1.378703984208E+00  2.152671876824E-04  6.597479421123E+00
   38     8 O     6.906053461444E-01 -1.194406537882E+00 -6.581486070344E+00
   39     8 O     6.893569313834E-01  1.194507959822E+00  6.586701451252E+00
   40     8 O    -6.893152005218E-01  1.193858658287E+00 -2.202623263489E+00
   41     8 O    -6.890620908426E-01 -1.194421685935E+00 -2.181434728038E+00
   42     8 O     1.378701302984E+00 -1.526529670201E-04 -2.213401409363E+00

 *******************************************************************************
 STARTING BASIS SET HANDLING 
 *******************************************************************************

 Loading internal basis set: SOLDEF2MSVP         

 Please cite in your publication:
 L. Dona', J. G. Brandenburg and B. Civalleri, J. Chem. Phys., 151, 121101 (2019
 )                                                                              
                                                                                
                    

 *******************************************************************************
 LOCAL ATOMIC FUNCTIONS BASIS SET
 *******************************************************************************
   ATOM   X(AU)   Y(AU)   Z(AU)  N. TYPE  EXPONENT  S COEF   P COEF   D/F/G COEF
 *******************************************************************************
   1 B   -1.301  -2.259 -12.463
                                  1 S  
                                         2.410E+03 1.755E-03 0.000E+00 0.000E+00
                                         3.619E+02 1.344E-02 0.000E+00 0.000E+00
                                         8.231E+01 6.637E-02 0.000E+00 0.000E+00
                                         2.311E+01 2.303E-01 0.000E+00 0.000E+00
                                         7.252E+00 5.150E-01 0.000E+00 0.000E+00
                                  2 S  
                                         2.367E+00 1.000E+00 0.000E+00 0.000E+00
                                  3 S  
                                         5.533E-01 1.000E+00 0.000E+00 0.000E+00
                                  4 S  
                                         1.716E-01 1.000E+00 0.000E+00 0.000E+00
                           5-     7 P  
                                         6.002E+00 0.000E+00-3.555E-02 0.000E+00
                                         1.240E+00 0.000E+00-1.983E-01 0.000E+00
                                         3.367E-01 0.000E+00-5.048E-01 0.000E+00
                           8-    10 P  
                                         1.256E-01 0.000E+00 1.000E+00 0.000E+00
                          11-    15 D  
                                         8.880E-01 0.000E+00 0.000E+00 1.000E+00
   2 B    2.610  -0.001 -12.463
   3 B   -1.304   2.258  12.462
   4 B   -2.607  -0.001  -4.148
   5 B    1.305  -2.260  -4.148
   6 B    1.304   2.259  -4.167
   7 H   -2.384  10.147   4.127
                                 91 S  
                                         1.874E+01 1.968E-02 0.000E+00 0.000E+00
                                         2.826E+00 1.380E-01 0.000E+00 0.000E+00
                                         6.401E-01 4.783E-01 0.000E+00 0.000E+00
                                 92 S  
                                         1.756E-01 1.000E+00 0.000E+00 0.000E+00
   8 H   -5.819   4.051  -4.194
   9 H   -2.386 -10.148   4.120
  10 H   -5.817  -4.052  -4.195
  11 H   -7.597   7.139   4.188
  12 H   -0.599   7.068  -4.121
  13 H    9.979  -3.005   4.195
  14 H    6.418   3.015  -4.120
  15 H   -7.596  -7.140   4.127
  16 H   -0.598  -7.066  -4.194
  17 H    9.979   3.007   4.120
  18 H    6.417  -3.015  -4.195
  19 C  -10.853  -0.002  -4.168
                                115 S  
                                         3.624E+03 1.634E-03 0.000E+00 0.000E+00
                                         5.440E+02 1.252E-02 0.000E+00 0.000E+00
                                         1.237E+02 6.211E-02 0.000E+00 0.000E+00
                                         3.476E+01 2.182E-01 0.000E+00 0.000E+00
                                         1.093E+01 4.980E-01 0.000E+00 0.000E+00
                                116 S  
                                         3.574E+00 1.000E+00 0.000E+00 0.000E+00
                                117 S  
                                         7.742E-01 1.000E+00 0.000E+00 0.000E+00
                                118 S  
                                         2.330E-01 1.000E+00 0.000E+00 0.000E+00
                         119-   121 P  
                                         9.443E+00 0.000E+00 3.790E-02 0.000E+00
                                         2.002E+00 0.000E+00 2.082E-01 0.000E+00
                                         5.463E-01 0.000E+00 5.047E-01 0.000E+00
                         122-   124 P  
                                         1.820E-01 0.000E+00 1.000E+00 0.000E+00
                         125-   129 D  
                                         8.880E-01 0.000E+00 0.000E+00 1.000E+00
  20 C   -9.511  -2.286  -4.187
  21 C   -6.883   2.284  -4.189
  22 C   -9.512   2.283  -4.184
  23 C   -6.882  -2.286  -4.196
  24 C   -5.539  -0.001  -4.183
  25 C    5.427   9.402  -4.147
  26 C    6.734   7.097  -4.128
  27 C    1.463   7.105  -4.126
  28 C    2.778   9.382  -4.131
  29 C    5.420   4.820  -4.119
  30 C    2.769   4.799  -4.132
  31 C    5.428  -9.402  -4.168
  32 C    6.735  -7.097  -4.187
  33 C    1.463  -7.105  -4.189
  34 C    2.778  -9.382  -4.184
  35 C    5.420  -4.820  -4.196
  36 C    2.770  -4.799  -4.183
  37 O   -2.605   0.000  12.467
                                385 S  
                                         6.773E+03 1.727E-03 0.000E+00 0.000E+00
                                         1.017E+03 1.325E-02 0.000E+00 0.000E+00
                                         2.313E+02 6.603E-02 0.000E+00 0.000E+00
                                         6.501E+01 2.353E-01 0.000E+00 0.000E+00
                                         2.050E+01 5.498E-01 0.000E+00 0.000E+00
                                386 S  
                                         6.716E+00 1.000E+00 0.000E+00 0.000E+00
                                387 S  
                                         1.147E+00 1.000E+00 0.000E+00 0.000E+00
                                388 S  
                                         3.342E-01 1.000E+00 0.000E+00 0.000E+00
                         389-   391 P  
                                         1.769E+01 0.000E+00 4.359E-02 0.000E+00
                                         3.854E+00 0.000E+00 2.318E-01 0.000E+00
                                         1.047E+00 0.000E+00 5.146E-01 0.000E+00
                         392-   394 P  
                                         2.759E-01 0.000E+00 1.000E+00 0.000E+00
                         395-   399 D  
                                         8.000E-01 0.000E+00 0.000E+00 1.000E+00
  38 O    1.305  -2.257 -12.437
  39 O    1.303   2.257  12.447
  40 O   -1.303   2.256  -4.162
  41 O   -1.302  -2.257  -4.122
  42 O    2.605  -0.000  -4.183

 *******************************************************************************
 FINISHED BASIS SET HANDLING 
 *******************************************************************************

 INFORMATION **** SET_MPP **** PCRYSTAL CALCULATION
 INFORMATION **** READM2 **** NEW DEFAULT: FOCK/KS MATRIX MIXING SET TO 30 %
 INFORMATION **** READM2 **** NEW DEFAULT: FULL DIRECT SCF MODE
 INFORMATION **** READM2 **** NEW DEFAULT: COULOMB BIPOLAR BUFFER SET TO 32 Mb
 INFORMATION **** READM2 **** NEW DEFAULT: EXCHANGE BIPOLAR BUFFER SET TO 32 Mb

 *******************************************************************************
 NEW DEFAULT: DFT INTEGRATION GRID INCREASED TO XLGRID
 NEW DEFAULT: DIIS ACCELERATOR ACTIVE
 USE KEYWORD NODIIS TO TURN IT OFF
 *******************************************************************************

 WARNING **** RDDFTP **** HSEsol-HJS ACTIVE
 RANGE SEPARATION - OMEGA:   0.110000000000000     
 WARNING **** RDDFTP **** HSEsol-3c has to be combined with sol-def2-mSVP basis set
 *******************************************************************************
 N. OF ATOMS PER CELL        42  COULOMB OVERLAP TOL         (T1) 10**   -6
 NUMBER OF SHELLS           234  COULOMB PENETRATION TOL     (T2) 10**   -6
 NUMBER OF AO               474  EXCHANGE OVERLAP TOL        (T3) 10**   -6
 N. OF ELECTRONS PER CELL   198  EXCHANGE PSEUDO OVP (F(G))  (T4) 10**   -6
 CORE ELECTRONS PER CELL     60  EXCHANGE PSEUDO OVP (P(G))  (T5) 10**  -12
 N. OF SYMMETRY OPERATORS     1  POLE ORDER IN MONO ZONE                  4
 *******************************************************************************
 TYPE OF CALCULATION :  RESTRICTED CLOSED SHELL
 KOHN-SHAM HAMILTONIAN

 (EXCHANGE)[CORRELATION] FUNCTIONAL:(HSEsol GGA)[PBEsol]

 RANGE-SEPARATED HYBRID FUNCTIONAL 
 OMEGA (SHORT-RANGE)[LONG-RANGE]:(    0.1100)[    0.0000]

 HYBRID EXCHANGE - PERCENTAGE OF FOCK EXCHANGE    25.0000

 CAPPA:IS1  2;IS2  2;IS3  8; K PTS MONK NET  20; SYMMOPS:K SPACE   2;G SPACE   1

 *******************************************************************************
 MAX NUMBER OF SCF CYCLES      50  CONVERGENCE ON DELTAP        10**-16
 WEIGHT OF F(I) IN F(I+1)      30% CONVERGENCE ON ENERGY        10**- 6
 SHRINK. FACT.(MONKH.)    2  2  8  NUMBER OF K POINTS IN THE IBZ     20
 SHRINKING FACTOR(GILAT NET)    8  NUMBER OF K POINTS(GILAT NET)   1028
 *******************************************************************************
 *** K POINTS COORDINATES (OBLIQUE COORDINATES IN UNITS OF IS =  2)
   1-R(  0  0  0)   2-R(  1  0  0)   3-R(  0  1  0)   4-R(  1  1  0)
   5-C(  0  0  1)   6-C(  1  0  1)   7-C(  0  1  1)   8-C(  1  1  1)
   9-C(  0  0  2)  10-C(  1  0  2)  11-C(  0  1  2)  12-C(  1  1  2)
  13-C(  0  0  3)  14-C(  1  0  3)  15-C(  0  1  3)  16-C(  1  1  3)
  17-R(  0  0  4)  18-R(  1  0  4)  19-R(  0  1  4)  20-R(  1  1  4)

 DIRECT LATTICE VECTORS COMPON. (A.U.)     RECIP. LATTICE VECTORS COMPON. (A.U.) 
        X            Y            Z              X            Y            Z
   24.5879030  -14.1935232    0.0000000      0.2555397    0.0000000   -0.2518612
    0.0000000   28.3910867    0.0000000      0.1277517    0.2213084   -0.5037732
    8.1952000   14.1967955    8.3148921      0.0000000    0.0000000    0.7556545

 DISK SPACE FOR EIGENVECTORS (FTN 10)     7189632 REALS

 SYMMETRY ADAPTION OF THE BLOCH FUNCTIONS DISABLED
 TTTTTTTTTTTTTTTTTTTTTTTTTTTTTT gordsh1     TELAPSE        0.04 TCPU        0.04

 MATRIX SIZE: P(G)  268570, F(G)   52760, P(G) IRR  135164, F(G) IRR   53240
 MAX G-VECTOR INDEX FOR 1- AND 2-ELECTRON INTEGRALS  69

 TTTTTTTTTTTTTTTTTTTTTTTTTTTTTT INPUT       TELAPSE        0.38 TCPU        0.38

 NEIGHBORS OF THE NON-EQUIVALENT ATOMS

 N = NUMBER OF NEIGHBORS AT DISTANCE R
    ATOM  N     R/ANG      R/AU   NEIGHBORS (ATOM LABELS AND CELL INDICES)
   1 B    1     1.3791     2.6061   37 O    1 2-3
   1 B    1     1.3793     2.6065   38 O    0 0 0
   1 B    1     1.5503     2.9297   25 C    0 0-1
   1 B    1     2.3895     4.5155    3 B    1 2-3
   1 B    1     2.3898     4.5160    2 B    0 0 0
   1 B    1     2.5632     4.8437   26 C    0 0-1

   2 B    1     1.3793     2.6065   39 O    1 2-3
   2 B    1     1.3793     2.6065   38 O    0 0 0
   2 B    1     1.5504     2.9298   19 C    1 1-1
   2 B    1     2.3895     4.5156    3 B    1 2-3
   2 B    1     2.3898     4.5160    1 B    0 0 0
   2 B    1     2.5634     4.8440   22 C    1 1-1

   3 B    1     1.3791     2.6061   37 O    0 0 0
   3 B    1     1.3793     2.6064   39 O    0 0 0
   3 B    1     1.5502     2.9294   31 C   -1-1 2
   3 B    1     2.3895     4.5155    1 B   -1-2 3
   3 B    1     2.3895     4.5156    2 B   -1-2 3
   3 B    1     2.5629     4.8433   32 C   -1-1 2

   4 B    1     1.3795     2.6068   40 O    0 0 0
   4 B    1     1.3795     2.6070   41 O    0 0 0
   4 B    1     1.5513     2.9316   24 C    0 0 0
   4 B    1     2.3905     4.5174    6 B    0 0 0
   4 B    1     2.3905     4.5175    5 B    0 0 0
   4 B    1     2.5648     4.8468   23 C    0 0 0

   5 B    1     1.3795     2.6069   41 O    0 0 0
   5 B    1     1.3797     2.6072   42 O    0 0 0
   5 B    1     1.5516     2.9322   36 C    0 0 0
   5 B    1     2.3905     4.5175    4 B    0 0 0
   5 B    1     2.3911     4.5185    6 B    0 0 0
   5 B    1     2.5651     4.8473   35 C    0 0 0

   6 B    1     1.3795     2.6068   40 O    0 0 0
   6 B    1     1.3796     2.6071   42 O    0 0 0
   6 B    1     1.5516     2.9322   30 C    0 0 0
   6 B    1     2.3905     4.5174    4 B    0 0 0
   6 B    1     2.3911     4.5185    5 B    0 0 0
   6 B    1     2.5651     4.8473   29 C    0 0 0

   7 H    1     1.0913     2.0623   20 C    0 0 1
   7 H    1     2.1472     4.0576   19 C    0 0 1
   7 H    1     2.1680     4.0969   23 C    0 0 1
   7 H    1     2.5202     4.7625   10 H    0 0 1
   7 H    1     2.5676     4.8520   38 O   -1-1 2
   7 H    1     2.7321     5.1630    2 B   -1-1 2

   8 H    1     1.0914     2.0625   21 C    0 0 0
   8 H    1     2.1493     4.0616   24 C    0 0 0
   8 H    1     2.1666     4.0942   22 C    0 0 0
   8 H    1     2.5198     4.7618    9 H    0 1-1
   8 H    1     2.5720     4.8604   40 O    0 0 0
   8 H    1     2.7362     5.1707    4 B    0 0 0

   9 H    1     1.0914     2.0624   22 C    0-1 1
   9 H    1     2.1471     4.0575   19 C    0-1 1
   9 H    1     2.1680     4.0970   21 C    0-1 1
   9 H    1     2.5198     4.7618    8 H    0-1 1
   9 H    1     2.5665     4.8500   39 O    0 0-1
   9 H    1     2.7315     5.1618    2 B   -1-2 2

  10 H    1     1.0915     2.0626   23 C    0 0 0
  10 H    1     2.1490     4.0610   24 C    0 0 0
  10 H    1     2.1669     4.0948   20 C    0 0 0
  10 H    1     2.5202     4.7625    7 H    0 0-1
  10 H    1     2.5712     4.8588   41 O    0 0 0
  10 H    1     2.7351     5.1686    4 B    0 0 0

  11 H    1     1.0913     2.0623   26 C   -1-1 1
  11 H    1     2.1469     4.0571   25 C   -1-1 1
  11 H    1     2.1680     4.0968   29 C   -1-1 1
  11 H    1     2.5198     4.7617   14 H   -1-1 1
  11 H    1     2.5670     4.8510   38 O   -1-1 2
  11 H    1     2.7310     5.1609    1 B   -1-1 2

  12 H    1     1.0914     2.0625   27 C    0 0 0
  12 H    1     2.1493     4.0617   30 C    0 0 0
  12 H    1     2.1664     4.0939   28 C    0 0 0
  12 H    1     2.5192     4.7606   13 H    0 1-1
  12 H    1     2.5735     4.8632   40 O    0 0 0
  12 H    1     2.7371     5.1723    6 B    0 0 0

  13 H    1     1.0914     2.0624   28 C    0-1 1
  13 H    1     2.1475     4.0581   25 C    0-1 1
  13 H    1     2.1679     4.0967   27 C    0-1 1
  13 H    1     2.5192     4.7606   12 H    0-1 1
  13 H    1     2.5675     4.8519   37 O    1 1-1
  13 H    1     2.7328     5.1643    1 B    0-1 2

  14 H    1     1.0914     2.0625   29 C    0 0 0
  14 H    1     2.1491     4.0612   30 C    0 0 0
  14 H    1     2.1666     4.0942   26 C    0 0 0
  14 H    1     2.5198     4.7617   11 H    1 1-1
  14 H    1     2.5723     4.8609   42 O    0 0 0
  14 H    1     2.7355     5.1693    6 B    0 0 0

  15 H    1     1.0914     2.0624   32 C   -1-1 1
  15 H    1     2.1475     4.0582   31 C   -1-1 1
  15 H    1     2.1678     4.0966   35 C   -1-1 1
  15 H    1     2.5200     4.7621   18 H   -1-1 1
  15 H    1     2.5667     4.8503   39 O    0 0-1
  15 H    1     2.7315     5.1618    3 B    0 0-1

  16 H    1     1.0913     2.0623   33 C    0 0 0
  16 H    1     2.1487     4.0605   36 C    0 0 0
  16 H    1     2.1667     4.0945   34 C    0 0 0
  16 H    1     2.5197     4.7616   17 H    0 0-1
  16 H    1     2.5723     4.8610   41 O    0 0 0
  16 H    1     2.7359     5.1701    5 B    0 0 0

  17 H    1     1.0915     2.0626   34 C    0 0 1
  17 H    1     2.1479     4.0589   31 C    0 0 1
  17 H    1     2.1679     4.0968   33 C    0 0 1
  17 H    1     2.5197     4.7616   16 H    0 0 1
  17 H    1     2.5677     4.8522   37 O    1 1-1
  17 H    1     2.7331     5.1648    3 B    1 1-1

  18 H    1     1.0914     2.0624   35 C    0 0 0
  18 H    1     2.1486     4.0602   36 C    0 0 0
  18 H    1     2.1668     4.0947   32 C    0 0 0
  18 H    1     2.5200     4.7621   15 H    1 1-1
  18 H    1     2.5717     4.8598   42 O    0 0 0
  18 H    1     2.7349     5.1682    5 B    0 0 0

  19 C    1     1.4020     2.6495   22 C    0 0 0
  19 C    1     1.4021     2.6495   20 C    0 0 0
  19 C    1     1.5504     2.9298    2 B   -1-1 1
  19 C    1     2.1471     4.0575    9 H    0 1-1
  19 C    1     2.1472     4.0576    7 H    0 0-1
  19 C    1     2.4246     4.5817   21 C    0 0 0

  20 C    1     1.0913     2.0623    7 H    0 0-1
  20 C    1     1.3914     2.6294   23 C    0 0 0
  20 C    1     1.4021     2.6495   19 C    0 0 0
  20 C    1     2.1669     4.0948   10 H    0 0 0
  20 C    1     2.4177     4.5688   22 C    0 0 0
  20 C    1     2.4250     4.5825   24 C    0 0 0

  21 C    1     1.0914     2.0625    8 H    0 0 0
  21 C    1     1.3914     2.6293   22 C    0 0 0
  21 C    1     1.4026     2.6505   24 C    0 0 0
  21 C    1     2.1680     4.0970    9 H    0 1-1
  21 C    1     2.4182     4.5697   23 C    0 0 0
  21 C    1     2.4246     4.5817   19 C    0 0 0

  22 C    1     1.0914     2.0624    9 H    0 1-1
  22 C    1     1.3914     2.6293   21 C    0 0 0
  22 C    1     1.4020     2.6495   19 C    0 0 0
  22 C    1     2.1666     4.0942    8 H    0 0 0
  22 C    1     2.4177     4.5688   20 C    0 0 0
  22 C    1     2.4250     4.5826   24 C    0 0 0

  23 C    1     1.0915     2.0626   10 H    0 0 0
  23 C    1     1.3914     2.6294   20 C    0 0 0
  23 C    1     1.4025     2.6504   24 C    0 0 0
  23 C    1     2.1680     4.0969    7 H    0 0-1
  23 C    1     2.4182     4.5697   21 C    0 0 0
  23 C    1     2.4246     4.5818   19 C    0 0 0

  24 C    1     1.4025     2.6504   23 C    0 0 0
  24 C    1     1.4026     2.6505   21 C    0 0 0
  24 C    1     1.5513     2.9316    4 B    0 0 0
  24 C    1     2.1490     4.0610   10 H    0 0 0
  24 C    1     2.1493     4.0616    8 H    0 0 0
  24 C    1     2.4250     4.5825   20 C    0 0 0

  25 C    1     1.4020     2.6494   26 C    0 0 0
  25 C    1     1.4021     2.6495   28 C    0 0 0
  25 C    1     1.5503     2.9297    1 B    0 0 1
  25 C    1     2.1469     4.0571   11 H    1 1-1
  25 C    1     2.1475     4.0581   13 H    0 1-1
  25 C    1     2.4246     4.5818   27 C    0 0 0

  26 C    1     1.0913     2.0623   11 H    1 1-1
  26 C    1     1.3914     2.6293   29 C    0 0 0
  26 C    1     1.4020     2.6494   25 C    0 0 0
  26 C    1     2.1666     4.0942   14 H    0 0 0
  26 C    1     2.4175     4.5684   28 C    0 0 0
  26 C    1     2.4251     4.5828   30 C    0 0 0

  27 C    1     1.0914     2.0625   12 H    0 0 0
  27 C    1     1.3915     2.6295   28 C    0 0 0
  27 C    1     1.4026     2.6505   30 C    0 0 0
  27 C    1     2.1679     4.0967   13 H    0 1-1
  27 C    1     2.4179     4.5691   29 C    0 0 0
  27 C    1     2.4246     4.5818   25 C    0 0 0

  28 C    1     1.0914     2.0624   13 H    0 1-1
  28 C    1     1.3915     2.6295   27 C    0 0 0
  28 C    1     1.4021     2.6495   25 C    0 0 0
  28 C    1     2.1664     4.0939   12 H    0 0 0
  28 C    1     2.4175     4.5684   26 C    0 0 0
  28 C    1     2.4253     4.5832   30 C    0 0 0

  29 C    1     1.0914     2.0625   14 H    0 0 0
  29 C    1     1.3914     2.6293   26 C    0 0 0
  29 C    1     1.4025     2.6504   30 C    0 0 0
  29 C    1     2.1680     4.0968   11 H    1 1-1
  29 C    1     2.4179     4.5691   27 C    0 0 0
  29 C    1     2.4247     4.5819   25 C    0 0 0

  30 C    1     1.4025     2.6504   29 C    0 0 0
  30 C    1     1.4026     2.6505   27 C    0 0 0
  30 C    1     1.5516     2.9322    6 B    0 0 0
  30 C    1     2.1491     4.0612   14 H    0 0 0
  30 C    1     2.1493     4.0617   12 H    0 0 0
  30 C    1     2.4251     4.5828   26 C    0 0 0

  31 C    1     1.4021     2.6496   32 C    0 0 0
  31 C    1     1.4021     2.6497   34 C    0 0 0
  31 C    1     1.5502     2.9294    3 B    1 1-2
  31 C    1     2.1475     4.0582   15 H    1 1-1
  31 C    1     2.1479     4.0589   17 H    0 0-1
  31 C    1     2.4244     4.5814   33 C    0 0 0

  32 C    1     1.0914     2.0624   15 H    1 1-1
  32 C    1     1.3914     2.6293   35 C    0 0 0
  32 C    1     1.4021     2.6496   31 C    0 0 0
  32 C    1     2.1668     4.0947   18 H    0 0 0
  32 C    1     2.4179     4.5692   34 C    0 0 0
  32 C    1     2.4251     4.5827   36 C    0 0 0

  33 C    1     1.0913     2.0623   16 H    0 0 0
  33 C    1     1.3914     2.6294   34 C    0 0 0
  33 C    1     1.4025     2.6504   36 C    0 0 0
  33 C    1     2.1679     4.0968   17 H    0 0-1
  33 C    1     2.4178     4.5690   35 C    0 0 0
  33 C    1     2.4244     4.5814   31 C    0 0 0

  34 C    1     1.0915     2.0626   17 H    0 0-1
  34 C    1     1.3914     2.6294   33 C    0 0 0
  34 C    1     1.4021     2.6497   31 C    0 0 0
  34 C    1     2.1667     4.0945   16 H    0 0 0
  34 C    1     2.4179     4.5692   32 C    0 0 0
  34 C    1     2.4253     4.5832   36 C    0 0 0

  35 C    1     1.0914     2.0624   18 H    0 0 0
  35 C    1     1.3914     2.6293   32 C    0 0 0
  35 C    1     1.4025     2.6503   36 C    0 0 0
  35 C    1     2.1678     4.0966   15 H    1 1-1
  35 C    1     2.4178     4.5690   33 C    0 0 0
  35 C    1     2.4245     4.5817   31 C    0 0 0

  36 C    1     1.4025     2.6503   35 C    0 0 0
  36 C    1     1.4025     2.6504   33 C    0 0 0
  36 C    1     1.5516     2.9322    5 B    0 0 0
  36 C    1     2.1486     4.0602   18 H    0 0 0
  36 C    1     2.1487     4.0605   16 H    0 0 0
  36 C    1     2.4251     4.5827   32 C    0 0 0

  37 O    1     1.3791     2.6061    3 B    0 0 0
  37 O    1     1.3791     2.6061    1 B   -1-2 3
  37 O    1     2.3880     4.5126   38 O   -1-2 3
  37 O    1     2.3882     4.5130   39 O    0 0 0
  37 O    1     2.5383     4.7966   31 C   -1-1 2
  37 O    1     2.5384     4.7968   25 C   -1-2 2

  38 O    1     1.3793     2.6065    1 B    0 0 0
  38 O    1     1.3793     2.6065    2 B    0 0 0
  38 O    1     2.3880     4.5126   37 O    1 2-3
  38 O    1     2.3882     4.5131   39 O    1 2-3
  38 O    1     2.5391     4.7981   19 C    1 1-1
  38 O    1     2.5395     4.7990   25 C    0 0-1

  39 O    1     1.3793     2.6064    3 B    0 0 0
  39 O    1     1.3793     2.6065    2 B   -1-2 3
  39 O    1     2.3882     4.5130   37 O    0 0 0
  39 O    1     2.3882     4.5131   38 O   -1-2 3
  39 O    1     2.5390     4.7980   19 C    0-1 2
  39 O    1     2.5391     4.7982   31 C   -1-1 2

  40 O    1     1.3795     2.6068    6 B    0 0 0
  40 O    1     1.3795     2.6068    4 B    0 0 0
  40 O    1     2.3880     4.5126   42 O    0 0 0
  40 O    1     2.3884     4.5134   41 O    0 0 0
  40 O    1     2.5400     4.7998   24 C    0 0 0
  40 O    1     2.5403     4.8005   30 C    0 0 0

  41 O    1     1.3795     2.6069    5 B    0 0 0
  41 O    1     1.3795     2.6070    4 B    0 0 0
  41 O    1     2.3881     4.5128   42 O    0 0 0
  41 O    1     2.3884     4.5134   40 O    0 0 0
  41 O    1     2.5404     4.8006   24 C    0 0 0
  41 O    1     2.5405     4.8008   36 C    0 0 0

  42 O    1     1.3796     2.6071    6 B    0 0 0
  42 O    1     1.3797     2.6072    5 B    0 0 0
  42 O    1     2.3880     4.5126   40 O    0 0 0
  42 O    1     2.3881     4.5128   41 O    0 0 0
  42 O    1     2.5409     4.8016   36 C    0 0 0
  42 O    1     2.5410     4.8019   30 C    0 0 0


 SYMMETRY ALLOWED INTERNAL DEGREE(S) OF FREEDOM: 123
 TTTTTTTTTTTTTTTTTTTTTTTTTTTTTT SYMM        TELAPSE        0.38 TCPU        0.38
 TTTTTTTTTTTTTTTTTTTTTTTTTTTTTT INT_SCREEN  TELAPSE        0.42 TCPU        0.41

 DFT PARAMETERS

     ATOM       ELECTRONS   NET CHARGE   R(ANGSTROM)
   1   5  B       5.0000      0.0000     0.89000000
   7   1  H       1.0000      0.0000     1.11000000
  19   6  C       6.0000      0.0000     0.77000000
  37   8  O       8.0000      0.0000     0.74000000

 SIZE OF GRID=    1342088
 TTTTTTTTTTTTTTTTTTTTTTTTTTTTTT MAKE_GRID2  TELAPSE        7.19 TCPU        7.18
 BECKE WEIGHT FUNCTION
 RADSAFE =     2.00
 TOLERANCES - DENSITY:10**- 6; POTENTIAL:10**- 9; GRID WGT:10**-14

 RADIAL INTEGRATION  - INTERVALS (POINTS,UPPER LIMIT):            1( 75,  4.0*R)

 ANGULAR INTEGRATION - INTERVALS (ACCURACY LEVEL [N. POINTS] UPPER LIMIT):
  1(  4[  86]   0.2)  2(  8[ 194]   0.5)  3( 12[ 350]   0.9)  4( 16[ 974]   3.5)
  5( 12[ 350]9999.0)
 TTTTTTTTTTTTTTTTTTTTTTTTTTTTTT INT_CALC    TELAPSE        7.25 TCPU        7.24
 EEEEEEEEEE INT_CALC TERMINATION  DATE 19 02 2026 TIME 19:21:30.5

 *******************************************************************************
 cof-1_z44_L087_incl                                                             
 CRYSTAL - SCF - TYPE OF CALCULATION :  RESTRICTED CLOSED SHELL
 *******************************************************************************

 CAPPA:IS1  2;IS2  2;IS3  8; K PTS MONK NET  20; SYMMOPS:K SPACE   2;G SPACE   1

 TTTTTTTTTTTTTTTTTTTTTTTTTTTTTT SDIK        TELAPSE        7.82 TCPU       15.00

 AAAAAAAAAAAAAAAAAAAAAAAAAAAAAAAAAAAAAAAAAAAAAAAAAAAAAAAAAAAAAAAAAAAAAAAAAAAAAAA
         ATOMIC WAVEFUNCTION(S)


 NUCLEAR CHARGE  5.0  SYMMETRY SPECIES            S    P
 N. ELECTRONS    5.0  NUMBER OF PRIMITIVE GTOS    8    4
                      NUMBER OF CONTRACTED GTOS   4    2
                      NUMBER OF CLOSED SHELLS     2    0
                      OPEN SHELL OCCUPATION       0    1

  ZNUC  SCFIT    TOTAL HF ENERGY   KINETIC ENERGY   VIRIAL THEOREM ACCURACY
   5.0    11    -2.451164084E+01  2.462155050E+01 -1.995536038E+00  1.5E-06

 NUCLEAR CHARGE  1.0  SYMMETRY SPECIES            S
 N. ELECTRONS    1.0  NUMBER OF PRIMITIVE GTOS    4
                      NUMBER OF CONTRACTED GTOS   2
                      NUMBER OF CLOSED SHELLS     0
                      OPEN SHELL OCCUPATION       1

  ZNUC  SCFIT    TOTAL HF ENERGY   KINETIC ENERGY   VIRIAL THEOREM ACCURACY
   1.0     1    -4.977266687E-01  5.190767460E-01 -1.958869132E+00  0.0E+00

 NUCLEAR CHARGE  6.0  SYMMETRY SPECIES            S    P
 N. ELECTRONS    6.0  NUMBER OF PRIMITIVE GTOS    8    4
                      NUMBER OF CONTRACTED GTOS   4    2
                      NUMBER OF CLOSED SHELLS     2    0
                      OPEN SHELL OCCUPATION       0    2

  ZNUC  SCFIT    TOTAL HF ENERGY   KINETIC ENERGY   VIRIAL THEOREM ACCURACY
   6.0     9    -3.766704647E+01  3.775180683E+01 -1.997754800E+00  1.1E-06

 NUCLEAR CHARGE  8.0  SYMMETRY SPECIES            S    P
 N. ELECTRONS    8.0  NUMBER OF PRIMITIVE GTOS    8    4
                      NUMBER OF CONTRACTED GTOS   4    2
                      NUMBER OF CLOSED SHELLS     2    0
                      OPEN SHELL OCCUPATION       0    4

  ZNUC  SCFIT    TOTAL HF ENERGY   KINETIC ENERGY   VIRIAL THEOREM ACCURACY
   8.0    12    -7.477373220E+01  7.477365593E+01 -2.000001020E+00  3.8E-06

 AAAAAAAAAAAAAAAAAAAAAAAAAAAAAAAAAAAAAAAAAAAAAAAAAAAAAAAAAAAAAAAAAAAAAAAAAAAAAAA

 CHARGE NORMALIZATION FACTOR   1.00000000
 TOTAL ATOMIC CHARGES:
   5.0000000   5.0000000   5.0000000   5.0000000   5.0000000   5.0000000
   1.0000000   1.0000000   1.0000000   1.0000000   1.0000000   1.0000000
   1.0000000   1.0000000   1.0000000   1.0000000   1.0000000   1.0000000
   6.0000000   6.0000000   6.0000000   6.0000000   6.0000000   6.0000000
   6.0000000   6.0000000   6.0000000   6.0000000   6.0000000   6.0000000
   6.0000000   6.0000000   6.0000000   6.0000000   6.0000000   6.0000000
   8.0000000   8.0000000   8.0000000   8.0000000   8.0000000   8.0000000
 TTTTTTTTTTTTTTTTTTTTTTTTTTTTTT MOQGAD      TELAPSE        7.86 TCPU       16.22
 TTTTTTTTTTTTTTTTTTTTTTTTTTTTTT SHELLXN     TELAPSE       12.13 TCPU      152.84
 TTTTTTTTTTTTTTTTTTTTTTTTTTTTTT MONMO3      TELAPSE       12.25 TCPU      156.60
 NUMERICALLY INTEGRATED DENSITY    197.9999451259
 TTTTTTTTTTTTTTTTTTTTTTTTTTTTTT NUMDFT      TELAPSE       12.76 TCPU      173.01
 CYC   0 ETOT(AU) -1.295953949928E+03 DETOT -1.30E+03 tst  0.00E+00 PX  1.00E+00
 TTTTTTTTTTTTTTTTTTTTTTTTTTTTTT DIIS        TELAPSE       12.80 TCPU      174.09
 TTTTTTTTTTTTTTTTTTTTTTTTTTTTTT FDIK        TELAPSE       13.27 TCPU      189.04
 INSULATING STATE
 TOP OF VALENCE BANDS -    BAND     99; K    1; EIG -3.1409707E-01 AU
 BOTTOM OF VIRTUAL BANDS - BAND    100; K    1; EIG -1.5627806E-01 AU
 DIRECT ENERGY BAND GAP:   4.2945 eV
 TTTTTTTTTTTTTTTTTTTTTTTTTTTTTT PDIG        TELAPSE       13.59 TCPU      195.21
 CHARGE NORMALIZATION FACTOR   1.00000000
 TOTAL ATOMIC CHARGES:
   4.1646099   4.1644197   4.1647247   4.1642606   4.1639688   4.1641651
   0.7851271   0.7852457   0.7850807   0.7852105   0.7851109   0.7852665
   0.7851019   0.7852314   0.7850846   0.7852776   0.7850781   0.7852393
   6.0433113   6.2652155   6.2651880   6.2651562   6.2651246   6.0426376
   6.0433528   6.2652180   6.2652674   6.2651240   6.2652803   6.0421400
   6.0436893   6.2649209   6.2654974   6.2648418   6.2654700   6.0421943
   8.6917304   8.6918881   8.6917981   8.6921721   8.6921836   8.6923952
 TTTTTTTTTTTTTTTTTTTTTTTTTTTTTT MOQGAD      TELAPSE       13.62 TCPU      195.25
 TTTTTTTTTTTTTTTTTTTTTTTTTTTTTT SHELLXN     TELAPSE       18.08 TCPU      337.13
 TTTTTTTTTTTTTTTTTTTTTTTTTTTTTT MONMO3      TELAPSE       18.20 TCPU      340.89
 NUMERICALLY INTEGRATED DENSITY    197.9999807248
 TTTTTTTTTTTTTTTTTTTTTTTTTTTTTT NUMDFT      TELAPSE       18.71 TCPU      357.46
 CYC   1 ETOT(AU) -1.288809038114E+03 DETOT  7.14E+00 tst  0.00E+00 PX  1.00E+00
 TTTTTTTTTTTTTTTTTTTTTTTTTTTTTT DIIS        TELAPSE       18.76 TCPU      358.81
 DIIS TEST: 0.11171E+01 AT SCF   CYCLE   1 - MIX   30 %
 TTTTTTTTTTTTTTTTTTTTTTTTTTTTTT FDIK        TELAPSE       19.23 TCPU      373.97
 INSULATING STATE
 TOP OF VALENCE BANDS -    BAND     99; K    1; EIG -2.2625384E-01 AU
 BOTTOM OF VIRTUAL BANDS - BAND    100; K    1; EIG -8.0209567E-02 AU
 DIRECT ENERGY BAND GAP:   3.9741 eV
 TTTTTTTTTTTTTTTTTTTTTTTTTTTTTT PDIG        TELAPSE       19.55 TCPU      380.15
 CHARGE NORMALIZATION FACTOR   1.00000000
 TOTAL ATOMIC CHARGES:
   4.7142976   4.7138630   4.7141802   4.7143553   4.7140040   4.7144427
   0.9082356   0.9083403   0.9083366   0.9081130   0.9080771   0.9083463
   0.9080558   0.9082454   0.9082802   0.9081927   0.9082566   0.9083498
   5.8712548   6.1319032   6.1324315   6.1317723   6.1323424   5.8739887
   5.8712926   6.1314927   6.1324831   6.1318693   6.1323416   5.8747249
   5.8713800   6.1319435   6.1321616   6.1321436   6.1320308   5.8739407
   8.3322296   8.3325850   8.3326675   8.3322134   8.3321777   8.3326574
 TTTTTTTTTTTTTTTTTTTTTTTTTTTTTT MOQGAD      TELAPSE       19.59 TCPU      380.19
 TTTTTTTTTTTTTTTTTTTTTTTTTTTTTT SHELLXN     TELAPSE       24.04 TCPU      522.09
 TTTTTTTTTTTTTTTTTTTTTTTTTTTTTT MONMO3      TELAPSE       24.16 TCPU      525.84
 NUMERICALLY INTEGRATED DENSITY    197.9999697140
 TTTTTTTTTTTTTTTTTTTTTTTTTTTTTT NUMDFT      TELAPSE       24.68 TCPU      542.44
 CYC   2 ETOT(AU) -1.289004453883E+03 DETOT -1.95E-01 tst  3.70E-03 PX  1.58E-01
 TTTTTTTTTTTTTTTTTTTTTTTTTTTTTT DIIS        TELAPSE       24.73 TCPU      543.87
 DIIS TEST: 0.46297E+00 AT SCF   CYCLE   2 - DIIS ACTIVE - HISTORY:     2 CYCLES
 TTTTTTTTTTTTTTTTTTTTTTTTTTTTTT FDIK        TELAPSE       25.20 TCPU      558.98
 INSULATING STATE
 TOP OF VALENCE BANDS -    BAND     99; K    1; EIG -2.3942911E-01 AU
 BOTTOM OF VIRTUAL BANDS - BAND    100; K    1; EIG -7.4845119E-02 AU
 DIRECT ENERGY BAND GAP:   4.4786 eV
 TTTTTTTTTTTTTTTTTTTTTTTTTTTTTT PDIG        TELAPSE       25.52 TCPU      565.16
 CHARGE NORMALIZATION FACTOR   1.00000000
 TOTAL ATOMIC CHARGES:
   4.5062903   4.5058165   4.5061732   4.5061985   4.5057950   4.5060904
   0.8866994   0.8869294   0.8867366   0.8867442   0.8865327   0.8869935
   0.8865651   0.8868472   0.8867113   0.8867821   0.8867628   0.8868660
   5.8892702   6.1612250   6.1607360   6.1608291   6.1609431   5.8885893
   5.8894539   6.1613240   6.1606004   6.1612269   6.1606020   5.8885332
   5.8893580   6.1607606   6.1611347   6.1609919   6.1608748   5.8884326
   8.5093589   8.5096535   8.5095075   8.5095242   8.5097160   8.5098200
 TTTTTTTTTTTTTTTTTTTTTTTTTTTTTT MOQGAD      TELAPSE       25.56 TCPU      565.20
 TTTTTTTTTTTTTTTTTTTTTTTTTTTTTT SHELLXN     TELAPSE       30.01 TCPU      707.10
 TTTTTTTTTTTTTTTTTTTTTTTTTTTTTT MONMO3      TELAPSE       30.13 TCPU      710.85
 NUMERICALLY INTEGRATED DENSITY    197.9999726782
 TTTTTTTTTTTTTTTTTTTTTTTTTTTTTT NUMDFT      TELAPSE       30.65 TCPU      727.43
 CYC   3 ETOT(AU) -1.289099943115E+03 DETOT -9.55E-02 tst  6.91E-04 PX  6.25E-02
 TTTTTTTTTTTTTTTTTTTTTTTTTTTTTT DIIS        TELAPSE       30.70 TCPU      729.14
 DIIS TEST: 0.13200E-01 AT SCF   CYCLE   3 - DIIS ACTIVE - HISTORY:     3 CYCLES
 TTTTTTTTTTTTTTTTTTTTTTTTTTTTTT FDIK        TELAPSE       31.18 TCPU      744.34
 INSULATING STATE
 TOP OF VALENCE BANDS -    BAND     99; K    1; EIG -2.4867871E-01 AU
 BOTTOM OF VIRTUAL BANDS - BAND    100; K    1; EIG -8.3238115E-02 AU
 DIRECT ENERGY BAND GAP:   4.5019 eV
 TTTTTTTTTTTTTTTTTTTTTTTTTTTTTT PDIG        TELAPSE       31.49 TCPU      750.51
 CHARGE NORMALIZATION FACTOR   1.00000000
 TOTAL ATOMIC CHARGES:
   4.5116621   4.5111745   4.5115330   4.5114260   4.5109693   4.5113529
   0.8699585   0.8700190   0.8699445   0.8698706   0.8698295   0.8700233
   0.8698210   0.8699138   0.8699157   0.8699364   0.8699790   0.8699981
   5.9401337   6.1652475   6.1659815   6.1653133   6.1657861   5.9418783
   5.9399039   6.1651274   6.1659454   6.1652913   6.1657704   5.9425031
   5.9404076   6.1653020   6.1658192   6.1652715   6.1658812   5.9416011
   8.4763739   8.4766525   8.4766943   8.4765157   8.4764001   8.4768721
 TTTTTTTTTTTTTTTTTTTTTTTTTTTTTT MOQGAD      TELAPSE       31.53 TCPU      750.55
 TTTTTTTTTTTTTTTTTTTTTTTTTTTTTT SHELLXN     TELAPSE       35.99 TCPU      892.47
 TTTTTTTTTTTTTTTTTTTTTTTTTTTTTT MONMO3      TELAPSE       36.10 TCPU      896.23
 NUMERICALLY INTEGRATED DENSITY    197.9999729028
 TTTTTTTTTTTTTTTTTTTTTTTTTTTTTT NUMDFT      TELAPSE       36.62 TCPU      912.79
 CYC   4 ETOT(AU) -1.289102708662E+03 DETOT -2.77E-03 tst  2.65E-05 PX  1.31E-02
 TTTTTTTTTTTTTTTTTTTTTTTTTTTTTT DIIS        TELAPSE       36.68 TCPU      914.56
 DIIS TEST: 0.39205E-02 AT SCF   CYCLE   4 - DIIS ACTIVE - HISTORY:     4 CYCLES
 TTTTTTTTTTTTTTTTTTTTTTTTTTTTTT FDIK        TELAPSE       37.15 TCPU      929.65
 INSULATING STATE
 TOP OF VALENCE BANDS -    BAND     99; K    1; EIG -2.4699171E-01 AU
 BOTTOM OF VIRTUAL BANDS - BAND    100; K    1; EIG -8.3017354E-02 AU
 DIRECT ENERGY BAND GAP:   4.4620 eV
 TTTTTTTTTTTTTTTTTTTTTTTTTTTTTT PDIG        TELAPSE       37.47 TCPU      935.83
 CHARGE NORMALIZATION FACTOR   1.00000000
 TOTAL ATOMIC CHARGES:
   4.5140758   4.5135892   4.5139533   4.5140114   4.5135827   4.5139538
   0.8728144   0.8730304   0.8728624   0.8728338   0.8726579   0.8730682
   0.8726720   0.8729343   0.8728341   0.8728851   0.8728583   0.8729892
   5.9211431   6.1664640   6.1661862   6.1661439   6.1663488   5.9211542
   5.9213076   6.1664563   6.1660847   6.1664459   6.1660605   5.9212961
   5.9212392   6.1661068   6.1664573   6.1663216   6.1662345   5.9210299
   8.4864281   8.4867389   8.4866348   8.4865425   8.4866831   8.4868857
 TTTTTTTTTTTTTTTTTTTTTTTTTTTTTT MOQGAD      TELAPSE       37.51 TCPU      935.87
 TTTTTTTTTTTTTTTTTTTTTTTTTTTTTT SHELLXN     TELAPSE       41.96 TCPU     1077.82
 TTTTTTTTTTTTTTTTTTTTTTTTTTTTTT MONMO3      TELAPSE       42.08 TCPU     1081.57
 NUMERICALLY INTEGRATED DENSITY    197.9999729672
 TTTTTTTTTTTTTTTTTTTTTTTTTTTTTT NUMDFT      TELAPSE       42.60 TCPU     1098.15
 CYC   5 ETOT(AU) -1.289103608187E+03 DETOT -9.00E-04 tst  6.42E-06 PX  6.41E-03
 TTTTTTTTTTTTTTTTTTTTTTTTTTTTTT DIIS        TELAPSE       42.66 TCPU     1100.19
 DIIS TEST: 0.65890E-04 AT SCF   CYCLE   5 - DIIS ACTIVE - HISTORY:     5 CYCLES
 TTTTTTTTTTTTTTTTTTTTTTTTTTTTTT FDIK        TELAPSE       43.14 TCPU     1115.40
 INSULATING STATE
 TOP OF VALENCE BANDS -    BAND     99; K    1; EIG -2.4687178E-01 AU
 BOTTOM OF VIRTUAL BANDS - BAND    100; K    1; EIG -8.2461964E-02 AU
 DIRECT ENERGY BAND GAP:   4.4738 eV
 TTTTTTTTTTTTTTTTTTTTTTTTTTTTTT PDIG        TELAPSE       43.46 TCPU     1121.57
 CHARGE NORMALIZATION FACTOR   1.00000000
 TOTAL ATOMIC CHARGES:
   4.5138654   4.5133672   4.5137294   4.5136439   4.5132139   4.5135502
   0.8737608   0.8738406   0.8737595   0.8736918   0.8736175   0.8738704
   0.8736127   0.8737560   0.8737268   0.8737477   0.8737893   0.8738156
   5.9205815   6.1656148   6.1661656   6.1656018   6.1660086   5.9218027
   5.9203740   6.1655416   6.1661107   6.1656596   6.1659554   5.9223211
   5.9208359   6.1655829   6.1660923   6.1655852   6.1661056   5.9215184
   8.4858065   8.4860716   8.4861062   8.4859824   8.4859169   8.4862999
 TTTTTTTTTTTTTTTTTTTTTTTTTTTTTT MOQGAD      TELAPSE       43.49 TCPU     1121.61
 TTTTTTTTTTTTTTTTTTTTTTTTTTTTTT SHELLXN     TELAPSE       47.95 TCPU     1263.52
 TTTTTTTTTTTTTTTTTTTTTTTTTTTTTT MONMO3      TELAPSE       48.07 TCPU     1267.27
 NUMERICALLY INTEGRATED DENSITY    197.9999729208
 TTTTTTTTTTTTTTTTTTTTTTTTTTTTTT NUMDFT      TELAPSE       48.59 TCPU     1283.91
 CYC   6 ETOT(AU) -1.289103628535E+03 DETOT -2.03E-05 tst  1.89E-07 PX  6.84E-04
 TTTTTTTTTTTTTTTTTTTTTTTTTTTTTT DIIS        TELAPSE       48.65 TCPU     1285.98
 DIIS TEST: 0.40404E-05 AT SCF   CYCLE   6 - DIIS ACTIVE - HISTORY:     6 CYCLES
 TTTTTTTTTTTTTTTTTTTTTTTTTTTTTT FDIK        TELAPSE       49.12 TCPU     1301.13
 INSULATING STATE
 TOP OF VALENCE BANDS -    BAND     99; K    1; EIG -2.4682764E-01 AU
 BOTTOM OF VIRTUAL BANDS - BAND    100; K    1; EIG -8.2539246E-02 AU
 DIRECT ENERGY BAND GAP:   4.4705 eV
 TTTTTTTTTTTTTTTTTTTTTTTTTTTTTT PDIG        TELAPSE       49.44 TCPU     1307.30
 CHARGE NORMALIZATION FACTOR   1.00000000
 TOTAL ATOMIC CHARGES:
   4.5139476   4.5134578   4.5138231   4.5138814   4.5134498   4.5138177
   0.8736798   0.8738958   0.8737279   0.8736976   0.8735204   0.8739376
   0.8735367   0.8738014   0.8737002   0.8737482   0.8737267   0.8738518
   5.9214777   6.1657594   6.1654492   6.1654155   6.1656402   5.9214922
   5.9216736   6.1657623   6.1653349   6.1657435   6.1653196   5.9216042
   5.9215595   6.1653739   6.1657498   6.1656076   6.1655094   5.9213828
   8.4859364   8.4862553   8.4861296   8.4860377   8.4861911   8.4863930
 TTTTTTTTTTTTTTTTTTTTTTTTTTTTTT MOQGAD      TELAPSE       49.48 TCPU     1307.34
 TTTTTTTTTTTTTTTTTTTTTTTTTTTTTT SHELLXN     TELAPSE       53.94 TCPU     1449.22
 TTTTTTTTTTTTTTTTTTTTTTTTTTTTTT MONMO3      TELAPSE       54.06 TCPU     1452.99
 NUMERICALLY INTEGRATED DENSITY    197.9999729220
 TTTTTTTTTTTTTTTTTTTTTTTTTTTTTT NUMDFT      TELAPSE       54.57 TCPU     1469.57
 CYC   7 ETOT(AU) -1.289103628308E+03 DETOT  2.27E-07 tst  2.61E-08 PX  2.83E-04
 TTTTTTTTTTTTTTTTTTTTTTTTTTTTTT DIIS        TELAPSE       54.65 TCPU     1471.98
 DIIS TEST: 0.10424E-05 AT SCF   CYCLE   7 - DIIS ACTIVE - HISTORY:     7 CYCLES
 TTTTTTTTTTTTTTTTTTTTTTTTTTTTTT FDIK        TELAPSE       55.13 TCPU     1487.23
 INSULATING STATE
 TOP OF VALENCE BANDS -    BAND     99; K    1; EIG -2.4684497E-01 AU
 BOTTOM OF VIRTUAL BANDS - BAND    100; K    1; EIG -8.2539034E-02 AU
 DIRECT ENERGY BAND GAP:   4.4710 eV
 TTTTTTTTTTTTTTTTTTTTTTTTTTTTTT PDIG        TELAPSE       55.45 TCPU     1493.41
 CHARGE NORMALIZATION FACTOR   1.00000000
 TOTAL ATOMIC CHARGES:
   4.5140151   4.5135217   4.5138842   4.5138636   4.5134336   4.5137873
   0.8736841   0.8738248   0.8737034   0.8736555   0.8735343   0.8738582
   0.8735384   0.8737345   0.8736726   0.8737095   0.8737198   0.8737922
   5.9210023   6.1656250   6.1658003   6.1654799   6.1657831   5.9216648
   5.9209567   6.1655816   6.1657248   6.1656428   6.1656287   5.9220195
   5.9211879   6.1654539   6.1658761   6.1655469   6.1657869   5.9214513
   8.4859174   8.4862027   8.4861785   8.4860675   8.4860932   8.4863954
 TTTTTTTTTTTTTTTTTTTTTTTTTTTTTT MOQGAD      TELAPSE       55.48 TCPU     1493.44
 TTTTTTTTTTTTTTTTTTTTTTTTTTTTTT SHELLXN     TELAPSE       59.94 TCPU     1635.33
 +++ ENERGIES IN A.U. +++
 ::: EXT EL-POLE                                  -1.2163116046966E+03
 ::: EXT EL-SPHEROPOLE                             1.2982158984953E+01
 ::: BIELET ZONE E-E                               1.9291627118462E+03
 ::: TOTAL E-E                                     7.2583326613458E+02
 ::: TOTAL E-N + N-E                              -3.2839583234758E+03
 ::: TOTAL N-N                                     1.2278359263967E+02
 ::: KINETIC ENERGY                                1.2799602775346E+03
 ::: PSEUDO TOTAL   ENERGY                        -1.1553811871669E+03
 ::: VIRIAL COEFFICIENT                            1.0511546705763E+00
 TTTTTTTTTTTTTTTTTTTTTTTTTTTTTT MONMO3      TELAPSE       60.06 TCPU     1639.08
 NUMERICALLY INTEGRATED DENSITY    197.9999729217
 EXCHANGE ENERGY: -0.126032617865E+03  CORRELATION ENERGY: -0.768982363325E+01
 TTTTTTTTTTTTTTTTTTTTTTTTTTTTTT NUMDFT      TELAPSE       60.58 TCPU     1655.68
 CYC   8 ETOT(AU) -1.289103628666E+03 DETOT -3.57E-07 tst  8.36E-09 PX  2.83E-04

 == SCF ENDED - CONVERGENCE ON ENERGY      E(AU) -1.2891036286656E+03 CYCLES   8


 ENERGY EXPRESSION=HARTREE+FOCK EXCH*0.00000+(HSESOL     EXCH)*1.00000+PBESOL     CORR


 TOTAL ENERGY(DFT)(AU)(  8) -1.2891036286656E+03 DE-3.6E-07 tester 8.4E-09
 TTTTTTTTTTTTTTTTTTTTTTTTTTTTTT EDFT        TELAPSE       60.58 TCPU     1655.69
 
 INFORMATION **** DFTD3 ENERGY **** CALCULATE DFTD3 ENERGY

           DFT-D V3(BJ)
 DF                                         hsesol3c  
 parameters
 s6       :    1.0000
 s8       :    0.0000
 a1       :    0.5196
 a2       :    4.9385
 k1 k3    :   16.0000   -4.0000
 Cutoff   :   50.2022
 CN-Cutoff:   21.1671
 ABC-Cutoff:   21.1671
 
 Edisp /kcal,au:   -21.2238 -0.03382220

 E6    /kcal :   -22.1425
 E8    /kcal :     0.0000
 E6(ABC) "   :   0.918763
 
 INFORMATION **** DFTD3 ENERGY **** NORMAL TERMINATION OF DFTD3 MODULE

 GCP ENERGY CALCULATION
  level        hsesol3c            basis:hsesol3c
  Nbf            474
  Atoms           42

  Parameters: 
  sigma     1.0000
  eta       1.4281
  alpha     0.2936
  beta      1.9467

  dmp_scal      4.0000
  dmp_exp       6.0000
 cutoffs: 
   distance [bohr] 60.0
   noise    [a.u.] 2.2E-16
 SR-damping   T
 ** gCP correction **
  Egcp:        0.0829202224 / (a.u.) ||      52.0332 / (kcal/mol)
 INFORMATION **** GCP **** NORMAL TERMINATION OF GCP MODULE

 *******************************************************************************

 DFT-D3-GCP DISPERSION AND COUNTERPOISE CORRECTION

 D3 DISPERSION ENERGY (AU)      -3.3822204318104E-02
 GCP ENERGY (AU)                 8.2920222448559E-02
 TOTAL ENERGY + DISP + GCP (AU) -1.2890545306475E+03

 *******************************************************************************

 EIGENVECTORS IN FORTRAN UNIT  8
 TTTTTTTTTTTTTTTTTTTTTTTTTTTTTT END         TELAPSE       61.96 TCPU     1663.03
 EEEEEEEEEE TERMINATION  DATE 19 02 2026 TIME 19:22:25.2
