 Default number of threads is:           32

         
 *******************************************************************************
 *                                                                             *
 *                               CRYSTAL23                                     *
 *                      public : 1.0.1 - October 2022                          *
 *                       HTTP://WWW.CRYSTAL.UNITO.IT                           *
 *                                                                             *
 *                              MAIN AUTHORS                                   *
 *                                                                             *
 *  R. DOVESI(1,11), V.R. SAUNDERS(2), C. ROETTI(1,11), R. ORLANDO(1,11),      *
 *  C.M. ZICOVICH-WILSON(1,3), F. PASCALE(4), B. CIVALLERI(1,11),              *
 *  K. DOLL(5), N.M. HARRISON(6), I.J. BUSH(7), Ph. D'ARCO(8),                 *
 *  M. LLUNELL(9), M. CAUSA'(10), Y. NOEL(8), L. MASCHIO(1,11), A. ERBA(1,11)  *
 *  M. RE'RAT(14), S. CASASSA(1,11), B.G. SEARLE(2), J.K. DESMARAIS(1)         *
 *                                                                             *
 *        CONTRIBUTIONS TO THE CODE HAVE ALSO BEEN GIVEN BY                    *
 *                                                                             *
 *  M. FERRABONE(1,11), M. DE LA PIERRE(1,11), M. FERRERO(1,11),               *
 *  J. BAIMA(1,11), E. ALBANESE(1,11), M.F. PEINTINGER(12), R. BAST(13),       *
 *  B. KIRTMAN(15), V. LACIVITA(1,11), R. DEMICHELIS(1,16)                     *
 *  G. BRANDEBURG(17), S. SALUSTRO(1,11), G. SANSONE(1,11)                     *
 *  M.T. RUGGIERO(18), L.E. DAGA(1), L. DONA'(1), A. COSSARD(1)                *
 *                                                                             *
 * (1) THEORETICAL CHEMISTRY GROUP - UNIVERSITA' DI TORINO - TORINO (ITALY)    *
 * (2) SCIENTIFIC COMPUTING DEPARTMENT - STFC DARESBURY (UK)                   *
 * (3) UNIVERSIDAD AUTONOMA DEL ESTADO DE MORELOS - CUERNAVACA (MEXICO)        *
 * (4) UNIVERSITE' DE LORRAINE - NANCY (FRANCE)                                *
 * (5) UNIVERSITAET STUTTGART- STUTTGART (GERMANY)                             *
 * (6) IMPERIAL COLLEGE - LONDON (UK)                                          *
 * (7) SCIENTIFIC COMPUTING DEPARTMENT - STFC RAL (UK)                         *
 * (8) UPMC - SORBONNE UNIVERSITES - PARIS (FRANCE)                            *
 * (9) UNIVERSIDAD DE BARCELONA - BARCELONA (SPAIN)                            *
 *(10) UNIVERSITA' DI NAPOLI "FEDERICO II" - NAPOLI (ITALY)                    *
 *(11) NIS - NANOSTRUCTURED INTERFACES AND SURFACES - TORINO (ITALY)           *
 *(12) MPI FUER CHEMISCHE ENERGIEKONVERSION - MUELHEIM AN DER RUHR (GERMANY)   *
 *(13) UNIVERSITY OF TROMSO - TROMSO (NORWAY)                                  *
 *(14) UNIVERSITE' DE PAU ET DES PAYS DE L'ADOUR - PAU (FRANCE)                *
 *(15) UNIVERSITY OF CALIFORNIA SANTA BARBARA - SANTA BARBARA (USA)            *
 *(16) CURTIN UNIVERSITY - PERTH (AUSTRALIA)                                   *
 *(17) UNIVERSITY COLLEGE LONDON - LONDON (UK)                                 *
 *(18) UNIVERSITY OF VERMONT - BURLINGTON (USA)                                *
 *                                                                             *
 *******************************************************************************
 EEEEEEEEEE STARTING  DATE 02 12 2025 TIME 07:56:44.1
 COF-5_z32_inc_L060                                                              

 CRYSTAL CALCULATION
 (INPUT ACCORDING TO THE INTERNATIONAL TABLES FOR X-RAY CRYSTALLOGRAPHY)
 CRYSTAL FAMILY                       :  TRICLINIC   
 CRYSTAL CLASS  (GROTH - 1921)        :  TRICLINIC PEDIAL                     

 SPACE GROUP (NONCENTROSYMMETRIC)     :  P 1             

 LATTICE PARAMETERS  (ANGSTROMS AND DEGREES) - CONVENTIONAL CELL
        A           B           C        ALPHA        BETA       GAMMA
    15.02070    15.04439     6.80000    40.20820    89.99966   120.05310


 NUMBER OF IRREDUCIBLE ATOMS IN THE CONVENTIONAL CELL:   42

 INPUT COORDINATES

 ATOM AT. N.              COORDINATES
   1   5     4.999165800000E-01 -2.590110000000E-03  5.006143300000E-01
   2   5     6.586936700000E-01  1.564320100000E-01  5.006243200000E-01
   3   5     4.997924200000E-01  1.567782300000E-01  4.991944600000E-01
   4   5     1.119819900000E-01  3.814846300000E-01  5.054089600000E-01
   5   5     2.696220400000E-01  3.791206700000E-01  5.094525400000E-01
   6   5     2.712732400000E-01  5.412077200000E-01  5.034873600000E-01
   7   1     7.878206700000E-01  7.708732000000E-02  5.045124300000E-01
   8   1    -1.505291000000E-02  4.643186900000E-01  4.929230000000E-01
   9   1     7.905967700000E-01  3.670829300000E-01  4.927847100000E-01
  10   1    -1.764025000000E-02  1.744998500000E-01  5.040810400000E-01
  11   1     4.778710000000E-01  6.709103700000E-01  5.042030900000E-01
  12   1     2.939611500000E-01 -1.292373000000E-01  4.945551000000E-01
  13   1     1.953188500000E-01  6.764487600000E-01  4.958618400000E-01
  14   1     5.764027200000E-01 -1.345420500000E-01  5.023419100000E-01
  15   1     4.789577700000E-01  4.612153500000E-01  4.977591700000E-01
  16   1     2.897333000000E-01  7.578591000000E-02  5.060416600000E-01
  17   1     1.924535700000E-01  1.718754900000E-01  5.056768100000E-01
  18   1     5.765334600000E-01  3.649260400000E-01  4.986925500000E-01
  19   6     7.780439500000E-01  2.159762800000E-01  5.003743500000E-01
  20   6     8.321600200000E-01  1.619861100000E-01  5.021403000000E-01
  21   6    -5.934551000000E-02  3.792678100000E-01  4.957479000000E-01
  22   6     8.335980900000E-01  3.255875600000E-01  4.960850400000E-01
  23   6    -6.066058000000E-02  2.158476300000E-01  5.014966400000E-01
  24   6    -5.654730000000E-03  3.245256300000E-01  4.993135500000E-01
  25   6     3.306134100000E-01  6.613356100000E-01  5.018556900000E-01
  26   6     4.383965000000E-01  7.156378800000E-01  5.022458400000E-01
  27   6     3.331563800000E-01 -1.743860700000E-01  4.969698900000E-01
  28   6     2.787795500000E-01  7.181433100000E-01  4.980884700000E-01
  29   6     4.928119800000E-01 -1.768333400000E-01  5.008085500000E-01
  30   6     4.405078600000E-01 -1.210917600000E-01  4.991844200000E-01
  31   6     3.306532000000E-01  3.231576200000E-01  4.999555800000E-01
  32   6     4.386298300000E-01  3.766667000000E-01  4.994041400000E-01
  33   6     3.307468900000E-01  1.605531400000E-01  5.039273100000E-01
  34   6     2.769859200000E-01  2.138788300000E-01  5.033194200000E-01
  35   6     4.922266200000E-01  3.231698400000E-01  5.003424200000E-01
  36   6     4.391850200000E-01  2.148743700000E-01  5.015841700000E-01
  37   8     4.470379100000E-01  5.069993000000E-02  4.995843000000E-01
  38   8     6.055063700000E-01  4.961955000000E-02  5.025741000000E-01
  39   8     6.061592900000E-01  2.104457000000E-01  4.980547500000E-01
  40   8     1.654419000000E-01  4.885849200000E-01  5.027207700000E-01
  41   8     1.634717200000E-01  3.260734800000E-01  5.102079200000E-01
  42   8     3.236791900000E-01  4.871564800000E-01  5.051923000000E-01

 *******************************************************************************

 << INFORMATION >>: FROM NOW ON, ALL COORDINATES REFER TO THE PRIMITIVE CELL

 *******************************************************************************

 LATTICE PARAMETERS  (ANGSTROMS AND DEGREES) - PRIMITIVE CELL
       A          B          C        ALPHA      BETA     GAMMA        VOLUME
   15.02070   15.04439    6.80000    40.20820  89.99966 120.05310    625.980856

 COORDINATES OF THE EQUIVALENT ATOMS (FRACTIONAL UNITS)

 N. ATOM EQUIV AT. N.          X                  Y                  Z

   1   1   1    5 B     4.99916580000E-01 -2.59011000000E-03 -4.99385670000E-01

   2   2   1    5 B    -3.41306330000E-01  1.56432010000E-01 -4.99375680000E-01

   3   3   1    5 B     4.99792420000E-01  1.56778230000E-01  4.99194460000E-01

   4   4   1    5 B     1.11981990000E-01  3.81484630000E-01 -4.94591040000E-01

   5   5   1    5 B     2.69622040000E-01  3.79120670000E-01 -4.90547460000E-01

   6   6   1    5 B     2.71273240000E-01 -4.58792280000E-01 -4.96512640000E-01

   7   7   1    1 H    -2.12179330000E-01  7.70873200000E-02 -4.95487570000E-01

   8   8   1    1 H    -1.50529100000E-02  4.64318690000E-01  4.92923000000E-01

   9   9   1    1 H    -2.09403230000E-01  3.67082930000E-01  4.92784710000E-01

  10  10   1    1 H    -1.76402500000E-02  1.74499850000E-01 -4.95918960000E-01

  11  11   1    1 H     4.77871000000E-01 -3.29089630000E-01 -4.95796910000E-01

  12  12   1    1 H     2.93961150000E-01 -1.29237300000E-01  4.94555100000E-01

  13  13   1    1 H     1.95318850000E-01 -3.23551240000E-01  4.95861840000E-01

  14  14   1    1 H    -4.23597280000E-01 -1.34542050000E-01 -4.97658090000E-01

  15  15   1    1 H     4.78957770000E-01  4.61215350000E-01  4.97759170000E-01

  16  16   1    1 H     2.89733300000E-01  7.57859100000E-02 -4.93958340000E-01

  17  17   1    1 H     1.92453570000E-01  1.71875490000E-01 -4.94323190000E-01

  18  18   1    1 H    -4.23466540000E-01  3.64926040000E-01  4.98692550000E-01

  19  19   1    6 C    -2.21956050000E-01  2.15976280000E-01 -4.99625650000E-01

  20  20   1    6 C    -1.67839980000E-01  1.61986110000E-01 -4.97859700000E-01

  21  21   1    6 C    -5.93455100000E-02  3.79267810000E-01  4.95747900000E-01

  22  22   1    6 C    -1.66401910000E-01  3.25587560000E-01  4.96085040000E-01

  23  23   1    6 C    -6.06605800000E-02  2.15847630000E-01 -4.98503360000E-01

  24  24   1    6 C    -5.65473000000E-03  3.24525630000E-01  4.99313550000E-01

  25  25   1    6 C     3.30613410000E-01 -3.38664390000E-01 -4.98144310000E-01

  26  26   1    6 C     4.38396500000E-01 -2.84362120000E-01 -4.97754160000E-01

  27  27   1    6 C     3.33156380000E-01 -1.74386070000E-01  4.96969890000E-01

  28  28   1    6 C     2.78779550000E-01 -2.81856690000E-01  4.98088470000E-01

  29  29   1    6 C     4.92811980000E-01 -1.76833340000E-01 -4.99191450000E-01

  30  30   1    6 C     4.40507860000E-01 -1.21091760000E-01  4.99184420000E-01

  31  31   1    6 C     3.30653200000E-01  3.23157620000E-01  4.99955580000E-01

  32  32   1    6 C     4.38629830000E-01  3.76666700000E-01  4.99404140000E-01

  33  33   1    6 C     3.30746890000E-01  1.60553140000E-01 -4.96072690000E-01

  34  34   1    6 C     2.76985920000E-01  2.13878830000E-01 -4.96680580000E-01

  35  35   1    6 C     4.92226620000E-01  3.23169840000E-01 -4.99657580000E-01

  36  36   1    6 C     4.39185020000E-01  2.14874370000E-01 -4.98415830000E-01

  37  37   1    8 O     4.47037910000E-01  5.06999300000E-02  4.99584300000E-01

  38  38   1    8 O    -3.94493630000E-01  4.96195500000E-02 -4.97425900000E-01

  39  39   1    8 O    -3.93840710000E-01  2.10445700000E-01  4.98054750000E-01

  40  40   1    8 O     1.65441900000E-01  4.88584920000E-01 -4.97279230000E-01

  41  41   1    8 O     1.63471720000E-01  3.26073480000E-01 -4.89792080000E-01

  42  42   1    8 O     3.23679190000E-01  4.87156480000E-01 -4.94807700000E-01

 NUMBER OF SYMMETRY OPERATORS         :    1
 *******************************************************************************
 * GEOMETRY EDITING - INPUT COORDINATES ARE GIVEN IN ANGSTROM         
 *******************************************************************************

 GCALCO - MAX INDICES DIRECT LATTICE VECTOR     9    13    26
 NO.OF VECTORS CREATED 6999 STARS 3500 RMAX   199.60900 BOHR

 GEOMETRY FOR WAVE FUNCTION - DIMENSIONALITY OF THE SYSTEM    3
 (NON PERIODIC DIRECTION: LATTICE PARAMETER FORMALLY SET TO 500)
 *******************************************************************************
 LATTICE PARAMETERS (ANGSTROMS AND DEGREES) - BOHR = 0.5291772083 ANGSTROM
 PRIMITIVE CELL - CENTRING CODE 1/0 VOLUME=   625.980856 - DENSITY  1.035 g/cm^3
         A              B              C           ALPHA      BETA       GAMMA 
    15.02070100    15.04438700     6.80000000    40.208196  89.999664 120.053104
 *******************************************************************************
 ATOMS IN THE ASYMMETRIC UNIT   42 - ATOMS IN THE UNIT CELL:   42
     ATOM                 X/A                 Y/B                 Z/C    
 *******************************************************************************
      1 T   5 B     4.999165800000E-01 -2.590110000000E-03 -4.993856700000E-01
      2 T   5 B    -3.413063300000E-01  1.564320100000E-01 -4.993756800000E-01
      3 T   5 B     4.997924200000E-01  1.567782300000E-01  4.991944600000E-01
      4 T   5 B     1.119819900000E-01  3.814846300000E-01 -4.945910400000E-01
      5 T   5 B     2.696220400000E-01  3.791206700000E-01 -4.905474600000E-01
      6 T   5 B     2.712732400000E-01 -4.587922800000E-01 -4.965126400000E-01
      7 T   1 H    -2.121793300000E-01  7.708732000000E-02 -4.954875700000E-01
      8 T   1 H    -1.505291000000E-02  4.643186900000E-01  4.929230000000E-01
      9 T   1 H    -2.094032300000E-01  3.670829300000E-01  4.927847100000E-01
     10 T   1 H    -1.764025000000E-02  1.744998500000E-01 -4.959189600000E-01
     11 T   1 H     4.778710000000E-01 -3.290896300000E-01 -4.957969100000E-01
     12 T   1 H     2.939611500000E-01 -1.292373000000E-01  4.945551000000E-01
     13 T   1 H     1.953188500000E-01 -3.235512400000E-01  4.958618400000E-01
     14 T   1 H    -4.235972800000E-01 -1.345420500000E-01 -4.976580900000E-01
     15 T   1 H     4.789577700000E-01  4.612153500000E-01  4.977591700000E-01
     16 T   1 H     2.897333000000E-01  7.578591000000E-02 -4.939583400000E-01
     17 T   1 H     1.924535700000E-01  1.718754900000E-01 -4.943231900000E-01
     18 T   1 H    -4.234665400000E-01  3.649260400000E-01  4.986925500000E-01
     19 T   6 C    -2.219560500000E-01  2.159762800000E-01 -4.996256500000E-01
     20 T   6 C    -1.678399800000E-01  1.619861100000E-01 -4.978597000000E-01
     21 T   6 C    -5.934551000000E-02  3.792678100000E-01  4.957479000000E-01
     22 T   6 C    -1.664019100000E-01  3.255875600000E-01  4.960850400000E-01
     23 T   6 C    -6.066058000000E-02  2.158476300000E-01 -4.985033600000E-01
     24 T   6 C    -5.654730000000E-03  3.245256300000E-01  4.993135500000E-01
     25 T   6 C     3.306134100000E-01 -3.386643900000E-01 -4.981443100000E-01
     26 T   6 C     4.383965000000E-01 -2.843621200000E-01 -4.977541600000E-01
     27 T   6 C     3.331563800000E-01 -1.743860700000E-01  4.969698900000E-01
     28 T   6 C     2.787795500000E-01 -2.818566900000E-01  4.980884700000E-01
     29 T   6 C     4.928119800000E-01 -1.768333400000E-01 -4.991914500000E-01
     30 T   6 C     4.405078600000E-01 -1.210917600000E-01  4.991844200000E-01
     31 T   6 C     3.306532000000E-01  3.231576200000E-01  4.999555800000E-01
     32 T   6 C     4.386298300000E-01  3.766667000000E-01  4.994041400000E-01
     33 T   6 C     3.307468900000E-01  1.605531400000E-01 -4.960726900000E-01
     34 T   6 C     2.769859200000E-01  2.138788300000E-01 -4.966805800000E-01
     35 T   6 C     4.922266200000E-01  3.231698400000E-01 -4.996575800000E-01
     36 T   6 C     4.391850200000E-01  2.148743700000E-01 -4.984158300000E-01
     37 T   8 O     4.470379100000E-01  5.069993000000E-02  4.995843000000E-01
     38 T   8 O    -3.944936300000E-01  4.961955000000E-02 -4.974259000000E-01
     39 T   8 O    -3.938407100000E-01  2.104457000000E-01  4.980547500000E-01
     40 T   8 O     1.654419000000E-01  4.885849200000E-01 -4.972792300000E-01
     41 T   8 O     1.634717200000E-01  3.260734800000E-01 -4.897920800000E-01
     42 T   8 O     3.236791900000E-01  4.871564800000E-01 -4.948077000000E-01

 T = ATOM BELONGING TO THE ASYMMETRIC UNIT

 ****    1 SYMMOPS - TRANSLATORS IN FRACTIONAL UNITS
 **** MATRICES AND TRANSLATORS IN THE CRYSTALLOGRAPHIC REFERENCE FRAME
   V INV                    ROTATION MATRICES                   TRANSLATORS
   1   1  1.00 -0.00  0.00  0.00  1.00  0.00  0.00 -0.00  1.00  0.00  0.00  0.00

 DIRECT LATTICE VECTORS CARTESIAN COMPONENTS (ANGSTROM)
          X                    Y                    Z
   0.130013421718E+02  -0.752240388864E+01   0.000000000000E+00
   0.000000000000E+00   0.150443870000E+02   0.000000000000E+00
   0.300475398576E+01   0.519318509142E+01   0.320035655690E+01


 CARTESIAN COORDINATES - PRIMITIVE CELL
 *******************************************************************************
 *      ATOM          X(ANGSTROM)         Y(ANGSTROM)         Z(ANGSTROM)
 *******************************************************************************
    1     5 B     1.994301445797E+00  3.458258649665E+00 -4.798568760308E+00
    2     5 B    -5.937941446594E+00  2.327517425244E+00 -1.598180231845E+00
    3     5 B    -1.998659375379E+00 -1.137396870972E+00  4.797956820131E+00
    4     5 B    -3.020822969556E-02  2.328325835960E+00 -1.582867677849E+00
    5     5 B     2.031473963452E+00  1.127928441113E+00 -1.569926780082E+00
    6     5 B     2.035017881265E+00  3.523029471857E+00 -1.589017483008E+00
    7     1 H    -4.247434321960E+00  1.826714304461E-01 -1.585736893513E+00
    8     1 H    -1.719349670429E+00  4.465279415810E+00 -1.622827201804E+00
    9     1 H     1.762927762151E+00 -1.943263676673E-01  4.777443334690E+00
   10     1 H    -1.719461397920E+00  1.825414104138E-01 -1.587117495328E+00
   11     1 H     1.718462657756E+00 -1.269253632881E+00 -4.787083448711E+00
   12     1 H     5.307905904262E+00 -1.587274281699E+00  1.582752657034E+00
   13     1 H     4.029350041574E+00 -3.761795030763E+00  1.586934690961E+00
   14     1 H     2.993914876226E+00  9.067346046414E-01 -4.793039888328E+00
   15     1 H     4.717983717845E+00  7.275588335384E-01 -1.607349733434E+00
   16     1 H     2.282698480942E+00 -3.604555430473E+00 -1.580842812255E+00
   17     1 H     1.016835140343E+00 -1.429063916628E+00 -1.582010462345E+00
   18     1 H    -1.002430971794E+00  1.414175726626E+00  4.796350529171E+00
   19     6 C    -4.386978716371E+00  2.324225315897E+00 -1.598980224974E+00
   20     6 C    -3.678090928008E+00  1.114064274027E+00 -1.593328555312E+00
   21     6 C    -2.286724789172E+00  3.533598117442E+00 -1.613786514566E+00
   22     6 C    -3.677588654491E+00  3.533083972271E+00 -1.612707546357E+00
   23     6 C    -2.286548914794E+00  1.114788444457E+00 -1.595388496813E+00
   24     6 C    -1.577958685873E+00  2.324668924464E+00 -1.602375163209E+00
   25     6 C    -2.031370167308E-01 -3.177594427887E-01 -4.794595965693E+00
   26     6 C     1.199360121458E+00 -3.095768921126E-01 -4.793347346582E+00
   27     6 C     5.824752350870E+00 -2.548811749294E+00  1.590480846044E+00
   28     6 C     5.121141635537E+00 -3.750787877280E+00  1.594060700881E+00
   29     6 C     1.902515693523E+00  8.913283564909E-01 -4.797947187058E+00
   30     6 C    -2.769468393172E+00 -4.871870271116E+00  4.797924688551E+00
   31     6 C     2.796424929339E+00 -2.224218471850E-01 -1.600320438289E+00
   32     6 C     4.198609100986E+00 -2.325180910324E-01 -1.602085242909E+00
   33     6 C     2.809577096635E+00 -2.648785417236E+00 -1.587609486141E+00
   34     6 C     2.108785770278E+00 -1.445278255334E+00 -1.589554950888E+00
   35     6 C     4.898258607655E+00 -1.435649595964E+00 -1.599082412358E+00
   36     6 C     4.212377769978E+00 -2.659439581304E+00 -1.595108369604E+00
   37     8 O    -2.683367437699E+00 -2.334414626031E+00  4.799204447131E+00
   38     8 O     3.372999062152E+00  3.459609381293E+00 -4.792296797539E+00
   39     8 O    -6.191718509335E-01 -1.136055964473E+00  4.794309341759E+00
   40     8 O     6.567650030697E-01  3.523476743431E+00 -1.591470844341E+00
   41     8 O     6.536470625542E-01  1.132294393594E+00 -1.567509294746E+00
   42     8 O     2.721488494312E+00  2.324497046389E+00 -1.583561067100E+00

 *******************************************************************************
 STARTING BASIS SET HANDLING 
 *******************************************************************************

 Loading internal basis set: SOLDEF2MSVP         

 Please cite in your publication:
 L. Dona', J. G. Brandenburg and B. Civalleri, J. Chem. Phys., 151, 121101 (2019
 )                                                                              
                                                                                
                    

 *******************************************************************************
 LOCAL ATOMIC FUNCTIONS BASIS SET
 *******************************************************************************
   ATOM   X(AU)   Y(AU)   Z(AU)  N. TYPE  EXPONENT  S COEF   P COEF   D/F/G COEF
 *******************************************************************************
   1 B    3.769   6.535  -9.068
                                  1 S  
                                         2.410E+03 1.755E-03 0.000E+00 0.000E+00
                                         3.619E+02 1.344E-02 0.000E+00 0.000E+00
                                         8.231E+01 6.637E-02 0.000E+00 0.000E+00
                                         2.311E+01 2.303E-01 0.000E+00 0.000E+00
                                         7.252E+00 5.150E-01 0.000E+00 0.000E+00
                                  2 S  
                                         2.367E+00 1.000E+00 0.000E+00 0.000E+00
                                  3 S  
                                         5.533E-01 1.000E+00 0.000E+00 0.000E+00
                                  4 S  
                                         1.716E-01 1.000E+00 0.000E+00 0.000E+00
                           5-     7 P  
                                         6.002E+00 0.000E+00-3.555E-02 0.000E+00
                                         1.240E+00 0.000E+00-1.983E-01 0.000E+00
                                         3.367E-01 0.000E+00-5.048E-01 0.000E+00
                           8-    10 P  
                                         1.256E-01 0.000E+00 1.000E+00 0.000E+00
                          11-    15 D  
                                         8.880E-01 0.000E+00 0.000E+00 1.000E+00
   2 B  -11.221   4.398  -3.020
   3 B   -3.777  -2.149   9.067
   4 B   -0.057   4.400  -2.991
   5 B    3.839   2.131  -2.967
   6 B    3.846   6.658  -3.003
   7 H   -8.026   0.345  -2.997
                                 91 S  
                                         1.874E+01 1.968E-02 0.000E+00 0.000E+00
                                         2.826E+00 1.380E-01 0.000E+00 0.000E+00
                                         6.401E-01 4.783E-01 0.000E+00 0.000E+00
                                 92 S  
                                         1.756E-01 1.000E+00 0.000E+00 0.000E+00
   8 H   -3.249   8.438  -3.067
   9 H    3.331  -0.367   9.028
  10 H   -3.249   0.345  -2.999
  11 H    3.247  -2.399  -9.046
  12 H   10.030  -3.000   2.991
  13 H    7.614  -7.109   2.999
  14 H    5.658   1.713  -9.058
  15 H    8.916   1.375  -3.037
  16 H    4.314  -6.812  -2.987
  17 H    1.922  -2.701  -2.990
  18 H   -1.894   2.672   9.064
  19 C   -8.290   4.392  -3.022
                                115 S  
                                         3.624E+03 1.634E-03 0.000E+00 0.000E+00
                                         5.440E+02 1.252E-02 0.000E+00 0.000E+00
                                         1.237E+02 6.211E-02 0.000E+00 0.000E+00
                                         3.476E+01 2.182E-01 0.000E+00 0.000E+00
                                         1.093E+01 4.980E-01 0.000E+00 0.000E+00
                                116 S  
                                         3.574E+00 1.000E+00 0.000E+00 0.000E+00
                                117 S  
                                         7.742E-01 1.000E+00 0.000E+00 0.000E+00
                                118 S  
                                         2.330E-01 1.000E+00 0.000E+00 0.000E+00
                         119-   121 P  
                                         9.443E+00 0.000E+00 3.790E-02 0.000E+00
                                         2.002E+00 0.000E+00 2.082E-01 0.000E+00
                                         5.463E-01 0.000E+00 5.047E-01 0.000E+00
                         122-   124 P  
                                         1.820E-01 0.000E+00 1.000E+00 0.000E+00
                         125-   129 D  
                                         8.880E-01 0.000E+00 0.000E+00 1.000E+00
  20 C   -6.951   2.105  -3.011
  21 C   -4.321   6.678  -3.050
  22 C   -6.950   6.677  -3.048
  23 C   -4.321   2.107  -3.015
  24 C   -2.982   4.393  -3.028
  25 C   -0.384  -0.600  -9.060
  26 C    2.266  -0.585  -9.058
  27 C   11.007  -4.817   3.006
  28 C    9.678  -7.088   3.012
  29 C    3.595   1.684  -9.067
  30 C   -5.234  -9.207   9.067
  31 C    5.284  -0.420  -3.024
  32 C    7.934  -0.439  -3.028
  33 C    5.309  -5.005  -3.000
  34 C    3.985  -2.731  -3.004
  35 C    9.256  -2.713  -3.022
  36 C    7.960  -5.026  -3.014
  37 O   -5.071  -4.411   9.069
                                385 S  
                                         6.773E+03 1.727E-03 0.000E+00 0.000E+00
                                         1.017E+03 1.325E-02 0.000E+00 0.000E+00
                                         2.313E+02 6.603E-02 0.000E+00 0.000E+00
                                         6.501E+01 2.353E-01 0.000E+00 0.000E+00
                                         2.050E+01 5.498E-01 0.000E+00 0.000E+00
                                386 S  
                                         6.716E+00 1.000E+00 0.000E+00 0.000E+00
                                387 S  
                                         1.147E+00 1.000E+00 0.000E+00 0.000E+00
                                388 S  
                                         3.342E-01 1.000E+00 0.000E+00 0.000E+00
                         389-   391 P  
                                         1.769E+01 0.000E+00 4.359E-02 0.000E+00
                                         3.854E+00 0.000E+00 2.318E-01 0.000E+00
                                         1.047E+00 0.000E+00 5.146E-01 0.000E+00
                         392-   394 P  
                                         2.759E-01 0.000E+00 1.000E+00 0.000E+00
                         395-   399 D  
                                         8.000E-01 0.000E+00 0.000E+00 1.000E+00
  38 O    6.374   6.538  -9.056
  39 O   -1.170  -2.147   9.060
  40 O    1.241   6.658  -3.007
  41 O    1.235   2.140  -2.962
  42 O    5.143   4.393  -2.992

 *******************************************************************************
 FINISHED BASIS SET HANDLING 
 *******************************************************************************

 INFORMATION **** SET_MPP **** PCRYSTAL CALCULATION
 INFORMATION **** READM2 **** NEW DEFAULT: FOCK/KS MATRIX MIXING SET TO 30 %
 INFORMATION **** READM2 **** NEW DEFAULT: FULL DIRECT SCF MODE
 INFORMATION **** READM2 **** NEW DEFAULT: COULOMB BIPOLAR BUFFER SET TO 32 Mb
 INFORMATION **** READM2 **** NEW DEFAULT: EXCHANGE BIPOLAR BUFFER SET TO 32 Mb

 *******************************************************************************
 NEW DEFAULT: DFT INTEGRATION GRID INCREASED TO XLGRID
 NEW DEFAULT: DIIS ACCELERATOR ACTIVE
 USE KEYWORD NODIIS TO TURN IT OFF
 *******************************************************************************

 WARNING **** RDDFTP **** HSEsol-HJS ACTIVE
 RANGE SEPARATION - OMEGA:   0.110000000000000     
 WARNING **** RDDFTP **** HSEsol-3c has to be combined with sol-def2-mSVP basis set
 *******************************************************************************
 N. OF ATOMS PER CELL        42  COULOMB OVERLAP TOL         (T1) 10**   -6
 NUMBER OF SHELLS           234  COULOMB PENETRATION TOL     (T2) 10**   -6
 NUMBER OF AO               474  EXCHANGE OVERLAP TOL        (T3) 10**   -6
 N. OF ELECTRONS PER CELL   198  EXCHANGE PSEUDO OVP (F(G))  (T4) 10**   -6
 CORE ELECTRONS PER CELL     60  EXCHANGE PSEUDO OVP (P(G))  (T5) 10**  -12
 N. OF SYMMETRY OPERATORS     1  POLE ORDER IN MONO ZONE                  4
 *******************************************************************************
 TYPE OF CALCULATION :  RESTRICTED CLOSED SHELL
 KOHN-SHAM HAMILTONIAN

 (EXCHANGE)[CORRELATION] FUNCTIONAL:(HSEsol GGA)[PBEsol]

 RANGE-SEPARATED HYBRID FUNCTIONAL 
 OMEGA (SHORT-RANGE)[LONG-RANGE]:(    0.1100)[    0.0000]

 HYBRID EXCHANGE - PERCENTAGE OF FOCK EXCHANGE    25.0000

 CAPPA:IS1  2;IS2  2;IS3  8; K PTS MONK NET  20; SYMMOPS:K SPACE   2;G SPACE   1

 *******************************************************************************
 MAX NUMBER OF SCF CYCLES      50  CONVERGENCE ON DELTAP        10**-16
 WEIGHT OF F(I) IN F(I+1)      30% CONVERGENCE ON ENERGY        10**- 6
 SHRINK. FACT.(MONKH.)    2  2  8  NUMBER OF K POINTS IN THE IBZ     20
 SHRINKING FACTOR(GILAT NET)    8  NUMBER OF K POINTS(GILAT NET)   1028
 *******************************************************************************
 *** K POINTS COORDINATES (OBLIQUE COORDINATES IN UNITS OF IS =  2)
   1-R(  0  0  0)   2-R(  1  0  0)   3-R(  0  1  0)   4-R(  1  1  0)
   5-C(  0  0  1)   6-C(  1  0  1)   7-C(  0  1  1)   8-C(  1  1  1)
   9-C(  0  0  2)  10-C(  1  0  2)  11-C(  0  1  2)  12-C(  1  1  2)
  13-C(  0  0  3)  14-C(  1  0  3)  15-C(  0  1  3)  16-C(  1  1  3)
  17-R(  0  0  4)  18-R(  1  0  4)  19-R(  0  1  4)  20-R(  1  1  4)

 DIRECT LATTICE VECTORS COMPON. (A.U.)     RECIP. LATTICE VECTORS COMPON. (A.U.) 
        X            Y            Z              X            Y            Z
   24.5689761  -14.2152832    0.0000000      0.2557366    0.0000000   -0.2401062
    0.0000000   28.4297713    0.0000000      0.1278719    0.2210072   -0.4786826
    5.6781621    9.8136976    6.0477974      0.0000000    0.0000000    1.0389213

 DISK SPACE FOR EIGENVECTORS (FTN 10)     7189632 REALS

 SYMMETRY ADAPTION OF THE BLOCH FUNCTIONS DISABLED
 TTTTTTTTTTTTTTTTTTTTTTTTTTTTTT gordsh1     TELAPSE        0.04 TCPU        0.04

 MATRIX SIZE: P(G)  370434, F(G)   71143, P(G) IRR  186462, F(G) IRR   71659
 MAX G-VECTOR INDEX FOR 1- AND 2-ELECTRON INTEGRALS  71

 TTTTTTTTTTTTTTTTTTTTTTTTTTTTTT INPUT       TELAPSE        0.42 TCPU        0.42

 NEIGHBORS OF THE NON-EQUIVALENT ATOMS

 N = NUMBER OF NEIGHBORS AT DISTANCE R
    ATOM  N     R/ANG      R/AU   NEIGHBORS (ATOM LABELS AND CELL INDICES)
   1 B    1     1.3787     2.6054   38 O    0 0 0
   1 B    1     1.3795     2.6068   37 O    1 2-3
   1 B    1     1.5517     2.9323   30 C    1 2-3
   1 B    1     2.3868     4.5104    2 B    1 1-1
   1 B    1     2.3912     4.5187    3 B    1 2-3
   1 B    1     2.5629     4.8431   27 C    0 1-2

   2 B    1     1.3792     2.6064   38 O   -1-1 1
   2 B    1     1.3798     2.6075   39 O    0 1-2
   2 B    1     1.5510     2.9309   19 C    0 0 0
   2 B    1     2.3868     4.5104    1 B   -1-1 1
   2 B    1     2.3894     4.5154    3 B    0 1-2
   2 B    1     2.5618     4.8411   22 C    0 0 0

   3 B    1     1.3790     2.6060   37 O    0 0 0
   3 B    1     1.3795     2.6069   39 O    0 0 0
   3 B    1     1.5529     2.9346   36 C   -1-1 2
   3 B    1     2.3894     4.5154    2 B    0-1 2
   3 B    1     2.3912     4.5187    1 B   -1-2 3
   3 B    1     2.5679     4.8526   35 C   -1-1 2

   4 B    1     1.3778     2.6037   41 O    0 0 0
   4 B    1     1.3785     2.6051   40 O    0 0 0
   4 B    1     1.5479     2.9251   24 C    0 0 0
   4 B    1     2.3857     4.5084    5 B    0 0 0
   4 B    1     2.3859     4.5087    6 B    0 0 0
   4 B    1     2.5584     4.8347   21 C    0 0 0

   5 B    1     1.3778     2.6037   41 O    0 0 0
   5 B    1     1.3813     2.6103   42 O    0 0 0
   5 B    1     1.5523     2.9334   31 C    0 0 0
   5 B    1     2.3857     4.5084    4 B    0 0 0
   5 B    1     2.3952     4.5262    6 B    0 0 0
   5 B    1     2.5590     4.8358   32 C    0 0 0

   6 B    1     1.3783     2.6045   40 O    0 0 0
   6 B    1     1.3812     2.6101   42 O    0 0 0
   6 B    1     1.5546     2.9377   25 C    0 0 1
   6 B    1     2.3859     4.5087    4 B    0 0 0
   6 B    1     2.3952     4.5262    5 B    0 0 0
   6 B    1     2.5605     4.8386   26 C    0 0 1

   7 H    1     1.0917     2.0629   20 C    0 0 0
   7 H    1     2.1461     4.0556   19 C    0 0 0
   7 H    1     2.1712     4.1029   23 C    0 0 0
   7 H    1     2.5280     4.7772   10 H    0 0 0
   7 H    1     2.5583     4.8346   38 O   -1-1 1
   7 H    1     2.7310     5.1608    2 B    0 0 0

   8 H    1     1.0909     2.0615   21 C    0 0 0
   8 H    1     2.1454     4.0542   24 C    0 0 0
   8 H    1     2.1688     4.0985   22 C    0 0 0
   8 H    1     2.5272     4.7758    9 H    0 1-2
   8 H    1     2.5561     4.8304   40 O    0 0 0
   8 H    1     2.7242     5.1480    4 B    0 0 0

   9 H    1     1.0908     2.0614   22 C    0-1 2
   9 H    1     2.1442     4.0520   19 C    0-1 2
   9 H    1     2.1694     4.0995   21 C    0-1 2
   9 H    1     2.5272     4.7758    8 H    0-1 2
   9 H    1     2.5615     4.8406   39 O    0 0 0
   9 H    1     2.7248     5.1491    2 B    0-1 2

  10 H    1     1.0912     2.0621   23 C    0 0 0
  10 H    1     2.1469     4.0570   24 C    0 0 0
  10 H    1     2.1689     4.0986   20 C    0 0 0
  10 H    1     2.5280     4.7772    7 H    0 0 0
  10 H    1     2.5562     4.8305   41 O    0 0 0
  10 H    1     2.7309     5.1607    4 B    0 0 0

  11 H    1     1.0911     2.0619   26 C    0 0 0
  11 H    1     2.1443     4.0521   25 C    0 0 0
  11 H    1     2.1684     4.0977   29 C    0 0 0
  11 H    1     2.5222     4.7664   14 H    0 0 0
  11 H    1     2.5622     4.8419   42 O    0 0-1
  11 H    1     2.7179     5.1361    6 B    0 0-1

  12 H    1     1.0917     2.0630   27 C    0 0 0
  12 H    1     2.1441     4.0518   30 C    1 1-1
  12 H    1     2.1716     4.1037   28 C    0 0 0
  12 H    1     2.5226     4.7669   13 H    0 0 0
  12 H    1     2.5541     4.8265   37 O    1 1-1
  12 H    1     2.7237     5.1470    1 B    0-1 2

  13 H    1     1.0919     2.0633   28 C    0 0 0
  13 H    1     2.1522     4.0670   25 C    0-1 2
  13 H    1     2.1668     4.0946   27 C    0 0 0
  13 H    1     2.5226     4.7669   12 H    0 0 0
  13 H    1     2.5923     4.8986   40 O    0-1 1
  13 H    1     2.7582     5.2123    6 B    0-1 1

  14 H    1     1.0915     2.0627   29 C    0 0 0
  14 H    1     2.1483     4.0597   30 C    1 2-3
  14 H    1     2.1679     4.0968   26 C    0 0 0
  14 H    1     2.5222     4.7664   11 H    0 0 0
  14 H    1     2.5809     4.8771   38 O    0 0 0
  14 H    1     2.7404     5.1785    1 B    0 0 0

  15 H    1     1.0916     2.0628   32 C    0 0 0
  15 H    1     2.1436     4.0508   31 C    0 0 0
  15 H    1     2.1707     4.1021   35 C    0 0 0
  15 H    1     2.5217     4.7654   18 H    1 1-2
  15 H    1     2.5567     4.8315   42 O    0 0 0
  15 H    1     2.7164     5.1333    5 B    0 0 0

  16 H    1     1.0914     2.0624   33 C    0 0 0
  16 H    1     2.1487     4.0605   36 C    0 0 0
  16 H    1     2.1663     4.0937   34 C    0 0 0
  16 H    1     2.5170     4.7564   17 H    0 0 0
  16 H    1     2.5779     4.8716   37 O    1 1-2
  16 H    1     2.7395     5.1769    3 B    1 1-2

  17 H    1     1.0921     2.0638   34 C    0 0 0
  17 H    1     2.1502     4.0632   31 C    0 0 0
  17 H    1     2.1683     4.0976   33 C    0 0 0
  17 H    1     2.5170     4.7564   16 H    0 0 0
  17 H    1     2.5870     4.8888   41 O    0 0 0
  17 H    1     2.7510     5.1986    5 B    0 0 0

  18 H    1     1.0913     2.0622   35 C   -1-1 2
  18 H    1     2.1495     4.0619   36 C   -1-1 2
  18 H    1     2.1656     4.0923   32 C   -1-1 2
  18 H    1     2.5217     4.7654   15 H   -1-1 2
  18 H    1     2.5789     4.8734   39 O    0 0 0
  18 H    1     2.7392     5.1763    3 B    0 0 0

  19 C    1     1.4017     2.6488   22 C    0 0 0
  19 C    1     1.4025     2.6504   20 C    0 0 0
  19 C    1     1.5510     2.9309    2 B    0 0 0
  19 C    1     2.1442     4.0520    9 H    0 1-2
  19 C    1     2.1461     4.0556    7 H    0 0 0
  19 C    1     2.4236     4.5800   21 C    0 0 0

  20 C    1     1.0917     2.0629    7 H    0 0 0
  20 C    1     1.3915     2.6296   23 C    0 0 0
  20 C    1     1.4025     2.6504   19 C    0 0 0
  20 C    1     2.1689     4.0986   10 H    0 0 0
  20 C    1     2.4191     4.5714   22 C    0 0 0
  20 C    1     2.4241     4.5809   24 C    0 0 0

  21 C    1     1.0909     2.0615    8 H    0 0 0
  21 C    1     1.3909     2.6284   22 C    0 0 0
  21 C    1     1.4014     2.6483   24 C    0 0 0
  21 C    1     2.1694     4.0995    9 H    0 1-2
  21 C    1     2.4189     4.5710   23 C    0 0 0
  21 C    1     2.4236     4.5800   19 C    0 0 0

  22 C    1     1.0908     2.0614    9 H    0 1-2
  22 C    1     1.3909     2.6284   21 C    0 0 0
  22 C    1     1.4017     2.6488   19 C    0 0 0
  22 C    1     2.1688     4.0985    8 H    0 0 0
  22 C    1     2.4191     4.5714   20 C    0 0 0
  22 C    1     2.4226     4.5780   24 C    0 0 0

  23 C    1     1.0912     2.0621   10 H    0 0 0
  23 C    1     1.3915     2.6296   20 C    0 0 0
  23 C    1     1.4021     2.6496   24 C    0 0 0
  23 C    1     2.1712     4.1029    7 H    0 0 0
  23 C    1     2.4189     4.5710   21 C    0 0 0
  23 C    1     2.4237     4.5802   19 C    0 0 0

  24 C    1     1.4014     2.6483   21 C    0 0 0
  24 C    1     1.4021     2.6496   23 C    0 0 0
  24 C    1     1.5479     2.9251    4 B    0 0 0
  24 C    1     2.1454     4.0542    8 H    0 0 0
  24 C    1     2.1469     4.0570   10 H    0 0 0
  24 C    1     2.4226     4.5780   22 C    0 0 0

  25 C    1     1.4025     2.6504   26 C    0 0 0
  25 C    1     1.4037     2.6525   28 C    0 1-2
  25 C    1     1.5546     2.9377    6 B    0 0-1
  25 C    1     2.1443     4.0521   11 H    0 0 0
  25 C    1     2.1522     4.0670   13 H    0 1-2
  25 C    1     2.4271     4.5865   27 C    0 1-2

  26 C    1     1.0911     2.0619   11 H    0 0 0
  26 C    1     1.3916     2.6298   29 C    0 0 0
  26 C    1     1.4025     2.6504   25 C    0 0 0
  26 C    1     2.1679     4.0968   14 H    0 0 0
  26 C    1     2.4165     4.5665   28 C    0 1-2
  26 C    1     2.4246     4.5818   30 C    1 2-3

  27 C    1     1.0917     2.0630   12 H    0 0 0
  27 C    1     1.3928     2.6320   28 C    0 0 0
  27 C    1     1.4024     2.6501   30 C    1 1-1
  27 C    1     2.1668     4.0946   13 H    0 0 0
  27 C    1     2.4166     4.5668   29 C    0-1 2
  27 C    1     2.4271     4.5865   25 C    0-1 2

  28 C    1     1.0919     2.0633   13 H    0 0 0
  28 C    1     1.3928     2.6320   27 C    0 0 0
  28 C    1     1.4037     2.6525   25 C    0-1 2
  28 C    1     2.1716     4.1037   12 H    0 0 0
  28 C    1     2.4165     4.5665   26 C    0-1 2
  28 C    1     2.4277     4.5877   30 C    1 1-1

  29 C    1     1.0915     2.0627   14 H    0 0 0
  29 C    1     1.3916     2.6298   26 C    0 0 0
  29 C    1     1.4023     2.6499   30 C    1 2-3
  29 C    1     2.1684     4.0977   11 H    0 0 0
  29 C    1     2.4166     4.5668   27 C    0 1-2
  29 C    1     2.4281     4.5884   25 C    0 0 0

  30 C    1     1.4023     2.6499   29 C   -1-2 3
  30 C    1     1.4024     2.6501   27 C   -1-1 1
  30 C    1     1.5517     2.9323    1 B   -1-2 3
  30 C    1     2.1441     4.0518   12 H   -1-1 1
  30 C    1     2.1483     4.0597   14 H   -1-2 3
  30 C    1     2.4246     4.5818   26 C   -1-2 3

  31 C    1     1.4022     2.6498   32 C    0 0 0
  31 C    1     1.4030     2.6512   34 C    0 0 0
  31 C    1     1.5523     2.9334    5 B    0 0 0
  31 C    1     2.1436     4.0508   15 H    0 0 0
  31 C    1     2.1502     4.0632   17 H    0 0 0
  31 C    1     2.4264     4.5853   33 C    0 0 0

  32 C    1     1.0916     2.0628   15 H    0 0 0
  32 C    1     1.3918     2.6301   35 C    0 0 0
  32 C    1     1.4022     2.6498   31 C    0 0 0
  32 C    1     2.1656     4.0923   18 H    1 1-2
  32 C    1     2.4163     4.5661   34 C    0 0 0
  32 C    1     2.4270     4.5863   36 C    0 0 0

  33 C    1     1.0914     2.0624   16 H    0 0 0
  33 C    1     1.3927     2.6318   34 C    0 0 0
  33 C    1     1.4029     2.6510   36 C    0 0 0
  33 C    1     2.1683     4.0976   17 H    0 0 0
  33 C    1     2.4155     4.5645   35 C    0 0 0
  33 C    1     2.4264     4.5853   31 C    0 0 0

  34 C    1     1.0921     2.0638   17 H    0 0 0
  34 C    1     1.3927     2.6318   33 C    0 0 0
  34 C    1     1.4030     2.6512   31 C    0 0 0
  34 C    1     2.1663     4.0937   16 H    0 0 0
  34 C    1     2.4163     4.5661   32 C    0 0 0
  34 C    1     2.4289     4.5899   36 C    0 0 0

  35 C    1     1.0913     2.0622   18 H    1 1-2
  35 C    1     1.3918     2.6301   32 C    0 0 0
  35 C    1     1.4029     2.6511   36 C    0 0 0
  35 C    1     2.1707     4.1021   15 H    0 0 0
  35 C    1     2.4155     4.5645   33 C    0 0 0
  35 C    1     2.4269     4.5861   31 C    0 0 0

  36 C    1     1.4029     2.6510   33 C    0 0 0
  36 C    1     1.4029     2.6511   35 C    0 0 0
  36 C    1     1.5529     2.9346    3 B    1 1-2
  36 C    1     2.1487     4.0605   16 H    0 0 0
  36 C    1     2.1495     4.0619   18 H    1 1-2
  36 C    1     2.4270     4.5863   32 C    0 0 0

  37 O    1     1.3790     2.6060    3 B    0 0 0
  37 O    1     1.3795     2.6068    1 B   -1-2 3
  37 O    1     2.3868     4.5105   39 O    0 0 0
  37 O    1     2.3885     4.5136   38 O   -1-2 3
  37 O    1     2.5389     4.7979   30 C    0 0 0
  37 O    1     2.5412     4.8021   36 C   -1-1 2

  38 O    1     1.3787     2.6054    1 B    0 0 0
  38 O    1     1.3792     2.6064    2 B    1 1-1
  38 O    1     2.3885     4.5136   37 O    1 2-3
  38 O    1     2.3912     4.5187   39 O    1 2-3
  38 O    1     2.5351     4.7906   19 C    1 1-1
  38 O    1     2.5405     4.8008   30 C    1 2-3

  39 O    1     1.3795     2.6069    3 B    0 0 0
  39 O    1     1.3798     2.6075    2 B    0-1 2
  39 O    1     2.3868     4.5105   37 O    0 0 0
  39 O    1     2.3912     4.5187   38 O   -1-2 3
  39 O    1     2.5416     4.8030   19 C    0-1 2
  39 O    1     2.5427     4.8050   36 C   -1-1 2

  40 O    1     1.3783     2.6045    6 B    0 0 0
  40 O    1     1.3785     2.6051    4 B    0 0 0
  40 O    1     2.3876     4.5119   42 O    0 0 0
  40 O    1     2.3913     4.5189   41 O    0 0 0
  40 O    1     2.5354     4.7912   25 C    0 0 1
  40 O    1     2.5360     4.7923   24 C    0 0 0

  41 O    1     1.3778     2.6037    4 B    0 0 0
  41 O    1     1.3778     2.6037    5 B    0 0 0
  41 O    1     2.3870     4.5107   42 O    0 0 0
  41 O    1     2.3913     4.5189   40 O    0 0 0
  41 O    1     2.5304     4.7818   24 C    0 0 0
  41 O    1     2.5353     4.7911   31 C    0 0 0

  42 O    1     1.3812     2.6101    6 B    0 0 0
  42 O    1     1.3813     2.6103    5 B    0 0 0
  42 O    1     2.3870     4.5107   41 O    0 0 0
  42 O    1     2.3876     4.5119   40 O    0 0 0
  42 O    1     2.5481     4.8152   31 C    0 0 0
  42 O    1     2.5522     4.8230   25 C    0 0 1


 SYMMETRY ALLOWED INTERNAL DEGREE(S) OF FREEDOM: 123
 TTTTTTTTTTTTTTTTTTTTTTTTTTTTTT SYMM        TELAPSE        0.42 TCPU        0.42
 TTTTTTTTTTTTTTTTTTTTTTTTTTTTTT INT_SCREEN  TELAPSE        0.46 TCPU        0.46

 DFT PARAMETERS

     ATOM       ELECTRONS   NET CHARGE   R(ANGSTROM)
   1   5  B       5.0000      0.0000     0.89000000
   7   1  H       1.0000      0.0000     1.11000000
  19   6  C       6.0000      0.0000     0.77000000
  37   8  O       8.0000      0.0000     0.74000000

 SIZE OF GRID=    1262002
 TTTTTTTTTTTTTTTTTTTTTTTTTTTTTT MAKE_GRID2  TELAPSE       10.92 TCPU       10.90
 BECKE WEIGHT FUNCTION
 RADSAFE =     2.00
 TOLERANCES - DENSITY:10**- 6; POTENTIAL:10**- 9; GRID WGT:10**-14

 RADIAL INTEGRATION  - INTERVALS (POINTS,UPPER LIMIT):            1( 75,  4.0*R)

 ANGULAR INTEGRATION - INTERVALS (ACCURACY LEVEL [N. POINTS] UPPER LIMIT):
  1(  4[  86]   0.2)  2(  8[ 194]   0.5)  3( 12[ 350]   0.9)  4( 16[ 974]   3.5)
  5( 12[ 350]9999.0)
 TTTTTTTTTTTTTTTTTTTTTTTTTTTTTT INT_CALC    TELAPSE       11.01 TCPU       10.99
 EEEEEEEEEE INT_CALC TERMINATION  DATE 02 12 2025 TIME 07:56:55.1

 *******************************************************************************
 COF-5_z32_inc_L060                                                              
 CRYSTAL - SCF - TYPE OF CALCULATION :  RESTRICTED CLOSED SHELL
 *******************************************************************************

 CAPPA:IS1  2;IS2  2;IS3  8; K PTS MONK NET  20; SYMMOPS:K SPACE   2;G SPACE   1

 TTTTTTTTTTTTTTTTTTTTTTTTTTTTTT SDIK        TELAPSE       11.74 TCPU       23.16

 AAAAAAAAAAAAAAAAAAAAAAAAAAAAAAAAAAAAAAAAAAAAAAAAAAAAAAAAAAAAAAAAAAAAAAAAAAAAAAA
         ATOMIC WAVEFUNCTION(S)


 NUCLEAR CHARGE  5.0  SYMMETRY SPECIES            S    P
 N. ELECTRONS    5.0  NUMBER OF PRIMITIVE GTOS    8    4
                      NUMBER OF CONTRACTED GTOS   4    2
                      NUMBER OF CLOSED SHELLS     2    0
                      OPEN SHELL OCCUPATION       0    1

  ZNUC  SCFIT    TOTAL HF ENERGY   KINETIC ENERGY   VIRIAL THEOREM ACCURACY
   5.0    11    -2.451164084E+01  2.462155050E+01 -1.995536038E+00  1.5E-06

 NUCLEAR CHARGE  1.0  SYMMETRY SPECIES            S
 N. ELECTRONS    1.0  NUMBER OF PRIMITIVE GTOS    4
                      NUMBER OF CONTRACTED GTOS   2
                      NUMBER OF CLOSED SHELLS     0
                      OPEN SHELL OCCUPATION       1

  ZNUC  SCFIT    TOTAL HF ENERGY   KINETIC ENERGY   VIRIAL THEOREM ACCURACY
   1.0     1    -4.977266687E-01  5.190767460E-01 -1.958869132E+00  0.0E+00

 NUCLEAR CHARGE  6.0  SYMMETRY SPECIES            S    P
 N. ELECTRONS    6.0  NUMBER OF PRIMITIVE GTOS    8    4
                      NUMBER OF CONTRACTED GTOS   4    2
                      NUMBER OF CLOSED SHELLS     2    0
                      OPEN SHELL OCCUPATION       0    2

  ZNUC  SCFIT    TOTAL HF ENERGY   KINETIC ENERGY   VIRIAL THEOREM ACCURACY
   6.0     9    -3.766704647E+01  3.775180683E+01 -1.997754800E+00  1.1E-06

 NUCLEAR CHARGE  8.0  SYMMETRY SPECIES            S    P
 N. ELECTRONS    8.0  NUMBER OF PRIMITIVE GTOS    8    4
                      NUMBER OF CONTRACTED GTOS   4    2
                      NUMBER OF CLOSED SHELLS     2    0
                      OPEN SHELL OCCUPATION       0    4

  ZNUC  SCFIT    TOTAL HF ENERGY   KINETIC ENERGY   VIRIAL THEOREM ACCURACY
   8.0    12    -7.477373220E+01  7.477365593E+01 -2.000001020E+00  3.8E-06

 AAAAAAAAAAAAAAAAAAAAAAAAAAAAAAAAAAAAAAAAAAAAAAAAAAAAAAAAAAAAAAAAAAAAAAAAAAAAAAA

 CHARGE NORMALIZATION FACTOR   1.00000000
 TOTAL ATOMIC CHARGES:
   5.0000000   5.0000000   5.0000000   5.0000000   5.0000000   5.0000000
   1.0000000   1.0000000   1.0000000   1.0000000   1.0000000   1.0000000
   1.0000000   1.0000000   1.0000000   1.0000000   1.0000000   1.0000000
   6.0000000   6.0000000   6.0000000   6.0000000   6.0000000   6.0000000
   6.0000000   6.0000000   6.0000000   6.0000000   6.0000000   6.0000000
   6.0000000   6.0000000   6.0000000   6.0000000   6.0000000   6.0000000
   8.0000000   8.0000000   8.0000000   8.0000000   8.0000000   8.0000000
 TTTTTTTTTTTTTTTTTTTTTTTTTTTTTT MOQGAD      TELAPSE       11.84 TCPU       26.18
 TTTTTTTTTTTTTTTTTTTTTTTTTTTTTT SHELLXN     TELAPSE       21.41 TCPU      331.81
 TTTTTTTTTTTTTTTTTTTTTTTTTTTTTT MONMO3      TELAPSE       21.58 TCPU      337.00
 NUMERICALLY INTEGRATED DENSITY    197.9999989885
 TTTTTTTTTTTTTTTTTTTTTTTTTTTTTT NUMDFT      TELAPSE       22.29 TCPU      359.67
 CYC   0 ETOT(AU) -1.295985800785E+03 DETOT -1.30E+03 tst  0.00E+00 PX  1.00E+00
 TTTTTTTTTTTTTTTTTTTTTTTTTTTTTT DIIS        TELAPSE       22.32 TCPU      360.89
 TTTTTTTTTTTTTTTTTTTTTTTTTTTTTT FDIK        TELAPSE       22.81 TCPU      376.46
 INSULATING STATE
 TOP OF VALENCE BANDS -    BAND     99; K    1; EIG -3.0229702E-01 AU
 BOTTOM OF VIRTUAL BANDS - BAND    100; K   17; EIG -1.6892826E-01 AU
 INDIRECT ENERGY BAND GAP:   3.6292 eV
 BOTTOM OF VIRTUAL BANDS - BAND    100; K    1; EIG -1.5801349E-01 AU
 TTTTTTTTTTTTTTTTTTTTTTTTTTTTTT PDIG        TELAPSE       23.15 TCPU      382.65
 CHARGE NORMALIZATION FACTOR   1.00000000
 TOTAL ATOMIC CHARGES:
   4.1401989   4.1584264   4.1594173   4.1610496   4.1584265   4.1384479
   0.7857127   0.7856824   0.7843759   0.7843548   0.7860190   0.7859728
   0.7868349   0.7864825   0.7854523   0.7860220   0.7845440   0.7847688
   6.0466034   6.2694447   6.2693898   6.2683892   6.2671585   6.0490687
   6.0434305   6.2596817   6.2574615   6.2604730   6.2600357   6.0467554
   6.0457812   6.2692693   6.2703499   6.2678704   6.2695177   6.0432088
   8.6992454   8.6986186   8.6994917   8.6982207   8.6978840   8.7004614
 TTTTTTTTTTTTTTTTTTTTTTTTTTTTTT MOQGAD      TELAPSE       23.20 TCPU      382.70
 TTTTTTTTTTTTTTTTTTTTTTTTTTTTTT SHELLXN     TELAPSE       33.13 TCPU      699.60
 TTTTTTTTTTTTTTTTTTTTTTTTTTTTTT MONMO3      TELAPSE       33.30 TCPU      704.78
 NUMERICALLY INTEGRATED DENSITY    197.9999877346
 TTTTTTTTTTTTTTTTTTTTTTTTTTTTTT NUMDFT      TELAPSE       34.02 TCPU      727.85
 CYC   1 ETOT(AU) -1.288826196307E+03 DETOT  7.16E+00 tst  0.00E+00 PX  1.00E+00
 TTTTTTTTTTTTTTTTTTTTTTTTTTTTTT DIIS        TELAPSE       34.07 TCPU      729.33
 DIIS TEST: 0.10951E+01 AT SCF   CYCLE   1 - MIX   30 %
 TTTTTTTTTTTTTTTTTTTTTTTTTTTTTT FDIK        TELAPSE       34.56 TCPU      745.12
 INSULATING STATE
 TOP OF VALENCE BANDS -    BAND     99; K    1; EIG -2.1479206E-01 AU
 BOTTOM OF VIRTUAL BANDS - BAND    100; K   17; EIG -9.6809801E-02 AU
 INDIRECT ENERGY BAND GAP:   3.2105 eV
 BOTTOM OF VIRTUAL BANDS - BAND    100; K    1; EIG -7.9605997E-02 AU
 TTTTTTTTTTTTTTTTTTTTTTTTTTTTTT PDIG        TELAPSE       34.90 TCPU      751.32
 CHARGE NORMALIZATION FACTOR   1.00000000
 TOTAL ATOMIC CHARGES:
   4.6950642   4.6903525   4.6907433   4.6912809   4.6909429   4.6942427
   0.9072499   0.9077187   0.9128248   0.9128904   0.8926063   0.8924848
   0.8929834   0.8934751   0.9067874   0.9072889   0.9127363   0.9125872
   5.8683902   6.1555435   6.1540070   6.1352108   6.1366976   5.8642482
   5.9165264   6.1283609   6.1284261   6.1343904   6.1302352   5.9097649
   5.8688395   6.1508869   6.1534894   6.1372351   6.1343728   5.8708529
   8.3404361   8.3395044   8.3293207   8.3383520   8.3265275   8.3441221
 TTTTTTTTTTTTTTTTTTTTTTTTTTTTTT MOQGAD      TELAPSE       34.95 TCPU      751.37
 TTTTTTTTTTTTTTTTTTTTTTTTTTTTTT SHELLXN     TELAPSE       44.89 TCPU     1068.53
 TTTTTTTTTTTTTTTTTTTTTTTTTTTTTT MONMO3      TELAPSE       45.05 TCPU     1073.71
 NUMERICALLY INTEGRATED DENSITY    197.9999861628
 TTTTTTTTTTTTTTTTTTTTTTTTTTTTTT NUMDFT      TELAPSE       45.78 TCPU     1096.73
 CYC   2 ETOT(AU) -1.289016940604E+03 DETOT -1.91E-01 tst  3.09E-03 PX  1.61E-01
 TTTTTTTTTTTTTTTTTTTTTTTTTTTTTT DIIS        TELAPSE       45.83 TCPU     1098.41
 DIIS TEST: 0.45617E+00 AT SCF   CYCLE   2 - DIIS ACTIVE - HISTORY:     2 CYCLES
 TTTTTTTTTTTTTTTTTTTTTTTTTTTTTT FDIK        TELAPSE       46.32 TCPU     1114.12
 INSULATING STATE
 TOP OF VALENCE BANDS -    BAND     99; K    1; EIG -2.2597802E-01 AU
 BOTTOM OF VIRTUAL BANDS - BAND    100; K   17; EIG -9.1138306E-02 AU
 INDIRECT ENERGY BAND GAP:   3.6692 eV
 BOTTOM OF VIRTUAL BANDS - BAND    100; K    1; EIG -7.6162252E-02 AU
 TTTTTTTTTTTTTTTTTTTTTTTTTTTTTT PDIG        TELAPSE       46.66 TCPU     1120.32
 CHARGE NORMALIZATION FACTOR   1.00000000
 TOTAL ATOMIC CHARGES:
   4.4766689   4.4924881   4.4926080   4.4944799   4.4926849   4.4752283
   0.8869954   0.8867862   0.8903511   0.8903886   0.8747930   0.8746179
   0.8759667   0.8755897   0.8856070   0.8868705   0.8905025   0.8900022
   5.8978560   6.1658012   6.1664426   6.1606954   6.1604933   5.8997007
   5.8973242   6.1650282   6.1657704   6.1684998   6.1682963   5.8995843
   5.8990399   6.1656886   6.1660252   6.1613417   6.1622764   5.8981338
   8.5155714   8.5150424   8.5194645   8.5144771   8.5171397   8.5176780
 TTTTTTTTTTTTTTTTTTTTTTTTTTTTTT MOQGAD      TELAPSE       46.71 TCPU     1120.37
 TTTTTTTTTTTTTTTTTTTTTTTTTTTTTT SHELLXN     TELAPSE       56.65 TCPU     1437.47
 TTTTTTTTTTTTTTTTTTTTTTTTTTTTTT MONMO3      TELAPSE       56.81 TCPU     1442.64
 NUMERICALLY INTEGRATED DENSITY    197.9999850102
 TTTTTTTTTTTTTTTTTTTTTTTTTTTTTT NUMDFT      TELAPSE       57.53 TCPU     1465.67
 CYC   3 ETOT(AU) -1.289110762056E+03 DETOT -9.38E-02 tst  7.89E-04 PX  6.74E-02
 TTTTTTTTTTTTTTTTTTTTTTTTTTTTTT DIIS        TELAPSE       57.59 TCPU     1467.51
 DIIS TEST: 0.14715E-01 AT SCF   CYCLE   3 - DIIS ACTIVE - HISTORY:     3 CYCLES
 TTTTTTTTTTTTTTTTTTTTTTTTTTTTTT FDIK        TELAPSE       58.08 TCPU     1483.27
 INSULATING STATE
 TOP OF VALENCE BANDS -    BAND     99; K    1; EIG -2.3654663E-01 AU
 BOTTOM OF VIRTUAL BANDS - BAND    100; K   17; EIG -9.9943963E-02 AU
 INDIRECT ENERGY BAND GAP:   3.7171 eV
 BOTTOM OF VIRTUAL BANDS - BAND    100; K    1; EIG -8.3519618E-02 AU
 TTTTTTTTTTTTTTTTTTTTTTTTTTTTTT PDIG        TELAPSE       58.43 TCPU     1489.47
 CHARGE NORMALIZATION FACTOR   1.00000000
 TOTAL ATOMIC CHARGES:
   4.4847668   4.4963380   4.4965442   4.4977686   4.4960261   4.4833042
   0.8690580   0.8694309   0.8735180   0.8736798   0.8575577   0.8577469
   0.8586582   0.8588202   0.8684308   0.8691618   0.8737870   0.8736058
   5.9402972   6.1808847   6.1793062   6.1679255   6.1680843   5.9378971
   5.9695405   6.1657730   6.1636904   6.1688294   6.1656361   5.9653063
   5.9398339   6.1781498   6.1801686   6.1689259   6.1674674   5.9401504
   8.4856193   8.4847449   8.4767512   8.4838904   8.4746412   8.4882831
 TTTTTTTTTTTTTTTTTTTTTTTTTTTTTT MOQGAD      TELAPSE       58.48 TCPU     1489.52
 TTTTTTTTTTTTTTTTTTTTTTTTTTTTTT SHELLXN     TELAPSE       68.41 TCPU     1806.33
 TTTTTTTTTTTTTTTTTTTTTTTTTTTTTT MONMO3      TELAPSE       68.57 TCPU     1811.51
 NUMERICALLY INTEGRATED DENSITY    197.9999856583
 TTTTTTTTTTTTTTTTTTTTTTTTTTTTTT NUMDFT      TELAPSE       69.29 TCPU     1834.49
 CYC   4 ETOT(AU) -1.289113911111E+03 DETOT -3.15E-03 tst  2.99E-05 PX  1.57E-02
 TTTTTTTTTTTTTTTTTTTTTTTTTTTTTT DIIS        TELAPSE       69.35 TCPU     1836.46
 DIIS TEST: 0.40703E-02 AT SCF   CYCLE   4 - DIIS ACTIVE - HISTORY:     4 CYCLES
 TTTTTTTTTTTTTTTTTTTTTTTTTTTTTT FDIK        TELAPSE       69.84 TCPU     1852.12
 INSULATING STATE
 TOP OF VALENCE BANDS -    BAND     99; K    1; EIG -2.3458677E-01 AU
 BOTTOM OF VIRTUAL BANDS - BAND    100; K   17; EIG -9.9577199E-02 AU
 INDIRECT ENERGY BAND GAP:   3.6738 eV
 BOTTOM OF VIRTUAL BANDS - BAND    100; K    1; EIG -8.3519537E-02 AU
 TTTTTTTTTTTTTTTTTTTTTTTTTTTTTT PDIG        TELAPSE       70.18 TCPU     1858.31
 CHARGE NORMALIZATION FACTOR   1.00000000
 TOTAL ATOMIC CHARGES:
   4.4884561   4.4979627   4.4982328   4.4997364   4.4982035   4.4870652
   0.8725257   0.8724538   0.8767011   0.8767624   0.8603319   0.8601528
   0.8613544   0.8611776   0.8714393   0.8725413   0.8769301   0.8765437
   5.9241655   6.1775205   6.1777267   6.1676282   6.1675918   5.9247775
   5.9417953   6.1672191   6.1677020   6.1708759   6.1696672   5.9421860
   5.9251234   6.1764661   6.1771806   6.1681503   6.1683448   5.9248382
   8.4930235   8.4923050   8.4912150   8.4916560   8.4888787   8.4953917
 TTTTTTTTTTTTTTTTTTTTTTTTTTTTTT MOQGAD      TELAPSE       70.23 TCPU     1858.36
 TTTTTTTTTTTTTTTTTTTTTTTTTTTTTT SHELLXN     TELAPSE       80.16 TCPU     2175.17
 TTTTTTTTTTTTTTTTTTTTTTTTTTTTTT MONMO3      TELAPSE       80.32 TCPU     2180.35
 NUMERICALLY INTEGRATED DENSITY    197.9999855408
 TTTTTTTTTTTTTTTTTTTTTTTTTTTTTT NUMDFT      TELAPSE       81.04 TCPU     2203.33
 CYC   5 ETOT(AU) -1.289114843332E+03 DETOT -9.32E-04 tst  5.49E-06 PX  7.35E-03
 TTTTTTTTTTTTTTTTTTTTTTTTTTTTTT DIIS        TELAPSE       81.11 TCPU     2205.59
 DIIS TEST: 0.64932E-04 AT SCF   CYCLE   5 - DIIS ACTIVE - HISTORY:     5 CYCLES
 TTTTTTTTTTTTTTTTTTTTTTTTTTTTTT FDIK        TELAPSE       81.60 TCPU     2221.35
 INSULATING STATE
 TOP OF VALENCE BANDS -    BAND     99; K    1; EIG -2.3440027E-01 AU
 BOTTOM OF VIRTUAL BANDS - BAND    100; K   17; EIG -9.9034522E-02 AU
 INDIRECT ENERGY BAND GAP:   3.6835 eV
 BOTTOM OF VIRTUAL BANDS - BAND    100; K    1; EIG -8.3166509E-02 AU
 TTTTTTTTTTTTTTTTTTTTTTTTTTTTTT PDIG        TELAPSE       81.95 TCPU     2227.55
 CHARGE NORMALIZATION FACTOR   1.00000000
 TOTAL ATOMIC CHARGES:
   4.4869228   4.4986524   4.4988441   4.5001380   4.4985302   4.4854738
   0.8732075   0.8734861   0.8773635   0.8774967   0.8611637   0.8613384
   0.8622639   0.8622999   0.8724412   0.8732495   0.8775639   0.8773291
   5.9252948   6.1778865   6.1765691   6.1669620   6.1670881   5.9236582
   5.9429501   6.1679311   6.1659951   6.1709381   6.1685122   5.9399029
   5.9250021   6.1755911   6.1773660   6.1681416   6.1670295   5.9249930
   8.4937479   8.4930480   8.4886271   8.4921912   8.4865050   8.4963045
 TTTTTTTTTTTTTTTTTTTTTTTTTTTTTT MOQGAD      TELAPSE       82.00 TCPU     2227.60
 TTTTTTTTTTTTTTTTTTTTTTTTTTTTTT SHELLXN     TELAPSE       91.93 TCPU     2544.60
 TTTTTTTTTTTTTTTTTTTTTTTTTTTTTT MONMO3      TELAPSE       92.09 TCPU     2549.78
 NUMERICALLY INTEGRATED DENSITY    197.9999855025
 TTTTTTTTTTTTTTTTTTTTTTTTTTTTTT NUMDFT      TELAPSE       92.81 TCPU     2572.81
 CYC   6 ETOT(AU) -1.289114858145E+03 DETOT -1.48E-05 tst  1.08E-07 PX  1.29E-03
 TTTTTTTTTTTTTTTTTTTTTTTTTTTTTT DIIS        TELAPSE       92.89 TCPU     2575.13
 DIIS TEST: 0.15109E-04 AT SCF   CYCLE   6 - DIIS ACTIVE - HISTORY:     6 CYCLES
 TTTTTTTTTTTTTTTTTTTTTTTTTTTTTT FDIK        TELAPSE       93.38 TCPU     2590.87
 INSULATING STATE
 TOP OF VALENCE BANDS -    BAND     99; K    1; EIG -2.3441901E-01 AU
 BOTTOM OF VIRTUAL BANDS - BAND    100; K   17; EIG -9.9126129E-02 AU
 INDIRECT ENERGY BAND GAP:   3.6815 eV
 BOTTOM OF VIRTUAL BANDS - BAND    100; K    1; EIG -8.3169764E-02 AU
 TTTTTTTTTTTTTTTTTTTTTTTTTTTTTT PDIG        TELAPSE       93.72 TCPU     2597.07
 CHARGE NORMALIZATION FACTOR   1.00000000
 TOTAL ATOMIC CHARGES:
   4.4876259   4.4983277   4.4985823   4.5000621   4.4984513   4.4862048
   0.8733305   0.8733333   0.8774304   0.8775105   0.8611898   0.8610686
   0.8622132   0.8621093   0.8723102   0.8733515   0.8776671   0.8772977
   5.9243348   6.1770688   6.1769936   6.1670301   6.1670236   5.9244839
   5.9423502   6.1667050   6.1668245   6.1703681   6.1687119   5.9419389
   5.9250024   6.1757704   6.1767352   6.1676271   6.1676160   5.9248779
   8.4931182   8.4923386   8.4900575   8.4916893   8.4877642   8.4955037
 TTTTTTTTTTTTTTTTTTTTTTTTTTTTTT MOQGAD      TELAPSE       93.77 TCPU     2597.12
 TTTTTTTTTTTTTTTTTTTTTTTTTTTTTT SHELLXN     TELAPSE      103.70 TCPU     2913.92
 TTTTTTTTTTTTTTTTTTTTTTTTTTTTTT MONMO3      TELAPSE      103.86 TCPU     2919.10
 NUMERICALLY INTEGRATED DENSITY    197.9999855148
 TTTTTTTTTTTTTTTTTTTTTTTTTTTTTT NUMDFT      TELAPSE      104.58 TCPU     2942.09
 CYC   7 ETOT(AU) -1.289114861320E+03 DETOT -3.18E-06 tst  4.67E-08 PX  5.15E-04
 TTTTTTTTTTTTTTTTTTTTTTTTTTTTTT DIIS        TELAPSE      104.66 TCPU     2944.59
 DIIS TEST: 0.13171E-05 AT SCF   CYCLE   7 - DIIS ACTIVE - HISTORY:     7 CYCLES
 TTTTTTTTTTTTTTTTTTTTTTTTTTTTTT FDIK        TELAPSE      105.15 TCPU     2960.36
 INSULATING STATE
 TOP OF VALENCE BANDS -    BAND     99; K    1; EIG -2.3442313E-01 AU
 BOTTOM OF VIRTUAL BANDS - BAND    100; K   17; EIG -9.9151362E-02 AU
 INDIRECT ENERGY BAND GAP:   3.6809 eV
 BOTTOM OF VIRTUAL BANDS - BAND    100; K    1; EIG -8.3184586E-02 AU
 TTTTTTTTTTTTTTTTTTTTTTTTTTTTTT PDIG        TELAPSE      105.49 TCPU     2966.55
 CHARGE NORMALIZATION FACTOR   1.00000000
 TOTAL ATOMIC CHARGES:
   4.4877044   4.4984091   4.4986343   4.5000449   4.4984584   4.4862822
   0.8732465   0.8733460   0.8773991   0.8774980   0.8610979   0.8610995
   0.8621733   0.8620880   0.8723132   0.8732766   0.8776152   0.8773056
   5.9246360   6.1773861   6.1768408   6.1669660   6.1669986   5.9241267
   5.9426311   6.1671659   6.1664182   6.1704280   6.1687092   5.9413706
   5.9250176   6.1757332   6.1769398   6.1678093   6.1673440   5.9248007
   8.4932209   8.4925325   8.4898502   8.4917627   8.4876165   8.4957030
 TTTTTTTTTTTTTTTTTTTTTTTTTTTTTT MOQGAD      TELAPSE      105.54 TCPU     2966.60
 TTTTTTTTTTTTTTTTTTTTTTTTTTTTTT SHELLXN     TELAPSE      115.47 TCPU     3283.45
 TTTTTTTTTTTTTTTTTTTTTTTTTTTTTT MONMO3      TELAPSE      115.63 TCPU     3288.62
 NUMERICALLY INTEGRATED DENSITY    197.9999855136
 TTTTTTTTTTTTTTTTTTTTTTTTTTTTTT NUMDFT      TELAPSE      116.36 TCPU     3311.66
 CYC   8 ETOT(AU) -1.289114861506E+03 DETOT -1.86E-07 tst  5.00E-09 PX  1.35E-04
 TTTTTTTTTTTTTTTTTTTTTTTTTTTTTT DIIS        TELAPSE      116.44 TCPU     3314.36
 DIIS TEST: 0.11731E-06 AT SCF   CYCLE   8 - DIIS ACTIVE - HISTORY:     8 CYCLES
 TTTTTTTTTTTTTTTTTTTTTTTTTTTTTT FDIK        TELAPSE      116.94 TCPU     3330.18
 INSULATING STATE
 TOP OF VALENCE BANDS -    BAND     99; K    1; EIG -2.3442609E-01 AU
 BOTTOM OF VIRTUAL BANDS - BAND    100; K   17; EIG -9.9142550E-02 AU
 INDIRECT ENERGY BAND GAP:   3.6813 eV
 BOTTOM OF VIRTUAL BANDS - BAND    100; K    1; EIG -8.3185709E-02 AU
 TTTTTTTTTTTTTTTTTTTTTTTTTTTTTT PDIG        TELAPSE      117.28 TCPU     3336.38
 CHARGE NORMALIZATION FACTOR   1.00000000
 TOTAL ATOMIC CHARGES:
   4.4876370   4.4984077   4.4986462   4.5000739   4.4984726   4.4862124
   0.8732552   0.8733284   0.8773917   0.8774828   0.8611212   0.8610740
   0.8621632   0.8620962   0.8722998   0.8732806   0.8776175   0.8772818
   5.9245477   6.1772994   6.1769079   6.1669901   6.1670278   5.9242612
   5.9424741   6.1670309   6.1666357   6.1705392   6.1686759   5.9413974
   5.9249691   6.1757411   6.1769197   6.1677444   6.1674548   5.9248930
   8.4932747   8.4925162   8.4897966   8.4918169   8.4875456   8.4956983
 TTTTTTTTTTTTTTTTTTTTTTTTTTTTTT MOQGAD      TELAPSE      117.33 TCPU     3336.43
 TTTTTTTTTTTTTTTTTTTTTTTTTTTTTT SHELLXN     TELAPSE      127.27 TCPU     3653.49
 +++ ENERGIES IN A.U. +++
 ::: EXT EL-POLE                                  -1.6153762108654E+03
 ::: EXT EL-SPHEROPOLE                             1.7894820825980E+01
 ::: BIELET ZONE E-E                               2.2576865931332E+03
 ::: TOTAL E-E                                     6.6020520309380E+02
 ::: TOTAL E-N + N-E                              -3.1430357175581E+03
 ::: TOTAL N-N                                     4.7491170363438E+01
 ::: KINETIC ENERGY                                1.2799516264782E+03
 ::: PSEUDO TOTAL   ENERGY                        -1.1553877176227E+03
 ::: VIRIAL COEFFICIENT                            1.0511484812814E+00
 TTTTTTTTTTTTTTTTTTTTTTTTTTTTTT MONMO3      TELAPSE      127.43 TCPU     3658.67
 NUMERICALLY INTEGRATED DENSITY    197.9999855127
 EXCHANGE ENERGY: -0.126022356268E+03  CORRELATION ENERGY: -0.770478764553E+01
 TTTTTTTTTTTTTTTTTTTTTTTTTTTTTT NUMDFT      TELAPSE      128.15 TCPU     3681.68
 CYC   9 ETOT(AU) -1.289114861537E+03 DETOT -3.02E-08 tst  7.00E-10 PX  1.35E-04

 == SCF ENDED - CONVERGENCE ON ENERGY      E(AU) -1.2891148615366E+03 CYCLES   9


 ENERGY EXPRESSION=HARTREE+FOCK EXCH*0.00000+(HSESOL     EXCH)*1.00000+PBESOL     CORR


 TOTAL ENERGY(DFT)(AU)(  9) -1.2891148615366E+03 DE-3.0E-08 tester 7.0E-10
 TTTTTTTTTTTTTTTTTTTTTTTTTTTTTT EDFT        TELAPSE      128.15 TCPU     3681.69
 
 INFORMATION **** DFTD3 ENERGY **** CALCULATE DFTD3 ENERGY

           DFT-D V3(BJ)
 DF                                         hsesol3c  
 parameters
 s6       :    1.0000
 s8       :    0.0000
 a1       :    0.5196
 a2       :    4.9385
 k1 k3    :   16.0000   -4.0000
 Cutoff   :   50.2022
 CN-Cutoff:   21.1671
 ABC-Cutoff:   21.1671
 
 Edisp /kcal,au:   -28.8559 -0.04598487

 E6    /kcal :   -30.7440
 E8    /kcal :     0.0000
 E6(ABC) "   :   1.888026
 
 INFORMATION **** DFTD3 ENERGY **** NORMAL TERMINATION OF DFTD3 MODULE

 GCP ENERGY CALCULATION
  level        hsesol3c            basis:hsesol3c
  Nbf            474
  Atoms           42

  Parameters: 
  sigma     1.0000
  eta       1.4281
  alpha     0.2936
  beta      1.9467

  dmp_scal      4.0000
  dmp_exp       6.0000
 cutoffs: 
   distance [bohr] 60.0
   noise    [a.u.] 2.2E-16
 SR-damping   T
 ** gCP correction **
  Egcp:        0.0841570591 / (a.u.) ||      52.8094 / (kcal/mol)
 INFORMATION **** GCP **** NORMAL TERMINATION OF GCP MODULE

 *******************************************************************************

 DFT-D3-GCP DISPERSION AND COUNTERPOISE CORRECTION

 D3 DISPERSION ENERGY (AU)      -4.5984874771220E-02
 GCP ENERGY (AU)                 8.4157059063265E-02
 TOTAL ENERGY + DISP + GCP (AU) -1.2890766893523E+03

 *******************************************************************************

 EIGENVECTORS IN FORTRAN UNIT 10
 TTTTTTTTTTTTTTTTTTTTTTTTTTTTTT END         TELAPSE      130.16 TCPU     3689.67
 EEEEEEEEEE TERMINATION  DATE 02 12 2025 TIME 07:58:54.3
