 Default number of threads is:           32

         
 *******************************************************************************
 *                                                                             *
 *                               CRYSTAL23                                     *
 *                      public : 1.0.1 - October 2022                          *
 *                       HTTP://WWW.CRYSTAL.UNITO.IT                           *
 *                                                                             *
 *                              MAIN AUTHORS                                   *
 *                                                                             *
 *  R. DOVESI(1,11), V.R. SAUNDERS(2), C. ROETTI(1,11), R. ORLANDO(1,11),      *
 *  C.M. ZICOVICH-WILSON(1,3), F. PASCALE(4), B. CIVALLERI(1,11),              *
 *  K. DOLL(5), N.M. HARRISON(6), I.J. BUSH(7), Ph. D'ARCO(8),                 *
 *  M. LLUNELL(9), M. CAUSA'(10), Y. NOEL(8), L. MASCHIO(1,11), A. ERBA(1,11)  *
 *  M. RE'RAT(14), S. CASASSA(1,11), B.G. SEARLE(2), J.K. DESMARAIS(1)         *
 *                                                                             *
 *        CONTRIBUTIONS TO THE CODE HAVE ALSO BEEN GIVEN BY                    *
 *                                                                             *
 *  M. FERRABONE(1,11), M. DE LA PIERRE(1,11), M. FERRERO(1,11),               *
 *  J. BAIMA(1,11), E. ALBANESE(1,11), M.F. PEINTINGER(12), R. BAST(13),       *
 *  B. KIRTMAN(15), V. LACIVITA(1,11), R. DEMICHELIS(1,16)                     *
 *  G. BRANDEBURG(17), S. SALUSTRO(1,11), G. SANSONE(1,11)                     *
 *  M.T. RUGGIERO(18), L.E. DAGA(1), L. DONA'(1), A. COSSARD(1)                *
 *                                                                             *
 * (1) THEORETICAL CHEMISTRY GROUP - UNIVERSITA' DI TORINO - TORINO (ITALY)    *
 * (2) SCIENTIFIC COMPUTING DEPARTMENT - STFC DARESBURY (UK)                   *
 * (3) UNIVERSIDAD AUTONOMA DEL ESTADO DE MORELOS - CUERNAVACA (MEXICO)        *
 * (4) UNIVERSITE' DE LORRAINE - NANCY (FRANCE)                                *
 * (5) UNIVERSITAET STUTTGART- STUTTGART (GERMANY)                             *
 * (6) IMPERIAL COLLEGE - LONDON (UK)                                          *
 * (7) SCIENTIFIC COMPUTING DEPARTMENT - STFC RAL (UK)                         *
 * (8) UPMC - SORBONNE UNIVERSITES - PARIS (FRANCE)                            *
 * (9) UNIVERSIDAD DE BARCELONA - BARCELONA (SPAIN)                            *
 *(10) UNIVERSITA' DI NAPOLI "FEDERICO II" - NAPOLI (ITALY)                    *
 *(11) NIS - NANOSTRUCTURED INTERFACES AND SURFACES - TORINO (ITALY)           *
 *(12) MPI FUER CHEMISCHE ENERGIEKONVERSION - MUELHEIM AN DER RUHR (GERMANY)   *
 *(13) UNIVERSITY OF TROMSO - TROMSO (NORWAY)                                  *
 *(14) UNIVERSITE' DE PAU ET DES PAYS DE L'ADOUR - PAU (FRANCE)                *
 *(15) UNIVERSITY OF CALIFORNIA SANTA BARBARA - SANTA BARBARA (USA)            *
 *(16) CURTIN UNIVERSITY - PERTH (AUSTRALIA)                                   *
 *(17) UNIVERSITY COLLEGE LONDON - LONDON (UK)                                 *
 *(18) UNIVERSITY OF VERMONT - BURLINGTON (USA)                                *
 *                                                                             *
 *******************************************************************************
 EEEEEEEEEE STARTING  DATE 19 02 2026 TIME 20:14:43.8
 cof-1_z36_L040_serr                                                             

 CRYSTAL CALCULATION
 (INPUT ACCORDING TO THE INTERNATIONAL TABLES FOR X-RAY CRYSTALLOGRAPHY)
 CRYSTAL FAMILY                       :  TRICLINIC   
 CRYSTAL CLASS  (GROTH - 1921)        :  TRICLINIC PEDIAL                     

 SPACE GROUP (NONCENTROSYMMETRIC)     :  P 1             

 LATTICE PARAMETERS  (ANGSTROMS AND DEGREES) - CONVENTIONAL CELL
        A           B           C        ALPHA        BETA       GAMMA
    15.02361    15.02392     7.20000    90.00032    89.99994   119.99596


 NUMBER OF IRREDUCIBLE ATOMS IN THE CONVENTIONAL CELL:   84

 INPUT COORDINATES

 ATOM AT. N.              COORDINATES
   1   5     6.136805400000E-01  2.273182200000E-01  2.506634300000E-01
   2   5     7.673736500000E-01  5.347356900000E-01  7.506634300000E-01
   3   5     7.727362000000E-01  3.863778800000E-01  2.506634400000E-01
   4   5     9.264293100000E-01  6.937953500000E-01  7.506634500000E-01
   5   5     6.136762700000E-01  3.863606700000E-01  2.492685600000E-01
   6   5     7.673693800000E-01  6.937781400000E-01  7.492685600000E-01
   7   5     2.272552500000E-01  6.136332200000E-01  2.506634400000E-01
   8   5     3.809483600000E-01  9.210506900000E-01  7.506634400000E-01
   9   5     3.863632200000E-01  6.136124500000E-01  2.506634300000E-01
  10   5     5.400563300000E-01  9.210299200000E-01  7.506634300000E-01
  11   5     3.863435000000E-01  7.727516500000E-01  2.492685600000E-01
  12   5     5.400366100000E-01  8.016912000000E-02  7.492685600000E-01
  13   1     9.030436200000E-01  3.089300500000E-01  2.477715600000E-01
  14   1     5.673673000000E-02  6.163475200000E-01  7.477715600000E-01
  15   1     9.663453000000E-02  6.910534400000E-01  2.473293400000E-01
  16   1     2.503276400000E-01  9.984709100000E-01  7.473293400000E-01
  17   1     9.029714200000E-01  5.940724300000E-01  2.472612800000E-01
  18   1     5.666453000000E-02  9.014899000000E-01  7.472612800000E-01
  19   1     9.673618000000E-02  4.056849400000E-01  2.472782600000E-01
  20   1     2.504292900000E-01  7.131024100000E-01  7.472782600000E-01
  21   1     6.910324000000E-01  9.700412000000E-02  2.522284600000E-01
  22   1     8.447255100000E-01  4.044215900000E-01  7.522284600000E-01
  23   1     3.089297200000E-01  9.034373100000E-01  2.526707100000E-01
  24   1     4.626228300000E-01  2.108547800000E-01  7.526707100000E-01
  25   1     4.058699900000E-01  9.704998000000E-02  2.527388100000E-01
  26   1     5.595631000000E-01  4.044674500000E-01  7.527388100000E-01
  27   1     5.943122100000E-01  9.033473200000E-01  2.527217200000E-01
  28   1     7.480053200000E-01  2.107647900000E-01  7.527217200000E-01
  29   1     6.910727400000E-01  5.940542100000E-01  2.477715900000E-01
  30   1     8.447658500000E-01  9.014716800000E-01  7.477715900000E-01
  31   1     3.089618300000E-01  4.056093300000E-01  2.473293200000E-01
  32   1     4.626549400000E-01  7.130268000000E-01  7.473293200000E-01
  33   1     4.058405700000E-01  3.088232500000E-01  2.472612300000E-01
  34   1     5.595336800000E-01  6.162407200000E-01  7.472612300000E-01
  35   1     5.942908800000E-01  6.909579300000E-01  2.472783100000E-01
  36   1     7.479839900000E-01  9.983754000000E-01  7.472783100000E-01
  37   6     8.918903100000E-01  4.459436900000E-01  2.492175200000E-01
  38   6     4.558342000000E-02  7.533611600000E-01  7.492175200000E-01
  39   6     9.464891100000E-01  3.927856300000E-01  2.478396100000E-01
  40   6     1.001822200000E-01  7.002031000000E-01  7.478396100000E-01
  41   6     5.338812000000E-02  6.071853000000E-01  2.477205800000E-01
  42   6     2.070812300000E-01  9.146027700000E-01  7.477205800000E-01
  43   6     9.464521100000E-01  5.536921900000E-01  2.480778100000E-01
  44   6     1.001452200000E-01  8.611096600000E-01  7.480778100000E-01
  45   6     5.342634000000E-02  4.462499700000E-01  2.471591800000E-01
  46   6     2.071194500000E-01  7.536674400000E-01  7.471591800000E-01
  47   6     1.080358900000E-01  5.540356300000E-01  2.480948000000E-01
  48   6     2.617290000000E-01  8.614531000000E-01  7.480948000000E-01
  49   6     5.540394200000E-01  1.081684600000E-01  2.507825200000E-01
  50   6     7.077325300000E-01  4.155859300000E-01  7.507825200000E-01
  51   6     6.071778500000E-01  5.355594000000E-02  2.521604000000E-01
  52   6     7.608709600000E-01  3.609734100000E-01  7.521604000000E-01
  53   6     3.927986700000E-01  9.466631600000E-01  2.522794700000E-01
  54   6     5.464917800000E-01  2.540806300000E-01  7.522794800000E-01
  55   6     4.462875800000E-01  5.360286000000E-02  2.519222600000E-01
  56   6     5.999806900000E-01  3.610203300000E-01  7.519222600000E-01
  57   6     5.537168500000E-01  9.466235600000E-01  2.528408200000E-01
  58   6     7.074099600000E-01  2.540410300000E-01  7.528408200000E-01
  59   6     4.459279100000E-01  8.919920600000E-01  2.519052300000E-01
  60   6     5.996210200000E-01  1.994095300000E-01  7.519052300000E-01
  61   6     5.540448700000E-01  4.458745500000E-01  2.492175200000E-01
  62   6     7.077379800000E-01  7.532920200000E-01  7.492175200000E-01
  63   6     6.072102200000E-01  5.536257800000E-01  2.478396400000E-01
  64   6     7.609033300000E-01  8.610432500000E-01  7.478396400000E-01
  65   6     3.928233700000E-01  4.461720300000E-01  2.477205500000E-01
  66   6     5.465164800000E-01  7.535895000000E-01  7.477205500000E-01
  67   6     4.462872600000E-01  3.926899900000E-01  2.480777700000E-01
  68   6     5.999803700000E-01  7.001074600000E-01  7.480777700000E-01
  69   6     5.537429600000E-01  6.070980000000E-01  2.471592200000E-01
  70   6     7.074360700000E-01  9.145154700000E-01  7.471592200000E-01
  71   6     4.459599800000E-01  5.539582300000E-01  2.480948000000E-01
  72   6     5.996530900000E-01  8.613757000000E-01  7.480948000000E-01
  73   8     5.607366800000E-01  2.803706300000E-01  2.496427900000E-01
  74   8     7.144297900000E-01  5.877881000000E-01  7.496427900000E-01
  75   8     7.196817000000E-01  2.803783300000E-01  2.525856600000E-01
  76   8     8.733748100000E-01  5.877958000000E-01  7.525856600000E-01
  77   8     7.196794200000E-01  4.393234600000E-01  2.481458500000E-01
  78   8     8.733725300000E-01  7.467409300000E-01  7.481458500000E-01
  79   8     2.803245100000E-01  7.196511100000E-01  2.496428000000E-01
  80   8     4.340176200000E-01  2.706858000000E-02  7.496428000000E-01
  81   8     2.803439700000E-01  5.606956100000E-01  2.525856600000E-01
  82   8     4.340370800000E-01  8.681130800000E-01  7.525856600000E-01
  83   8     4.392638400000E-01  7.196354200000E-01  2.481458400000E-01
  84   8     5.929569500000E-01  2.705289000000E-02  7.481458400000E-01

 *******************************************************************************

 << INFORMATION >>: FROM NOW ON, ALL COORDINATES REFER TO THE PRIMITIVE CELL

 *******************************************************************************

 LATTICE PARAMETERS  (ANGSTROMS AND DEGREES) - PRIMITIVE CELL
       A          B          C        ALPHA      BETA     GAMMA        VOLUME
   15.02361   15.02392    7.20000    90.00032  89.99994 119.99596   1407.467146

 COORDINATES OF THE EQUIVALENT ATOMS (FRACTIONAL UNITS)

 N. ATOM EQUIV AT. N.          X                  Y                  Z

   1   1   1    5 B    -3.86319460000E-01  2.27318220000E-01  2.50663430000E-01

   2   2   1    5 B    -2.32626350000E-01 -4.65264310000E-01 -2.49336570000E-01

   3   3   1    5 B    -2.27263800000E-01  3.86377880000E-01  2.50663440000E-01

   4   4   1    5 B    -7.35706900000E-02 -3.06204650000E-01 -2.49336550000E-01

   5   5   1    5 B    -3.86323730000E-01  3.86360670000E-01  2.49268560000E-01

   6   6   1    5 B    -2.32630620000E-01 -3.06221860000E-01 -2.50731440000E-01

   7   7   1    5 B     2.27255250000E-01 -3.86366780000E-01  2.50663440000E-01

   8   8   1    5 B     3.80948360000E-01 -7.89493100000E-02 -2.49336560000E-01

   9   9   1    5 B     3.86363220000E-01 -3.86387550000E-01  2.50663430000E-01

  10  10   1    5 B    -4.59943670000E-01 -7.89700800000E-02 -2.49336570000E-01

  11  11   1    5 B     3.86343500000E-01 -2.27248350000E-01  2.49268560000E-01

  12  12   1    5 B    -4.59963390000E-01  8.01691200000E-02 -2.50731440000E-01

  13  13   1    1 H    -9.69563800000E-02  3.08930050000E-01  2.47771560000E-01

  14  14   1    1 H     5.67367300000E-02 -3.83652480000E-01 -2.52228440000E-01

  15  15   1    1 H     9.66345300000E-02 -3.08946560000E-01  2.47329340000E-01

  16  16   1    1 H     2.50327640000E-01 -1.52909000000E-03 -2.52670660000E-01

  17  17   1    1 H    -9.70285800000E-02 -4.05927570000E-01  2.47261280000E-01

  18  18   1    1 H     5.66645300000E-02 -9.85101000000E-02 -2.52738720000E-01

  19  19   1    1 H     9.67361800000E-02  4.05684940000E-01  2.47278260000E-01

  20  20   1    1 H     2.50429290000E-01 -2.86897590000E-01 -2.52721740000E-01

  21  21   1    1 H    -3.08967600000E-01  9.70041200000E-02  2.52228460000E-01

  22  22   1    1 H    -1.55274490000E-01  4.04421590000E-01 -2.47771540000E-01

  23  23   1    1 H     3.08929720000E-01 -9.65626900000E-02  2.52670710000E-01

  24  24   1    1 H     4.62622830000E-01  2.10854780000E-01 -2.47329290000E-01

  25  25   1    1 H     4.05869990000E-01  9.70499800000E-02  2.52738810000E-01

  26  26   1    1 H    -4.40436900000E-01  4.04467450000E-01 -2.47261190000E-01

  27  27   1    1 H    -4.05687790000E-01 -9.66526800000E-02  2.52721720000E-01

  28  28   1    1 H    -2.51994680000E-01  2.10764790000E-01 -2.47278280000E-01

  29  29   1    1 H    -3.08927260000E-01 -4.05945790000E-01  2.47771590000E-01

  30  30   1    1 H    -1.55234150000E-01 -9.85283200000E-02 -2.52228410000E-01

  31  31   1    1 H     3.08961830000E-01  4.05609330000E-01  2.47329320000E-01

  32  32   1    1 H     4.62654940000E-01 -2.86973200000E-01 -2.52670680000E-01

  33  33   1    1 H     4.05840570000E-01  3.08823250000E-01  2.47261230000E-01

  34  34   1    1 H    -4.40466320000E-01 -3.83759280000E-01 -2.52738770000E-01

  35  35   1    1 H    -4.05709120000E-01 -3.09042070000E-01  2.47278310000E-01

  36  36   1    1 H    -2.52016010000E-01 -1.62460000000E-03 -2.52721690000E-01

  37  37   1    6 C    -1.08109690000E-01  4.45943690000E-01  2.49217520000E-01

  38  38   1    6 C     4.55834200000E-02 -2.46638840000E-01 -2.50782480000E-01

  39  39   1    6 C    -5.35108900000E-02  3.92785630000E-01  2.47839610000E-01

  40  40   1    6 C     1.00182220000E-01 -2.99796900000E-01 -2.52160390000E-01

  41  41   1    6 C     5.33881200000E-02 -3.92814700000E-01  2.47720580000E-01

  42  42   1    6 C     2.07081230000E-01 -8.53972300000E-02 -2.52279420000E-01

  43  43   1    6 C    -5.35478900000E-02 -4.46307810000E-01  2.48077810000E-01

  44  44   1    6 C     1.00145220000E-01 -1.38890340000E-01 -2.51922190000E-01

  45  45   1    6 C     5.34263400000E-02  4.46249970000E-01  2.47159180000E-01

  46  46   1    6 C     2.07119450000E-01 -2.46332560000E-01 -2.52840820000E-01

  47  47   1    6 C     1.08035890000E-01 -4.45964370000E-01  2.48094800000E-01

  48  48   1    6 C     2.61729000000E-01 -1.38546900000E-01 -2.51905200000E-01

  49  49   1    6 C    -4.45960580000E-01  1.08168460000E-01  2.50782520000E-01

  50  50   1    6 C    -2.92267470000E-01  4.15585930000E-01 -2.49217480000E-01

  51  51   1    6 C    -3.92822150000E-01  5.35559400000E-02  2.52160400000E-01

  52  52   1    6 C    -2.39129040000E-01  3.60973410000E-01 -2.47839600000E-01

  53  53   1    6 C     3.92798670000E-01 -5.33368400000E-02  2.52279470000E-01

  54  54   1    6 C    -4.53508220000E-01  2.54080630000E-01 -2.47720520000E-01

  55  55   1    6 C     4.46287580000E-01  5.36028600000E-02  2.51922260000E-01

  56  56   1    6 C    -4.00019310000E-01  3.61020330000E-01 -2.48077740000E-01

  57  57   1    6 C    -4.46283150000E-01 -5.33764400000E-02  2.52840820000E-01

  58  58   1    6 C    -2.92590040000E-01  2.54041030000E-01 -2.47159180000E-01

  59  59   1    6 C     4.45927910000E-01 -1.08007940000E-01  2.51905230000E-01

  60  60   1    6 C    -4.00378980000E-01  1.99409530000E-01 -2.48094770000E-01

  61  61   1    6 C    -4.45955130000E-01  4.45874550000E-01  2.49217520000E-01

  62  62   1    6 C    -2.92262020000E-01 -2.46707980000E-01 -2.50782480000E-01

  63  63   1    6 C    -3.92789780000E-01 -4.46374220000E-01  2.47839640000E-01

  64  64   1    6 C    -2.39096670000E-01 -1.38956750000E-01 -2.52160360000E-01

  65  65   1    6 C     3.92823370000E-01  4.46172030000E-01  2.47720550000E-01

  66  66   1    6 C    -4.53483520000E-01 -2.46410500000E-01 -2.52279450000E-01

  67  67   1    6 C     4.46287260000E-01  3.92689990000E-01  2.48077770000E-01

  68  68   1    6 C    -4.00019630000E-01 -2.99892540000E-01 -2.51922230000E-01

  69  69   1    6 C    -4.46257040000E-01 -3.92902000000E-01  2.47159220000E-01

  70  70   1    6 C    -2.92563930000E-01 -8.54845300000E-02 -2.52840780000E-01

  71  71   1    6 C     4.45959980000E-01 -4.46041770000E-01  2.48094800000E-01

  72  72   1    6 C    -4.00346910000E-01 -1.38624300000E-01 -2.51905200000E-01

  73  73   1    8 O    -4.39263320000E-01  2.80370630000E-01  2.49642790000E-01

  74  74   1    8 O    -2.85570210000E-01 -4.12211900000E-01 -2.50357210000E-01

  75  75   1    8 O    -2.80318300000E-01  2.80378330000E-01  2.52585660000E-01

  76  76   1    8 O    -1.26625190000E-01 -4.12204200000E-01 -2.47414340000E-01

  77  77   1    8 O    -2.80320580000E-01  4.39323460000E-01  2.48145850000E-01

  78  78   1    8 O    -1.26627470000E-01 -2.53259070000E-01 -2.51854150000E-01

  79  79   1    8 O     2.80324510000E-01 -2.80348890000E-01  2.49642800000E-01

  80  80   1    8 O     4.34017620000E-01  2.70685800000E-02 -2.50357200000E-01

  81  81   1    8 O     2.80343970000E-01 -4.39304390000E-01  2.52585660000E-01

  82  82   1    8 O     4.34037080000E-01 -1.31886920000E-01 -2.47414340000E-01

  83  83   1    8 O     4.39263840000E-01 -2.80364580000E-01  2.48145840000E-01

  84  84   1    8 O    -4.07043050000E-01  2.70528900000E-02 -2.51854160000E-01

 NUMBER OF SYMMETRY OPERATORS         :    1
 *******************************************************************************
 * GEOMETRY EDITING - INPUT COORDINATES ARE GIVEN IN ANGSTROM         
 *******************************************************************************

 GCALCO - MAX INDICES DIRECT LATTICE VECTOR    12    12    21
 NO.OF VECTORS CREATED 6999 STARS 3500 RMAX   251.34433 BOHR

 GEOMETRY FOR WAVE FUNCTION - DIMENSIONALITY OF THE SYSTEM    3
 (NON PERIODIC DIRECTION: LATTICE PARAMETER FORMALLY SET TO 500)
 *******************************************************************************
 LATTICE PARAMETERS (ANGSTROMS AND DEGREES) - BOHR = 0.5291772083 ANGSTROM
 PRIMITIVE CELL - CENTRING CODE 1/0 VOLUME=  1407.467146 - DENSITY  0.921 g/cm^3
         A              B              C           ALPHA      BETA       GAMMA 
    15.02361100    15.02391600     7.20000000    90.000323  89.999944 119.995964
 *******************************************************************************
 ATOMS IN THE ASYMMETRIC UNIT   84 - ATOMS IN THE UNIT CELL:   84
     ATOM                 X/A                 Y/B                 Z/C    
 *******************************************************************************
      1 T   5 B    -3.863194600000E-01  2.273182200000E-01  2.506634300000E-01
      2 T   5 B    -2.326263500000E-01 -4.652643100000E-01 -2.493365700000E-01
      3 T   5 B    -2.272638000000E-01  3.863778800000E-01  2.506634400000E-01
      4 T   5 B    -7.357069000000E-02 -3.062046500000E-01 -2.493365500000E-01
      5 T   5 B    -3.863237300000E-01  3.863606700000E-01  2.492685600000E-01
      6 T   5 B    -2.326306200000E-01 -3.062218600000E-01 -2.507314400000E-01
      7 T   5 B     2.272552500000E-01 -3.863667800000E-01  2.506634400000E-01
      8 T   5 B     3.809483600000E-01 -7.894931000000E-02 -2.493365600000E-01
      9 T   5 B     3.863632200000E-01 -3.863875500000E-01  2.506634300000E-01
     10 T   5 B    -4.599436700000E-01 -7.897008000000E-02 -2.493365700000E-01
     11 T   5 B     3.863435000000E-01 -2.272483500000E-01  2.492685600000E-01
     12 T   5 B    -4.599633900000E-01  8.016912000000E-02 -2.507314400000E-01
     13 T   1 H    -9.695638000000E-02  3.089300500000E-01  2.477715600000E-01
     14 T   1 H     5.673673000000E-02 -3.836524800000E-01 -2.522284400000E-01
     15 T   1 H     9.663453000000E-02 -3.089465600000E-01  2.473293400000E-01
     16 T   1 H     2.503276400000E-01 -1.529090000000E-03 -2.526706600000E-01
     17 T   1 H    -9.702858000000E-02 -4.059275700000E-01  2.472612800000E-01
     18 T   1 H     5.666453000000E-02 -9.851010000000E-02 -2.527387200000E-01
     19 T   1 H     9.673618000000E-02  4.056849400000E-01  2.472782600000E-01
     20 T   1 H     2.504292900000E-01 -2.868975900000E-01 -2.527217400000E-01
     21 T   1 H    -3.089676000000E-01  9.700412000000E-02  2.522284600000E-01
     22 T   1 H    -1.552744900000E-01  4.044215900000E-01 -2.477715400000E-01
     23 T   1 H     3.089297200000E-01 -9.656269000000E-02  2.526707100000E-01
     24 T   1 H     4.626228300000E-01  2.108547800000E-01 -2.473292900000E-01
     25 T   1 H     4.058699900000E-01  9.704998000000E-02  2.527388100000E-01
     26 T   1 H    -4.404369000000E-01  4.044674500000E-01 -2.472611900000E-01
     27 T   1 H    -4.056877900000E-01 -9.665268000000E-02  2.527217200000E-01
     28 T   1 H    -2.519946800000E-01  2.107647900000E-01 -2.472782800000E-01
     29 T   1 H    -3.089272600000E-01 -4.059457900000E-01  2.477715900000E-01
     30 T   1 H    -1.552341500000E-01 -9.852832000000E-02 -2.522284100000E-01
     31 T   1 H     3.089618300000E-01  4.056093300000E-01  2.473293200000E-01
     32 T   1 H     4.626549400000E-01 -2.869732000000E-01 -2.526706800000E-01
     33 T   1 H     4.058405700000E-01  3.088232500000E-01  2.472612300000E-01
     34 T   1 H    -4.404663200000E-01 -3.837592800000E-01 -2.527387700000E-01
     35 T   1 H    -4.057091200000E-01 -3.090420700000E-01  2.472783100000E-01
     36 T   1 H    -2.520160100000E-01 -1.624600000000E-03 -2.527216900000E-01
     37 T   6 C    -1.081096900000E-01  4.459436900000E-01  2.492175200000E-01
     38 T   6 C     4.558342000000E-02 -2.466388400000E-01 -2.507824800000E-01
     39 T   6 C    -5.351089000000E-02  3.927856300000E-01  2.478396100000E-01
     40 T   6 C     1.001822200000E-01 -2.997969000000E-01 -2.521603900000E-01
     41 T   6 C     5.338812000000E-02 -3.928147000000E-01  2.477205800000E-01
     42 T   6 C     2.070812300000E-01 -8.539723000000E-02 -2.522794200000E-01
     43 T   6 C    -5.354789000000E-02 -4.463078100000E-01  2.480778100000E-01
     44 T   6 C     1.001452200000E-01 -1.388903400000E-01 -2.519221900000E-01
     45 T   6 C     5.342634000000E-02  4.462499700000E-01  2.471591800000E-01
     46 T   6 C     2.071194500000E-01 -2.463325600000E-01 -2.528408200000E-01
     47 T   6 C     1.080358900000E-01 -4.459643700000E-01  2.480948000000E-01
     48 T   6 C     2.617290000000E-01 -1.385469000000E-01 -2.519052000000E-01
     49 T   6 C    -4.459605800000E-01  1.081684600000E-01  2.507825200000E-01
     50 T   6 C    -2.922674700000E-01  4.155859300000E-01 -2.492174800000E-01
     51 T   6 C    -3.928221500000E-01  5.355594000000E-02  2.521604000000E-01
     52 T   6 C    -2.391290400000E-01  3.609734100000E-01 -2.478396000000E-01
     53 T   6 C     3.927986700000E-01 -5.333684000000E-02  2.522794700000E-01
     54 T   6 C    -4.535082200000E-01  2.540806300000E-01 -2.477205200000E-01
     55 T   6 C     4.462875800000E-01  5.360286000000E-02  2.519222600000E-01
     56 T   6 C    -4.000193100000E-01  3.610203300000E-01 -2.480777400000E-01
     57 T   6 C    -4.462831500000E-01 -5.337644000000E-02  2.528408200000E-01
     58 T   6 C    -2.925900400000E-01  2.540410300000E-01 -2.471591800000E-01
     59 T   6 C     4.459279100000E-01 -1.080079400000E-01  2.519052300000E-01
     60 T   6 C    -4.003789800000E-01  1.994095300000E-01 -2.480947700000E-01
     61 T   6 C    -4.459551300000E-01  4.458745500000E-01  2.492175200000E-01
     62 T   6 C    -2.922620200000E-01 -2.467079800000E-01 -2.507824800000E-01
     63 T   6 C    -3.927897800000E-01 -4.463742200000E-01  2.478396400000E-01
     64 T   6 C    -2.390966700000E-01 -1.389567500000E-01 -2.521603600000E-01
     65 T   6 C     3.928233700000E-01  4.461720300000E-01  2.477205500000E-01
     66 T   6 C    -4.534835200000E-01 -2.464105000000E-01 -2.522794500000E-01
     67 T   6 C     4.462872600000E-01  3.926899900000E-01  2.480777700000E-01
     68 T   6 C    -4.000196300000E-01 -2.998925400000E-01 -2.519222300000E-01
     69 T   6 C    -4.462570400000E-01 -3.929020000000E-01  2.471592200000E-01
     70 T   6 C    -2.925639300000E-01 -8.548453000000E-02 -2.528407800000E-01
     71 T   6 C     4.459599800000E-01 -4.460417700000E-01  2.480948000000E-01
     72 T   6 C    -4.003469100000E-01 -1.386243000000E-01 -2.519052000000E-01
     73 T   8 O    -4.392633200000E-01  2.803706300000E-01  2.496427900000E-01
     74 T   8 O    -2.855702100000E-01 -4.122119000000E-01 -2.503572100000E-01
     75 T   8 O    -2.803183000000E-01  2.803783300000E-01  2.525856600000E-01
     76 T   8 O    -1.266251900000E-01 -4.122042000000E-01 -2.474143400000E-01
     77 T   8 O    -2.803205800000E-01  4.393234600000E-01  2.481458500000E-01
     78 T   8 O    -1.266274700000E-01 -2.532590700000E-01 -2.518541500000E-01
     79 T   8 O     2.803245100000E-01 -2.803488900000E-01  2.496428000000E-01
     80 T   8 O     4.340176200000E-01  2.706858000000E-02 -2.503572000000E-01
     81 T   8 O     2.803439700000E-01 -4.393043900000E-01  2.525856600000E-01
     82 T   8 O     4.340370800000E-01 -1.318869200000E-01 -2.474143400000E-01
     83 T   8 O     4.392638400000E-01 -2.803645800000E-01  2.481458400000E-01
     84 T   8 O    -4.070430500000E-01  2.705289000000E-02 -2.518541600000E-01

 T = ATOM BELONGING TO THE ASYMMETRIC UNIT

 ****    1 SYMMOPS - TRANSLATORS IN FRACTIONAL UNITS
 **** MATRICES AND TRANSLATORS IN THE CRYSTALLOGRAPHIC REFERENCE FRAME
   V INV                    ROTATION MATRICES                   TRANSLATORS
   1   1  1.00 -0.00  0.00  0.00  1.00  0.00  0.00  0.00  1.00  0.00  0.00  0.00

 DIRECT LATTICE VECTORS CARTESIAN COMPONENTS (ANGSTROM)
          X                    Y                    Z
   0.130113578931E+02  -0.751088897922E+01   0.000000000000E+00
   0.000000000000E+00   0.150239160000E+02   0.000000000000E+00
  -0.153049849927E-04  -0.405893770827E-04   0.719999999987E+01


 CARTESIAN COORDINATES - PRIMITIVE CELL
 *******************************************************************************
 *      ATOM          X(ANGSTROM)         Y(ANGSTROM)         Z(ANGSTROM)
 *******************************************************************************
    1     5 B    -5.026544591512E+00  6.316802242848E+00  1.804776695967E+00
    2     5 B    -3.026780879113E+00 -5.242851102332E+00 -1.795223303967E+00
    3     5 B    -2.957014474336E+00  7.511851809900E+00  1.804776767967E+00
    4     5 B    -9.572507619370E-01 -4.047801535280E+00 -1.795223159967E+00
    5     5 B    -5.026600128662E+00 -6.317641219805E+00  1.794733631967E+00
    6     5 B    -3.026836416263E+00 -2.853378564985E+00 -1.805266367967E+00
    7     5 B     2.956895554426E+00 -7.511641174877E+00  1.804776767967E+00
    8     5 B     4.956659266825E+00 -4.047378520057E+00 -1.795223231967E+00
    9     5 B     5.027106295734E+00  6.316920480009E+00  1.804776695967E+00
   10     5 B    -5.984487884923E+00  2.268156114046E+00 -1.795223303967E+00
   11     5 B     5.026849733105E+00 -6.315953375536E+00  1.794733631967E+00
   12     5 B     7.026613445504E+00 -2.851690720716E+00 -1.805266367967E+00
   13     1 H    -1.261537952335E+00  5.369557670189E+00  1.783955231968E+00
   14     1 H     7.382257600642E-01 -6.190095674990E+00 -1.816044767967E+00
   15     1 H     1.257342669285E+00 -5.367408431262E+00  1.780771247968E+00
   16     1 H     3.257106381685E+00 -1.903145776441E+00 -1.819228751967E+00
   17     1 H    -1.262477364565E+00 -5.369860857754E+00  1.780281215968E+00
   18     1 H     7.372863478342E-01 -1.905598202934E+00 -1.819718783967E+00
   19     1 H     1.258665274597E+00  5.368391715901E+00  1.780403471968E+00
   20     1 H     3.258428986996E+00 -6.191261629278E+00 -1.819596527967E+00
   21     1 H    -4.020091881312E+00  3.777992854513E+00  1.816044911967E+00
   22     1 H    -2.020328168912E+00  7.242255509333E+00 -1.783955087968E+00
   23     1 H     4.019591283600E+00 -3.771096828341E+00  1.819229111967E+00
   24     1 H     6.019354996000E+00 -3.068341735206E-01 -1.780770887968E+00
   25     1 H     5.280915829778E+00 -1.590383946075E+00  1.819719431967E+00
   26     1 H     7.280679542177E+00  1.873878708746E+00 -1.780280567968E+00
   27     1 H    -5.278552896435E+00  1.594963947602E+00  1.819596383967E+00
   28     1 H    -3.278789184036E+00  5.059226602422E+00 -1.780403615968E+00
   29     1 H    -4.019566934922E+00 -3.778587153895E+00  1.783955447968E+00
   30     1 H    -2.019803222522E+00 -3.143244990740E-01 -1.816044551967E+00
   31     1 H     4.020009160052E+00  3.773252459848E+00  1.780771103968E+00
   32     1 H    -6.991585020605E+00 -2.755119061153E-01 -1.819228895967E+00
   33     1 H     5.280533119463E+00  1.591501066136E+00  1.780280855968E+00
   34     1 H    -5.731061061195E+00 -2.457263299827E+00 -1.819719143967E+00
   35     1 H    -5.278830345388E+00 -1.595795978843E+00  1.780403831968E+00
   36     1 H    -3.279066632988E+00  1.868466675977E+00 -1.819596167967E+00
   37     6 C    -1.406657682568E+00  7.511810302874E+00  1.794366143967E+00
   38     6 C     5.931060298316E-01 -4.047843042306E+00 -1.805633855967E+00
   39     6 C    -6.962531341475E-01  6.303082605441E+00  1.784445191968E+00
   40     6 C     1.303510578252E+00 -5.256570739739E+00 -1.815554807967E+00
   41     6 C     6.946481451977E-01 -6.302617353318E+00  1.783588175968E+00
   42     6 C     2.694411857597E+00 -2.838354698498E+00 -1.816411823967E+00
   43     6 C    -6.967345580352E-01 -6.303108860046E+00  1.786160231968E+00
   44     6 C     1.303029154364E+00 -2.838846205226E+00 -1.813839767967E+00
   45     6 C     6.951454478886E-01  6.303132723939E+00  1.779546095968E+00
   46     6 C     2.694909160288E+00 -5.256520621240E+00 -1.820453903967E+00
   47     6 C     1.405689832998E+00 -7.511586879447E+00  1.786282559968E+00
   48     6 C     3.405453545397E+00 -4.047324224627E+00 -1.813717439967E+00
   49     6 C     7.208801342259E+00 -2.536224895946E+00  1.805634143967E+00
   50     6 C    -3.802792838398E+00 -6.584989261909E+00 -1.794365855967E+00
   51     6 C    -5.111153441281E+00  3.755053266055E+00  1.815554879967E+00
   52     6 C    -3.111389728882E+00  7.219315920875E+00 -1.784445119968E+00
   53     6 C     5.110840214153E+00 -3.751605645286E+00  1.816412183967E+00
   54     6 C     7.110603926552E+00 -2.873429904657E-01 -1.783587743968E+00
   55     6 C     5.806803570940E+00 -2.546701825551E+00  1.813840271967E+00
   56     6 C     7.806567283339E+00  9.175608292695E-01 -1.786159727968E+00
   57     6 C    -5.806753656016E+00  2.550049779355E+00  1.820453903967E+00
   58     6 C    -3.806989943616E+00  6.014312434175E+00 -1.779546095968E+00
   59     6 C     5.802123776107E+00 -4.972027467313E+00  1.813717655967E+00
   60     6 C     7.801887488506E+00 -1.507764812493E+00 -1.786282343968E+00
   61     6 C     7.208872278112E+00  2.537402162079E+00  1.794366143967E+00
   62     6 C    -3.802721902546E+00 -1.511362203883E+00 -1.805633855967E+00
   63     6 C    -5.110732197497E+00 -3.756098415751E+00  1.784445407968E+00
   64     6 C    -3.110968485098E+00 -2.918357609307E-01 -1.815554591967E+00
   65     6 C     5.111161664467E+00  3.752788324935E+00  1.783587959968E+00
   66     6 C    -5.900432516190E+00 -2.959760410280E-01 -1.816412039967E+00
   67     6 C     5.806799466145E+00  2.547717291780E+00  1.786159943968E+00
   68     6 C    -5.204794714512E+00 -1.501047074183E+00 -1.813840055967E+00
   69     6 C    -5.806413842504E+00 -2.551149592637E+00  1.779546383968E+00
   70     6 C    -3.806650130105E+00  9.131130621835E-01 -1.820453615967E+00
   71     6 C     5.802541108673E+00  4.973055946062E+00  1.786282559968E+00
   72     6 C    -5.209053071984E+00  9.242915800987E-01 -1.813717439967E+00
   73     8 O     7.295941806465E+00  6.237110873148E-04  1.797428087967E+00
   74     8 O    -3.715652374192E+00 -4.048140654876E+00 -1.802571911967E+00
   75     8 O    -3.647325591093E+00  6.317809855988E+00  1.818616751967E+00
   76     8 O    -1.647561878694E+00 -5.241843489191E+00 -1.781383247968E+00
   77     8 O    -3.647355189038E+00 -6.318110557247E+00  1.786650119968E+00
   78     8 O    -1.647591476638E+00 -2.853847902426E+00 -1.813349879967E+00
   79     8 O     3.647398705026E+00 -6.317434579662E+00  1.797428159967E+00
   80     8 O     5.647162417426E+00 -2.853171924842E+00 -1.802571839967E+00
   81     8 O     3.647651861011E+00  6.318201059251E+00  1.818616751967E+00
   82     8 O     5.647415573410E+00 -5.241452285928E+00 -1.781383247968E+00
   83     8 O    -7.295942659207E+00 -5.569269881935E-04  1.786650047968E+00
   84     8 O    -5.296178946807E+00  3.463705727832E+00 -1.813349951967E+00

 *******************************************************************************
 STARTING BASIS SET HANDLING 
 *******************************************************************************

 Loading internal basis set: SOLDEF2MSVP         

 Please cite in your publication:
 L. Dona', J. G. Brandenburg and B. Civalleri, J. Chem. Phys., 151, 121101 (2019
 )                                                                              
                                                                                
                    

 *******************************************************************************
 LOCAL ATOMIC FUNCTIONS BASIS SET
 *******************************************************************************
   ATOM   X(AU)   Y(AU)   Z(AU)  N. TYPE  EXPONENT  S COEF   P COEF   D/F/G COEF
 *******************************************************************************
   1 B   -9.499  11.937   3.411
                                  1 S  
                                         2.410E+03 1.755E-03 0.000E+00 0.000E+00
                                         3.619E+02 1.344E-02 0.000E+00 0.000E+00
                                         8.231E+01 6.637E-02 0.000E+00 0.000E+00
                                         2.311E+01 2.303E-01 0.000E+00 0.000E+00
                                         7.252E+00 5.150E-01 0.000E+00 0.000E+00
                                  2 S  
                                         2.367E+00 1.000E+00 0.000E+00 0.000E+00
                                  3 S  
                                         5.533E-01 1.000E+00 0.000E+00 0.000E+00
                                  4 S  
                                         1.716E-01 1.000E+00 0.000E+00 0.000E+00
                           5-     7 P  
                                         6.002E+00 0.000E+00-3.555E-02 0.000E+00
                                         1.240E+00 0.000E+00-1.983E-01 0.000E+00
                                         3.367E-01 0.000E+00-5.048E-01 0.000E+00
                           8-    10 P  
                                         1.256E-01 0.000E+00 1.000E+00 0.000E+00
                          11-    15 D  
                                         8.880E-01 0.000E+00 0.000E+00 1.000E+00
   2 B   -5.720  -9.908  -3.392
   3 B   -5.588  14.195   3.411
   4 B   -1.809  -7.649  -3.392
   5 B   -9.499 -11.939   3.392
   6 B   -5.720  -5.392  -3.411
   7 B    5.588 -14.195   3.411
   8 B    9.367  -7.648  -3.392
   9 B    9.500  11.937   3.411
  10 B  -11.309   4.286  -3.392
  11 B    9.499 -11.935   3.392
  12 B   13.278  -5.389  -3.411
  13 H   -2.384  10.147   3.371
                                181 S  
                                         1.874E+01 1.968E-02 0.000E+00 0.000E+00
                                         2.826E+00 1.380E-01 0.000E+00 0.000E+00
                                         6.401E-01 4.783E-01 0.000E+00 0.000E+00
                                182 S  
                                         1.756E-01 1.000E+00 0.000E+00 0.000E+00
  14 H    1.395 -11.698  -3.432
  15 H    2.376 -10.143   3.365
  16 H    6.155  -3.596  -3.438
  17 H   -2.386 -10.148   3.364
  18 H    1.393  -3.601  -3.439
  19 H    2.379  10.145   3.364
  20 H    6.158 -11.700  -3.439
  21 H   -7.597   7.139   3.432
  22 H   -3.818  13.686  -3.371
  23 H    7.596  -7.126   3.438
  24 H   11.375  -0.580  -3.365
  25 H    9.979  -3.005   3.439
  26 H   13.758   3.541  -3.364
  27 H   -9.975   3.014   3.439
  28 H   -6.196   9.561  -3.364
  29 H   -7.596  -7.140   3.371
  30 H   -3.817  -0.594  -3.432
  31 H    7.597   7.130   3.365
  32 H  -13.212  -0.521  -3.438
  33 H    9.979   3.008   3.364
  34 H  -10.830  -4.644  -3.439
  35 H   -9.976  -3.016   3.364
  36 H   -6.197   3.531  -3.439
  37 C   -2.658  14.195   3.391
                                229 S  
                                         3.624E+03 1.634E-03 0.000E+00 0.000E+00
                                         5.440E+02 1.252E-02 0.000E+00 0.000E+00
                                         1.237E+02 6.211E-02 0.000E+00 0.000E+00
                                         3.476E+01 2.182E-01 0.000E+00 0.000E+00
                                         1.093E+01 4.980E-01 0.000E+00 0.000E+00
                                230 S  
                                         3.574E+00 1.000E+00 0.000E+00 0.000E+00
                                231 S  
                                         7.742E-01 1.000E+00 0.000E+00 0.000E+00
                                232 S  
                                         2.330E-01 1.000E+00 0.000E+00 0.000E+00
                         233-   235 P  
                                         9.443E+00 0.000E+00 3.790E-02 0.000E+00
                                         2.002E+00 0.000E+00 2.082E-01 0.000E+00
                                         5.463E-01 0.000E+00 5.047E-01 0.000E+00
                         236-   238 P  
                                         1.820E-01 0.000E+00 1.000E+00 0.000E+00
                         239-   243 D  
                                         8.880E-01 0.000E+00 0.000E+00 1.000E+00
  38 C    1.121  -7.649  -3.412
  39 C   -1.316  11.911   3.372
  40 C    2.463  -9.933  -3.431
  41 C    1.313 -11.910   3.370
  42 C    5.092  -5.364  -3.433
  43 C   -1.317 -11.911   3.375
  44 C    2.462  -5.365  -3.428
  45 C    1.314  11.911   3.363
  46 C    5.093  -9.933  -3.440
  47 C    2.656 -14.195   3.376
  48 C    6.435  -7.648  -3.427
  49 C   13.623  -4.793   3.412
  50 C   -7.186 -12.444  -3.391
  51 C   -9.659   7.096   3.431
  52 C   -5.880  13.643  -3.372
  53 C    9.658  -7.090   3.433
  54 C   13.437  -0.543  -3.370
  55 C   10.973  -4.813   3.428
  56 C   14.752   1.734  -3.375
  57 C  -10.973   4.819   3.440
  58 C   -7.194  11.365  -3.363
  59 C   10.964  -9.396   3.427
  60 C   14.743  -2.849  -3.376
  61 C   13.623   4.795   3.391
  62 C   -7.186  -2.856  -3.412
  63 C   -9.658  -7.098   3.372
  64 C   -5.879  -0.551  -3.431
  65 C    9.659   7.092   3.370
  66 C  -11.150  -0.559  -3.433
  67 C   10.973   4.814   3.375
  68 C   -9.836  -2.837  -3.428
  69 C  -10.973  -4.821   3.363
  70 C   -7.194   1.726  -3.440
  71 C   10.965   9.398   3.376
  72 C   -9.844   1.747  -3.427
  73 O   13.787   0.001   3.397
                                769 S  
                                         6.773E+03 1.727E-03 0.000E+00 0.000E+00
                                         1.017E+03 1.325E-02 0.000E+00 0.000E+00
                                         2.313E+02 6.603E-02 0.000E+00 0.000E+00
                                         6.501E+01 2.353E-01 0.000E+00 0.000E+00
                                         2.050E+01 5.498E-01 0.000E+00 0.000E+00
                                770 S  
                                         6.716E+00 1.000E+00 0.000E+00 0.000E+00
                                771 S  
                                         1.147E+00 1.000E+00 0.000E+00 0.000E+00
                                772 S  
                                         3.342E-01 1.000E+00 0.000E+00 0.000E+00
                         773-   775 P  
                                         1.769E+01 0.000E+00 4.359E-02 0.000E+00
                                         3.854E+00 0.000E+00 2.318E-01 0.000E+00
                                         1.047E+00 0.000E+00 5.146E-01 0.000E+00
                         776-   778 P  
                                         2.759E-01 0.000E+00 1.000E+00 0.000E+00
                         779-   783 D  
                                         8.000E-01 0.000E+00 0.000E+00 1.000E+00
  74 O   -7.022  -7.650  -3.406
  75 O   -6.892  11.939   3.437
  76 O   -3.113  -9.906  -3.366
  77 O   -6.893 -11.939   3.376
  78 O   -3.113  -5.393  -3.427
  79 O    6.893 -11.938   3.397
  80 O   10.672  -5.392  -3.406
  81 O    6.893  11.940   3.437
  82 O   10.672  -9.905  -3.366
  83 O  -13.787  -0.001   3.376
  84 O  -10.008   6.545  -3.427

 *******************************************************************************
 FINISHED BASIS SET HANDLING 
 *******************************************************************************

 INFORMATION **** SET_MPP **** PCRYSTAL CALCULATION
 INFORMATION **** READM2 **** NEW DEFAULT: FOCK/KS MATRIX MIXING SET TO 30 %
 INFORMATION **** READM2 **** NEW DEFAULT: FULL DIRECT SCF MODE
 INFORMATION **** READM2 **** NEW DEFAULT: COULOMB BIPOLAR BUFFER SET TO 32 Mb
 INFORMATION **** READM2 **** NEW DEFAULT: EXCHANGE BIPOLAR BUFFER SET TO 32 Mb

 *******************************************************************************
 NEW DEFAULT: DFT INTEGRATION GRID INCREASED TO XLGRID
 NEW DEFAULT: DIIS ACCELERATOR ACTIVE
 USE KEYWORD NODIIS TO TURN IT OFF
 *******************************************************************************

 WARNING **** RDDFTP **** HSEsol-HJS ACTIVE
 RANGE SEPARATION - OMEGA:   0.110000000000000     
 WARNING **** RDDFTP **** HSEsol-3c has to be combined with sol-def2-mSVP basis set
 *******************************************************************************
 N. OF ATOMS PER CELL        84  COULOMB OVERLAP TOL         (T1) 10**   -6
 NUMBER OF SHELLS           468  COULOMB PENETRATION TOL     (T2) 10**   -6
 NUMBER OF AO               948  EXCHANGE OVERLAP TOL        (T3) 10**   -6
 N. OF ELECTRONS PER CELL   396  EXCHANGE PSEUDO OVP (F(G))  (T4) 10**   -6
 CORE ELECTRONS PER CELL    120  EXCHANGE PSEUDO OVP (P(G))  (T5) 10**  -12
 N. OF SYMMETRY OPERATORS     1  POLE ORDER IN MONO ZONE                  4
 *******************************************************************************
 TYPE OF CALCULATION :  RESTRICTED CLOSED SHELL
 KOHN-SHAM HAMILTONIAN

 (EXCHANGE)[CORRELATION] FUNCTIONAL:(HSEsol GGA)[PBEsol]

 RANGE-SEPARATED HYBRID FUNCTIONAL 
 OMEGA (SHORT-RANGE)[LONG-RANGE]:(    0.1100)[    0.0000]

 HYBRID EXCHANGE - PERCENTAGE OF FOCK EXCHANGE    25.0000

 CAPPA:IS1  2;IS2  2;IS3  8; K PTS MONK NET  20; SYMMOPS:K SPACE   2;G SPACE   1

 *******************************************************************************
 MAX NUMBER OF SCF CYCLES      50  CONVERGENCE ON DELTAP        10**-16
 WEIGHT OF F(I) IN F(I+1)      30% CONVERGENCE ON ENERGY        10**- 6
 SHRINK. FACT.(MONKH.)    2  2  8  NUMBER OF K POINTS IN THE IBZ     20
 SHRINKING FACTOR(GILAT NET)    8  NUMBER OF K POINTS(GILAT NET)   1028
 *******************************************************************************
 *** K POINTS COORDINATES (OBLIQUE COORDINATES IN UNITS OF IS =  2)
   1-R(  0  0  0)   2-R(  1  0  0)   3-R(  0  1  0)   4-R(  1  1  0)
   5-C(  0  0  1)   6-C(  1  0  1)   7-C(  0  1  1)   8-C(  1  1  1)
   9-C(  0  0  2)  10-C(  1  0  2)  11-C(  0  1  2)  12-C(  1  1  2)
  13-C(  0  0  3)  14-C(  1  0  3)  15-C(  0  1  3)  16-C(  1  1  3)
  17-R(  0  0  4)  18-R(  1  0  4)  19-R(  0  1  4)  20-R(  1  1  4)

 DIRECT LATTICE VECTORS COMPON. (A.U.)     RECIP. LATTICE VECTORS COMPON. (A.U.) 
        X            Y            Z              X            Y            Z
   24.5879030  -14.1935232    0.0000000      0.2555397    0.0000000    0.0000005
    0.0000000   28.3910867    0.0000000      0.1277517    0.2213084    0.0000015
   -0.0000289   -0.0000767   13.6060282      0.0000000    0.0000000    0.4617942

 DISK SPACE FOR EIGENVECTORS (FTN 10)    28758528 REALS

 SYMMETRY ADAPTION OF THE BLOCH FUNCTIONS DISABLED
 TTTTTTTTTTTTTTTTTTTTTTTTTTTTTT gordsh1     TELAPSE        0.06 TCPU        0.05

 MATRIX SIZE: P(G)  703404, F(G)  139110, P(G) IRR  353748, F(G) IRR  140142
 MAX G-VECTOR INDEX FOR 1- AND 2-ELECTRON INTEGRALS  43

 TTTTTTTTTTTTTTTTTTTTTTTTTTTTTT INPUT       TELAPSE        2.95 TCPU        2.94

 NEIGHBORS OF THE NON-EQUIVALENT ATOMS

 N = NUMBER OF NEIGHBORS AT DISTANCE R
    ATOM  N     R/ANG      R/AU   NEIGHBORS (ATOM LABELS AND CELL INDICES)
   1 B    1     1.3791     2.6061   73 O   -1 0 0
   1 B    1     1.3793     2.6065   75 O    0 0 0
   1 B    1     1.5503     2.9297   49 C   -1 0 0
   1 B    1     2.3895     4.5155    5 B    0 1 0
   1 B    1     2.3898     4.5160    3 B    0 0 0
   1 B    1     2.5632     4.8437   51 C    0 0 0

   2 B    1     1.3791     2.6061   74 O    0 0 0
   2 B    1     1.3793     2.6065   76 O    0 0 0
   2 B    1     1.5503     2.9297   50 C    0 0 0
   2 B    1     2.3895     4.5155    6 B    0 0 0
   2 B    1     2.3898     4.5160    4 B    0 0 0
   2 B    1     2.5632     4.8437   52 C    0-1 0

   3 B    1     1.3793     2.6065   77 O    0 1 0
   3 B    1     1.3793     2.6065   75 O    0 0 0
   3 B    1     1.5504     2.9298   37 C    0 0 0
   3 B    1     2.3895     4.5156    5 B    0 1 0
   3 B    1     2.3898     4.5160    1 B    0 0 0
   3 B    1     2.5634     4.8440   43 C    0 1 0

   4 B    1     1.3793     2.6065   78 O    0 0 0
   4 B    1     1.3793     2.6065   76 O    0 0 0
   4 B    1     1.5504     2.9298   38 C    0 0 0
   4 B    1     2.3895     4.5156    6 B    0 0 0
   4 B    1     2.3898     4.5160    2 B    0 0 0
   4 B    1     2.5634     4.8440   44 C    0 0 0

   5 B    1     1.3791     2.6061   73 O   -1-1 0
   5 B    1     1.3793     2.6064   77 O    0 0 0
   5 B    1     1.5502     2.9294   61 C   -1-1 0
   5 B    1     2.3895     4.5155    1 B    0-1 0
   5 B    1     2.3895     4.5156    3 B    0-1 0
   5 B    1     2.5629     4.8433   63 C    0 0 0

   6 B    1     1.3791     2.6061   74 O    0 0 0
   6 B    1     1.3793     2.6064   78 O    0 0 0
   6 B    1     1.5502     2.9294   62 C    0 0 0
   6 B    1     2.3895     4.5155    2 B    0 0 0
   6 B    1     2.3895     4.5156    4 B    0 0 0
   6 B    1     2.5629     4.8433   64 C    0 0 0

   7 B    1     1.3795     2.6068   79 O    0 0 0
   7 B    1     1.3795     2.6070   81 O    0-1 0
   7 B    1     1.5513     2.9316   47 C    0 0 0
   7 B    1     2.3905     4.5174   11 B    0 0 0
   7 B    1     2.3905     4.5175    9 B    0-1 0
   7 B    1     2.5648     4.8468   45 C    0-1 0

   8 B    1     1.3795     2.6068   80 O    0 0 0
   8 B    1     1.3795     2.6070   82 O    0 0 0
   8 B    1     1.5513     2.9316   48 C    0 0 0
   8 B    1     2.3905     4.5174   12 B    0 0 0
   8 B    1     2.3905     4.5175   10 B    1 0 0
   8 B    1     2.5648     4.8468   46 C    0 0 0

   9 B    1     1.3795     2.6069   81 O    0 0 0
   9 B    1     1.3797     2.6072   83 O    1 1 0
   9 B    1     1.5516     2.9322   71 C    0 0 0
   9 B    1     2.3905     4.5175    7 B    0 1 0
   9 B    1     2.3911     4.5185   11 B    0 1 0
   9 B    1     2.5651     4.8473   69 C    1 1 0

  10 B    1     1.3795     2.6069   82 O   -1 0 0
  10 B    1     1.3797     2.6072   84 O    0 0 0
  10 B    1     1.5516     2.9322   72 C    0 0 0
  10 B    1     2.3905     4.5175    8 B   -1 0 0
  10 B    1     2.3911     4.5185   12 B   -1 0 0
  10 B    1     2.5651     4.8473   70 C    0 0 0

  11 B    1     1.3795     2.6068   79 O    0 0 0
  11 B    1     1.3796     2.6071   83 O    1 0 0
  11 B    1     1.5516     2.9322   59 C    0 0 0
  11 B    1     2.3905     4.5174    7 B    0 0 0
  11 B    1     2.3911     4.5185    9 B    0-1 0
  11 B    1     2.5651     4.8473   57 C    1 0 0

  12 B    1     1.3795     2.6068   80 O    0 0 0
  12 B    1     1.3796     2.6071   84 O    1 0 0
  12 B    1     1.5516     2.9322   60 C    0 0 0
  12 B    1     2.3905     4.5174    8 B    0 0 0
  12 B    1     2.3911     4.5185   10 B    1 0 0
  12 B    1     2.5651     4.8473   58 C    1 0 0

  13 H    1     1.0913     2.0623   39 C    0 0 0
  13 H    1     2.1472     4.0576   37 C    0 0 0
  13 H    1     2.1680     4.0969   45 C    0 0 0
  13 H    1     2.5202     4.7625   19 H    0 0 0
  13 H    1     2.5676     4.8520   75 O    0 0 0
  13 H    1     2.7321     5.1630    3 B    0 0 0

  14 H    1     1.0913     2.0623   40 C    0 0 0
  14 H    1     2.1472     4.0576   38 C    0 0 0
  14 H    1     2.1680     4.0969   46 C    0 0 0
  14 H    1     2.5202     4.7625   20 H    0 0 0
  14 H    1     2.5676     4.8520   76 O    0 0 0
  14 H    1     2.7321     5.1630    4 B    0 0 0

  15 H    1     1.0914     2.0625   41 C    0 0 0
  15 H    1     2.1493     4.0616   47 C    0 0 0
  15 H    1     2.1666     4.0942   43 C    0 0 0
  15 H    1     2.5198     4.7618   17 H    0 0 0
  15 H    1     2.5720     4.8604   79 O    0 0 0
  15 H    1     2.7362     5.1707    7 B    0 0 0

  16 H    1     1.0914     2.0625   42 C    0 0 0
  16 H    1     2.1493     4.0616   48 C    0 0 0
  16 H    1     2.1666     4.0942   44 C    0 0 0
  16 H    1     2.5198     4.7618   18 H    0 0 0
  16 H    1     2.5720     4.8604   80 O    0 0 0
  16 H    1     2.7362     5.1707    8 B    0 0 0

  17 H    1     1.0914     2.0624   43 C    0 0 0
  17 H    1     2.1471     4.0575   37 C    0-1 0
  17 H    1     2.1680     4.0970   41 C    0 0 0
  17 H    1     2.5198     4.7618   15 H    0 0 0
  17 H    1     2.5665     4.8500   77 O    0 0 0
  17 H    1     2.7315     5.1618    3 B    0-1 0

  18 H    1     1.0914     2.0624   44 C    0 0 0
  18 H    1     2.1471     4.0575   38 C    0 0 0
  18 H    1     2.1680     4.0970   42 C    0 0 0
  18 H    1     2.5198     4.7618   16 H    0 0 0
  18 H    1     2.5665     4.8500   78 O    0 0 0
  18 H    1     2.7315     5.1618    4 B    0 0 0

  19 H    1     1.0915     2.0626   45 C    0 0 0
  19 H    1     2.1490     4.0610   47 C    0 1 0
  19 H    1     2.1669     4.0948   39 C    0 0 0
  19 H    1     2.5202     4.7625   13 H    0 0 0
  19 H    1     2.5712     4.8588   81 O    0 0 0
  19 H    1     2.7351     5.1686    7 B    0 1 0

  20 H    1     1.0915     2.0626   46 C    0 0 0
  20 H    1     2.1490     4.0610   48 C    0 0 0
  20 H    1     2.1669     4.0948   40 C    0 0 0
  20 H    1     2.5202     4.7625   14 H    0 0 0
  20 H    1     2.5712     4.8588   82 O    0 0 0
  20 H    1     2.7351     5.1686    8 B    0 0 0

  21 H    1     1.0913     2.0623   51 C    0 0 0
  21 H    1     2.1469     4.0571   49 C   -1 0 0
  21 H    1     2.1680     4.0968   57 C    0 0 0
  21 H    1     2.5198     4.7617   27 H    0 0 0
  21 H    1     2.5670     4.8510   75 O    0 0 0
  21 H    1     2.7310     5.1609    1 B    0 0 0

  22 H    1     1.0913     2.0623   52 C    0 0 0
  22 H    1     2.1469     4.0571   50 C    0 1 0
  22 H    1     2.1680     4.0968   58 C    0 0 0
  22 H    1     2.5198     4.7617   28 H    0 0 0
  22 H    1     2.5670     4.8510   76 O    0 1 0
  22 H    1     2.7310     5.1609    2 B    0 1 0

  23 H    1     1.0914     2.0625   53 C    0 0 0
  23 H    1     2.1493     4.0617   59 C    0 0 0
  23 H    1     2.1664     4.0939   55 C    0 0 0
  23 H    1     2.5192     4.7606   25 H    0 0 0
  23 H    1     2.5735     4.8632   79 O    0 0 0
  23 H    1     2.7371     5.1723   11 B    0 0 0

  24 H    1     1.0914     2.0625   54 C    0 0 0
  24 H    1     2.1493     4.0617   60 C    0 0 0
  24 H    1     2.1664     4.0939   56 C    0 0 0
  24 H    1     2.5192     4.7606   26 H    0 0 0
  24 H    1     2.5735     4.8632   80 O    0 0 0
  24 H    1     2.7371     5.1723   12 B    0 0 0

  25 H    1     1.0914     2.0624   55 C    0 0 0
  25 H    1     2.1475     4.0581   49 C    0 0 0
  25 H    1     2.1679     4.0967   53 C    0 0 0
  25 H    1     2.5192     4.7606   23 H    0 0 0
  25 H    1     2.5675     4.8519   73 O    0 0 0
  25 H    1     2.7328     5.1643    1 B    1 0 0

  26 H    1     1.0914     2.0624   56 C    0 0 0
  26 H    1     2.1475     4.0581   50 C    1 1 0
  26 H    1     2.1679     4.0967   54 C    0 0 0
  26 H    1     2.5192     4.7606   24 H    0 0 0
  26 H    1     2.5675     4.8519   74 O    1 1 0
  26 H    1     2.7328     5.1643    2 B    1 1 0

  27 H    1     1.0914     2.0625   57 C    0 0 0
  27 H    1     2.1491     4.0612   59 C   -1 0 0
  27 H    1     2.1666     4.0942   51 C    0 0 0
  27 H    1     2.5198     4.7617   21 H    0 0 0
  27 H    1     2.5723     4.8609   83 O    0 0 0
  27 H    1     2.7355     5.1693   11 B   -1 0 0

  28 H    1     1.0914     2.0625   58 C    0 0 0
  28 H    1     2.1491     4.0612   60 C   -1 0 0
  28 H    1     2.1666     4.0942   52 C    0 0 0
  28 H    1     2.5198     4.7617   22 H    0 0 0
  28 H    1     2.5723     4.8609   84 O    0 0 0
  28 H    1     2.7355     5.1693   12 B   -1 0 0

  29 H    1     1.0914     2.0624   63 C    0 0 0
  29 H    1     2.1475     4.0582   61 C   -1-1 0
  29 H    1     2.1678     4.0966   69 C    0 0 0
  29 H    1     2.5200     4.7621   35 H    0 0 0
  29 H    1     2.5667     4.8503   77 O    0 0 0
  29 H    1     2.7315     5.1618    5 B    0 0 0

  30 H    1     1.0914     2.0624   64 C    0 0 0
  30 H    1     2.1475     4.0582   62 C    0 0 0
  30 H    1     2.1678     4.0966   70 C    0 0 0
  30 H    1     2.5200     4.7621   36 H    0 0 0
  30 H    1     2.5667     4.8503   78 O    0 0 0
  30 H    1     2.7315     5.1618    6 B    0 0 0

  31 H    1     1.0913     2.0623   65 C    0 0 0
  31 H    1     2.1487     4.0605   71 C    0 0 0
  31 H    1     2.1667     4.0945   67 C    0 0 0
  31 H    1     2.5197     4.7616   33 H    0 0 0
  31 H    1     2.5723     4.8610   81 O    0 0 0
  31 H    1     2.7359     5.1701    9 B    0 0 0

  32 H    1     1.0913     2.0623   66 C    0 0 0
  32 H    1     2.1487     4.0605   72 C    0 0 0
  32 H    1     2.1667     4.0945   68 C    0 0 0
  32 H    1     2.5197     4.7616   34 H    0 0 0
  32 H    1     2.5723     4.8610   82 O   -1 0 0
  32 H    1     2.7359     5.1701   10 B    0 0 0

  33 H    1     1.0915     2.0626   67 C    0 0 0
  33 H    1     2.1479     4.0589   61 C    0 0 0
  33 H    1     2.1679     4.0968   65 C    0 0 0
  33 H    1     2.5197     4.7616   31 H    0 0 0
  33 H    1     2.5677     4.8522   73 O    0 0 0
  33 H    1     2.7331     5.1648    5 B    1 1 0

  34 H    1     1.0915     2.0626   68 C    0 0 0
  34 H    1     2.1479     4.0589   62 C    0 0 0
  34 H    1     2.1679     4.0968   66 C    0 0 0
  34 H    1     2.5197     4.7616   32 H    0 0 0
  34 H    1     2.5677     4.8522   74 O    0 0 0
  34 H    1     2.7331     5.1648    6 B    0 0 0

  35 H    1     1.0914     2.0624   69 C    0 0 0
  35 H    1     2.1486     4.0602   71 C   -1-1 0
  35 H    1     2.1668     4.0947   63 C    0 0 0
  35 H    1     2.5200     4.7621   29 H    0 0 0
  35 H    1     2.5717     4.8598   83 O    0 0 0
  35 H    1     2.7349     5.1682    9 B   -1-1 0

  36 H    1     1.0914     2.0624   70 C    0 0 0
  36 H    1     2.1486     4.0602   72 C    0 0 0
  36 H    1     2.1668     4.0947   64 C    0 0 0
  36 H    1     2.5200     4.7621   30 H    0 0 0
  36 H    1     2.5717     4.8598   84 O    0 0 0
  36 H    1     2.7349     5.1682   10 B    0 0 0

  37 C    1     1.4020     2.6495   43 C    0 1 0
  37 C    1     1.4021     2.6495   39 C    0 0 0
  37 C    1     1.5504     2.9298    3 B    0 0 0
  37 C    1     2.1471     4.0575   17 H    0 1 0
  37 C    1     2.1472     4.0576   13 H    0 0 0
  37 C    1     2.4246     4.5817   41 C    0 1 0

  38 C    1     1.4020     2.6495   44 C    0 0 0
  38 C    1     1.4021     2.6495   40 C    0 0 0
  38 C    1     1.5504     2.9298    4 B    0 0 0
  38 C    1     2.1471     4.0575   18 H    0 0 0
  38 C    1     2.1472     4.0576   14 H    0 0 0
  38 C    1     2.4246     4.5817   42 C    0 0 0

  39 C    1     1.0913     2.0623   13 H    0 0 0
  39 C    1     1.3914     2.6294   45 C    0 0 0
  39 C    1     1.4021     2.6495   37 C    0 0 0
  39 C    1     2.1669     4.0948   19 H    0 0 0
  39 C    1     2.4177     4.5688   43 C    0 1 0
  39 C    1     2.4250     4.5825   47 C    0 1 0

  40 C    1     1.0913     2.0623   14 H    0 0 0
  40 C    1     1.3914     2.6294   46 C    0 0 0
  40 C    1     1.4021     2.6495   38 C    0 0 0
  40 C    1     2.1669     4.0948   20 H    0 0 0
  40 C    1     2.4177     4.5688   44 C    0 0 0
  40 C    1     2.4250     4.5825   48 C    0 0 0

  41 C    1     1.0914     2.0625   15 H    0 0 0
  41 C    1     1.3914     2.6293   43 C    0 0 0
  41 C    1     1.4026     2.6505   47 C    0 0 0
  41 C    1     2.1680     4.0970   17 H    0 0 0
  41 C    1     2.4182     4.5697   45 C    0-1 0
  41 C    1     2.4246     4.5817   37 C    0-1 0

  42 C    1     1.0914     2.0625   16 H    0 0 0
  42 C    1     1.3914     2.6293   44 C    0 0 0
  42 C    1     1.4026     2.6505   48 C    0 0 0
  42 C    1     2.1680     4.0970   18 H    0 0 0
  42 C    1     2.4182     4.5697   46 C    0 0 0
  42 C    1     2.4246     4.5817   38 C    0 0 0

  43 C    1     1.0914     2.0624   17 H    0 0 0
  43 C    1     1.3914     2.6293   41 C    0 0 0
  43 C    1     1.4020     2.6495   37 C    0-1 0
  43 C    1     2.1666     4.0942   15 H    0 0 0
  43 C    1     2.4177     4.5688   39 C    0-1 0
  43 C    1     2.4250     4.5826   47 C    0 0 0

  44 C    1     1.0914     2.0624   18 H    0 0 0
  44 C    1     1.3914     2.6293   42 C    0 0 0
  44 C    1     1.4020     2.6495   38 C    0 0 0
  44 C    1     2.1666     4.0942   16 H    0 0 0
  44 C    1     2.4177     4.5688   40 C    0 0 0
  44 C    1     2.4250     4.5826   48 C    0 0 0

  45 C    1     1.0915     2.0626   19 H    0 0 0
  45 C    1     1.3914     2.6294   39 C    0 0 0
  45 C    1     1.4025     2.6504   47 C    0 1 0
  45 C    1     2.1680     4.0969   13 H    0 0 0
  45 C    1     2.4182     4.5697   41 C    0 1 0
  45 C    1     2.4246     4.5818   37 C    0 0 0

  46 C    1     1.0915     2.0626   20 H    0 0 0
  46 C    1     1.3914     2.6294   40 C    0 0 0
  46 C    1     1.4025     2.6504   48 C    0 0 0
  46 C    1     2.1680     4.0969   14 H    0 0 0
  46 C    1     2.4182     4.5697   42 C    0 0 0
  46 C    1     2.4246     4.5818   38 C    0 0 0

  47 C    1     1.4025     2.6504   45 C    0-1 0
  47 C    1     1.4026     2.6505   41 C    0 0 0
  47 C    1     1.5513     2.9316    7 B    0 0 0
  47 C    1     2.1490     4.0610   19 H    0-1 0
  47 C    1     2.1493     4.0616   15 H    0 0 0
  47 C    1     2.4250     4.5825   39 C    0-1 0

  48 C    1     1.4025     2.6504   46 C    0 0 0
  48 C    1     1.4026     2.6505   42 C    0 0 0
  48 C    1     1.5513     2.9316    8 B    0 0 0
  48 C    1     2.1490     4.0610   20 H    0 0 0
  48 C    1     2.1493     4.0616   16 H    0 0 0
  48 C    1     2.4250     4.5825   40 C    0 0 0

  49 C    1     1.4020     2.6494   51 C    1 0 0
  49 C    1     1.4021     2.6495   55 C    0 0 0
  49 C    1     1.5503     2.9297    1 B    1 0 0
  49 C    1     2.1469     4.0571   21 H    1 0 0
  49 C    1     2.1475     4.0581   25 H    0 0 0
  49 C    1     2.4246     4.5818   53 C    0 0 0

  50 C    1     1.4020     2.6494   52 C    0-1 0
  50 C    1     1.4021     2.6495   56 C   -1-1 0
  50 C    1     1.5503     2.9297    2 B    0 0 0
  50 C    1     2.1469     4.0571   22 H    0-1 0
  50 C    1     2.1475     4.0581   26 H   -1-1 0
  50 C    1     2.4246     4.5818   54 C   -1-1 0

  51 C    1     1.0913     2.0623   21 H    0 0 0
  51 C    1     1.3914     2.6293   57 C    0 0 0
  51 C    1     1.4020     2.6494   49 C   -1 0 0
  51 C    1     2.1666     4.0942   27 H    0 0 0
  51 C    1     2.4175     4.5684   55 C   -1 0 0
  51 C    1     2.4251     4.5828   59 C   -1 0 0

  52 C    1     1.0913     2.0623   22 H    0 0 0
  52 C    1     1.3914     2.6293   58 C    0 0 0
  52 C    1     1.4020     2.6494   50 C    0 1 0
  52 C    1     2.1666     4.0942   28 H    0 0 0
  52 C    1     2.4175     4.5684   56 C   -1 0 0
  52 C    1     2.4251     4.5828   60 C   -1 0 0

  53 C    1     1.0914     2.0625   23 H    0 0 0
  53 C    1     1.3915     2.6295   55 C    0 0 0
  53 C    1     1.4026     2.6505   59 C    0 0 0
  53 C    1     2.1679     4.0967   25 H    0 0 0
  53 C    1     2.4179     4.5691   57 C    1 0 0
  53 C    1     2.4246     4.5818   49 C    0 0 0

  54 C    1     1.0914     2.0625   24 H    0 0 0
  54 C    1     1.3915     2.6295   56 C    0 0 0
  54 C    1     1.4026     2.6505   60 C    0 0 0
  54 C    1     2.1679     4.0967   26 H    0 0 0
  54 C    1     2.4179     4.5691   58 C    1 0 0
  54 C    1     2.4246     4.5818   50 C    1 1 0

  55 C    1     1.0914     2.0624   25 H    0 0 0
  55 C    1     1.3915     2.6295   53 C    0 0 0
  55 C    1     1.4021     2.6495   49 C    0 0 0
  55 C    1     2.1664     4.0939   23 H    0 0 0
  55 C    1     2.4175     4.5684   51 C    1 0 0
  55 C    1     2.4253     4.5832   59 C    0 0 0

  56 C    1     1.0914     2.0624   26 H    0 0 0
  56 C    1     1.3915     2.6295   54 C    0 0 0
  56 C    1     1.4021     2.6495   50 C    1 1 0
  56 C    1     2.1664     4.0939   24 H    0 0 0
  56 C    1     2.4175     4.5684   52 C    1 0 0
  56 C    1     2.4253     4.5832   60 C    0 0 0

  57 C    1     1.0914     2.0625   27 H    0 0 0
  57 C    1     1.3914     2.6293   51 C    0 0 0
  57 C    1     1.4025     2.6504   59 C   -1 0 0
  57 C    1     2.1680     4.0968   21 H    0 0 0
  57 C    1     2.4179     4.5691   53 C   -1 0 0
  57 C    1     2.4247     4.5819   49 C   -1 0 0

  58 C    1     1.0914     2.0625   28 H    0 0 0
  58 C    1     1.3914     2.6293   52 C    0 0 0
  58 C    1     1.4025     2.6504   60 C   -1 0 0
  58 C    1     2.1680     4.0968   22 H    0 0 0
  58 C    1     2.4179     4.5691   54 C   -1 0 0
  58 C    1     2.4247     4.5819   50 C    0 1 0

  59 C    1     1.4025     2.6504   57 C    1 0 0
  59 C    1     1.4026     2.6505   53 C    0 0 0
  59 C    1     1.5516     2.9322   11 B    0 0 0
  59 C    1     2.1491     4.0612   27 H    1 0 0
  59 C    1     2.1493     4.0617   23 H    0 0 0
  59 C    1     2.4251     4.5828   51 C    1 0 0

  60 C    1     1.4025     2.6504   58 C    1 0 0
  60 C    1     1.4026     2.6505   54 C    0 0 0
  60 C    1     1.5516     2.9322   12 B    0 0 0
  60 C    1     2.1491     4.0612   28 H    1 0 0
  60 C    1     2.1493     4.0617   24 H    0 0 0
  60 C    1     2.4251     4.5828   52 C    1 0 0

  61 C    1     1.4021     2.6496   63 C    1 1 0
  61 C    1     1.4021     2.6497   67 C    0 0 0
  61 C    1     1.5502     2.9294    5 B    1 1 0
  61 C    1     2.1475     4.0582   29 H    1 1 0
  61 C    1     2.1479     4.0589   33 H    0 0 0
  61 C    1     2.4244     4.5814   65 C    0 0 0

  62 C    1     1.4021     2.6496   64 C    0 0 0
  62 C    1     1.4021     2.6497   68 C    0 0 0
  62 C    1     1.5502     2.9294    6 B    0 0 0
  62 C    1     2.1475     4.0582   30 H    0 0 0
  62 C    1     2.1479     4.0589   34 H    0 0 0
  62 C    1     2.4244     4.5814   66 C    0 0 0

  63 C    1     1.0914     2.0624   29 H    0 0 0
  63 C    1     1.3914     2.6293   69 C    0 0 0
  63 C    1     1.4021     2.6496   61 C   -1-1 0
  63 C    1     2.1668     4.0947   35 H    0 0 0
  63 C    1     2.4179     4.5692   67 C   -1-1 0
  63 C    1     2.4251     4.5827   71 C   -1-1 0

  64 C    1     1.0914     2.0624   30 H    0 0 0
  64 C    1     1.3914     2.6293   70 C    0 0 0
  64 C    1     1.4021     2.6496   62 C    0 0 0
  64 C    1     2.1668     4.0947   36 H    0 0 0
  64 C    1     2.4179     4.5692   68 C    0 0 0
  64 C    1     2.4251     4.5827   72 C    0 0 0

  65 C    1     1.0913     2.0623   31 H    0 0 0
  65 C    1     1.3914     2.6294   67 C    0 0 0
  65 C    1     1.4025     2.6504   71 C    0 0 0
  65 C    1     2.1679     4.0968   33 H    0 0 0
  65 C    1     2.4178     4.5690   69 C    1 1 0
  65 C    1     2.4244     4.5814   61 C    0 0 0

  66 C    1     1.0913     2.0623   32 H    0 0 0
  66 C    1     1.3914     2.6294   68 C    0 0 0
  66 C    1     1.4025     2.6504   72 C    0 0 0
  66 C    1     2.1679     4.0968   34 H    0 0 0
  66 C    1     2.4178     4.5690   70 C    0 0 0
  66 C    1     2.4244     4.5814   62 C    0 0 0

  67 C    1     1.0915     2.0626   33 H    0 0 0
  67 C    1     1.3914     2.6294   65 C    0 0 0
  67 C    1     1.4021     2.6497   61 C    0 0 0
  67 C    1     2.1667     4.0945   31 H    0 0 0
  67 C    1     2.4179     4.5692   63 C    1 1 0
  67 C    1     2.4253     4.5832   71 C    0 0 0

  68 C    1     1.0915     2.0626   34 H    0 0 0
  68 C    1     1.3914     2.6294   66 C    0 0 0
  68 C    1     1.4021     2.6497   62 C    0 0 0
  68 C    1     2.1667     4.0945   32 H    0 0 0
  68 C    1     2.4179     4.5692   64 C    0 0 0
  68 C    1     2.4253     4.5832   72 C    0 0 0

  69 C    1     1.0914     2.0624   35 H    0 0 0
  69 C    1     1.3914     2.6293   63 C    0 0 0
  69 C    1     1.4025     2.6503   71 C   -1-1 0
  69 C    1     2.1678     4.0966   29 H    0 0 0
  69 C    1     2.4178     4.5690   65 C   -1-1 0
  69 C    1     2.4245     4.5817   61 C   -1-1 0

  70 C    1     1.0914     2.0624   36 H    0 0 0
  70 C    1     1.3914     2.6293   64 C    0 0 0
  70 C    1     1.4025     2.6503   72 C    0 0 0
  70 C    1     2.1678     4.0966   30 H    0 0 0
  70 C    1     2.4178     4.5690   66 C    0 0 0
  70 C    1     2.4245     4.5817   62 C    0 0 0

  71 C    1     1.4025     2.6503   69 C    1 1 0
  71 C    1     1.4025     2.6504   65 C    0 0 0
  71 C    1     1.5516     2.9322    9 B    0 0 0
  71 C    1     2.1486     4.0602   35 H    1 1 0
  71 C    1     2.1487     4.0605   31 H    0 0 0
  71 C    1     2.4251     4.5827   63 C    1 1 0

  72 C    1     1.4025     2.6503   70 C    0 0 0
  72 C    1     1.4025     2.6504   66 C    0 0 0
  72 C    1     1.5516     2.9322   10 B    0 0 0
  72 C    1     2.1486     4.0602   36 H    0 0 0
  72 C    1     2.1487     4.0605   32 H    0 0 0
  72 C    1     2.4251     4.5827   64 C    0 0 0

  73 O    1     1.3791     2.6061    1 B    1 0 0
  73 O    1     1.3791     2.6061    5 B    1 1 0
  73 O    1     2.3880     4.5126   75 O    1 0 0
  73 O    1     2.3882     4.5130   77 O    1 1 0
  73 O    1     2.5383     4.7966   61 C    0 0 0
  73 O    1     2.5384     4.7968   49 C    0 0 0

  74 O    1     1.3791     2.6061    2 B    0 0 0
  74 O    1     1.3791     2.6061    6 B    0 0 0
  74 O    1     2.3880     4.5126   76 O    0 0 0
  74 O    1     2.3882     4.5130   78 O    0 0 0
  74 O    1     2.5383     4.7966   62 C    0 0 0
  74 O    1     2.5384     4.7968   50 C    0 0 0

  75 O    1     1.3793     2.6065    1 B    0 0 0
  75 O    1     1.3793     2.6065    3 B    0 0 0
  75 O    1     2.3880     4.5126   73 O   -1 0 0
  75 O    1     2.3882     4.5131   77 O    0 1 0
  75 O    1     2.5391     4.7981   37 C    0 0 0
  75 O    1     2.5395     4.7990   49 C   -1 0 0

  76 O    1     1.3793     2.6065    2 B    0 0 0
  76 O    1     1.3793     2.6065    4 B    0 0 0
  76 O    1     2.3880     4.5126   74 O    0 0 0
  76 O    1     2.3882     4.5131   78 O    0 0 0
  76 O    1     2.5391     4.7981   38 C    0 0 0
  76 O    1     2.5395     4.7990   50 C    0 0 0

  77 O    1     1.3793     2.6064    5 B    0 0 0
  77 O    1     1.3793     2.6065    3 B    0-1 0
  77 O    1     2.3882     4.5130   73 O   -1-1 0
  77 O    1     2.3882     4.5131   75 O    0-1 0
  77 O    1     2.5390     4.7980   37 C    0-1 0
  77 O    1     2.5391     4.7982   61 C   -1-1 0

  78 O    1     1.3793     2.6064    6 B    0 0 0
  78 O    1     1.3793     2.6065    4 B    0 0 0
  78 O    1     2.3882     4.5130   74 O    0 0 0
  78 O    1     2.3882     4.5131   76 O    0 0 0
  78 O    1     2.5390     4.7980   38 C    0 0 0
  78 O    1     2.5391     4.7982   62 C    0 0 0

  79 O    1     1.3795     2.6068   11 B    0 0 0
  79 O    1     1.3795     2.6068    7 B    0 0 0
  79 O    1     2.3880     4.5126   83 O    1 0 0
  79 O    1     2.3884     4.5134   81 O    0-1 0
  79 O    1     2.5400     4.7998   47 C    0 0 0
  79 O    1     2.5403     4.8005   59 C    0 0 0

  80 O    1     1.3795     2.6068   12 B    0 0 0
  80 O    1     1.3795     2.6068    8 B    0 0 0
  80 O    1     2.3880     4.5126   84 O    1 0 0
  80 O    1     2.3884     4.5134   82 O    0 0 0
  80 O    1     2.5400     4.7998   48 C    0 0 0
  80 O    1     2.5403     4.8005   60 C    0 0 0

  81 O    1     1.3795     2.6069    9 B    0 0 0
  81 O    1     1.3795     2.6070    7 B    0 1 0
  81 O    1     2.3881     4.5128   83 O    1 1 0
  81 O    1     2.3884     4.5134   79 O    0 1 0
  81 O    1     2.5404     4.8006   47 C    0 1 0
  81 O    1     2.5405     4.8008   71 C    0 0 0

  82 O    1     1.3795     2.6069   10 B    1 0 0
  82 O    1     1.3795     2.6070    8 B    0 0 0
  82 O    1     2.3881     4.5128   84 O    1 0 0
  82 O    1     2.3884     4.5134   80 O    0 0 0
  82 O    1     2.5404     4.8006   48 C    0 0 0
  82 O    1     2.5405     4.8008   72 C    1 0 0

  83 O    1     1.3796     2.6071   11 B   -1 0 0
  83 O    1     1.3797     2.6072    9 B   -1-1 0
  83 O    1     2.3880     4.5126   79 O   -1 0 0
  83 O    1     2.3881     4.5128   81 O   -1-1 0
  83 O    1     2.5409     4.8016   71 C   -1-1 0
  83 O    1     2.5410     4.8019   59 C   -1 0 0

  84 O    1     1.3796     2.6071   12 B   -1 0 0
  84 O    1     1.3797     2.6072   10 B    0 0 0
  84 O    1     2.3880     4.5126   80 O   -1 0 0
  84 O    1     2.3881     4.5128   82 O   -1 0 0
  84 O    1     2.5409     4.8016   72 C    0 0 0
  84 O    1     2.5410     4.8019   60 C   -1 0 0


 SYMMETRY ALLOWED INTERNAL DEGREE(S) OF FREEDOM: 249
 TTTTTTTTTTTTTTTTTTTTTTTTTTTTTT SYMM        TELAPSE        2.95 TCPU        2.95
 TTTTTTTTTTTTTTTTTTTTTTTTTTTTTT INT_SCREEN  TELAPSE        3.17 TCPU        3.16

 DFT PARAMETERS

     ATOM       ELECTRONS   NET CHARGE   R(ANGSTROM)
   1   5  B       5.0000      0.0000     0.89000000
  13   1  H       1.0000      0.0000     1.11000000
  37   6  C       6.0000      0.0000     0.77000000
  73   8  O       8.0000      0.0000     0.74000000

 SIZE OF GRID=    2568366
 TTTTTTTTTTTTTTTTTTTTTTTTTTTTTT MAKE_GRID2  TELAPSE       24.71 TCPU       24.68
 BECKE WEIGHT FUNCTION
 RADSAFE =     2.00
 TOLERANCES - DENSITY:10**- 6; POTENTIAL:10**- 9; GRID WGT:10**-14

 RADIAL INTEGRATION  - INTERVALS (POINTS,UPPER LIMIT):            1( 75,  4.0*R)

 ANGULAR INTEGRATION - INTERVALS (ACCURACY LEVEL [N. POINTS] UPPER LIMIT):
  1(  4[  86]   0.2)  2(  8[ 194]   0.5)  3( 12[ 350]   0.9)  4( 16[ 974]   3.5)
  5( 12[ 350]9999.0)
 TTTTTTTTTTTTTTTTTTTTTTTTTTTTTT INT_CALC    TELAPSE       24.98 TCPU       24.95
 EEEEEEEEEE INT_CALC TERMINATION  DATE 19 02 2026 TIME 20:15:08.8

 *******************************************************************************
 cof-1_z36_L040_serr                                                             
 CRYSTAL - SCF - TYPE OF CALCULATION :  RESTRICTED CLOSED SHELL
 *******************************************************************************

 CAPPA:IS1  2;IS2  2;IS3  8; K PTS MONK NET  20; SYMMOPS:K SPACE   2;G SPACE   1

 TTTTTTTTTTTTTTTTTTTTTTTTTTTTTT SDIK        TELAPSE       27.03 TCPU       55.59

 AAAAAAAAAAAAAAAAAAAAAAAAAAAAAAAAAAAAAAAAAAAAAAAAAAAAAAAAAAAAAAAAAAAAAAAAAAAAAAA
         ATOMIC WAVEFUNCTION(S)


 NUCLEAR CHARGE  5.0  SYMMETRY SPECIES            S    P
 N. ELECTRONS    5.0  NUMBER OF PRIMITIVE GTOS    8    4
                      NUMBER OF CONTRACTED GTOS   4    2
                      NUMBER OF CLOSED SHELLS     2    0
                      OPEN SHELL OCCUPATION       0    1

  ZNUC  SCFIT    TOTAL HF ENERGY   KINETIC ENERGY   VIRIAL THEOREM ACCURACY
   5.0    11    -2.451164084E+01  2.462155050E+01 -1.995536038E+00  1.5E-06

 NUCLEAR CHARGE  1.0  SYMMETRY SPECIES            S
 N. ELECTRONS    1.0  NUMBER OF PRIMITIVE GTOS    4
                      NUMBER OF CONTRACTED GTOS   2
                      NUMBER OF CLOSED SHELLS     0
                      OPEN SHELL OCCUPATION       1

  ZNUC  SCFIT    TOTAL HF ENERGY   KINETIC ENERGY   VIRIAL THEOREM ACCURACY
   1.0     1    -4.977266687E-01  5.190767460E-01 -1.958869132E+00  0.0E+00

 NUCLEAR CHARGE  6.0  SYMMETRY SPECIES            S    P
 N. ELECTRONS    6.0  NUMBER OF PRIMITIVE GTOS    8    4
                      NUMBER OF CONTRACTED GTOS   4    2
                      NUMBER OF CLOSED SHELLS     2    0
                      OPEN SHELL OCCUPATION       0    2

  ZNUC  SCFIT    TOTAL HF ENERGY   KINETIC ENERGY   VIRIAL THEOREM ACCURACY
   6.0     9    -3.766704647E+01  3.775180683E+01 -1.997754800E+00  1.1E-06

 NUCLEAR CHARGE  8.0  SYMMETRY SPECIES            S    P
 N. ELECTRONS    8.0  NUMBER OF PRIMITIVE GTOS    8    4
                      NUMBER OF CONTRACTED GTOS   4    2
                      NUMBER OF CLOSED SHELLS     2    0
                      OPEN SHELL OCCUPATION       0    4

  ZNUC  SCFIT    TOTAL HF ENERGY   KINETIC ENERGY   VIRIAL THEOREM ACCURACY
   8.0    12    -7.477373220E+01  7.477365593E+01 -2.000001020E+00  3.8E-06

 AAAAAAAAAAAAAAAAAAAAAAAAAAAAAAAAAAAAAAAAAAAAAAAAAAAAAAAAAAAAAAAAAAAAAAAAAAAAAAA

 CHARGE NORMALIZATION FACTOR   1.00000000
 TOTAL ATOMIC CHARGES:
   5.0000000   5.0000000   5.0000000   5.0000000   5.0000000   5.0000000
   5.0000000   5.0000000   5.0000000   5.0000000   5.0000000   5.0000000
   1.0000000   1.0000000   1.0000000   1.0000000   1.0000000   1.0000000
   1.0000000   1.0000000   1.0000000   1.0000000   1.0000000   1.0000000
   1.0000000   1.0000000   1.0000000   1.0000000   1.0000000   1.0000000
   1.0000000   1.0000000   1.0000000   1.0000000   1.0000000   1.0000000
   6.0000000   6.0000000   6.0000000   6.0000000   6.0000000   6.0000000
   6.0000000   6.0000000   6.0000000   6.0000000   6.0000000   6.0000000
   6.0000000   6.0000000   6.0000000   6.0000000   6.0000000   6.0000000
   6.0000000   6.0000000   6.0000000   6.0000000   6.0000000   6.0000000
   6.0000000   6.0000000   6.0000000   6.0000000   6.0000000   6.0000000
   6.0000000   6.0000000   6.0000000   6.0000000   6.0000000   6.0000000
   8.0000000   8.0000000   8.0000000   8.0000000   8.0000000   8.0000000
   8.0000000   8.0000000   8.0000000   8.0000000   8.0000000   8.0000000
 TTTTTTTTTTTTTTTTTTTTTTTTTTTTTT MOQGAD      TELAPSE       27.13 TCPU       58.82
 TTTTTTTTTTTTTTTTTTTTTTTTTTTTTT SHELLXN     TELAPSE       47.32 TCPU      704.08
 TTTTTTTTTTTTTTTTTTTTTTTTTTTTTT MONMO3      TELAPSE       47.95 TCPU      724.10
 NUMERICALLY INTEGRATED DENSITY    395.9999495386
 TTTTTTTTTTTTTTTTTTTTTTTTTTTTTT NUMDFT      TELAPSE       49.60 TCPU      776.78
 CYC   0 ETOT(AU) -2.591930647303E+03 DETOT -2.59E+03 tst  0.00E+00 PX  1.00E+00
 TTTTTTTTTTTTTTTTTTTTTTTTTTTTTT DIIS        TELAPSE       49.72 TCPU      780.77
 TTTTTTTTTTTTTTTTTTTTTTTTTTTTTT FDIK        TELAPSE       51.90 TCPU      850.32
 INSULATING STATE
 TOP OF VALENCE BANDS -    BAND    198; K    3; EIG -3.1109602E-01 AU
 TOP OF VALENCE BANDS -    BAND    198; K    1; EIG -3.1126020E-01 AU
 BOTTOM OF VIRTUAL BANDS - BAND    199; K    1; EIG -1.6181769E-01 AU
 INDIRECT ENERGY BAND GAP:   4.0621 eV
 TTTTTTTTTTTTTTTTTTTTTTTTTTTTTT PDIG        TELAPSE       53.60 TCPU      857.25
 CHARGE NORMALIZATION FACTOR   1.00000000
 TOTAL ATOMIC CHARGES:
   4.1480692   4.1421567   4.1581738   4.1648449   4.1584032   4.1651119
   4.1647004   4.1580484   4.1644813   4.1578177   4.1418493   4.1477014
   0.7854617   0.7855182   0.7856310   0.7855752   0.7840602   0.7851031
   0.7852222   0.7841787   0.7859039   0.7860774   0.7862472   0.7860689
   0.7858910   0.7860677   0.7862084   0.7860294   0.7840609   0.7851047
   0.7852870   0.7842415   0.7854139   0.7854691   0.7856254   0.7855678
   6.0462837   6.0430761   6.2673747   6.2668484   6.2668166   6.2673425
   6.2662501   6.2650446   6.2649890   6.2662009   6.0423438   6.0455314
   6.0490689   6.0492729   6.2631157   6.2639241   6.2640014   6.2631781
   6.2630321   6.2638491   6.2640213   6.2631879   6.0480133   6.0478323
   6.0466490   6.0434387   6.2660324   6.2648102   6.2653590   6.2665790
   6.2670107   6.2664693   6.2670869   6.2676185   6.0418806   6.0450656
   8.6987450   8.6937666   8.6988570   8.6938809   8.7025577   8.6908981
   8.6941985   8.6991734   8.6913072   8.7029259   8.6943679   8.6993501
 TTTTTTTTTTTTTTTTTTTTTTTTTTTTTT MOQGAD      TELAPSE       53.70 TCPU      857.35
 TTTTTTTTTTTTTTTTTTTTTTTTTTTTTT SHELLXN     TELAPSE       74.31 TCPU     1514.49
 TTTTTTTTTTTTTTTTTTTTTTTTTTTTTT MONMO3      TELAPSE       74.94 TCPU     1534.71
 NUMERICALLY INTEGRATED DENSITY    395.9999593295
 TTTTTTTTTTTTTTTTTTTTTTTTTTTTTT NUMDFT      TELAPSE       76.63 TCPU     1588.55
 CYC   1 ETOT(AU) -2.577655560677E+03 DETOT  1.43E+01 tst  0.00E+00 PX  1.00E+00
 TTTTTTTTTTTTTTTTTTTTTTTTTTTTTT DIIS        TELAPSE       76.87 TCPU     1595.53
 DIIS TEST: 0.21792E+01 AT SCF   CYCLE   1 - MIX   30 %
 TTTTTTTTTTTTTTTTTTTTTTTTTTTTTT FDIK        TELAPSE       79.02 TCPU     1664.10
 INSULATING STATE
 TOP OF VALENCE BANDS -    BAND    198; K    3; EIG -2.2283606E-01 AU
 TOP OF VALENCE BANDS -    BAND    198; K    1; EIG -2.2294819E-01 AU
 BOTTOM OF VIRTUAL BANDS - BAND    199; K    1; EIG -8.5553262E-02 AU
 INDIRECT ENERGY BAND GAP:   3.7357 eV
 TTTTTTTTTTTTTTTTTTTTTTTTTTTTTT PDIG        TELAPSE       80.74 TCPU     1671.08
 CHARGE NORMALIZATION FACTOR   1.00000000
 TOTAL ATOMIC CHARGES:
   4.6537030   4.6685087   4.6796172   4.7128786   4.6795560   4.7129133
   4.7130885   4.6799350   4.7130580   4.6799140   4.6687628   4.6536804
   0.9127443   0.8999724   0.9000649   0.9127298   0.9208190   0.9149907
   0.9150359   0.9209004   0.9064774   0.8924208   0.8924054   0.9066137
   0.9064597   0.8924018   0.8923928   0.9065547   0.9208130   0.9149779
   0.9151042   0.9209727   0.9126802   0.8999089   0.9000726   0.9127146
   5.8637093   5.8770300   6.1484875   6.1152189   6.1156862   6.1489383
   6.1340910   6.1493620   6.1500374   6.1349338   5.8796836   5.8663869
   5.8869167   5.9057649   6.1386101   6.1542737   6.1551688   6.1393752
   6.1388270   6.1543987   6.1551391   6.1393809   5.9089467   5.8898588
   5.8636305   5.8769871   6.1342002   6.1493898   6.1498978   6.1348572
   6.1487174   6.1154347   6.1154097   6.1486677   5.8799180   5.8665840
   8.3388244   8.3262150   8.3391940   8.3265639   8.3584059   8.3414052
   8.3260895   8.3386031   8.3411497   8.3583452   8.3264772   8.3389639
 TTTTTTTTTTTTTTTTTTTTTTTTTTTTTT MOQGAD      TELAPSE       80.84 TCPU     1671.19
 TTTTTTTTTTTTTTTTTTTTTTTTTTTTTT SHELLXN     TELAPSE      102.01 TCPU     2346.05
 TTTTTTTTTTTTTTTTTTTTTTTTTTTTTT MONMO3      TELAPSE      102.64 TCPU     2366.42
 NUMERICALLY INTEGRATED DENSITY    395.9999517451
 TTTTTTTTTTTTTTTTTTTTTTTTTTTTTT NUMDFT      TELAPSE      104.32 TCPU     2419.93
 CYC   2 ETOT(AU) -2.578041440090E+03 DETOT -3.86E-01 tst  4.09E-03 PX  1.60E-01
 TTTTTTTTTTTTTTTTTTTTTTTTTTTTTT DIIS        TELAPSE      104.61 TCPU     2426.99
 DIIS TEST: 0.89511E+00 AT SCF   CYCLE   2 - DIIS ACTIVE - HISTORY:     2 CYCLES
 TTTTTTTTTTTTTTTTTTTTTTTTTTTTTT FDIK        TELAPSE      106.76 TCPU     2495.35
 INSULATING STATE
 TOP OF VALENCE BANDS -    BAND    198; K    3; EIG -2.3537208E-01 AU
 TOP OF VALENCE BANDS -    BAND    198; K    1; EIG -2.3553481E-01 AU
 BOTTOM OF VIRTUAL BANDS - BAND    199; K    1; EIG -8.1730085E-02 AU
 INDIRECT ENERGY BAND GAP:   4.1808 eV
 TTTTTTTTTTTTTTTTTTTTTTTTTTTTTT PDIG        TELAPSE      108.46 TCPU     2502.34
 CHARGE NORMALIZATION FACTOR   1.00000000
 TOTAL ATOMIC CHARGES:
   4.4664060   4.4604471   4.4853281   4.5063043   4.4854152   4.5064353
   4.5059558   4.4849133   4.5057913   4.4847292   4.4599080   4.4661852
   0.8929711   0.8781080   0.8781548   0.8932220   0.8941708   0.8936177
   0.8937422   0.8942012   0.8859917   0.8775361   0.8779572   0.8860571
   0.8860192   0.8775478   0.8779077   0.8859683   0.8941725   0.8936184
   0.8937879   0.8942794   0.8929621   0.8781126   0.8781070   0.8931569
   5.9016463   5.8903348   6.1586550   6.1702832   6.1700225   6.1584347
   6.1611278   6.1497469   6.1490191   6.1600411   5.8891508   5.9004277
   5.9211178   5.9087577   6.1596110   6.1681280   6.1675827   6.1593804
   6.1597640   6.1682367   6.1675093   6.1593018   5.9070582   5.9199673
   5.9019592   5.8906700   6.1611409   6.1496396   6.1491499   6.1601498
   6.1585897   6.1701562   6.1700023   6.1584965   5.8888561   5.9001103
   8.5203414   8.5159916   8.5204783   8.5161489   8.5252208   8.5046262
   8.5161452   8.5206728   8.5048378   8.5249263   8.5163247   8.5208723
 TTTTTTTTTTTTTTTTTTTTTTTTTTTTTT MOQGAD      TELAPSE      108.57 TCPU     2502.44
 TTTTTTTTTTTTTTTTTTTTTTTTTTTTTT SHELLXN     TELAPSE      129.74 TCPU     3177.76
 TTTTTTTTTTTTTTTTTTTTTTTTTTTTTT MONMO3      TELAPSE      130.38 TCPU     3198.10
 NUMERICALLY INTEGRATED DENSITY    395.9999520350
 TTTTTTTTTTTTTTTTTTTTTTTTTTTTTT NUMDFT      TELAPSE      132.08 TCPU     3252.50
 CYC   3 ETOT(AU) -2.578226322314E+03 DETOT -1.85E-01 tst  6.26E-04 PX  6.63E-02
 TTTTTTTTTTTTTTTTTTTTTTTTTTTTTT DIIS        TELAPSE      132.32 TCPU     3259.56
 DIIS TEST: 0.30498E-01 AT SCF   CYCLE   3 - DIIS ACTIVE - HISTORY:     3 CYCLES
 TTTTTTTTTTTTTTTTTTTTTTTTTTTTTT FDIK        TELAPSE      134.44 TCPU     3327.03
 INSULATING STATE
 TOP OF VALENCE BANDS -    BAND    198; K    3; EIG -2.4499301E-01 AU
 TOP OF VALENCE BANDS -    BAND    198; K    1; EIG -2.4510190E-01 AU
 BOTTOM OF VIRTUAL BANDS - BAND    199; K    1; EIG -9.0093521E-02 AU
 INDIRECT ENERGY BAND GAP:   4.2150 eV
 TTTTTTTTTTTTTTTTTTTTTTTTTTTTTT PDIG        TELAPSE      136.13 TCPU     3334.01
 CHARGE NORMALIZATION FACTOR   1.00000000
 TOTAL ATOMIC CHARGES:
   4.4699839   4.4675228   4.4908227   4.5084054   4.4908908   4.5085308
   4.5085287   4.4910237   4.5083633   4.4908680   4.4676391   4.4698414
   0.8727885   0.8654928   0.8656616   0.8727553   0.8806199   0.8729374
   0.8729534   0.8806611   0.8678914   0.8587067   0.8585969   0.8681477
   0.8679118   0.8587263   0.8585428   0.8680531   0.8806467   0.8729418
   0.8730062   0.8807118   0.8727679   0.8654624   0.8656338   0.8727047
   5.9341542   5.9430763   6.1767275   6.1532564   6.1537704   6.1769914
   6.1612279   6.1792786   6.1805774   6.1631358   5.9461774   5.9372966
   5.9509375   5.9691797   6.1644876   6.1850937   6.1862772   6.1654512
   6.1644814   6.1849948   6.1864056   6.1655855   5.9723925   5.9534901
   5.9341331   5.9431215   6.1611815   6.1791268   6.1806632   6.1632975
   6.1766360   6.1531737   6.1537868   6.1770365   5.9462410   5.9373157
   8.4821021   8.4743518   8.4823978   8.4746153   8.4982064   8.4845915
   8.4744757   8.4819061   8.4845768   8.4988354   8.4748106   8.4822281
 TTTTTTTTTTTTTTTTTTTTTTTTTTTTTT MOQGAD      TELAPSE      136.23 TCPU     3334.11
 TTTTTTTTTTTTTTTTTTTTTTTTTTTTTT SHELLXN     TELAPSE      157.27 TCPU     4005.22
 TTTTTTTTTTTTTTTTTTTTTTTTTTTTTT MONMO3      TELAPSE      157.91 TCPU     4025.75
 NUMERICALLY INTEGRATED DENSITY    395.9999528546
 TTTTTTTTTTTTTTTTTTTTTTTTTTTTTT NUMDFT      TELAPSE      159.60 TCPU     4079.72
 CYC   4 ETOT(AU) -2.578232770475E+03 DETOT -6.45E-03 tst  3.00E-05 PX  1.55E-02
 TTTTTTTTTTTTTTTTTTTTTTTTTTTTTT DIIS        TELAPSE      159.82 TCPU     4086.45
 DIIS TEST: 0.90320E-02 AT SCF   CYCLE   4 - DIIS ACTIVE - HISTORY:     4 CYCLES
 TTTTTTTTTTTTTTTTTTTTTTTTTTTTTT FDIK        TELAPSE      161.91 TCPU     4153.05
 INSULATING STATE
 TOP OF VALENCE BANDS -    BAND    198; K    3; EIG -2.4353101E-01 AU
 TOP OF VALENCE BANDS -    BAND    198; K    1; EIG -2.4365547E-01 AU
 BOTTOM OF VIRTUAL BANDS - BAND    199; K    1; EIG -8.9944573E-02 AU
 INDIRECT ENERGY BAND GAP:   4.1793 eV
 TTTTTTTTTTTTTTTTTTTTTTTTTTTTTT PDIG        TELAPSE      163.59 TCPU     4160.02
 CHARGE NORMALIZATION FACTOR   1.00000000
 TOTAL ATOMIC CHARGES:
   4.4700430   4.4692578   4.4911887   4.5139946   4.4912607   4.5141157
   4.5138161   4.4910004   4.5136638   4.4908381   4.4689122   4.4699437
   0.8773937   0.8653421   0.8654023   0.8775941   0.8818320   0.8780855
   0.8782802   0.8819489   0.8704477   0.8617799   0.8621784   0.8705321
   0.8704536   0.8617747   0.8621441   0.8704569   0.8818350   0.8780843
   0.8783335   0.8820295   0.8773623   0.8653227   0.8653738   0.8775480
   5.9259050   5.9252113   6.1705759   6.1661035   6.1659257   6.1705549
   6.1694575   6.1657024   6.1646532   6.1679225   5.9237362   5.9244577
   5.9482200   5.9452111   6.1692043   6.1789235   6.1784364   6.1689477
   6.1694175   6.1790499   6.1783512   6.1688449   5.9435968   5.9471858
   5.9261394   5.9254770   6.1694771   6.1656175   6.1647181   6.1679993
   6.1706027   6.1660630   6.1658392   6.1705285   5.9235434   5.9242343
   8.4938395   8.4877095   8.4940132   8.4878955   8.5038128   8.4849311
   8.4877375   8.4941248   8.4849916   8.5032388   8.4879588   8.4943425
 TTTTTTTTTTTTTTTTTTTTTTTTTTTTTT MOQGAD      TELAPSE      163.70 TCPU     4160.12
 TTTTTTTTTTTTTTTTTTTTTTTTTTTTTT SHELLXN     TELAPSE      184.52 TCPU     4824.16
 TTTTTTTTTTTTTTTTTTTTTTTTTTTTTT MONMO3      TELAPSE      185.16 TCPU     4844.70
 NUMERICALLY INTEGRATED DENSITY    395.9999527936
 TTTTTTTTTTTTTTTTTTTTTTTTTTTTTT NUMDFT      TELAPSE      186.85 TCPU     4898.62
 CYC   5 ETOT(AU) -2.578234817474E+03 DETOT -2.05E-03 tst  6.10E-06 PX  8.38E-03
 TTTTTTTTTTTTTTTTTTTTTTTTTTTTTT DIIS        TELAPSE      187.09 TCPU     4905.49
 DIIS TEST: 0.34961E-03 AT SCF   CYCLE   5 - DIIS ACTIVE - HISTORY:     5 CYCLES
 TTTTTTTTTTTTTTTTTTTTTTTTTTTTTT FDIK        TELAPSE      189.18 TCPU     4972.04
 INSULATING STATE
 TOP OF VALENCE BANDS -    BAND    198; K    3; EIG -2.4315839E-01 AU
 TOP OF VALENCE BANDS -    BAND    198; K    1; EIG -2.4328512E-01 AU
 BOTTOM OF VIRTUAL BANDS - BAND    199; K    1; EIG -8.9153345E-02 AU
 INDIRECT ENERGY BAND GAP:   4.1907 eV
 TTTTTTTTTTTTTTTTTTTTTTTTTTTTTT PDIG        TELAPSE      190.85 TCPU     4979.00
 CHARGE NORMALIZATION FACTOR   1.00000000
 TOTAL ATOMIC CHARGES:
   4.4704850   4.4692697   4.4916874   4.5121072   4.4917508   4.5122323
   4.5121829   4.4917838   4.5120230   4.4916321   4.4693488   4.4703095
   0.8778230   0.8671207   0.8673008   0.8778183   0.8837949   0.8783751
   0.8783277   0.8837896   0.8726174   0.8627637   0.8626530   0.8728732
   0.8726443   0.8627853   0.8625949   0.8727769   0.8838170   0.8783769
   0.8783805   0.8838450   0.8778076   0.8670978   0.8672698   0.8777626
   5.9209787   5.9226150   6.1733422   6.1601622   6.1605863   6.1734539
   6.1608282   6.1713935   6.1731169   6.1632866   5.9261437   5.9244853
   5.9373697   5.9470110   6.1641092   6.1812463   6.1824479   6.1651308
   6.1640743   6.1811434   6.1825853   6.1652727   5.9502798   5.9399267
   5.9210181   5.9227136   6.1607984   6.1712492   6.1732213   6.1634406
   6.1732146   6.1600395   6.1606219   6.1735396   5.9261355   5.9244409
   8.4939600   8.4863120   8.4942371   8.4865598   8.5051790   8.4898844
   8.4865101   8.4937620   8.4899883   8.5060681   8.4868143   8.4940732
 TTTTTTTTTTTTTTTTTTTTTTTTTTTTTT MOQGAD      TELAPSE      190.96 TCPU     4979.10
 TTTTTTTTTTTTTTTTTTTTTTTTTTTTTT SHELLXN     TELAPSE      211.73 TCPU     5641.76
 TTTTTTTTTTTTTTTTTTTTTTTTTTTTTT MONMO3      TELAPSE      212.38 TCPU     5662.31
 NUMERICALLY INTEGRATED DENSITY    395.9999527588
 TTTTTTTTTTTTTTTTTTTTTTTTTTTTTT NUMDFT      TELAPSE      214.07 TCPU     5716.31
 CYC   6 ETOT(AU) -2.578234840854E+03 DETOT -2.34E-05 tst  2.56E-06 PX  2.54E-03
 TTTTTTTTTTTTTTTTTTTTTTTTTTTTTT DIIS        TELAPSE      214.33 TCPU     5723.19
 DIIS TEST: 0.29218E-03 AT SCF   CYCLE   6 - DIIS ACTIVE - HISTORY:     6 CYCLES
 TTTTTTTTTTTTTTTTTTTTTTTTTTTTTT FDIK        TELAPSE      216.41 TCPU     5789.43
 INSULATING STATE
 TOP OF VALENCE BANDS -    BAND    198; K    3; EIG -2.4324233E-01 AU
 TOP OF VALENCE BANDS -    BAND    198; K    1; EIG -2.4336911E-01 AU
 BOTTOM OF VIRTUAL BANDS - BAND    199; K    1; EIG -8.9299296E-02 AU
 INDIRECT ENERGY BAND GAP:   4.1890 eV
 TTTTTTTTTTTTTTTTTTTTTTTTTTTTTT PDIG        TELAPSE      218.09 TCPU     5796.41
 CHARGE NORMALIZATION FACTOR   1.00000000
 TOTAL ATOMIC CHARGES:
   4.4708379   4.4691694   4.4916269   4.5127856   4.4916990   4.5129086
   4.5126593   4.4915121   4.5125032   4.4913514   4.4689105   4.4707036
   0.8781756   0.8667456   0.8668296   0.8783092   0.8831464   0.8786981
   0.8788411   0.8832358   0.8721164   0.8627275   0.8629857   0.8722426
   0.8721294   0.8627315   0.8629442   0.8721600   0.8831573   0.8787004
   0.8788919   0.8833056   0.8781511   0.8667264   0.8667986   0.8782593
   5.9239885   5.9245633   6.1712752   6.1629256   6.1629660   6.1713418
   6.1652481   6.1686477   6.1682345   6.1646552   5.9243703   5.9238367
   5.9433052   5.9465829   6.1661066   6.1799551   6.1799393   6.1662066
   6.1662474   6.1800104   6.1799200   6.1661769   5.9463460   5.9432958
   5.9241523   5.9247655   6.1652397   6.1685326   6.1683205   6.1647732
   6.1712496   6.1628598   6.1629228   6.1713487   5.9242481   5.9236762
   8.4934608   8.4868376   8.4936673   8.4870439   8.5047534   8.4875815
   8.4869156   8.4936293   8.4876242   8.5045310   8.4871685   8.4938756
 TTTTTTTTTTTTTTTTTTTTTTTTTTTTTT MOQGAD      TELAPSE      218.19 TCPU     5796.51
 TTTTTTTTTTTTTTTTTTTTTTTTTTTTTT SHELLXN     TELAPSE      238.91 TCPU     6457.15
 TTTTTTTTTTTTTTTTTTTTTTTTTTTTTT MONMO3      TELAPSE      239.54 TCPU     6477.42
 NUMERICALLY INTEGRATED DENSITY    395.9999527532
 TTTTTTTTTTTTTTTTTTTTTTTTTTTTTT NUMDFT      TELAPSE      241.21 TCPU     6530.92
 CYC   7 ETOT(AU) -2.578234915249E+03 DETOT -7.44E-05 tst  7.65E-07 PX  1.35E-03
 TTTTTTTTTTTTTTTTTTTTTTTTTTTTTT DIIS        TELAPSE      241.50 TCPU     6537.87
 DIIS TEST: 0.48383E-05 AT SCF   CYCLE   7 - DIIS ACTIVE - HISTORY:     7 CYCLES
 TTTTTTTTTTTTTTTTTTTTTTTTTTTTTT FDIK        TELAPSE      243.58 TCPU     6603.85
 INSULATING STATE
 TOP OF VALENCE BANDS -    BAND    198; K    3; EIG -2.4324701E-01 AU
 TOP OF VALENCE BANDS -    BAND    198; K    1; EIG -2.4337330E-01 AU
 BOTTOM OF VIRTUAL BANDS - BAND    199; K    1; EIG -8.9334722E-02 AU
 INDIRECT ENERGY BAND GAP:   4.1882 eV
 TTTTTTTTTTTTTTTTTTTTTTTTTTTTTT PDIG        TELAPSE      245.25 TCPU     6610.81
 CHARGE NORMALIZATION FACTOR   1.00000000
 TOTAL ATOMIC CHARGES:
   4.4706609   4.4691638   4.4916290   4.5129377   4.4916980   4.5130610
   4.5128873   4.4915850   4.5127308   4.4914271   4.4690354   4.4705221
   0.8781380   0.8667121   0.8668345   0.8782338   0.8831569   0.8787096
   0.8787758   0.8832056   0.8719946   0.8627467   0.8628808   0.8721671
   0.8720117   0.8627557   0.8628342   0.8720807   0.8831695   0.8787100
   0.8788287   0.8832736   0.8781153   0.8666919   0.8668043   0.8781822
   5.9233671   5.9238478   6.1713638   6.1628253   6.1629500   6.1714045
   6.1648665   6.1680233   6.1684214   6.1654111   5.9249761   5.9244940
   5.9428095   5.9460541   6.1661489   6.1796853   6.1800706   6.1665558
   6.1662385   6.1796966   6.1800968   6.1665755   5.9469694   5.9436313
   5.9235045   5.9240304   6.1648620   6.1679096   6.1685052   6.1655251
   6.1713139   6.1627428   6.1629243   6.1714347   5.9248748   5.9243600
   8.4936430   8.4869136   8.4938690   8.4871309   8.5044012   8.4873081
   8.4870253   8.4936756   8.4873958   8.5045861   8.4872883   8.4939408
 TTTTTTTTTTTTTTTTTTTTTTTTTTTTTT MOQGAD      TELAPSE      245.35 TCPU     6610.91
 TTTTTTTTTTTTTTTTTTTTTTTTTTTTTT SHELLXN     TELAPSE      265.74 TCPU     7261.40
 TTTTTTTTTTTTTTTTTTTTTTTTTTTTTT MONMO3      TELAPSE      266.38 TCPU     7281.60
 NUMERICALLY INTEGRATED DENSITY    395.9999527460
 TTTTTTTTTTTTTTTTTTTTTTTTTTTTTT NUMDFT      TELAPSE      268.05 TCPU     7335.17
 CYC   8 ETOT(AU) -2.578234915511E+03 DETOT -2.62E-07 tst  2.33E-08 PX  1.92E-04
 TTTTTTTTTTTTTTTTTTTTTTTTTTTTTT DIIS        TELAPSE      268.36 TCPU     7342.02
 DIIS TEST: 0.18840E-05 AT SCF   CYCLE   8 - DIIS ACTIVE - HISTORY:     8 CYCLES
 TTTTTTTTTTTTTTTTTTTTTTTTTTTTTT FDIK        TELAPSE      270.45 TCPU     7408.39
 INSULATING STATE
 TOP OF VALENCE BANDS -    BAND    198; K    3; EIG -2.4324568E-01 AU
 TOP OF VALENCE BANDS -    BAND    198; K    1; EIG -2.4337186E-01 AU
 BOTTOM OF VIRTUAL BANDS - BAND    199; K    1; EIG -8.9336637E-02 AU
 INDIRECT ENERGY BAND GAP:   4.1881 eV
 TTTTTTTTTTTTTTTTTTTTTTTTTTTTTT PDIG        TELAPSE      272.14 TCPU     7415.34
 CHARGE NORMALIZATION FACTOR   1.00000000
 TOTAL ATOMIC CHARGES:
   4.4706352   4.4692334   4.4916472   4.5129644   4.4917168   4.5130874
   4.5128829   4.4915742   4.5127267   4.4914157   4.4690500   4.4704987
   0.8780954   0.8667272   0.8668330   0.8782065   0.8831789   0.8786544
   0.8787549   0.8832468   0.8719998   0.8627017   0.8628897   0.8721529
   0.8720154   0.8627088   0.8628449   0.8720680   0.8831910   0.8786556
   0.8788071   0.8833151   0.8780720   0.8667071   0.8668025   0.8781557
   5.9235740   5.9241439   6.1714434   6.1627438   6.1628349   6.1714983
   6.1649793   6.1683821   6.1684245   6.1650265   5.9246939   5.9241423
   5.9428738   5.9463490   6.1661860   6.1798387   6.1800491   6.1664567
   6.1662935   6.1798656   6.1800596   6.1664592   5.9467645   5.9433364
   5.9237197   5.9243327   6.1649729   6.1682672   6.1685093   6.1651428
   6.1714020   6.1626681   6.1628033   6.1715198   5.9245864   5.9239996
   8.4936321   8.4868881   8.4938512   8.4871015   8.5045447   8.4874322
   8.4869871   8.4937240   8.4874973   8.5045524   8.4872468   8.4939824
 TTTTTTTTTTTTTTTTTTTTTTTTTTTTTT MOQGAD      TELAPSE      272.24 TCPU     7415.44
 TTTTTTTTTTTTTTTTTTTTTTTTTTTTTT SHELLXN     TELAPSE      292.49 TCPU     8061.31
 +++ ENERGIES IN A.U. +++
 ::: EXT EL-POLE                                  -2.7748989846400E+03
 ::: EXT EL-SPHEROPOLE                             3.1857263490185E+01
 ::: BIELET ZONE E-E                               4.3930546336369E+03
 ::: TOTAL E-E                                     1.6500129124871E+03
 ::: TOTAL E-N + N-E                              -6.9526934818219E+03
 ::: TOTAL N-N                                     4.3203421261827E+02
 ::: KINETIC ENERGY                                2.5598415260922E+03
 ::: PSEUDO TOTAL   ENERGY                        -2.3108048306244E+03
 ::: VIRIAL COEFFICIENT                            1.0511301123565E+00
 TTTTTTTTTTTTTTTTTTTTTTTTTTTTTT MONMO3      TELAPSE      293.11 TCPU     8081.20
 NUMERICALLY INTEGRATED DENSITY    395.9999527461
 EXCHANGE ENERGY: -0.252041772347E+03  CORRELATION ENERGY: -0.153883129204E+02
 TTTTTTTTTTTTTTTTTTTTTTTTTTTTTT NUMDFT      TELAPSE      294.75 TCPU     8133.50
 CYC   9 ETOT(AU) -2.578234915891E+03 DETOT -3.80E-07 tst  4.42E-09 PX  1.92E-04

 == SCF ENDED - CONVERGENCE ON ENERGY      E(AU) -2.5782349158914E+03 CYCLES   9


 ENERGY EXPRESSION=HARTREE+FOCK EXCH*0.00000+(HSESOL     EXCH)*1.00000+PBESOL     CORR


 TOTAL ENERGY(DFT)(AU)(  9) -2.5782349158914E+03 DE-3.8E-07 tester 4.4E-09
 TTTTTTTTTTTTTTTTTTTTTTTTTTTTTT EDFT        TELAPSE      294.75 TCPU     8133.51
 
 INFORMATION **** DFTD3 ENERGY **** CALCULATE DFTD3 ENERGY

           DFT-D V3(BJ)
 DF                                         hsesol3c  
 parameters
 s6       :    1.0000
 s8       :    0.0000
 a1       :    0.5196
 a2       :    4.9385
 k1 k3    :   16.0000   -4.0000
 Cutoff   :   50.2022
 CN-Cutoff:   21.1671
 ABC-Cutoff:   21.1671
 
 Edisp /kcal,au:   -54.5110 -0.08686872

 E6    /kcal :   -58.2945
 E8    /kcal :     0.0000
 E6(ABC) "   :   3.783598
 
 INFORMATION **** DFTD3 ENERGY **** NORMAL TERMINATION OF DFTD3 MODULE

 GCP ENERGY CALCULATION
  level        hsesol3c            basis:hsesol3c
  Nbf            948
  Atoms           84

  Parameters: 
  sigma     1.0000
  eta       1.4281
  alpha     0.2936
  beta      1.9467

  dmp_scal      4.0000
  dmp_exp       6.0000
 cutoffs: 
   distance [bohr] 60.0
   noise    [a.u.] 2.2E-16
 SR-damping   T
 ** gCP correction **
  Egcp:        0.1664513487 / (a.u.) ||     104.4498 / (kcal/mol)
 INFORMATION **** GCP **** NORMAL TERMINATION OF GCP MODULE

 *******************************************************************************

 DFT-D3-GCP DISPERSION AND COUNTERPOISE CORRECTION

 D3 DISPERSION ENERGY (AU)      -8.6868719139251E-02
 GCP ENERGY (AU)                 1.6645134873860E-01
 TOTAL ENERGY + DISP + GCP (AU) -2.5781553332618E+03

 *******************************************************************************

 EIGENVECTORS IN FORTRAN UNIT 10
 TTTTTTTTTTTTTTTTTTTTTTTTTTTTTT END         TELAPSE      298.06 TCPU     8142.68
 EEEEEEEEEE TERMINATION  DATE 19 02 2026 TIME 20:19:41.9
