 Default number of threads is:           32

         
 *******************************************************************************
 *                                                                             *
 *                               CRYSTAL23                                     *
 *                      public : 1.0.1 - October 2022                          *
 *                       HTTP://WWW.CRYSTAL.UNITO.IT                           *
 *                                                                             *
 *                              MAIN AUTHORS                                   *
 *                                                                             *
 *  R. DOVESI(1,11), V.R. SAUNDERS(2), C. ROETTI(1,11), R. ORLANDO(1,11),      *
 *  C.M. ZICOVICH-WILSON(1,3), F. PASCALE(4), B. CIVALLERI(1,11),              *
 *  K. DOLL(5), N.M. HARRISON(6), I.J. BUSH(7), Ph. D'ARCO(8),                 *
 *  M. LLUNELL(9), M. CAUSA'(10), Y. NOEL(8), L. MASCHIO(1,11), A. ERBA(1,11)  *
 *  M. RE'RAT(14), S. CASASSA(1,11), B.G. SEARLE(2), J.K. DESMARAIS(1)         *
 *                                                                             *
 *        CONTRIBUTIONS TO THE CODE HAVE ALSO BEEN GIVEN BY                    *
 *                                                                             *
 *  M. FERRABONE(1,11), M. DE LA PIERRE(1,11), M. FERRERO(1,11),               *
 *  J. BAIMA(1,11), E. ALBANESE(1,11), M.F. PEINTINGER(12), R. BAST(13),       *
 *  B. KIRTMAN(15), V. LACIVITA(1,11), R. DEMICHELIS(1,16)                     *
 *  G. BRANDEBURG(17), S. SALUSTRO(1,11), G. SANSONE(1,11)                     *
 *  M.T. RUGGIERO(18), L.E. DAGA(1), L. DONA'(1), A. COSSARD(1)                *
 *                                                                             *
 * (1) THEORETICAL CHEMISTRY GROUP - UNIVERSITA' DI TORINO - TORINO (ITALY)    *
 * (2) SCIENTIFIC COMPUTING DEPARTMENT - STFC DARESBURY (UK)                   *
 * (3) UNIVERSIDAD AUTONOMA DEL ESTADO DE MORELOS - CUERNAVACA (MEXICO)        *
 * (4) UNIVERSITE' DE LORRAINE - NANCY (FRANCE)                                *
 * (5) UNIVERSITAET STUTTGART- STUTTGART (GERMANY)                             *
 * (6) IMPERIAL COLLEGE - LONDON (UK)                                          *
 * (7) SCIENTIFIC COMPUTING DEPARTMENT - STFC RAL (UK)                         *
 * (8) UPMC - SORBONNE UNIVERSITES - PARIS (FRANCE)                            *
 * (9) UNIVERSIDAD DE BARCELONA - BARCELONA (SPAIN)                            *
 *(10) UNIVERSITA' DI NAPOLI "FEDERICO II" - NAPOLI (ITALY)                    *
 *(11) NIS - NANOSTRUCTURED INTERFACES AND SURFACES - TORINO (ITALY)           *
 *(12) MPI FUER CHEMISCHE ENERGIEKONVERSION - MUELHEIM AN DER RUHR (GERMANY)   *
 *(13) UNIVERSITY OF TROMSO - TROMSO (NORWAY)                                  *
 *(14) UNIVERSITE' DE PAU ET DES PAYS DE L'ADOUR - PAU (FRANCE)                *
 *(15) UNIVERSITY OF CALIFORNIA SANTA BARBARA - SANTA BARBARA (USA)            *
 *(16) CURTIN UNIVERSITY - PERTH (AUSTRALIA)                                   *
 *(17) UNIVERSITY COLLEGE LONDON - LONDON (UK)                                 *
 *(18) UNIVERSITY OF VERMONT - BURLINGTON (USA)                                *
 *                                                                             *
 *******************************************************************************
 EEEEEEEEEE STARTING  DATE 19 02 2026 TIME 18:21:33.3
 cof-1_z35_L010_incl                                                             

 CRYSTAL CALCULATION
 (INPUT ACCORDING TO THE INTERNATIONAL TABLES FOR X-RAY CRYSTALLOGRAPHY)
 CRYSTAL FAMILY                       :  TRICLINIC   
 CRYSTAL CLASS  (GROTH - 1921)        :  TRICLINIC PEDIAL                     

 SPACE GROUP (NONCENTROSYMMETRIC)     :  P 1             

 LATTICE PARAMETERS  (ANGSTROMS AND DEGREES) - CONVENTIONAL CELL
        A           B           C        ALPHA        BETA       GAMMA
    15.02361    15.02392     3.64005    76.23621    89.99995   119.99596


 NUMBER OF IRREDUCIBLE ATOMS IN THE CONVENTIONAL CELL:   42

 INPUT COORDINATES

 ATOM AT. N.              COORDINATES
   1   5     5.944164900000E-01  1.887862100000E-01  5.013639300000E-01
   2   5     7.534721500000E-01  3.478458700000E-01  5.013639500000E-01
   3   5     5.945224800000E-01  3.480491900000E-01  4.984944700000E-01
   4   5     2.079912000000E-01  5.751012100000E-01  5.013639400000E-01
   5   5     3.670991700000E-01  5.750804400000E-01  5.013639300000E-01
   6   5     3.671897100000E-01  7.344401700000E-01  4.984944700000E-01
   7   1     8.840081500000E-01  2.708552500000E-01  4.954149400000E-01
   8   1     7.763402000000E-02  6.530485500000E-01  4.945052300000E-01
   9   1     8.839762900000E-01  5.560783000000E-01  4.943652300000E-01
  10   1     7.773971000000E-02  3.676881300000E-01  4.944001500000E-01
  11   1     6.716446500000E-01  5.822468000000E-02  5.045834000000E-01
  12   1     2.895070200000E-01  8.645879500000E-01  5.054931700000E-01
  13   1     3.864419000000E-01  5.818986000000E-02  5.056332600000E-01
  14   1     5.748854700000E-01  8.644899000000E-01  5.055981100000E-01
  15   1     6.720372700000E-01  5.559794000000E-01  4.954149900000E-01
  16   1     2.899613200000E-01  3.676044500000E-01  4.945051800000E-01
  17   1     3.868454400000E-01  2.708291300000E-01  4.943651100000E-01
  18   1     5.752944000000E-01  6.529611100000E-01  4.944002600000E-01
  19   6     8.727405500000E-01  4.076402800000E-01  4.983894800000E-01
  20   6     9.274482700000E-01  3.547000700000E-01  4.955549300000E-01
  21   6     3.435668000000E-02  5.691185600000E-01  4.953100700000E-01
  22   6     9.273924400000E-01  5.155689700000E-01  4.960449300000E-01
  23   6     3.443928000000E-02  4.082719900000E-01  4.941551900000E-01
  24   6     8.897487000000E-02  5.159097200000E-01  4.960798900000E-01
  25   6     5.347659600000E-01  6.961762000000E-02  5.016089100000E-01
  26   6     5.877954800000E-01  1.478726000000E-02  5.044434000000E-01
  27   6     3.734068900000E-01  9.078756600000E-01  5.046883500000E-01
  28   6     4.269240300000E-01  1.487183000000E-02  5.039535200000E-01
  29   6     5.342807000000E-01  9.077473100000E-01  5.058431100000E-01
  30   6     4.265657100000E-01  8.532637200000E-01  5.039184800000E-01
  31   6     5.348951100000E-01  4.075711400000E-01  4.983894700000E-01
  32   6     5.881693700000E-01  5.155402100000E-01  4.955549900000E-01
  33   6     3.737919400000E-01  4.081052900000E-01  4.953100100000E-01
  34   6     4.272275900000E-01  3.545667800000E-01  4.960448500000E-01
  35   6     5.347559000000E-01  5.691200100000E-01  4.941552600000E-01
  36   6     4.268989600000E-01  5.158323200000E-01  4.960798900000E-01
  37   8     5.415533100000E-01  2.419999900000E-01  4.992643100000E-01
  38   8     7.002657200000E-01  2.415424200000E-01  5.053182100000E-01
  39   8     7.006143700000E-01  4.011894800000E-01  4.961849000000E-01
  40   8     2.611411400000E-01  6.812804600000E-01  4.992643400000E-01
  41   8     2.609279900000E-01  5.218597000000E-01  5.053182100000E-01
  42   8     4.201987900000E-01  6.815014500000E-01  4.961848700000E-01

 *******************************************************************************

 << INFORMATION >>: FROM NOW ON, ALL COORDINATES REFER TO THE PRIMITIVE CELL

 *******************************************************************************

 LATTICE PARAMETERS  (ANGSTROMS AND DEGREES) - PRIMITIVE CELL
       A          B          C        ALPHA      BETA     GAMMA        VOLUME
   15.02361   15.02392    3.64005    76.23621  89.99995 119.99596    684.186589

 COORDINATES OF THE EQUIVALENT ATOMS (FRACTIONAL UNITS)

 N. ATOM EQUIV AT. N.          X                  Y                  Z

   1   1   1    5 B    -4.05583510000E-01  1.88786210000E-01 -4.98636070000E-01

   2   2   1    5 B    -2.46527850000E-01  3.47845870000E-01 -4.98636050000E-01

   3   3   1    5 B    -4.05477520000E-01  3.48049190000E-01  4.98494470000E-01

   4   4   1    5 B     2.07991200000E-01 -4.24898790000E-01 -4.98636060000E-01

   5   5   1    5 B     3.67099170000E-01 -4.24919560000E-01 -4.98636070000E-01

   6   6   1    5 B     3.67189710000E-01 -2.65559830000E-01  4.98494470000E-01

   7   7   1    1 H    -1.15991850000E-01  2.70855250000E-01  4.95414940000E-01

   8   8   1    1 H     7.76340200000E-02 -3.46951450000E-01  4.94505230000E-01

   9   9   1    1 H    -1.16023710000E-01 -4.43921700000E-01  4.94365230000E-01

  10  10   1    1 H     7.77397100000E-02  3.67688130000E-01  4.94400150000E-01

  11  11   1    1 H    -3.28355350000E-01  5.82246800000E-02 -4.95416600000E-01

  12  12   1    1 H     2.89507020000E-01 -1.35412050000E-01 -4.94506830000E-01

  13  13   1    1 H     3.86441900000E-01  5.81898600000E-02 -4.94366740000E-01

  14  14   1    1 H    -4.25114530000E-01 -1.35510100000E-01 -4.94401890000E-01

  15  15   1    1 H    -3.27962730000E-01 -4.44020600000E-01  4.95414990000E-01

  16  16   1    1 H     2.89961320000E-01  3.67604450000E-01  4.94505180000E-01

  17  17   1    1 H     3.86845440000E-01  2.70829130000E-01  4.94365110000E-01

  18  18   1    1 H    -4.24705600000E-01 -3.47038890000E-01  4.94400260000E-01

  19  19   1    6 C    -1.27259450000E-01  4.07640280000E-01  4.98389480000E-01

  20  20   1    6 C    -7.25517300000E-02  3.54700070000E-01  4.95554930000E-01

  21  21   1    6 C     3.43566800000E-02 -4.30881440000E-01  4.95310070000E-01

  22  22   1    6 C    -7.26075600000E-02 -4.84431030000E-01  4.96044930000E-01

  23  23   1    6 C     3.44392800000E-02  4.08271990000E-01  4.94155190000E-01

  24  24   1    6 C     8.89748700000E-02 -4.84090280000E-01  4.96079890000E-01

  25  25   1    6 C    -4.65234040000E-01  6.96176200000E-02 -4.98391090000E-01

  26  26   1    6 C    -4.12204520000E-01  1.47872600000E-02 -4.95556600000E-01

  27  27   1    6 C     3.73406890000E-01 -9.21243400000E-02 -4.95311650000E-01

  28  28   1    6 C     4.26924030000E-01  1.48718300000E-02 -4.96046480000E-01

  29  29   1    6 C    -4.65719300000E-01 -9.22526900000E-02 -4.94156890000E-01

  30  30   1    6 C     4.26565710000E-01 -1.46736280000E-01 -4.96081520000E-01

  31  31   1    6 C    -4.65104890000E-01  4.07571140000E-01  4.98389470000E-01

  32  32   1    6 C    -4.11830630000E-01 -4.84459790000E-01  4.95554990000E-01

  33  33   1    6 C     3.73791940000E-01  4.08105290000E-01  4.95310010000E-01

  34  34   1    6 C     4.27227590000E-01  3.54566780000E-01  4.96044850000E-01

  35  35   1    6 C    -4.65244100000E-01 -4.30879990000E-01  4.94155260000E-01

  36  36   1    6 C     4.26898960000E-01 -4.84167680000E-01  4.96079890000E-01

  37  37   1    8 O    -4.58446690000E-01  2.41999990000E-01  4.99264310000E-01

  38  38   1    8 O    -2.99734280000E-01  2.41542420000E-01 -4.94681790000E-01

  39  39   1    8 O    -2.99385630000E-01  4.01189480000E-01  4.96184900000E-01

  40  40   1    8 O     2.61141140000E-01 -3.18719540000E-01  4.99264340000E-01

  41  41   1    8 O     2.60927990000E-01 -4.78140300000E-01 -4.94681790000E-01

  42  42   1    8 O     4.20198790000E-01 -3.18498550000E-01  4.96184870000E-01

 NUMBER OF SYMMETRY OPERATORS         :    1
 *******************************************************************************
 * GEOMETRY EDITING - INPUT COORDINATES ARE GIVEN IN ANGSTROM         
 *******************************************************************************

 GCALCO - MAX INDICES DIRECT LATTICE VECTOR     9     9    35
 NO.OF VECTORS CREATED 6999 STARS 3500 RMAX   197.85788 BOHR

 GEOMETRY FOR WAVE FUNCTION - DIMENSIONALITY OF THE SYSTEM    3
 (NON PERIODIC DIRECTION: LATTICE PARAMETER FORMALLY SET TO 500)
 *******************************************************************************
 LATTICE PARAMETERS (ANGSTROMS AND DEGREES) - BOHR = 0.5291772083 ANGSTROM
 PRIMITIVE CELL - CENTRING CODE 1/0 VOLUME=   684.186589 - DENSITY  0.947 g/cm^3
         A              B              C           ALPHA      BETA       GAMMA 
    15.02361100    15.02391600     3.64005500    76.236206  89.999946 119.995964
 *******************************************************************************
 ATOMS IN THE ASYMMETRIC UNIT   42 - ATOMS IN THE UNIT CELL:   42
     ATOM                 X/A                 Y/B                 Z/C    
 *******************************************************************************
      1 T   5 B    -4.055835100000E-01  1.887862100000E-01 -4.986360700000E-01
      2 T   5 B    -2.465278500000E-01  3.478458700000E-01 -4.986360500000E-01
      3 T   5 B    -4.054775200000E-01  3.480491900000E-01  4.984944700000E-01
      4 T   5 B     2.079912000000E-01 -4.248987900000E-01 -4.986360600000E-01
      5 T   5 B     3.670991700000E-01 -4.249195600000E-01 -4.986360700000E-01
      6 T   5 B     3.671897100000E-01 -2.655598300000E-01  4.984944700000E-01
      7 T   1 H    -1.159918500000E-01  2.708552500000E-01  4.954149400000E-01
      8 T   1 H     7.763402000000E-02 -3.469514500000E-01  4.945052300000E-01
      9 T   1 H    -1.160237100000E-01 -4.439217000000E-01  4.943652300000E-01
     10 T   1 H     7.773971000000E-02  3.676881300000E-01  4.944001500000E-01
     11 T   1 H    -3.283553500000E-01  5.822468000000E-02 -4.954166000000E-01
     12 T   1 H     2.895070200000E-01 -1.354120500000E-01 -4.945068300000E-01
     13 T   1 H     3.864419000000E-01  5.818986000000E-02 -4.943667400000E-01
     14 T   1 H    -4.251145300000E-01 -1.355101000000E-01 -4.944018900000E-01
     15 T   1 H    -3.279627300000E-01 -4.440206000000E-01  4.954149900000E-01
     16 T   1 H     2.899613200000E-01  3.676044500000E-01  4.945051800000E-01
     17 T   1 H     3.868454400000E-01  2.708291300000E-01  4.943651100000E-01
     18 T   1 H    -4.247056000000E-01 -3.470388900000E-01  4.944002600000E-01
     19 T   6 C    -1.272594500000E-01  4.076402800000E-01  4.983894800000E-01
     20 T   6 C    -7.255173000000E-02  3.547000700000E-01  4.955549300000E-01
     21 T   6 C     3.435668000000E-02 -4.308814400000E-01  4.953100700000E-01
     22 T   6 C    -7.260756000000E-02 -4.844310300000E-01  4.960449300000E-01
     23 T   6 C     3.443928000000E-02  4.082719900000E-01  4.941551900000E-01
     24 T   6 C     8.897487000000E-02 -4.840902800000E-01  4.960798900000E-01
     25 T   6 C    -4.652340400000E-01  6.961762000000E-02 -4.983910900000E-01
     26 T   6 C    -4.122045200000E-01  1.478726000000E-02 -4.955566000000E-01
     27 T   6 C     3.734068900000E-01 -9.212434000000E-02 -4.953116500000E-01
     28 T   6 C     4.269240300000E-01  1.487183000000E-02 -4.960464800000E-01
     29 T   6 C    -4.657193000000E-01 -9.225269000000E-02 -4.941568900000E-01
     30 T   6 C     4.265657100000E-01 -1.467362800000E-01 -4.960815200000E-01
     31 T   6 C    -4.651048900000E-01  4.075711400000E-01  4.983894700000E-01
     32 T   6 C    -4.118306300000E-01 -4.844597900000E-01  4.955549900000E-01
     33 T   6 C     3.737919400000E-01  4.081052900000E-01  4.953100100000E-01
     34 T   6 C     4.272275900000E-01  3.545667800000E-01  4.960448500000E-01
     35 T   6 C    -4.652441000000E-01 -4.308799900000E-01  4.941552600000E-01
     36 T   6 C     4.268989600000E-01 -4.841676800000E-01  4.960798900000E-01
     37 T   8 O    -4.584466900000E-01  2.419999900000E-01  4.992643100000E-01
     38 T   8 O    -2.997342800000E-01  2.415424200000E-01 -4.946817900000E-01
     39 T   8 O    -2.993856300000E-01  4.011894800000E-01  4.961849000000E-01
     40 T   8 O     2.611411400000E-01 -3.187195400000E-01  4.992643400000E-01
     41 T   8 O     2.609279900000E-01 -4.781403000000E-01 -4.946817900000E-01
     42 T   8 O     4.201987900000E-01 -3.184985500000E-01  4.961848700000E-01

 T = ATOM BELONGING TO THE ASYMMETRIC UNIT

 ****    1 SYMMOPS - TRANSLATORS IN FRACTIONAL UNITS
 **** MATRICES AND TRANSLATORS IN THE CRYSTALLOGRAPHIC REFERENCE FRAME
   V INV                    ROTATION MATRICES                   TRANSLATORS
   1   1  1.00 -0.00  0.00  0.00  1.00  0.00 -0.00 -0.00  1.00  0.00  0.00  0.00

 DIRECT LATTICE VECTORS CARTESIAN COMPONENTS (ANGSTROM)
          X                    Y                    Z
   0.130113578931E+02  -0.751088897922E+01   0.000000000000E+00
   0.000000000000E+00   0.150239160000E+02   0.000000000000E+00
   0.499931586769E+00   0.866040927303E+00   0.350000598911E+01


 CARTESIAN COORDINATES - PRIMITIVE CELL
 *******************************************************************************
 *      ATOM          X(ANGSTROM)         Y(ANGSTROM)         Z(ANGSTROM)
 *******************************************************************************
    1     5 B    -5.526476125827E+00  5.450761631960E+00 -1.745229231387E+00
    2     5 B    -3.456945998652E+00  6.645811216333E+00 -1.745229161387E+00
    3     5 B     7.484826307361E+00  3.293451372510E-01 -1.755272358572E+00
    4     5 B     2.456964025110E+00  6.646234222895E+00 -1.745229196387E+00
    5     5 B     4.527174761419E+00  5.450879869121E+00 -1.745229231387E+00
    6     5 B     5.026849862840E+00 -6.315953111961E+00  1.744733630539E+00
    7     1 H    -1.761469482733E+00  4.503517118738E+00 -1.766050732016E+00
    8     1 H     1.257342803196E+00 -5.367408178163E+00  1.730771266647E+00
    9     1 H    -1.262477221013E+00 -5.369860604395E+00  1.730281265808E+00
   10     1 H     7.587338540318E-01  4.502351085293E+00 -1.769602503094E+00
   11     1 H    -4.520023381900E+00  2.911952229364E+00 -1.733961067105E+00
   12     1 H     4.019591452351E+00 -3.771096576820E+00  1.769229122455E+00
   13     1 H     4.780984316999E+00 -2.456424469063E+00 -1.730286550817E+00
   14     1 H    -5.278552829969E+00  1.594964334757E+00  1.769596413083E+00
   15     1 H    -4.019566853554E+00 -3.778586884980E+00  1.733955432095E+00
   16     1 H     3.520077682197E+00  2.907211892580E+00 -1.769234897465E+00
   17     1 H     4.780601616254E+00  7.254604385048E-01 -1.769725143303E+00
   18     1 H    -5.278830254305E+00 -1.595795662013E+00  1.730403871018E+00
   19     6 C    -1.906589192427E+00  6.645769685557E+00 -1.755639824201E+00
   20     6 C    -1.196184549073E+00  5.437041969958E+00 -1.765560766178E+00
   21     6 C     6.946482087349E-01 -6.302616977368E+00  1.733588211467E+00
   22     6 C    -6.967344199380E-01 -6.303108569141E+00  1.736160225868E+00
   23     6 C     1.952139991371E-01  5.437092165985E+00 -1.770459864561E+00
   24     6 C     9.057582968611E-01  6.646288487002E+00 -1.763723403033E+00
   25     6 C     6.708869846129E+00 -3.402265562167E+00 -1.744371799920E+00
   26     6 C    -5.611084932227E+00  2.889012641166E+00 -1.734451067943E+00
   27     6 C     5.110840333162E+00 -3.751605273947E+00  1.766412247635E+00
   28     6 C     5.306872043618E+00 -3.412742420728E+00 -1.736165650877E+00
   29     6 C    -5.806753541365E+00  2.550050128498E+00  1.770453914551E+00
   30     6 C     5.802123883024E+00 -4.972027207319E+00  1.763717698024E+00
   31     6 C     6.708940763253E+00  1.671361536103E+00 -1.755639859201E+00
   32     6 C    -5.110732125771E+00 -3.756098147098E+00  1.734445432934E+00
   33     6 C     4.611230241353E+00  2.886747646510E+00 -1.766417987644E+00
   34     6 C     5.306867977478E+00  1.681676736337E+00 -1.763846043243E+00
   35     6 C    -5.806413669491E+00 -2.551149312904E+00  1.729546369551E+00
   36     6 C     5.302609572537E+00  4.107015312511E+00 -1.763723403033E+00
   37     8 O     6.796010346526E+00 -8.654168672774E-01 -1.752577913962E+00
   38     8 O    -4.147257042118E+00  5.451769252731E+00 -1.731389227704E+00
   39     8 O    -3.647355075580E+00 -6.318110292584E+00  1.736650121706E+00
   40     8 O     3.647398846854E+00 -6.317434354982E+00  1.747428180150E+00
   41     8 O     3.147720409986E+00  5.452160455994E+00 -1.731389227704E+00
   42     8 O    -7.295942560747E+00 -5.565380681363E-04  1.736650016706E+00

 *******************************************************************************
 STARTING BASIS SET HANDLING 
 *******************************************************************************

 Loading internal basis set: SOLDEF2MSVP         

 Please cite in your publication:
 L. Dona', J. G. Brandenburg and B. Civalleri, J. Chem. Phys., 151, 121101 (2019
 )                                                                              
                                                                                
                    

 *******************************************************************************
 LOCAL ATOMIC FUNCTIONS BASIS SET
 *******************************************************************************
   ATOM   X(AU)   Y(AU)   Z(AU)  N. TYPE  EXPONENT  S COEF   P COEF   D/F/G COEF
 *******************************************************************************
   1 B  -10.444  10.300  -3.298
                                  1 S  
                                         2.410E+03 1.755E-03 0.000E+00 0.000E+00
                                         3.619E+02 1.344E-02 0.000E+00 0.000E+00
                                         8.231E+01 6.637E-02 0.000E+00 0.000E+00
                                         2.311E+01 2.303E-01 0.000E+00 0.000E+00
                                         7.252E+00 5.150E-01 0.000E+00 0.000E+00
                                  2 S  
                                         2.367E+00 1.000E+00 0.000E+00 0.000E+00
                                  3 S  
                                         5.533E-01 1.000E+00 0.000E+00 0.000E+00
                                  4 S  
                                         1.716E-01 1.000E+00 0.000E+00 0.000E+00
                           5-     7 P  
                                         6.002E+00 0.000E+00-3.555E-02 0.000E+00
                                         1.240E+00 0.000E+00-1.983E-01 0.000E+00
                                         3.367E-01 0.000E+00-5.048E-01 0.000E+00
                           8-    10 P  
                                         1.256E-01 0.000E+00 1.000E+00 0.000E+00
                          11-    15 D  
                                         8.880E-01 0.000E+00 0.000E+00 1.000E+00
   2 B   -6.533  12.559  -3.298
   3 B   14.144   0.622  -3.317
   4 B    4.643  12.560  -3.298
   5 B    8.555  10.301  -3.298
   6 B    9.499 -11.935   3.297
   7 H   -3.329   8.510  -3.337
                                 91 S  
                                         1.874E+01 1.968E-02 0.000E+00 0.000E+00
                                         2.826E+00 1.380E-01 0.000E+00 0.000E+00
                                         6.401E-01 4.783E-01 0.000E+00 0.000E+00
                                 92 S  
                                         1.756E-01 1.000E+00 0.000E+00 0.000E+00
   8 H    2.376 -10.143   3.271
   9 H   -2.386 -10.148   3.270
  10 H    1.434   8.508  -3.344
  11 H   -8.542   5.503  -3.277
  12 H    7.596  -7.126   3.343
  13 H    9.035  -4.642  -3.270
  14 H   -9.975   3.014   3.344
  15 H   -7.596  -7.140   3.277
  16 H    6.652   5.494  -3.343
  17 H    9.034   1.371  -3.344
  18 H   -9.976  -3.016   3.270
  19 C   -3.603  12.559  -3.318
                                115 S  
                                         3.624E+03 1.634E-03 0.000E+00 0.000E+00
                                         5.440E+02 1.252E-02 0.000E+00 0.000E+00
                                         1.237E+02 6.211E-02 0.000E+00 0.000E+00
                                         3.476E+01 2.182E-01 0.000E+00 0.000E+00
                                         1.093E+01 4.980E-01 0.000E+00 0.000E+00
                                116 S  
                                         3.574E+00 1.000E+00 0.000E+00 0.000E+00
                                117 S  
                                         7.742E-01 1.000E+00 0.000E+00 0.000E+00
                                118 S  
                                         2.330E-01 1.000E+00 0.000E+00 0.000E+00
                         119-   121 P  
                                         9.443E+00 0.000E+00 3.790E-02 0.000E+00
                                         2.002E+00 0.000E+00 2.082E-01 0.000E+00
                                         5.463E-01 0.000E+00 5.047E-01 0.000E+00
                         122-   124 P  
                                         1.820E-01 0.000E+00 1.000E+00 0.000E+00
                         125-   129 D  
                                         8.880E-01 0.000E+00 0.000E+00 1.000E+00
  20 C   -2.260  10.275  -3.336
  21 C    1.313 -11.910   3.276
  22 C   -1.317 -11.911   3.281
  23 C    0.369  10.275  -3.346
  24 C    1.712  12.560  -3.333
  25 C   12.678  -6.429  -3.296
  26 C  -10.603   5.459  -3.278
  27 C    9.658  -7.090   3.338
  28 C   10.029  -6.449  -3.281
  29 C  -10.973   4.819   3.346
  30 C   10.964  -9.396   3.333
  31 C   12.678   3.158  -3.318
  32 C   -9.658  -7.098   3.278
  33 C    8.714   5.455  -3.338
  34 C   10.029   3.178  -3.333
  35 C  -10.973  -4.821   3.268
  36 C   10.020   7.761  -3.333
  37 O   12.843  -1.635  -3.312
                                385 S  
                                         6.773E+03 1.727E-03 0.000E+00 0.000E+00
                                         1.017E+03 1.325E-02 0.000E+00 0.000E+00
                                         2.313E+02 6.603E-02 0.000E+00 0.000E+00
                                         6.501E+01 2.353E-01 0.000E+00 0.000E+00
                                         2.050E+01 5.498E-01 0.000E+00 0.000E+00
                                386 S  
                                         6.716E+00 1.000E+00 0.000E+00 0.000E+00
                                387 S  
                                         1.147E+00 1.000E+00 0.000E+00 0.000E+00
                                388 S  
                                         3.342E-01 1.000E+00 0.000E+00 0.000E+00
                         389-   391 P  
                                         1.769E+01 0.000E+00 4.359E-02 0.000E+00
                                         3.854E+00 0.000E+00 2.318E-01 0.000E+00
                                         1.047E+00 0.000E+00 5.146E-01 0.000E+00
                         392-   394 P  
                                         2.759E-01 0.000E+00 1.000E+00 0.000E+00
                         395-   399 D  
                                         8.000E-01 0.000E+00 0.000E+00 1.000E+00
  38 O   -7.837  10.302  -3.272
  39 O   -6.893 -11.939   3.282
  40 O    6.893 -11.938   3.302
  41 O    5.948  10.303  -3.272
  42 O  -13.787  -0.001   3.282

 *******************************************************************************
 FINISHED BASIS SET HANDLING 
 *******************************************************************************

 INFORMATION **** SET_MPP **** PCRYSTAL CALCULATION
 INFORMATION **** READM2 **** NEW DEFAULT: FOCK/KS MATRIX MIXING SET TO 30 %
 INFORMATION **** READM2 **** NEW DEFAULT: FULL DIRECT SCF MODE
 INFORMATION **** READM2 **** NEW DEFAULT: COULOMB BIPOLAR BUFFER SET TO 32 Mb
 INFORMATION **** READM2 **** NEW DEFAULT: EXCHANGE BIPOLAR BUFFER SET TO 32 Mb

 *******************************************************************************
 NEW DEFAULT: DFT INTEGRATION GRID INCREASED TO XLGRID
 NEW DEFAULT: DIIS ACCELERATOR ACTIVE
 USE KEYWORD NODIIS TO TURN IT OFF
 *******************************************************************************

 WARNING **** RDDFTP **** HSEsol-HJS ACTIVE
 RANGE SEPARATION - OMEGA:   0.110000000000000     
 WARNING **** RDDFTP **** HSEsol-3c has to be combined with sol-def2-mSVP basis set
 *******************************************************************************
 N. OF ATOMS PER CELL        42  COULOMB OVERLAP TOL         (T1) 10**   -6
 NUMBER OF SHELLS           234  COULOMB PENETRATION TOL     (T2) 10**   -6
 NUMBER OF AO               474  EXCHANGE OVERLAP TOL        (T3) 10**   -6
 N. OF ELECTRONS PER CELL   198  EXCHANGE PSEUDO OVP (F(G))  (T4) 10**   -6
 CORE ELECTRONS PER CELL     60  EXCHANGE PSEUDO OVP (P(G))  (T5) 10**  -12
 N. OF SYMMETRY OPERATORS     1  POLE ORDER IN MONO ZONE                  4
 *******************************************************************************
 TYPE OF CALCULATION :  RESTRICTED CLOSED SHELL
 KOHN-SHAM HAMILTONIAN

 (EXCHANGE)[CORRELATION] FUNCTIONAL:(HSEsol GGA)[PBEsol]

 RANGE-SEPARATED HYBRID FUNCTIONAL 
 OMEGA (SHORT-RANGE)[LONG-RANGE]:(    0.1100)[    0.0000]

 HYBRID EXCHANGE - PERCENTAGE OF FOCK EXCHANGE    25.0000

 CAPPA:IS1  2;IS2  2;IS3  8; K PTS MONK NET  20; SYMMOPS:K SPACE   2;G SPACE   1

 *******************************************************************************
 MAX NUMBER OF SCF CYCLES      50  CONVERGENCE ON DELTAP        10**-16
 WEIGHT OF F(I) IN F(I+1)      30% CONVERGENCE ON ENERGY        10**- 6
 SHRINK. FACT.(MONKH.)    2  2  8  NUMBER OF K POINTS IN THE IBZ     20
 SHRINKING FACTOR(GILAT NET)    8  NUMBER OF K POINTS(GILAT NET)   1028
 *******************************************************************************
 *** K POINTS COORDINATES (OBLIQUE COORDINATES IN UNITS OF IS =  2)
   1-R(  0  0  0)   2-R(  1  0  0)   3-R(  0  1  0)   4-R(  1  1  0)
   5-C(  0  0  1)   6-C(  1  0  1)   7-C(  0  1  1)   8-C(  1  1  1)
   9-C(  0  0  2)  10-C(  1  0  2)  11-C(  0  1  2)  12-C(  1  1  2)
  13-C(  0  0  3)  14-C(  1  0  3)  15-C(  0  1  3)  16-C(  1  1  3)
  17-R(  0  0  4)  18-R(  1  0  4)  19-R(  0  1  4)  20-R(  1  1  4)

 DIRECT LATTICE VECTORS COMPON. (A.U.)     RECIP. LATTICE VECTORS COMPON. (A.U.) 
        X            Y            Z              X            Y            Z
   24.5879030  -14.1935232    0.0000000      0.2555397    0.0000000   -0.0365006
    0.0000000   28.3910867    0.0000000      0.1277517    0.2213084   -0.0730082
    0.9447338    1.6365802    6.6140528      0.0000000    0.0000000    0.9499751

 DISK SPACE FOR EIGENVECTORS (FTN 10)     7189632 REALS

 SYMMETRY ADAPTION OF THE BLOCH FUNCTIONS DISABLED
 TTTTTTTTTTTTTTTTTTTTTTTTTTTTTT gordsh1     TELAPSE        0.04 TCPU        0.04

 MATRIX SIZE: P(G)  381600, F(G)   79319, P(G) IRR  193251, F(G) IRR   80159
 MAX G-VECTOR INDEX FOR 1- AND 2-ELECTRON INTEGRALS  99

 TTTTTTTTTTTTTTTTTTTTTTTTTTTTTT INPUT       TELAPSE        0.29 TCPU        0.29

 NEIGHBORS OF THE NON-EQUIVALENT ATOMS

 N = NUMBER OF NEIGHBORS AT DISTANCE R
    ATOM  N     R/ANG      R/AU   NEIGHBORS (ATOM LABELS AND CELL INDICES)
   1 B    1     1.3791     2.6061   37 O   -1 0 0
   1 B    1     1.3793     2.6065   38 O    0 0 0
   1 B    1     1.5503     2.9297   25 C   -1 0 0
   1 B    1     2.3895     4.5155    3 B   -1 0 0
   1 B    1     2.3898     4.5160    2 B    0 0 0
   1 B    1     2.5632     4.8437   26 C    0 0 0

   2 B    1     1.3793     2.6065   39 O    0 1-1
   2 B    1     1.3793     2.6065   38 O    0 0 0
   2 B    1     1.5504     2.9298   19 C    0 0 0
   2 B    1     2.3895     4.5156    3 B   -1 0 0
   2 B    1     2.3898     4.5160    1 B    0 0 0
   2 B    1     2.5634     4.8440   22 C    0 1-1

   3 B    1     1.3791     2.6061   37 O    0 0 0
   3 B    1     1.3793     2.6064   39 O    1 1-1
   3 B    1     1.5502     2.9294   31 C    0 0 0
   3 B    1     2.3895     4.5155    1 B    1 0 0
   3 B    1     2.3895     4.5156    2 B    1 0 0
   3 B    1     2.5629     4.8433   32 C    1 1-1

   4 B    1     1.3795     2.6068   40 O    0 1-1
   4 B    1     1.3795     2.6070   41 O    0 0 0
   4 B    1     1.5513     2.9316   24 C    0 0 0
   4 B    1     2.3905     4.5174    6 B    0 1-1
   4 B    1     2.3905     4.5175    5 B    0 0 0
   4 B    1     2.5648     4.8468   23 C    0 0 0

   5 B    1     1.3795     2.6069   41 O    0 0 0
   5 B    1     1.3797     2.6072   42 O    1 1-1
   5 B    1     1.5516     2.9322   36 C    0 0 0
   5 B    1     2.3905     4.5175    4 B    0 0 0
   5 B    1     2.3911     4.5185    6 B    0 1-1
   5 B    1     2.5651     4.8473   35 C    1 1-1

   6 B    1     1.3795     2.6068   40 O    0 0 0
   6 B    1     1.3796     2.6071   42 O    1 0 0
   6 B    1     1.5516     2.9322   30 C    0 0 0
   6 B    1     2.3905     4.5174    4 B    0-1 1
   6 B    1     2.3911     4.5185    5 B    0-1 1
   6 B    1     2.5651     4.8473   29 C    1 0 0

   7 H    1     1.0913     2.0623   20 C    0 0 0
   7 H    1     2.1472     4.0576   19 C    0 0 0
   7 H    1     2.1680     4.0969   23 C    0 0 0
   7 H    1     2.5202     4.7625   10 H    0 0 0
   7 H    1     2.5676     4.8520   38 O    0 0 0
   7 H    1     2.7321     5.1630    2 B    0 0 0

   8 H    1     1.0914     2.0625   21 C    0 0 0
   8 H    1     2.1493     4.0616   24 C    0-1 1
   8 H    1     2.1666     4.0942   22 C    0 0 0
   8 H    1     2.5198     4.7618    9 H    0 0 0
   8 H    1     2.5720     4.8604   40 O    0 0 0
   8 H    1     2.7362     5.1707    4 B    0-1 1

   9 H    1     1.0914     2.0624   22 C    0 0 0
   9 H    1     2.1471     4.0575   19 C    0-1 1
   9 H    1     2.1680     4.0970   21 C    0 0 0
   9 H    1     2.5198     4.7618    8 H    0 0 0
   9 H    1     2.5665     4.8500   39 O    0 0 0
   9 H    1     2.7315     5.1618    2 B    0-1 1

  10 H    1     1.0915     2.0626   23 C    0 0 0
  10 H    1     2.1490     4.0610   24 C    0 0 0
  10 H    1     2.1669     4.0948   20 C    0 0 0
  10 H    1     2.5202     4.7625    7 H    0 0 0
  10 H    1     2.5712     4.8588   41 O    0 0 0
  10 H    1     2.7351     5.1686    4 B    0 0 0

  11 H    1     1.0913     2.0623   26 C    0 0 0
  11 H    1     2.1469     4.0571   25 C   -1 0 0
  11 H    1     2.1680     4.0968   29 C    0 0-1
  11 H    1     2.5198     4.7617   14 H    0 0-1
  11 H    1     2.5670     4.8510   38 O    0 0 0
  11 H    1     2.7310     5.1609    1 B    0 0 0

  12 H    1     1.0914     2.0625   27 C    0 0 0
  12 H    1     2.1493     4.0617   30 C    0 0 0
  12 H    1     2.1664     4.0939   28 C    0 0 1
  12 H    1     2.5192     4.7606   13 H    0 0 1
  12 H    1     2.5735     4.8632   40 O    0 0 0
  12 H    1     2.7371     5.1723    6 B    0 0 0

  13 H    1     1.0914     2.0624   28 C    0 0 0
  13 H    1     2.1475     4.0581   25 C    0 0 0
  13 H    1     2.1679     4.0967   27 C    0 0-1
  13 H    1     2.5192     4.7606   12 H    0 0-1
  13 H    1     2.5675     4.8519   37 O    0 0 0
  13 H    1     2.7328     5.1643    1 B    1 0 0

  14 H    1     1.0914     2.0625   29 C    0 0 0
  14 H    1     2.1491     4.0612   30 C   -1 0 0
  14 H    1     2.1666     4.0942   26 C    0 0 1
  14 H    1     2.5198     4.7617   11 H    0 0 1
  14 H    1     2.5723     4.8609   42 O    0 0 0
  14 H    1     2.7355     5.1693    6 B   -1 0 0

  15 H    1     1.0914     2.0624   32 C    0 0 0
  15 H    1     2.1475     4.0582   31 C   -1-1 1
  15 H    1     2.1678     4.0966   35 C    0 0 0
  15 H    1     2.5200     4.7621   18 H    0 0 0
  15 H    1     2.5667     4.8503   39 O    0 0 0
  15 H    1     2.7315     5.1618    3 B   -1-1 1

  16 H    1     1.0913     2.0623   33 C    0 0 0
  16 H    1     2.1487     4.0605   36 C    0 0 0
  16 H    1     2.1667     4.0945   34 C    0 0 0
  16 H    1     2.5197     4.7616   17 H    0 0 0
  16 H    1     2.5723     4.8610   41 O    0 0 0
  16 H    1     2.7359     5.1701    5 B    0 0 0

  17 H    1     1.0915     2.0626   34 C    0 0 0
  17 H    1     2.1479     4.0589   31 C    0 0 0
  17 H    1     2.1679     4.0968   33 C    0 0 0
  17 H    1     2.5197     4.7616   16 H    0 0 0
  17 H    1     2.5677     4.8522   37 O    0 0 0
  17 H    1     2.7331     5.1648    3 B    0 0 0

  18 H    1     1.0914     2.0624   35 C    0 0 0
  18 H    1     2.1486     4.0602   36 C   -1-1 1
  18 H    1     2.1668     4.0947   32 C    0 0 0
  18 H    1     2.5200     4.7621   15 H    0 0 0
  18 H    1     2.5717     4.8598   42 O    0 0 0
  18 H    1     2.7349     5.1682    5 B   -1-1 1

  19 C    1     1.4020     2.6495   22 C    0 1-1
  19 C    1     1.4021     2.6495   20 C    0 0 0
  19 C    1     1.5504     2.9298    2 B    0 0 0
  19 C    1     2.1471     4.0575    9 H    0 1-1
  19 C    1     2.1472     4.0576    7 H    0 0 0
  19 C    1     2.4246     4.5817   21 C    0 1-1

  20 C    1     1.0913     2.0623    7 H    0 0 0
  20 C    1     1.3914     2.6294   23 C    0 0 0
  20 C    1     1.4021     2.6495   19 C    0 0 0
  20 C    1     2.1669     4.0948   10 H    0 0 0
  20 C    1     2.4177     4.5688   22 C    0 1-1
  20 C    1     2.4250     4.5825   24 C    0 0 0

  21 C    1     1.0914     2.0625    8 H    0 0 0
  21 C    1     1.3914     2.6293   22 C    0 0 0
  21 C    1     1.4026     2.6505   24 C    0-1 1
  21 C    1     2.1680     4.0970    9 H    0 0 0
  21 C    1     2.4182     4.5697   23 C    0-1 1
  21 C    1     2.4246     4.5817   19 C    0-1 1

  22 C    1     1.0914     2.0624    9 H    0 0 0
  22 C    1     1.3914     2.6293   21 C    0 0 0
  22 C    1     1.4020     2.6495   19 C    0-1 1
  22 C    1     2.1666     4.0942    8 H    0 0 0
  22 C    1     2.4177     4.5688   20 C    0-1 1
  22 C    1     2.4250     4.5826   24 C    0-1 1

  23 C    1     1.0915     2.0626   10 H    0 0 0
  23 C    1     1.3914     2.6294   20 C    0 0 0
  23 C    1     1.4025     2.6504   24 C    0 0 0
  23 C    1     2.1680     4.0969    7 H    0 0 0
  23 C    1     2.4182     4.5697   21 C    0 1-1
  23 C    1     2.4246     4.5818   19 C    0 0 0

  24 C    1     1.4025     2.6504   23 C    0 0 0
  24 C    1     1.4026     2.6505   21 C    0 1-1
  24 C    1     1.5513     2.9316    4 B    0 0 0
  24 C    1     2.1490     4.0610   10 H    0 0 0
  24 C    1     2.1493     4.0616    8 H    0 1-1
  24 C    1     2.4250     4.5825   20 C    0 0 0

  25 C    1     1.4020     2.6494   26 C    1 0 0
  25 C    1     1.4021     2.6495   28 C    0 0 0
  25 C    1     1.5503     2.9297    1 B    1 0 0
  25 C    1     2.1469     4.0571   11 H    1 0 0
  25 C    1     2.1475     4.0581   13 H    0 0 0
  25 C    1     2.4246     4.5818   27 C    0 0-1

  26 C    1     1.0913     2.0623   11 H    0 0 0
  26 C    1     1.3914     2.6293   29 C    0 0-1
  26 C    1     1.4020     2.6494   25 C   -1 0 0
  26 C    1     2.1666     4.0942   14 H    0 0-1
  26 C    1     2.4175     4.5684   28 C   -1 0 0
  26 C    1     2.4251     4.5828   30 C   -1 0-1

  27 C    1     1.0914     2.0625   12 H    0 0 0
  27 C    1     1.3915     2.6295   28 C    0 0 1
  27 C    1     1.4026     2.6505   30 C    0 0 0
  27 C    1     2.1679     4.0967   13 H    0 0 1
  27 C    1     2.4179     4.5691   29 C    1 0 0
  27 C    1     2.4246     4.5818   25 C    0 0 1

  28 C    1     1.0914     2.0624   13 H    0 0 0
  28 C    1     1.3915     2.6295   27 C    0 0-1
  28 C    1     1.4021     2.6495   25 C    0 0 0
  28 C    1     2.1664     4.0939   12 H    0 0-1
  28 C    1     2.4175     4.5684   26 C    1 0 0
  28 C    1     2.4253     4.5832   30 C    0 0-1

  29 C    1     1.0914     2.0625   14 H    0 0 0
  29 C    1     1.3914     2.6293   26 C    0 0 1
  29 C    1     1.4025     2.6504   30 C   -1 0 0
  29 C    1     2.1680     4.0968   11 H    0 0 1
  29 C    1     2.4179     4.5691   27 C   -1 0 0
  29 C    1     2.4247     4.5819   25 C   -1 0 1

  30 C    1     1.4025     2.6504   29 C    1 0 0
  30 C    1     1.4026     2.6505   27 C    0 0 0
  30 C    1     1.5516     2.9322    6 B    0 0 0
  30 C    1     2.1491     4.0612   14 H    1 0 0
  30 C    1     2.1493     4.0617   12 H    0 0 0
  30 C    1     2.4251     4.5828   26 C    1 0 1

  31 C    1     1.4021     2.6496   32 C    1 1-1
  31 C    1     1.4021     2.6497   34 C    0 0 0
  31 C    1     1.5502     2.9294    3 B    0 0 0
  31 C    1     2.1475     4.0582   15 H    1 1-1
  31 C    1     2.1479     4.0589   17 H    0 0 0
  31 C    1     2.4244     4.5814   33 C    0 0 0

  32 C    1     1.0914     2.0624   15 H    0 0 0
  32 C    1     1.3914     2.6293   35 C    0 0 0
  32 C    1     1.4021     2.6496   31 C   -1-1 1
  32 C    1     2.1668     4.0947   18 H    0 0 0
  32 C    1     2.4179     4.5692   34 C   -1-1 1
  32 C    1     2.4251     4.5827   36 C   -1-1 1

  33 C    1     1.0913     2.0623   16 H    0 0 0
  33 C    1     1.3914     2.6294   34 C    0 0 0
  33 C    1     1.4025     2.6504   36 C    0 0 0
  33 C    1     2.1679     4.0968   17 H    0 0 0
  33 C    1     2.4178     4.5690   35 C    1 1-1
  33 C    1     2.4244     4.5814   31 C    0 0 0

  34 C    1     1.0915     2.0626   17 H    0 0 0
  34 C    1     1.3914     2.6294   33 C    0 0 0
  34 C    1     1.4021     2.6497   31 C    0 0 0
  34 C    1     2.1667     4.0945   16 H    0 0 0
  34 C    1     2.4179     4.5692   32 C    1 1-1
  34 C    1     2.4253     4.5832   36 C    0 0 0

  35 C    1     1.0914     2.0624   18 H    0 0 0
  35 C    1     1.3914     2.6293   32 C    0 0 0
  35 C    1     1.4025     2.6503   36 C   -1-1 1
  35 C    1     2.1678     4.0966   15 H    0 0 0
  35 C    1     2.4178     4.5690   33 C   -1-1 1
  35 C    1     2.4245     4.5817   31 C   -1-1 1

  36 C    1     1.4025     2.6503   35 C    1 1-1
  36 C    1     1.4025     2.6504   33 C    0 0 0
  36 C    1     1.5516     2.9322    5 B    0 0 0
  36 C    1     2.1486     4.0602   18 H    1 1-1
  36 C    1     2.1487     4.0605   16 H    0 0 0
  36 C    1     2.4251     4.5827   32 C    1 1-1

  37 O    1     1.3791     2.6061    3 B    0 0 0
  37 O    1     1.3791     2.6061    1 B    1 0 0
  37 O    1     2.3880     4.5126   38 O    1 0 0
  37 O    1     2.3882     4.5130   39 O    1 1-1
  37 O    1     2.5383     4.7966   31 C    0 0 0
  37 O    1     2.5384     4.7968   25 C    0 0 0

  38 O    1     1.3793     2.6065    1 B    0 0 0
  38 O    1     1.3793     2.6065    2 B    0 0 0
  38 O    1     2.3880     4.5126   37 O   -1 0 0
  38 O    1     2.3882     4.5131   39 O    0 1-1
  38 O    1     2.5391     4.7981   19 C    0 0 0
  38 O    1     2.5395     4.7990   25 C   -1 0 0

  39 O    1     1.3793     2.6064    3 B   -1-1 1
  39 O    1     1.3793     2.6065    2 B    0-1 1
  39 O    1     2.3882     4.5130   37 O   -1-1 1
  39 O    1     2.3882     4.5131   38 O    0-1 1
  39 O    1     2.5390     4.7980   19 C    0-1 1
  39 O    1     2.5391     4.7982   31 C   -1-1 1

  40 O    1     1.3795     2.6068    6 B    0 0 0
  40 O    1     1.3795     2.6068    4 B    0-1 1
  40 O    1     2.3880     4.5126   42 O    1 0 0
  40 O    1     2.3884     4.5134   41 O    0-1 1
  40 O    1     2.5400     4.7998   24 C    0-1 1
  40 O    1     2.5403     4.8005   30 C    0 0 0

  41 O    1     1.3795     2.6069    5 B    0 0 0
  41 O    1     1.3795     2.6070    4 B    0 0 0
  41 O    1     2.3881     4.5128   42 O    1 1-1
  41 O    1     2.3884     4.5134   40 O    0 1-1
  41 O    1     2.5404     4.8006   24 C    0 0 0
  41 O    1     2.5405     4.8008   36 C    0 0 0

  42 O    1     1.3796     2.6071    6 B   -1 0 0
  42 O    1     1.3797     2.6072    5 B   -1-1 1
  42 O    1     2.3880     4.5126   40 O   -1 0 0
  42 O    1     2.3881     4.5128   41 O   -1-1 1
  42 O    1     2.5409     4.8016   36 C   -1-1 1
  42 O    1     2.5410     4.8019   30 C   -1 0 0


 SYMMETRY ALLOWED INTERNAL DEGREE(S) OF FREEDOM: 123
 TTTTTTTTTTTTTTTTTTTTTTTTTTTTTT SYMM        TELAPSE        0.29 TCPU        0.29
 TTTTTTTTTTTTTTTTTTTTTTTTTTTTTT INT_SCREEN  TELAPSE        0.32 TCPU        0.32

 DFT PARAMETERS

     ATOM       ELECTRONS   NET CHARGE   R(ANGSTROM)
   1   5  B       5.0000      0.0000     0.89000000
   7   1  H       1.0000      0.0000     1.11000000
  19   6  C       6.0000      0.0000     0.77000000
  37   8  O       8.0000      0.0000     0.74000000

 SIZE OF GRID=    1259465
 TTTTTTTTTTTTTTTTTTTTTTTTTTTTTT MAKE_GRID2  TELAPSE       11.92 TCPU       11.91
 BECKE WEIGHT FUNCTION
 RADSAFE =     2.00
 TOLERANCES - DENSITY:10**- 6; POTENTIAL:10**- 9; GRID WGT:10**-14

 RADIAL INTEGRATION  - INTERVALS (POINTS,UPPER LIMIT):            1( 75,  4.0*R)

 ANGULAR INTEGRATION - INTERVALS (ACCURACY LEVEL [N. POINTS] UPPER LIMIT):
  1(  4[  86]   0.2)  2(  8[ 194]   0.5)  3( 12[ 350]   0.9)  4( 16[ 974]   3.5)
  5( 12[ 350]9999.0)
 TTTTTTTTTTTTTTTTTTTTTTTTTTTTTT INT_CALC    TELAPSE       12.03 TCPU       12.02
 EEEEEEEEEE INT_CALC TERMINATION  DATE 19 02 2026 TIME 18:21:45.3

 *******************************************************************************
 cof-1_z35_L010_incl                                                             
 CRYSTAL - SCF - TYPE OF CALCULATION :  RESTRICTED CLOSED SHELL
 *******************************************************************************

 CAPPA:IS1  2;IS2  2;IS3  8; K PTS MONK NET  20; SYMMOPS:K SPACE   2;G SPACE   1

 TTTTTTTTTTTTTTTTTTTTTTTTTTTTTT SDIK        TELAPSE       12.67 TCPU       19.88

 AAAAAAAAAAAAAAAAAAAAAAAAAAAAAAAAAAAAAAAAAAAAAAAAAAAAAAAAAAAAAAAAAAAAAAAAAAAAAAA
         ATOMIC WAVEFUNCTION(S)


 NUCLEAR CHARGE  5.0  SYMMETRY SPECIES            S    P
 N. ELECTRONS    5.0  NUMBER OF PRIMITIVE GTOS    8    4
                      NUMBER OF CONTRACTED GTOS   4    2
                      NUMBER OF CLOSED SHELLS     2    0
                      OPEN SHELL OCCUPATION       0    1

  ZNUC  SCFIT    TOTAL HF ENERGY   KINETIC ENERGY   VIRIAL THEOREM ACCURACY
   5.0    11    -2.451164084E+01  2.462155050E+01 -1.995536038E+00  1.5E-06

 NUCLEAR CHARGE  1.0  SYMMETRY SPECIES            S
 N. ELECTRONS    1.0  NUMBER OF PRIMITIVE GTOS    4
                      NUMBER OF CONTRACTED GTOS   2
                      NUMBER OF CLOSED SHELLS     0
                      OPEN SHELL OCCUPATION       1

  ZNUC  SCFIT    TOTAL HF ENERGY   KINETIC ENERGY   VIRIAL THEOREM ACCURACY
   1.0     1    -4.977266687E-01  5.190767460E-01 -1.958869132E+00  0.0E+00

 NUCLEAR CHARGE  6.0  SYMMETRY SPECIES            S    P
 N. ELECTRONS    6.0  NUMBER OF PRIMITIVE GTOS    8    4
                      NUMBER OF CONTRACTED GTOS   4    2
                      NUMBER OF CLOSED SHELLS     2    0
                      OPEN SHELL OCCUPATION       0    2

  ZNUC  SCFIT    TOTAL HF ENERGY   KINETIC ENERGY   VIRIAL THEOREM ACCURACY
   6.0     9    -3.766704647E+01  3.775180683E+01 -1.997754800E+00  1.1E-06

 NUCLEAR CHARGE  8.0  SYMMETRY SPECIES            S    P
 N. ELECTRONS    8.0  NUMBER OF PRIMITIVE GTOS    8    4
                      NUMBER OF CONTRACTED GTOS   4    2
                      NUMBER OF CLOSED SHELLS     2    0
                      OPEN SHELL OCCUPATION       0    4

  ZNUC  SCFIT    TOTAL HF ENERGY   KINETIC ENERGY   VIRIAL THEOREM ACCURACY
   8.0    12    -7.477373220E+01  7.477365593E+01 -2.000001020E+00  3.8E-06

 AAAAAAAAAAAAAAAAAAAAAAAAAAAAAAAAAAAAAAAAAAAAAAAAAAAAAAAAAAAAAAAAAAAAAAAAAAAAAAA

 CHARGE NORMALIZATION FACTOR   1.00000000
 TOTAL ATOMIC CHARGES:
   5.0000000   5.0000000   5.0000000   5.0000000   5.0000000   5.0000000
   1.0000000   1.0000000   1.0000000   1.0000000   1.0000000   1.0000000
   1.0000000   1.0000000   1.0000000   1.0000000   1.0000000   1.0000000
   6.0000000   6.0000000   6.0000000   6.0000000   6.0000000   6.0000000
   6.0000000   6.0000000   6.0000000   6.0000000   6.0000000   6.0000000
   6.0000000   6.0000000   6.0000000   6.0000000   6.0000000   6.0000000
   8.0000000   8.0000000   8.0000000   8.0000000   8.0000000   8.0000000
 TTTTTTTTTTTTTTTTTTTTTTTTTTTTTT MOQGAD      TELAPSE       12.72 TCPU       21.35
 TTTTTTTTTTTTTTTTTTTTTTTTTTTTTT SHELLXN     TELAPSE       23.35 TCPU      358.91
 TTTTTTTTTTTTTTTTTTTTTTTTTTTTTT MONMO3      TELAPSE       23.53 TCPU      364.60
 NUMERICALLY INTEGRATED DENSITY    197.9999174377
 TTTTTTTTTTTTTTTTTTTTTTTTTTTTTT NUMDFT      TELAPSE       24.14 TCPU      384.23
 CYC   0 ETOT(AU) -1.295982620902E+03 DETOT -1.30E+03 tst  0.00E+00 PX  1.00E+00
 TTTTTTTTTTTTTTTTTTTTTTTTTTTTTT DIIS        TELAPSE       24.18 TCPU      385.35
 TTTTTTTTTTTTTTTTTTTTTTTTTTTTTT FDIK        TELAPSE       24.66 TCPU      400.81
 INSULATING STATE
 TOP OF VALENCE BANDS -    BAND     99; K    1; EIG -2.9594221E-01 AU
 BOTTOM OF VIRTUAL BANDS - BAND    100; K   17; EIG -1.7231559E-01 AU
 INDIRECT ENERGY BAND GAP:   3.3641 eV
 BOTTOM OF VIRTUAL BANDS - BAND    100; K    1; EIG -1.4088042E-01 AU
 TTTTTTTTTTTTTTTTTTTTTTTTTTTTTT PDIG        TELAPSE       24.94 TCPU      406.95
 CHARGE NORMALIZATION FACTOR   1.00000000
 TOTAL ATOMIC CHARGES:
   4.1302039   4.1276810   4.1281601   4.1279678   4.1277074   4.1302715
   0.7863567   0.7864560   0.7861001   0.7862125   0.7860558   0.7862284
   0.7860476   0.7861969   0.7860930   0.7862723   0.7863033   0.7864491
   6.0549110   6.2709616   6.2709546   6.2699887   6.2698224   6.0540652
   6.0536108   6.2696912   6.2696145   6.2695787   6.2696129   6.0523779
   6.0551678   6.2697542   6.2702241   6.2705622   6.2712075   6.0536043
   8.7050648   8.7052621   8.7028693   8.7054888   8.7032069   8.7056356
 TTTTTTTTTTTTTTTTTTTTTTTTTTTTTT MOQGAD      TELAPSE       25.00 TCPU      407.01
 TTTTTTTTTTTTTTTTTTTTTTTTTTTTTT SHELLXN     TELAPSE       35.94 TCPU      756.22
 TTTTTTTTTTTTTTTTTTTTTTTTTTTTTT MONMO3      TELAPSE       36.12 TCPU      761.90
 NUMERICALLY INTEGRATED DENSITY    197.9999345600
 TTTTTTTTTTTTTTTTTTTTTTTTTTTTTT NUMDFT      TELAPSE       36.75 TCPU      781.84
 CYC   1 ETOT(AU) -1.288813514886E+03 DETOT  7.17E+00 tst  0.00E+00 PX  1.00E+00
 TTTTTTTTTTTTTTTTTTTTTTTTTTTTTT DIIS        TELAPSE       36.79 TCPU      783.21
 DIIS TEST: 0.11054E+01 AT SCF   CYCLE   1 - MIX   30 %
 TTTTTTTTTTTTTTTTTTTTTTTTTTTTTT FDIK        TELAPSE       37.28 TCPU      798.79
 INSULATING STATE
 TOP OF VALENCE BANDS -    BAND     99; K    1; EIG -1.9671991E-01 AU
 BOTTOM OF VIRTUAL BANDS - BAND    100; K   17; EIG -9.5117679E-02 AU
 INDIRECT ENERGY BAND GAP:   2.7647 eV
 BOTTOM OF VIRTUAL BANDS - BAND    100; K    1; EIG -5.9304222E-02 AU
 TTTTTTTTTTTTTTTTTTTTTTTTTTTTTT PDIG        TELAPSE       37.56 TCPU      804.93
 CHARGE NORMALIZATION FACTOR   1.00000000
 TOTAL ATOMIC CHARGES:
   4.6922967   4.6876578   4.6865851   4.6870898   4.6876048   4.6918025
   0.9219911   0.9221477   0.9226871   0.9226613   0.9205917   0.9205383
   0.9205440   0.9204691   0.9226034   0.9226502   0.9218894   0.9219480
   5.8671688   6.1176754   6.1180057   6.1284920   6.1303438   5.8699068
   5.8682074   6.1230437   6.1249232   6.1239687   6.1245102   5.8714640
   5.8669386   6.1287269   6.1304262   6.1178439   6.1180982   5.8703129
   8.3499578   8.3502574   8.3532174   8.3495507   8.3535719   8.3496305
 TTTTTTTTTTTTTTTTTTTTTTTTTTTTTT MOQGAD      TELAPSE       37.61 TCPU      804.98
 TTTTTTTTTTTTTTTTTTTTTTTTTTTTTT SHELLXN     TELAPSE       48.56 TCPU     1154.15
 TTTTTTTTTTTTTTTTTTTTTTTTTTTTTT MONMO3      TELAPSE       48.74 TCPU     1159.83
 NUMERICALLY INTEGRATED DENSITY    197.9999215210
 TTTTTTTTTTTTTTTTTTTTTTTTTTTTTT NUMDFT      TELAPSE       49.36 TCPU     1179.79
 CYC   2 ETOT(AU) -1.289006148215E+03 DETOT -1.93E-01 tst  3.83E-03 PX  1.56E-01
 TTTTTTTTTTTTTTTTTTTTTTTTTTTTTT DIIS        TELAPSE       49.41 TCPU     1181.34
 DIIS TEST: 0.48685E+00 AT SCF   CYCLE   2 - DIIS ACTIVE - HISTORY:     2 CYCLES
 TTTTTTTTTTTTTTTTTTTTTTTTTTTTTT FDIK        TELAPSE       49.89 TCPU     1196.78
 INSULATING STATE
 TOP OF VALENCE BANDS -    BAND     99; K    1; EIG -2.1416465E-01 AU
 BOTTOM OF VIRTUAL BANDS - BAND    100; K   17; EIG -9.0503513E-02 AU
 INDIRECT ENERGY BAND GAP:   3.3650 eV
 BOTTOM OF VIRTUAL BANDS - BAND    100; K    1; EIG -5.2752644E-02 AU
 TTTTTTTTTTTTTTTTTTTTTTTTTTTTTT PDIG        TELAPSE       50.17 TCPU     1202.93
 CHARGE NORMALIZATION FACTOR   1.00000000
 TOTAL ATOMIC CHARGES:
   4.4737847   4.4690316   4.4687071   4.4681703   4.4682719   4.4728966
   0.8927953   0.8929784   0.8932744   0.8933045   0.8918475   0.8921848
   0.8919999   0.8920062   0.8932144   0.8933310   0.8927393   0.8928563
   5.8977527   6.1663453   6.1661878   6.1645562   6.1630124   5.8962899
   5.9006086   6.1637828   6.1627763   6.1636426   6.1629748   5.8993862
   5.8984550   6.1646318   6.1631420   6.1663557   6.1661940   5.8956677
   8.5185464   8.5186834   8.5150660   8.5188523   8.5147590   8.5189367
 TTTTTTTTTTTTTTTTTTTTTTTTTTTTTT MOQGAD      TELAPSE       50.23 TCPU     1202.98
 TTTTTTTTTTTTTTTTTTTTTTTTTTTTTT SHELLXN     TELAPSE       61.17 TCPU     1552.03
 TTTTTTTTTTTTTTTTTTTTTTTTTTTTTT MONMO3      TELAPSE       61.35 TCPU     1557.70
 NUMERICALLY INTEGRATED DENSITY    197.9999218469
 TTTTTTTTTTTTTTTTTTTTTTTTTTTTTT NUMDFT      TELAPSE       61.97 TCPU     1577.68
 CYC   3 ETOT(AU) -1.289109026639E+03 DETOT -1.03E-01 tst  7.06E-04 PX  5.85E-02
 TTTTTTTTTTTTTTTTTTTTTTTTTTTTTT DIIS        TELAPSE       62.03 TCPU     1579.44
 DIIS TEST: 0.98342E-02 AT SCF   CYCLE   3 - DIIS ACTIVE - HISTORY:     3 CYCLES
 TTTTTTTTTTTTTTTTTTTTTTTTTTTTTT FDIK        TELAPSE       62.52 TCPU     1595.05
 INSULATING STATE
 TOP OF VALENCE BANDS -    BAND     99; K    1; EIG -2.2314279E-01 AU
 BOTTOM OF VIRTUAL BANDS - BAND    100; K   17; EIG -1.0070187E-01 AU
 INDIRECT ENERGY BAND GAP:   3.3318 eV
 BOTTOM OF VIRTUAL BANDS - BAND    100; K    1; EIG -6.3770468E-02 AU
 TTTTTTTTTTTTTTTTTTTTTTTTTTTTTT PDIG        TELAPSE       62.80 TCPU     1601.19
 CHARGE NORMALIZATION FACTOR   1.00000000
 TOTAL ATOMIC CHARGES:
   4.4826186   4.4768006   4.4761025   4.4769982   4.4773275   4.4829576
   0.8775790   0.8778442   0.8775972   0.8774393   0.8760195   0.8759655
   0.8759849   0.8759307   0.8775781   0.8774083   0.8775594   0.8776421
   5.9499613   6.1560941   6.1564279   6.1632698   6.1671098   5.9550007
   5.9514952   6.1594660   6.1619215   6.1602042   6.1614632   5.9560835
   5.9495621   6.1631876   6.1674497   6.1558206   6.1568290   5.9554788
   8.4916214   8.4918582   8.4943398   8.4913416   8.4952533   8.4914073
 TTTTTTTTTTTTTTTTTTTTTTTTTTTTTT MOQGAD      TELAPSE       62.86 TCPU     1601.24
 TTTTTTTTTTTTTTTTTTTTTTTTTTTTTT SHELLXN     TELAPSE       73.80 TCPU     1950.37
 TTTTTTTTTTTTTTTTTTTTTTTTTTTTTT MONMO3      TELAPSE       73.98 TCPU     1956.05
 NUMERICALLY INTEGRATED DENSITY    197.9999228296
 TTTTTTTTTTTTTTTTTTTTTTTTTTTTTT NUMDFT      TELAPSE       74.60 TCPU     1976.01
 CYC   4 ETOT(AU) -1.289110990645E+03 DETOT -1.96E-03 tst  3.29E-05 PX  1.28E-02
 TTTTTTTTTTTTTTTTTTTTTTTTTTTTTT DIIS        TELAPSE       74.66 TCPU     1977.91
 DIIS TEST: 0.36144E-02 AT SCF   CYCLE   4 - DIIS ACTIVE - HISTORY:     4 CYCLES
 TTTTTTTTTTTTTTTTTTTTTTTTTTTTTT FDIK        TELAPSE       75.15 TCPU     1993.61
 INSULATING STATE
 TOP OF VALENCE BANDS -    BAND     99; K    1; EIG -2.2181028E-01 AU
 BOTTOM OF VIRTUAL BANDS - BAND    100; K   17; EIG -9.9263433E-02 AU
 INDIRECT ENERGY BAND GAP:   3.3347 eV
 BOTTOM OF VIRTUAL BANDS - BAND    100; K    1; EIG -6.2110578E-02 AU
 TTTTTTTTTTTTTTTTTTTTTTTTTTTTTT PDIG        TELAPSE       75.44 TCPU     1999.75
 CHARGE NORMALIZATION FACTOR   1.00000000
 TOTAL ATOMIC CHARGES:
   4.4835725   4.4787460   4.4782067   4.4775046   4.4777015   4.4823599
   0.8803336   0.8804922   0.8805708   0.8807173   0.8791035   0.8794125
   0.8792012   0.8792594   0.8804971   0.8807457   0.8802442   0.8803697
   5.9276861   6.1654600   6.1649732   6.1694358   6.1666231   5.9234962
   5.9288249   6.1664423   6.1651994   6.1665209   6.1653144   5.9254892
   5.9283037   6.1695944   6.1666972   6.1655693   6.1649592   5.9229727
   8.5016644   8.5018036   8.5004092   8.5018053   8.4998580   8.5018592
 TTTTTTTTTTTTTTTTTTTTTTTTTTTTTT MOQGAD      TELAPSE       75.49 TCPU     1999.80
 TTTTTTTTTTTTTTTTTTTTTTTTTTTTTT SHELLXN     TELAPSE       86.44 TCPU     2348.94
 TTTTTTTTTTTTTTTTTTTTTTTTTTTTTT MONMO3      TELAPSE       86.61 TCPU     2354.62
 NUMERICALLY INTEGRATED DENSITY    197.9999229041
 TTTTTTTTTTTTTTTTTTTTTTTTTTTTTT NUMDFT      TELAPSE       87.24 TCPU     2374.59
 CYC   5 ETOT(AU) -1.289111782233E+03 DETOT -7.92E-04 tst  6.85E-06 PX  7.70E-03
 TTTTTTTTTTTTTTTTTTTTTTTTTTTTTT DIIS        TELAPSE       87.31 TCPU     2376.69
 DIIS TEST: 0.19004E-03 AT SCF   CYCLE   5 - DIIS ACTIVE - HISTORY:     5 CYCLES
 TTTTTTTTTTTTTTTTTTTTTTTTTTTTTT FDIK        TELAPSE       87.80 TCPU     2392.36
 INSULATING STATE
 TOP OF VALENCE BANDS -    BAND     99; K    1; EIG -2.2152407E-01 AU
 BOTTOM OF VIRTUAL BANDS - BAND    100; K   17; EIG -9.8759827E-02 AU
 INDIRECT ENERGY BAND GAP:   3.3406 eV
 BOTTOM OF VIRTUAL BANDS - BAND    100; K    1; EIG -6.1595252E-02 AU
 TTTTTTTTTTTTTTTTTTTTTTTTTTTTTT PDIG        TELAPSE       88.08 TCPU     2398.50
 CHARGE NORMALIZATION FACTOR   1.00000000
 TOTAL ATOMIC CHARGES:
   4.4823242   4.4770503   4.4764607   4.4777672   4.4780430   4.4831073
   0.8813847   0.8816279   0.8817919   0.8815356   0.8802464   0.8802217
   0.8802654   0.8801489   0.8817706   0.8815122   0.8813606   0.8814431
   5.9229202   6.1625257   6.1637279   6.1644557   6.1700217   5.9318919
   5.9253817   6.1629903   6.1660041   6.1634366   6.1657433   5.9330325
   5.9227813   6.1643534   6.1703651   6.1622569   6.1640813   5.9321142
   8.5004357   8.5006602   8.5003864   8.5003559   8.5015648   8.5004517
 TTTTTTTTTTTTTTTTTTTTTTTTTTTTTT MOQGAD      TELAPSE       88.13 TCPU     2398.55
 TTTTTTTTTTTTTTTTTTTTTTTTTTTTTT SHELLXN     TELAPSE       99.08 TCPU     2747.71
 TTTTTTTTTTTTTTTTTTTTTTTTTTTTTT MONMO3      TELAPSE       99.26 TCPU     2753.39
 NUMERICALLY INTEGRATED DENSITY    197.9999228274
 TTTTTTTTTTTTTTTTTTTTTTTTTTTTTT NUMDFT      TELAPSE       99.88 TCPU     2773.34
 CYC   6 ETOT(AU) -1.289111763672E+03 DETOT  1.86E-05 tst  3.22E-06 PX  2.12E-03
 TTTTTTTTTTTTTTTTTTTTTTTTTTTTTT DIIS        TELAPSE       99.95 TCPU     2775.61
 DIIS TEST: 0.25025E-03 AT SCF   CYCLE   6 - DIIS ACTIVE - HISTORY:     6 CYCLES
 TTTTTTTTTTTTTTTTTTTTTTTTTTTTTT FDIK        TELAPSE      100.44 TCPU     2791.18
 INSULATING STATE
 TOP OF VALENCE BANDS -    BAND     99; K    1; EIG -2.2154501E-01 AU
 BOTTOM OF VIRTUAL BANDS - BAND    100; K   17; EIG -9.8787926E-02 AU
 INDIRECT ENERGY BAND GAP:   3.3404 eV
 BOTTOM OF VIRTUAL BANDS - BAND    100; K    1; EIG -6.1619568E-02 AU
 TTTTTTTTTTTTTTTTTTTTTTTTTTTTTT PDIG        TELAPSE      100.72 TCPU     2797.32
 CHARGE NORMALIZATION FACTOR   1.00000000
 TOTAL ATOMIC CHARGES:
   4.4830245   4.4778498   4.4772844   4.4772257   4.4774674   4.4824714
   0.8813969   0.8816264   0.8816562   0.8816579   0.8801523   0.8803171
   0.8801998   0.8802153   0.8816121   0.8816558   0.8813468   0.8814652
   5.9280350   6.1631195   6.1628439   6.1668892   6.1669968   5.9279287
   5.9296877   6.1641502   6.1643887   6.1644877   6.1642426   5.9297895
   5.9282097   6.1669008   6.1672245   6.1630219   6.1630336   5.9278390
   8.5003817   8.5005629   8.5003542   8.5003701   8.5004794   8.5004378
 TTTTTTTTTTTTTTTTTTTTTTTTTTTTTT MOQGAD      TELAPSE      100.78 TCPU     2797.37
 TTTTTTTTTTTTTTTTTTTTTTTTTTTTTT SHELLXN     TELAPSE      111.72 TCPU     3146.39
 TTTTTTTTTTTTTTTTTTTTTTTTTTTTTT MONMO3      TELAPSE      111.90 TCPU     3152.07
 NUMERICALLY INTEGRATED DENSITY    197.9999228131
 TTTTTTTTTTTTTTTTTTTTTTTTTTTTTT NUMDFT      TELAPSE      112.52 TCPU     3172.05
 CYC   7 ETOT(AU) -1.289111828956E+03 DETOT -6.53E-05 tst  1.45E-06 PX  1.31E-03
 TTTTTTTTTTTTTTTTTTTTTTTTTTTTTT DIIS        TELAPSE      112.60 TCPU     3174.49
 DIIS TEST: 0.34760E-05 AT SCF   CYCLE   7 - DIIS ACTIVE - HISTORY:     7 CYCLES
 TTTTTTTTTTTTTTTTTTTTTTTTTTTTTT FDIK        TELAPSE      113.09 TCPU     3190.26
 INSULATING STATE
 TOP OF VALENCE BANDS -    BAND     99; K    1; EIG -2.2158462E-01 AU
 BOTTOM OF VIRTUAL BANDS - BAND    100; K   17; EIG -9.8867372E-02 AU
 INDIRECT ENERGY BAND GAP:   3.3393 eV
 BOTTOM OF VIRTUAL BANDS - BAND    100; K    1; EIG -6.1697606E-02 AU
 TTTTTTTTTTTTTTTTTTTTTTTTTTTTTT PDIG        TELAPSE      113.37 TCPU     3196.40
 CHARGE NORMALIZATION FACTOR   1.00000000
 TOTAL ATOMIC CHARGES:
   4.4830978   4.4780348   4.4774786   4.4775411   4.4777662   4.4826567
   0.8813011   0.8814835   0.8815499   0.8815414   0.8800476   0.8802252
   0.8801168   0.8801011   0.8814929   0.8815519   0.8812358   0.8813371
   5.9273733   6.1631120   6.1633546   6.1667450   6.1670594   5.9281879
   5.9290001   6.1641427   6.1645680   6.1643636   6.1645435   5.9299159
   5.9277103   6.1668222   6.1672203   6.1630905   6.1634711   5.9279378
   8.5005857   8.5007575   8.5000227   8.5006467   8.5000968   8.5007128
 TTTTTTTTTTTTTTTTTTTTTTTTTTTTTT MOQGAD      TELAPSE      113.43 TCPU     3196.45
 TTTTTTTTTTTTTTTTTTTTTTTTTTTTTT SHELLXN     TELAPSE      124.37 TCPU     3545.59
 TTTTTTTTTTTTTTTTTTTTTTTTTTTTTT MONMO3      TELAPSE      124.55 TCPU     3551.28
 NUMERICALLY INTEGRATED DENSITY    197.9999228095
 TTTTTTTTTTTTTTTTTTTTTTTTTTTTTT NUMDFT      TELAPSE      125.17 TCPU     3571.24
 CYC   8 ETOT(AU) -1.289111829687E+03 DETOT -7.31E-07 tst  1.10E-08 PX  1.72E-04
 TTTTTTTTTTTTTTTTTTTTTTTTTTTTTT DIIS        TELAPSE      125.26 TCPU     3573.82
 DIIS TEST: 0.35989E-06 AT SCF   CYCLE   8 - DIIS ACTIVE - HISTORY:     8 CYCLES
 TTTTTTTTTTTTTTTTTTTTTTTTTTTTTT FDIK        TELAPSE      125.75 TCPU     3589.48
 INSULATING STATE
 TOP OF VALENCE BANDS -    BAND     99; K    1; EIG -2.2158368E-01 AU
 BOTTOM OF VIRTUAL BANDS - BAND    100; K   17; EIG -9.8865043E-02 AU
 INDIRECT ENERGY BAND GAP:   3.3393 eV
 BOTTOM OF VIRTUAL BANDS - BAND    100; K    1; EIG -6.1695337E-02 AU
 TTTTTTTTTTTTTTTTTTTTTTTTTTTTTT PDIG        TELAPSE      126.03 TCPU     3595.63
 CHARGE NORMALIZATION FACTOR   1.00000000
 TOTAL ATOMIC CHARGES:
   4.4831378   4.4780125   4.4774425   4.4774934   4.4777345   4.4826780
   0.8812740   0.8814956   0.8815478   0.8815299   0.8800451   0.8802048
   0.8800969   0.8800984   0.8815024   0.8815291   0.8812207   0.8813375
   5.9274295   6.1632356   6.1631215   6.1667352   6.1672557   5.9280671
   5.9291182   6.1641825   6.1645869   6.1644892   6.1644735   5.9297806
   5.9276279   6.1667533   6.1674763   6.1631467   6.1633031   5.9279560
   8.5005132   8.5006953   8.5001966   8.5005064   8.5003904   8.5005782
 TTTTTTTTTTTTTTTTTTTTTTTTTTTTTT MOQGAD      TELAPSE      126.08 TCPU     3595.68
 TTTTTTTTTTTTTTTTTTTTTTTTTTTTTT SHELLXN     TELAPSE      137.03 TCPU     3944.84
 +++ ENERGIES IN A.U. +++
 ::: EXT EL-POLE                                  -1.4483474173679E+03
 ::: EXT EL-SPHEROPOLE                             1.6367221185878E+01
 ::: BIELET ZONE E-E                               2.3868479117312E+03
 ::: TOTAL E-E                                     9.5486771554915E+02
 ::: TOTAL E-N + N-E                              -3.7348269405322E+03
 ::: TOTAL N-N                                     3.4462434542563E+02
 ::: KINETIC ENERGY                                1.2799429321773E+03
 ::: PSEUDO TOTAL   ENERGY                        -1.1553919473801E+03
 ::: VIRIAL COEFFICIENT                            1.0511432681570E+00
 TTTTTTTTTTTTTTTTTTTTTTTTTTTTTT MONMO3      TELAPSE      137.21 TCPU     3950.52
 NUMERICALLY INTEGRATED DENSITY    197.9999228100
 EXCHANGE ENERGY: -0.126016536436E+03  CORRELATION ENERGY: -0.770334594285E+01
 TTTTTTTTTTTTTTTTTTTTTTTTTTTTTT NUMDFT      TELAPSE      137.83 TCPU     3970.50
 CYC   9 ETOT(AU) -1.289111829759E+03 DETOT -7.19E-08 tst  1.14E-09 PX  1.72E-04

 == SCF ENDED - CONVERGENCE ON ENERGY      E(AU) -1.2891118297590E+03 CYCLES   9


 ENERGY EXPRESSION=HARTREE+FOCK EXCH*0.00000+(HSESOL     EXCH)*1.00000+PBESOL     CORR


 TOTAL ENERGY(DFT)(AU)(  9) -1.2891118297590E+03 DE-7.2E-08 tester 1.1E-09
 TTTTTTTTTTTTTTTTTTTTTTTTTTTTTT EDFT        TELAPSE      137.83 TCPU     3970.51
 
 INFORMATION **** DFTD3 ENERGY **** CALCULATE DFTD3 ENERGY

           DFT-D V3(BJ)
 DF                                         hsesol3c  
 parameters
 s6       :    1.0000
 s8       :    0.0000
 a1       :    0.5196
 a2       :    4.9385
 k1 k3    :   16.0000   -4.0000
 Cutoff   :   50.2022
 CN-Cutoff:   21.1671
 ABC-Cutoff:   21.1671
 
 Edisp /kcal,au:   -30.4547 -0.04853264

 E6    /kcal :   -32.5983
 E8    /kcal :     0.0000
 E6(ABC) "   :   2.143648
 
 INFORMATION **** DFTD3 ENERGY **** NORMAL TERMINATION OF DFTD3 MODULE

 GCP ENERGY CALCULATION
  level        hsesol3c            basis:hsesol3c
  Nbf            474
  Atoms           42

  Parameters: 
  sigma     1.0000
  eta       1.4281
  alpha     0.2936
  beta      1.9467

  dmp_scal      4.0000
  dmp_exp       6.0000
 cutoffs: 
   distance [bohr] 60.0
   noise    [a.u.] 2.2E-16
 SR-damping   T
 ** gCP correction **
  Egcp:        0.0836243458 / (a.u.) ||      52.4751 / (kcal/mol)
 INFORMATION **** GCP **** NORMAL TERMINATION OF GCP MODULE

 *******************************************************************************

 DFT-D3-GCP DISPERSION AND COUNTERPOISE CORRECTION

 D3 DISPERSION ENERGY (AU)      -4.8532644372757E-02
 GCP ENERGY (AU)                 8.3624345845412E-02
 TOTAL ENERGY + DISP + GCP (AU) -1.2890767380575E+03

 *******************************************************************************

 EIGENVECTORS IN FORTRAN UNIT 10
 TTTTTTTTTTTTTTTTTTTTTTTTTTTTTT END         TELAPSE      139.21 TCPU     3977.86
 EEEEEEEEEE TERMINATION  DATE 19 02 2026 TIME 18:23:52.5
