 Default number of threads is:           32

         
 *******************************************************************************
 *                                                                             *
 *                               CRYSTAL23                                     *
 *                      public : 1.0.1 - October 2022                          *
 *                       HTTP://WWW.CRYSTAL.UNITO.IT                           *
 *                                                                             *
 *                              MAIN AUTHORS                                   *
 *                                                                             *
 *  R. DOVESI(1,11), V.R. SAUNDERS(2), C. ROETTI(1,11), R. ORLANDO(1,11),      *
 *  C.M. ZICOVICH-WILSON(1,3), F. PASCALE(4), B. CIVALLERI(1,11),              *
 *  K. DOLL(5), N.M. HARRISON(6), I.J. BUSH(7), Ph. D'ARCO(8),                 *
 *  M. LLUNELL(9), M. CAUSA'(10), Y. NOEL(8), L. MASCHIO(1,11), A. ERBA(1,11)  *
 *  M. RE'RAT(14), S. CASASSA(1,11), B.G. SEARLE(2), J.K. DESMARAIS(1)         *
 *                                                                             *
 *        CONTRIBUTIONS TO THE CODE HAVE ALSO BEEN GIVEN BY                    *
 *                                                                             *
 *  M. FERRABONE(1,11), M. DE LA PIERRE(1,11), M. FERRERO(1,11),               *
 *  J. BAIMA(1,11), E. ALBANESE(1,11), M.F. PEINTINGER(12), R. BAST(13),       *
 *  B. KIRTMAN(15), V. LACIVITA(1,11), R. DEMICHELIS(1,16)                     *
 *  G. BRANDEBURG(17), S. SALUSTRO(1,11), G. SANSONE(1,11)                     *
 *  M.T. RUGGIERO(18), L.E. DAGA(1), L. DONA'(1), A. COSSARD(1)                *
 *                                                                             *
 * (1) THEORETICAL CHEMISTRY GROUP - UNIVERSITA' DI TORINO - TORINO (ITALY)    *
 * (2) SCIENTIFIC COMPUTING DEPARTMENT - STFC DARESBURY (UK)                   *
 * (3) UNIVERSIDAD AUTONOMA DEL ESTADO DE MORELOS - CUERNAVACA (MEXICO)        *
 * (4) UNIVERSITE' DE LORRAINE - NANCY (FRANCE)                                *
 * (5) UNIVERSITAET STUTTGART- STUTTGART (GERMANY)                             *
 * (6) IMPERIAL COLLEGE - LONDON (UK)                                          *
 * (7) SCIENTIFIC COMPUTING DEPARTMENT - STFC RAL (UK)                         *
 * (8) UPMC - SORBONNE UNIVERSITES - PARIS (FRANCE)                            *
 * (9) UNIVERSIDAD DE BARCELONA - BARCELONA (SPAIN)                            *
 *(10) UNIVERSITA' DI NAPOLI "FEDERICO II" - NAPOLI (ITALY)                    *
 *(11) NIS - NANOSTRUCTURED INTERFACES AND SURFACES - TORINO (ITALY)           *
 *(12) MPI FUER CHEMISCHE ENERGIEKONVERSION - MUELHEIM AN DER RUHR (GERMANY)   *
 *(13) UNIVERSITY OF TROMSO - TROMSO (NORWAY)                                  *
 *(14) UNIVERSITE' DE PAU ET DES PAYS DE L'ADOUR - PAU (FRANCE)                *
 *(15) UNIVERSITY OF CALIFORNIA SANTA BARBARA - SANTA BARBARA (USA)            *
 *(16) CURTIN UNIVERSITY - PERTH (AUSTRALIA)                                   *
 *(17) UNIVERSITY COLLEGE LONDON - LONDON (UK)                                 *
 *(18) UNIVERSITY OF VERMONT - BURLINGTON (USA)                                *
 *                                                                             *
 *******************************************************************************
 EEEEEEEEEE STARTING  DATE 19 02 2026 TIME 18:02:02.0
 cof-1_z32_L040_incl                                                             

 CRYSTAL CALCULATION
 (INPUT ACCORDING TO THE INTERNATIONAL TABLES FOR X-RAY CRYSTALLOGRAPHY)
 CRYSTAL FAMILY                       :  TRICLINIC   
 CRYSTAL CLASS  (GROTH - 1921)        :  TRICLINIC PEDIAL                     

 SPACE GROUP (NONCENTROSYMMETRIC)     :  P 1             

 LATTICE PARAMETERS  (ANGSTROMS AND DEGREES) - CONVENTIONAL CELL
        A           B           C        ALPHA        BETA       GAMMA
    15.02361    15.02392     5.12250    47.44667    89.99997   119.99596


 NUMBER OF IRREDUCIBLE ATOMS IN THE CONVENTIONAL CELL:   42

 INPUT COORDINATES

 ATOM AT. N.              COORDINATES
   1   5     5.366051300000E-01  7.315174000000E-02  5.014890100000E-01
   2   5     6.956607900000E-01  2.322113900000E-01  5.014890300000E-01
   3   5     5.370832200000E-01  2.331590000000E-01  4.983505600000E-01
   4   5     1.501798400000E-01  4.594667300000E-01  5.014890200000E-01
   5   5     3.092878100000E-01  4.594459700000E-01  5.014890100000E-01
   6   5     3.097504500000E-01  6.195499800000E-01  4.983505600000E-01
   7   1     8.269682400000E-01  1.567638300000E-01  4.949823400000E-01
   8   1     2.071208000000E-02  5.391931000000E-01  4.939873600000E-01
   9   1     8.270725000000E-01  4.422591700000E-01  4.938342200000E-01
  10   1     2.083139000000E-02  2.538599300000E-01  4.938724200000E-01
  11   1     6.134158000000E-01 -5.824487000000E-02  5.050103000000E-01
  12   1     2.311601900000E-01  7.478824300000E-01  5.060053400000E-01
  13   1     3.280769100000E-01 -5.855200000000E-02  5.061585700000E-01
  14   1     5.165250400000E-01  7.477571600000E-01  5.061201200000E-01
  15   1     6.149973600000E-01  4.418879800000E-01  4.949823900000E-01
  16   1     2.330393900000E-01  2.537490100000E-01  4.939872900000E-01
  17   1     3.299416700000E-01  1.570100200000E-01  4.938341000000E-01
  18   1     5.183860700000E-01  5.391328800000E-01  4.938725400000E-01
  19   6     8.153149100000E-01  2.927773300000E-01  4.982357200000E-01
  20   6     8.703902000000E-01  2.405723400000E-01  4.951354600000E-01
  21   6    -2.266963000000E-02  4.550543500000E-01  4.948676300000E-01
  22   6     8.702708300000E-01  4.013141500000E-01  4.956713800000E-01
  23   6    -2.243727000000E-02  2.945073200000E-01  4.936045000000E-01
  24   6     3.184874000000E-02  4.016458300000E-01  4.957096200000E-01
  25   6     4.769228300000E-01 -4.608039000000E-02  5.017569500000E-01
  26   6     5.295847800000E-01 -1.016459700000E-01  5.048571600000E-01
  27   6     3.151644300000E-01  7.913788900000E-01  5.051250700000E-01
  28   6     3.687768600000E-01 -1.014343300000E-01  5.043213500000E-01
  29   6     4.758884900000E-01  7.909510200000E-01  5.063880900000E-01
  30   6     3.684230800000E-01  7.369666500000E-01  5.042830300000E-01
  31   6     4.774694700000E-01  2.927081900000E-01  4.982357100000E-01
  32   6     5.311113000000E-01  4.014124700000E-01  4.951355200000E-01
  33   6     3.167656300000E-01  2.940410900000E-01  4.948675700000E-01
  34   6     3.701060000000E-01  2.403119700000E-01  4.956713000000E-01
  35   6     4.778793400000E-01  4.553553300000E-01  4.936045800000E-01
  36   6     3.697728300000E-01  4.015684300000E-01  4.957096200000E-01
  37   8     4.840142200000E-01  1.269101100000E-01  4.991925700000E-01
  38   8     6.419415800000E-01  1.248822800000E-01  5.058139800000E-01
  39   8     6.434746100000E-01  2.868983600000E-01  4.958244700000E-01
  40   8     2.036020500000E-01  5.661905900000E-01  4.991926000000E-01
  41   8     2.026038500000E-01  4.051995600000E-01  5.058139800000E-01
  42   8     3.630590400000E-01  5.672103200000E-01  4.958244500000E-01

 *******************************************************************************

 << INFORMATION >>: FROM NOW ON, ALL COORDINATES REFER TO THE PRIMITIVE CELL

 *******************************************************************************

 LATTICE PARAMETERS  (ANGSTROMS AND DEGREES) - PRIMITIVE CELL
       A          B          C        ALPHA      BETA     GAMMA        VOLUME
   15.02361   15.02392    5.12250    47.44667  89.99997 119.99596    625.545545

 COORDINATES OF THE EQUIVALENT ATOMS (FRACTIONAL UNITS)

 N. ATOM EQUIV AT. N.          X                  Y                  Z

   1   1   1    5 B    -4.63394870000E-01  7.31517400000E-02 -4.98510990000E-01

   2   2   1    5 B    -3.04339210000E-01  2.32211390000E-01 -4.98510970000E-01

   3   3   1    5 B    -4.62916780000E-01  2.33159000000E-01  4.98350560000E-01

   4   4   1    5 B     1.50179840000E-01  4.59466730000E-01 -4.98510980000E-01

   5   5   1    5 B     3.09287810000E-01  4.59445970000E-01 -4.98510990000E-01

   6   6   1    5 B     3.09750450000E-01 -3.80450020000E-01  4.98350560000E-01

   7   7   1    1 H    -1.73031760000E-01  1.56763830000E-01  4.94982340000E-01

   8   8   1    1 H     2.07120800000E-02 -4.60806900000E-01  4.93987360000E-01

   9   9   1    1 H    -1.72927500000E-01  4.42259170000E-01  4.93834220000E-01

  10  10   1    1 H     2.08313900000E-02  2.53859930000E-01  4.93872420000E-01

  11  11   1    1 H    -3.86584200000E-01 -5.82448700000E-02 -4.94989700000E-01

  12  12   1    1 H     2.31160190000E-01 -2.52117570000E-01 -4.93994660000E-01

  13  13   1    1 H     3.28076910000E-01 -5.85520000000E-02 -4.93841430000E-01

  14  14   1    1 H    -4.83474960000E-01 -2.52242840000E-01 -4.93879880000E-01

  15  15   1    1 H    -3.85002640000E-01  4.41887980000E-01  4.94982390000E-01

  16  16   1    1 H     2.33039390000E-01  2.53749010000E-01  4.93987290000E-01

  17  17   1    1 H     3.29941670000E-01  1.57010020000E-01  4.93834100000E-01

  18  18   1    1 H    -4.81613930000E-01 -4.60867120000E-01  4.93872540000E-01

  19  19   1    6 C    -1.84685090000E-01  2.92777330000E-01  4.98235720000E-01

  20  20   1    6 C    -1.29609800000E-01  2.40572340000E-01  4.95135460000E-01

  21  21   1    6 C    -2.26696300000E-02  4.55054350000E-01  4.94867630000E-01

  22  22   1    6 C    -1.29729170000E-01  4.01314150000E-01  4.95671380000E-01

  23  23   1    6 C    -2.24372700000E-02  2.94507320000E-01  4.93604500000E-01

  24  24   1    6 C     3.18487400000E-02  4.01645830000E-01  4.95709620000E-01

  25  25   1    6 C     4.76922830000E-01 -4.60803900000E-02 -4.98243050000E-01

  26  26   1    6 C    -4.70415220000E-01 -1.01645970000E-01 -4.95142840000E-01

  27  27   1    6 C     3.15164430000E-01 -2.08621110000E-01 -4.94874930000E-01

  28  28   1    6 C     3.68776860000E-01 -1.01434330000E-01 -4.95678650000E-01

  29  29   1    6 C     4.75888490000E-01 -2.09048980000E-01 -4.93611910000E-01

  30  30   1    6 C     3.68423080000E-01 -2.63033350000E-01 -4.95716970000E-01

  31  31   1    6 C     4.77469470000E-01  2.92708190000E-01  4.98235710000E-01

  32  32   1    6 C    -4.68888700000E-01  4.01412470000E-01  4.95135520000E-01

  33  33   1    6 C     3.16765630000E-01  2.94041090000E-01  4.94867570000E-01

  34  34   1    6 C     3.70106000000E-01  2.40311970000E-01  4.95671300000E-01

  35  35   1    6 C     4.77879340000E-01  4.55355330000E-01  4.93604580000E-01

  36  36   1    6 C     3.69772830000E-01  4.01568430000E-01  4.95709620000E-01

  37  37   1    8 O     4.84014220000E-01  1.26910110000E-01  4.99192570000E-01

  38  38   1    8 O    -3.58058420000E-01  1.24882280000E-01 -4.94186020000E-01

  39  39   1    8 O    -3.56525390000E-01  2.86898360000E-01  4.95824470000E-01

  40  40   1    8 O     2.03602050000E-01 -4.33809410000E-01  4.99192600000E-01

  41  41   1    8 O     2.02603850000E-01  4.05199560000E-01 -4.94186020000E-01

  42  42   1    8 O     3.63059040000E-01 -4.32789680000E-01  4.95824450000E-01

 NUMBER OF SYMMETRY OPERATORS         :    1
 *******************************************************************************
 * GEOMETRY EDITING - INPUT COORDINATES ARE GIVEN IN ANGSTROM         
 *******************************************************************************

 GCALCO - MAX INDICES DIRECT LATTICE VECTOR     8    12    31
 NO.OF VECTORS CREATED 6999 STARS 3500 RMAX   192.45192 BOHR

 GEOMETRY FOR WAVE FUNCTION - DIMENSIONALITY OF THE SYSTEM    3
 (NON PERIODIC DIRECTION: LATTICE PARAMETER FORMALLY SET TO 500)
 *******************************************************************************
 LATTICE PARAMETERS (ANGSTROMS AND DEGREES) - BOHR = 0.5291772083 ANGSTROM
 PRIMITIVE CELL - CENTRING CODE 1/0 VOLUME=   625.545545 - DENSITY  1.036 g/cm^3
         A              B              C           ALPHA      BETA       GAMMA 
    15.02361100    15.02391600     5.12249900    47.446666  89.999965 119.995964
 *******************************************************************************
 ATOMS IN THE ASYMMETRIC UNIT   42 - ATOMS IN THE UNIT CELL:   42
     ATOM                 X/A                 Y/B                 Z/C    
 *******************************************************************************
      1 T   5 B    -4.633948700000E-01  7.315174000000E-02 -4.985109900000E-01
      2 T   5 B    -3.043392100000E-01  2.322113900000E-01 -4.985109700000E-01
      3 T   5 B    -4.629167800000E-01  2.331590000000E-01  4.983505600000E-01
      4 T   5 B     1.501798400000E-01  4.594667300000E-01 -4.985109800000E-01
      5 T   5 B     3.092878100000E-01  4.594459700000E-01 -4.985109900000E-01
      6 T   5 B     3.097504500000E-01 -3.804500200000E-01  4.983505600000E-01
      7 T   1 H    -1.730317600000E-01  1.567638300000E-01  4.949823400000E-01
      8 T   1 H     2.071208000000E-02 -4.608069000000E-01  4.939873600000E-01
      9 T   1 H    -1.729275000000E-01  4.422591700000E-01  4.938342200000E-01
     10 T   1 H     2.083139000000E-02  2.538599300000E-01  4.938724200000E-01
     11 T   1 H    -3.865842000000E-01 -5.824487000000E-02 -4.949897000000E-01
     12 T   1 H     2.311601900000E-01 -2.521175700000E-01 -4.939946600000E-01
     13 T   1 H     3.280769100000E-01 -5.855200000000E-02 -4.938414300000E-01
     14 T   1 H    -4.834749600000E-01 -2.522428400000E-01 -4.938798800000E-01
     15 T   1 H    -3.850026400000E-01  4.418879800000E-01  4.949823900000E-01
     16 T   1 H     2.330393900000E-01  2.537490100000E-01  4.939872900000E-01
     17 T   1 H     3.299416700000E-01  1.570100200000E-01  4.938341000000E-01
     18 T   1 H    -4.816139300000E-01 -4.608671200000E-01  4.938725400000E-01
     19 T   6 C    -1.846850900000E-01  2.927773300000E-01  4.982357200000E-01
     20 T   6 C    -1.296098000000E-01  2.405723400000E-01  4.951354600000E-01
     21 T   6 C    -2.266963000000E-02  4.550543500000E-01  4.948676300000E-01
     22 T   6 C    -1.297291700000E-01  4.013141500000E-01  4.956713800000E-01
     23 T   6 C    -2.243727000000E-02  2.945073200000E-01  4.936045000000E-01
     24 T   6 C     3.184874000000E-02  4.016458300000E-01  4.957096200000E-01
     25 T   6 C     4.769228300000E-01 -4.608039000000E-02 -4.982430500000E-01
     26 T   6 C    -4.704152200000E-01 -1.016459700000E-01 -4.951428400000E-01
     27 T   6 C     3.151644300000E-01 -2.086211100000E-01 -4.948749300000E-01
     28 T   6 C     3.687768600000E-01 -1.014343300000E-01 -4.956786500000E-01
     29 T   6 C     4.758884900000E-01 -2.090489800000E-01 -4.936119100000E-01
     30 T   6 C     3.684230800000E-01 -2.630333500000E-01 -4.957169700000E-01
     31 T   6 C     4.774694700000E-01  2.927081900000E-01  4.982357100000E-01
     32 T   6 C    -4.688887000000E-01  4.014124700000E-01  4.951355200000E-01
     33 T   6 C     3.167656300000E-01  2.940410900000E-01  4.948675700000E-01
     34 T   6 C     3.701060000000E-01  2.403119700000E-01  4.956713000000E-01
     35 T   6 C     4.778793400000E-01  4.553553300000E-01  4.936045800000E-01
     36 T   6 C     3.697728300000E-01  4.015684300000E-01  4.957096200000E-01
     37 T   8 O     4.840142200000E-01  1.269101100000E-01  4.991925700000E-01
     38 T   8 O    -3.580584200000E-01  1.248822800000E-01 -4.941860200000E-01
     39 T   8 O    -3.565253900000E-01  2.868983600000E-01  4.958244700000E-01
     40 T   8 O     2.036020500000E-01 -4.338094100000E-01  4.991926000000E-01
     41 T   8 O     2.026038500000E-01  4.051995600000E-01 -4.941860200000E-01
     42 T   8 O     3.630590400000E-01 -4.327896800000E-01  4.958244500000E-01

 T = ATOM BELONGING TO THE ASYMMETRIC UNIT

 ****    1 SYMMOPS - TRANSLATORS IN FRACTIONAL UNITS
 **** MATRICES AND TRANSLATORS IN THE CRYSTALLOGRAPHIC REFERENCE FRAME
   V INV                    ROTATION MATRICES                   TRANSLATORS
   1   1  1.00  0.00  0.00  0.00  1.00  0.00  0.00  0.00  1.00  0.00  0.00  0.00

 DIRECT LATTICE VECTORS CARTESIAN COMPONENTS (ANGSTROM)
          X                    Y                    Z
   0.130113578931E+02  -0.751088897922E+01   0.000000000000E+00
   0.000000000000E+00   0.150239160000E+02   0.000000000000E+00
   0.199974904619E+01   0.346422422127E+01   0.320002348461E+01


 CARTESIAN COORDINATES - PRIMITIVE CELL
 *******************************************************************************
 *      ATOM          X(ANGSTROM)         Y(ANGSTROM)         Z(ANGSTROM)
 *******************************************************************************
    1     5 B    -7.026293376145E+00  2.852579172995E+00 -1.595246875334E+00
    2     5 B    -4.956763218974E+00  4.047628659093E+00 -1.595246811333E+00
    3     5 B    -3.026850796061E+00 -2.853415926255E+00  4.794756980172E+00
    4     5 B     9.571467897909E-01  4.048051639673E+00 -1.595246843334E+00
    5     5 B     3.027357511101E+00  2.852697410157E+00 -1.595246875334E+00
    6     5 B     3.027100973323E+00  5.243739475475E+00 -1.605289989039E+00
    7     1 H    -3.261286740120E+00  1.905334543056E+00 -1.616068372141E+00
    8     1 H     1.257343037580E+00 -5.367407313716E+00  1.580771153098E+00
    9     1 H     7.372719645619E-01 -1.905635438252E+00  4.780304586107E+00
   10     1 H    -7.410834746564E-01  1.904168584825E+00 -1.619620142207E+00
   11     1 H    -4.020091516259E+00  3.777993886259E+00  1.616044819968E+00
   12     1 H     4.019591658750E+00 -3.771095762389E+00  1.619228971336E+00
   13     1 H     5.280916210037E+00 -1.590382799289E+00  1.619719310934E+00
   14     1 H    -5.278552509663E+00  1.594965087605E+00  1.619596270031E+00
   15     1 H    -2.019817530336E+00 -3.143618155159E-01  4.783978757072E+00
   16     1 H     2.020260472286E+00  3.090293389967E-01 -1.619252555509E+00
   17     1 H     3.280784376463E+00 -1.872722072110E+00 -1.619742767107E+00
   18     1 H    -5.278830068706E+00 -1.595794923680E+00  1.580403726402E+00
   19     6 C    -3.406406443844E+00  4.047587247587E+00 -1.605657479736E+00
   20     6 C    -2.696001876568E+00  2.838859478574E+00 -1.615578384545E+00
   21     6 C    -1.305100644341E+00  5.257075612863E+00 -1.616435446834E+00
   22     6 C     1.303014755532E+00 -2.838883505897E+00  4.786183541252E+00
   23     6 C    -1.304603268234E+00  2.838909524390E+00 -1.620477492499E+00
   24     6 C    -5.940588518257E-01  4.048105912453E+00 -1.613741059061E+00
   25     6 C     7.208801610682E+00 -2.536223757011E+00  1.605634023564E+00
   26     6 C    -5.111153161588E+00  3.755054378488E+00  1.615554768371E+00
   27     6 C     5.110840570831E+00 -3.751604574130E+00  1.616412086663E+00
   28     6 C     5.806803846774E+00 -2.546700671027E+00  1.613840163788E+00
   29     6 C    -5.806753332500E+00  2.550050935674E+00  1.620453780325E+00
   30     6 C     1.802625965812E+00  3.123441237503E+00 -4.786329430323E+00
   31     6 C     5.209123496838E+00 -9.268209278493E-01 -1.605657511736E+00
   32     6 C    -3.110982857663E+00 -2.918731175941E-01  4.784468776668E+00
   33     6 C     3.111412885057E+00  2.885651583922E-01 -1.616435638836E+00
   34     6 C     3.807050787576E+00 -9.165059234887E-01 -1.613863683961E+00
   35     6 C     5.205195364297E+00  1.497654280367E+00 -1.620477236497E+00
   36     6 C     3.802792423850E+00  1.508832737962E+00 -1.613741059061E+00
   37     8 O     5.296193061280E+00 -3.463599467789E+00 -1.602595537265E+00
   38     8 O    -5.647074271379E+00  2.853586745005E+00 -1.581406869764E+00
   39     8 O    -1.647605890099E+00 -2.853885156519E+00  4.786673432848E+00
   40     8 O     1.647650019834E+00  5.242258345389E+00 -1.602595441264E+00
   41     8 O     1.647903180725E+00  2.853977948268E+00 -1.581406869764E+00
   42     8 O     3.715666530524E+00  4.048246907590E+00 -1.613373600364E+00

 *******************************************************************************
 STARTING BASIS SET HANDLING 
 *******************************************************************************

 Loading internal basis set: SOLDEF2MSVP         

 Please cite in your publication:
 L. Dona', J. G. Brandenburg and B. Civalleri, J. Chem. Phys., 151, 121101 (2019
 )                                                                              
                                                                                
                    

 *******************************************************************************
 LOCAL ATOMIC FUNCTIONS BASIS SET
 *******************************************************************************
   ATOM   X(AU)   Y(AU)   Z(AU)  N. TYPE  EXPONENT  S COEF   P COEF   D/F/G COEF
 *******************************************************************************
   1 B  -13.278   5.391  -3.015
                                  1 S  
                                         2.410E+03 1.755E-03 0.000E+00 0.000E+00
                                         3.619E+02 1.344E-02 0.000E+00 0.000E+00
                                         8.231E+01 6.637E-02 0.000E+00 0.000E+00
                                         2.311E+01 2.303E-01 0.000E+00 0.000E+00
                                         7.252E+00 5.150E-01 0.000E+00 0.000E+00
                                  2 S  
                                         2.367E+00 1.000E+00 0.000E+00 0.000E+00
                                  3 S  
                                         5.533E-01 1.000E+00 0.000E+00 0.000E+00
                                  4 S  
                                         1.716E-01 1.000E+00 0.000E+00 0.000E+00
                           5-     7 P  
                                         6.002E+00 0.000E+00-3.555E-02 0.000E+00
                                         1.240E+00 0.000E+00-1.983E-01 0.000E+00
                                         3.367E-01 0.000E+00-5.048E-01 0.000E+00
                           8-    10 P  
                                         1.256E-01 0.000E+00 1.000E+00 0.000E+00
                          11-    15 D  
                                         8.880E-01 0.000E+00 0.000E+00 1.000E+00
   2 B   -9.367   7.649  -3.015
   3 B   -5.720  -5.392   9.061
   4 B    1.809   7.650  -3.015
   5 B    5.721   5.391  -3.015
   6 B    5.720   9.909  -3.034
   7 H   -6.163   3.601  -3.054
                                 91 S  
                                         1.874E+01 1.968E-02 0.000E+00 0.000E+00
                                         2.826E+00 1.380E-01 0.000E+00 0.000E+00
                                         6.401E-01 4.783E-01 0.000E+00 0.000E+00
                                 92 S  
                                         1.756E-01 1.000E+00 0.000E+00 0.000E+00
   8 H    2.376 -10.143   2.987
   9 H    1.393  -3.601   9.033
  10 H   -1.400   3.598  -3.061
  11 H   -7.597   7.139   3.054
  12 H    7.596  -7.126   3.060
  13 H    9.979  -3.005   3.061
  14 H   -9.975   3.014   3.061
  15 H   -3.817  -0.594   9.040
  16 H    3.818   0.584  -3.060
  17 H    6.200  -3.539  -3.061
  18 H   -9.976  -3.016   2.987
  19 C   -6.437   7.649  -3.034
                                115 S  
                                         3.624E+03 1.634E-03 0.000E+00 0.000E+00
                                         5.440E+02 1.252E-02 0.000E+00 0.000E+00
                                         1.237E+02 6.211E-02 0.000E+00 0.000E+00
                                         3.476E+01 2.182E-01 0.000E+00 0.000E+00
                                         1.093E+01 4.980E-01 0.000E+00 0.000E+00
                                116 S  
                                         3.574E+00 1.000E+00 0.000E+00 0.000E+00
                                117 S  
                                         7.742E-01 1.000E+00 0.000E+00 0.000E+00
                                118 S  
                                         2.330E-01 1.000E+00 0.000E+00 0.000E+00
                         119-   121 P  
                                         9.443E+00 0.000E+00 3.790E-02 0.000E+00
                                         2.002E+00 0.000E+00 2.082E-01 0.000E+00
                                         5.463E-01 0.000E+00 5.047E-01 0.000E+00
                         122-   124 P  
                                         1.820E-01 0.000E+00 1.000E+00 0.000E+00
                         125-   129 D  
                                         8.880E-01 0.000E+00 0.000E+00 1.000E+00
  20 C   -5.095   5.365  -3.053
  21 C   -2.466   9.934  -3.055
  22 C    2.462  -5.365   9.045
  23 C   -2.465   5.365  -3.062
  24 C   -1.123   7.650  -3.050
  25 C   13.623  -4.793   3.034
  26 C   -9.659   7.096   3.053
  27 C    9.658  -7.090   3.055
  28 C   10.973  -4.813   3.050
  29 C  -10.973   4.819   3.062
  30 C    3.406   5.902  -9.045
  31 C    9.844  -1.751  -3.034
  32 C   -5.879  -0.552   9.041
  33 C    5.880   0.545  -3.055
  34 C    7.194  -1.732  -3.050
  35 C    9.836   2.830  -3.062
  36 C    7.186   2.851  -3.050
  37 O   10.008  -6.545  -3.028
                                385 S  
                                         6.773E+03 1.727E-03 0.000E+00 0.000E+00
                                         1.017E+03 1.325E-02 0.000E+00 0.000E+00
                                         2.313E+02 6.603E-02 0.000E+00 0.000E+00
                                         6.501E+01 2.353E-01 0.000E+00 0.000E+00
                                         2.050E+01 5.498E-01 0.000E+00 0.000E+00
                                386 S  
                                         6.716E+00 1.000E+00 0.000E+00 0.000E+00
                                387 S  
                                         1.147E+00 1.000E+00 0.000E+00 0.000E+00
                                388 S  
                                         3.342E-01 1.000E+00 0.000E+00 0.000E+00
                         389-   391 P  
                                         1.769E+01 0.000E+00 4.359E-02 0.000E+00
                                         3.854E+00 0.000E+00 2.318E-01 0.000E+00
                                         1.047E+00 0.000E+00 5.146E-01 0.000E+00
                         392-   394 P  
                                         2.759E-01 0.000E+00 1.000E+00 0.000E+00
                         395-   399 D  
                                         8.000E-01 0.000E+00 0.000E+00 1.000E+00
  38 O  -10.671   5.392  -2.988
  39 O   -3.114  -5.393   9.046
  40 O    3.114   9.906  -3.028
  41 O    3.114   5.393  -2.988
  42 O    7.022   7.650  -3.049

 *******************************************************************************
 FINISHED BASIS SET HANDLING 
 *******************************************************************************

 INFORMATION **** SET_MPP **** PCRYSTAL CALCULATION
 INFORMATION **** READM2 **** NEW DEFAULT: FOCK/KS MATRIX MIXING SET TO 30 %
 INFORMATION **** READM2 **** NEW DEFAULT: FULL DIRECT SCF MODE
 INFORMATION **** READM2 **** NEW DEFAULT: COULOMB BIPOLAR BUFFER SET TO 32 Mb
 INFORMATION **** READM2 **** NEW DEFAULT: EXCHANGE BIPOLAR BUFFER SET TO 32 Mb

 *******************************************************************************
 NEW DEFAULT: DFT INTEGRATION GRID INCREASED TO XLGRID
 NEW DEFAULT: DIIS ACCELERATOR ACTIVE
 USE KEYWORD NODIIS TO TURN IT OFF
 *******************************************************************************

 WARNING **** RDDFTP **** HSEsol-HJS ACTIVE
 RANGE SEPARATION - OMEGA:   0.110000000000000     
 WARNING **** RDDFTP **** HSEsol-3c has to be combined with sol-def2-mSVP basis set
 *******************************************************************************
 N. OF ATOMS PER CELL        42  COULOMB OVERLAP TOL         (T1) 10**   -6
 NUMBER OF SHELLS           234  COULOMB PENETRATION TOL     (T2) 10**   -6
 NUMBER OF AO               474  EXCHANGE OVERLAP TOL        (T3) 10**   -6
 N. OF ELECTRONS PER CELL   198  EXCHANGE PSEUDO OVP (F(G))  (T4) 10**   -6
 CORE ELECTRONS PER CELL     60  EXCHANGE PSEUDO OVP (P(G))  (T5) 10**  -12
 N. OF SYMMETRY OPERATORS     1  POLE ORDER IN MONO ZONE                  4
 *******************************************************************************
 TYPE OF CALCULATION :  RESTRICTED CLOSED SHELL
 KOHN-SHAM HAMILTONIAN

 (EXCHANGE)[CORRELATION] FUNCTIONAL:(HSEsol GGA)[PBEsol]

 RANGE-SEPARATED HYBRID FUNCTIONAL 
 OMEGA (SHORT-RANGE)[LONG-RANGE]:(    0.1100)[    0.0000]

 HYBRID EXCHANGE - PERCENTAGE OF FOCK EXCHANGE    25.0000

 CAPPA:IS1  2;IS2  2;IS3  8; K PTS MONK NET  20; SYMMOPS:K SPACE   2;G SPACE   1

 *******************************************************************************
 MAX NUMBER OF SCF CYCLES      50  CONVERGENCE ON DELTAP        10**-16
 WEIGHT OF F(I) IN F(I+1)      30% CONVERGENCE ON ENERGY        10**- 6
 SHRINK. FACT.(MONKH.)    2  2  8  NUMBER OF K POINTS IN THE IBZ     20
 SHRINKING FACTOR(GILAT NET)    8  NUMBER OF K POINTS(GILAT NET)   1028
 *******************************************************************************
 *** K POINTS COORDINATES (OBLIQUE COORDINATES IN UNITS OF IS =  2)
   1-R(  0  0  0)   2-R(  1  0  0)   3-R(  0  1  0)   4-R(  1  1  0)
   5-C(  0  0  1)   6-C(  1  0  1)   7-C(  0  1  1)   8-C(  1  1  1)
   9-C(  0  0  2)  10-C(  1  0  2)  11-C(  0  1  2)  12-C(  1  1  2)
  13-C(  0  0  3)  14-C(  1  0  3)  15-C(  0  1  3)  16-C(  1  1  3)
  17-R(  0  0  4)  18-R(  1  0  4)  19-R(  0  1  4)  20-R(  1  1  4)

 DIRECT LATTICE VECTORS COMPON. (A.U.)     RECIP. LATTICE VECTORS COMPON. (A.U.) 
        X            Y            Z              X            Y            Z
   24.5879030  -14.1935232    0.0000000      0.2555397    0.0000000   -0.1596911
    0.0000000   28.3910867    0.0000000      0.1277517    0.2213084   -0.3194143
    3.7789780    6.5464350    6.0471680      0.0000000    0.0000000    1.0390294

 DISK SPACE FOR EIGENVECTORS (FTN 10)     7189632 REALS

 SYMMETRY ADAPTION OF THE BLOCH FUNCTIONS DISABLED
 TTTTTTTTTTTTTTTTTTTTTTTTTTTTTT gordsh1     TELAPSE        0.04 TCPU        0.04

 MATRIX SIZE: P(G)  382730, F(G)   77094, P(G) IRR  192778, F(G) IRR   77754
 MAX G-VECTOR INDEX FOR 1- AND 2-ELECTRON INTEGRALS  53

 TTTTTTTTTTTTTTTTTTTTTTTTTTTTTT INPUT       TELAPSE        0.39 TCPU        0.39

 NEIGHBORS OF THE NON-EQUIVALENT ATOMS

 N = NUMBER OF NEIGHBORS AT DISTANCE R
    ATOM  N     R/ANG      R/AU   NEIGHBORS (ATOM LABELS AND CELL INDICES)
   1 B    1     1.3791     2.6061   37 O   -1 0 0
   1 B    1     1.3793     2.6065   38 O    0 0 0
   1 B    1     1.5503     2.9297   25 C   -1 0-1
   1 B    1     2.3895     4.5155    3 B    0 1-2
   1 B    1     2.3898     4.5160    2 B    0 0 0
   1 B    1     2.5632     4.8437   26 C    0 0-1

   2 B    1     1.3793     2.6065   39 O    0 1-2
   2 B    1     1.3793     2.6065   38 O    0 0 0
   2 B    1     1.5504     2.9298   19 C    0 0 0
   2 B    1     2.3895     4.5156    3 B    0 1-2
   2 B    1     2.3898     4.5160    1 B    0 0 0
   2 B    1     2.5634     4.8440   22 C    0 1-2

   3 B    1     1.3791     2.6061   37 O   -1-1 2
   3 B    1     1.3793     2.6064   39 O    0 0 0
   3 B    1     1.5502     2.9294   31 C   -1-1 2
   3 B    1     2.3895     4.5155    1 B    0-1 2
   3 B    1     2.3895     4.5156    2 B    0-1 2
   3 B    1     2.5629     4.8433   32 C    0 0 0

   4 B    1     1.3795     2.6068   40 O    0 0 0
   4 B    1     1.3795     2.6070   41 O    0 0 0
   4 B    1     1.5513     2.9316   24 C    0 0 0
   4 B    1     2.3905     4.5174    6 B    0 0 0
   4 B    1     2.3905     4.5175    5 B    0 0 0
   4 B    1     2.5648     4.8468   23 C    0 0 0

   5 B    1     1.3795     2.6069   41 O    0 0 0
   5 B    1     1.3797     2.6072   42 O    0 0 0
   5 B    1     1.5516     2.9322   36 C    0 0 0
   5 B    1     2.3905     4.5175    4 B    0 0 0
   5 B    1     2.3911     4.5185    6 B    0 0 0
   5 B    1     2.5651     4.8473   35 C    0 0 0

   6 B    1     1.3795     2.6068   40 O    0 0 0
   6 B    1     1.3796     2.6071   42 O    0 0 0
   6 B    1     1.5516     2.9322   30 C    0 0 1
   6 B    1     2.3905     4.5174    4 B    0 0 0
   6 B    1     2.3911     4.5185    5 B    0 0 0
   6 B    1     2.5651     4.8473   29 C    1 1-1

   7 H    1     1.0913     2.0623   20 C    0 0 0
   7 H    1     2.1472     4.0576   19 C    0 0 0
   7 H    1     2.1680     4.0969   23 C    0 0 0
   7 H    1     2.5202     4.7625   10 H    0 0 0
   7 H    1     2.5676     4.8520   38 O    0 0 0
   7 H    1     2.7321     5.1630    2 B    0 0 0

   8 H    1     1.0914     2.0625   21 C    0-1 1
   8 H    1     2.1493     4.0616   24 C    0-1 1
   8 H    1     2.1666     4.0942   22 C    0 0-1
   8 H    1     2.5198     4.7618    9 H    0 0-1
   8 H    1     2.5720     4.8604   40 O    0-1 1
   8 H    1     2.7362     5.1707    4 B    0-1 1

   9 H    1     1.0914     2.0624   22 C    0 0 0
   9 H    1     2.1471     4.0575   19 C    0-1 2
   9 H    1     2.1680     4.0970   21 C    0-1 2
   9 H    1     2.5198     4.7618    8 H    0 0 1
   9 H    1     2.5665     4.8500   39 O    0 0 0
   9 H    1     2.7315     5.1618    2 B    0-1 2

  10 H    1     1.0915     2.0626   23 C    0 0 0
  10 H    1     2.1490     4.0610   24 C    0 0 0
  10 H    1     2.1669     4.0948   20 C    0 0 0
  10 H    1     2.5202     4.7625    7 H    0 0 0
  10 H    1     2.5712     4.8588   41 O    0 0 0
  10 H    1     2.7351     5.1686    4 B    0 0 0

  11 H    1     1.0913     2.0623   26 C    0 0 0
  11 H    1     2.1469     4.0571   25 C   -1 0 0
  11 H    1     2.1680     4.0968   29 C    0 0 0
  11 H    1     2.5198     4.7617   14 H    0 0 0
  11 H    1     2.5670     4.8510   38 O    0 0 1
  11 H    1     2.7310     5.1609    1 B    0 0 1

  12 H    1     1.0914     2.0625   27 C    0 0 0
  12 H    1     2.1493     4.0617   30 C    0-1 2
  12 H    1     2.1664     4.0939   28 C    0 0 0
  12 H    1     2.5192     4.7606   13 H    0 0 0
  12 H    1     2.5735     4.8632   40 O    0-1 1
  12 H    1     2.7371     5.1723    6 B    0-1 1

  13 H    1     1.0914     2.0624   28 C    0 0 0
  13 H    1     2.1475     4.0581   25 C    0 0 0
  13 H    1     2.1679     4.0967   27 C    0 0 0
  13 H    1     2.5192     4.7606   12 H    0 0 0
  13 H    1     2.5675     4.8519   37 O    0 0 1
  13 H    1     2.7328     5.1643    1 B    1 0 1

  14 H    1     1.0914     2.0625   29 C    0 0 0
  14 H    1     2.1491     4.0612   30 C   -1-1 2
  14 H    1     2.1666     4.0942   26 C    0 0 0
  14 H    1     2.5198     4.7617   11 H    0 0 0
  14 H    1     2.5723     4.8609   42 O   -1-1 1
  14 H    1     2.7355     5.1693    6 B   -1-1 1

  15 H    1     1.0914     2.0624   32 C    0 0 0
  15 H    1     2.1475     4.0582   31 C   -1-1 2
  15 H    1     2.1678     4.0966   35 C   -1-1 2
  15 H    1     2.5200     4.7621   18 H    0 0 1
  15 H    1     2.5667     4.8503   39 O    0 0 0
  15 H    1     2.7315     5.1618    3 B    0 0 0

  16 H    1     1.0913     2.0623   33 C    0 0 0
  16 H    1     2.1487     4.0605   36 C    0 0 0
  16 H    1     2.1667     4.0945   34 C    0 0 0
  16 H    1     2.5197     4.7616   17 H    0 0 0
  16 H    1     2.5723     4.8610   41 O    0 0 0
  16 H    1     2.7359     5.1701    5 B    0 0 0

  17 H    1     1.0915     2.0626   34 C    0 0 0
  17 H    1     2.1479     4.0589   31 C    0 0 0
  17 H    1     2.1679     4.0968   33 C    0 0 0
  17 H    1     2.5197     4.7616   16 H    0 0 0
  17 H    1     2.5677     4.8522   37 O    0 0 0
  17 H    1     2.7331     5.1648    3 B    1 1-2

  18 H    1     1.0914     2.0624   35 C   -1-1 1
  18 H    1     2.1486     4.0602   36 C   -1-1 1
  18 H    1     2.1668     4.0947   32 C    0 0-1
  18 H    1     2.5200     4.7621   15 H    0 0-1
  18 H    1     2.5717     4.8598   42 O   -1-1 1
  18 H    1     2.7349     5.1682    5 B   -1-1 1

  19 C    1     1.4020     2.6495   22 C    0 1-2
  19 C    1     1.4021     2.6495   20 C    0 0 0
  19 C    1     1.5504     2.9298    2 B    0 0 0
  19 C    1     2.1471     4.0575    9 H    0 1-2
  19 C    1     2.1472     4.0576    7 H    0 0 0
  19 C    1     2.4246     4.5817   21 C    0 0 0

  20 C    1     1.0913     2.0623    7 H    0 0 0
  20 C    1     1.3914     2.6294   23 C    0 0 0
  20 C    1     1.4021     2.6495   19 C    0 0 0
  20 C    1     2.1669     4.0948   10 H    0 0 0
  20 C    1     2.4177     4.5688   22 C    0 1-2
  20 C    1     2.4250     4.5825   24 C    0 0 0

  21 C    1     1.0914     2.0625    8 H    0 1-1
  21 C    1     1.3914     2.6293   22 C    0 1-2
  21 C    1     1.4026     2.6505   24 C    0 0 0
  21 C    1     2.1680     4.0970    9 H    0 1-2
  21 C    1     2.4182     4.5697   23 C    0 0 0
  21 C    1     2.4246     4.5817   19 C    0 0 0

  22 C    1     1.0914     2.0624    9 H    0 0 0
  22 C    1     1.3914     2.6293   21 C    0-1 2
  22 C    1     1.4020     2.6495   19 C    0-1 2
  22 C    1     2.1666     4.0942    8 H    0 0 1
  22 C    1     2.4177     4.5688   20 C    0-1 2
  22 C    1     2.4250     4.5826   24 C    0-1 2

  23 C    1     1.0915     2.0626   10 H    0 0 0
  23 C    1     1.3914     2.6294   20 C    0 0 0
  23 C    1     1.4025     2.6504   24 C    0 0 0
  23 C    1     2.1680     4.0969    7 H    0 0 0
  23 C    1     2.4182     4.5697   21 C    0 0 0
  23 C    1     2.4246     4.5818   19 C    0 0 0

  24 C    1     1.4025     2.6504   23 C    0 0 0
  24 C    1     1.4026     2.6505   21 C    0 0 0
  24 C    1     1.5513     2.9316    4 B    0 0 0
  24 C    1     2.1490     4.0610   10 H    0 0 0
  24 C    1     2.1493     4.0616    8 H    0 1-1
  24 C    1     2.4250     4.5825   20 C    0 0 0

  25 C    1     1.4020     2.6494   26 C    1 0 0
  25 C    1     1.4021     2.6495   28 C    0 0 0
  25 C    1     1.5503     2.9297    1 B    1 0 1
  25 C    1     2.1469     4.0571   11 H    1 0 0
  25 C    1     2.1475     4.0581   13 H    0 0 0
  25 C    1     2.4246     4.5818   27 C    0 0 0

  26 C    1     1.0913     2.0623   11 H    0 0 0
  26 C    1     1.3914     2.6293   29 C    0 0 0
  26 C    1     1.4020     2.6494   25 C   -1 0 0
  26 C    1     2.1666     4.0942   14 H    0 0 0
  26 C    1     2.4175     4.5684   28 C   -1 0 0
  26 C    1     2.4251     4.5828   30 C   -1-1 2

  27 C    1     1.0914     2.0625   12 H    0 0 0
  27 C    1     1.3915     2.6295   28 C    0 0 0
  27 C    1     1.4026     2.6505   30 C    0-1 2
  27 C    1     2.1679     4.0967   13 H    0 0 0
  27 C    1     2.4179     4.5691   29 C    1 0 0
  27 C    1     2.4246     4.5818   25 C    0 0 0

  28 C    1     1.0914     2.0624   13 H    0 0 0
  28 C    1     1.3915     2.6295   27 C    0 0 0
  28 C    1     1.4021     2.6495   25 C    0 0 0
  28 C    1     2.1664     4.0939   12 H    0 0 0
  28 C    1     2.4175     4.5684   26 C    1 0 0
  28 C    1     2.4253     4.5832   30 C    0-1 2

  29 C    1     1.0914     2.0625   14 H    0 0 0
  29 C    1     1.3914     2.6293   26 C    0 0 0
  29 C    1     1.4025     2.6504   30 C   -1-1 2
  29 C    1     2.1680     4.0968   11 H    0 0 0
  29 C    1     2.4179     4.5691   27 C   -1 0 0
  29 C    1     2.4247     4.5819   25 C   -1 0 0

  30 C    1     1.4025     2.6504   29 C    1 1-2
  30 C    1     1.4026     2.6505   27 C    0 1-2
  30 C    1     1.5516     2.9322    6 B    0 0-1
  30 C    1     2.1491     4.0612   14 H    1 1-2
  30 C    1     2.1493     4.0617   12 H    0 1-2
  30 C    1     2.4251     4.5828   26 C    1 1-2

  31 C    1     1.4021     2.6496   32 C    1 1-2
  31 C    1     1.4021     2.6497   34 C    0 0 0
  31 C    1     1.5502     2.9294    3 B    1 1-2
  31 C    1     2.1475     4.0582   15 H    1 1-2
  31 C    1     2.1479     4.0589   17 H    0 0 0
  31 C    1     2.4244     4.5814   33 C    0 0 0

  32 C    1     1.0914     2.0624   15 H    0 0 0
  32 C    1     1.3914     2.6293   35 C   -1-1 2
  32 C    1     1.4021     2.6496   31 C   -1-1 2
  32 C    1     2.1668     4.0947   18 H    0 0 1
  32 C    1     2.4179     4.5692   34 C   -1-1 2
  32 C    1     2.4251     4.5827   36 C   -1-1 2

  33 C    1     1.0913     2.0623   16 H    0 0 0
  33 C    1     1.3914     2.6294   34 C    0 0 0
  33 C    1     1.4025     2.6504   36 C    0 0 0
  33 C    1     2.1679     4.0968   17 H    0 0 0
  33 C    1     2.4178     4.5690   35 C    0 0 0
  33 C    1     2.4244     4.5814   31 C    0 0 0

  34 C    1     1.0915     2.0626   17 H    0 0 0
  34 C    1     1.3914     2.6294   33 C    0 0 0
  34 C    1     1.4021     2.6497   31 C    0 0 0
  34 C    1     2.1667     4.0945   16 H    0 0 0
  34 C    1     2.4179     4.5692   32 C    1 1-2
  34 C    1     2.4253     4.5832   36 C    0 0 0

  35 C    1     1.0914     2.0624   18 H    1 1-1
  35 C    1     1.3914     2.6293   32 C    1 1-2
  35 C    1     1.4025     2.6503   36 C    0 0 0
  35 C    1     2.1678     4.0966   15 H    1 1-2
  35 C    1     2.4178     4.5690   33 C    0 0 0
  35 C    1     2.4245     4.5817   31 C    0 0 0

  36 C    1     1.4025     2.6503   35 C    0 0 0
  36 C    1     1.4025     2.6504   33 C    0 0 0
  36 C    1     1.5516     2.9322    5 B    0 0 0
  36 C    1     2.1486     4.0602   18 H    1 1-1
  36 C    1     2.1487     4.0605   16 H    0 0 0
  36 C    1     2.4251     4.5827   32 C    1 1-2

  37 O    1     1.3791     2.6061    1 B    1 0 0
  37 O    1     1.3791     2.6061    3 B    1 1-2
  37 O    1     2.3880     4.5126   38 O    1 0 0
  37 O    1     2.3882     4.5130   39 O    1 1-2
  37 O    1     2.5383     4.7966   31 C    0 0 0
  37 O    1     2.5384     4.7968   25 C    0 0-1

  38 O    1     1.3793     2.6065    1 B    0 0 0
  38 O    1     1.3793     2.6065    2 B    0 0 0
  38 O    1     2.3880     4.5126   37 O   -1 0 0
  38 O    1     2.3882     4.5131   39 O    0 1-2
  38 O    1     2.5391     4.7981   19 C    0 0 0
  38 O    1     2.5395     4.7990   25 C   -1 0-1

  39 O    1     1.3793     2.6064    3 B    0 0 0
  39 O    1     1.3793     2.6065    2 B    0-1 2
  39 O    1     2.3882     4.5130   37 O   -1-1 2
  39 O    1     2.3882     4.5131   38 O    0-1 2
  39 O    1     2.5390     4.7980   19 C    0-1 2
  39 O    1     2.5391     4.7982   31 C   -1-1 2

  40 O    1     1.3795     2.6068    6 B    0 0 0
  40 O    1     1.3795     2.6068    4 B    0 0 0
  40 O    1     2.3880     4.5126   42 O    0 0 0
  40 O    1     2.3884     4.5134   41 O    0 0 0
  40 O    1     2.5400     4.7998   24 C    0 0 0
  40 O    1     2.5403     4.8005   30 C    0 0 1

  41 O    1     1.3795     2.6069    5 B    0 0 0
  41 O    1     1.3795     2.6070    4 B    0 0 0
  41 O    1     2.3881     4.5128   42 O    0 0 0
  41 O    1     2.3884     4.5134   40 O    0 0 0
  41 O    1     2.5404     4.8006   24 C    0 0 0
  41 O    1     2.5405     4.8008   36 C    0 0 0

  42 O    1     1.3796     2.6071    6 B    0 0 0
  42 O    1     1.3797     2.6072    5 B    0 0 0
  42 O    1     2.3880     4.5126   40 O    0 0 0
  42 O    1     2.3881     4.5128   41 O    0 0 0
  42 O    1     2.5409     4.8016   36 C    0 0 0
  42 O    1     2.5410     4.8019   30 C    0 0 1


 SYMMETRY ALLOWED INTERNAL DEGREE(S) OF FREEDOM: 123
 TTTTTTTTTTTTTTTTTTTTTTTTTTTTTT SYMM        TELAPSE        0.39 TCPU        0.39
 TTTTTTTTTTTTTTTTTTTTTTTTTTTTTT INT_SCREEN  TELAPSE        0.43 TCPU        0.42

 DFT PARAMETERS

     ATOM       ELECTRONS   NET CHARGE   R(ANGSTROM)
   1   5  B       5.0000      0.0000     0.89000000
   7   1  H       1.0000      0.0000     1.11000000
  19   6  C       6.0000      0.0000     0.77000000
  37   8  O       8.0000      0.0000     0.74000000

 SIZE OF GRID=    1246848
 TTTTTTTTTTTTTTTTTTTTTTTTTTTTTT MAKE_GRID2  TELAPSE       11.74 TCPU       11.72
 BECKE WEIGHT FUNCTION
 RADSAFE =     2.00
 TOLERANCES - DENSITY:10**- 6; POTENTIAL:10**- 9; GRID WGT:10**-14

 RADIAL INTEGRATION  - INTERVALS (POINTS,UPPER LIMIT):            1( 75,  4.0*R)

 ANGULAR INTEGRATION - INTERVALS (ACCURACY LEVEL [N. POINTS] UPPER LIMIT):
  1(  4[  86]   0.2)  2(  8[ 194]   0.5)  3( 12[ 350]   0.9)  4( 16[ 974]   3.5)
  5( 12[ 350]9999.0)
 TTTTTTTTTTTTTTTTTTTTTTTTTTTTTT INT_CALC    TELAPSE       11.84 TCPU       11.82
 EEEEEEEEEE INT_CALC TERMINATION  DATE 19 02 2026 TIME 18:02:13.8

 *******************************************************************************
 cof-1_z32_L040_incl                                                             
 CRYSTAL - SCF - TYPE OF CALCULATION :  RESTRICTED CLOSED SHELL
 *******************************************************************************

 CAPPA:IS1  2;IS2  2;IS3  8; K PTS MONK NET  20; SYMMOPS:K SPACE   2;G SPACE   1

 TTTTTTTTTTTTTTTTTTTTTTTTTTTTTT SDIK        TELAPSE       12.52 TCPU       18.15

 AAAAAAAAAAAAAAAAAAAAAAAAAAAAAAAAAAAAAAAAAAAAAAAAAAAAAAAAAAAAAAAAAAAAAAAAAAAAAAA
         ATOMIC WAVEFUNCTION(S)


 NUCLEAR CHARGE  5.0  SYMMETRY SPECIES            S    P
 N. ELECTRONS    5.0  NUMBER OF PRIMITIVE GTOS    8    4
                      NUMBER OF CONTRACTED GTOS   4    2
                      NUMBER OF CLOSED SHELLS     2    0
                      OPEN SHELL OCCUPATION       0    1

  ZNUC  SCFIT    TOTAL HF ENERGY   KINETIC ENERGY   VIRIAL THEOREM ACCURACY
   5.0    11    -2.451164084E+01  2.462155050E+01 -1.995536038E+00  1.5E-06

 NUCLEAR CHARGE  1.0  SYMMETRY SPECIES            S
 N. ELECTRONS    1.0  NUMBER OF PRIMITIVE GTOS    4
                      NUMBER OF CONTRACTED GTOS   2
                      NUMBER OF CLOSED SHELLS     0
                      OPEN SHELL OCCUPATION       1

  ZNUC  SCFIT    TOTAL HF ENERGY   KINETIC ENERGY   VIRIAL THEOREM ACCURACY
   1.0     1    -4.977266687E-01  5.190767460E-01 -1.958869132E+00  0.0E+00

 NUCLEAR CHARGE  6.0  SYMMETRY SPECIES            S    P
 N. ELECTRONS    6.0  NUMBER OF PRIMITIVE GTOS    8    4
                      NUMBER OF CONTRACTED GTOS   4    2
                      NUMBER OF CLOSED SHELLS     2    0
                      OPEN SHELL OCCUPATION       0    2

  ZNUC  SCFIT    TOTAL HF ENERGY   KINETIC ENERGY   VIRIAL THEOREM ACCURACY
   6.0     9    -3.766704647E+01  3.775180683E+01 -1.997754800E+00  1.1E-06

 NUCLEAR CHARGE  8.0  SYMMETRY SPECIES            S    P
 N. ELECTRONS    8.0  NUMBER OF PRIMITIVE GTOS    8    4
                      NUMBER OF CONTRACTED GTOS   4    2
                      NUMBER OF CLOSED SHELLS     2    0
                      OPEN SHELL OCCUPATION       0    4

  ZNUC  SCFIT    TOTAL HF ENERGY   KINETIC ENERGY   VIRIAL THEOREM ACCURACY
   8.0    12    -7.477373220E+01  7.477365593E+01 -2.000001020E+00  3.8E-06

 AAAAAAAAAAAAAAAAAAAAAAAAAAAAAAAAAAAAAAAAAAAAAAAAAAAAAAAAAAAAAAAAAAAAAAAAAAAAAAA

 CHARGE NORMALIZATION FACTOR   1.00000000
 TOTAL ATOMIC CHARGES:
   5.0000000   5.0000000   5.0000000   5.0000000   5.0000000   5.0000000
   1.0000000   1.0000000   1.0000000   1.0000000   1.0000000   1.0000000
   1.0000000   1.0000000   1.0000000   1.0000000   1.0000000   1.0000000
   6.0000000   6.0000000   6.0000000   6.0000000   6.0000000   6.0000000
   6.0000000   6.0000000   6.0000000   6.0000000   6.0000000   6.0000000
   6.0000000   6.0000000   6.0000000   6.0000000   6.0000000   6.0000000
   8.0000000   8.0000000   8.0000000   8.0000000   8.0000000   8.0000000
 TTTTTTTTTTTTTTTTTTTTTTTTTTTTTT MOQGAD      TELAPSE       12.58 TCPU       19.28
 TTTTTTTTTTTTTTTTTTTTTTTTTTTTTT SHELLXN     TELAPSE       24.67 TCPU      396.17
 TTTTTTTTTTTTTTTTTTTTTTTTTTTTTT MONMO3      TELAPSE       24.86 TCPU      401.97
 NUMERICALLY INTEGRATED DENSITY    197.9999847910
 TTTTTTTTTTTTTTTTTTTTTTTTTTTTTT NUMDFT      TELAPSE       25.58 TCPU      425.16
 CYC   0 ETOT(AU) -1.296004420064E+03 DETOT -1.30E+03 tst  0.00E+00 PX  1.00E+00
 TTTTTTTTTTTTTTTTTTTTTTTTTTTTTT DIIS        TELAPSE       25.62 TCPU      426.52
 TTTTTTTTTTTTTTTTTTTTTTTTTTTTTT FDIK        TELAPSE       26.16 TCPU      443.66
 INSULATING STATE
 TOP OF VALENCE BANDS -    BAND     99; K   17; EIG -3.0669296E-01 AU
 TOP OF VALENCE BANDS -    BAND     99; K    1; EIG -3.1175059E-01 AU
 BOTTOM OF VIRTUAL BANDS - BAND    100; K   17; EIG -1.7153707E-01 AU
 DIRECT ENERGY BAND GAP:   3.6778 eV
 BOTTOM OF VIRTUAL BANDS - BAND    100; K    1; EIG -1.6504549E-01 AU
 TTTTTTTTTTTTTTTTTTTTTTTTTTTTTT PDIG        TELAPSE       26.50 TCPU      449.84
 CHARGE NORMALIZATION FACTOR   1.00000000
 TOTAL ATOMIC CHARGES:
   4.1373452   4.1544411   4.1548780   4.1539183   4.1535802   4.1377421
   0.7858992   0.7860716   0.7839692   0.7839700   0.7859280   0.7859993
   0.7859818   0.7859645   0.7839301   0.7839988   0.7858542   0.7860630
   6.0453072   6.2695976   6.2693583   6.2673424   6.2673450   6.0447131
   6.0502285   6.2595698   6.2606657   6.2594279   6.2608251   6.0478706
   6.0458183   6.2669884   6.2677100   6.2691817   6.2696545   6.0443338
   8.7028722   8.7030770   8.7021485   8.7037263   8.7027213   8.7039821
 TTTTTTTTTTTTTTTTTTTTTTTTTTTTTT MOQGAD      TELAPSE       26.55 TCPU      449.90
 TTTTTTTTTTTTTTTTTTTTTTTTTTTTTT SHELLXN     TELAPSE       38.94 TCPU      844.89
 TTTTTTTTTTTTTTTTTTTTTTTTTTTTTT MONMO3      TELAPSE       39.12 TCPU      850.68
 NUMERICALLY INTEGRATED DENSITY    197.9999956220
 TTTTTTTTTTTTTTTTTTTTTTTTTTTTTT NUMDFT      TELAPSE       39.86 TCPU      874.37
 CYC   1 ETOT(AU) -1.288833347720E+03 DETOT  7.17E+00 tst  0.00E+00 PX  1.00E+00
 TTTTTTTTTTTTTTTTTTTTTTTTTTTTTT DIIS        TELAPSE       39.91 TCPU      876.03
 DIIS TEST: 0.10770E+01 AT SCF   CYCLE   1 - MIX   30 %
 TTTTTTTTTTTTTTTTTTTTTTTTTTTTTT FDIK        TELAPSE       40.44 TCPU      892.84
 INSULATING STATE
 TOP OF VALENCE BANDS -    BAND     99; K   17; EIG -2.1918671E-01 AU
 TOP OF VALENCE BANDS -    BAND     99; K    1; EIG -2.3031777E-01 AU
 BOTTOM OF VIRTUAL BANDS - BAND    100; K   17; EIG -9.8896691E-02 AU
 DIRECT ENERGY BAND GAP:   3.2733 eV
 BOTTOM OF VIRTUAL BANDS - BAND    100; K    1; EIG -8.8913675E-02 AU
 TTTTTTTTTTTTTTTTTTTTTTTTTTTTTT PDIG        TELAPSE       40.78 TCPU      899.03
 CHARGE NORMALIZATION FACTOR   1.00000000
 TOTAL ATOMIC CHARGES:
   4.6390859   4.6868875   4.6869976   4.6865477   4.6867686   4.6393914
   0.9026216   0.9028042   0.9175297   0.9179325   0.8917779   0.8912643
   0.8917440   0.8913598   0.9175522   0.9179380   0.9025251   0.9026120
   5.8761310   6.1358924   6.1365822   6.1439456   6.1433091   5.8788391
   5.9195566   6.1509081   6.1539521   6.1522369   6.1515904   5.9193457
   5.8758364   6.1429212   6.1442515   6.1364229   6.1364843   5.8790044
   8.3345614   8.3345365   8.3561935   8.3343848   8.3555067   8.3342674
 TTTTTTTTTTTTTTTTTTTTTTTTTTTTTT MOQGAD      TELAPSE       40.83 TCPU      899.08
 TTTTTTTTTTTTTTTTTTTTTTTTTTTTTT SHELLXN     TELAPSE       53.11 TCPU     1290.83
 TTTTTTTTTTTTTTTTTTTTTTTTTTTTTT MONMO3      TELAPSE       53.30 TCPU     1296.67
 NUMERICALLY INTEGRATED DENSITY    197.9999897137
 TTTTTTTTTTTTTTTTTTTTTTTTTTTTTT NUMDFT      TELAPSE       54.03 TCPU     1320.27
 CYC   2 ETOT(AU) -1.289023902159E+03 DETOT -1.91E-01 tst  3.19E-03 PX  1.60E-01
 TTTTTTTTTTTTTTTTTTTTTTTTTTTTTT DIIS        TELAPSE       54.09 TCPU     1322.04
 DIIS TEST: 0.44181E+00 AT SCF   CYCLE   2 - DIIS ACTIVE - HISTORY:     2 CYCLES
 TTTTTTTTTTTTTTTTTTTTTTTTTTTTTT FDIK        TELAPSE       54.62 TCPU     1338.86
 INSULATING STATE
 TOP OF VALENCE BANDS -    BAND     99; K   17; EIG -2.3028663E-01 AU
 TOP OF VALENCE BANDS -    BAND     99; K    1; EIG -2.3899816E-01 AU
 BOTTOM OF VIRTUAL BANDS - BAND    100; K   17; EIG -9.3309176E-02 AU
 DIRECT ENERGY BAND GAP:   3.7273 eV
 BOTTOM OF VIRTUAL BANDS - BAND    100; K    1; EIG -8.4989406E-02 AU
 TTTTTTTTTTTTTTTTTTTTTTTTTTTTTT PDIG        TELAPSE       54.95 TCPU     1345.04
 CHARGE NORMALIZATION FACTOR   1.00000000
 TOTAL ATOMIC CHARGES:
   4.4430495   4.4875434   4.4876244   4.4865144   4.4863888   4.4437621
   0.8839764   0.8843622   0.8943328   0.8944804   0.8795442   0.8795001
   0.8797644   0.8792953   0.8941769   0.8946200   0.8839167   0.8841834
   5.8984610   6.1685886   6.1683039   6.1553327   6.1543725   5.8985320
   5.9242561   6.1644857   6.1650360   6.1637673   6.1652743   5.9227799
   5.8988863   6.1552155   6.1544918   6.1682304   6.1688629   5.8982507
   8.5245088   8.5250727   8.5198167   8.5251625   8.5195484   8.5257278
 TTTTTTTTTTTTTTTTTTTTTTTTTTTTTT MOQGAD      TELAPSE       55.00 TCPU     1345.10
 TTTTTTTTTTTTTTTTTTTTTTTTTTTTTT SHELLXN     TELAPSE       67.30 TCPU     1737.41
 TTTTTTTTTTTTTTTTTTTTTTTTTTTTTT MONMO3      TELAPSE       67.48 TCPU     1743.21
 NUMERICALLY INTEGRATED DENSITY    197.9999906531
 TTTTTTTTTTTTTTTTTTTTTTTTTTTTTT NUMDFT      TELAPSE       68.22 TCPU     1766.84
 CYC   3 ETOT(AU) -1.289114646322E+03 DETOT -9.07E-02 tst  6.35E-04 PX  6.79E-02
 TTTTTTTTTTTTTTTTTTTTTTTTTTTTTT DIIS        TELAPSE       68.29 TCPU     1768.91
 DIIS TEST: 0.16250E-01 AT SCF   CYCLE   3 - DIIS ACTIVE - HISTORY:     3 CYCLES
 TTTTTTTTTTTTTTTTTTTTTTTTTTTTTT FDIK        TELAPSE       68.82 TCPU     1785.93
 INSULATING STATE
 TOP OF VALENCE BANDS -    BAND     99; K   17; EIG -2.4003739E-01 AU
 TOP OF VALENCE BANDS -    BAND     99; K    1; EIG -2.5116304E-01 AU
 BOTTOM OF VIRTUAL BANDS - BAND    100; K   17; EIG -1.0280208E-01 AU
 DIRECT ENERGY BAND GAP:   3.7344 eV
 BOTTOM OF VIRTUAL BANDS - BAND    100; K    1; EIG -9.2801518E-02 AU
 TTTTTTTTTTTTTTTTTTTTTTTTTTTTTT PDIG        TELAPSE       69.15 TCPU     1792.11
 CHARGE NORMALIZATION FACTOR   1.00000000
 TOTAL ATOMIC CHARGES:
   4.4502823   4.4910901   4.4911810   4.4904735   4.4903861   4.4511414
   0.8677807   0.8680762   0.8768102   0.8770327   0.8590732   0.8587143
   0.8589954   0.8588187   0.8768365   0.8770266   0.8677187   0.8679174
   5.9424988   6.1684839   6.1689579   6.1707994   6.1706682   5.9449741
   5.9784619   6.1752024   6.1788117   6.1767849   6.1764672   5.9773778
   5.9427197   6.1697523   6.1716746   6.1689055   6.1688063   5.9447719
   8.4825194   8.4823818   8.4973393   8.4826043   8.4972599   8.4824219
 TTTTTTTTTTTTTTTTTTTTTTTTTTTTTT MOQGAD      TELAPSE       69.20 TCPU     1792.16
 TTTTTTTTTTTTTTTTTTTTTTTTTTTTTT SHELLXN     TELAPSE       81.46 TCPU     2183.32
 TTTTTTTTTTTTTTTTTTTTTTTTTTTTTT MONMO3      TELAPSE       81.64 TCPU     2189.04
 NUMERICALLY INTEGRATED DENSITY    197.9999907730
 TTTTTTTTTTTTTTTTTTTTTTTTTTTTTT NUMDFT      TELAPSE       82.38 TCPU     2212.73
 CYC   4 ETOT(AU) -1.289118176334E+03 DETOT -3.53E-03 tst  3.42E-05 PX  1.50E-02
 TTTTTTTTTTTTTTTTTTTTTTTTTTTTTT DIIS        TELAPSE       82.45 TCPU     2214.93
 DIIS TEST: 0.42422E-02 AT SCF   CYCLE   4 - DIIS ACTIVE - HISTORY:     4 CYCLES
 TTTTTTTTTTTTTTTTTTTTTTTTTTTTTT FDIK        TELAPSE       82.98 TCPU     2231.76
 INSULATING STATE
 TOP OF VALENCE BANDS -    BAND     99; K   17; EIG -2.3866341E-01 AU
 TOP OF VALENCE BANDS -    BAND     99; K    1; EIG -2.4878676E-01 AU
 BOTTOM OF VIRTUAL BANDS - BAND    100; K   17; EIG -1.0183630E-01 AU
 DIRECT ENERGY BAND GAP:   3.7233 eV
 BOTTOM OF VIRTUAL BANDS - BAND    100; K    1; EIG -9.2731041E-02 AU
 TTTTTTTTTTTTTTTTTTTTTTTTTTTTTT PDIG        TELAPSE       83.31 TCPU     2237.95
 CHARGE NORMALIZATION FACTOR   1.00000000
 TOTAL ATOMIC CHARGES:
   4.4497521   4.4948268   4.4948914   4.4940408   4.4940152   4.4503467
   0.8696087   0.8699295   0.8802820   0.8805516   0.8626437   0.8625671
   0.8628172   0.8624123   0.8801909   0.8806582   0.8695508   0.8697574
   5.9280699   6.1719392   6.1717323   6.1681067   6.1669025   5.9279842
   5.9587750   6.1757119   6.1765155   6.1751208   6.1764544   5.9569295
   5.9280796   6.1677188   6.1672541   6.1716193   6.1723068   5.9280104
   8.4952479   8.4957451   8.4997986   8.4956523   8.4993459   8.4961369
 TTTTTTTTTTTTTTTTTTTTTTTTTTTTTT MOQGAD      TELAPSE       83.36 TCPU     2238.00
 TTTTTTTTTTTTTTTTTTTTTTTTTTTTTT SHELLXN     TELAPSE       95.72 TCPU     2632.38
 TTTTTTTTTTTTTTTTTTTTTTTTTTTTTT MONMO3      TELAPSE       95.91 TCPU     2638.24
 NUMERICALLY INTEGRATED DENSITY    197.9999907881
 TTTTTTTTTTTTTTTTTTTTTTTTTTTTTT NUMDFT      TELAPSE       96.65 TCPU     2661.84
 CYC   5 ETOT(AU) -1.289119137093E+03 DETOT -9.61E-04 tst  6.23E-06 PX  6.77E-03
 TTTTTTTTTTTTTTTTTTTTTTTTTTTTTT DIIS        TELAPSE       96.72 TCPU     2664.30
 DIIS TEST: 0.68120E-04 AT SCF   CYCLE   5 - DIIS ACTIVE - HISTORY:     5 CYCLES
 TTTTTTTTTTTTTTTTTTTTTTTTTTTTTT FDIK        TELAPSE       97.27 TCPU     2681.67
 INSULATING STATE
 TOP OF VALENCE BANDS -    BAND     99; K   17; EIG -2.3837316E-01 AU
 TOP OF VALENCE BANDS -    BAND     99; K    1; EIG -2.4847900E-01 AU
 BOTTOM OF VIRTUAL BANDS - BAND    100; K   17; EIG -1.0149767E-01 AU
 DIRECT ENERGY BAND GAP:   3.7246 eV
 BOTTOM OF VIRTUAL BANDS - BAND    100; K    1; EIG -9.2291860E-02 AU
 TTTTTTTTTTTTTTTTTTTTTTTTTTTTTT PDIG        TELAPSE       97.60 TCPU     2687.84
 CHARGE NORMALIZATION FACTOR   1.00000000
 TOTAL ATOMIC CHARGES:
   4.4511934   4.4938647   4.4939980   4.4932120   4.4931072   4.4519862
   0.8707279   0.8710357   0.8811868   0.8813512   0.8638754   0.8634527
   0.8637838   0.8635675   0.8811689   0.8813817   0.8706445   0.8708868
   5.9261117   6.1703544   6.1709672   6.1667110   6.1671050   5.9293009
   5.9589490   6.1727319   6.1766479   6.1745643   6.1741452   5.9584894
   5.9267952   6.1658800   6.1679041   6.1709161   6.1706539   5.9286709
   8.4942279   8.4940051   8.5028582   8.4944503   8.5029509   8.4941849
 TTTTTTTTTTTTTTTTTTTTTTTTTTTTTT MOQGAD      TELAPSE       97.65 TCPU     2687.90
 TTTTTTTTTTTTTTTTTTTTTTTTTTTTTT SHELLXN     TELAPSE      109.92 TCPU     3079.30
 TTTTTTTTTTTTTTTTTTTTTTTTTTTTTT MONMO3      TELAPSE      110.10 TCPU     3085.10
 NUMERICALLY INTEGRATED DENSITY    197.9999907434
 TTTTTTTTTTTTTTTTTTTTTTTTTTTTTT NUMDFT      TELAPSE      110.84 TCPU     3108.72
 CYC   6 ETOT(AU) -1.289119149887E+03 DETOT -1.28E-05 tst  1.59E-07 PX  1.10E-03
 TTTTTTTTTTTTTTTTTTTTTTTTTTTTTT DIIS        TELAPSE      110.92 TCPU     3111.25
 DIIS TEST: 0.31571E-04 AT SCF   CYCLE   6 - DIIS ACTIVE - HISTORY:     6 CYCLES
 TTTTTTTTTTTTTTTTTTTTTTTTTTTTTT FDIK        TELAPSE      111.44 TCPU     3127.97
 INSULATING STATE
 TOP OF VALENCE BANDS -    BAND     99; K   17; EIG -2.3842479E-01 AU
 TOP OF VALENCE BANDS -    BAND     99; K    1; EIG -2.4855781E-01 AU
 BOTTOM OF VIRTUAL BANDS - BAND    100; K   17; EIG -1.0151814E-01 AU
 DIRECT ENERGY BAND GAP:   3.7254 eV
 BOTTOM OF VIRTUAL BANDS - BAND    100; K    1; EIG -9.2325963E-02 AU
 TTTTTTTTTTTTTTTTTTTTTTTTTTTTTT PDIG        TELAPSE      111.78 TCPU     3134.16
 CHARGE NORMALIZATION FACTOR   1.00000000
 TOTAL ATOMIC CHARGES:
   4.4506165   4.4943498   4.4944178   4.4935702   4.4935235   4.4513074
   0.8706552   0.8709839   0.8810503   0.8813164   0.8636219   0.8634923
   0.8637512   0.8633863   0.8809917   0.8813866   0.8705974   0.8708087
   5.9276942   6.1709392   6.1708439   6.1673833   6.1662687   5.9279740
   5.9591280   6.1744079   6.1756866   6.1742175   6.1752120   5.9573587
   5.9276758   6.1668027   6.1668169   6.1707461   6.1712936   5.9280400
   8.4945646   8.4949583   8.5011661   8.4949136   8.5007931   8.4952880
 TTTTTTTTTTTTTTTTTTTTTTTTTTTTTT MOQGAD      TELAPSE      111.84 TCPU     3134.21
 TTTTTTTTTTTTTTTTTTTTTTTTTTTTTT SHELLXN     TELAPSE      124.12 TCPU     3526.02
 TTTTTTTTTTTTTTTTTTTTTTTTTTTTTT MONMO3      TELAPSE      124.30 TCPU     3531.90
 NUMERICALLY INTEGRATED DENSITY    197.9999907592
 TTTTTTTTTTTTTTTTTTTTTTTTTTTTTT NUMDFT      TELAPSE      125.04 TCPU     3555.53
 CYC   7 ETOT(AU) -1.289119156624E+03 DETOT -6.74E-06 tst  7.81E-08 PX  8.19E-04
 TTTTTTTTTTTTTTTTTTTTTTTTTTTTTT DIIS        TELAPSE      125.13 TCPU     3558.40
 DIIS TEST: 0.17563E-05 AT SCF   CYCLE   7 - DIIS ACTIVE - HISTORY:     7 CYCLES
 TTTTTTTTTTTTTTTTTTTTTTTTTTTTTT FDIK        TELAPSE      125.67 TCPU     3575.50
 INSULATING STATE
 TOP OF VALENCE BANDS -    BAND     99; K   17; EIG -2.3842885E-01 AU
 TOP OF VALENCE BANDS -    BAND     99; K    1; EIG -2.4857070E-01 AU
 BOTTOM OF VIRTUAL BANDS - BAND    100; K   17; EIG -1.0152811E-01 AU
 DIRECT ENERGY BAND GAP:   3.7253 eV
 BOTTOM OF VIRTUAL BANDS - BAND    100; K    1; EIG -9.2347141E-02 AU
 TTTTTTTTTTTTTTTTTTTTTTTTTTTTTT PDIG        TELAPSE      126.00 TCPU     3581.68
 CHARGE NORMALIZATION FACTOR   1.00000000
 TOTAL ATOMIC CHARGES:
   4.4505358   4.4944151   4.4945111   4.4936914   4.4936236   4.4512380
   0.8706242   0.8709441   0.8810649   0.8812712   0.8636307   0.8633896
   0.8636823   0.8633604   0.8810003   0.8813489   0.8705558   0.8707806
   5.9270302   6.1707788   6.1709521   6.1670751   6.1666787   5.9285508
   5.9587547   6.1739722   6.1762618   6.1745201   6.1750500   5.9575846
   5.9273959   6.1665167   6.1672039   6.1708723   6.1711116   5.9282314
   8.4947378   8.4948927   8.5010606   8.4950534   8.5008642   8.4951824
 TTTTTTTTTTTTTTTTTTTTTTTTTTTTTT MOQGAD      TELAPSE      126.06 TCPU     3581.74
 TTTTTTTTTTTTTTTTTTTTTTTTTTTTTT SHELLXN     TELAPSE      138.33 TCPU     3973.37
 TTTTTTTTTTTTTTTTTTTTTTTTTTTTTT MONMO3      TELAPSE      138.52 TCPU     3979.19
 NUMERICALLY INTEGRATED DENSITY    197.9999907574
 TTTTTTTTTTTTTTTTTTTTTTTTTTTTTT NUMDFT      TELAPSE      139.26 TCPU     4002.94
 CYC   8 ETOT(AU) -1.289119156706E+03 DETOT -8.25E-08 tst  1.34E-08 PX  1.68E-04
 TTTTTTTTTTTTTTTTTTTTTTTTTTTTTT DIIS        TELAPSE      139.35 TCPU     4005.88
 DIIS TEST: 0.47257E-06 AT SCF   CYCLE   8 - DIIS ACTIVE - HISTORY:     8 CYCLES
 TTTTTTTTTTTTTTTTTTTTTTTTTTTTTT FDIK        TELAPSE      139.88 TCPU     4022.81
 INSULATING STATE
 TOP OF VALENCE BANDS -    BAND     99; K   17; EIG -2.3842712E-01 AU
 TOP OF VALENCE BANDS -    BAND     99; K    1; EIG -2.4856488E-01 AU
 BOTTOM OF VIRTUAL BANDS - BAND    100; K   17; EIG -1.0152943E-01 AU
 DIRECT ENERGY BAND GAP:   3.7252 eV
 BOTTOM OF VIRTUAL BANDS - BAND    100; K    1; EIG -9.2348346E-02 AU
 TTTTTTTTTTTTTTTTTTTTTTTTTTTTTT PDIG        TELAPSE      140.21 TCPU     4028.99
 CHARGE NORMALIZATION FACTOR   1.00000000
 TOTAL ATOMIC CHARGES:
   4.4505934   4.4943959   4.4944809   4.4936508   4.4935925   4.4512918
   0.8706152   0.8709369   0.8810531   0.8812888   0.8636128   0.8634100
   0.8636888   0.8633566   0.8809985   0.8813561   0.8705498   0.8707701
   5.9272583   6.1708148   6.1709008   6.1672284   6.1665341   5.9283003
   5.9589397   6.1741084   6.1760466   6.1744125   6.1750784   5.9575365
   5.9274528   6.1666204   6.1671092   6.1708143   6.1711554   5.9281522
   8.4946272   8.4948652   8.5012703   8.4949526   8.5010132   8.4951662
 TTTTTTTTTTTTTTTTTTTTTTTTTTTTTT MOQGAD      TELAPSE      140.27 TCPU     4029.05
 TTTTTTTTTTTTTTTTTTTTTTTTTTTTTT SHELLXN     TELAPSE      152.54 TCPU     4420.56
 +++ ENERGIES IN A.U. +++
 ::: EXT EL-POLE                                  -1.6342012198219E+03
 ::: EXT EL-SPHEROPOLE                             1.7923749892121E+01
 ::: BIELET ZONE E-E                               2.3719184587814E+03
 ::: TOTAL E-E                                     7.5564098885161E+02
 ::: TOTAL E-N + N-E                              -3.3337173648459E+03
 ::: TOTAL N-N                                     1.4271336383967E+02
 ::: KINETIC ENERGY                                1.2799797735079E+03
 ::: PSEUDO TOTAL   ENERGY                        -1.1553832386467E+03
 ::: VIRIAL COEFFICIENT                            1.0511613809684E+00
 TTTTTTTTTTTTTTTTTTTTTTTTTTTTTT MONMO3      TELAPSE      152.72 TCPU     4426.31
 NUMERICALLY INTEGRATED DENSITY    197.9999907553
 EXCHANGE ENERGY: -0.126026341865E+03  CORRELATION ENERGY: -0.770957626353E+01
 TTTTTTTTTTTTTTTTTTTTTTTTTTTTTT NUMDFT      TELAPSE      153.45 TCPU     4449.66
 CYC   9 ETOT(AU) -1.289119156775E+03 DETOT -6.89E-08 tst  1.88E-09 PX  1.68E-04

 == SCF ENDED - CONVERGENCE ON ENERGY      E(AU) -1.2891191567751E+03 CYCLES   9


 ENERGY EXPRESSION=HARTREE+FOCK EXCH*0.00000+(HSESOL     EXCH)*1.00000+PBESOL     CORR


 TOTAL ENERGY(DFT)(AU)(  9) -1.2891191567751E+03 DE-6.9E-08 tester 1.9E-09
 TTTTTTTTTTTTTTTTTTTTTTTTTTTTTT EDFT        TELAPSE      153.45 TCPU     4449.67
 
 INFORMATION **** DFTD3 ENERGY **** CALCULATE DFTD3 ENERGY

           DFT-D V3(BJ)
 DF                                         hsesol3c  
 parameters
 s6       :    1.0000
 s8       :    0.0000
 a1       :    0.5196
 a2       :    4.9385
 k1 k3    :   16.0000   -4.0000
 Cutoff   :   50.2022
 CN-Cutoff:   21.1671
 ABC-Cutoff:   21.1671
 
 Edisp /kcal,au:   -30.6286 -0.04880984

 E6    /kcal :   -32.6674
 E8    /kcal :     0.0000
 E6(ABC) "   :   2.038722
 
 INFORMATION **** DFTD3 ENERGY **** NORMAL TERMINATION OF DFTD3 MODULE

 GCP ENERGY CALCULATION
  level        hsesol3c            basis:hsesol3c
  Nbf            474
  Atoms           42

  Parameters: 
  sigma     1.0000
  eta       1.4281
  alpha     0.2936
  beta      1.9467

  dmp_scal      4.0000
  dmp_exp       6.0000
 cutoffs: 
   distance [bohr] 60.0
   noise    [a.u.] 2.2E-16
 SR-damping   T
 ** gCP correction **
  Egcp:        0.0848320512 / (a.u.) ||      53.2329 / (kcal/mol)
 INFORMATION **** GCP **** NORMAL TERMINATION OF GCP MODULE

 *******************************************************************************

 DFT-D3-GCP DISPERSION AND COUNTERPOISE CORRECTION

 D3 DISPERSION ENERGY (AU)      -4.8809835556264E-02
 GCP ENERGY (AU)                 8.4832051246359E-02
 TOTAL ENERGY + DISP + GCP (AU) -1.2890831345594E+03

 *******************************************************************************

 EIGENVECTORS IN FORTRAN UNIT 10
 TTTTTTTTTTTTTTTTTTTTTTTTTTTTTT END         TELAPSE      155.39 TCPU     4457.58
 EEEEEEEEEE TERMINATION  DATE 19 02 2026 TIME 18:04:37.3
