 Default number of threads is:           32

         
 *******************************************************************************
 *                                                                             *
 *                               CRYSTAL23                                     *
 *                      public : 1.0.1 - October 2022                          *
 *                       HTTP://WWW.CRYSTAL.UNITO.IT                           *
 *                                                                             *
 *                              MAIN AUTHORS                                   *
 *                                                                             *
 *  R. DOVESI(1,11), V.R. SAUNDERS(2), C. ROETTI(1,11), R. ORLANDO(1,11),      *
 *  C.M. ZICOVICH-WILSON(1,3), F. PASCALE(4), B. CIVALLERI(1,11),              *
 *  K. DOLL(5), N.M. HARRISON(6), I.J. BUSH(7), Ph. D'ARCO(8),                 *
 *  M. LLUNELL(9), M. CAUSA'(10), Y. NOEL(8), L. MASCHIO(1,11), A. ERBA(1,11)  *
 *  M. RE'RAT(14), S. CASASSA(1,11), B.G. SEARLE(2), J.K. DESMARAIS(1)         *
 *                                                                             *
 *        CONTRIBUTIONS TO THE CODE HAVE ALSO BEEN GIVEN BY                    *
 *                                                                             *
 *  M. FERRABONE(1,11), M. DE LA PIERRE(1,11), M. FERRERO(1,11),               *
 *  J. BAIMA(1,11), E. ALBANESE(1,11), M.F. PEINTINGER(12), R. BAST(13),       *
 *  B. KIRTMAN(15), V. LACIVITA(1,11), R. DEMICHELIS(1,16)                     *
 *  G. BRANDEBURG(17), S. SALUSTRO(1,11), G. SANSONE(1,11)                     *
 *  M.T. RUGGIERO(18), L.E. DAGA(1), L. DONA'(1), A. COSSARD(1)                *
 *                                                                             *
 * (1) THEORETICAL CHEMISTRY GROUP - UNIVERSITA' DI TORINO - TORINO (ITALY)    *
 * (2) SCIENTIFIC COMPUTING DEPARTMENT - STFC DARESBURY (UK)                   *
 * (3) UNIVERSIDAD AUTONOMA DEL ESTADO DE MORELOS - CUERNAVACA (MEXICO)        *
 * (4) UNIVERSITE' DE LORRAINE - NANCY (FRANCE)                                *
 * (5) UNIVERSITAET STUTTGART- STUTTGART (GERMANY)                             *
 * (6) IMPERIAL COLLEGE - LONDON (UK)                                          *
 * (7) SCIENTIFIC COMPUTING DEPARTMENT - STFC RAL (UK)                         *
 * (8) UPMC - SORBONNE UNIVERSITES - PARIS (FRANCE)                            *
 * (9) UNIVERSIDAD DE BARCELONA - BARCELONA (SPAIN)                            *
 *(10) UNIVERSITA' DI NAPOLI "FEDERICO II" - NAPOLI (ITALY)                    *
 *(11) NIS - NANOSTRUCTURED INTERFACES AND SURFACES - TORINO (ITALY)           *
 *(12) MPI FUER CHEMISCHE ENERGIEKONVERSION - MUELHEIM AN DER RUHR (GERMANY)   *
 *(13) UNIVERSITY OF TROMSO - TROMSO (NORWAY)                                  *
 *(14) UNIVERSITE' DE PAU ET DES PAYS DE L'ADOUR - PAU (FRANCE)                *
 *(15) UNIVERSITY OF CALIFORNIA SANTA BARBARA - SANTA BARBARA (USA)            *
 *(16) CURTIN UNIVERSITY - PERTH (AUSTRALIA)                                   *
 *(17) UNIVERSITY COLLEGE LONDON - LONDON (UK)                                 *
 *(18) UNIVERSITY OF VERMONT - BURLINGTON (USA)                                *
 *                                                                             *
 *******************************************************************************
 EEEEEEEEEE STARTING  DATE 19 02 2026 TIME 19:26:10.0
 cof-1_z30_L020_serr                                                             

 CRYSTAL CALCULATION
 (INPUT ACCORDING TO THE INTERNATIONAL TABLES FOR X-RAY CRYSTALLOGRAPHY)
 CRYSTAL FAMILY                       :  TRICLINIC   
 CRYSTAL CLASS  (GROTH - 1921)        :  TRICLINIC PEDIAL                     

 SPACE GROUP (NONCENTROSYMMETRIC)     :  P 1             

 LATTICE PARAMETERS  (ANGSTROMS AND DEGREES) - CONVENTIONAL CELL
        A           B           C        ALPHA        BETA       GAMMA
    15.02361    15.02392     6.00000    90.00032    89.99994   119.99596


 NUMBER OF IRREDUCIBLE ATOMS IN THE CONVENTIONAL CELL:   84

 INPUT COORDINATES

 ATOM AT. N.              COORDINATES
   1   5     6.136805400000E-01  2.273182200000E-01  2.507961200000E-01
   2   5     6.905271000000E-01  3.810269500000E-01  7.507961200000E-01
   3   5     7.727362000000E-01  3.863778800000E-01  2.507961300000E-01
   4   5     8.495827600000E-01  5.400866100000E-01  7.507961300000E-01
   5   5     6.136762700000E-01  3.863606700000E-01  2.491222600000E-01
   6   5     6.905228300000E-01  5.400694000000E-01  7.491222600000E-01
   7   5     2.272552500000E-01  6.136332200000E-01  2.507961300000E-01
   8   5     3.041018100000E-01  7.673419500000E-01  7.507961300000E-01
   9   5     3.863632200000E-01  6.136124500000E-01  2.507961200000E-01
  10   5     4.632097800000E-01  7.673211800000E-01  7.507961200000E-01
  11   5     3.863435000000E-01  7.727516500000E-01  2.491222700000E-01
  12   5     4.631900600000E-01  9.264603800000E-01  7.491222600000E-01
  13   1     9.030436200000E-01  3.089300500000E-01  2.473258700000E-01
  14   1     9.798901800000E-01  4.626387800000E-01  7.473258700000E-01
  15   1     9.663453000000E-02  6.910534400000E-01  2.467952100000E-01
  16   1     1.734810900000E-01  8.447621700000E-01  7.467952100000E-01
  17   1     9.029714200000E-01  5.940724300000E-01  2.467135400000E-01
  18   1     9.798179800000E-01  7.477811600000E-01  7.467135400000E-01
  19   1     9.673618000000E-02  4.056849400000E-01  2.467339100000E-01
  20   1     1.735827400000E-01  5.593936700000E-01  7.467339100000E-01
  21   1     6.910324000000E-01  9.700412000000E-02  2.526741600000E-01
  22   1     7.678789600000E-01  2.507128500000E-01  7.526741500000E-01
  23   1     3.089297200000E-01  9.034373100000E-01  2.532048500000E-01
  24   1     3.857762800000E-01  5.714604000000E-02  7.532048500000E-01
  25   1     4.058699900000E-01  9.704998000000E-02  2.532865700000E-01
  26   1     4.827165500000E-01  2.507587100000E-01  7.532865700000E-01
  27   1     5.943122100000E-01  9.033473200000E-01  2.532660600000E-01
  28   1     6.711587700000E-01  5.705605000000E-02  7.532660700000E-01
  29   1     6.910727400000E-01  5.940542100000E-01  2.473259000000E-01
  30   1     7.679193000000E-01  7.477629400000E-01  7.473259000000E-01
  31   1     3.089618300000E-01  4.056093300000E-01  2.467951800000E-01
  32   1     3.858083900000E-01  5.593180600000E-01  7.467951700000E-01
  33   1     4.058405700000E-01  3.088232500000E-01  2.467134700000E-01
  34   1     4.826871300000E-01  4.625319800000E-01  7.467134700000E-01
  35   1     5.942908800000E-01  6.909579300000E-01  2.467339700000E-01
  36   1     6.711374400000E-01  8.446666600000E-01  7.467339700000E-01
  37   6     8.918903100000E-01  4.459436900000E-01  2.490610100000E-01
  38   6     9.687368700000E-01  5.996524200000E-01  7.490610100000E-01
  39   6     9.464891100000E-01  3.927856300000E-01  2.474075400000E-01
  40   6     2.333567000000E-02  5.464943600000E-01  7.474075300000E-01
  41   6     5.338812000000E-02  6.071853000000E-01  2.472647000000E-01
  42   6     1.302346800000E-01  7.608940300000E-01  7.472647000000E-01
  43   6     9.464521100000E-01  5.536921900000E-01  2.476933600000E-01
  44   6     2.329867000000E-02  7.074009200000E-01  7.476933600000E-01
  45   6     5.342634000000E-02  4.462499700000E-01  2.465910100000E-01
  46   6     1.302729000000E-01  5.999587000000E-01  7.465910200000E-01
  47   6     1.080358900000E-01  5.540356300000E-01  2.477137600000E-01
  48   6     1.848824500000E-01  7.077443600000E-01  7.477137600000E-01
  49   6     5.540394200000E-01  1.081684600000E-01  2.509390200000E-01
  50   6     6.308859800000E-01  2.618771900000E-01  7.509390200000E-01
  51   6     6.071778500000E-01  5.355594000000E-02  2.525924800000E-01
  52   6     6.840244100000E-01  2.072646700000E-01  7.525924800000E-01
  53   6     3.927986700000E-01  9.466631600000E-01  2.527353700000E-01
  54   6     4.696452300000E-01  1.003718900000E-01  7.527353700000E-01
  55   6     4.462875800000E-01  5.360286000000E-02  2.523067200000E-01
  56   6     5.231341400000E-01  2.073115900000E-01  7.523067200000E-01
  57   6     5.537168500000E-01  9.466235600000E-01  2.534089800000E-01
  58   6     6.305634100000E-01  1.003322900000E-01  7.534089800000E-01
  59   6     4.459279100000E-01  8.919920600000E-01  2.522862800000E-01
  60   6     5.227744700000E-01  4.570079000000E-02  7.522862800000E-01
  61   6     5.540448700000E-01  4.458745500000E-01  2.490610100000E-01
  62   6     6.308914300000E-01  5.995832800000E-01  7.490610100000E-01
  63   6     6.072102200000E-01  5.536257800000E-01  2.474075700000E-01
  64   6     6.840567800000E-01  7.073345100000E-01  7.474075700000E-01
  65   6     3.928233700000E-01  4.461720300000E-01  2.472646600000E-01
  66   6     4.696699300000E-01  5.998807600000E-01  7.472646600000E-01
  67   6     4.462872600000E-01  3.926899900000E-01  2.476933200000E-01
  68   6     5.231338200000E-01  5.463987200000E-01  7.476933200000E-01
  69   6     5.537429600000E-01  6.070980000000E-01  2.465910600000E-01
  70   6     6.305895200000E-01  7.608067300000E-01  7.465910600000E-01
  71   6     4.459599800000E-01  5.539582300000E-01  2.477137600000E-01
  72   6     5.228065400000E-01  7.076669600000E-01  7.477137600000E-01
  73   8     5.607366800000E-01  2.803706300000E-01  2.495713400000E-01
  74   8     6.375832400000E-01  4.340793600000E-01  7.495713400000E-01
  75   8     7.196817000000E-01  2.803783300000E-01  2.531027900000E-01
  76   8     7.965282600000E-01  4.340870600000E-01  7.531027900000E-01
  77   8     7.196794200000E-01  4.393234600000E-01  2.477750100000E-01
  78   8     7.965259800000E-01  5.930321900000E-01  7.477750100000E-01
  79   8     2.803245100000E-01  7.196511100000E-01  2.495713600000E-01
  80   8     3.571710700000E-01  8.733598400000E-01  7.495713600000E-01
  81   8     2.803439700000E-01  5.606956100000E-01  2.531027900000E-01
  82   8     3.571905300000E-01  7.144043400000E-01  7.531027900000E-01
  83   8     4.392638400000E-01  7.196354200000E-01  2.477750000000E-01
  84   8     5.161104000000E-01  8.733441500000E-01  7.477750000000E-01

 *******************************************************************************

 << INFORMATION >>: FROM NOW ON, ALL COORDINATES REFER TO THE PRIMITIVE CELL

 *******************************************************************************

 LATTICE PARAMETERS  (ANGSTROMS AND DEGREES) - PRIMITIVE CELL
       A          B          C        ALPHA      BETA     GAMMA        VOLUME
   15.02361   15.02392    6.00000    90.00032  89.99994 119.99596   1172.889288

 COORDINATES OF THE EQUIVALENT ATOMS (FRACTIONAL UNITS)

 N. ATOM EQUIV AT. N.          X                  Y                  Z

   1   1   1    5 B    -3.86319460000E-01  2.27318220000E-01  2.50796120000E-01

   2   2   1    5 B    -3.09472900000E-01  3.81026950000E-01 -2.49203880000E-01

   3   3   1    5 B    -2.27263800000E-01  3.86377880000E-01  2.50796130000E-01

   4   4   1    5 B    -1.50417240000E-01 -4.59913390000E-01 -2.49203870000E-01

   5   5   1    5 B    -3.86323730000E-01  3.86360670000E-01  2.49122260000E-01

   6   6   1    5 B    -3.09477170000E-01 -4.59930600000E-01 -2.50877740000E-01

   7   7   1    5 B     2.27255250000E-01 -3.86366780000E-01  2.50796130000E-01

   8   8   1    5 B     3.04101810000E-01 -2.32658050000E-01 -2.49203870000E-01

   9   9   1    5 B     3.86363220000E-01 -3.86387550000E-01  2.50796120000E-01

  10  10   1    5 B     4.63209780000E-01 -2.32678820000E-01 -2.49203880000E-01

  11  11   1    5 B     3.86343500000E-01 -2.27248350000E-01  2.49122270000E-01

  12  12   1    5 B     4.63190060000E-01 -7.35396200000E-02 -2.50877740000E-01

  13  13   1    1 H    -9.69563800000E-02  3.08930050000E-01  2.47325870000E-01

  14  14   1    1 H    -2.01098200000E-02  4.62638780000E-01 -2.52674130000E-01

  15  15   1    1 H     9.66345300000E-02 -3.08946560000E-01  2.46795210000E-01

  16  16   1    1 H     1.73481090000E-01 -1.55237830000E-01 -2.53204790000E-01

  17  17   1    1 H    -9.70285800000E-02 -4.05927570000E-01  2.46713540000E-01

  18  18   1    1 H    -2.01820200000E-02 -2.52218840000E-01 -2.53286460000E-01

  19  19   1    1 H     9.67361800000E-02  4.05684940000E-01  2.46733910000E-01

  20  20   1    1 H     1.73582740000E-01 -4.40606330000E-01 -2.53266090000E-01

  21  21   1    1 H    -3.08967600000E-01  9.70041200000E-02  2.52674160000E-01

  22  22   1    1 H    -2.32121040000E-01  2.50712850000E-01 -2.47325850000E-01

  23  23   1    1 H     3.08929720000E-01 -9.65626900000E-02  2.53204850000E-01

  24  24   1    1 H     3.85776280000E-01  5.71460400000E-02 -2.46795150000E-01

  25  25   1    1 H     4.05869990000E-01  9.70499800000E-02  2.53286570000E-01

  26  26   1    1 H     4.82716550000E-01  2.50758710000E-01 -2.46713430000E-01

  27  27   1    1 H    -4.05687790000E-01 -9.66526800000E-02  2.53266060000E-01

  28  28   1    1 H    -3.28841230000E-01  5.70560500000E-02 -2.46733930000E-01

  29  29   1    1 H    -3.08927260000E-01 -4.05945790000E-01  2.47325900000E-01

  30  30   1    1 H    -2.32080700000E-01 -2.52237060000E-01 -2.52674100000E-01

  31  31   1    1 H     3.08961830000E-01  4.05609330000E-01  2.46795180000E-01

  32  32   1    1 H     3.85808390000E-01 -4.40681940000E-01 -2.53204830000E-01

  33  33   1    1 H     4.05840570000E-01  3.08823250000E-01  2.46713470000E-01

  34  34   1    1 H     4.82687130000E-01  4.62531980000E-01 -2.53286530000E-01

  35  35   1    1 H    -4.05709120000E-01 -3.09042070000E-01  2.46733970000E-01

  36  36   1    1 H    -3.28862560000E-01 -1.55333340000E-01 -2.53266030000E-01

  37  37   1    6 C    -1.08109690000E-01  4.45943690000E-01  2.49061010000E-01

  38  38   1    6 C    -3.12631300000E-02 -4.00347580000E-01 -2.50938990000E-01

  39  39   1    6 C    -5.35108900000E-02  3.92785630000E-01  2.47407540000E-01

  40  40   1    6 C     2.33356700000E-02 -4.53505640000E-01 -2.52592470000E-01

  41  41   1    6 C     5.33881200000E-02 -3.92814700000E-01  2.47264700000E-01

  42  42   1    6 C     1.30234680000E-01 -2.39105970000E-01 -2.52735300000E-01

  43  43   1    6 C    -5.35478900000E-02 -4.46307810000E-01  2.47693360000E-01

  44  44   1    6 C     2.32986700000E-02 -2.92599080000E-01 -2.52306640000E-01

  45  45   1    6 C     5.34263400000E-02  4.46249970000E-01  2.46591010000E-01

  46  46   1    6 C     1.30272900000E-01 -4.00041300000E-01 -2.53408980000E-01

  47  47   1    6 C     1.08035890000E-01 -4.45964370000E-01  2.47713760000E-01

  48  48   1    6 C     1.84882450000E-01 -2.92255640000E-01 -2.52286240000E-01

  49  49   1    6 C    -4.45960580000E-01  1.08168460000E-01  2.50939020000E-01

  50  50   1    6 C    -3.69114020000E-01  2.61877190000E-01 -2.49060980000E-01

  51  51   1    6 C    -3.92822150000E-01  5.35559400000E-02  2.52592480000E-01

  52  52   1    6 C    -3.15975590000E-01  2.07264670000E-01 -2.47407520000E-01

  53  53   1    6 C     3.92798670000E-01 -5.33368400000E-02  2.52735370000E-01

  54  54   1    6 C     4.69645230000E-01  1.00371890000E-01 -2.47264630000E-01

  55  55   1    6 C     4.46287580000E-01  5.36028600000E-02  2.52306720000E-01

  56  56   1    6 C    -4.76865860000E-01  2.07311590000E-01 -2.47693280000E-01

  57  57   1    6 C    -4.46283150000E-01 -5.33764400000E-02  2.53408980000E-01

  58  58   1    6 C    -3.69436590000E-01  1.00332290000E-01 -2.46591020000E-01

  59  59   1    6 C     4.45927910000E-01 -1.08007940000E-01  2.52286280000E-01

  60  60   1    6 C    -4.77225530000E-01  4.57007900000E-02 -2.47713720000E-01

  61  61   1    6 C    -4.45955130000E-01  4.45874550000E-01  2.49061010000E-01

  62  62   1    6 C    -3.69108570000E-01 -4.00416720000E-01 -2.50938990000E-01

  63  63   1    6 C    -3.92789780000E-01 -4.46374220000E-01  2.47407570000E-01

  64  64   1    6 C    -3.15943220000E-01 -2.92665490000E-01 -2.52592430000E-01

  65  65   1    6 C     3.92823370000E-01  4.46172030000E-01  2.47264660000E-01

  66  66   1    6 C     4.69669930000E-01 -4.00119240000E-01 -2.52735340000E-01

  67  67   1    6 C     4.46287260000E-01  3.92689990000E-01  2.47693320000E-01

  68  68   1    6 C    -4.76866180000E-01 -4.53601280000E-01 -2.52306680000E-01

  69  69   1    6 C    -4.46257040000E-01 -3.92902000000E-01  2.46591060000E-01

  70  70   1    6 C    -3.69410480000E-01 -2.39193270000E-01 -2.53408940000E-01

  71  71   1    6 C     4.45959980000E-01 -4.46041770000E-01  2.47713760000E-01

  72  72   1    6 C    -4.77193460000E-01 -2.92333040000E-01 -2.52286240000E-01

  73  73   1    8 O    -4.39263320000E-01  2.80370630000E-01  2.49571340000E-01

  74  74   1    8 O    -3.62416760000E-01  4.34079360000E-01 -2.50428660000E-01

  75  75   1    8 O    -2.80318300000E-01  2.80378330000E-01  2.53102790000E-01

  76  76   1    8 O    -2.03471740000E-01  4.34087060000E-01 -2.46897210000E-01

  77  77   1    8 O    -2.80320580000E-01  4.39323460000E-01  2.47775010000E-01

  78  78   1    8 O    -2.03474020000E-01 -4.06967810000E-01 -2.52224990000E-01

  79  79   1    8 O     2.80324510000E-01 -2.80348890000E-01  2.49571360000E-01

  80  80   1    8 O     3.57171070000E-01 -1.26640160000E-01 -2.50428640000E-01

  81  81   1    8 O     2.80343970000E-01 -4.39304390000E-01  2.53102790000E-01

  82  82   1    8 O     3.57190530000E-01 -2.85595660000E-01 -2.46897210000E-01

  83  83   1    8 O     4.39263840000E-01 -2.80364580000E-01  2.47775000000E-01

  84  84   1    8 O    -4.83889600000E-01 -1.26655850000E-01 -2.52225000000E-01

 NUMBER OF SYMMETRY OPERATORS         :    1
 *******************************************************************************
 * GEOMETRY EDITING - INPUT COORDINATES ARE GIVEN IN ANGSTROM         
 *******************************************************************************

 GCALCO - MAX INDICES DIRECT LATTICE VECTOR    11    11    25
 NO.OF VECTORS CREATED 6999 STARS 3500 RMAX   235.54317 BOHR

 GEOMETRY FOR WAVE FUNCTION - DIMENSIONALITY OF THE SYSTEM    3
 (NON PERIODIC DIRECTION: LATTICE PARAMETER FORMALLY SET TO 500)
 *******************************************************************************
 LATTICE PARAMETERS (ANGSTROMS AND DEGREES) - BOHR = 0.5291772083 ANGSTROM
 PRIMITIVE CELL - CENTRING CODE 1/0 VOLUME=  1172.889288 - DENSITY  1.105 g/cm^3
         A              B              C           ALPHA      BETA       GAMMA 
    15.02361100    15.02391600     6.00000000    90.000323  89.999944 119.995964
 *******************************************************************************
 ATOMS IN THE ASYMMETRIC UNIT   84 - ATOMS IN THE UNIT CELL:   84
     ATOM                 X/A                 Y/B                 Z/C    
 *******************************************************************************
      1 T   5 B    -3.863194600000E-01  2.273182200000E-01  2.507961200000E-01
      2 T   5 B    -3.094729000000E-01  3.810269500000E-01 -2.492038800000E-01
      3 T   5 B    -2.272638000000E-01  3.863778800000E-01  2.507961300000E-01
      4 T   5 B    -1.504172400000E-01 -4.599133900000E-01 -2.492038700000E-01
      5 T   5 B    -3.863237300000E-01  3.863606700000E-01  2.491222600000E-01
      6 T   5 B    -3.094771700000E-01 -4.599306000000E-01 -2.508777400000E-01
      7 T   5 B     2.272552500000E-01 -3.863667800000E-01  2.507961300000E-01
      8 T   5 B     3.041018100000E-01 -2.326580500000E-01 -2.492038700000E-01
      9 T   5 B     3.863632200000E-01 -3.863875500000E-01  2.507961200000E-01
     10 T   5 B     4.632097800000E-01 -2.326788200000E-01 -2.492038800000E-01
     11 T   5 B     3.863435000000E-01 -2.272483500000E-01  2.491222700000E-01
     12 T   5 B     4.631900600000E-01 -7.353962000000E-02 -2.508777400000E-01
     13 T   1 H    -9.695638000000E-02  3.089300500000E-01  2.473258700000E-01
     14 T   1 H    -2.010982000000E-02  4.626387800000E-01 -2.526741300000E-01
     15 T   1 H     9.663453000000E-02 -3.089465600000E-01  2.467952100000E-01
     16 T   1 H     1.734810900000E-01 -1.552378300000E-01 -2.532047900000E-01
     17 T   1 H    -9.702858000000E-02 -4.059275700000E-01  2.467135400000E-01
     18 T   1 H    -2.018202000000E-02 -2.522188400000E-01 -2.532864600000E-01
     19 T   1 H     9.673618000000E-02  4.056849400000E-01  2.467339100000E-01
     20 T   1 H     1.735827400000E-01 -4.406063300000E-01 -2.532660900000E-01
     21 T   1 H    -3.089676000000E-01  9.700412000000E-02  2.526741600000E-01
     22 T   1 H    -2.321210400000E-01  2.507128500000E-01 -2.473258500000E-01
     23 T   1 H     3.089297200000E-01 -9.656269000000E-02  2.532048500000E-01
     24 T   1 H     3.857762800000E-01  5.714604000000E-02 -2.467951500000E-01
     25 T   1 H     4.058699900000E-01  9.704998000000E-02  2.532865700000E-01
     26 T   1 H     4.827165500000E-01  2.507587100000E-01 -2.467134300000E-01
     27 T   1 H    -4.056877900000E-01 -9.665268000000E-02  2.532660600000E-01
     28 T   1 H    -3.288412300000E-01  5.705605000000E-02 -2.467339300000E-01
     29 T   1 H    -3.089272600000E-01 -4.059457900000E-01  2.473259000000E-01
     30 T   1 H    -2.320807000000E-01 -2.522370600000E-01 -2.526741000000E-01
     31 T   1 H     3.089618300000E-01  4.056093300000E-01  2.467951800000E-01
     32 T   1 H     3.858083900000E-01 -4.406819400000E-01 -2.532048300000E-01
     33 T   1 H     4.058405700000E-01  3.088232500000E-01  2.467134700000E-01
     34 T   1 H     4.826871300000E-01  4.625319800000E-01 -2.532865300000E-01
     35 T   1 H    -4.057091200000E-01 -3.090420700000E-01  2.467339700000E-01
     36 T   1 H    -3.288625600000E-01 -1.553333400000E-01 -2.532660300000E-01
     37 T   6 C    -1.081096900000E-01  4.459436900000E-01  2.490610100000E-01
     38 T   6 C    -3.126313000000E-02 -4.003475800000E-01 -2.509389900000E-01
     39 T   6 C    -5.351089000000E-02  3.927856300000E-01  2.474075400000E-01
     40 T   6 C     2.333567000000E-02 -4.535056400000E-01 -2.525924700000E-01
     41 T   6 C     5.338812000000E-02 -3.928147000000E-01  2.472647000000E-01
     42 T   6 C     1.302346800000E-01 -2.391059700000E-01 -2.527353000000E-01
     43 T   6 C    -5.354789000000E-02 -4.463078100000E-01  2.476933600000E-01
     44 T   6 C     2.329867000000E-02 -2.925990800000E-01 -2.523066400000E-01
     45 T   6 C     5.342634000000E-02  4.462499700000E-01  2.465910100000E-01
     46 T   6 C     1.302729000000E-01 -4.000413000000E-01 -2.534089800000E-01
     47 T   6 C     1.080358900000E-01 -4.459643700000E-01  2.477137600000E-01
     48 T   6 C     1.848824500000E-01 -2.922556400000E-01 -2.522862400000E-01
     49 T   6 C    -4.459605800000E-01  1.081684600000E-01  2.509390200000E-01
     50 T   6 C    -3.691140200000E-01  2.618771900000E-01 -2.490609800000E-01
     51 T   6 C    -3.928221500000E-01  5.355594000000E-02  2.525924800000E-01
     52 T   6 C    -3.159755900000E-01  2.072646700000E-01 -2.474075200000E-01
     53 T   6 C     3.927986700000E-01 -5.333684000000E-02  2.527353700000E-01
     54 T   6 C     4.696452300000E-01  1.003718900000E-01 -2.472646300000E-01
     55 T   6 C     4.462875800000E-01  5.360286000000E-02  2.523067200000E-01
     56 T   6 C    -4.768658600000E-01  2.073115900000E-01 -2.476932800000E-01
     57 T   6 C    -4.462831500000E-01 -5.337644000000E-02  2.534089800000E-01
     58 T   6 C    -3.694365900000E-01  1.003322900000E-01 -2.465910200000E-01
     59 T   6 C     4.459279100000E-01 -1.080079400000E-01  2.522862800000E-01
     60 T   6 C    -4.772255300000E-01  4.570079000000E-02 -2.477137200000E-01
     61 T   6 C    -4.459551300000E-01  4.458745500000E-01  2.490610100000E-01
     62 T   6 C    -3.691085700000E-01 -4.004167200000E-01 -2.509389900000E-01
     63 T   6 C    -3.927897800000E-01 -4.463742200000E-01  2.474075700000E-01
     64 T   6 C    -3.159432200000E-01 -2.926654900000E-01 -2.525924300000E-01
     65 T   6 C     3.928233700000E-01  4.461720300000E-01  2.472646600000E-01
     66 T   6 C     4.696699300000E-01 -4.001192400000E-01 -2.527353400000E-01
     67 T   6 C     4.462872600000E-01  3.926899900000E-01  2.476933200000E-01
     68 T   6 C    -4.768661800000E-01 -4.536012800000E-01 -2.523066800000E-01
     69 T   6 C    -4.462570400000E-01 -3.929020000000E-01  2.465910600000E-01
     70 T   6 C    -3.694104800000E-01 -2.391932700000E-01 -2.534089400000E-01
     71 T   6 C     4.459599800000E-01 -4.460417700000E-01  2.477137600000E-01
     72 T   6 C    -4.771934600000E-01 -2.923330400000E-01 -2.522862400000E-01
     73 T   8 O    -4.392633200000E-01  2.803706300000E-01  2.495713400000E-01
     74 T   8 O    -3.624167600000E-01  4.340793600000E-01 -2.504286600000E-01
     75 T   8 O    -2.803183000000E-01  2.803783300000E-01  2.531027900000E-01
     76 T   8 O    -2.034717400000E-01  4.340870600000E-01 -2.468972100000E-01
     77 T   8 O    -2.803205800000E-01  4.393234600000E-01  2.477750100000E-01
     78 T   8 O    -2.034740200000E-01 -4.069678100000E-01 -2.522249900000E-01
     79 T   8 O     2.803245100000E-01 -2.803488900000E-01  2.495713600000E-01
     80 T   8 O     3.571710700000E-01 -1.266401600000E-01 -2.504286400000E-01
     81 T   8 O     2.803439700000E-01 -4.393043900000E-01  2.531027900000E-01
     82 T   8 O     3.571905300000E-01 -2.855956600000E-01 -2.468972100000E-01
     83 T   8 O     4.392638400000E-01 -2.803645800000E-01  2.477750000000E-01
     84 T   8 O    -4.838896000000E-01 -1.266558500000E-01 -2.522250000000E-01

 T = ATOM BELONGING TO THE ASYMMETRIC UNIT

 ****    1 SYMMOPS - TRANSLATORS IN FRACTIONAL UNITS
 **** MATRICES AND TRANSLATORS IN THE CRYSTALLOGRAPHIC REFERENCE FRAME
   V INV                    ROTATION MATRICES                   TRANSLATORS
   1   1  1.00 -0.00  0.00  0.00  1.00  0.00  0.00  0.00  1.00  0.00  0.00  0.00

 DIRECT LATTICE VECTORS CARTESIAN COMPONENTS (ANGSTROM)
          X                    Y                    Z
   0.130113578931E+02  -0.751088897922E+01   0.000000000000E+00
   0.000000000000E+00   0.150239160000E+02   0.000000000000E+00
  -0.127541541606E-04  -0.338244809023E-04   0.599999999989E+01


 CARTESIAN COORDINATES - PRIMITIVE CELL
 *******************************************************************************
 *      ATOM          X(ANGSTROM)         Y(ANGSTROM)         Z(ANGSTROM)
 *******************************************************************************
    1     5 B    -5.026543953805E+00  6.316803934072E+00  1.504776719973E+00
    2     5 B    -4.026659481717E+00 -6.974974086296E+00 -1.495223279973E+00
    3     5 B    -2.957013836629E+00  7.511853501124E+00  1.504776779973E+00
    4     5 B    -1.957129364541E+00 -5.779924519244E+00 -1.495223219973E+00
    5     5 B    -5.026599490954E+00 -6.317639528581E+00  1.494733559973E+00
    6     5 B    -4.026715018867E+00 -4.585501548948E+00 -1.505266439973E+00
    7     5 B     2.956896192134E+00 -7.511639483653E+00  1.504776779973E+00
    8     5 B     3.956780664221E+00 -5.779501504021E+00 -1.495223219973E+00
    9     5 B     5.027106933441E+00  6.316922171233E+00  1.504776719973E+00
   10     5 B    -6.984366487528E+00  5.360331300819E-01 -1.495223279973E+00
   11     5 B     5.026850370812E+00 -6.315951684312E+00  1.494733619973E+00
   12     5 B     6.026734842900E+00 -4.583813704679E+00 -1.505266439973E+00
   13     1 H    -1.261537314627E+00  5.369559361413E+00  1.483955219973E+00
   14     1 H    -2.616528425401E-01  7.101697341046E+00 -1.516044779972E+00
   15     1 H     1.257343306993E+00 -5.367406740038E+00  1.480771259973E+00
   16     1 H     2.257227779080E+00 -3.635268760405E+00 -1.519228739972E+00
   17     1 H    -1.262476726858E+00 -5.369859166531E+00  1.480281239973E+00
   18     1 H    -2.625922547703E-01 -3.637721186898E+00 -1.519718759972E+00
   19     1 H     1.258665912305E+00  5.368393407125E+00  1.480403459973E+00
   20     1 H     2.258550384392E+00  7.100531386758E+00 -1.519596539972E+00
   21     1 H    -4.020091243604E+00  3.777994545737E+00  1.516044959972E+00
   22     1 H    -3.020206771516E+00  5.510132525369E+00 -1.483955099973E+00
   23     1 H     4.019591921308E+00 -3.771095137117E+00  1.519229099972E+00
   24     1 H     5.019476393395E+00 -2.038957157485E+00 -1.480770899973E+00
   25     1 H     5.280916467485E+00 -1.590382254851E+00  1.519719419972E+00
   26     1 H     6.280800939573E+00  1.417557247817E-01 -1.480280579973E+00
   27     1 H    -5.278552258728E+00  1.594965638826E+00  1.519596359972E+00
   28     1 H    -4.278667786640E+00  3.327103618458E+00 -1.480403579973E+00
   29     1 H    -4.019566297214E+00 -3.778585462670E+00  1.483955399973E+00
   30     1 H    -3.019681825127E+00 -2.046447483038E+00 -1.516044599972E+00
   31     1 H     4.020009797760E+00  3.773254151072E+00  1.480771079973E+00
   32     1 H     5.019894269847E+00  5.505392130705E+00 -1.519228979972E+00
   33     1 H     5.280533757170E+00  1.591502757360E+00  1.480280819973E+00
   34     1 H     6.280418229258E+00  3.323640736992E+00 -1.519719179972E+00
   35     1 H    -5.278829707680E+00 -1.595794287619E+00  1.480403819973E+00
   36     1 H    -4.278945235593E+00  1.363436920135E-01 -1.519596179972E+00
   37     6 C    -1.406657044860E+00  7.511811994098E+00  1.494366059973E+00
   38     6 C    -4.067725727726E-01 -5.779966026269E+00 -1.505633939973E+00
   39     6 C    -6.962524964399E-01  6.303084296665E+00  1.484445239973E+00
   40     6 C     3.036319756476E-01 -6.988693723703E+00 -1.515554819972E+00
   41     6 C     6.946487829053E-01 -6.302615662094E+00  1.483588199973E+00
   42     6 C     1.694533254993E+00 -4.570477682462E+00 -1.516411799972E+00
   43     6 C    -6.967339203273E-01 -6.303107168822E+00  1.486160159973E+00
   44     6 C     3.031505517600E-01 -4.570969189190E+00 -1.513839839973E+00
   45     6 C     6.951460855964E-01  6.303134415164E+00  1.479546059973E+00
   46     6 C     1.695030557684E+00 -6.988643605204E+00 -1.520453879972E+00
   47     6 C     1.405690470705E+00 -7.511585188223E+00  1.486282559973E+00
   48     6 C     2.405574942793E+00 -5.779447208591E+00 -1.513717439973E+00
   49     6 C     7.208801979967E+00 -2.536223204722E+00  1.505634119973E+00
   50     6 C     8.208686452054E+00 -8.040852250898E-01 -1.494365879973E+00
   51     6 C    -5.111152803573E+00  3.755054957279E+00  1.515554879972E+00
   52     6 C    -4.111268331486E+00  5.487192936911E+00 -1.484445119973E+00
   53     6 C     5.110840851861E+00 -3.751603954062E+00  1.516412219972E+00
   54     6 C     6.110725323948E+00 -2.019465974430E+00 -1.483587779973E+00
   55     6 C     5.806804208647E+00 -2.546700134327E+00  1.513840319973E+00
   56     6 C     6.806688680735E+00 -8.145621546948E-01 -1.486159679973E+00
   57     6 C    -5.806753018308E+00  2.550051470579E+00  1.520453879972E+00
   58     6 C    -4.806868546221E+00  4.282189450211E+00 -1.479546119973E+00
   59     6 C     5.802124413815E+00 -4.972025776090E+00  1.513717679973E+00
   60     6 C     6.802008885902E+00 -3.239887796457E+00 -1.486282319973E+00
   61     6 C     7.208872915819E+00  2.537403853304E+00  1.494366059973E+00
   62     6 C    -4.802600505150E+00 -3.243485187847E+00 -1.505633939973E+00
   63     6 C    -5.110731559789E+00 -3.756096724527E+00  1.484445419973E+00
   64     6 C    -4.110847087702E+00 -2.023958744895E+00 -1.515554579972E+00
   65     6 C     5.111162302175E+00  3.752790016159E+00  1.483587959973E+00
   66     6 C    -6.900311118794E+00 -2.028099024992E+00 -1.516412039972E+00
   67     6 C     5.806800103853E+00  2.547718983004E+00  1.486159919973E+00
   68     6 C    -6.204673317116E+00 -3.233170058147E+00 -1.513840079973E+00
   69     6 C    -5.806413204796E+00 -2.551147901413E+00  1.479546359973E+00
   70     6 C    -4.806528732709E+00 -8.190099217804E-01 -1.520453639972E+00
   71     6 C     5.802541746381E+00  4.973057637286E+00  1.486282559973E+00
   72     6 C    -6.208931674588E+00 -8.078314038654E-01 -1.513717439973E+00
   73     8 O     7.295942444173E+00  6.254023116313E-04  1.497428039973E+00
   74     8 O    -4.715530976796E+00 -5.780263638839E+00 -1.502571959973E+00
   75     8 O    -3.647324953385E+00  6.317811547212E+00  1.518616739972E+00
   76     8 O    -2.647440481298E+00 -6.973966473155E+00 -1.481383259973E+00
   77     8 O    -3.647354551330E+00 -6.318108866022E+00  1.486650059973E+00
   78     8 O    -2.647470079243E+00 -4.585970886390E+00 -1.513349939973E+00
   79     8 O     3.647399342734E+00 -6.317432888438E+00  1.497428159973E+00
   80     8 O     4.647283814821E+00 -4.585294908806E+00 -1.502571839973E+00
   81     8 O     3.647652498718E+00  6.318202750475E+00  1.518616739972E+00
   82     8 O     4.647536970806E+00 -6.973575269892E+00 -1.481383259973E+00
   83     8 O    -7.295942021499E+00 -5.552357638786E-04  1.486649999973E+00
   84     8 O    -6.296057549411E+00  1.731582743869E+00 -1.513349999973E+00

 *******************************************************************************
 STARTING BASIS SET HANDLING 
 *******************************************************************************

 Loading internal basis set: SOLDEF2MSVP         

 Please cite in your publication:
 L. Dona', J. G. Brandenburg and B. Civalleri, J. Chem. Phys., 151, 121101 (2019
 )                                                                              
                                                                                
                    

 *******************************************************************************
 LOCAL ATOMIC FUNCTIONS BASIS SET
 *******************************************************************************
   ATOM   X(AU)   Y(AU)   Z(AU)  N. TYPE  EXPONENT  S COEF   P COEF   D/F/G COEF
 *******************************************************************************
   1 B   -9.499  11.937   2.844
                                  1 S  
                                         2.410E+03 1.755E-03 0.000E+00 0.000E+00
                                         3.619E+02 1.344E-02 0.000E+00 0.000E+00
                                         8.231E+01 6.637E-02 0.000E+00 0.000E+00
                                         2.311E+01 2.303E-01 0.000E+00 0.000E+00
                                         7.252E+00 5.150E-01 0.000E+00 0.000E+00
                                  2 S  
                                         2.367E+00 1.000E+00 0.000E+00 0.000E+00
                                  3 S  
                                         5.533E-01 1.000E+00 0.000E+00 0.000E+00
                                  4 S  
                                         1.716E-01 1.000E+00 0.000E+00 0.000E+00
                           5-     7 P  
                                         6.002E+00 0.000E+00-3.555E-02 0.000E+00
                                         1.240E+00 0.000E+00-1.983E-01 0.000E+00
                                         3.367E-01 0.000E+00-5.048E-01 0.000E+00
                           8-    10 P  
                                         1.256E-01 0.000E+00 1.000E+00 0.000E+00
                          11-    15 D  
                                         8.880E-01 0.000E+00 0.000E+00 1.000E+00
   2 B   -7.609 -13.181  -2.826
   3 B   -5.588  14.195   2.844
   4 B   -3.698 -10.922  -2.826
   5 B   -9.499 -11.939   2.825
   6 B   -7.609  -8.665  -2.845
   7 B    5.588 -14.195   2.844
   8 B    7.477 -10.922  -2.826
   9 B    9.500  11.937   2.844
  10 B  -13.199   1.013  -2.826
  11 B    9.499 -11.935   2.825
  12 B   11.389  -8.662  -2.845
  13 H   -2.384  10.147   2.804
                                181 S  
                                         1.874E+01 1.968E-02 0.000E+00 0.000E+00
                                         2.826E+00 1.380E-01 0.000E+00 0.000E+00
                                         6.401E-01 4.783E-01 0.000E+00 0.000E+00
                                182 S  
                                         1.756E-01 1.000E+00 0.000E+00 0.000E+00
  14 H   -0.494  13.420  -2.865
  15 H    2.376 -10.143   2.798
  16 H    4.266  -6.870  -2.871
  17 H   -2.386 -10.148   2.797
  18 H   -0.496  -6.874  -2.872
  19 H    2.379  10.145   2.798
  20 H    4.268  13.418  -2.872
  21 H   -7.597   7.139   2.865
  22 H   -5.707  10.413  -2.804
  23 H    7.596  -7.126   2.871
  24 H    9.485  -3.853  -2.798
  25 H    9.979  -3.005   2.872
  26 H   11.869   0.268  -2.797
  27 H   -9.975   3.014   2.872
  28 H   -8.086   6.287  -2.798
  29 H   -7.596  -7.140   2.804
  30 H   -5.706  -3.867  -2.865
  31 H    7.597   7.130   2.798
  32 H    9.486  10.404  -2.871
  33 H    9.979   3.008   2.797
  34 H   11.868   6.281  -2.872
  35 H   -9.976  -3.016   2.798
  36 H   -8.086   0.258  -2.872
  37 C   -2.658  14.195   2.824
                                229 S  
                                         3.624E+03 1.634E-03 0.000E+00 0.000E+00
                                         5.440E+02 1.252E-02 0.000E+00 0.000E+00
                                         1.237E+02 6.211E-02 0.000E+00 0.000E+00
                                         3.476E+01 2.182E-01 0.000E+00 0.000E+00
                                         1.093E+01 4.980E-01 0.000E+00 0.000E+00
                                230 S  
                                         3.574E+00 1.000E+00 0.000E+00 0.000E+00
                                231 S  
                                         7.742E-01 1.000E+00 0.000E+00 0.000E+00
                                232 S  
                                         2.330E-01 1.000E+00 0.000E+00 0.000E+00
                         233-   235 P  
                                         9.443E+00 0.000E+00 3.790E-02 0.000E+00
                                         2.002E+00 0.000E+00 2.082E-01 0.000E+00
                                         5.463E-01 0.000E+00 5.047E-01 0.000E+00
                         236-   238 P  
                                         1.820E-01 0.000E+00 1.000E+00 0.000E+00
                         239-   243 D  
                                         8.880E-01 0.000E+00 0.000E+00 1.000E+00
  38 C   -0.769 -10.923  -2.845
  39 C   -1.316  11.911   2.805
  40 C    0.574 -13.207  -2.864
  41 C    1.313 -11.910   2.804
  42 C    3.202  -8.637  -2.866
  43 C   -1.317 -11.911   2.808
  44 C    0.573  -8.638  -2.861
  45 C    1.314  11.911   2.796
  46 C    3.203 -13.207  -2.873
  47 C    2.656 -14.195   2.809
  48 C    4.546 -10.922  -2.861
  49 C   13.623  -4.793   2.845
  50 C   15.512  -1.520  -2.824
  51 C   -9.659   7.096   2.864
  52 C   -7.769  10.369  -2.805
  53 C    9.658  -7.090   2.866
  54 C   11.548  -3.816  -2.804
  55 C   10.973  -4.813   2.861
  56 C   12.863  -1.539  -2.808
  57 C  -10.973   4.819   2.873
  58 C   -9.084   8.092  -2.796
  59 C   10.964  -9.396   2.861
  60 C   12.854  -6.123  -2.809
  61 C   13.623   4.795   2.824
  62 C   -9.076  -6.129  -2.845
  63 C   -9.658  -7.098   2.805
  64 C   -7.768  -3.825  -2.864
  65 C    9.659   7.092   2.804
  66 C  -13.040  -3.833  -2.866
  67 C   10.973   4.814   2.808
  68 C  -11.725  -6.110  -2.861
  69 C  -10.973  -4.821   2.796
  70 C   -9.083  -1.548  -2.873
  71 C   10.965   9.398   2.809
  72 C  -11.733  -1.527  -2.861
  73 O   13.787   0.001   2.830
                                769 S  
                                         6.773E+03 1.727E-03 0.000E+00 0.000E+00
                                         1.017E+03 1.325E-02 0.000E+00 0.000E+00
                                         2.313E+02 6.603E-02 0.000E+00 0.000E+00
                                         6.501E+01 2.353E-01 0.000E+00 0.000E+00
                                         2.050E+01 5.498E-01 0.000E+00 0.000E+00
                                770 S  
                                         6.716E+00 1.000E+00 0.000E+00 0.000E+00
                                771 S  
                                         1.147E+00 1.000E+00 0.000E+00 0.000E+00
                                772 S  
                                         3.342E-01 1.000E+00 0.000E+00 0.000E+00
                         773-   775 P  
                                         1.769E+01 0.000E+00 4.359E-02 0.000E+00
                                         3.854E+00 0.000E+00 2.318E-01 0.000E+00
                                         1.047E+00 0.000E+00 5.146E-01 0.000E+00
                         776-   778 P  
                                         2.759E-01 0.000E+00 1.000E+00 0.000E+00
                         779-   783 D  
                                         8.000E-01 0.000E+00 0.000E+00 1.000E+00
  74 O   -8.911 -10.923  -2.839
  75 O   -6.892  11.939   2.870
  76 O   -5.003 -13.179  -2.799
  77 O   -6.893 -11.939   2.809
  78 O   -5.003  -8.666  -2.860
  79 O    6.893 -11.938   2.830
  80 O    8.782  -8.665  -2.839
  81 O    6.893  11.940   2.870
  82 O    8.783 -13.178  -2.799
  83 O  -13.787  -0.001   2.809
  84 O  -11.898   3.272  -2.860

 *******************************************************************************
 FINISHED BASIS SET HANDLING 
 *******************************************************************************

 INFORMATION **** SET_MPP **** PCRYSTAL CALCULATION
 INFORMATION **** READM2 **** NEW DEFAULT: FOCK/KS MATRIX MIXING SET TO 30 %
 INFORMATION **** READM2 **** NEW DEFAULT: FULL DIRECT SCF MODE
 INFORMATION **** READM2 **** NEW DEFAULT: COULOMB BIPOLAR BUFFER SET TO 32 Mb
 INFORMATION **** READM2 **** NEW DEFAULT: EXCHANGE BIPOLAR BUFFER SET TO 32 Mb

 *******************************************************************************
 NEW DEFAULT: DFT INTEGRATION GRID INCREASED TO XLGRID
 NEW DEFAULT: DIIS ACCELERATOR ACTIVE
 USE KEYWORD NODIIS TO TURN IT OFF
 *******************************************************************************

 WARNING **** RDDFTP **** HSEsol-HJS ACTIVE
 RANGE SEPARATION - OMEGA:   0.110000000000000     
 WARNING **** RDDFTP **** HSEsol-3c has to be combined with sol-def2-mSVP basis set
 *******************************************************************************
 N. OF ATOMS PER CELL        84  COULOMB OVERLAP TOL         (T1) 10**   -6
 NUMBER OF SHELLS           468  COULOMB PENETRATION TOL     (T2) 10**   -6
 NUMBER OF AO               948  EXCHANGE OVERLAP TOL        (T3) 10**   -6
 N. OF ELECTRONS PER CELL   396  EXCHANGE PSEUDO OVP (F(G))  (T4) 10**   -6
 CORE ELECTRONS PER CELL    120  EXCHANGE PSEUDO OVP (P(G))  (T5) 10**  -12
 N. OF SYMMETRY OPERATORS     1  POLE ORDER IN MONO ZONE                  4
 *******************************************************************************
 TYPE OF CALCULATION :  RESTRICTED CLOSED SHELL
 KOHN-SHAM HAMILTONIAN

 (EXCHANGE)[CORRELATION] FUNCTIONAL:(HSEsol GGA)[PBEsol]

 RANGE-SEPARATED HYBRID FUNCTIONAL 
 OMEGA (SHORT-RANGE)[LONG-RANGE]:(    0.1100)[    0.0000]

 HYBRID EXCHANGE - PERCENTAGE OF FOCK EXCHANGE    25.0000

 CAPPA:IS1  2;IS2  2;IS3  8; K PTS MONK NET  20; SYMMOPS:K SPACE   2;G SPACE   1

 *******************************************************************************
 MAX NUMBER OF SCF CYCLES      50  CONVERGENCE ON DELTAP        10**-16
 WEIGHT OF F(I) IN F(I+1)      30% CONVERGENCE ON ENERGY        10**- 6
 SHRINK. FACT.(MONKH.)    2  2  8  NUMBER OF K POINTS IN THE IBZ     20
 SHRINKING FACTOR(GILAT NET)    8  NUMBER OF K POINTS(GILAT NET)   1028
 *******************************************************************************
 *** K POINTS COORDINATES (OBLIQUE COORDINATES IN UNITS OF IS =  2)
   1-R(  0  0  0)   2-R(  1  0  0)   3-R(  0  1  0)   4-R(  1  1  0)
   5-C(  0  0  1)   6-C(  1  0  1)   7-C(  0  1  1)   8-C(  1  1  1)
   9-C(  0  0  2)  10-C(  1  0  2)  11-C(  0  1  2)  12-C(  1  1  2)
  13-C(  0  0  3)  14-C(  1  0  3)  15-C(  0  1  3)  16-C(  1  1  3)
  17-R(  0  0  4)  18-R(  1  0  4)  19-R(  0  1  4)  20-R(  1  1  4)

 DIRECT LATTICE VECTORS COMPON. (A.U.)     RECIP. LATTICE VECTORS COMPON. (A.U.) 
        X            Y            Z              X            Y            Z
   24.5879030  -14.1935232    0.0000000      0.2555397    0.0000000    0.0000005
    0.0000000   28.3910867    0.0000000      0.1277517    0.2213084    0.0000015
   -0.0000241   -0.0000639   11.3383568      0.0000000    0.0000000    0.5541531

 DISK SPACE FOR EIGENVECTORS (FTN 10)    28758528 REALS

 SYMMETRY ADAPTION OF THE BLOCH FUNCTIONS DISABLED
 TTTTTTTTTTTTTTTTTTTTTTTTTTTTTT gordsh1     TELAPSE        0.05 TCPU        0.05

 MATRIX SIZE: P(G)  895026, F(G)  178791, P(G) IRR  449679, F(G) IRR  180039
 MAX G-VECTOR INDEX FOR 1- AND 2-ELECTRON INTEGRALS  67

 TTTTTTTTTTTTTTTTTTTTTTTTTTTTTT INPUT       TELAPSE        3.15 TCPU        3.15

 NEIGHBORS OF THE NON-EQUIVALENT ATOMS

 N = NUMBER OF NEIGHBORS AT DISTANCE R
    ATOM  N     R/ANG      R/AU   NEIGHBORS (ATOM LABELS AND CELL INDICES)
   1 B    1     1.3791     2.6061   73 O   -1 0 0
   1 B    1     1.3793     2.6065   75 O    0 0 0
   1 B    1     1.5503     2.9297   49 C   -1 0 0
   1 B    1     2.3895     4.5155    5 B    0 1 0
   1 B    1     2.3898     4.5160    3 B    0 0 0
   1 B    1     2.5632     4.8437   51 C    0 0 0

   2 B    1     1.3791     2.6061   74 O    0 0 0
   2 B    1     1.3793     2.6065   76 O    0 0 0
   2 B    1     1.5503     2.9297   50 C   -1-1 0
   2 B    1     2.3895     4.5155    6 B    0 0 0
   2 B    1     2.3898     4.5160    4 B    0 0 0
   2 B    1     2.5632     4.8437   52 C    0-1 0

   3 B    1     1.3793     2.6065   77 O    0 1 0
   3 B    1     1.3793     2.6065   75 O    0 0 0
   3 B    1     1.5504     2.9298   37 C    0 0 0
   3 B    1     2.3895     4.5156    5 B    0 1 0
   3 B    1     2.3898     4.5160    1 B    0 0 0
   3 B    1     2.5634     4.8440   43 C    0 1 0

   4 B    1     1.3793     2.6065   78 O    0 0 0
   4 B    1     1.3793     2.6065   76 O    0 0 0
   4 B    1     1.5504     2.9298   38 C    0 0 0
   4 B    1     2.3895     4.5156    6 B    0 0 0
   4 B    1     2.3898     4.5160    2 B    0 0 0
   4 B    1     2.5634     4.8440   44 C    0 0 0

   5 B    1     1.3791     2.6061   73 O   -1-1 0
   5 B    1     1.3793     2.6064   77 O    0 0 0
   5 B    1     1.5502     2.9294   61 C   -1-1 0
   5 B    1     2.3895     4.5155    1 B    0-1 0
   5 B    1     2.3895     4.5156    3 B    0-1 0
   5 B    1     2.5629     4.8433   63 C    0 0 0

   6 B    1     1.3791     2.6061   74 O    0 0 0
   6 B    1     1.3793     2.6064   78 O    0 0 0
   6 B    1     1.5502     2.9294   62 C    0 0 0
   6 B    1     2.3895     4.5155    2 B    0 0 0
   6 B    1     2.3895     4.5156    4 B    0 0 0
   6 B    1     2.5629     4.8433   64 C    0 0 0

   7 B    1     1.3795     2.6068   79 O    0 0 0
   7 B    1     1.3795     2.6070   81 O    0-1 0
   7 B    1     1.5513     2.9316   47 C    0 0 0
   7 B    1     2.3905     4.5174   11 B    0 0 0
   7 B    1     2.3905     4.5175    9 B    0-1 0
   7 B    1     2.5648     4.8468   45 C    0-1 0

   8 B    1     1.3795     2.6068   80 O    0 0 0
   8 B    1     1.3795     2.6070   82 O    0 0 0
   8 B    1     1.5513     2.9316   48 C    0 0 0
   8 B    1     2.3905     4.5174   12 B    0 0 0
   8 B    1     2.3905     4.5175   10 B    1 0 0
   8 B    1     2.5648     4.8468   46 C    0 0 0

   9 B    1     1.3795     2.6069   81 O    0 0 0
   9 B    1     1.3797     2.6072   83 O    1 1 0
   9 B    1     1.5516     2.9322   71 C    0 0 0
   9 B    1     2.3905     4.5175    7 B    0 1 0
   9 B    1     2.3911     4.5185   11 B    0 1 0
   9 B    1     2.5651     4.8473   69 C    1 1 0

  10 B    1     1.3795     2.6069   82 O   -1 0 0
  10 B    1     1.3797     2.6072   84 O    0 0 0
  10 B    1     1.5516     2.9322   72 C    0 0 0
  10 B    1     2.3905     4.5175    8 B   -1 0 0
  10 B    1     2.3911     4.5185   12 B   -1 0 0
  10 B    1     2.5651     4.8473   70 C    0 0 0

  11 B    1     1.3795     2.6068   79 O    0 0 0
  11 B    1     1.3796     2.6071   83 O    1 0 0
  11 B    1     1.5516     2.9322   59 C    0 0 0
  11 B    1     2.3905     4.5174    7 B    0 0 0
  11 B    1     2.3911     4.5185    9 B    0-1 0
  11 B    1     2.5651     4.8473   57 C    1 0 0

  12 B    1     1.3795     2.6068   80 O    0 0 0
  12 B    1     1.3796     2.6071   84 O    1 0 0
  12 B    1     1.5516     2.9322   60 C    0 0 0
  12 B    1     2.3905     4.5174    8 B    0 0 0
  12 B    1     2.3911     4.5185   10 B    1 0 0
  12 B    1     2.5651     4.8473   58 C    1 0 0

  13 H    1     1.0913     2.0623   39 C    0 0 0
  13 H    1     2.1472     4.0576   37 C    0 0 0
  13 H    1     2.1680     4.0969   45 C    0 0 0
  13 H    1     2.5202     4.7625   19 H    0 0 0
  13 H    1     2.5676     4.8520   75 O    0 0 0
  13 H    1     2.7321     5.1630    3 B    0 0 0

  14 H    1     1.0913     2.0623   40 C    0 1 0
  14 H    1     2.1472     4.0576   38 C    0 1 0
  14 H    1     2.1680     4.0969   46 C    0 1 0
  14 H    1     2.5202     4.7625   20 H    0 0 0
  14 H    1     2.5676     4.8520   76 O    0 1 0
  14 H    1     2.7321     5.1630    4 B    0 1 0

  15 H    1     1.0914     2.0625   41 C    0 0 0
  15 H    1     2.1493     4.0616   47 C    0 0 0
  15 H    1     2.1666     4.0942   43 C    0 0 0
  15 H    1     2.5198     4.7618   17 H    0 0 0
  15 H    1     2.5720     4.8604   79 O    0 0 0
  15 H    1     2.7362     5.1707    7 B    0 0 0

  16 H    1     1.0914     2.0625   42 C    0 0 0
  16 H    1     2.1493     4.0616   48 C    0 0 0
  16 H    1     2.1666     4.0942   44 C    0 0 0
  16 H    1     2.5198     4.7618   18 H    0 0 0
  16 H    1     2.5720     4.8604   80 O    0 0 0
  16 H    1     2.7362     5.1707    8 B    0 0 0

  17 H    1     1.0914     2.0624   43 C    0 0 0
  17 H    1     2.1471     4.0575   37 C    0-1 0
  17 H    1     2.1680     4.0970   41 C    0 0 0
  17 H    1     2.5198     4.7618   15 H    0 0 0
  17 H    1     2.5665     4.8500   77 O    0 0 0
  17 H    1     2.7315     5.1618    3 B    0-1 0

  18 H    1     1.0914     2.0624   44 C    0 0 0
  18 H    1     2.1471     4.0575   38 C    0 0 0
  18 H    1     2.1680     4.0970   42 C    0 0 0
  18 H    1     2.5198     4.7618   16 H    0 0 0
  18 H    1     2.5665     4.8500   78 O    0 0 0
  18 H    1     2.7315     5.1618    4 B    0 0 0

  19 H    1     1.0915     2.0626   45 C    0 0 0
  19 H    1     2.1490     4.0610   47 C    0 1 0
  19 H    1     2.1669     4.0948   39 C    0 0 0
  19 H    1     2.5202     4.7625   13 H    0 0 0
  19 H    1     2.5712     4.8588   81 O    0 0 0
  19 H    1     2.7351     5.1686    7 B    0 1 0

  20 H    1     1.0915     2.0626   46 C    0 1 0
  20 H    1     2.1490     4.0610   48 C    0 1 0
  20 H    1     2.1669     4.0948   40 C    0 1 0
  20 H    1     2.5202     4.7625   14 H    0 0 0
  20 H    1     2.5712     4.8588   82 O    0 1 0
  20 H    1     2.7351     5.1686    8 B    0 1 0

  21 H    1     1.0913     2.0623   51 C    0 0 0
  21 H    1     2.1469     4.0571   49 C   -1 0 0
  21 H    1     2.1680     4.0968   57 C    0 0 0
  21 H    1     2.5198     4.7617   27 H    0 0 0
  21 H    1     2.5670     4.8510   75 O    0 0 0
  21 H    1     2.7310     5.1609    1 B    0 0 0

  22 H    1     1.0913     2.0623   52 C    0 0 0
  22 H    1     2.1469     4.0571   50 C   -1 0 0
  22 H    1     2.1680     4.0968   58 C    0 0 0
  22 H    1     2.5198     4.7617   28 H    0 0 0
  22 H    1     2.5670     4.8510   76 O    0 1 0
  22 H    1     2.7310     5.1609    2 B    0 1 0

  23 H    1     1.0914     2.0625   53 C    0 0 0
  23 H    1     2.1493     4.0617   59 C    0 0 0
  23 H    1     2.1664     4.0939   55 C    0 0 0
  23 H    1     2.5192     4.7606   25 H    0 0 0
  23 H    1     2.5735     4.8632   79 O    0 0 0
  23 H    1     2.7371     5.1723   11 B    0 0 0

  24 H    1     1.0914     2.0625   54 C    0 0 0
  24 H    1     2.1493     4.0617   60 C    0 0 0
  24 H    1     2.1664     4.0939   56 C    0 0 0
  24 H    1     2.5192     4.7606   26 H    0 0 0
  24 H    1     2.5735     4.8632   80 O    0 0 0
  24 H    1     2.7371     5.1723   12 B    0 0 0

  25 H    1     1.0914     2.0624   55 C    0 0 0
  25 H    1     2.1475     4.0581   49 C    0 0 0
  25 H    1     2.1679     4.0967   53 C    0 0 0
  25 H    1     2.5192     4.7606   23 H    0 0 0
  25 H    1     2.5675     4.8519   73 O    0 0 0
  25 H    1     2.7328     5.1643    1 B    1 0 0

  26 H    1     1.0914     2.0624   56 C    0 0 0
  26 H    1     2.1475     4.0581   50 C    0 0 0
  26 H    1     2.1679     4.0967   54 C    0 0 0
  26 H    1     2.5192     4.7606   24 H    0 0 0
  26 H    1     2.5675     4.8519   74 O    1 1 0
  26 H    1     2.7328     5.1643    2 B    1 1 0

  27 H    1     1.0914     2.0625   57 C    0 0 0
  27 H    1     2.1491     4.0612   59 C   -1 0 0
  27 H    1     2.1666     4.0942   51 C    0 0 0
  27 H    1     2.5198     4.7617   21 H    0 0 0
  27 H    1     2.5723     4.8609   83 O    0 0 0
  27 H    1     2.7355     5.1693   11 B   -1 0 0

  28 H    1     1.0914     2.0625   58 C    0 0 0
  28 H    1     2.1491     4.0612   60 C   -1 0 0
  28 H    1     2.1666     4.0942   52 C    0 0 0
  28 H    1     2.5198     4.7617   22 H    0 0 0
  28 H    1     2.5723     4.8609   84 O    0 0 0
  28 H    1     2.7355     5.1693   12 B   -1 0 0

  29 H    1     1.0914     2.0624   63 C    0 0 0
  29 H    1     2.1475     4.0582   61 C   -1-1 0
  29 H    1     2.1678     4.0966   69 C    0 0 0
  29 H    1     2.5200     4.7621   35 H    0 0 0
  29 H    1     2.5667     4.8503   77 O    0 0 0
  29 H    1     2.7315     5.1618    5 B    0 0 0

  30 H    1     1.0914     2.0624   64 C    0 0 0
  30 H    1     2.1475     4.0582   62 C    0 0 0
  30 H    1     2.1678     4.0966   70 C    0 0 0
  30 H    1     2.5200     4.7621   36 H    0 0 0
  30 H    1     2.5667     4.8503   78 O    0 0 0
  30 H    1     2.7315     5.1618    6 B    0 0 0

  31 H    1     1.0913     2.0623   65 C    0 0 0
  31 H    1     2.1487     4.0605   71 C    0 0 0
  31 H    1     2.1667     4.0945   67 C    0 0 0
  31 H    1     2.5197     4.7616   33 H    0 0 0
  31 H    1     2.5723     4.8610   81 O    0 0 0
  31 H    1     2.7359     5.1701    9 B    0 0 0

  32 H    1     1.0913     2.0623   66 C    1 1 0
  32 H    1     2.1487     4.0605   72 C    1 1 0
  32 H    1     2.1667     4.0945   68 C    1 1 0
  32 H    1     2.5197     4.7616   34 H    0 0 0
  32 H    1     2.5723     4.8610   82 O    0 1 0
  32 H    1     2.7359     5.1701   10 B    1 1 0

  33 H    1     1.0915     2.0626   67 C    0 0 0
  33 H    1     2.1479     4.0589   61 C    0 0 0
  33 H    1     2.1679     4.0968   65 C    0 0 0
  33 H    1     2.5197     4.7616   31 H    0 0 0
  33 H    1     2.5677     4.8522   73 O    0 0 0
  33 H    1     2.7331     5.1648    5 B    1 1 0

  34 H    1     1.0915     2.0626   68 C    1 1 0
  34 H    1     2.1479     4.0589   62 C    1 1 0
  34 H    1     2.1679     4.0968   66 C    1 1 0
  34 H    1     2.5197     4.7616   32 H    0 0 0
  34 H    1     2.5677     4.8522   74 O    1 1 0
  34 H    1     2.7331     5.1648    6 B    1 1 0

  35 H    1     1.0914     2.0624   69 C    0 0 0
  35 H    1     2.1486     4.0602   71 C   -1-1 0
  35 H    1     2.1668     4.0947   63 C    0 0 0
  35 H    1     2.5200     4.7621   29 H    0 0 0
  35 H    1     2.5717     4.8598   83 O    0 0 0
  35 H    1     2.7349     5.1682    9 B   -1-1 0

  36 H    1     1.0914     2.0624   70 C    0 0 0
  36 H    1     2.1486     4.0602   72 C    0 0 0
  36 H    1     2.1668     4.0947   64 C    0 0 0
  36 H    1     2.5200     4.7621   30 H    0 0 0
  36 H    1     2.5717     4.8598   84 O    0 0 0
  36 H    1     2.7349     5.1682   10 B    0 0 0

  37 C    1     1.4020     2.6495   43 C    0 1 0
  37 C    1     1.4021     2.6495   39 C    0 0 0
  37 C    1     1.5504     2.9298    3 B    0 0 0
  37 C    1     2.1471     4.0575   17 H    0 1 0
  37 C    1     2.1472     4.0576   13 H    0 0 0
  37 C    1     2.4246     4.5817   41 C    0 1 0

  38 C    1     1.4020     2.6495   44 C    0 0 0
  38 C    1     1.4021     2.6495   40 C    0 0 0
  38 C    1     1.5504     2.9298    4 B    0 0 0
  38 C    1     2.1471     4.0575   18 H    0 0 0
  38 C    1     2.1472     4.0576   14 H    0-1 0
  38 C    1     2.4246     4.5817   42 C    0 0 0

  39 C    1     1.0913     2.0623   13 H    0 0 0
  39 C    1     1.3914     2.6294   45 C    0 0 0
  39 C    1     1.4021     2.6495   37 C    0 0 0
  39 C    1     2.1669     4.0948   19 H    0 0 0
  39 C    1     2.4177     4.5688   43 C    0 1 0
  39 C    1     2.4250     4.5825   47 C    0 1 0

  40 C    1     1.0913     2.0623   14 H    0-1 0
  40 C    1     1.3914     2.6294   46 C    0 0 0
  40 C    1     1.4021     2.6495   38 C    0 0 0
  40 C    1     2.1669     4.0948   20 H    0-1 0
  40 C    1     2.4177     4.5688   44 C    0 0 0
  40 C    1     2.4250     4.5825   48 C    0 0 0

  41 C    1     1.0914     2.0625   15 H    0 0 0
  41 C    1     1.3914     2.6293   43 C    0 0 0
  41 C    1     1.4026     2.6505   47 C    0 0 0
  41 C    1     2.1680     4.0970   17 H    0 0 0
  41 C    1     2.4182     4.5697   45 C    0-1 0
  41 C    1     2.4246     4.5817   37 C    0-1 0

  42 C    1     1.0914     2.0625   16 H    0 0 0
  42 C    1     1.3914     2.6293   44 C    0 0 0
  42 C    1     1.4026     2.6505   48 C    0 0 0
  42 C    1     2.1680     4.0970   18 H    0 0 0
  42 C    1     2.4182     4.5697   46 C    0 0 0
  42 C    1     2.4246     4.5817   38 C    0 0 0

  43 C    1     1.0914     2.0624   17 H    0 0 0
  43 C    1     1.3914     2.6293   41 C    0 0 0
  43 C    1     1.4020     2.6495   37 C    0-1 0
  43 C    1     2.1666     4.0942   15 H    0 0 0
  43 C    1     2.4177     4.5688   39 C    0-1 0
  43 C    1     2.4250     4.5826   47 C    0 0 0

  44 C    1     1.0914     2.0624   18 H    0 0 0
  44 C    1     1.3914     2.6293   42 C    0 0 0
  44 C    1     1.4020     2.6495   38 C    0 0 0
  44 C    1     2.1666     4.0942   16 H    0 0 0
  44 C    1     2.4177     4.5688   40 C    0 0 0
  44 C    1     2.4250     4.5826   48 C    0 0 0

  45 C    1     1.0915     2.0626   19 H    0 0 0
  45 C    1     1.3914     2.6294   39 C    0 0 0
  45 C    1     1.4025     2.6504   47 C    0 1 0
  45 C    1     2.1680     4.0969   13 H    0 0 0
  45 C    1     2.4182     4.5697   41 C    0 1 0
  45 C    1     2.4246     4.5818   37 C    0 0 0

  46 C    1     1.0915     2.0626   20 H    0-1 0
  46 C    1     1.3914     2.6294   40 C    0 0 0
  46 C    1     1.4025     2.6504   48 C    0 0 0
  46 C    1     2.1680     4.0969   14 H    0-1 0
  46 C    1     2.4182     4.5697   42 C    0 0 0
  46 C    1     2.4246     4.5818   38 C    0 0 0

  47 C    1     1.4025     2.6504   45 C    0-1 0
  47 C    1     1.4026     2.6505   41 C    0 0 0
  47 C    1     1.5513     2.9316    7 B    0 0 0
  47 C    1     2.1490     4.0610   19 H    0-1 0
  47 C    1     2.1493     4.0616   15 H    0 0 0
  47 C    1     2.4250     4.5825   39 C    0-1 0

  48 C    1     1.4025     2.6504   46 C    0 0 0
  48 C    1     1.4026     2.6505   42 C    0 0 0
  48 C    1     1.5513     2.9316    8 B    0 0 0
  48 C    1     2.1490     4.0610   20 H    0-1 0
  48 C    1     2.1493     4.0616   16 H    0 0 0
  48 C    1     2.4250     4.5825   40 C    0 0 0

  49 C    1     1.4020     2.6494   51 C    1 0 0
  49 C    1     1.4021     2.6495   55 C    0 0 0
  49 C    1     1.5503     2.9297    1 B    1 0 0
  49 C    1     2.1469     4.0571   21 H    1 0 0
  49 C    1     2.1475     4.0581   25 H    0 0 0
  49 C    1     2.4246     4.5818   53 C    0 0 0

  50 C    1     1.4020     2.6494   52 C    1 0 0
  50 C    1     1.4021     2.6495   56 C    0 0 0
  50 C    1     1.5503     2.9297    2 B    1 1 0
  50 C    1     2.1469     4.0571   22 H    1 0 0
  50 C    1     2.1475     4.0581   26 H    0 0 0
  50 C    1     2.4246     4.5818   54 C    0 0 0

  51 C    1     1.0913     2.0623   21 H    0 0 0
  51 C    1     1.3914     2.6293   57 C    0 0 0
  51 C    1     1.4020     2.6494   49 C   -1 0 0
  51 C    1     2.1666     4.0942   27 H    0 0 0
  51 C    1     2.4175     4.5684   55 C   -1 0 0
  51 C    1     2.4251     4.5828   59 C   -1 0 0

  52 C    1     1.0913     2.0623   22 H    0 0 0
  52 C    1     1.3914     2.6293   58 C    0 0 0
  52 C    1     1.4020     2.6494   50 C   -1 0 0
  52 C    1     2.1666     4.0942   28 H    0 0 0
  52 C    1     2.4175     4.5684   56 C   -1 0 0
  52 C    1     2.4251     4.5828   60 C   -1 0 0

  53 C    1     1.0914     2.0625   23 H    0 0 0
  53 C    1     1.3915     2.6295   55 C    0 0 0
  53 C    1     1.4026     2.6505   59 C    0 0 0
  53 C    1     2.1679     4.0967   25 H    0 0 0
  53 C    1     2.4179     4.5691   57 C    1 0 0
  53 C    1     2.4246     4.5818   49 C    0 0 0

  54 C    1     1.0914     2.0625   24 H    0 0 0
  54 C    1     1.3915     2.6295   56 C    0 0 0
  54 C    1     1.4026     2.6505   60 C    0 0 0
  54 C    1     2.1679     4.0967   26 H    0 0 0
  54 C    1     2.4179     4.5691   58 C    1 0 0
  54 C    1     2.4246     4.5818   50 C    0 0 0

  55 C    1     1.0914     2.0624   25 H    0 0 0
  55 C    1     1.3915     2.6295   53 C    0 0 0
  55 C    1     1.4021     2.6495   49 C    0 0 0
  55 C    1     2.1664     4.0939   23 H    0 0 0
  55 C    1     2.4175     4.5684   51 C    1 0 0
  55 C    1     2.4253     4.5832   59 C    0 0 0

  56 C    1     1.0914     2.0624   26 H    0 0 0
  56 C    1     1.3915     2.6295   54 C    0 0 0
  56 C    1     1.4021     2.6495   50 C    0 0 0
  56 C    1     2.1664     4.0939   24 H    0 0 0
  56 C    1     2.4175     4.5684   52 C    1 0 0
  56 C    1     2.4253     4.5832   60 C    0 0 0

  57 C    1     1.0914     2.0625   27 H    0 0 0
  57 C    1     1.3914     2.6293   51 C    0 0 0
  57 C    1     1.4025     2.6504   59 C   -1 0 0
  57 C    1     2.1680     4.0968   21 H    0 0 0
  57 C    1     2.4179     4.5691   53 C   -1 0 0
  57 C    1     2.4247     4.5819   49 C   -1 0 0

  58 C    1     1.0914     2.0625   28 H    0 0 0
  58 C    1     1.3914     2.6293   52 C    0 0 0
  58 C    1     1.4025     2.6504   60 C   -1 0 0
  58 C    1     2.1680     4.0968   22 H    0 0 0
  58 C    1     2.4179     4.5691   54 C   -1 0 0
  58 C    1     2.4247     4.5819   50 C   -1 0 0

  59 C    1     1.4025     2.6504   57 C    1 0 0
  59 C    1     1.4026     2.6505   53 C    0 0 0
  59 C    1     1.5516     2.9322   11 B    0 0 0
  59 C    1     2.1491     4.0612   27 H    1 0 0
  59 C    1     2.1493     4.0617   23 H    0 0 0
  59 C    1     2.4251     4.5828   51 C    1 0 0

  60 C    1     1.4025     2.6504   58 C    1 0 0
  60 C    1     1.4026     2.6505   54 C    0 0 0
  60 C    1     1.5516     2.9322   12 B    0 0 0
  60 C    1     2.1491     4.0612   28 H    1 0 0
  60 C    1     2.1493     4.0617   24 H    0 0 0
  60 C    1     2.4251     4.5828   52 C    1 0 0

  61 C    1     1.4021     2.6496   63 C    1 1 0
  61 C    1     1.4021     2.6497   67 C    0 0 0
  61 C    1     1.5502     2.9294    5 B    1 1 0
  61 C    1     2.1475     4.0582   29 H    1 1 0
  61 C    1     2.1479     4.0589   33 H    0 0 0
  61 C    1     2.4244     4.5814   65 C    0 0 0

  62 C    1     1.4021     2.6496   64 C    0 0 0
  62 C    1     1.4021     2.6497   68 C    0 0 0
  62 C    1     1.5502     2.9294    6 B    0 0 0
  62 C    1     2.1475     4.0582   30 H    0 0 0
  62 C    1     2.1479     4.0589   34 H   -1-1 0
  62 C    1     2.4244     4.5814   66 C    0 0 0

  63 C    1     1.0914     2.0624   29 H    0 0 0
  63 C    1     1.3914     2.6293   69 C    0 0 0
  63 C    1     1.4021     2.6496   61 C   -1-1 0
  63 C    1     2.1668     4.0947   35 H    0 0 0
  63 C    1     2.4179     4.5692   67 C   -1-1 0
  63 C    1     2.4251     4.5827   71 C   -1-1 0

  64 C    1     1.0914     2.0624   30 H    0 0 0
  64 C    1     1.3914     2.6293   70 C    0 0 0
  64 C    1     1.4021     2.6496   62 C    0 0 0
  64 C    1     2.1668     4.0947   36 H    0 0 0
  64 C    1     2.4179     4.5692   68 C    0 0 0
  64 C    1     2.4251     4.5827   72 C    0 0 0

  65 C    1     1.0913     2.0623   31 H    0 0 0
  65 C    1     1.3914     2.6294   67 C    0 0 0
  65 C    1     1.4025     2.6504   71 C    0 0 0
  65 C    1     2.1679     4.0968   33 H    0 0 0
  65 C    1     2.4178     4.5690   69 C    1 1 0
  65 C    1     2.4244     4.5814   61 C    0 0 0

  66 C    1     1.0913     2.0623   32 H   -1-1 0
  66 C    1     1.3914     2.6294   68 C    0 0 0
  66 C    1     1.4025     2.6504   72 C    0 0 0
  66 C    1     2.1679     4.0968   34 H   -1-1 0
  66 C    1     2.4178     4.5690   70 C    0 0 0
  66 C    1     2.4244     4.5814   62 C    0 0 0

  67 C    1     1.0915     2.0626   33 H    0 0 0
  67 C    1     1.3914     2.6294   65 C    0 0 0
  67 C    1     1.4021     2.6497   61 C    0 0 0
  67 C    1     2.1667     4.0945   31 H    0 0 0
  67 C    1     2.4179     4.5692   63 C    1 1 0
  67 C    1     2.4253     4.5832   71 C    0 0 0

  68 C    1     1.0915     2.0626   34 H   -1-1 0
  68 C    1     1.3914     2.6294   66 C    0 0 0
  68 C    1     1.4021     2.6497   62 C    0 0 0
  68 C    1     2.1667     4.0945   32 H   -1-1 0
  68 C    1     2.4179     4.5692   64 C    0 0 0
  68 C    1     2.4253     4.5832   72 C    0 0 0

  69 C    1     1.0914     2.0624   35 H    0 0 0
  69 C    1     1.3914     2.6293   63 C    0 0 0
  69 C    1     1.4025     2.6503   71 C   -1-1 0
  69 C    1     2.1678     4.0966   29 H    0 0 0
  69 C    1     2.4178     4.5690   65 C   -1-1 0
  69 C    1     2.4245     4.5817   61 C   -1-1 0

  70 C    1     1.0914     2.0624   36 H    0 0 0
  70 C    1     1.3914     2.6293   64 C    0 0 0
  70 C    1     1.4025     2.6503   72 C    0 0 0
  70 C    1     2.1678     4.0966   30 H    0 0 0
  70 C    1     2.4178     4.5690   66 C    0 0 0
  70 C    1     2.4245     4.5817   62 C    0 0 0

  71 C    1     1.4025     2.6503   69 C    1 1 0
  71 C    1     1.4025     2.6504   65 C    0 0 0
  71 C    1     1.5516     2.9322    9 B    0 0 0
  71 C    1     2.1486     4.0602   35 H    1 1 0
  71 C    1     2.1487     4.0605   31 H    0 0 0
  71 C    1     2.4251     4.5827   63 C    1 1 0

  72 C    1     1.4025     2.6503   70 C    0 0 0
  72 C    1     1.4025     2.6504   66 C    0 0 0
  72 C    1     1.5516     2.9322   10 B    0 0 0
  72 C    1     2.1486     4.0602   36 H    0 0 0
  72 C    1     2.1487     4.0605   32 H   -1-1 0
  72 C    1     2.4251     4.5827   64 C    0 0 0

  73 O    1     1.3791     2.6061    1 B    1 0 0
  73 O    1     1.3791     2.6061    5 B    1 1 0
  73 O    1     2.3880     4.5126   75 O    1 0 0
  73 O    1     2.3882     4.5130   77 O    1 1 0
  73 O    1     2.5383     4.7966   61 C    0 0 0
  73 O    1     2.5384     4.7968   49 C    0 0 0

  74 O    1     1.3791     2.6061    2 B    0 0 0
  74 O    1     1.3791     2.6061    6 B    0 0 0
  74 O    1     2.3880     4.5126   76 O    0 0 0
  74 O    1     2.3882     4.5130   78 O    0 0 0
  74 O    1     2.5383     4.7966   62 C    0 0 0
  74 O    1     2.5384     4.7968   50 C   -1-1 0

  75 O    1     1.3793     2.6065    1 B    0 0 0
  75 O    1     1.3793     2.6065    3 B    0 0 0
  75 O    1     2.3880     4.5126   73 O   -1 0 0
  75 O    1     2.3882     4.5131   77 O    0 1 0
  75 O    1     2.5391     4.7981   37 C    0 0 0
  75 O    1     2.5395     4.7990   49 C   -1 0 0

  76 O    1     1.3793     2.6065    2 B    0 0 0
  76 O    1     1.3793     2.6065    4 B    0 0 0
  76 O    1     2.3880     4.5126   74 O    0 0 0
  76 O    1     2.3882     4.5131   78 O    0 0 0
  76 O    1     2.5391     4.7981   38 C    0 0 0
  76 O    1     2.5395     4.7990   50 C   -1-1 0

  77 O    1     1.3793     2.6064    5 B    0 0 0
  77 O    1     1.3793     2.6065    3 B    0-1 0
  77 O    1     2.3882     4.5130   73 O   -1-1 0
  77 O    1     2.3882     4.5131   75 O    0-1 0
  77 O    1     2.5390     4.7980   37 C    0-1 0
  77 O    1     2.5391     4.7982   61 C   -1-1 0

  78 O    1     1.3793     2.6064    6 B    0 0 0
  78 O    1     1.3793     2.6065    4 B    0 0 0
  78 O    1     2.3882     4.5130   74 O    0 0 0
  78 O    1     2.3882     4.5131   76 O    0 0 0
  78 O    1     2.5390     4.7980   38 C    0 0 0
  78 O    1     2.5391     4.7982   62 C    0 0 0

  79 O    1     1.3795     2.6068   11 B    0 0 0
  79 O    1     1.3795     2.6068    7 B    0 0 0
  79 O    1     2.3880     4.5126   83 O    1 0 0
  79 O    1     2.3884     4.5134   81 O    0-1 0
  79 O    1     2.5400     4.7998   47 C    0 0 0
  79 O    1     2.5403     4.8005   59 C    0 0 0

  80 O    1     1.3795     2.6068   12 B    0 0 0
  80 O    1     1.3795     2.6068    8 B    0 0 0
  80 O    1     2.3880     4.5126   84 O    1 0 0
  80 O    1     2.3884     4.5134   82 O    0 0 0
  80 O    1     2.5400     4.7998   48 C    0 0 0
  80 O    1     2.5403     4.8005   60 C    0 0 0

  81 O    1     1.3795     2.6069    9 B    0 0 0
  81 O    1     1.3795     2.6070    7 B    0 1 0
  81 O    1     2.3881     4.5128   83 O    1 1 0
  81 O    1     2.3884     4.5134   79 O    0 1 0
  81 O    1     2.5404     4.8006   47 C    0 1 0
  81 O    1     2.5405     4.8008   71 C    0 0 0

  82 O    1     1.3795     2.6069   10 B    1 0 0
  82 O    1     1.3795     2.6070    8 B    0 0 0
  82 O    1     2.3881     4.5128   84 O    1 0 0
  82 O    1     2.3884     4.5134   80 O    0 0 0
  82 O    1     2.5404     4.8006   48 C    0 0 0
  82 O    1     2.5405     4.8008   72 C    1 0 0

  83 O    1     1.3796     2.6071   11 B   -1 0 0
  83 O    1     1.3797     2.6072    9 B   -1-1 0
  83 O    1     2.3880     4.5126   79 O   -1 0 0
  83 O    1     2.3881     4.5128   81 O   -1-1 0
  83 O    1     2.5409     4.8016   71 C   -1-1 0
  83 O    1     2.5410     4.8019   59 C   -1 0 0

  84 O    1     1.3796     2.6071   12 B   -1 0 0
  84 O    1     1.3797     2.6072   10 B    0 0 0
  84 O    1     2.3880     4.5126   80 O   -1 0 0
  84 O    1     2.3881     4.5128   82 O   -1 0 0
  84 O    1     2.5409     4.8016   72 C    0 0 0
  84 O    1     2.5410     4.8019   60 C   -1 0 0


 SYMMETRY ALLOWED INTERNAL DEGREE(S) OF FREEDOM: 249
 TTTTTTTTTTTTTTTTTTTTTTTTTTTTTT SYMM        TELAPSE        3.16 TCPU        3.15
 TTTTTTTTTTTTTTTTTTTTTTTTTTTTTT INT_SCREEN  TELAPSE        3.38 TCPU        3.37

 DFT PARAMETERS

     ATOM       ELECTRONS   NET CHARGE   R(ANGSTROM)
   1   5  B       5.0000      0.0000     0.89000000
  13   1  H       1.0000      0.0000     1.11000000
  37   6  C       6.0000      0.0000     0.77000000
  73   8  O       8.0000      0.0000     0.74000000

 SIZE OF GRID=    2403721
 TTTTTTTTTTTTTTTTTTTTTTTTTTTTTT MAKE_GRID2  TELAPSE       32.63 TCPU       32.60
 BECKE WEIGHT FUNCTION
 RADSAFE =     2.00
 TOLERANCES - DENSITY:10**- 6; POTENTIAL:10**- 9; GRID WGT:10**-14

 RADIAL INTEGRATION  - INTERVALS (POINTS,UPPER LIMIT):            1( 75,  4.0*R)

 ANGULAR INTEGRATION - INTERVALS (ACCURACY LEVEL [N. POINTS] UPPER LIMIT):
  1(  4[  86]   0.2)  2(  8[ 194]   0.5)  3( 12[ 350]   0.9)  4( 16[ 974]   3.5)
  5( 12[ 350]9999.0)
 TTTTTTTTTTTTTTTTTTTTTTTTTTTTTT INT_CALC    TELAPSE       33.00 TCPU       32.96
 EEEEEEEEEE INT_CALC TERMINATION  DATE 19 02 2026 TIME 19:26:43.0

 *******************************************************************************
 cof-1_z30_L020_serr                                                             
 CRYSTAL - SCF - TYPE OF CALCULATION :  RESTRICTED CLOSED SHELL
 *******************************************************************************

 CAPPA:IS1  2;IS2  2;IS3  8; K PTS MONK NET  20; SYMMOPS:K SPACE   2;G SPACE   1

 TTTTTTTTTTTTTTTTTTTTTTTTTTTTTT SDIK        TELAPSE       35.05 TCPU       60.93

 AAAAAAAAAAAAAAAAAAAAAAAAAAAAAAAAAAAAAAAAAAAAAAAAAAAAAAAAAAAAAAAAAAAAAAAAAAAAAAA
         ATOMIC WAVEFUNCTION(S)


 NUCLEAR CHARGE  5.0  SYMMETRY SPECIES            S    P
 N. ELECTRONS    5.0  NUMBER OF PRIMITIVE GTOS    8    4
                      NUMBER OF CONTRACTED GTOS   4    2
                      NUMBER OF CLOSED SHELLS     2    0
                      OPEN SHELL OCCUPATION       0    1

  ZNUC  SCFIT    TOTAL HF ENERGY   KINETIC ENERGY   VIRIAL THEOREM ACCURACY
   5.0    11    -2.451164084E+01  2.462155050E+01 -1.995536038E+00  1.5E-06

 NUCLEAR CHARGE  1.0  SYMMETRY SPECIES            S
 N. ELECTRONS    1.0  NUMBER OF PRIMITIVE GTOS    4
                      NUMBER OF CONTRACTED GTOS   2
                      NUMBER OF CLOSED SHELLS     0
                      OPEN SHELL OCCUPATION       1

  ZNUC  SCFIT    TOTAL HF ENERGY   KINETIC ENERGY   VIRIAL THEOREM ACCURACY
   1.0     1    -4.977266687E-01  5.190767460E-01 -1.958869132E+00  0.0E+00

 NUCLEAR CHARGE  6.0  SYMMETRY SPECIES            S    P
 N. ELECTRONS    6.0  NUMBER OF PRIMITIVE GTOS    8    4
                      NUMBER OF CONTRACTED GTOS   4    2
                      NUMBER OF CLOSED SHELLS     2    0
                      OPEN SHELL OCCUPATION       0    2

  ZNUC  SCFIT    TOTAL HF ENERGY   KINETIC ENERGY   VIRIAL THEOREM ACCURACY
   6.0     9    -3.766704647E+01  3.775180683E+01 -1.997754800E+00  1.1E-06

 NUCLEAR CHARGE  8.0  SYMMETRY SPECIES            S    P
 N. ELECTRONS    8.0  NUMBER OF PRIMITIVE GTOS    8    4
                      NUMBER OF CONTRACTED GTOS   4    2
                      NUMBER OF CLOSED SHELLS     2    0
                      OPEN SHELL OCCUPATION       0    4

  ZNUC  SCFIT    TOTAL HF ENERGY   KINETIC ENERGY   VIRIAL THEOREM ACCURACY
   8.0    12    -7.477373220E+01  7.477365593E+01 -2.000001020E+00  3.8E-06

 AAAAAAAAAAAAAAAAAAAAAAAAAAAAAAAAAAAAAAAAAAAAAAAAAAAAAAAAAAAAAAAAAAAAAAAAAAAAAAA

 CHARGE NORMALIZATION FACTOR   1.00000000
 TOTAL ATOMIC CHARGES:
   5.0000000   5.0000000   5.0000000   5.0000000   5.0000000   5.0000000
   5.0000000   5.0000000   5.0000000   5.0000000   5.0000000   5.0000000
   1.0000000   1.0000000   1.0000000   1.0000000   1.0000000   1.0000000
   1.0000000   1.0000000   1.0000000   1.0000000   1.0000000   1.0000000
   1.0000000   1.0000000   1.0000000   1.0000000   1.0000000   1.0000000
   1.0000000   1.0000000   1.0000000   1.0000000   1.0000000   1.0000000
   6.0000000   6.0000000   6.0000000   6.0000000   6.0000000   6.0000000
   6.0000000   6.0000000   6.0000000   6.0000000   6.0000000   6.0000000
   6.0000000   6.0000000   6.0000000   6.0000000   6.0000000   6.0000000
   6.0000000   6.0000000   6.0000000   6.0000000   6.0000000   6.0000000
   6.0000000   6.0000000   6.0000000   6.0000000   6.0000000   6.0000000
   6.0000000   6.0000000   6.0000000   6.0000000   6.0000000   6.0000000
   8.0000000   8.0000000   8.0000000   8.0000000   8.0000000   8.0000000
   8.0000000   8.0000000   8.0000000   8.0000000   8.0000000   8.0000000
 TTTTTTTTTTTTTTTTTTTTTTTTTTTTTT MOQGAD      TELAPSE       35.17 TCPU       64.66
 TTTTTTTTTTTTTTTTTTTTTTTTTTTTTT SHELLXN     TELAPSE       70.85 TCPU     1204.07
 TTTTTTTTTTTTTTTTTTTTTTTTTTTTTT MONMO3      TELAPSE       71.57 TCPU     1227.33
 NUMERICALLY INTEGRATED DENSITY    396.0001013133
 TTTTTTTTTTTTTTTTTTTTTTTTTTTTTT NUMDFT      TELAPSE       73.46 TCPU     1287.56
 CYC   0 ETOT(AU) -2.592191564152E+03 DETOT -2.59E+03 tst  0.00E+00 PX  1.00E+00
 TTTTTTTTTTTTTTTTTTTTTTTTTTTTTT DIIS        TELAPSE       73.58 TCPU     1291.45
 TTTTTTTTTTTTTTTTTTTTTTTTTTTTTT FDIK        TELAPSE       75.60 TCPU     1355.76
 INSULATING STATE
 TOP OF VALENCE BANDS -    BAND    198; K    2; EIG -2.9172207E-01 AU
 TOP OF VALENCE BANDS -    BAND    198; K    1; EIG -2.9174256E-01 AU
 BOTTOM OF VIRTUAL BANDS - BAND    199; K    3; EIG -1.6325839E-01 AU
 INDIRECT ENERGY BAND GAP:   3.4957 eV
 BOTTOM OF VIRTUAL BANDS - BAND    199; K    1; EIG -1.6323162E-01 AU
 TTTTTTTTTTTTTTTTTTTTTTTTTTTTTT PDIG        TELAPSE       77.37 TCPU     1362.90
 CHARGE NORMALIZATION FACTOR   1.00000000
 TOTAL ATOMIC CHARGES:
   4.1447344   4.0944148   4.1200068   4.1408530   4.1201873   4.1410747
   4.1407616   4.1198830   4.1405710   4.1196626   4.0942843   4.1445686
   0.7866756   0.7870913   0.7872050   0.7867853   0.7805349   0.7867918
   0.7869017   0.7806720   0.7862402   0.7869939   0.7871572   0.7864061
   0.7862311   0.7869847   0.7871180   0.7863677   0.7805416   0.7867894
   0.7869690   0.7807483   0.7866247   0.7870454   0.7871986   0.7867782
   6.0577249   6.0511635   6.2745493   6.2766689   6.2766160   6.2744909
   6.2659729   6.2727025   6.2726434   6.2658517   6.0504327   6.0569862
   6.0436093   6.0481995   6.2657213   6.2617997   6.2618283   6.2658239
   6.2656354   6.2616661   6.2618106   6.2658249   6.0469204   6.0423146
   6.0581432   6.0515870   6.2657428   6.2724214   6.2730389   6.2662224
   6.2741681   6.2762973   6.2768875   6.2747826   6.0498987   6.0565123
   8.7195669   8.7107430   8.7196416   8.7108545   8.7112019   8.6955456
   8.7111138   8.7199596   8.6959319   8.7115761   8.7112713   8.7200811
 TTTTTTTTTTTTTTTTTTTTTTTTTTTTTT MOQGAD      TELAPSE       77.49 TCPU     1363.03
 TTTTTTTTTTTTTTTTTTTTTTTTTTTTTT SHELLXN     TELAPSE      114.63 TCPU     2548.07
 TTTTTTTTTTTTTTTTTTTTTTTTTTTTTT MONMO3      TELAPSE      115.37 TCPU     2571.57
 NUMERICALLY INTEGRATED DENSITY    396.0000932562
 TTTTTTTTTTTTTTTTTTTTTTTTTTTTTT NUMDFT      TELAPSE      117.38 TCPU     2635.89
 CYC   1 ETOT(AU) -2.577628064334E+03 DETOT  1.46E+01 tst  0.00E+00 PX  1.00E+00
 TTTTTTTTTTTTTTTTTTTTTTTTTTTTTT DIIS        TELAPSE      117.60 TCPU     2642.81
 DIIS TEST: 0.22420E+01 AT SCF   CYCLE   1 - MIX   30 %
 TTTTTTTTTTTTTTTTTTTTTTTTTTTTTT FDIK        TELAPSE      119.67 TCPU     2708.95
 INSULATING STATE
 TOP OF VALENCE BANDS -    BAND    198; K    1; EIG -1.8585420E-01 AU
 BOTTOM OF VIRTUAL BANDS - BAND    199; K    9; EIG -8.2736419E-02 AU
 INDIRECT ENERGY BAND GAP:   2.8060 eV
 BOTTOM OF VIRTUAL BANDS - BAND    199; K    1; EIG -8.2466278E-02 AU
 TTTTTTTTTTTTTTTTTTTTTTTTTTTTTT PDIG        TELAPSE      121.49 TCPU     2716.13
 CHARGE NORMALIZATION FACTOR   1.00000000
 TOTAL ATOMIC CHARGES:
   4.6313952   4.6839861   4.6726538   4.6647934   4.6725999   4.6647508
   4.6653125   4.6731735   4.6652778   4.6731729   4.6846290   4.6321590
   0.9179432   0.9219419   0.9221119   0.9179679   0.9189050   0.9239452
   0.9240121   0.9188634   0.9244830   0.9077099   0.9077238   0.9247223
   0.9244757   0.9077018   0.9077136   0.9246743   0.9188865   0.9239237
   0.9240844   0.9189239   0.9178798   0.9218720   0.9221270   0.9179414
   5.8792912   5.8510086   6.1752837   6.0374908   6.0379899   6.1758358
   6.1437125   6.1688823   6.1695151   6.1448978   5.8539887   5.8821717
   5.7610605   5.9779271   6.1169612   6.1442932   6.1451328   6.1175786
   6.1171497   6.1442884   6.1450515   6.1174290   5.9815146   5.7645415
   5.8791480   5.8510280   6.1437519   6.1688807   6.1694313   6.1448231
   6.1755199   6.0376685   6.0377692   6.1756086   5.8541811   5.8824588
   8.3484048   8.3658180   8.3487801   8.3661929   8.4171095   8.3452420
   8.3657631   8.3482419   8.3449033   8.4169548   8.3662593   8.3486275
 TTTTTTTTTTTTTTTTTTTTTTTTTTTTTT MOQGAD      TELAPSE      121.61 TCPU     2716.25
 TTTTTTTTTTTTTTTTTTTTTTTTTTTTTT SHELLXN     TELAPSE      158.94 TCPU     3907.17
 TTTTTTTTTTTTTTTTTTTTTTTTTTTTTT MONMO3      TELAPSE      159.67 TCPU     3930.45
 NUMERICALLY INTEGRATED DENSITY    396.0001017932
 TTTTTTTTTTTTTTTTTTTTTTTTTTTTTT NUMDFT      TELAPSE      161.62 TCPU     3992.76
 CYC   2 ETOT(AU) -2.577988476852E+03 DETOT -3.60E-01 tst  2.98E-03 PX  1.59E-01
 TTTTTTTTTTTTTTTTTTTTTTTTTTTTTT DIIS        TELAPSE      161.79 TCPU     3998.27
 DIIS TEST: 0.10377E+01 AT SCF   CYCLE   2 - DIIS ACTIVE - HISTORY:     2 CYCLES
 TTTTTTTTTTTTTTTTTTTTTTTTTTTTTT FDIK        TELAPSE      163.81 TCPU     4062.69
 INSULATING STATE
 TOP OF VALENCE BANDS -    BAND    198; K    3; EIG -2.1013065E-01 AU
 TOP OF VALENCE BANDS -    BAND    198; K    1; EIG -2.1131961E-01 AU
 BOTTOM OF VIRTUAL BANDS - BAND    199; K   13; EIG -7.5807058E-02 AU
 INDIRECT ENERGY BAND GAP:   3.6551 eV
 BOTTOM OF VIRTUAL BANDS - BAND    199; K    1; EIG -7.4520837E-02 AU
 TTTTTTTTTTTTTTTTTTTTTTTTTTTTTT PDIG        TELAPSE      165.51 TCPU     4069.75
 CHARGE NORMALIZATION FACTOR   1.00000000
 TOTAL ATOMIC CHARGES:
   4.4632950   4.4251113   4.4379977   4.4628223   4.4381071   4.4629120
   4.4619421   4.4371415   4.4617361   4.4369459   4.4242751   4.4620513
   0.9021928   0.8766983   0.8765823   0.9024614   0.8829757   0.8996641
   0.8997235   0.8830021   0.8869770   0.8865077   0.8869471   0.8869440
   0.8870071   0.8865519   0.8868746   0.8868517   0.8829547   0.8996591
   0.8997865   0.8830769   0.9022026   0.8767034   0.8765352   0.9023961
   5.8789806   5.9175172   6.1562745   6.1987569   6.1979352   6.1555312
   6.1838210   6.1668591   6.1658902   6.1821290   5.9153861   5.8765986
   5.9487507   5.8837024   6.1915154   6.1386087   6.1372372   6.1910633
   6.1916348   6.1385934   6.1370841   6.1909504   5.8808676   5.9464017
   5.8793563   5.9179732   6.1838489   6.1667480   6.1661107   6.1821867
   6.1561295   6.1986835   6.1979309   6.1555867   5.9149272   5.8761836
   8.5332458   8.5265746   8.5333319   8.5267042   8.5309823   8.5073105
   8.5264958   8.5334057   8.5075944   8.5307538   8.5266297   8.5336031
 TTTTTTTTTTTTTTTTTTTTTTTTTTTTTT MOQGAD      TELAPSE      165.63 TCPU     4069.88
 TTTTTTTTTTTTTTTTTTTTTTTTTTTTTT SHELLXN     TELAPSE      202.82 TCPU     5256.54
 TTTTTTTTTTTTTTTTTTTTTTTTTTTTTT MONMO3      TELAPSE      203.56 TCPU     5279.88
 NUMERICALLY INTEGRATED DENSITY    396.0001041447
 TTTTTTTTTTTTTTTTTTTTTTTTTTTTTT NUMDFT      TELAPSE      205.57 TCPU     5344.04
 CYC   3 ETOT(AU) -2.578190891619E+03 DETOT -2.02E-01 tst  6.80E-04 PX  6.52E-02
 TTTTTTTTTTTTTTTTTTTTTTTTTTTTTT DIIS        TELAPSE      205.82 TCPU     5351.15
 DIIS TEST: 0.69897E-01 AT SCF   CYCLE   3 - DIIS ACTIVE - HISTORY:     3 CYCLES
 TTTTTTTTTTTTTTTTTTTTTTTTTTTTTT FDIK        TELAPSE      207.91 TCPU     5417.35
 INSULATING STATE
 TOP OF VALENCE BANDS -    BAND    198; K    1; EIG -2.1229191E-01 AU
 BOTTOM OF VIRTUAL BANDS - BAND    199; K    9; EIG -8.6083855E-02 AU
 INDIRECT ENERGY BAND GAP:   3.4343 eV
 BOTTOM OF VIRTUAL BANDS - BAND    199; K    1; EIG -8.5875052E-02 AU
 TTTTTTTTTTTTTTTTTTTTTTTTTTTTTT PDIG        TELAPSE      209.60 TCPU     5424.41
 CHARGE NORMALIZATION FACTOR   1.00000000
 TOTAL ATOMIC CHARGES:
   4.4639450   4.4476651   4.4507172   4.4590329   4.4507995   4.4590673
   4.4600381   4.4515401   4.4598707   4.4513932   4.4483715   4.4650253
   0.8780959   0.8806883   0.8809983   0.8780088   0.8751151   0.8821188
   0.8822162   0.8750678   0.8857809   0.8712733   0.8711045   0.8862325
   0.8858074   0.8712932   0.8710489   0.8861557   0.8751323   0.8821137
   0.8822799   0.8750956   0.8780850   0.8806510   0.8809843   0.8779475
   5.9559322   5.9200921   6.1961420   6.1154906   6.1166386   6.1970997
   6.1742302   6.1820622   6.1835277   6.1771662   5.9250619   5.9607884
   5.8502472   6.0319385   6.1409879   6.1731082   6.1750395   6.1418965
   6.1408729   6.1729334   6.1751372   6.1419802   6.0369571   5.8551010
   5.9558947   5.9201522   6.1740573   6.1819143   6.1837019   6.1773709
   6.1959309   6.1153111   6.1167922   6.1972447   5.9250405   5.9608767
   8.5057736   8.5198605   8.5060416   8.5201578   8.5517395   8.4929812
   8.5202602   8.5058020   8.4928324   8.5522492   8.5206697   8.5061526
 TTTTTTTTTTTTTTTTTTTTTTTTTTTTTT MOQGAD      TELAPSE      209.72 TCPU     5424.53
 TTTTTTTTTTTTTTTTTTTTTTTTTTTTTT SHELLXN     TELAPSE      247.22 TCPU     6620.75
 TTTTTTTTTTTTTTTTTTTTTTTTTTTTTT MONMO3      TELAPSE      247.94 TCPU     6643.93
 NUMERICALLY INTEGRATED DENSITY    396.0001011269
 TTTTTTTTTTTTTTTTTTTTTTTTTTTTTT NUMDFT      TELAPSE      249.87 TCPU     6705.52
 CYC   4 ETOT(AU) -2.578202814884E+03 DETOT -1.19E-02 tst  3.49E-04 PX  3.76E-02
 TTTTTTTTTTTTTTTTTTTTTTTTTTTTTT DIIS        TELAPSE      250.11 TCPU     6712.53
 DIIS TEST: 0.23585E-01 AT SCF   CYCLE   4 - DIIS ACTIVE - HISTORY:     4 CYCLES
 TTTTTTTTTTTTTTTTTTTTTTTTTTTTTT FDIK        TELAPSE      252.03 TCPU     6773.49
 INSULATING STATE
 TOP OF VALENCE BANDS -    BAND    198; K    1; EIG -2.1538303E-01 AU
 BOTTOM OF VIRTUAL BANDS - BAND    199; K    9; EIG -8.6067851E-02 AU
 INDIRECT ENERGY BAND GAP:   3.5188 eV
 BOTTOM OF VIRTUAL BANDS - BAND    199; K    1; EIG -8.5451834E-02 AU
 TTTTTTTTTTTTTTTTTTTTTTTTTTTTTT PDIG        TELAPSE      253.71 TCPU     6780.55
 CHARGE NORMALIZATION FACTOR   1.00000000
 TOTAL ATOMIC CHARGES:
   4.4602394   4.4509901   4.4541959   4.4659131   4.4542803   4.4659832
   4.4650144   4.4534401   4.4648196   4.4532872   4.4503182   4.4590960
   0.8810452   0.8735109   0.8734058   0.8813479   0.8731014   0.8816221
   0.8817373   0.8731958   0.8770204   0.8703822   0.8708475   0.8769802
   0.8770279   0.8704003   0.8708018   0.8769113   0.8730840   0.8816162
   0.8818000   0.8732631   0.8810233   0.8734859   0.8733788   0.8812986
   5.9314051   5.9358959   6.1840192   6.1431405   6.1420753   6.1831335
   6.1856458   6.1889596   6.1874573   6.1829538   5.9324449   5.9279200
   5.9104491   5.9744579   6.1773171   6.1596136   6.1578858   6.1767417
   6.1775084   6.1596226   6.1577189   6.1765468   5.9711826   5.9073593
   5.9316490   5.9362254   6.1856291   6.1888432   6.1876226   6.1830086
   6.1839727   6.1431432   6.1420334   6.1831137   5.9321609   5.9276966
   8.5057555   8.5100931   8.5059045   8.5102731   8.5355252   8.4915149
   8.5098292   8.5058696   8.4916375   8.5349953   8.5100802   8.5061033
 TTTTTTTTTTTTTTTTTTTTTTTTTTTTTT MOQGAD      TELAPSE      253.83 TCPU     6780.67
 TTTTTTTTTTTTTTTTTTTTTTTTTTTTTT SHELLXN     TELAPSE      291.20 TCPU     7972.64
 TTTTTTTTTTTTTTTTTTTTTTTTTTTTTT MONMO3      TELAPSE      291.93 TCPU     7995.93
 NUMERICALLY INTEGRATED DENSITY    396.0001020231
 TTTTTTTTTTTTTTTTTTTTTTTTTTTTTT NUMDFT      TELAPSE      293.95 TCPU     8060.22
 CYC   5 ETOT(AU) -2.578208377493E+03 DETOT -5.56E-03 tst  9.18E-05 PX  1.54E-02
 TTTTTTTTTTTTTTTTTTTTTTTTTTTTTT DIIS        TELAPSE      294.23 TCPU     8067.48
 DIIS TEST: 0.15385E-02 AT SCF   CYCLE   5 - DIIS ACTIVE - HISTORY:     5 CYCLES
 TTTTTTTTTTTTTTTTTTTTTTTTTTTTTT FDIK        TELAPSE      296.28 TCPU     8132.61
 INSULATING STATE
 TOP OF VALENCE BANDS -    BAND    198; K    1; EIG -2.1465865E-01 AU
 BOTTOM OF VIRTUAL BANDS - BAND    199; K    9; EIG -8.5301398E-02 AU
 INDIRECT ENERGY BAND GAP:   3.5200 eV
 BOTTOM OF VIRTUAL BANDS - BAND    199; K    1; EIG -8.4732606E-02 AU
 TTTTTTTTTTTTTTTTTTTTTTTTTTTTTT PDIG        TELAPSE      298.06 TCPU     8139.75
 CHARGE NORMALIZATION FACTOR   1.00000000
 TOTAL ATOMIC CHARGES:
   4.4615289   4.4490131   4.4533106   4.4651041   4.4533880   4.4651509
   4.4662166   4.4541560   4.4660448   4.4540099   4.4497215   4.4625830
   0.8832837   0.8742367   0.8745576   0.8831886   0.8744309   0.8846024
   0.8846597   0.8743611   0.8812642   0.8728504   0.8726934   0.8817183
   0.8812914   0.8728784   0.8726324   0.8816348   0.8744342   0.8845920
   0.8847280   0.8744078   0.8832751   0.8742055   0.8745410   0.8831295
   5.9246975   5.9216440   6.1833845   6.1477654   6.1489686   6.1843912
   6.1802408   6.1809453   6.1828580   6.1839201   5.9274743   5.9302140
   5.8907758   5.9712695   6.1667042   6.1619417   6.1639836   6.1677021
   6.1666158   6.1617674   6.1640410   6.1677716   5.9763944   5.8958664
   5.9247810   5.9218342   6.1801556   6.1808279   6.1830312   6.1840532
   6.1831830   6.1476116   6.1490702   6.1845190   5.9273190   5.9301516
   8.5110002   8.5154389   8.5112271   8.5156936   8.5366294   8.4932950
   8.5158986   8.5109983   8.4932469   8.5373331   8.5162239   8.5113157
 TTTTTTTTTTTTTTTTTTTTTTTTTTTTTT MOQGAD      TELAPSE      298.18 TCPU     8139.87
 TTTTTTTTTTTTTTTTTTTTTTTTTTTTTT SHELLXN     TELAPSE      335.65 TCPU     9334.99
 TTTTTTTTTTTTTTTTTTTTTTTTTTTTTT MONMO3      TELAPSE      336.38 TCPU     9358.32
 NUMERICALLY INTEGRATED DENSITY    396.0001018285
 TTTTTTTTTTTTTTTTTTTTTTTTTTTTTT NUMDFT      TELAPSE      338.30 TCPU     9419.58
 CYC   6 ETOT(AU) -2.578208668859E+03 DETOT -2.91E-04 tst  6.26E-06 PX  4.96E-03
 TTTTTTTTTTTTTTTTTTTTTTTTTTTTTT DIIS        TELAPSE      338.57 TCPU     9426.62
 DIIS TEST: 0.40208E-03 AT SCF   CYCLE   6 - DIIS ACTIVE - HISTORY:     6 CYCLES
 TTTTTTTTTTTTTTTTTTTTTTTTTTTTTT FDIK        TELAPSE      340.61 TCPU     9491.35
 INSULATING STATE
 TOP OF VALENCE BANDS -    BAND    198; K    1; EIG -2.1439297E-01 AU
 BOTTOM OF VIRTUAL BANDS - BAND    199; K    9; EIG -8.5219976E-02 AU
 INDIRECT ENERGY BAND GAP:   3.5150 eV
 BOTTOM OF VIRTUAL BANDS - BAND    199; K    1; EIG -8.4649023E-02 AU
 TTTTTTTTTTTTTTTTTTTTTTTTTTTTTT PDIG        TELAPSE      342.30 TCPU     9498.39
 CHARGE NORMALIZATION FACTOR   1.00000000
 TOTAL ATOMIC CHARGES:
   4.4635447   4.4493834   4.4536124   4.4661880   4.4537000   4.4662483
   4.4651058   4.4527196   4.4649197   4.4525657   4.4485746   4.4622798
   0.8831857   0.8753771   0.8752459   0.8834969   0.8747871   0.8846247
   0.8847541   0.8748908   0.8814407   0.8726572   0.8731365   0.8813829
   0.8814547   0.8726755   0.8730870   0.8813105   0.8747782   0.8846214
   0.8848148   0.8749486   0.8831711   0.8753548   0.8752176   0.8834424
   5.9306797   5.9272838   6.1850059   6.1452769   6.1441743   6.1840768
   6.1829282   6.1840220   6.1822000   6.1797009   5.9232280   5.9267008
   5.8969037   5.9769903   6.1682309   6.1626640   6.1608168   6.1675579
   6.1683647   6.1626619   6.1606921   6.1674155   5.9734710   5.8935773
   5.9308852   5.9275661   6.1828658   6.1838875   6.1823863   6.1798092
   6.1849121   6.1452315   6.1441777   6.1840983   5.9229822   5.9265160
   8.5094342   8.5148503   8.5095923   8.5150440   8.5385032   8.4935189
   8.5145980   8.5096093   8.4936172   8.5378698   8.5148670   8.5098564
 TTTTTTTTTTTTTTTTTTTTTTTTTTTTTT MOQGAD      TELAPSE      342.43 TCPU     9498.51
 TTTTTTTTTTTTTTTTTTTTTTTTTTTTTT SHELLXN     TELAPSE      379.72 TCPU    10688.02
 TTTTTTTTTTTTTTTTTTTTTTTTTTTTTT MONMO3      TELAPSE      380.45 TCPU    10711.32
 NUMERICALLY INTEGRATED DENSITY    396.0001018701
 TTTTTTTTTTTTTTTTTTTTTTTTTTTTTT NUMDFT      TELAPSE      382.46 TCPU    10775.51
 CYC   7 ETOT(AU) -2.578208714775E+03 DETOT -4.59E-05 tst  1.58E-06 PX  1.52E-03
 TTTTTTTTTTTTTTTTTTTTTTTTTTTTTT DIIS        TELAPSE      382.79 TCPU    10782.90
 DIIS TEST: 0.20862E-03 AT SCF   CYCLE   7 - DIIS ACTIVE - HISTORY:     7 CYCLES
 TTTTTTTTTTTTTTTTTTTTTTTTTTTTTT FDIK        TELAPSE      384.84 TCPU    10848.12
 INSULATING STATE
 TOP OF VALENCE BANDS -    BAND    198; K    1; EIG -2.1449272E-01 AU
 BOTTOM OF VIRTUAL BANDS - BAND    199; K    9; EIG -8.5248509E-02 AU
 INDIRECT ENERGY BAND GAP:   3.5169 eV
 BOTTOM OF VIRTUAL BANDS - BAND    199; K    1; EIG -8.4674385E-02 AU
 TTTTTTTTTTTTTTTTTTTTTTTTTTTTTT PDIG        TELAPSE      386.55 TCPU    10855.18
 CHARGE NORMALIZATION FACTOR   1.00000000
 TOTAL ATOMIC CHARGES:
   4.4628054   4.4491645   4.4532718   4.4656382   4.4533556   4.4656949
   4.4657083   4.4532850   4.4655253   4.4531334   4.4491509   4.4627279
   0.8832165   0.8751803   0.8752832   0.8833242   0.8747375   0.8844775
   0.8845628   0.8747486   0.8810490   0.8727266   0.8728797   0.8812514
   0.8810671   0.8727496   0.8728262   0.8811750   0.8747317   0.8844709
   0.8846271   0.8748038   0.8832037   0.8751547   0.8752593   0.8832684
   5.9283951   5.9256886   6.1840772   6.1444583   6.1445041   6.1841196
   6.1814293   6.1832994   6.1834750   6.1818596   5.9268137   5.9293521
   5.8957329   5.9749278   6.1684220   6.1612648   6.1614079   6.1686330
   6.1684795   6.1611939   6.1613474   6.1685639   5.9758235   5.8966914
   5.9285598   5.9259445   6.1813674   6.1831761   6.1836505   6.1819665
   6.1839485   6.1443775   6.1445395   6.1841754   5.9265959   5.9292097
   8.5090259   8.5141877   8.5092113   8.5144036   8.5378217   8.4931907
   8.5142842   8.5090899   8.4932346   8.5379055   8.5145742   8.5093630
 TTTTTTTTTTTTTTTTTTTTTTTTTTTTTT MOQGAD      TELAPSE      386.67 TCPU    10855.30
 TTTTTTTTTTTTTTTTTTTTTTTTTTTTTT SHELLXN     TELAPSE      424.12 TCPU    12049.96
 TTTTTTTTTTTTTTTTTTTTTTTTTTTTTT MONMO3      TELAPSE      424.86 TCPU    12073.41
 NUMERICALLY INTEGRATED DENSITY    396.0001019024
 TTTTTTTTTTTTTTTTTTTTTTTTTTTTTT NUMDFT      TELAPSE      426.86 TCPU    12137.15
 CYC   8 ETOT(AU) -2.578208765328E+03 DETOT -5.06E-05 tst  4.46E-07 PX  8.76E-04
 TTTTTTTTTTTTTTTTTTTTTTTTTTTTTT DIIS        TELAPSE      427.18 TCPU    12144.36
 DIIS TEST: 0.36215E-05 AT SCF   CYCLE   8 - DIIS ACTIVE - HISTORY:     8 CYCLES
 TTTTTTTTTTTTTTTTTTTTTTTTTTTTTT FDIK        TELAPSE      429.18 TCPU    12207.91
 INSULATING STATE
 TOP OF VALENCE BANDS -    BAND    198; K    1; EIG -2.1457267E-01 AU
 BOTTOM OF VIRTUAL BANDS - BAND    199; K    9; EIG -8.5277403E-02 AU
 INDIRECT ENERGY BAND GAP:   3.5183 eV
 BOTTOM OF VIRTUAL BANDS - BAND    199; K    1; EIG -8.4704488E-02 AU
 TTTTTTTTTTTTTTTTTTTTTTTTTTTTTT PDIG        TELAPSE      430.87 TCPU    12214.98
 CHARGE NORMALIZATION FACTOR   1.00000000
 TOTAL ATOMIC CHARGES:
   4.4625924   4.4494579   4.4535607   4.4657057   4.4536428   4.4657603
   4.4656772   4.4535049   4.4654965   4.4533549   4.4493836   4.4624323
   0.8831640   0.8750285   0.8751127   0.8832824   0.8746399   0.8844148
   0.8845096   0.8746604   0.8810363   0.8726734   0.8728512   0.8812228
   0.8810560   0.8726973   0.8727963   0.8811452   0.8746359   0.8844075
   0.8845745   0.8747139   0.8831516   0.8750014   0.8750903   0.8832261
   5.9285258   5.9260508   6.1838506   6.1450298   6.1450171   6.1838366
   6.1818103   6.1831907   6.1831501   6.1818798   5.9267016   5.9290613
   5.8955306   5.9750674   6.1683624   6.1615173   6.1615058   6.1684788
   6.1683934   6.1614273   6.1614681   6.1684355   5.9756458   5.8961917
   5.9286742   5.9262933   6.1817437   6.1830680   6.1833251   6.1819909
   6.1837102   6.1449375   6.1450637   6.1839051   5.9264970   5.9289352
   8.5091944   8.5142655   8.5093877   8.5144888   8.5374661   8.4929715
   8.5143454   8.5092787   8.4929980   8.5374673   8.5146423   8.5095605
 TTTTTTTTTTTTTTTTTTTTTTTTTTTTTT MOQGAD      TELAPSE      430.99 TCPU    12215.10
 TTTTTTTTTTTTTTTTTTTTTTTTTTTTTT SHELLXN     TELAPSE      468.35 TCPU    13406.81
 TTTTTTTTTTTTTTTTTTTTTTTTTTTTTT MONMO3      TELAPSE      469.08 TCPU    13430.02
 NUMERICALLY INTEGRATED DENSITY    396.0001019039
 TTTTTTTTTTTTTTTTTTTTTTTTTTTTTT NUMDFT      TELAPSE      471.08 TCPU    13493.87
 CYC   9 ETOT(AU) -2.578208765791E+03 DETOT -4.63E-07 tst  5.26E-09 PX  1.73E-04
 TTTTTTTTTTTTTTTTTTTTTTTTTTTTTT DIIS        TELAPSE      471.43 TCPU    13501.06
 DIIS TEST: 0.47693E-06 AT SCF   CYCLE   9 - DIIS ACTIVE - HISTORY:     9 CYCLES
 TTTTTTTTTTTTTTTTTTTTTTTTTTTTTT FDIK        TELAPSE      473.51 TCPU    13567.14
 INSULATING STATE
 TOP OF VALENCE BANDS -    BAND    198; K    1; EIG -2.1454525E-01 AU
 BOTTOM OF VIRTUAL BANDS - BAND    199; K    9; EIG -8.5283898E-02 AU
 INDIRECT ENERGY BAND GAP:   3.5174 eV
 BOTTOM OF VIRTUAL BANDS - BAND    199; K    1; EIG -8.4710211E-02 AU
 TTTTTTTTTTTTTTTTTTTTTTTTTTTTTT PDIG        TELAPSE      475.20 TCPU    13574.19
 CHARGE NORMALIZATION FACTOR   1.00000000
 TOTAL ATOMIC CHARGES:
   4.4625833   4.4494688   4.4535389   4.4656965   4.4536221   4.4657529
   4.4656845   4.4534895   4.4655019   4.4533383   4.4494012   4.4624234
   0.8831440   0.8750726   0.8751589   0.8832656   0.8746792   0.8844096
   0.8844994   0.8746978   0.8810131   0.8726628   0.8728389   0.8811975
   0.8810310   0.8726851   0.8727857   0.8811215   0.8746737   0.8844034
   0.8845633   0.8747528   0.8831310   0.8750470   0.8751351   0.8832100
   5.9284596   5.9258592   6.1840490   6.1448691   6.1448396   6.1840268
   6.1816441   6.1832561   6.1832802   6.1818021   5.9266008   5.9290562
   5.8956975   5.9748962   6.1684017   6.1615048   6.1615103   6.1685485
   6.1684623   6.1614392   6.1614469   6.1684759   5.9754759   5.8963542
   5.9286255   5.9261146   6.1815804   6.1831311   6.1834574   6.1819106
   6.1839223   6.1447904   6.1448728   6.1840811   5.9263835   5.9289126
   8.5092121   8.5142765   8.5093954   8.5144912   8.5375643   8.4930872
   8.5143494   8.5092858   8.4931320   8.5375919   8.5146378   8.5095574
 TTTTTTTTTTTTTTTTTTTTTTTTTTTTTT MOQGAD      TELAPSE      475.32 TCPU    13574.31
 TTTTTTTTTTTTTTTTTTTTTTTTTTTTTT SHELLXN     TELAPSE      512.71 TCPU    14767.08
 +++ ENERGIES IN A.U. +++
 ::: EXT EL-POLE                                  -3.3327913579754E+03
 ::: EXT EL-SPHEROPOLE                             3.8101850628841E+01
 ::: BIELET ZONE E-E                               5.2493513437667E+03
 ::: TOTAL E-E                                     1.9546618364202E+03
 ::: TOTAL E-N + N-E                              -7.5486644134542E+03
 ::: TOTAL N-N                                     7.2311832731959E+02
 ::: KINETIC ENERGY                                2.5602432245650E+03
 ::: PSEUDO TOTAL   ENERGY                        -2.3106410251494E+03
 ::: VIRIAL COEFFICIENT                            1.0512437139992E+00
 TTTTTTTTTTTTTTTTTTTTTTTTTTTTTT MONMO3      TELAPSE      513.43 TCPU    14790.37
 NUMERICALLY INTEGRATED DENSITY    396.0001019026
 EXCHANGE ENERGY: -0.252088811057E+03  CORRELATION ENERGY: -0.154789296382E+02
 TTTTTTTTTTTTTTTTTTTTTTTTTTTTTT NUMDFT      TELAPSE      515.45 TCPU    14854.64
 CYC  10 ETOT(AU) -2.578208765845E+03 DETOT -5.34E-08 tst  8.84E-10 PX  1.73E-04

 == SCF ENDED - CONVERGENCE ON ENERGY      E(AU) -2.5782087658446E+03 CYCLES  10


 ENERGY EXPRESSION=HARTREE+FOCK EXCH*0.00000+(HSESOL     EXCH)*1.00000+PBESOL     CORR


 TOTAL ENERGY(DFT)(AU)( 10) -2.5782087658446E+03 DE-5.3E-08 tester 8.8E-10
 TTTTTTTTTTTTTTTTTTTTTTTTTTTTTT EDFT        TELAPSE      515.45 TCPU    14854.65
 
 INFORMATION **** DFTD3 ENERGY **** CALCULATE DFTD3 ENERGY

           DFT-D V3(BJ)
 DF                                         hsesol3c  
 parameters
 s6       :    1.0000
 s8       :    0.0000
 a1       :    0.5196
 a2       :    4.9385
 k1 k3    :   16.0000   -4.0000
 Cutoff   :   50.2022
 CN-Cutoff:   21.1671
 ABC-Cutoff:   21.1671
 
 Edisp /kcal,au:   -70.1204 -0.11174397

 E6    /kcal :   -75.7239
 E8    /kcal :     0.0000
 E6(ABC) "   :   5.603457
 
 INFORMATION **** DFTD3 ENERGY **** NORMAL TERMINATION OF DFTD3 MODULE

 GCP ENERGY CALCULATION
  level        hsesol3c            basis:hsesol3c
  Nbf            948
  Atoms           84

  Parameters: 
  sigma     1.0000
  eta       1.4281
  alpha     0.2936
  beta      1.9467

  dmp_scal      4.0000
  dmp_exp       6.0000
 cutoffs: 
   distance [bohr] 60.0
   noise    [a.u.] 2.2E-16
 SR-damping   T
 ** gCP correction **
  Egcp:        0.1761168713 / (a.u.) ||     110.5150 / (kcal/mol)
 INFORMATION **** GCP **** NORMAL TERMINATION OF GCP MODULE

 *******************************************************************************

 DFT-D3-GCP DISPERSION AND COUNTERPOISE CORRECTION

 D3 DISPERSION ENERGY (AU)      -1.1174397033443E-01
 GCP ENERGY (AU)                 1.7611687127653E-01
 TOTAL ENERGY + DISP + GCP (AU) -2.5781443929436E+03

 *******************************************************************************

 EIGENVECTORS IN FORTRAN UNIT  8
 TTTTTTTTTTTTTTTTTTTTTTTTTTTTTT END         TELAPSE      519.89 TCPU    14864.95
 EEEEEEEEEE TERMINATION  DATE 19 02 2026 TIME 19:34:49.9
