 Default number of threads is:           32

         
 *******************************************************************************
 *                                                                             *
 *                               CRYSTAL23                                     *
 *                      public : 1.0.1 - October 2022                          *
 *                       HTTP://WWW.CRYSTAL.UNITO.IT                           *
 *                                                                             *
 *                              MAIN AUTHORS                                   *
 *                                                                             *
 *  R. DOVESI(1,11), V.R. SAUNDERS(2), C. ROETTI(1,11), R. ORLANDO(1,11),      *
 *  C.M. ZICOVICH-WILSON(1,3), F. PASCALE(4), B. CIVALLERI(1,11),              *
 *  K. DOLL(5), N.M. HARRISON(6), I.J. BUSH(7), Ph. D'ARCO(8),                 *
 *  M. LLUNELL(9), M. CAUSA'(10), Y. NOEL(8), L. MASCHIO(1,11), A. ERBA(1,11)  *
 *  M. RE'RAT(14), S. CASASSA(1,11), B.G. SEARLE(2), J.K. DESMARAIS(1)         *
 *                                                                             *
 *        CONTRIBUTIONS TO THE CODE HAVE ALSO BEEN GIVEN BY                    *
 *                                                                             *
 *  M. FERRABONE(1,11), M. DE LA PIERRE(1,11), M. FERRERO(1,11),               *
 *  J. BAIMA(1,11), E. ALBANESE(1,11), M.F. PEINTINGER(12), R. BAST(13),       *
 *  B. KIRTMAN(15), V. LACIVITA(1,11), R. DEMICHELIS(1,16)                     *
 *  G. BRANDEBURG(17), S. SALUSTRO(1,11), G. SANSONE(1,11)                     *
 *  M.T. RUGGIERO(18), L.E. DAGA(1), L. DONA'(1), A. COSSARD(1)                *
 *                                                                             *
 * (1) THEORETICAL CHEMISTRY GROUP - UNIVERSITA' DI TORINO - TORINO (ITALY)    *
 * (2) SCIENTIFIC COMPUTING DEPARTMENT - STFC DARESBURY (UK)                   *
 * (3) UNIVERSIDAD AUTONOMA DEL ESTADO DE MORELOS - CUERNAVACA (MEXICO)        *
 * (4) UNIVERSITE' DE LORRAINE - NANCY (FRANCE)                                *
 * (5) UNIVERSITAET STUTTGART- STUTTGART (GERMANY)                             *
 * (6) IMPERIAL COLLEGE - LONDON (UK)                                          *
 * (7) SCIENTIFIC COMPUTING DEPARTMENT - STFC RAL (UK)                         *
 * (8) UPMC - SORBONNE UNIVERSITES - PARIS (FRANCE)                            *
 * (9) UNIVERSIDAD DE BARCELONA - BARCELONA (SPAIN)                            *
 *(10) UNIVERSITA' DI NAPOLI "FEDERICO II" - NAPOLI (ITALY)                    *
 *(11) NIS - NANOSTRUCTURED INTERFACES AND SURFACES - TORINO (ITALY)           *
 *(12) MPI FUER CHEMISCHE ENERGIEKONVERSION - MUELHEIM AN DER RUHR (GERMANY)   *
 *(13) UNIVERSITY OF TROMSO - TROMSO (NORWAY)                                  *
 *(14) UNIVERSITE' DE PAU ET DES PAYS DE L'ADOUR - PAU (FRANCE)                *
 *(15) UNIVERSITY OF CALIFORNIA SANTA BARBARA - SANTA BARBARA (USA)            *
 *(16) CURTIN UNIVERSITY - PERTH (AUSTRALIA)                                   *
 *(17) UNIVERSITY COLLEGE LONDON - LONDON (UK)                                 *
 *(18) UNIVERSITY OF VERMONT - BURLINGTON (USA)                                *
 *                                                                             *
 *******************************************************************************
 EEEEEEEEEE STARTING  DATE 02 12 2025 TIME 08:01:57.4
 COF-5_z37_inc_L050                                                              

 CRYSTAL CALCULATION
 (INPUT ACCORDING TO THE INTERNATIONAL TABLES FOR X-RAY CRYSTALLOGRAPHY)
 CRYSTAL FAMILY                       :  TRICLINIC   
 CRYSTAL CLASS  (GROTH - 1921)        :  TRICLINIC PEDIAL                     

 SPACE GROUP (NONCENTROSYMMETRIC)     :  P 1             

 LATTICE PARAMETERS  (ANGSTROMS AND DEGREES) - CONVENTIONAL CELL
        A           B           C        ALPHA        BETA       GAMMA
    15.02070    15.04439     6.22013    45.91376    89.99957   120.05310


 NUMBER OF IRREDUCIBLE ATOMS IN THE CONVENTIONAL CELL:   42

 INPUT COORDINATES

 ATOM AT. N.              COORDINATES
   1   5     5.191968900000E-01  3.584811000000E-02  5.006299100000E-01
   2   5     6.779743600000E-01  1.948709900000E-01  5.006399000000E-01
   3   5     5.190180500000E-01  1.951074200000E-01  4.992100000000E-01
   4   5     1.314469500000E-01  4.202909800000E-01  5.054246900000E-01
   5   5     2.892427400000E-01  4.182375000000E-01  5.094683900000E-01
   6   5     2.906641900000E-01  5.798665300000E-01  5.035030300000E-01
   7   1     8.072511000000E-01  1.158248400000E-01  5.045281300000E-01
   8   1     3.931180000000E-03  5.021663500000E-01  4.929383400000E-01
   9   1     8.095755300000E-01  4.049199700000E-01  4.928000500000E-01
  10   1     1.773570000000E-03  2.132042400000E-01  5.040967200000E-01
  11   1     4.972895200000E-01  7.096241400000E-01  5.042187800000E-01
  12   1     3.130081000000E-01 -9.126433000000E-02  4.945704900000E-01
  13   1     2.144161300000E-01  7.145220700000E-01  4.958772700000E-01
  14   1     5.957495600000E-01 -9.597118000000E-02  5.023575400000E-01
  15   1     4.981281200000E-01  4.994343400000E-01  4.977746600000E-01
  16   1     3.092226300000E-01  1.146408500000E-01  5.060574100000E-01
  17   1     2.119288500000E-01  2.107024200000E-01  5.056925400000E-01
  18   1     5.957397600000E-01  4.032167000000E-01  4.987080700000E-01
  19   6     7.973150200000E-01  2.543960600000E-01  5.003899200000E-01
  20   6     8.514991000000E-01  2.005414900000E-01  5.021559300000E-01
  21   6    -4.025263000000E-02  4.173323700000E-01  4.957633300000E-01
  22   6     8.527039600000E-01  3.636780000000E-01  4.961004800000E-01
  23   6    -4.134629000000E-02  2.543535900000E-01  5.015122500000E-01
  24   6     1.357548000000E-02  3.628639600000E-01  4.993290900000E-01
  25   6     3.499415300000E-01  6.998691300000E-01  5.018713100000E-01
  26   6     4.577396400000E-01  7.542013700000E-01  5.022614700000E-01
  27   6     3.522963300000E-01 -1.362276800000E-01  4.969853500000E-01
  28   6     2.979625700000E-01  7.563875800000E-01  4.981039700000E-01
  29   6     5.120997700000E-01 -1.383802100000E-01  5.008241400000E-01
  30   6     4.597331000000E-01 -8.276333000000E-02  4.991999600000E-01
  31   6     3.499081400000E-01  3.615452600000E-01  4.999711300000E-01
  32   6     4.578635300000E-01  4.150119900000E-01  4.994196800000E-01
  33   6     3.501547900000E-01  1.992457300000E-01  5.039430000000E-01
  34   6     2.963704100000E-01  2.525247500000E-01  5.033350800000E-01
  35   6     5.114964600000E-01  3.615871700000E-01  5.003579900000E-01
  36   6     4.585026800000E-01  2.533870500000E-01  5.015997800000E-01
  37   8     4.662785400000E-01  8.905906000000E-02  4.995998400000E-01
  38   8     6.248621500000E-01  8.820824000000E-02  5.025897400000E-01
  39   8     6.253410200000E-01  2.486873800000E-01  4.980702500000E-01
  40   8     1.848033300000E-01  5.271848700000E-01  5.027364100000E-01
  41   8     1.831215100000E-01  3.652483100000E-01  5.102238000000E-01
  42   8     3.431358100000E-01  5.259462000000E-01  5.052080200000E-01

 *******************************************************************************

 << INFORMATION >>: FROM NOW ON, ALL COORDINATES REFER TO THE PRIMITIVE CELL

 *******************************************************************************

 LATTICE PARAMETERS  (ANGSTROMS AND DEGREES) - PRIMITIVE CELL
       A          B          C        ALPHA      BETA     GAMMA        VOLUME
   15.02070   15.04439    6.22013    45.91376  89.99957 120.05310    723.767889

 COORDINATES OF THE EQUIVALENT ATOMS (FRACTIONAL UNITS)

 N. ATOM EQUIV AT. N.          X                  Y                  Z

   1   1   1    5 B    -4.80803110000E-01  3.58481100000E-02 -4.99370090000E-01

   2   2   1    5 B    -3.22025640000E-01  1.94870990000E-01 -4.99360100000E-01

   3   3   1    5 B    -4.80981950000E-01  1.95107420000E-01  4.99210000000E-01

   4   4   1    5 B     1.31446950000E-01  4.20290980000E-01 -4.94575310000E-01

   5   5   1    5 B     2.89242740000E-01  4.18237500000E-01 -4.90531610000E-01

   6   6   1    5 B     2.90664190000E-01 -4.20133470000E-01 -4.96496970000E-01

   7   7   1    1 H    -1.92748900000E-01  1.15824840000E-01 -4.95471870000E-01

   8   8   1    1 H     3.93118000000E-03 -4.97833650000E-01  4.92938340000E-01

   9   9   1    1 H    -1.90424470000E-01  4.04919970000E-01  4.92800050000E-01

  10  10   1    1 H     1.77357000000E-03  2.13204240000E-01 -4.95903280000E-01

  11  11   1    1 H     4.97289520000E-01 -2.90375860000E-01 -4.95781220000E-01

  12  12   1    1 H     3.13008100000E-01 -9.12643300000E-02  4.94570490000E-01

  13  13   1    1 H     2.14416130000E-01 -2.85477930000E-01  4.95877270000E-01

  14  14   1    1 H    -4.04250440000E-01 -9.59711800000E-02 -4.97642460000E-01

  15  15   1    1 H     4.98128120000E-01  4.99434340000E-01  4.97774660000E-01

  16  16   1    1 H     3.09222630000E-01  1.14640850000E-01 -4.93942590000E-01

  17  17   1    1 H     2.11928850000E-01  2.10702420000E-01 -4.94307460000E-01

  18  18   1    1 H    -4.04260240000E-01  4.03216700000E-01  4.98708070000E-01

  19  19   1    6 C    -2.02684980000E-01  2.54396060000E-01 -4.99610080000E-01

  20  20   1    6 C    -1.48500900000E-01  2.00541490000E-01 -4.97844070000E-01

  21  21   1    6 C    -4.02526300000E-02  4.17332370000E-01  4.95763330000E-01

  22  22   1    6 C    -1.47296040000E-01  3.63678000000E-01  4.96100480000E-01

  23  23   1    6 C    -4.13462900000E-02  2.54353590000E-01 -4.98487750000E-01

  24  24   1    6 C     1.35754800000E-02  3.62863960000E-01  4.99329090000E-01

  25  25   1    6 C     3.49941530000E-01 -3.00130870000E-01 -4.98128690000E-01

  26  26   1    6 C     4.57739640000E-01 -2.45798630000E-01 -4.97738530000E-01

  27  27   1    6 C     3.52296330000E-01 -1.36227680000E-01  4.96985350000E-01

  28  28   1    6 C     2.97962570000E-01 -2.43612420000E-01  4.98103970000E-01

  29  29   1    6 C    -4.87900230000E-01 -1.38380210000E-01 -4.99175860000E-01

  30  30   1    6 C     4.59733100000E-01 -8.27633300000E-02  4.99199960000E-01

  31  31   1    6 C     3.49908140000E-01  3.61545260000E-01  4.99971130000E-01

  32  32   1    6 C     4.57863530000E-01  4.15011990000E-01  4.99419680000E-01

  33  33   1    6 C     3.50154790000E-01  1.99245730000E-01 -4.96057000000E-01

  34  34   1    6 C     2.96370410000E-01  2.52524750000E-01 -4.96664920000E-01

  35  35   1    6 C    -4.88503540000E-01  3.61587170000E-01 -4.99642010000E-01

  36  36   1    6 C     4.58502680000E-01  2.53387050000E-01 -4.98400220000E-01

  37  37   1    8 O     4.66278540000E-01  8.90590600000E-02  4.99599840000E-01

  38  38   1    8 O    -3.75137850000E-01  8.82082400000E-02 -4.97410260000E-01

  39  39   1    8 O    -3.74658980000E-01  2.48687380000E-01  4.98070250000E-01

  40  40   1    8 O     1.84803330000E-01 -4.72815130000E-01 -4.97263590000E-01

  41  41   1    8 O     1.83121510000E-01  3.65248310000E-01 -4.89776200000E-01

  42  42   1    8 O     3.43135810000E-01 -4.74053800000E-01 -4.94791980000E-01

 NUMBER OF SYMMETRY OPERATORS         :    1
 *******************************************************************************
 * GEOMETRY EDITING - INPUT COORDINATES ARE GIVEN IN ANGSTROM         
 *******************************************************************************

 GCALCO - MAX INDICES DIRECT LATTICE VECTOR     9    12    27
 NO.OF VECTORS CREATED 6999 STARS 3500 RMAX   202.64520 BOHR

 GEOMETRY FOR WAVE FUNCTION - DIMENSIONALITY OF THE SYSTEM    3
 (NON PERIODIC DIRECTION: LATTICE PARAMETER FORMALLY SET TO 500)
 *******************************************************************************
 LATTICE PARAMETERS (ANGSTROMS AND DEGREES) - BOHR = 0.5291772083 ANGSTROM
 PRIMITIVE CELL - CENTRING CODE 1/0 VOLUME=   723.767889 - DENSITY  0.895 g/cm^3
         A              B              C           ALPHA      BETA       GAMMA 
    15.02070100    15.04438700     6.22012900    45.913755  89.999575 120.053104
 *******************************************************************************
 ATOMS IN THE ASYMMETRIC UNIT   42 - ATOMS IN THE UNIT CELL:   42
     ATOM                 X/A                 Y/B                 Z/C    
 *******************************************************************************
      1 T   5 B    -4.808031100000E-01  3.584811000000E-02 -4.993700900000E-01
      2 T   5 B    -3.220256400000E-01  1.948709900000E-01 -4.993601000000E-01
      3 T   5 B    -4.809819500000E-01  1.951074200000E-01  4.992100000000E-01
      4 T   5 B     1.314469500000E-01  4.202909800000E-01 -4.945753100000E-01
      5 T   5 B     2.892427400000E-01  4.182375000000E-01 -4.905316100000E-01
      6 T   5 B     2.906641900000E-01 -4.201334700000E-01 -4.964969700000E-01
      7 T   1 H    -1.927489000000E-01  1.158248400000E-01 -4.954718700000E-01
      8 T   1 H     3.931180000000E-03 -4.978336500000E-01  4.929383400000E-01
      9 T   1 H    -1.904244700000E-01  4.049199700000E-01  4.928000500000E-01
     10 T   1 H     1.773570000000E-03  2.132042400000E-01 -4.959032800000E-01
     11 T   1 H     4.972895200000E-01 -2.903758600000E-01 -4.957812200000E-01
     12 T   1 H     3.130081000000E-01 -9.126433000000E-02  4.945704900000E-01
     13 T   1 H     2.144161300000E-01 -2.854779300000E-01  4.958772700000E-01
     14 T   1 H    -4.042504400000E-01 -9.597118000000E-02 -4.976424600000E-01
     15 T   1 H     4.981281200000E-01  4.994343400000E-01  4.977746600000E-01
     16 T   1 H     3.092226300000E-01  1.146408500000E-01 -4.939425900000E-01
     17 T   1 H     2.119288500000E-01  2.107024200000E-01 -4.943074600000E-01
     18 T   1 H    -4.042602400000E-01  4.032167000000E-01  4.987080700000E-01
     19 T   6 C    -2.026849800000E-01  2.543960600000E-01 -4.996100800000E-01
     20 T   6 C    -1.485009000000E-01  2.005414900000E-01 -4.978440700000E-01
     21 T   6 C    -4.025263000000E-02  4.173323700000E-01  4.957633300000E-01
     22 T   6 C    -1.472960400000E-01  3.636780000000E-01  4.961004800000E-01
     23 T   6 C    -4.134629000000E-02  2.543535900000E-01 -4.984877500000E-01
     24 T   6 C     1.357548000000E-02  3.628639600000E-01  4.993290900000E-01
     25 T   6 C     3.499415300000E-01 -3.001308700000E-01 -4.981286900000E-01
     26 T   6 C     4.577396400000E-01 -2.457986300000E-01 -4.977385300000E-01
     27 T   6 C     3.522963300000E-01 -1.362276800000E-01  4.969853500000E-01
     28 T   6 C     2.979625700000E-01 -2.436124200000E-01  4.981039700000E-01
     29 T   6 C    -4.879002300000E-01 -1.383802100000E-01 -4.991758600000E-01
     30 T   6 C     4.597331000000E-01 -8.276333000000E-02  4.991999600000E-01
     31 T   6 C     3.499081400000E-01  3.615452600000E-01  4.999711300000E-01
     32 T   6 C     4.578635300000E-01  4.150119900000E-01  4.994196800000E-01
     33 T   6 C     3.501547900000E-01  1.992457300000E-01 -4.960570000000E-01
     34 T   6 C     2.963704100000E-01  2.525247500000E-01 -4.966649200000E-01
     35 T   6 C    -4.885035400000E-01  3.615871700000E-01 -4.996420100000E-01
     36 T   6 C     4.585026800000E-01  2.533870500000E-01 -4.984002200000E-01
     37 T   8 O     4.662785400000E-01  8.905906000000E-02  4.995998400000E-01
     38 T   8 O    -3.751378500000E-01  8.820824000000E-02 -4.974102600000E-01
     39 T   8 O    -3.746589800000E-01  2.486873800000E-01  4.980702500000E-01
     40 T   8 O     1.848033300000E-01 -4.728151300000E-01 -4.972635900000E-01
     41 T   8 O     1.831215100000E-01  3.652483100000E-01 -4.897762000000E-01
     42 T   8 O     3.431358100000E-01 -4.740538000000E-01 -4.947919800000E-01

 T = ATOM BELONGING TO THE ASYMMETRIC UNIT

 ****    1 SYMMOPS - TRANSLATORS IN FRACTIONAL UNITS
 **** MATRICES AND TRANSLATORS IN THE CRYSTALLOGRAPHIC REFERENCE FRAME
   V INV                    ROTATION MATRICES                   TRANSLATORS
   1   1  1.00 -0.00  0.00  0.00  1.00  0.00  0.00  0.00  1.00  0.00  0.00  0.00

 DIRECT LATTICE VECTORS CARTESIAN COMPONENTS (ANGSTROM)
          X                    Y                    Z
   0.130013421718E+02  -0.752240388864E+01   0.000000000000E+00
   0.000000000000E+00   0.150443870000E+02   0.000000000000E+00
   0.250394222581E+01   0.432759488881E+01   0.370029736438E+01


 CARTESIAN COORDINATES - PRIMITIVE CELL
 *******************************************************************************
 *      ATOM          X(ANGSTROM)         Y(ANGSTROM)         Z(ANGSTROM)
 *******************************************************************************
    1     5 B    -7.501479605023E+00  1.995036575288E+00 -1.847817827875E+00
    2     5 B    -5.437134374001E+00  3.193093298778E+00 -1.847780861905E+00
    3     5 B    -2.499475686033E+00 -2.003001442656E+00  5.547522811647E+00
    4     5 B     4.705987718317E-01  3.193901524214E+00 -1.830075716079E+00
    5     5 B     2.532281022066E+00  1.993504007542E+00 -1.815112823626E+00
    6     5 B     2.535824863099E+00  4.388605302843E+00 -1.837186429512E+00
    7     1 H    -3.746627339129E+00  1.048247259906E+00 -1.833393254684E+00
    8     1 H    -1.218542485247E+00  5.330855535933E+00 -1.876278924074E+00
    9     1 H     1.262111387545E+00 -1.059930627283E+00  5.523804090556E+00
   10     1 H    -1.218654372276E+00  1.048117086866E+00 -1.834989599970E+00
   11     1 H    -5.273376269526E+00  1.595119071483E+00  1.865759422703E+00
   12     1 H     5.307901344190E+00 -1.587288523754E+00  1.830057880645E+00
   13     1 H     4.029345508452E+00 -3.761809249852E+00  1.834893355235E+00
   14     1 H    -3.997924036668E+00  3.771107431531E+00  1.858872281237E+00
   15     1 H     5.218790897802E+00  1.593134770707E+00 -1.858383101925E+00
   16     1 H     2.783505511657E+00 -2.738979628806E+00 -1.827734463930E+00
   17     1 H     1.517642173291E+00 -5.634880944332E-01 -1.829084591430E+00
   18     1 H    -1.503247286041E+00  5.485712646054E-01  5.545665521391E+00
   19     6 C    -3.886171553814E+00  3.189801031033E+00 -1.848705862240E+00
   20     6 C    -3.177283802461E+00  1.979640079989E+00 -1.842171100091E+00
   21     6 C    -1.785917705761E+00  4.399174186507E+00 -1.865825621023E+00
   22     6 C    -3.176781502283E+00  4.398659892240E+00 -1.864578065766E+00
   23     6 C    -1.785741790100E+00  1.980364296444E+00 -1.844552907499E+00
   24     6 C    -1.077151572160E+00  3.190244727961E+00 -1.852631248693E+00
   25     6 C     7.984818850487E-01  1.413406453387E+00 -5.543521643104E+00
   26     6 C     2.200978936728E+00  1.421589231094E+00 -5.542077935084E+00
   27     6 C     5.824747735666E+00 -2.548825960307E+00  1.838993580739E+00
   28     6 C     5.121136890280E+00 -3.750802125059E+00  1.843132807376E+00
   29     6 C    -5.089323124064E+00  3.755701143494E+00  1.853198245258E+00
   30     6 C    -5.774226972015E+00  4.979317458924E+00  1.847188296285E+00
   31     6 C     3.297232055110E+00  6.431540743851E-01 -1.850255509773E+00
   32     6 C     4.699416220846E+00  6.330577543923E-01 -1.852296038755E+00
   33     6 C     3.310384169165E+00 -1.783209621461E+00 -1.835558409680E+00
   34     6 C     2.609592844730E+00 -5.797024278251E-01 -1.837807894454E+00
   35     6 C     5.399065769481E+00 -5.700738487242E-01 -1.848824012735E+00
   36     6 C     4.713184873142E+00 -1.793863746648E+00 -1.844229020471E+00
   37     8 O     4.809273755467E+00 -4.333225712763E+00 -1.851629393181E+00
   38     8 O    -6.122782103001E+00  1.996387221950E+00 -1.840565874092E+00
   39     8 O    -1.119988240496E+00 -2.001660488226E+00  5.543305397726E+00
   40     8 O     1.157572027452E+00  4.389052546126E+00 -1.840023151477E+00
   41     8 O     1.154454102143E+00  1.997869988040E+00 -1.812317581994E+00
   42     8 O     3.222295545482E+00  3.190072778833E+00 -1.830877459509E+00

 *******************************************************************************
 STARTING BASIS SET HANDLING 
 *******************************************************************************

 Loading internal basis set: SOLDEF2MSVP         

 Please cite in your publication:
 L. Dona', J. G. Brandenburg and B. Civalleri, J. Chem. Phys., 151, 121101 (2019
 )                                                                              
                                                                                
                    

 *******************************************************************************
 LOCAL ATOMIC FUNCTIONS BASIS SET
 *******************************************************************************
   ATOM   X(AU)   Y(AU)   Z(AU)  N. TYPE  EXPONENT  S COEF   P COEF   D/F/G COEF
 *******************************************************************************
   1 B  -14.176   3.770  -3.492
                                  1 S  
                                         2.410E+03 1.755E-03 0.000E+00 0.000E+00
                                         3.619E+02 1.344E-02 0.000E+00 0.000E+00
                                         8.231E+01 6.637E-02 0.000E+00 0.000E+00
                                         2.311E+01 2.303E-01 0.000E+00 0.000E+00
                                         7.252E+00 5.150E-01 0.000E+00 0.000E+00
                                  2 S  
                                         2.367E+00 1.000E+00 0.000E+00 0.000E+00
                                  3 S  
                                         5.533E-01 1.000E+00 0.000E+00 0.000E+00
                                  4 S  
                                         1.716E-01 1.000E+00 0.000E+00 0.000E+00
                           5-     7 P  
                                         6.002E+00 0.000E+00-3.555E-02 0.000E+00
                                         1.240E+00 0.000E+00-1.983E-01 0.000E+00
                                         3.367E-01 0.000E+00-5.048E-01 0.000E+00
                           8-    10 P  
                                         1.256E-01 0.000E+00 1.000E+00 0.000E+00
                          11-    15 D  
                                         8.880E-01 0.000E+00 0.000E+00 1.000E+00
   2 B  -10.275   6.034  -3.492
   3 B   -4.723  -3.785  10.483
   4 B    0.889   6.036  -3.458
   5 B    4.785   3.767  -3.430
   6 B    4.792   8.293  -3.472
   7 H   -7.080   1.981  -3.465
                                 91 S  
                                         1.874E+01 1.968E-02 0.000E+00 0.000E+00
                                         2.826E+00 1.380E-01 0.000E+00 0.000E+00
                                         6.401E-01 4.783E-01 0.000E+00 0.000E+00
                                 92 S  
                                         1.756E-01 1.000E+00 0.000E+00 0.000E+00
   8 H   -2.303  10.074  -3.546
   9 H    2.385  -2.003  10.438
  10 H   -2.303   1.981  -3.468
  11 H   -9.965   3.014   3.526
  12 H   10.030  -3.000   3.458
  13 H    7.614  -7.109   3.467
  14 H   -7.555   7.126   3.513
  15 H    9.862   3.011  -3.512
  16 H    5.260  -5.176  -3.454
  17 H    2.868  -1.065  -3.456
  18 H   -2.841   1.037  10.480
  19 C   -7.344   6.028  -3.494
                                115 S  
                                         3.624E+03 1.634E-03 0.000E+00 0.000E+00
                                         5.440E+02 1.252E-02 0.000E+00 0.000E+00
                                         1.237E+02 6.211E-02 0.000E+00 0.000E+00
                                         3.476E+01 2.182E-01 0.000E+00 0.000E+00
                                         1.093E+01 4.980E-01 0.000E+00 0.000E+00
                                116 S  
                                         3.574E+00 1.000E+00 0.000E+00 0.000E+00
                                117 S  
                                         7.742E-01 1.000E+00 0.000E+00 0.000E+00
                                118 S  
                                         2.330E-01 1.000E+00 0.000E+00 0.000E+00
                         119-   121 P  
                                         9.443E+00 0.000E+00 3.790E-02 0.000E+00
                                         2.002E+00 0.000E+00 2.082E-01 0.000E+00
                                         5.463E-01 0.000E+00 5.047E-01 0.000E+00
                         122-   124 P  
                                         1.820E-01 0.000E+00 1.000E+00 0.000E+00
                         125-   129 D  
                                         8.880E-01 0.000E+00 0.000E+00 1.000E+00
  20 C   -6.004   3.741  -3.481
  21 C   -3.375   8.313  -3.526
  22 C   -6.003   8.312  -3.524
  23 C   -3.375   3.742  -3.486
  24 C   -2.036   6.029  -3.501
  25 C    1.509   2.671 -10.476
  26 C    4.159   2.686 -10.473
  27 C   11.007  -4.817   3.475
  28 C    9.678  -7.088   3.483
  29 C   -9.617   7.097   3.502
  30 C  -10.912   9.410   3.491
  31 C    6.231   1.215  -3.496
  32 C    8.881   1.196  -3.500
  33 C    6.256  -3.370  -3.469
  34 C    4.931  -1.095  -3.473
  35 C   10.203  -1.077  -3.494
  36 C    8.907  -3.390  -3.485
  37 O    9.088  -8.189  -3.499
                                385 S  
                                         6.773E+03 1.727E-03 0.000E+00 0.000E+00
                                         1.017E+03 1.325E-02 0.000E+00 0.000E+00
                                         2.313E+02 6.603E-02 0.000E+00 0.000E+00
                                         6.501E+01 2.353E-01 0.000E+00 0.000E+00
                                         2.050E+01 5.498E-01 0.000E+00 0.000E+00
                                386 S  
                                         6.716E+00 1.000E+00 0.000E+00 0.000E+00
                                387 S  
                                         1.147E+00 1.000E+00 0.000E+00 0.000E+00
                                388 S  
                                         3.342E-01 1.000E+00 0.000E+00 0.000E+00
                         389-   391 P  
                                         1.769E+01 0.000E+00 4.359E-02 0.000E+00
                                         3.854E+00 0.000E+00 2.318E-01 0.000E+00
                                         1.047E+00 0.000E+00 5.146E-01 0.000E+00
                         392-   394 P  
                                         2.759E-01 0.000E+00 1.000E+00 0.000E+00
                         395-   399 D  
                                         8.000E-01 0.000E+00 0.000E+00 1.000E+00
  38 O  -11.570   3.773  -3.478
  39 O   -2.116  -3.783  10.475
  40 O    2.187   8.294  -3.477
  41 O    2.182   3.775  -3.425
  42 O    6.089   6.028  -3.460

 *******************************************************************************
 FINISHED BASIS SET HANDLING 
 *******************************************************************************

 INFORMATION **** SET_MPP **** PCRYSTAL CALCULATION
 INFORMATION **** READM2 **** NEW DEFAULT: FOCK/KS MATRIX MIXING SET TO 30 %
 INFORMATION **** READM2 **** NEW DEFAULT: FULL DIRECT SCF MODE
 INFORMATION **** READM2 **** NEW DEFAULT: COULOMB BIPOLAR BUFFER SET TO 32 Mb
 INFORMATION **** READM2 **** NEW DEFAULT: EXCHANGE BIPOLAR BUFFER SET TO 32 Mb

 *******************************************************************************
 NEW DEFAULT: DFT INTEGRATION GRID INCREASED TO XLGRID
 NEW DEFAULT: DIIS ACCELERATOR ACTIVE
 USE KEYWORD NODIIS TO TURN IT OFF
 *******************************************************************************

 WARNING **** RDDFTP **** HSEsol-HJS ACTIVE
 RANGE SEPARATION - OMEGA:   0.110000000000000     
 WARNING **** RDDFTP **** HSEsol-3c has to be combined with sol-def2-mSVP basis set
 *******************************************************************************
 N. OF ATOMS PER CELL        42  COULOMB OVERLAP TOL         (T1) 10**   -6
 NUMBER OF SHELLS           234  COULOMB PENETRATION TOL     (T2) 10**   -6
 NUMBER OF AO               474  EXCHANGE OVERLAP TOL        (T3) 10**   -6
 N. OF ELECTRONS PER CELL   198  EXCHANGE PSEUDO OVP (F(G))  (T4) 10**   -6
 CORE ELECTRONS PER CELL     60  EXCHANGE PSEUDO OVP (P(G))  (T5) 10**  -12
 N. OF SYMMETRY OPERATORS     1  POLE ORDER IN MONO ZONE                  4
 *******************************************************************************
 TYPE OF CALCULATION :  RESTRICTED CLOSED SHELL
 KOHN-SHAM HAMILTONIAN

 (EXCHANGE)[CORRELATION] FUNCTIONAL:(HSEsol GGA)[PBEsol]

 RANGE-SEPARATED HYBRID FUNCTIONAL 
 OMEGA (SHORT-RANGE)[LONG-RANGE]:(    0.1100)[    0.0000]

 HYBRID EXCHANGE - PERCENTAGE OF FOCK EXCHANGE    25.0000

 CAPPA:IS1  2;IS2  2;IS3  8; K PTS MONK NET  20; SYMMOPS:K SPACE   2;G SPACE   1

 *******************************************************************************
 MAX NUMBER OF SCF CYCLES      50  CONVERGENCE ON DELTAP        10**-16
 WEIGHT OF F(I) IN F(I+1)      30% CONVERGENCE ON ENERGY        10**- 6
 SHRINK. FACT.(MONKH.)    2  2  8  NUMBER OF K POINTS IN THE IBZ     20
 SHRINKING FACTOR(GILAT NET)    8  NUMBER OF K POINTS(GILAT NET)   1028
 *******************************************************************************
 *** K POINTS COORDINATES (OBLIQUE COORDINATES IN UNITS OF IS =  2)
   1-R(  0  0  0)   2-R(  1  0  0)   3-R(  0  1  0)   4-R(  1  1  0)
   5-C(  0  0  1)   6-C(  1  0  1)   7-C(  0  1  1)   8-C(  1  1  1)
   9-C(  0  0  2)  10-C(  1  0  2)  11-C(  0  1  2)  12-C(  1  1  2)
  13-C(  0  0  3)  14-C(  1  0  3)  15-C(  0  1  3)  16-C(  1  1  3)
  17-R(  0  0  4)  18-R(  1  0  4)  19-R(  0  1  4)  20-R(  1  1  4)

 DIRECT LATTICE VECTORS COMPON. (A.U.)     RECIP. LATTICE VECTORS COMPON. (A.U.) 
        X            Y            Z              X            Y            Z
   24.5689761  -14.2152832    0.0000000      0.2557366    0.0000000   -0.1730535
    0.0000000   28.4297713    0.0000000      0.1278719    0.2210072   -0.3450030
    4.7317651    8.1779692    6.9925486      0.0000000    0.0000000    0.8985544

 DISK SPACE FOR EIGENVECTORS (FTN 10)     7189632 REALS

 SYMMETRY ADAPTION OF THE BLOCH FUNCTIONS DISABLED
 TTTTTTTTTTTTTTTTTTTTTTTTTTTTTT gordsh1     TELAPSE        0.04 TCPU        0.04

 MATRIX SIZE: P(G)  327660, F(G)   65864, P(G) IRR  165021, F(G) IRR   66488
 MAX G-VECTOR INDEX FOR 1- AND 2-ELECTRON INTEGRALS  45

 TTTTTTTTTTTTTTTTTTTTTTTTTTTTTT INPUT       TELAPSE        0.38 TCPU        0.38

 NEIGHBORS OF THE NON-EQUIVALENT ATOMS

 N = NUMBER OF NEIGHBORS AT DISTANCE R
    ATOM  N     R/ANG      R/AU   NEIGHBORS (ATOM LABELS AND CELL INDICES)
   1 B    1     1.3787     2.6054   38 O    0 0 0
   1 B    1     1.3795     2.6068   37 O   -1 0 0
   1 B    1     1.5517     2.9323   30 C    0 0-1
   1 B    1     2.3868     4.5104    2 B    0 0 0
   1 B    1     2.3912     4.5187    3 B    0 1-2
   1 B    1     2.5629     4.8432   27 C   -1 0-1

   2 B    1     1.3792     2.6064   38 O    0 0 0
   2 B    1     1.3798     2.6075   39 O    0 1-2
   2 B    1     1.5510     2.9309   19 C    0 0 0
   2 B    1     2.3868     4.5104    1 B    0 0 0
   2 B    1     2.3894     4.5154    3 B    0 1-2
   2 B    1     2.5618     4.8411   22 C    0 0 0

   3 B    1     1.3790     2.6060   37 O   -1-1 2
   3 B    1     1.3795     2.6069   39 O    0 0 0
   3 B    1     1.5529     2.9346   36 C   -1-1 2
   3 B    1     2.3894     4.5154    2 B    0-1 2
   3 B    1     2.3912     4.5187    1 B    0-1 2
   3 B    1     2.5679     4.8526   35 C   -1-1 2

   4 B    1     1.3778     2.6038   41 O    0 0 0
   4 B    1     1.3786     2.6051   40 O    0 0 0
   4 B    1     1.5479     2.9251   24 C    0 0 0
   4 B    1     2.3857     4.5084    5 B    0 0 0
   4 B    1     2.3859     4.5087    6 B    0 0 0
   4 B    1     2.5585     4.8348   21 C    0 0 0

   5 B    1     1.3778     2.6037   41 O    0 0 0
   5 B    1     1.3814     2.6104   42 O    0 0 0
   5 B    1     1.5524     2.9335   31 C    0 0 0
   5 B    1     2.3857     4.5084    4 B    0 0 0
   5 B    1     2.3952     4.5263    6 B    0 0 0
   5 B    1     2.5590     4.8359   32 C    0 0 0

   6 B    1     1.3783     2.6045   40 O    0 0 0
   6 B    1     1.3812     2.6101   42 O    0 0 0
   6 B    1     1.5546     2.9377   25 C    0 0 1
   6 B    1     2.3859     4.5087    4 B    0 0 0
   6 B    1     2.3952     4.5263    5 B    0 0 0
   6 B    1     2.5605     4.8386   26 C    0 0 1

   7 H    1     1.0917     2.0629   20 C    0 0 0
   7 H    1     2.1461     4.0556   19 C    0 0 0
   7 H    1     2.1712     4.1029   23 C    0 0 0
   7 H    1     2.5280     4.7772   10 H    0 0 0
   7 H    1     2.5583     4.8346   38 O    0 0 0
   7 H    1     2.7310     5.1609    2 B    0 0 0

   8 H    1     1.0909     2.0615   21 C    0 0 0
   8 H    1     2.1454     4.0542   24 C    0 0 0
   8 H    1     2.1688     4.0985   22 C    0 0 0
   8 H    1     2.5272     4.7758    9 H    0 1-2
   8 H    1     2.5562     4.8305   40 O    0 0 0
   8 H    1     2.7243     5.1482    4 B    0 0 0

   9 H    1     1.0908     2.0614   22 C    0-1 2
   9 H    1     2.1443     4.0520   19 C    0-1 2
   9 H    1     2.1694     4.0995   21 C    0-1 2
   9 H    1     2.5272     4.7758    8 H    0-1 2
   9 H    1     2.5616     4.8407   39 O    0 0 0
   9 H    1     2.7248     5.1492    2 B    0-1 2

  10 H    1     1.0912     2.0621   23 C    0 0 0
  10 H    1     2.1469     4.0570   24 C    0 0 0
  10 H    1     2.1689     4.0986   20 C    0 0 0
  10 H    1     2.5280     4.7772    7 H    0 0 0
  10 H    1     2.5562     4.8305   41 O    0 0 0
  10 H    1     2.7309     5.1607    4 B    0 0 0

  11 H    1     1.0911     2.0619   26 C   -1-1 2
  11 H    1     2.1443     4.0521   25 C   -1-1 2
  11 H    1     2.1684     4.0978   29 C    0 0 0
  11 H    1     2.5223     4.7664   14 H    0 0 0
  11 H    1     2.5622     4.8419   42 O   -1-1 1
  11 H    1     2.7179     5.1361    6 B   -1-1 1

  12 H    1     1.0917     2.0630   27 C    0 0 0
  12 H    1     2.1441     4.0518   30 C    1 0 0
  12 H    1     2.1716     4.1037   28 C    0 0 0
  12 H    1     2.5226     4.7669   13 H    0 0 0
  12 H    1     2.5541     4.8265   37 O    0 0 1
  12 H    1     2.7237     5.1471    1 B    1 0 1

  13 H    1     1.0919     2.0634   28 C    0 0 0
  13 H    1     2.1522     4.0671   25 C    0-1 2
  13 H    1     2.1668     4.0946   27 C    0 0 0
  13 H    1     2.5226     4.7669   12 H    0 0 0
  13 H    1     2.5923     4.8987   40 O    0-1 1
  13 H    1     2.7583     5.2124    6 B    0-1 1

  14 H    1     1.0915     2.0627   29 C    0 0 0
  14 H    1     2.1483     4.0597   30 C    0 0 0
  14 H    1     2.1679     4.0968   26 C   -1-1 2
  14 H    1     2.5223     4.7664   11 H    0 0 0
  14 H    1     2.5809     4.8771   38 O    0 0 1
  14 H    1     2.7404     5.1785    1 B    0 0 1

  15 H    1     1.0916     2.0628   32 C    0 0 0
  15 H    1     2.1436     4.0508   31 C    0 0 0
  15 H    1     2.1707     4.1021   35 C    0 0 0
  15 H    1     2.5217     4.7654   18 H    1 1-2
  15 H    1     2.5567     4.8316   42 O    0 0 0
  15 H    1     2.7165     5.1335    5 B    0 0 0

  16 H    1     1.0914     2.0625   33 C    0 0 0
  16 H    1     2.1488     4.0606   36 C    0 0 0
  16 H    1     2.1663     4.0937   34 C    0 0 0
  16 H    1     2.5170     4.7564   17 H    0 0 0
  16 H    1     2.5780     4.8717   37 O    0 0 0
  16 H    1     2.7395     5.1770    3 B    1 1-2

  17 H    1     1.0921     2.0638   34 C    0 0 0
  17 H    1     2.1502     4.0633   31 C    0 0 0
  17 H    1     2.1683     4.0976   33 C    0 0 0
  17 H    1     2.5170     4.7564   16 H    0 0 0
  17 H    1     2.5870     4.8888   41 O    0 0 0
  17 H    1     2.7510     5.1986    5 B    0 0 0

  18 H    1     1.0913     2.0622   35 C   -1-1 2
  18 H    1     2.1495     4.0619   36 C   -1-1 2
  18 H    1     2.1656     4.0923   32 C   -1-1 2
  18 H    1     2.5217     4.7654   15 H   -1-1 2
  18 H    1     2.5789     4.8734   39 O    0 0 0
  18 H    1     2.7392     5.1763    3 B    0 0 0

  19 C    1     1.4017     2.6489   22 C    0 0 0
  19 C    1     1.4025     2.6504   20 C    0 0 0
  19 C    1     1.5510     2.9309    2 B    0 0 0
  19 C    1     2.1443     4.0520    9 H    0 1-2
  19 C    1     2.1461     4.0556    7 H    0 0 0
  19 C    1     2.4236     4.5800   21 C    0 0 0

  20 C    1     1.0917     2.0629    7 H    0 0 0
  20 C    1     1.3915     2.6296   23 C    0 0 0
  20 C    1     1.4025     2.6504   19 C    0 0 0
  20 C    1     2.1689     4.0986   10 H    0 0 0
  20 C    1     2.4191     4.5715   22 C    0 0 0
  20 C    1     2.4241     4.5809   24 C    0 0 0

  21 C    1     1.0909     2.0615    8 H    0 0 0
  21 C    1     1.3909     2.6284   22 C    0 0 0
  21 C    1     1.4014     2.6483   24 C    0 0 0
  21 C    1     2.1694     4.0995    9 H    0 1-2
  21 C    1     2.4189     4.5711   23 C    0 0 0
  21 C    1     2.4236     4.5800   19 C    0 0 0

  22 C    1     1.0908     2.0614    9 H    0 1-2
  22 C    1     1.3909     2.6284   21 C    0 0 0
  22 C    1     1.4017     2.6489   19 C    0 0 0
  22 C    1     2.1688     4.0985    8 H    0 0 0
  22 C    1     2.4191     4.5715   20 C    0 0 0
  22 C    1     2.4226     4.5780   24 C    0 0 0

  23 C    1     1.0912     2.0621   10 H    0 0 0
  23 C    1     1.3915     2.6296   20 C    0 0 0
  23 C    1     1.4021     2.6496   24 C    0 0 0
  23 C    1     2.1712     4.1029    7 H    0 0 0
  23 C    1     2.4189     4.5711   21 C    0 0 0
  23 C    1     2.4237     4.5802   19 C    0 0 0

  24 C    1     1.4014     2.6483   21 C    0 0 0
  24 C    1     1.4021     2.6496   23 C    0 0 0
  24 C    1     1.5479     2.9251    4 B    0 0 0
  24 C    1     2.1454     4.0542    8 H    0 0 0
  24 C    1     2.1469     4.0570   10 H    0 0 0
  24 C    1     2.4226     4.5780   22 C    0 0 0

  25 C    1     1.4025     2.6504   26 C    0 0 0
  25 C    1     1.4037     2.6526   28 C    0 1-2
  25 C    1     1.5546     2.9377    6 B    0 0-1
  25 C    1     2.1443     4.0521   11 H    1 1-2
  25 C    1     2.1522     4.0671   13 H    0 1-2
  25 C    1     2.4271     4.5866   27 C    0 1-2

  26 C    1     1.0911     2.0619   11 H    1 1-2
  26 C    1     1.3916     2.6298   29 C    1 1-2
  26 C    1     1.4025     2.6504   25 C    0 0 0
  26 C    1     2.1679     4.0968   14 H    1 1-2
  26 C    1     2.4165     4.5665   28 C    0 1-2
  26 C    1     2.4246     4.5819   30 C    1 1-2

  27 C    1     1.0917     2.0630   12 H    0 0 0
  27 C    1     1.3928     2.6320   28 C    0 0 0
  27 C    1     1.4024     2.6502   30 C    1 0 0
  27 C    1     2.1668     4.0946   13 H    0 0 0
  27 C    1     2.4166     4.5668   29 C    1 0 0
  27 C    1     2.4271     4.5866   25 C    0-1 2

  28 C    1     1.0919     2.0634   13 H    0 0 0
  28 C    1     1.3928     2.6320   27 C    0 0 0
  28 C    1     1.4037     2.6526   25 C    0-1 2
  28 C    1     2.1716     4.1037   12 H    0 0 0
  28 C    1     2.4165     4.5665   26 C    0-1 2
  28 C    1     2.4277     4.5877   30 C    1 0 0

  29 C    1     1.0915     2.0627   14 H    0 0 0
  29 C    1     1.3916     2.6298   26 C   -1-1 2
  29 C    1     1.4023     2.6499   30 C    0 0 0
  29 C    1     2.1684     4.0978   11 H    0 0 0
  29 C    1     2.4166     4.5668   27 C   -1 0 0
  29 C    1     2.4281     4.5884   25 C   -1-1 2

  30 C    1     1.4023     2.6499   29 C    0 0 0
  30 C    1     1.4024     2.6502   27 C   -1 0 0
  30 C    1     1.5517     2.9323    1 B    0 0 1
  30 C    1     2.1441     4.0518   12 H   -1 0 0
  30 C    1     2.1483     4.0597   14 H    0 0 0
  30 C    1     2.4246     4.5819   26 C   -1-1 2

  31 C    1     1.4022     2.6498   32 C    0 0 0
  31 C    1     1.4030     2.6513   34 C    0 0 0
  31 C    1     1.5524     2.9335    5 B    0 0 0
  31 C    1     2.1436     4.0508   15 H    0 0 0
  31 C    1     2.1502     4.0633   17 H    0 0 0
  31 C    1     2.4264     4.5853   33 C    0 0 0

  32 C    1     1.0916     2.0628   15 H    0 0 0
  32 C    1     1.3918     2.6301   35 C    0 0 0
  32 C    1     1.4022     2.6498   31 C    0 0 0
  32 C    1     2.1656     4.0923   18 H    1 1-2
  32 C    1     2.4163     4.5661   34 C    0 0 0
  32 C    1     2.4270     4.5863   36 C    0 0 0

  33 C    1     1.0914     2.0625   16 H    0 0 0
  33 C    1     1.3927     2.6318   34 C    0 0 0
  33 C    1     1.4029     2.6510   36 C    0 0 0
  33 C    1     2.1683     4.0976   17 H    0 0 0
  33 C    1     2.4155     4.5646   35 C    0 0 0
  33 C    1     2.4264     4.5853   31 C    0 0 0

  34 C    1     1.0921     2.0638   17 H    0 0 0
  34 C    1     1.3927     2.6318   33 C    0 0 0
  34 C    1     1.4030     2.6513   31 C    0 0 0
  34 C    1     2.1663     4.0937   16 H    0 0 0
  34 C    1     2.4163     4.5661   32 C    0 0 0
  34 C    1     2.4289     4.5899   36 C    0 0 0

  35 C    1     1.0913     2.0622   18 H    1 1-2
  35 C    1     1.3918     2.6301   32 C    0 0 0
  35 C    1     1.4029     2.6511   36 C    0 0 0
  35 C    1     2.1707     4.1021   15 H    0 0 0
  35 C    1     2.4155     4.5646   33 C    0 0 0
  35 C    1     2.4269     4.5861   31 C    0 0 0

  36 C    1     1.4029     2.6510   33 C    0 0 0
  36 C    1     1.4029     2.6511   35 C    0 0 0
  36 C    1     1.5529     2.9346    3 B    1 1-2
  36 C    1     2.1488     4.0606   16 H    0 0 0
  36 C    1     2.1495     4.0619   18 H    1 1-2
  36 C    1     2.4270     4.5863   32 C    0 0 0

  37 O    1     1.3790     2.6060    3 B    1 1-2
  37 O    1     1.3795     2.6068    1 B    1 0 0
  37 O    1     2.3868     4.5105   39 O    1 1-2
  37 O    1     2.3885     4.5136   38 O    1 0 0
  37 O    1     2.5389     4.7979   30 C    1 0-1
  37 O    1     2.5412     4.8022   36 C    0 0 0

  38 O    1     1.3787     2.6054    1 B    0 0 0
  38 O    1     1.3792     2.6064    2 B    0 0 0
  38 O    1     2.3885     4.5136   37 O   -1 0 0
  38 O    1     2.3912     4.5187   39 O    0 1-2
  38 O    1     2.5351     4.7906   19 C    0 0 0
  38 O    1     2.5405     4.8008   30 C    0 0-1

  39 O    1     1.3795     2.6069    3 B    0 0 0
  39 O    1     1.3798     2.6075    2 B    0-1 2
  39 O    1     2.3868     4.5105   37 O   -1-1 2
  39 O    1     2.3912     4.5187   38 O    0-1 2
  39 O    1     2.5416     4.8030   19 C    0-1 2
  39 O    1     2.5427     4.8050   36 C   -1-1 2

  40 O    1     1.3783     2.6045    6 B    0 0 0
  40 O    1     1.3786     2.6051    4 B    0 0 0
  40 O    1     2.3876     4.5119   42 O    0 0 0
  40 O    1     2.3913     4.5190   41 O    0 0 0
  40 O    1     2.5354     4.7912   25 C    0 0 1
  40 O    1     2.5360     4.7923   24 C    0 0 0

  41 O    1     1.3778     2.6037    5 B    0 0 0
  41 O    1     1.3778     2.6038    4 B    0 0 0
  41 O    1     2.3870     4.5107   42 O    0 0 0
  41 O    1     2.3913     4.5190   40 O    0 0 0
  41 O    1     2.5305     4.7820   24 C    0 0 0
  41 O    1     2.5354     4.7912   31 C    0 0 0

  42 O    1     1.3812     2.6101    6 B    0 0 0
  42 O    1     1.3814     2.6104    5 B    0 0 0
  42 O    1     2.3870     4.5107   41 O    0 0 0
  42 O    1     2.3876     4.5119   40 O    0 0 0
  42 O    1     2.5481     4.8152   31 C    0 0 0
  42 O    1     2.5522     4.8230   25 C    0 0 1


 SYMMETRY ALLOWED INTERNAL DEGREE(S) OF FREEDOM: 123
 TTTTTTTTTTTTTTTTTTTTTTTTTTTTTT SYMM        TELAPSE        0.38 TCPU        0.38
 TTTTTTTTTTTTTTTTTTTTTTTTTTTTTT INT_SCREEN  TELAPSE        0.42 TCPU        0.42

 DFT PARAMETERS

     ATOM       ELECTRONS   NET CHARGE   R(ANGSTROM)
   1   5  B       5.0000      0.0000     0.89000000
   7   1  H       1.0000      0.0000     1.11000000
  19   6  C       6.0000      0.0000     0.77000000
  37   8  O       8.0000      0.0000     0.74000000

 SIZE OF GRID=    1299871
 TTTTTTTTTTTTTTTTTTTTTTTTTTTTTT MAKE_GRID2  TELAPSE        9.39 TCPU        9.38
 BECKE WEIGHT FUNCTION
 RADSAFE =     2.00
 TOLERANCES - DENSITY:10**- 6; POTENTIAL:10**- 9; GRID WGT:10**-14

 RADIAL INTEGRATION  - INTERVALS (POINTS,UPPER LIMIT):            1( 75,  4.0*R)

 ANGULAR INTEGRATION - INTERVALS (ACCURACY LEVEL [N. POINTS] UPPER LIMIT):
  1(  4[  86]   0.2)  2(  8[ 194]   0.5)  3( 12[ 350]   0.9)  4( 16[ 974]   3.5)
  5( 12[ 350]9999.0)
 TTTTTTTTTTTTTTTTTTTTTTTTTTTTTT INT_CALC    TELAPSE        9.47 TCPU        9.46
 EEEEEEEEEE INT_CALC TERMINATION  DATE 02 12 2025 TIME 08:02:06.9

 *******************************************************************************
 COF-5_z37_inc_L050                                                              
 CRYSTAL - SCF - TYPE OF CALCULATION :  RESTRICTED CLOSED SHELL
 *******************************************************************************

 CAPPA:IS1  2;IS2  2;IS3  8; K PTS MONK NET  20; SYMMOPS:K SPACE   2;G SPACE   1

 TTTTTTTTTTTTTTTTTTTTTTTTTTTTTT SDIK        TELAPSE       10.07 TCPU       17.76

 AAAAAAAAAAAAAAAAAAAAAAAAAAAAAAAAAAAAAAAAAAAAAAAAAAAAAAAAAAAAAAAAAAAAAAAAAAAAAAA
         ATOMIC WAVEFUNCTION(S)


 NUCLEAR CHARGE  5.0  SYMMETRY SPECIES            S    P
 N. ELECTRONS    5.0  NUMBER OF PRIMITIVE GTOS    8    4
                      NUMBER OF CONTRACTED GTOS   4    2
                      NUMBER OF CLOSED SHELLS     2    0
                      OPEN SHELL OCCUPATION       0    1

  ZNUC  SCFIT    TOTAL HF ENERGY   KINETIC ENERGY   VIRIAL THEOREM ACCURACY
   5.0    11    -2.451164084E+01  2.462155050E+01 -1.995536038E+00  1.5E-06

 NUCLEAR CHARGE  1.0  SYMMETRY SPECIES            S
 N. ELECTRONS    1.0  NUMBER OF PRIMITIVE GTOS    4
                      NUMBER OF CONTRACTED GTOS   2
                      NUMBER OF CLOSED SHELLS     0
                      OPEN SHELL OCCUPATION       1

  ZNUC  SCFIT    TOTAL HF ENERGY   KINETIC ENERGY   VIRIAL THEOREM ACCURACY
   1.0     1    -4.977266687E-01  5.190767460E-01 -1.958869132E+00  0.0E+00

 NUCLEAR CHARGE  6.0  SYMMETRY SPECIES            S    P
 N. ELECTRONS    6.0  NUMBER OF PRIMITIVE GTOS    8    4
                      NUMBER OF CONTRACTED GTOS   4    2
                      NUMBER OF CLOSED SHELLS     2    0
                      OPEN SHELL OCCUPATION       0    2

  ZNUC  SCFIT    TOTAL HF ENERGY   KINETIC ENERGY   VIRIAL THEOREM ACCURACY
   6.0     9    -3.766704647E+01  3.775180683E+01 -1.997754800E+00  1.1E-06

 NUCLEAR CHARGE  8.0  SYMMETRY SPECIES            S    P
 N. ELECTRONS    8.0  NUMBER OF PRIMITIVE GTOS    8    4
                      NUMBER OF CONTRACTED GTOS   4    2
                      NUMBER OF CLOSED SHELLS     2    0
                      OPEN SHELL OCCUPATION       0    4

  ZNUC  SCFIT    TOTAL HF ENERGY   KINETIC ENERGY   VIRIAL THEOREM ACCURACY
   8.0    12    -7.477373220E+01  7.477365593E+01 -2.000001020E+00  3.8E-06

 AAAAAAAAAAAAAAAAAAAAAAAAAAAAAAAAAAAAAAAAAAAAAAAAAAAAAAAAAAAAAAAAAAAAAAAAAAAAAAA

 CHARGE NORMALIZATION FACTOR   1.00000000
 TOTAL ATOMIC CHARGES:
   5.0000000   5.0000000   5.0000000   5.0000000   5.0000000   5.0000000
   1.0000000   1.0000000   1.0000000   1.0000000   1.0000000   1.0000000
   1.0000000   1.0000000   1.0000000   1.0000000   1.0000000   1.0000000
   6.0000000   6.0000000   6.0000000   6.0000000   6.0000000   6.0000000
   6.0000000   6.0000000   6.0000000   6.0000000   6.0000000   6.0000000
   6.0000000   6.0000000   6.0000000   6.0000000   6.0000000   6.0000000
   8.0000000   8.0000000   8.0000000   8.0000000   8.0000000   8.0000000
 TTTTTTTTTTTTTTTTTTTTTTTTTTTTTT MOQGAD      TELAPSE       10.12 TCPU       19.25
 TTTTTTTTTTTTTTTTTTTTTTTTTTTTTT SHELLXN     TELAPSE       17.57 TCPU      257.27
 TTTTTTTTTTTTTTTTTTTTTTTTTTTTTT MONMO3      TELAPSE       17.71 TCPU      261.99
 NUMERICALLY INTEGRATED DENSITY    197.9999642870
 TTTTTTTTTTTTTTTTTTTTTTTTTTTTTT NUMDFT      TELAPSE       18.33 TCPU      281.70
 CYC   0 ETOT(AU) -1.295952541822E+03 DETOT -1.30E+03 tst  0.00E+00 PX  1.00E+00
 TTTTTTTTTTTTTTTTTTTTTTTTTTTTTT DIIS        TELAPSE       18.37 TCPU      282.86
 TTTTTTTTTTTTTTTTTTTTTTTTTTTTTT FDIK        TELAPSE       18.86 TCPU      298.61
 INSULATING STATE
 TOP OF VALENCE BANDS -    BAND     99; K    1; EIG -3.1283252E-01 AU
 BOTTOM OF VIRTUAL BANDS - BAND    100; K   17; EIG -1.6658832E-01 AU
 INDIRECT ENERGY BAND GAP:   3.9795 eV
 BOTTOM OF VIRTUAL BANDS - BAND    100; K    1; EIG -1.5631002E-01 AU
 TTTTTTTTTTTTTTTTTTTTTTTTTTTTTT PDIG        TELAPSE       19.18 TCPU      304.78
 CHARGE NORMALIZATION FACTOR   1.00000000
 TOTAL ATOMIC CHARGES:
   4.1481955   4.1642327   4.1651977   4.1671187   4.1640899   4.1468063
   0.7852860   0.7852649   0.7848776   0.7848773   0.7856355   0.7855345
   0.7865050   0.7860708   0.7850346   0.7855873   0.7850631   0.7852877
   6.0446816   6.2663628   6.2663835   6.2660760   6.2648275   6.0469372
   6.0436465   6.2639170   6.2620687   6.2645217   6.2643923   6.0470885
   6.0438201   6.2664155   6.2673147   6.2656669   6.2672381   6.0414242
   8.6954218   8.6946367   8.6936015   8.6941596   8.6921754   8.6965572
 TTTTTTTTTTTTTTTTTTTTTTTTTTTTTT MOQGAD      TELAPSE       19.23 TCPU      304.83
 TTTTTTTTTTTTTTTTTTTTTTTTTTTTTT SHELLXN     TELAPSE       26.98 TCPU      552.06
 TTTTTTTTTTTTTTTTTTTTTTTTTTTTTT MONMO3      TELAPSE       27.13 TCPU      556.75
 NUMERICALLY INTEGRATED DENSITY    197.9999779750
 TTTTTTTTTTTTTTTTTTTTTTTTTTTTTT NUMDFT      TELAPSE       27.75 TCPU      576.60
 CYC   1 ETOT(AU) -1.288823255774E+03 DETOT  7.13E+00 tst  0.00E+00 PX  1.00E+00
 TTTTTTTTTTTTTTTTTTTTTTTTTTTTTT DIIS        TELAPSE       27.80 TCPU      578.16
 DIIS TEST: 0.10940E+01 AT SCF   CYCLE   1 - MIX   30 %
 TTTTTTTTTTTTTTTTTTTTTTTTTTTTTT FDIK        TELAPSE       28.29 TCPU      594.06
 INSULATING STATE
 TOP OF VALENCE BANDS -    BAND     99; K   17; EIG -2.2806828E-01 AU
 TOP OF VALENCE BANDS -    BAND     99; K    1; EIG -2.2830619E-01 AU
 BOTTOM OF VIRTUAL BANDS - BAND    100; K   17; EIG -9.3323978E-02 AU
 DIRECT ENERGY BAND GAP:   3.6666 eV
 BOTTOM OF VIRTUAL BANDS - BAND    100; K    1; EIG -7.8107983E-02 AU
 TTTTTTTTTTTTTTTTTTTTTTTTTTTTTT PDIG        TELAPSE       28.62 TCPU      600.24
 CHARGE NORMALIZATION FACTOR   1.00000000
 TOTAL ATOMIC CHARGES:
   4.6832586   4.6982837   4.6989052   4.6997456   4.6992592   4.6827070
   0.9065698   0.9069828   0.9152383   0.9154133   0.8976816   0.8973422
   0.8982744   0.8985772   0.9061278   0.9066708   0.9152051   0.9151324
   5.8701021   6.1418221   6.1401544   6.1382740   6.1398794   5.8660115
   5.8964938   6.1389237   6.1406023   6.1449472   6.1421227   5.8905595
   5.8708119   6.1371910   6.1398411   6.1402649   6.1372253   5.8725456
   8.3346558   8.3333266   8.3379319   8.3319815   8.3349135   8.3380431
 TTTTTTTTTTTTTTTTTTTTTTTTTTTTTT MOQGAD      TELAPSE       28.66 TCPU      600.29
 TTTTTTTTTTTTTTTTTTTTTTTTTTTTTT SHELLXN     TELAPSE       36.41 TCPU      847.16
 TTTTTTTTTTTTTTTTTTTTTTTTTTTTTT MONMO3      TELAPSE       36.55 TCPU      851.85
 NUMERICALLY INTEGRATED DENSITY    197.9999764945
 TTTTTTTTTTTTTTTTTTTTTTTTTTTTTT NUMDFT      TELAPSE       37.18 TCPU      871.77
 CYC   2 ETOT(AU) -1.289016910486E+03 DETOT -1.94E-01 tst  3.57E-03 PX  1.59E-01
 TTTTTTTTTTTTTTTTTTTTTTTTTTTTTT DIIS        TELAPSE       37.23 TCPU      873.40
 DIIS TEST: 0.44820E+00 AT SCF   CYCLE   2 - DIIS ACTIVE - HISTORY:     2 CYCLES
 TTTTTTTTTTTTTTTTTTTTTTTTTTTTTT FDIK        TELAPSE       37.71 TCPU      888.96
 INSULATING STATE
 TOP OF VALENCE BANDS -    BAND     99; K    1; EIG -2.3903262E-01 AU
 BOTTOM OF VIRTUAL BANDS - BAND    100; K   17; EIG -8.9078426E-02 AU
 INDIRECT ENERGY BAND GAP:   4.0805 eV
 BOTTOM OF VIRTUAL BANDS - BAND    100; K    1; EIG -7.4265818E-02 AU
 TTTTTTTTTTTTTTTTTTTTTTTTTTTTTT PDIG        TELAPSE       38.03 TCPU      895.14
 CHARGE NORMALIZATION FACTOR   1.00000000
 TOTAL ATOMIC CHARGES:
   4.4777445   4.4986408   4.4990860   4.5006245   4.4987802   4.4769199
   0.8867174   0.8865268   0.8927129   0.8930067   0.8796174   0.8793985
   0.8810346   0.8805235   0.8854724   0.8866786   0.8931344   0.8925351
   5.8944379   6.1626919   6.1632416   6.1564707   6.1561883   5.8958902
   5.9008703   6.1636664   6.1642585   6.1667699   6.1667965   5.9023672
   5.8949679   6.1625939   6.1628364   6.1571025   6.1579748   5.8945864
   8.5154152   8.5148212   8.5138107   8.5141215   8.5115220   8.5174440
 TTTTTTTTTTTTTTTTTTTTTTTTTTTTTT MOQGAD      TELAPSE       38.08 TCPU      895.19
 TTTTTTTTTTTTTTTTTTTTTTTTTTTTTT SHELLXN     TELAPSE       45.83 TCPU     1142.30
 TTTTTTTTTTTTTTTTTTTTTTTTTTTTTT MONMO3      TELAPSE       45.98 TCPU     1147.02
 NUMERICALLY INTEGRATED DENSITY    197.9999761711
 TTTTTTTTTTTTTTTTTTTTTTTTTTTTTT NUMDFT      TELAPSE       46.60 TCPU     1167.03
 CYC   3 ETOT(AU) -1.289109495756E+03 DETOT -9.26E-02 tst  6.58E-04 PX  6.47E-02
 TTTTTTTTTTTTTTTTTTTTTTTTTTTTTT DIIS        TELAPSE       46.67 TCPU     1169.01
 DIIS TEST: 0.14479E-01 AT SCF   CYCLE   3 - DIIS ACTIVE - HISTORY:     3 CYCLES
 TTTTTTTTTTTTTTTTTTTTTTTTTTTTTT FDIK        TELAPSE       47.17 TCPU     1185.19
 INSULATING STATE
 TOP OF VALENCE BANDS -    BAND     99; K   17; EIG -2.4962795E-01 AU
 TOP OF VALENCE BANDS -    BAND     99; K    1; EIG -2.5038500E-01 AU
 BOTTOM OF VIRTUAL BANDS - BAND    100; K   17; EIG -9.7559558E-02 AU
 DIRECT ENERGY BAND GAP:   4.1380 eV
 BOTTOM OF VIRTUAL BANDS - BAND    100; K    1; EIG -8.1977524E-02 AU
 TTTTTTTTTTTTTTTTTTTTTTTTTTTTTT PDIG        TELAPSE       47.50 TCPU     1191.37
 CHARGE NORMALIZATION FACTOR   1.00000000
 TOTAL ATOMIC CHARGES:
   4.4840624   4.5029082   4.5033997   4.5048408   4.5030018   4.4831776
   0.8692603   0.8695547   0.8750305   0.8753303   0.8609895   0.8609064
   0.8622162   0.8621700   0.8686552   0.8694337   0.8754142   0.8752607
   5.9400937   6.1712222   6.1697277   6.1683692   6.1684391   5.9380320
   5.9576710   6.1725664   6.1723916   6.1756128   6.1737534   5.9545577
   5.9399717   6.1686747   6.1705537   6.1692432   6.1677093   5.9398542
   8.4794294   8.4781989   8.4807546   8.4771721   8.4785565   8.4818328
 TTTTTTTTTTTTTTTTTTTTTTTTTTTTTT MOQGAD      TELAPSE       47.54 TCPU     1191.41
 TTTTTTTTTTTTTTTTTTTTTTTTTTTTTT SHELLXN     TELAPSE       55.29 TCPU     1438.42
 TTTTTTTTTTTTTTTTTTTTTTTTTTTTTT MONMO3      TELAPSE       55.44 TCPU     1443.11
 NUMERICALLY INTEGRATED DENSITY    197.9999765214
 TTTTTTTTTTTTTTTTTTTTTTTTTTTTTT NUMDFT      TELAPSE       56.06 TCPU     1463.16
 CYC   4 ETOT(AU) -1.289112603397E+03 DETOT -3.11E-03 tst  3.00E-05 PX  1.43E-02
 TTTTTTTTTTTTTTTTTTTTTTTTTTTTTT DIIS        TELAPSE       56.12 TCPU     1465.09
 DIIS TEST: 0.41280E-02 AT SCF   CYCLE   4 - DIIS ACTIVE - HISTORY:     4 CYCLES
 TTTTTTTTTTTTTTTTTTTTTTTTTTTTTT FDIK        TELAPSE       56.62 TCPU     1481.04
 INSULATING STATE
 TOP OF VALENCE BANDS -    BAND     99; K   17; EIG -2.4789819E-01 AU
 TOP OF VALENCE BANDS -    BAND     99; K    1; EIG -2.4804918E-01 AU
 BOTTOM OF VIRTUAL BANDS - BAND    100; K   17; EIG -9.7124548E-02 AU
 DIRECT ENERGY BAND GAP:   4.1028 eV
 BOTTOM OF VIRTUAL BANDS - BAND    100; K    1; EIG -8.1917125E-02 AU
 TTTTTTTTTTTTTTTTTTTTTTTTTTTTTT PDIG        TELAPSE       56.95 TCPU     1487.22
 CHARGE NORMALIZATION FACTOR   1.00000000
 TOTAL ATOMIC CHARGES:
   4.4858549   4.5048007   4.5053583   4.5067272   4.5051379   4.4850411
   0.8723311   0.8722851   0.8786305   0.8788880   0.8645573   0.8643041
   0.8657931   0.8654717   0.8713764   0.8724235   0.8790339   0.8786154
   5.9230525   6.1706094   6.1705946   6.1662966   6.1662809   5.9231857
   5.9368326   6.1711132   6.1718903   6.1744080   6.1738164   5.9367296
   5.9234825   6.1694917   6.1702502   6.1668437   6.1668687   5.9235789
   8.4902539   8.4893735   8.4898714   8.4885445   8.4875019   8.4924991
 TTTTTTTTTTTTTTTTTTTTTTTTTTTTTT MOQGAD      TELAPSE       56.99 TCPU     1487.26
 TTTTTTTTTTTTTTTTTTTTTTTTTTTTTT SHELLXN     TELAPSE       64.74 TCPU     1734.33
 TTTTTTTTTTTTTTTTTTTTTTTTTTTTTT MONMO3      TELAPSE       64.89 TCPU     1739.02
 NUMERICALLY INTEGRATED DENSITY    197.9999765097
 TTTTTTTTTTTTTTTTTTTTTTTTTTTTTT NUMDFT      TELAPSE       65.52 TCPU     1759.14
 CYC   5 ETOT(AU) -1.289113550118E+03 DETOT -9.47E-04 tst  8.08E-06 PX  6.63E-03
 TTTTTTTTTTTTTTTTTTTTTTTTTTTTTT DIIS        TELAPSE       65.59 TCPU     1761.54
 DIIS TEST: 0.52741E-04 AT SCF   CYCLE   5 - DIIS ACTIVE - HISTORY:     5 CYCLES
 TTTTTTTTTTTTTTTTTTTTTTTTTTTTTT FDIK        TELAPSE       66.09 TCPU     1777.57
 INSULATING STATE
 TOP OF VALENCE BANDS -    BAND     99; K   17; EIG -2.4774132E-01 AU
 TOP OF VALENCE BANDS -    BAND     99; K    1; EIG -2.4783241E-01 AU
 BOTTOM OF VIRTUAL BANDS - BAND    100; K   17; EIG -9.6608832E-02 AU
 DIRECT ENERGY BAND GAP:   4.1125 eV
 BOTTOM OF VIRTUAL BANDS - BAND    100; K    1; EIG -8.1488345E-02 AU
 TTTTTTTTTTTTTTTTTTTTTTTTTTTTTT PDIG        TELAPSE       66.42 TCPU     1783.75
 CHARGE NORMALIZATION FACTOR   1.00000000
 TOTAL ATOMIC CHARGES:
   4.4857780   4.5048084   4.5053080   4.5067176   4.5049990   4.4849021
   0.8731537   0.8733378   0.8793900   0.8796944   0.8653929   0.8653096
   0.8666440   0.8664956   0.8724034   0.8732735   0.8797422   0.8795008
   5.9237635   6.1702772   6.1691668   6.1657745   6.1657890   5.9225991
   5.9371194   6.1713277   6.1710530   6.1743863   6.1729816   5.9349500
   5.9238007   6.1682728   6.1697954   6.1668263   6.1656978   5.9234189
   8.4896928   8.4886850   8.4901226   8.4876961   8.4879524   8.4920001
 TTTTTTTTTTTTTTTTTTTTTTTTTTTTTT MOQGAD      TELAPSE       66.47 TCPU     1783.80
 TTTTTTTTTTTTTTTTTTTTTTTTTTTTTT SHELLXN     TELAPSE       74.23 TCPU     2031.04
 TTTTTTTTTTTTTTTTTTTTTTTTTTTTTT MONMO3      TELAPSE       74.37 TCPU     2035.73
 NUMERICALLY INTEGRATED DENSITY    197.9999764914
 TTTTTTTTTTTTTTTTTTTTTTTTTTTTTT NUMDFT      TELAPSE       75.00 TCPU     2055.71
 CYC   6 ETOT(AU) -1.289113565098E+03 DETOT -1.50E-05 tst  9.18E-08 PX  6.73E-04
 TTTTTTTTTTTTTTTTTTTTTTTTTTTTTT DIIS        TELAPSE       75.07 TCPU     2058.02
 DIIS TEST: 0.42704E-05 AT SCF   CYCLE   6 - DIIS ACTIVE - HISTORY:     6 CYCLES
 TTTTTTTTTTTTTTTTTTTTTTTTTTTTTT FDIK        TELAPSE       75.57 TCPU     2073.99
 INSULATING STATE
 TOP OF VALENCE BANDS -    BAND     99; K   17; EIG -2.4773325E-01 AU
 TOP OF VALENCE BANDS -    BAND     99; K    1; EIG -2.4784864E-01 AU
 BOTTOM OF VIRTUAL BANDS - BAND    100; K   17; EIG -9.6699535E-02 AU
 DIRECT ENERGY BAND GAP:   4.1098 eV
 BOTTOM OF VIRTUAL BANDS - BAND    100; K    1; EIG -8.1513037E-02 AU
 TTTTTTTTTTTTTTTTTTTTTTTTTTTTTT PDIG        TELAPSE       75.89 TCPU     2080.17
 CHARGE NORMALIZATION FACTOR   1.00000000
 TOTAL ATOMIC CHARGES:
   4.4857977   4.5049110   4.5054615   4.5068579   4.5051991   4.4849743
   0.8732120   0.8731864   0.8793922   0.8796582   0.8654046   0.8651423
   0.8666385   0.8663373   0.8722731   0.8733081   0.8798125   0.8793846
   5.9230400   6.1698834   6.1698303   6.1657128   6.1656387   5.9230196
   5.9366802   6.1704754   6.1713424   6.1738421   6.1731009   5.9364921
   5.9233412   6.1687145   6.1695575   6.1661685   6.1662510   5.9235798
   8.4899519   8.4890057   8.4896997   8.4882093   8.4873199   8.4921920
 TTTTTTTTTTTTTTTTTTTTTTTTTTTTTT MOQGAD      TELAPSE       75.94 TCPU     2080.22
 TTTTTTTTTTTTTTTTTTTTTTTTTTTTTT SHELLXN     TELAPSE       83.69 TCPU     2327.38
 TTTTTTTTTTTTTTTTTTTTTTTTTTTTTT MONMO3      TELAPSE       83.84 TCPU     2332.08
 NUMERICALLY INTEGRATED DENSITY    197.9999764908
 TTTTTTTTTTTTTTTTTTTTTTTTTTTTTT NUMDFT      TELAPSE       84.46 TCPU     2352.02
 CYC   7 ETOT(AU) -1.289113565469E+03 DETOT -3.72E-07 tst  2.60E-08 PX  3.18E-04
 TTTTTTTTTTTTTTTTTTTTTTTTTTTTTT DIIS        TELAPSE       84.55 TCPU     2354.73
 DIIS TEST: 0.12473E-05 AT SCF   CYCLE   7 - DIIS ACTIVE - HISTORY:     7 CYCLES
 TTTTTTTTTTTTTTTTTTTTTTTTTTTTTT FDIK        TELAPSE       85.06 TCPU     2371.01
 INSULATING STATE
 TOP OF VALENCE BANDS -    BAND     99; K   17; EIG -2.4773422E-01 AU
 TOP OF VALENCE BANDS -    BAND     99; K    1; EIG -2.4785754E-01 AU
 BOTTOM OF VIRTUAL BANDS - BAND    100; K   17; EIG -9.6704393E-02 AU
 DIRECT ENERGY BAND GAP:   4.1097 eV
 BOTTOM OF VIRTUAL BANDS - BAND    100; K    1; EIG -8.1522481E-02 AU
 TTTTTTTTTTTTTTTTTTTTTTTTTTTTTT PDIG        TELAPSE       85.38 TCPU     2377.19
 CHARGE NORMALIZATION FACTOR   1.00000000
 TOTAL ATOMIC CHARGES:
   4.4858773   4.5049239   4.5054513   4.5068417   4.5051752   4.4850332
   0.8731453   0.8732119   0.8793704   0.8796483   0.8653242   0.8651598
   0.8665802   0.8663342   0.8722871   0.8732524   0.8797488   0.8794183
   5.9232766   6.1700915   6.1695396   6.1657010   6.1657303   5.9228045
   5.9370006   6.1708952   6.1711175   6.1740191   6.1730824   5.9358928
   5.9235749   6.1685524   6.1696557   6.1665200   6.1659511   5.9233650
   8.4898681   8.4889450   8.4898608   8.4880213   8.4875928   8.4921587
 TTTTTTTTTTTTTTTTTTTTTTTTTTTTTT MOQGAD      TELAPSE       85.42 TCPU     2377.23
 TTTTTTTTTTTTTTTTTTTTTTTTTTTTTT SHELLXN     TELAPSE       93.15 TCPU     2623.72
 +++ ENERGIES IN A.U. +++
 ::: EXT EL-POLE                                  -1.4037659730602E+03
 ::: EXT EL-SPHEROPOLE                             1.5475564010212E+01
 ::: BIELET ZONE E-E                               2.1231154743737E+03
 ::: TOTAL E-E                                     7.3482506532371E+02
 ::: TOTAL E-N + N-E                              -3.2969773430729E+03
 ::: TOTAL N-N                                     1.2683938382600E+02
 ::: KINETIC ENERGY                                1.2799122262738E+03
 ::: PSEUDO TOTAL   ENERGY                        -1.1554006676494E+03
 ::: VIRIAL COEFFICIENT                            1.0511275405042E+00
 TTTTTTTTTTTTTTTTTTTTTTTTTTTTTT MONMO3      TELAPSE       93.30 TCPU     2628.46
 NUMERICALLY INTEGRATED DENSITY    197.9999764904
 EXCHANGE ENERGY: -0.126020941225E+03  CORRELATION ENERGY: -0.769195683183E+01
 TTTTTTTTTTTTTTTTTTTTTTTTTTTTTT NUMDFT      TELAPSE       93.93 TCPU     2648.61
 CYC   8 ETOT(AU) -1.289113565706E+03 DETOT -2.36E-07 tst  5.71E-09 PX  3.18E-04

 == SCF ENDED - CONVERGENCE ON ENERGY      E(AU) -1.2891135657058E+03 CYCLES   8


 ENERGY EXPRESSION=HARTREE+FOCK EXCH*0.00000+(HSESOL     EXCH)*1.00000+PBESOL     CORR


 TOTAL ENERGY(DFT)(AU)(  8) -1.2891135657058E+03 DE-2.4E-07 tester 5.7E-09
 TTTTTTTTTTTTTTTTTTTTTTTTTTTTTT EDFT        TELAPSE       93.93 TCPU     2648.62
 
 INFORMATION **** DFTD3 ENERGY **** CALCULATE DFTD3 ENERGY

           DFT-D V3(BJ)
 DF                                         hsesol3c  
 parameters
 s6       :    1.0000
 s8       :    0.0000
 a1       :    0.5196
 a2       :    4.9385
 k1 k3    :   16.0000   -4.0000
 Cutoff   :   50.2022
 CN-Cutoff:   21.1671
 ABC-Cutoff:   21.1671
 
 Edisp /kcal,au:   -25.7610 -0.04105274

 E6    /kcal :   -27.2835
 E8    /kcal :     0.0000
 E6(ABC) "   :   1.522528
 
 INFORMATION **** DFTD3 ENERGY **** NORMAL TERMINATION OF DFTD3 MODULE

 GCP ENERGY CALCULATION
  level        hsesol3c            basis:hsesol3c
  Nbf            474
  Atoms           42

  Parameters: 
  sigma     1.0000
  eta       1.4281
  alpha     0.2936
  beta      1.9467

  dmp_scal      4.0000
  dmp_exp       6.0000
 cutoffs: 
   distance [bohr] 60.0
   noise    [a.u.] 2.2E-16
 SR-damping   T
 ** gCP correction **
  Egcp:        0.0830841678 / (a.u.) ||      52.1361 / (kcal/mol)
 INFORMATION **** GCP **** NORMAL TERMINATION OF GCP MODULE

 *******************************************************************************

 DFT-D3-GCP DISPERSION AND COUNTERPOISE CORRECTION

 D3 DISPERSION ENERGY (AU)      -4.1052744535751E-02
 GCP ENERGY (AU)                 8.3084167761773E-02
 TOTAL ENERGY + DISP + GCP (AU) -1.2890715342826E+03

 *******************************************************************************

 EIGENVECTORS IN FORTRAN UNIT  8
 TTTTTTTTTTTTTTTTTTTTTTTTTTTTTT END         TELAPSE       95.46 TCPU     2656.03
 EEEEEEEEEE TERMINATION  DATE 02 12 2025 TIME 08:03:32.9
