 Default number of threads is:           32

         
 *******************************************************************************
 *                                                                             *
 *                               CRYSTAL23                                     *
 *                      public : 1.0.1 - October 2022                          *
 *                       HTTP://WWW.CRYSTAL.UNITO.IT                           *
 *                                                                             *
 *                              MAIN AUTHORS                                   *
 *                                                                             *
 *  R. DOVESI(1,11), V.R. SAUNDERS(2), C. ROETTI(1,11), R. ORLANDO(1,11),      *
 *  C.M. ZICOVICH-WILSON(1,3), F. PASCALE(4), B. CIVALLERI(1,11),              *
 *  K. DOLL(5), N.M. HARRISON(6), I.J. BUSH(7), Ph. D'ARCO(8),                 *
 *  M. LLUNELL(9), M. CAUSA'(10), Y. NOEL(8), L. MASCHIO(1,11), A. ERBA(1,11)  *
 *  M. RE'RAT(14), S. CASASSA(1,11), B.G. SEARLE(2), J.K. DESMARAIS(1)         *
 *                                                                             *
 *        CONTRIBUTIONS TO THE CODE HAVE ALSO BEEN GIVEN BY                    *
 *                                                                             *
 *  M. FERRABONE(1,11), M. DE LA PIERRE(1,11), M. FERRERO(1,11),               *
 *  J. BAIMA(1,11), E. ALBANESE(1,11), M.F. PEINTINGER(12), R. BAST(13),       *
 *  B. KIRTMAN(15), V. LACIVITA(1,11), R. DEMICHELIS(1,16)                     *
 *  G. BRANDEBURG(17), S. SALUSTRO(1,11), G. SANSONE(1,11)                     *
 *  M.T. RUGGIERO(18), L.E. DAGA(1), L. DONA'(1), A. COSSARD(1)                *
 *                                                                             *
 * (1) THEORETICAL CHEMISTRY GROUP - UNIVERSITA' DI TORINO - TORINO (ITALY)    *
 * (2) SCIENTIFIC COMPUTING DEPARTMENT - STFC DARESBURY (UK)                   *
 * (3) UNIVERSIDAD AUTONOMA DEL ESTADO DE MORELOS - CUERNAVACA (MEXICO)        *
 * (4) UNIVERSITE' DE LORRAINE - NANCY (FRANCE)                                *
 * (5) UNIVERSITAET STUTTGART- STUTTGART (GERMANY)                             *
 * (6) IMPERIAL COLLEGE - LONDON (UK)                                          *
 * (7) SCIENTIFIC COMPUTING DEPARTMENT - STFC RAL (UK)                         *
 * (8) UPMC - SORBONNE UNIVERSITES - PARIS (FRANCE)                            *
 * (9) UNIVERSIDAD DE BARCELONA - BARCELONA (SPAIN)                            *
 *(10) UNIVERSITA' DI NAPOLI "FEDERICO II" - NAPOLI (ITALY)                    *
 *(11) NIS - NANOSTRUCTURED INTERFACES AND SURFACES - TORINO (ITALY)           *
 *(12) MPI FUER CHEMISCHE ENERGIEKONVERSION - MUELHEIM AN DER RUHR (GERMANY)   *
 *(13) UNIVERSITY OF TROMSO - TROMSO (NORWAY)                                  *
 *(14) UNIVERSITE' DE PAU ET DES PAYS DE L'ADOUR - PAU (FRANCE)                *
 *(15) UNIVERSITY OF CALIFORNIA SANTA BARBARA - SANTA BARBARA (USA)            *
 *(16) CURTIN UNIVERSITY - PERTH (AUSTRALIA)                                   *
 *(17) UNIVERSITY COLLEGE LONDON - LONDON (UK)                                 *
 *(18) UNIVERSITY OF VERMONT - BURLINGTON (USA)                                *
 *                                                                             *
 *******************************************************************************
 EEEEEEEEEE STARTING  DATE 19 02 2026 TIME 20:04:17.0
 cof-1_z34_L040_serr                                                             

 CRYSTAL CALCULATION
 (INPUT ACCORDING TO THE INTERNATIONAL TABLES FOR X-RAY CRYSTALLOGRAPHY)
 CRYSTAL FAMILY                       :  TRICLINIC   
 CRYSTAL CLASS  (GROTH - 1921)        :  TRICLINIC PEDIAL                     

 SPACE GROUP (NONCENTROSYMMETRIC)     :  P 1             

 LATTICE PARAMETERS  (ANGSTROMS AND DEGREES) - CONVENTIONAL CELL
        A           B           C        ALPHA        BETA       GAMMA
    15.02361    15.02392     6.80000    90.00032    89.99994   119.99596


 NUMBER OF IRREDUCIBLE ATOMS IN THE CONVENTIONAL CELL:   84

 INPUT COORDINATES

 ATOM AT. N.              COORDINATES
   1   5     6.136805400000E-01  2.273182200000E-01  2.507024600000E-01
   2   5     7.673736500000E-01  5.347356900000E-01  7.507024600000E-01
   3   5     7.727362000000E-01  3.863778800000E-01  2.507024700000E-01
   4   5     9.264293100000E-01  6.937953500000E-01  7.507024700000E-01
   5   5     6.136762700000E-01  3.863606700000E-01  2.492255300000E-01
   6   5     7.673693800000E-01  6.937781400000E-01  7.492255200000E-01
   7   5     2.272552500000E-01  6.136332200000E-01  2.507024600000E-01
   8   5     3.809483600000E-01  9.210506900000E-01  7.507024600000E-01
   9   5     3.863632200000E-01  6.136124500000E-01  2.507024600000E-01
  10   5     5.400563300000E-01  9.210299200000E-01  7.507024600000E-01
  11   5     3.863435000000E-01  7.727516500000E-01  2.492255300000E-01
  12   5     5.400366100000E-01  8.016912000000E-02  7.492255300000E-01
  13   1     9.030436200000E-01  3.089300500000E-01  2.476404700000E-01
  14   1     5.673673000000E-02  6.163475200000E-01  7.476404800000E-01
  15   1     9.663453000000E-02  6.910534400000E-01  2.471722500000E-01
  16   1     2.503276400000E-01  9.984709100000E-01  7.471722500000E-01
  17   1     9.029714200000E-01  5.940724300000E-01  2.471001800000E-01
  18   1     5.666453000000E-02  9.014899000000E-01  7.471001800000E-01
  19   1     9.673618000000E-02  4.056849400000E-01  2.471181600000E-01
  20   1     2.504292900000E-01  7.131024100000E-01  7.471181600000E-01
  21   1     6.910324000000E-01  9.700412000000E-02  2.523595500000E-01
  22   1     8.447255100000E-01  4.044215900000E-01  7.523595500000E-01
  23   1     3.089297200000E-01  9.034373100000E-01  2.528278100000E-01
  24   1     4.626228300000E-01  2.108547800000E-01  7.528278100000E-01
  25   1     4.058699900000E-01  9.704998000000E-02  2.528999100000E-01
  26   1     5.595631000000E-01  4.044674500000E-01  7.528999100000E-01
  27   1     5.943122100000E-01  9.033473200000E-01  2.528818200000E-01
  28   1     7.480053200000E-01  2.107647900000E-01  7.528818200000E-01
  29   1     6.910727400000E-01  5.940542100000E-01  2.476405000000E-01
  30   1     8.447658500000E-01  9.014716800000E-01  7.476405000000E-01
  31   1     3.089618300000E-01  4.056093300000E-01  2.471722200000E-01
  32   1     4.626549400000E-01  7.130268000000E-01  7.471722100000E-01
  33   1     4.058405700000E-01  3.088232500000E-01  2.471001300000E-01
  34   1     5.595336800000E-01  6.162407200000E-01  7.471001300000E-01
  35   1     5.942908800000E-01  6.909579300000E-01  2.471182100000E-01
  36   1     7.479839900000E-01  9.983754000000E-01  7.471182100000E-01
  37   6     8.918903100000E-01  4.459436900000E-01  2.491714900000E-01
  38   6     4.558342000000E-02  7.533611600000E-01  7.491714900000E-01
  39   6     9.464891100000E-01  3.927856300000E-01  2.477125300000E-01
  40   6     1.001822200000E-01  7.002031000000E-01  7.477125300000E-01
  41   6     5.338812000000E-02  6.071853000000E-01  2.475864900000E-01
  42   6     2.070812300000E-01  9.146027700000E-01  7.475864900000E-01
  43   6     9.464521100000E-01  5.536921900000E-01  2.479647300000E-01
  44   6     1.001452200000E-01  8.611096600000E-01  7.479647300000E-01
  45   6     5.342634000000E-02  4.462499700000E-01  2.469920800000E-01
  46   6     2.071194500000E-01  7.536674400000E-01  7.469920700000E-01
  47   6     1.080358900000E-01  5.540356300000E-01  2.479827300000E-01
  48   6     2.617290000000E-01  8.614531000000E-01  7.479827300000E-01
  49   6     5.540394200000E-01  1.081684600000E-01  2.508285600000E-01
  50   6     7.077325300000E-01  4.155859300000E-01  7.508285600000E-01
  51   6     6.071778500000E-01  5.355594000000E-02  2.522874800000E-01
  52   6     7.608709600000E-01  3.609734100000E-01  7.522874800000E-01
  53   6     3.927986700000E-01  9.466631600000E-01  2.524135600000E-01
  54   6     5.464917800000E-01  2.540806300000E-01  7.524135600000E-01
  55   6     4.462875800000E-01  5.360286000000E-02  2.520353400000E-01
  56   6     5.999806900000E-01  3.610203300000E-01  7.520353300000E-01
  57   6     5.537168500000E-01  9.466235600000E-01  2.530079300000E-01
  58   6     7.074099600000E-01  2.540410300000E-01  7.530079300000E-01
  59   6     4.459279100000E-01  8.919920600000E-01  2.520173100000E-01
  60   6     5.996210200000E-01  1.994095300000E-01  7.520173000000E-01
  61   6     5.540448700000E-01  4.458745500000E-01  2.491714900000E-01
  62   6     7.077379800000E-01  7.532920200000E-01  7.491714800000E-01
  63   6     6.072102200000E-01  5.536257800000E-01  2.477125600000E-01
  64   6     7.609033300000E-01  8.610432500000E-01  7.477125600000E-01
  65   6     3.928233700000E-01  4.461720300000E-01  2.475864700000E-01
  66   6     5.465164800000E-01  7.535895000000E-01  7.475864700000E-01
  67   6     4.462872600000E-01  3.926899900000E-01  2.479647000000E-01
  68   6     5.999803700000E-01  7.001074600000E-01  7.479647000000E-01
  69   6     5.537429600000E-01  6.070980000000E-01  2.469921100000E-01
  70   6     7.074360700000E-01  9.145154700000E-01  7.469921100000E-01
  71   6     4.459599800000E-01  5.539582300000E-01  2.479827300000E-01
  72   6     5.996530900000E-01  8.613757000000E-01  7.479827300000E-01
  73   8     5.607366800000E-01  2.803706300000E-01  2.496217700000E-01
  74   8     7.144297900000E-01  5.877881000000E-01  7.496217700000E-01
  75   8     7.196817000000E-01  2.803783300000E-01  2.527377600000E-01
  76   8     8.733748100000E-01  5.877958000000E-01  7.527377600000E-01
  77   8     7.196794200000E-01  4.393234600000E-01  2.480367700000E-01
  78   8     8.733725300000E-01  7.467409300000E-01  7.480367700000E-01
  79   8     2.803245100000E-01  7.196511100000E-01  2.496217900000E-01
  80   8     4.340176200000E-01  2.706858000000E-02  7.496217900000E-01
  81   8     2.803439700000E-01  5.606956100000E-01  2.527377600000E-01
  82   8     4.340370800000E-01  8.681130800000E-01  7.527377600000E-01
  83   8     4.392638400000E-01  7.196354200000E-01  2.480367600000E-01
  84   8     5.929569500000E-01  2.705289000000E-02  7.480367600000E-01

 *******************************************************************************

 << INFORMATION >>: FROM NOW ON, ALL COORDINATES REFER TO THE PRIMITIVE CELL

 *******************************************************************************

 LATTICE PARAMETERS  (ANGSTROMS AND DEGREES) - PRIMITIVE CELL
       A          B          C        ALPHA      BETA     GAMMA        VOLUME
   15.02361   15.02392    6.80000    90.00032  89.99994 119.99596   1329.274527

 COORDINATES OF THE EQUIVALENT ATOMS (FRACTIONAL UNITS)

 N. ATOM EQUIV AT. N.          X                  Y                  Z

   1   1   1    5 B    -3.86319460000E-01  2.27318220000E-01  2.50702460000E-01

   2   2   1    5 B    -2.32626350000E-01 -4.65264310000E-01 -2.49297540000E-01

   3   3   1    5 B    -2.27263800000E-01  3.86377880000E-01  2.50702470000E-01

   4   4   1    5 B    -7.35706900000E-02 -3.06204650000E-01 -2.49297530000E-01

   5   5   1    5 B    -3.86323730000E-01  3.86360670000E-01  2.49225530000E-01

   6   6   1    5 B    -2.32630620000E-01 -3.06221860000E-01 -2.50774480000E-01

   7   7   1    5 B     2.27255250000E-01 -3.86366780000E-01  2.50702460000E-01

   8   8   1    5 B     3.80948360000E-01 -7.89493100000E-02 -2.49297540000E-01

   9   9   1    5 B     3.86363220000E-01 -3.86387550000E-01  2.50702460000E-01

  10  10   1    5 B    -4.59943670000E-01 -7.89700800000E-02 -2.49297540000E-01

  11  11   1    5 B     3.86343500000E-01 -2.27248350000E-01  2.49225530000E-01

  12  12   1    5 B    -4.59963390000E-01  8.01691200000E-02 -2.50774470000E-01

  13  13   1    1 H    -9.69563800000E-02  3.08930050000E-01  2.47640470000E-01

  14  14   1    1 H     5.67367300000E-02 -3.83652480000E-01 -2.52359520000E-01

  15  15   1    1 H     9.66345300000E-02 -3.08946560000E-01  2.47172250000E-01

  16  16   1    1 H     2.50327640000E-01 -1.52909000000E-03 -2.52827750000E-01

  17  17   1    1 H    -9.70285800000E-02 -4.05927570000E-01  2.47100180000E-01

  18  18   1    1 H     5.66645300000E-02 -9.85101000000E-02 -2.52899820000E-01

  19  19   1    1 H     9.67361800000E-02  4.05684940000E-01  2.47118160000E-01

  20  20   1    1 H     2.50429290000E-01 -2.86897590000E-01 -2.52881840000E-01

  21  21   1    1 H    -3.08967600000E-01  9.70041200000E-02  2.52359550000E-01

  22  22   1    1 H    -1.55274490000E-01  4.04421590000E-01 -2.47640450000E-01

  23  23   1    1 H     3.08929720000E-01 -9.65626900000E-02  2.52827810000E-01

  24  24   1    1 H     4.62622830000E-01  2.10854780000E-01 -2.47172190000E-01

  25  25   1    1 H     4.05869990000E-01  9.70499800000E-02  2.52899910000E-01

  26  26   1    1 H    -4.40436900000E-01  4.04467450000E-01 -2.47100090000E-01

  27  27   1    1 H    -4.05687790000E-01 -9.66526800000E-02  2.52881820000E-01

  28  28   1    1 H    -2.51994680000E-01  2.10764790000E-01 -2.47118180000E-01

  29  29   1    1 H    -3.08927260000E-01 -4.05945790000E-01  2.47640500000E-01

  30  30   1    1 H    -1.55234150000E-01 -9.85283200000E-02 -2.52359500000E-01

  31  31   1    1 H     3.08961830000E-01  4.05609330000E-01  2.47172220000E-01

  32  32   1    1 H     4.62654940000E-01 -2.86973200000E-01 -2.52827790000E-01

  33  33   1    1 H     4.05840570000E-01  3.08823250000E-01  2.47100130000E-01

  34  34   1    1 H    -4.40466320000E-01 -3.83759280000E-01 -2.52899870000E-01

  35  35   1    1 H    -4.05709120000E-01 -3.09042070000E-01  2.47118210000E-01

  36  36   1    1 H    -2.52016010000E-01 -1.62460000000E-03 -2.52881790000E-01

  37  37   1    6 C    -1.08109690000E-01  4.45943690000E-01  2.49171490000E-01

  38  38   1    6 C     4.55834200000E-02 -2.46638840000E-01 -2.50828510000E-01

  39  39   1    6 C    -5.35108900000E-02  3.92785630000E-01  2.47712530000E-01

  40  40   1    6 C     1.00182220000E-01 -2.99796900000E-01 -2.52287470000E-01

  41  41   1    6 C     5.33881200000E-02 -3.92814700000E-01  2.47586490000E-01

  42  42   1    6 C     2.07081230000E-01 -8.53972300000E-02 -2.52413510000E-01

  43  43   1    6 C    -5.35478900000E-02 -4.46307810000E-01  2.47964730000E-01

  44  44   1    6 C     1.00145220000E-01 -1.38890340000E-01 -2.52035270000E-01

  45  45   1    6 C     5.34263400000E-02  4.46249970000E-01  2.46992080000E-01

  46  46   1    6 C     2.07119450000E-01 -2.46332560000E-01 -2.53007930000E-01

  47  47   1    6 C     1.08035890000E-01 -4.45964370000E-01  2.47982730000E-01

  48  48   1    6 C     2.61729000000E-01 -1.38546900000E-01 -2.52017270000E-01

  49  49   1    6 C    -4.45960580000E-01  1.08168460000E-01  2.50828560000E-01

  50  50   1    6 C    -2.92267470000E-01  4.15585930000E-01 -2.49171440000E-01

  51  51   1    6 C    -3.92822150000E-01  5.35559400000E-02  2.52287480000E-01

  52  52   1    6 C    -2.39129040000E-01  3.60973410000E-01 -2.47712520000E-01

  53  53   1    6 C     3.92798670000E-01 -5.33368400000E-02  2.52413560000E-01

  54  54   1    6 C    -4.53508220000E-01  2.54080630000E-01 -2.47586440000E-01

  55  55   1    6 C     4.46287580000E-01  5.36028600000E-02  2.52035340000E-01

  56  56   1    6 C    -4.00019310000E-01  3.61020330000E-01 -2.47964670000E-01

  57  57   1    6 C    -4.46283150000E-01 -5.33764400000E-02  2.53007930000E-01

  58  58   1    6 C    -2.92590040000E-01  2.54041030000E-01 -2.46992070000E-01

  59  59   1    6 C     4.45927910000E-01 -1.08007940000E-01  2.52017310000E-01

  60  60   1    6 C    -4.00378980000E-01  1.99409530000E-01 -2.47982700000E-01

  61  61   1    6 C    -4.45955130000E-01  4.45874550000E-01  2.49171490000E-01

  62  62   1    6 C    -2.92262020000E-01 -2.46707980000E-01 -2.50828520000E-01

  63  63   1    6 C    -3.92789780000E-01 -4.46374220000E-01  2.47712560000E-01

  64  64   1    6 C    -2.39096670000E-01 -1.38956750000E-01 -2.52287440000E-01

  65  65   1    6 C     3.92823370000E-01  4.46172030000E-01  2.47586470000E-01

  66  66   1    6 C    -4.53483520000E-01 -2.46410500000E-01 -2.52413530000E-01

  67  67   1    6 C     4.46287260000E-01  3.92689990000E-01  2.47964700000E-01

  68  68   1    6 C    -4.00019630000E-01 -2.99892540000E-01 -2.52035300000E-01

  69  69   1    6 C    -4.46257040000E-01 -3.92902000000E-01  2.46992110000E-01

  70  70   1    6 C    -2.92563930000E-01 -8.54845300000E-02 -2.53007890000E-01

  71  71   1    6 C     4.45959980000E-01 -4.46041770000E-01  2.47982730000E-01

  72  72   1    6 C    -4.00346910000E-01 -1.38624300000E-01 -2.52017270000E-01

  73  73   1    8 O    -4.39263320000E-01  2.80370630000E-01  2.49621770000E-01

  74  74   1    8 O    -2.85570210000E-01 -4.12211900000E-01 -2.50378230000E-01

  75  75   1    8 O    -2.80318300000E-01  2.80378330000E-01  2.52737760000E-01

  76  76   1    8 O    -1.26625190000E-01 -4.12204200000E-01 -2.47262240000E-01

  77  77   1    8 O    -2.80320580000E-01  4.39323460000E-01  2.48036770000E-01

  78  78   1    8 O    -1.26627470000E-01 -2.53259070000E-01 -2.51963230000E-01

  79  79   1    8 O     2.80324510000E-01 -2.80348890000E-01  2.49621790000E-01

  80  80   1    8 O     4.34017620000E-01  2.70685800000E-02 -2.50378210000E-01

  81  81   1    8 O     2.80343970000E-01 -4.39304390000E-01  2.52737760000E-01

  82  82   1    8 O     4.34037080000E-01 -1.31886920000E-01 -2.47262240000E-01

  83  83   1    8 O     4.39263840000E-01 -2.80364580000E-01  2.48036760000E-01

  84  84   1    8 O    -4.07043050000E-01  2.70528900000E-02 -2.51963240000E-01

 NUMBER OF SYMMETRY OPERATORS         :    1
 *******************************************************************************
 * GEOMETRY EDITING - INPUT COORDINATES ARE GIVEN IN ANGSTROM         
 *******************************************************************************

 GCALCO - MAX INDICES DIRECT LATTICE VECTOR    11    11    22
 NO.OF VECTORS CREATED 6999 STARS 3500 RMAX   247.51041 BOHR

 GEOMETRY FOR WAVE FUNCTION - DIMENSIONALITY OF THE SYSTEM    3
 (NON PERIODIC DIRECTION: LATTICE PARAMETER FORMALLY SET TO 500)
 *******************************************************************************
 LATTICE PARAMETERS (ANGSTROMS AND DEGREES) - BOHR = 0.5291772083 ANGSTROM
 PRIMITIVE CELL - CENTRING CODE 1/0 VOLUME=  1329.274527 - DENSITY  0.975 g/cm^3
         A              B              C           ALPHA      BETA       GAMMA 
    15.02361100    15.02391600     6.80000000    90.000323  89.999944 119.995964
 *******************************************************************************
 ATOMS IN THE ASYMMETRIC UNIT   84 - ATOMS IN THE UNIT CELL:   84
     ATOM                 X/A                 Y/B                 Z/C    
 *******************************************************************************
      1 T   5 B    -3.863194600000E-01  2.273182200000E-01  2.507024600000E-01
      2 T   5 B    -2.326263500000E-01 -4.652643100000E-01 -2.492975400000E-01
      3 T   5 B    -2.272638000000E-01  3.863778800000E-01  2.507024700000E-01
      4 T   5 B    -7.357069000000E-02 -3.062046500000E-01 -2.492975300000E-01
      5 T   5 B    -3.863237300000E-01  3.863606700000E-01  2.492255300000E-01
      6 T   5 B    -2.326306200000E-01 -3.062218600000E-01 -2.507744800000E-01
      7 T   5 B     2.272552500000E-01 -3.863667800000E-01  2.507024600000E-01
      8 T   5 B     3.809483600000E-01 -7.894931000000E-02 -2.492975400000E-01
      9 T   5 B     3.863632200000E-01 -3.863875500000E-01  2.507024600000E-01
     10 T   5 B    -4.599436700000E-01 -7.897008000000E-02 -2.492975400000E-01
     11 T   5 B     3.863435000000E-01 -2.272483500000E-01  2.492255300000E-01
     12 T   5 B    -4.599633900000E-01  8.016912000000E-02 -2.507744700000E-01
     13 T   1 H    -9.695638000000E-02  3.089300500000E-01  2.476404700000E-01
     14 T   1 H     5.673673000000E-02 -3.836524800000E-01 -2.523595200000E-01
     15 T   1 H     9.663453000000E-02 -3.089465600000E-01  2.471722500000E-01
     16 T   1 H     2.503276400000E-01 -1.529090000000E-03 -2.528277500000E-01
     17 T   1 H    -9.702858000000E-02 -4.059275700000E-01  2.471001800000E-01
     18 T   1 H     5.666453000000E-02 -9.851010000000E-02 -2.528998200000E-01
     19 T   1 H     9.673618000000E-02  4.056849400000E-01  2.471181600000E-01
     20 T   1 H     2.504292900000E-01 -2.868975900000E-01 -2.528818400000E-01
     21 T   1 H    -3.089676000000E-01  9.700412000000E-02  2.523595500000E-01
     22 T   1 H    -1.552744900000E-01  4.044215900000E-01 -2.476404500000E-01
     23 T   1 H     3.089297200000E-01 -9.656269000000E-02  2.528278100000E-01
     24 T   1 H     4.626228300000E-01  2.108547800000E-01 -2.471721900000E-01
     25 T   1 H     4.058699900000E-01  9.704998000000E-02  2.528999100000E-01
     26 T   1 H    -4.404369000000E-01  4.044674500000E-01 -2.471000900000E-01
     27 T   1 H    -4.056877900000E-01 -9.665268000000E-02  2.528818200000E-01
     28 T   1 H    -2.519946800000E-01  2.107647900000E-01 -2.471181800000E-01
     29 T   1 H    -3.089272600000E-01 -4.059457900000E-01  2.476405000000E-01
     30 T   1 H    -1.552341500000E-01 -9.852832000000E-02 -2.523595000000E-01
     31 T   1 H     3.089618300000E-01  4.056093300000E-01  2.471722200000E-01
     32 T   1 H     4.626549400000E-01 -2.869732000000E-01 -2.528277900000E-01
     33 T   1 H     4.058405700000E-01  3.088232500000E-01  2.471001300000E-01
     34 T   1 H    -4.404663200000E-01 -3.837592800000E-01 -2.528998700000E-01
     35 T   1 H    -4.057091200000E-01 -3.090420700000E-01  2.471182100000E-01
     36 T   1 H    -2.520160100000E-01 -1.624600000000E-03 -2.528817900000E-01
     37 T   6 C    -1.081096900000E-01  4.459436900000E-01  2.491714900000E-01
     38 T   6 C     4.558342000000E-02 -2.466388400000E-01 -2.508285100000E-01
     39 T   6 C    -5.351089000000E-02  3.927856300000E-01  2.477125300000E-01
     40 T   6 C     1.001822200000E-01 -2.997969000000E-01 -2.522874700000E-01
     41 T   6 C     5.338812000000E-02 -3.928147000000E-01  2.475864900000E-01
     42 T   6 C     2.070812300000E-01 -8.539723000000E-02 -2.524135100000E-01
     43 T   6 C    -5.354789000000E-02 -4.463078100000E-01  2.479647300000E-01
     44 T   6 C     1.001452200000E-01 -1.388903400000E-01 -2.520352700000E-01
     45 T   6 C     5.342634000000E-02  4.462499700000E-01  2.469920800000E-01
     46 T   6 C     2.071194500000E-01 -2.463325600000E-01 -2.530079300000E-01
     47 T   6 C     1.080358900000E-01 -4.459643700000E-01  2.479827300000E-01
     48 T   6 C     2.617290000000E-01 -1.385469000000E-01 -2.520172700000E-01
     49 T   6 C    -4.459605800000E-01  1.081684600000E-01  2.508285600000E-01
     50 T   6 C    -2.922674700000E-01  4.155859300000E-01 -2.491714400000E-01
     51 T   6 C    -3.928221500000E-01  5.355594000000E-02  2.522874800000E-01
     52 T   6 C    -2.391290400000E-01  3.609734100000E-01 -2.477125200000E-01
     53 T   6 C     3.927986700000E-01 -5.333684000000E-02  2.524135600000E-01
     54 T   6 C    -4.535082200000E-01  2.540806300000E-01 -2.475864400000E-01
     55 T   6 C     4.462875800000E-01  5.360286000000E-02  2.520353400000E-01
     56 T   6 C    -4.000193100000E-01  3.610203300000E-01 -2.479646700000E-01
     57 T   6 C    -4.462831500000E-01 -5.337644000000E-02  2.530079300000E-01
     58 T   6 C    -2.925900400000E-01  2.540410300000E-01 -2.469920700000E-01
     59 T   6 C     4.459279100000E-01 -1.080079400000E-01  2.520173100000E-01
     60 T   6 C    -4.003789800000E-01  1.994095300000E-01 -2.479827000000E-01
     61 T   6 C    -4.459551300000E-01  4.458745500000E-01  2.491714900000E-01
     62 T   6 C    -2.922620200000E-01 -2.467079800000E-01 -2.508285200000E-01
     63 T   6 C    -3.927897800000E-01 -4.463742200000E-01  2.477125600000E-01
     64 T   6 C    -2.390966700000E-01 -1.389567500000E-01 -2.522874400000E-01
     65 T   6 C     3.928233700000E-01  4.461720300000E-01  2.475864700000E-01
     66 T   6 C    -4.534835200000E-01 -2.464105000000E-01 -2.524135300000E-01
     67 T   6 C     4.462872600000E-01  3.926899900000E-01  2.479647000000E-01
     68 T   6 C    -4.000196300000E-01 -2.998925400000E-01 -2.520353000000E-01
     69 T   6 C    -4.462570400000E-01 -3.929020000000E-01  2.469921100000E-01
     70 T   6 C    -2.925639300000E-01 -8.548453000000E-02 -2.530078900000E-01
     71 T   6 C     4.459599800000E-01 -4.460417700000E-01  2.479827300000E-01
     72 T   6 C    -4.003469100000E-01 -1.386243000000E-01 -2.520172700000E-01
     73 T   8 O    -4.392633200000E-01  2.803706300000E-01  2.496217700000E-01
     74 T   8 O    -2.855702100000E-01 -4.122119000000E-01 -2.503782300000E-01
     75 T   8 O    -2.803183000000E-01  2.803783300000E-01  2.527377600000E-01
     76 T   8 O    -1.266251900000E-01 -4.122042000000E-01 -2.472622400000E-01
     77 T   8 O    -2.803205800000E-01  4.393234600000E-01  2.480367700000E-01
     78 T   8 O    -1.266274700000E-01 -2.532590700000E-01 -2.519632300000E-01
     79 T   8 O     2.803245100000E-01 -2.803488900000E-01  2.496217900000E-01
     80 T   8 O     4.340176200000E-01  2.706858000000E-02 -2.503782100000E-01
     81 T   8 O     2.803439700000E-01 -4.393043900000E-01  2.527377600000E-01
     82 T   8 O     4.340370800000E-01 -1.318869200000E-01 -2.472622400000E-01
     83 T   8 O     4.392638400000E-01 -2.803645800000E-01  2.480367600000E-01
     84 T   8 O    -4.070430500000E-01  2.705289000000E-02 -2.519632400000E-01

 T = ATOM BELONGING TO THE ASYMMETRIC UNIT

 ****    1 SYMMOPS - TRANSLATORS IN FRACTIONAL UNITS
 **** MATRICES AND TRANSLATORS IN THE CRYSTALLOGRAPHIC REFERENCE FRAME
   V INV                    ROTATION MATRICES                   TRANSLATORS
   1   1  1.00  0.00  0.00  0.00  1.00  0.00  0.00 -0.00  1.00  0.00  0.00  0.00

 DIRECT LATTICE VECTORS CARTESIAN COMPONENTS (ANGSTROM)
          X                    Y                    Z
   0.130113578931E+02  -0.751088897922E+01   0.000000000000E+00
   0.000000000000E+00   0.150239160000E+02   0.000000000000E+00
  -0.144547080487E-04  -0.383344116893E-04   0.679999999988E+01


 CARTESIAN COORDINATES - PRIMITIVE CELL
 *******************************************************************************
 *      ATOM          X(ANGSTROM)         Y(ANGSTROM)         Z(ANGSTROM)
 *******************************************************************************
    1     5 B    -5.026544378943E+00  6.316802806589E+00  1.704776727969E+00
    2     5 B    -3.026781091682E+00 -5.242851666073E+00 -1.695223271969E+00
    3     5 B    -2.957014261767E+00  7.511852373641E+00  1.704776795969E+00
    4     5 B    -9.572509745061E-01 -4.047802099021E+00 -1.695223203969E+00
    5     5 B    -5.026599916093E+00 -6.317640656064E+00  1.694733603969E+00
    6     5 B    -3.026836628832E+00 -2.853379128725E+00 -1.705266463969E+00
    7     5 B     2.956895766995E+00 -7.511640611136E+00  1.704776727969E+00
    8     5 B     4.956659054256E+00 -4.047379083798E+00 -1.695223271969E+00
    9     5 B     5.027106508303E+00  6.316921043750E+00  1.704776727969E+00
   10     5 B    -5.984488097493E+00  2.268155550305E+00 -1.695223271969E+00
   11     5 B     5.026849945674E+00 -6.315952811795E+00  1.694733603969E+00
   12     5 B     7.026613232935E+00 -2.851691284457E+00 -1.705266395969E+00
   13     1 H    -1.261537739766E+00  5.369558233931E+00  1.683955195969E+00
   14     1 H     7.382255474949E-01 -6.190096238732E+00 -1.716044735969E+00
   15     1 H     1.257342881855E+00 -5.367407867521E+00  1.680771299969E+00
   16     1 H     3.257106169116E+00 -1.903146340183E+00 -1.719228699969E+00
   17     1 H    -1.262477151996E+00 -5.369860294013E+00  1.680281223970E+00
   18     1 H     7.372861352649E-01 -1.905598766675E+00 -1.719718775969E+00
   19     1 H     1.258665487166E+00  5.368392279642E+00  1.680403487970E+00
   20     1 H     3.258428774427E+00 -6.191262193020E+00 -1.719596511969E+00
   21     1 H    -4.020091668742E+00  3.777993418254E+00  1.716044939969E+00
   22     1 H    -2.020328381481E+00  7.242254945592E+00 -1.683955059969E+00
   23     1 H     4.019591496170E+00 -3.771096264600E+00  1.719229107969E+00
   24     1 H     6.019354783431E+00 -3.068347372620E-01 -1.680770891969E+00
   25     1 H     5.280916042347E+00 -1.590383382333E+00  1.719719387969E+00
   26     1 H     7.280679329608E+00  1.873878145005E+00 -1.680280611970E+00
   27     1 H    -5.278552683866E+00  1.594964511343E+00  1.719596375969E+00
   28     1 H    -3.278789396605E+00  5.059226038681E+00 -1.680403623970E+00
   29     1 H    -4.019566722352E+00 -3.778586590153E+00  1.683955399969E+00
   30     1 H    -2.019803435092E+00 -3.143250628151E-01 -1.716044599969E+00
   31     1 H     4.020009372621E+00  3.773253023589E+00  1.680771095969E+00
   32     1 H    -6.991585233174E+00 -2.755124698562E-01 -1.719228971969E+00
   33     1 H     5.280533332032E+00  1.591501629877E+00  1.680280883970E+00
   34     1 H    -5.731061273764E+00 -2.457263863569E+00 -1.719719115969E+00
   35     1 H    -5.278830132819E+00 -1.595795415102E+00  1.680403827970E+00
   36     1 H    -3.279066845558E+00  1.868466112236E+00 -1.719596171969E+00
   37     6 C    -1.406657469999E+00  7.511810866615E+00  1.694366131969E+00
   38     6 C     5.931058172624E-01 -4.047843606047E+00 -1.705633867969E+00
   39     6 C    -6.962529215783E-01  6.303083169182E+00  1.684445203969E+00
   40     6 C     1.303510365683E+00 -5.256571303480E+00 -1.715554795969E+00
   41     6 C     6.946483577670E-01 -6.302616789577E+00  1.683588131969E+00
   42     6 C     2.694411645028E+00 -2.838355262239E+00 -1.716411867969E+00
   43     6 C    -6.967343454658E-01 -6.303108296305E+00  1.686160163969E+00
   44     6 C     1.303028941795E+00 -2.838846768967E+00 -1.713839835969E+00
   45     6 C     6.951456604577E-01  6.303133287681E+00  1.679546143970E+00
   46     6 C     2.694908947719E+00 -5.256521184981E+00 -1.720453923969E+00
   47     6 C     1.405690045567E+00 -7.511586315706E+00  1.686282563969E+00
   48     6 C     3.405453332828E+00 -4.047324788368E+00 -1.713717435969E+00
   49     6 C     7.208801554828E+00 -2.536224332205E+00  1.705634207969E+00
   50     6 C    -3.802793050968E+00 -6.584989825651E+00 -1.694365791969E+00
   51     6 C    -5.111153228712E+00  3.755053829796E+00  1.715554863969E+00
   52     6 C    -3.111389941451E+00  7.219315357134E+00 -1.684445135969E+00
   53     6 C     5.110840426722E+00 -3.751605081545E+00  1.716412207969E+00
   54     6 C     7.110603713983E+00 -2.873435542068E-01 -1.683587791969E+00
   55     6 C     5.806803783509E+00 -2.546701261810E+00  1.713840311969E+00
   56     6 C     7.806567070770E+00  9.175602655283E-01 -1.686159755969E+00
   57     6 C    -5.806753443446E+00  2.550050343096E+00  1.720453923969E+00
   58     6 C    -3.806990156185E+00  6.014311870434E+00 -1.679546075970E+00
   59     6 C     5.802123988676E+00 -4.972026903572E+00  1.713717707969E+00
   60     6 C     7.801887275937E+00 -1.507765376234E+00 -1.686282359969E+00
   61     6 C     7.208872490681E+00  2.537402725821E+00  1.694366131969E+00
   62     6 C    -3.802722115115E+00 -1.511362767624E+00 -1.705633935969E+00
   63     6 C    -5.110731984928E+00 -3.756097852010E+00  1.684445407969E+00
   64     6 C    -3.110968697667E+00 -2.918363246721E-01 -1.715554591969E+00
   65     6 C     5.111161877036E+00  3.752788888676E+00  1.683587995969E+00
   66     6 C    -5.900432728759E+00 -2.959766047695E-01 -1.716412003969E+00
   67     6 C     5.806799678714E+00  2.547717855521E+00  1.686159959969E+00
   68     6 C    -5.204794927081E+00 -1.501047637924E+00 -1.713840039969E+00
   69     6 C    -5.806413629935E+00 -2.551149028895E+00  1.679546347970E+00
   70     6 C    -3.806650342674E+00  9.131124984424E-01 -1.720453651969E+00
   71     6 C     5.802541321242E+00  4.973056509803E+00  1.686282563969E+00
   72     6 C    -5.209053284553E+00  9.242910163573E-01 -1.713717435969E+00
   73     8 O     7.295942019035E+00  6.242748289573E-04  1.697428035969E+00
   74     8 O    -3.715652586761E+00 -4.048141218617E+00 -1.702571963969E+00
   75     8 O    -3.647325378524E+00  6.317810419730E+00  1.718616767969E+00
   76     8 O    -1.647562091263E+00 -5.241844052933E+00 -1.681383231969E+00
   77     8 O    -3.647354976468E+00 -6.318109993505E+00  1.686650035969E+00
   78     8 O    -1.647591689207E+00 -2.853848466167E+00 -1.713349963969E+00
   79     8 O     3.647398917596E+00 -6.317434015921E+00  1.697428171969E+00
   80     8 O     5.647162204857E+00 -2.853172488583E+00 -1.702571827969E+00
   81     8 O     3.647652073580E+00  6.318201622993E+00  1.718616767969E+00
   82     8 O     5.647415360841E+00 -5.241452849670E+00 -1.681383231969E+00
   83     8 O    -7.295942446637E+00 -5.563632463949E-04  1.686649967969E+00
   84     8 O    -5.296179159376E+00  3.463705164091E+00 -1.713350031969E+00

 *******************************************************************************
 STARTING BASIS SET HANDLING 
 *******************************************************************************

 Loading internal basis set: SOLDEF2MSVP         

 Please cite in your publication:
 L. Dona', J. G. Brandenburg and B. Civalleri, J. Chem. Phys., 151, 121101 (2019
 )                                                                              
                                                                                
                    

 *******************************************************************************
 LOCAL ATOMIC FUNCTIONS BASIS SET
 *******************************************************************************
   ATOM   X(AU)   Y(AU)   Z(AU)  N. TYPE  EXPONENT  S COEF   P COEF   D/F/G COEF
 *******************************************************************************
   1 B   -9.499  11.937   3.222
                                  1 S  
                                         2.410E+03 1.755E-03 0.000E+00 0.000E+00
                                         3.619E+02 1.344E-02 0.000E+00 0.000E+00
                                         8.231E+01 6.637E-02 0.000E+00 0.000E+00
                                         2.311E+01 2.303E-01 0.000E+00 0.000E+00
                                         7.252E+00 5.150E-01 0.000E+00 0.000E+00
                                  2 S  
                                         2.367E+00 1.000E+00 0.000E+00 0.000E+00
                                  3 S  
                                         5.533E-01 1.000E+00 0.000E+00 0.000E+00
                                  4 S  
                                         1.716E-01 1.000E+00 0.000E+00 0.000E+00
                           5-     7 P  
                                         6.002E+00 0.000E+00-3.555E-02 0.000E+00
                                         1.240E+00 0.000E+00-1.983E-01 0.000E+00
                                         3.367E-01 0.000E+00-5.048E-01 0.000E+00
                           8-    10 P  
                                         1.256E-01 0.000E+00 1.000E+00 0.000E+00
                          11-    15 D  
                                         8.880E-01 0.000E+00 0.000E+00 1.000E+00
   2 B   -5.720  -9.908  -3.204
   3 B   -5.588  14.195   3.222
   4 B   -1.809  -7.649  -3.204
   5 B   -9.499 -11.939   3.203
   6 B   -5.720  -5.392  -3.222
   7 B    5.588 -14.195   3.222
   8 B    9.367  -7.648  -3.204
   9 B    9.500  11.937   3.222
  10 B  -11.309   4.286  -3.204
  11 B    9.499 -11.935   3.203
  12 B   13.278  -5.389  -3.222
  13 H   -2.384  10.147   3.182
                                181 S  
                                         1.874E+01 1.968E-02 0.000E+00 0.000E+00
                                         2.826E+00 1.380E-01 0.000E+00 0.000E+00
                                         6.401E-01 4.783E-01 0.000E+00 0.000E+00
                                182 S  
                                         1.756E-01 1.000E+00 0.000E+00 0.000E+00
  14 H    1.395 -11.698  -3.243
  15 H    2.376 -10.143   3.176
  16 H    6.155  -3.596  -3.249
  17 H   -2.386 -10.148   3.175
  18 H    1.393  -3.601  -3.250
  19 H    2.379  10.145   3.176
  20 H    6.158 -11.700  -3.250
  21 H   -7.597   7.139   3.243
  22 H   -3.818  13.686  -3.182
  23 H    7.596  -7.126   3.249
  24 H   11.375  -0.580  -3.176
  25 H    9.979  -3.005   3.250
  26 H   13.758   3.541  -3.175
  27 H   -9.975   3.014   3.250
  28 H   -6.196   9.561  -3.176
  29 H   -7.596  -7.140   3.182
  30 H   -3.817  -0.594  -3.243
  31 H    7.597   7.130   3.176
  32 H  -13.212  -0.521  -3.249
  33 H    9.979   3.008   3.175
  34 H  -10.830  -4.644  -3.250
  35 H   -9.976  -3.016   3.176
  36 H   -6.197   3.531  -3.250
  37 C   -2.658  14.195   3.202
                                229 S  
                                         3.624E+03 1.634E-03 0.000E+00 0.000E+00
                                         5.440E+02 1.252E-02 0.000E+00 0.000E+00
                                         1.237E+02 6.211E-02 0.000E+00 0.000E+00
                                         3.476E+01 2.182E-01 0.000E+00 0.000E+00
                                         1.093E+01 4.980E-01 0.000E+00 0.000E+00
                                230 S  
                                         3.574E+00 1.000E+00 0.000E+00 0.000E+00
                                231 S  
                                         7.742E-01 1.000E+00 0.000E+00 0.000E+00
                                232 S  
                                         2.330E-01 1.000E+00 0.000E+00 0.000E+00
                         233-   235 P  
                                         9.443E+00 0.000E+00 3.790E-02 0.000E+00
                                         2.002E+00 0.000E+00 2.082E-01 0.000E+00
                                         5.463E-01 0.000E+00 5.047E-01 0.000E+00
                         236-   238 P  
                                         1.820E-01 0.000E+00 1.000E+00 0.000E+00
                         239-   243 D  
                                         8.880E-01 0.000E+00 0.000E+00 1.000E+00
  38 C    1.121  -7.649  -3.223
  39 C   -1.316  11.911   3.183
  40 C    2.463  -9.933  -3.242
  41 C    1.313 -11.910   3.182
  42 C    5.092  -5.364  -3.244
  43 C   -1.317 -11.911   3.186
  44 C    2.462  -5.365  -3.239
  45 C    1.314  11.911   3.174
  46 C    5.093  -9.933  -3.251
  47 C    2.656 -14.195   3.187
  48 C    6.435  -7.648  -3.238
  49 C   13.623  -4.793   3.223
  50 C   -7.186 -12.444  -3.202
  51 C   -9.659   7.096   3.242
  52 C   -5.880  13.643  -3.183
  53 C    9.658  -7.090   3.244
  54 C   13.437  -0.543  -3.182
  55 C   10.973  -4.813   3.239
  56 C   14.752   1.734  -3.186
  57 C  -10.973   4.819   3.251
  58 C   -7.194  11.365  -3.174
  59 C   10.964  -9.396   3.238
  60 C   14.743  -2.849  -3.187
  61 C   13.623   4.795   3.202
  62 C   -7.186  -2.856  -3.223
  63 C   -9.658  -7.098   3.183
  64 C   -5.879  -0.551  -3.242
  65 C    9.659   7.092   3.182
  66 C  -11.150  -0.559  -3.244
  67 C   10.973   4.814   3.186
  68 C   -9.836  -2.837  -3.239
  69 C  -10.973  -4.821   3.174
  70 C   -7.194   1.726  -3.251
  71 C   10.965   9.398   3.187
  72 C   -9.844   1.747  -3.238
  73 O   13.787   0.001   3.208
                                769 S  
                                         6.773E+03 1.727E-03 0.000E+00 0.000E+00
                                         1.017E+03 1.325E-02 0.000E+00 0.000E+00
                                         2.313E+02 6.603E-02 0.000E+00 0.000E+00
                                         6.501E+01 2.353E-01 0.000E+00 0.000E+00
                                         2.050E+01 5.498E-01 0.000E+00 0.000E+00
                                770 S  
                                         6.716E+00 1.000E+00 0.000E+00 0.000E+00
                                771 S  
                                         1.147E+00 1.000E+00 0.000E+00 0.000E+00
                                772 S  
                                         3.342E-01 1.000E+00 0.000E+00 0.000E+00
                         773-   775 P  
                                         1.769E+01 0.000E+00 4.359E-02 0.000E+00
                                         3.854E+00 0.000E+00 2.318E-01 0.000E+00
                                         1.047E+00 0.000E+00 5.146E-01 0.000E+00
                         776-   778 P  
                                         2.759E-01 0.000E+00 1.000E+00 0.000E+00
                         779-   783 D  
                                         8.000E-01 0.000E+00 0.000E+00 1.000E+00
  74 O   -7.022  -7.650  -3.217
  75 O   -6.892  11.939   3.248
  76 O   -3.113  -9.906  -3.177
  77 O   -6.893 -11.939   3.187
  78 O   -3.113  -5.393  -3.238
  79 O    6.893 -11.938   3.208
  80 O   10.672  -5.392  -3.217
  81 O    6.893  11.940   3.248
  82 O   10.672  -9.905  -3.177
  83 O  -13.787  -0.001   3.187
  84 O  -10.008   6.545  -3.238

 *******************************************************************************
 FINISHED BASIS SET HANDLING 
 *******************************************************************************

 INFORMATION **** SET_MPP **** PCRYSTAL CALCULATION
 INFORMATION **** READM2 **** NEW DEFAULT: FOCK/KS MATRIX MIXING SET TO 30 %
 INFORMATION **** READM2 **** NEW DEFAULT: FULL DIRECT SCF MODE
 INFORMATION **** READM2 **** NEW DEFAULT: COULOMB BIPOLAR BUFFER SET TO 32 Mb
 INFORMATION **** READM2 **** NEW DEFAULT: EXCHANGE BIPOLAR BUFFER SET TO 32 Mb

 *******************************************************************************
 NEW DEFAULT: DFT INTEGRATION GRID INCREASED TO XLGRID
 NEW DEFAULT: DIIS ACCELERATOR ACTIVE
 USE KEYWORD NODIIS TO TURN IT OFF
 *******************************************************************************

 WARNING **** RDDFTP **** HSEsol-HJS ACTIVE
 RANGE SEPARATION - OMEGA:   0.110000000000000     
 WARNING **** RDDFTP **** HSEsol-3c has to be combined with sol-def2-mSVP basis set
 *******************************************************************************
 N. OF ATOMS PER CELL        84  COULOMB OVERLAP TOL         (T1) 10**   -6
 NUMBER OF SHELLS           468  COULOMB PENETRATION TOL     (T2) 10**   -6
 NUMBER OF AO               948  EXCHANGE OVERLAP TOL        (T3) 10**   -6
 N. OF ELECTRONS PER CELL   396  EXCHANGE PSEUDO OVP (F(G))  (T4) 10**   -6
 CORE ELECTRONS PER CELL    120  EXCHANGE PSEUDO OVP (P(G))  (T5) 10**  -12
 N. OF SYMMETRY OPERATORS     1  POLE ORDER IN MONO ZONE                  4
 *******************************************************************************
 TYPE OF CALCULATION :  RESTRICTED CLOSED SHELL
 KOHN-SHAM HAMILTONIAN

 (EXCHANGE)[CORRELATION] FUNCTIONAL:(HSEsol GGA)[PBEsol]

 RANGE-SEPARATED HYBRID FUNCTIONAL 
 OMEGA (SHORT-RANGE)[LONG-RANGE]:(    0.1100)[    0.0000]

 HYBRID EXCHANGE - PERCENTAGE OF FOCK EXCHANGE    25.0000

 CAPPA:IS1  2;IS2  2;IS3  8; K PTS MONK NET  20; SYMMOPS:K SPACE   2;G SPACE   1

 *******************************************************************************
 MAX NUMBER OF SCF CYCLES      50  CONVERGENCE ON DELTAP        10**-16
 WEIGHT OF F(I) IN F(I+1)      30% CONVERGENCE ON ENERGY        10**- 6
 SHRINK. FACT.(MONKH.)    2  2  8  NUMBER OF K POINTS IN THE IBZ     20
 SHRINKING FACTOR(GILAT NET)    8  NUMBER OF K POINTS(GILAT NET)   1028
 *******************************************************************************
 *** K POINTS COORDINATES (OBLIQUE COORDINATES IN UNITS OF IS =  2)
   1-R(  0  0  0)   2-R(  1  0  0)   3-R(  0  1  0)   4-R(  1  1  0)
   5-C(  0  0  1)   6-C(  1  0  1)   7-C(  0  1  1)   8-C(  1  1  1)
   9-C(  0  0  2)  10-C(  1  0  2)  11-C(  0  1  2)  12-C(  1  1  2)
  13-C(  0  0  3)  14-C(  1  0  3)  15-C(  0  1  3)  16-C(  1  1  3)
  17-R(  0  0  4)  18-R(  1  0  4)  19-R(  0  1  4)  20-R(  1  1  4)

 DIRECT LATTICE VECTORS COMPON. (A.U.)     RECIP. LATTICE VECTORS COMPON. (A.U.) 
        X            Y            Z              X            Y            Z
   24.5879030  -14.1935232    0.0000000      0.2555397    0.0000000    0.0000005
    0.0000000   28.3910867    0.0000000      0.1277517    0.2213084    0.0000015
   -0.0000273   -0.0000724   12.8501377      0.0000000    0.0000000    0.4889586

 DISK SPACE FOR EIGENVECTORS (FTN 10)    28758528 REALS

 SYMMETRY ADAPTION OF THE BLOCH FUNCTIONS DISABLED
 TTTTTTTTTTTTTTTTTTTTTTTTTTTTTT gordsh1     TELAPSE        0.05 TCPU        0.05

 MATRIX SIZE: P(G)  756080, F(G)  146712, P(G) IRR  380098, F(G) IRR  147744
 MAX G-VECTOR INDEX FOR 1- AND 2-ELECTRON INTEGRALS  55

 TTTTTTTTTTTTTTTTTTTTTTTTTTTTTT INPUT       TELAPSE        2.81 TCPU        2.81

 NEIGHBORS OF THE NON-EQUIVALENT ATOMS

 N = NUMBER OF NEIGHBORS AT DISTANCE R
    ATOM  N     R/ANG      R/AU   NEIGHBORS (ATOM LABELS AND CELL INDICES)
   1 B    1     1.3791     2.6061   73 O   -1 0 0
   1 B    1     1.3793     2.6065   75 O    0 0 0
   1 B    1     1.5503     2.9297   49 C   -1 0 0
   1 B    1     2.3895     4.5155    5 B    0 1 0
   1 B    1     2.3898     4.5160    3 B    0 0 0
   1 B    1     2.5632     4.8437   51 C    0 0 0

   2 B    1     1.3791     2.6061   74 O    0 0 0
   2 B    1     1.3793     2.6065   76 O    0 0 0
   2 B    1     1.5503     2.9297   50 C    0 0 0
   2 B    1     2.3895     4.5155    6 B    0 0 0
   2 B    1     2.3898     4.5160    4 B    0 0 0
   2 B    1     2.5632     4.8437   52 C    0-1 0

   3 B    1     1.3793     2.6065   77 O    0 1 0
   3 B    1     1.3793     2.6065   75 O    0 0 0
   3 B    1     1.5504     2.9298   37 C    0 0 0
   3 B    1     2.3895     4.5156    5 B    0 1 0
   3 B    1     2.3898     4.5160    1 B    0 0 0
   3 B    1     2.5634     4.8440   43 C    0 1 0

   4 B    1     1.3793     2.6065   78 O    0 0 0
   4 B    1     1.3793     2.6065   76 O    0 0 0
   4 B    1     1.5504     2.9298   38 C    0 0 0
   4 B    1     2.3895     4.5156    6 B    0 0 0
   4 B    1     2.3898     4.5160    2 B    0 0 0
   4 B    1     2.5634     4.8440   44 C    0 0 0

   5 B    1     1.3791     2.6061   73 O   -1-1 0
   5 B    1     1.3793     2.6064   77 O    0 0 0
   5 B    1     1.5502     2.9294   61 C   -1-1 0
   5 B    1     2.3895     4.5155    1 B    0-1 0
   5 B    1     2.3895     4.5156    3 B    0-1 0
   5 B    1     2.5629     4.8433   63 C    0 0 0

   6 B    1     1.3791     2.6061   74 O    0 0 0
   6 B    1     1.3793     2.6064   78 O    0 0 0
   6 B    1     1.5502     2.9294   62 C    0 0 0
   6 B    1     2.3895     4.5155    2 B    0 0 0
   6 B    1     2.3895     4.5156    4 B    0 0 0
   6 B    1     2.5629     4.8433   64 C    0 0 0

   7 B    1     1.3795     2.6068   79 O    0 0 0
   7 B    1     1.3795     2.6070   81 O    0-1 0
   7 B    1     1.5513     2.9316   47 C    0 0 0
   7 B    1     2.3905     4.5174   11 B    0 0 0
   7 B    1     2.3905     4.5175    9 B    0-1 0
   7 B    1     2.5648     4.8468   45 C    0-1 0

   8 B    1     1.3795     2.6068   80 O    0 0 0
   8 B    1     1.3795     2.6070   82 O    0 0 0
   8 B    1     1.5513     2.9316   48 C    0 0 0
   8 B    1     2.3905     4.5174   12 B    0 0 0
   8 B    1     2.3905     4.5175   10 B    1 0 0
   8 B    1     2.5648     4.8468   46 C    0 0 0

   9 B    1     1.3795     2.6069   81 O    0 0 0
   9 B    1     1.3797     2.6072   83 O    1 1 0
   9 B    1     1.5516     2.9322   71 C    0 0 0
   9 B    1     2.3905     4.5175    7 B    0 1 0
   9 B    1     2.3911     4.5185   11 B    0 1 0
   9 B    1     2.5651     4.8473   69 C    1 1 0

  10 B    1     1.3795     2.6069   82 O   -1 0 0
  10 B    1     1.3797     2.6072   84 O    0 0 0
  10 B    1     1.5516     2.9322   72 C    0 0 0
  10 B    1     2.3905     4.5175    8 B   -1 0 0
  10 B    1     2.3911     4.5185   12 B   -1 0 0
  10 B    1     2.5651     4.8473   70 C    0 0 0

  11 B    1     1.3795     2.6068   79 O    0 0 0
  11 B    1     1.3796     2.6071   83 O    1 0 0
  11 B    1     1.5516     2.9322   59 C    0 0 0
  11 B    1     2.3905     4.5174    7 B    0 0 0
  11 B    1     2.3911     4.5185    9 B    0-1 0
  11 B    1     2.5651     4.8473   57 C    1 0 0

  12 B    1     1.3795     2.6068   80 O    0 0 0
  12 B    1     1.3796     2.6071   84 O    1 0 0
  12 B    1     1.5516     2.9322   60 C    0 0 0
  12 B    1     2.3905     4.5174    8 B    0 0 0
  12 B    1     2.3911     4.5185   10 B    1 0 0
  12 B    1     2.5651     4.8473   58 C    1 0 0

  13 H    1     1.0913     2.0623   39 C    0 0 0
  13 H    1     2.1472     4.0576   37 C    0 0 0
  13 H    1     2.1680     4.0969   45 C    0 0 0
  13 H    1     2.5202     4.7625   19 H    0 0 0
  13 H    1     2.5676     4.8520   75 O    0 0 0
  13 H    1     2.7321     5.1630    3 B    0 0 0

  14 H    1     1.0913     2.0623   40 C    0 0 0
  14 H    1     2.1472     4.0576   38 C    0 0 0
  14 H    1     2.1680     4.0969   46 C    0 0 0
  14 H    1     2.5202     4.7625   20 H    0 0 0
  14 H    1     2.5676     4.8520   76 O    0 0 0
  14 H    1     2.7321     5.1630    4 B    0 0 0

  15 H    1     1.0914     2.0625   41 C    0 0 0
  15 H    1     2.1493     4.0616   47 C    0 0 0
  15 H    1     2.1666     4.0942   43 C    0 0 0
  15 H    1     2.5198     4.7618   17 H    0 0 0
  15 H    1     2.5720     4.8604   79 O    0 0 0
  15 H    1     2.7362     5.1707    7 B    0 0 0

  16 H    1     1.0914     2.0625   42 C    0 0 0
  16 H    1     2.1493     4.0616   48 C    0 0 0
  16 H    1     2.1666     4.0942   44 C    0 0 0
  16 H    1     2.5198     4.7618   18 H    0 0 0
  16 H    1     2.5720     4.8604   80 O    0 0 0
  16 H    1     2.7362     5.1707    8 B    0 0 0

  17 H    1     1.0914     2.0624   43 C    0 0 0
  17 H    1     2.1471     4.0575   37 C    0-1 0
  17 H    1     2.1680     4.0970   41 C    0 0 0
  17 H    1     2.5198     4.7618   15 H    0 0 0
  17 H    1     2.5665     4.8500   77 O    0 0 0
  17 H    1     2.7315     5.1618    3 B    0-1 0

  18 H    1     1.0914     2.0624   44 C    0 0 0
  18 H    1     2.1471     4.0575   38 C    0 0 0
  18 H    1     2.1680     4.0970   42 C    0 0 0
  18 H    1     2.5198     4.7618   16 H    0 0 0
  18 H    1     2.5665     4.8500   78 O    0 0 0
  18 H    1     2.7315     5.1618    4 B    0 0 0

  19 H    1     1.0915     2.0626   45 C    0 0 0
  19 H    1     2.1490     4.0610   47 C    0 1 0
  19 H    1     2.1669     4.0948   39 C    0 0 0
  19 H    1     2.5202     4.7625   13 H    0 0 0
  19 H    1     2.5712     4.8588   81 O    0 0 0
  19 H    1     2.7351     5.1686    7 B    0 1 0

  20 H    1     1.0915     2.0626   46 C    0 0 0
  20 H    1     2.1490     4.0610   48 C    0 0 0
  20 H    1     2.1669     4.0948   40 C    0 0 0
  20 H    1     2.5202     4.7625   14 H    0 0 0
  20 H    1     2.5712     4.8588   82 O    0 0 0
  20 H    1     2.7351     5.1686    8 B    0 0 0

  21 H    1     1.0913     2.0623   51 C    0 0 0
  21 H    1     2.1469     4.0571   49 C   -1 0 0
  21 H    1     2.1680     4.0968   57 C    0 0 0
  21 H    1     2.5198     4.7617   27 H    0 0 0
  21 H    1     2.5670     4.8510   75 O    0 0 0
  21 H    1     2.7310     5.1609    1 B    0 0 0

  22 H    1     1.0913     2.0623   52 C    0 0 0
  22 H    1     2.1469     4.0571   50 C    0 1 0
  22 H    1     2.1680     4.0968   58 C    0 0 0
  22 H    1     2.5198     4.7617   28 H    0 0 0
  22 H    1     2.5670     4.8510   76 O    0 1 0
  22 H    1     2.7310     5.1609    2 B    0 1 0

  23 H    1     1.0914     2.0625   53 C    0 0 0
  23 H    1     2.1493     4.0617   59 C    0 0 0
  23 H    1     2.1664     4.0939   55 C    0 0 0
  23 H    1     2.5192     4.7606   25 H    0 0 0
  23 H    1     2.5735     4.8632   79 O    0 0 0
  23 H    1     2.7371     5.1723   11 B    0 0 0

  24 H    1     1.0914     2.0625   54 C    0 0 0
  24 H    1     2.1493     4.0617   60 C    0 0 0
  24 H    1     2.1664     4.0939   56 C    0 0 0
  24 H    1     2.5192     4.7606   26 H    0 0 0
  24 H    1     2.5735     4.8632   80 O    0 0 0
  24 H    1     2.7371     5.1723   12 B    0 0 0

  25 H    1     1.0914     2.0624   55 C    0 0 0
  25 H    1     2.1475     4.0581   49 C    0 0 0
  25 H    1     2.1679     4.0967   53 C    0 0 0
  25 H    1     2.5192     4.7606   23 H    0 0 0
  25 H    1     2.5675     4.8519   73 O    0 0 0
  25 H    1     2.7328     5.1643    1 B    1 0 0

  26 H    1     1.0914     2.0624   56 C    0 0 0
  26 H    1     2.1475     4.0581   50 C    1 1 0
  26 H    1     2.1679     4.0967   54 C    0 0 0
  26 H    1     2.5192     4.7606   24 H    0 0 0
  26 H    1     2.5675     4.8519   74 O    1 1 0
  26 H    1     2.7328     5.1643    2 B    1 1 0

  27 H    1     1.0914     2.0625   57 C    0 0 0
  27 H    1     2.1491     4.0612   59 C   -1 0 0
  27 H    1     2.1666     4.0942   51 C    0 0 0
  27 H    1     2.5198     4.7617   21 H    0 0 0
  27 H    1     2.5723     4.8609   83 O    0 0 0
  27 H    1     2.7355     5.1693   11 B   -1 0 0

  28 H    1     1.0914     2.0625   58 C    0 0 0
  28 H    1     2.1491     4.0612   60 C   -1 0 0
  28 H    1     2.1666     4.0942   52 C    0 0 0
  28 H    1     2.5198     4.7617   22 H    0 0 0
  28 H    1     2.5723     4.8609   84 O    0 0 0
  28 H    1     2.7355     5.1693   12 B   -1 0 0

  29 H    1     1.0914     2.0624   63 C    0 0 0
  29 H    1     2.1475     4.0582   61 C   -1-1 0
  29 H    1     2.1678     4.0966   69 C    0 0 0
  29 H    1     2.5200     4.7621   35 H    0 0 0
  29 H    1     2.5667     4.8503   77 O    0 0 0
  29 H    1     2.7315     5.1618    5 B    0 0 0

  30 H    1     1.0914     2.0624   64 C    0 0 0
  30 H    1     2.1475     4.0582   62 C    0 0 0
  30 H    1     2.1678     4.0966   70 C    0 0 0
  30 H    1     2.5200     4.7621   36 H    0 0 0
  30 H    1     2.5667     4.8503   78 O    0 0 0
  30 H    1     2.7315     5.1618    6 B    0 0 0

  31 H    1     1.0913     2.0623   65 C    0 0 0
  31 H    1     2.1487     4.0605   71 C    0 0 0
  31 H    1     2.1667     4.0945   67 C    0 0 0
  31 H    1     2.5197     4.7616   33 H    0 0 0
  31 H    1     2.5723     4.8610   81 O    0 0 0
  31 H    1     2.7359     5.1701    9 B    0 0 0

  32 H    1     1.0913     2.0623   66 C    0 0 0
  32 H    1     2.1487     4.0605   72 C    0 0 0
  32 H    1     2.1667     4.0945   68 C    0 0 0
  32 H    1     2.5197     4.7616   34 H    0 0 0
  32 H    1     2.5723     4.8610   82 O   -1 0 0
  32 H    1     2.7359     5.1701   10 B    0 0 0

  33 H    1     1.0915     2.0626   67 C    0 0 0
  33 H    1     2.1479     4.0589   61 C    0 0 0
  33 H    1     2.1679     4.0968   65 C    0 0 0
  33 H    1     2.5197     4.7616   31 H    0 0 0
  33 H    1     2.5677     4.8522   73 O    0 0 0
  33 H    1     2.7331     5.1648    5 B    1 1 0

  34 H    1     1.0915     2.0626   68 C    0 0 0
  34 H    1     2.1479     4.0589   62 C    0 0 0
  34 H    1     2.1679     4.0968   66 C    0 0 0
  34 H    1     2.5197     4.7616   32 H    0 0 0
  34 H    1     2.5677     4.8522   74 O    0 0 0
  34 H    1     2.7331     5.1648    6 B    0 0 0

  35 H    1     1.0914     2.0624   69 C    0 0 0
  35 H    1     2.1486     4.0602   71 C   -1-1 0
  35 H    1     2.1668     4.0947   63 C    0 0 0
  35 H    1     2.5200     4.7621   29 H    0 0 0
  35 H    1     2.5717     4.8598   83 O    0 0 0
  35 H    1     2.7349     5.1682    9 B   -1-1 0

  36 H    1     1.0914     2.0624   70 C    0 0 0
  36 H    1     2.1486     4.0602   72 C    0 0 0
  36 H    1     2.1668     4.0947   64 C    0 0 0
  36 H    1     2.5200     4.7621   30 H    0 0 0
  36 H    1     2.5717     4.8598   84 O    0 0 0
  36 H    1     2.7349     5.1682   10 B    0 0 0

  37 C    1     1.4020     2.6495   43 C    0 1 0
  37 C    1     1.4021     2.6495   39 C    0 0 0
  37 C    1     1.5504     2.9298    3 B    0 0 0
  37 C    1     2.1471     4.0575   17 H    0 1 0
  37 C    1     2.1472     4.0576   13 H    0 0 0
  37 C    1     2.4246     4.5817   41 C    0 1 0

  38 C    1     1.4020     2.6495   44 C    0 0 0
  38 C    1     1.4021     2.6495   40 C    0 0 0
  38 C    1     1.5504     2.9298    4 B    0 0 0
  38 C    1     2.1471     4.0575   18 H    0 0 0
  38 C    1     2.1472     4.0576   14 H    0 0 0
  38 C    1     2.4246     4.5817   42 C    0 0 0

  39 C    1     1.0913     2.0623   13 H    0 0 0
  39 C    1     1.3914     2.6294   45 C    0 0 0
  39 C    1     1.4021     2.6495   37 C    0 0 0
  39 C    1     2.1669     4.0948   19 H    0 0 0
  39 C    1     2.4177     4.5688   43 C    0 1 0
  39 C    1     2.4250     4.5825   47 C    0 1 0

  40 C    1     1.0913     2.0623   14 H    0 0 0
  40 C    1     1.3914     2.6294   46 C    0 0 0
  40 C    1     1.4021     2.6495   38 C    0 0 0
  40 C    1     2.1669     4.0948   20 H    0 0 0
  40 C    1     2.4177     4.5688   44 C    0 0 0
  40 C    1     2.4250     4.5825   48 C    0 0 0

  41 C    1     1.0914     2.0625   15 H    0 0 0
  41 C    1     1.3914     2.6293   43 C    0 0 0
  41 C    1     1.4026     2.6505   47 C    0 0 0
  41 C    1     2.1680     4.0970   17 H    0 0 0
  41 C    1     2.4182     4.5697   45 C    0-1 0
  41 C    1     2.4246     4.5817   37 C    0-1 0

  42 C    1     1.0914     2.0625   16 H    0 0 0
  42 C    1     1.3914     2.6293   44 C    0 0 0
  42 C    1     1.4026     2.6505   48 C    0 0 0
  42 C    1     2.1680     4.0970   18 H    0 0 0
  42 C    1     2.4182     4.5697   46 C    0 0 0
  42 C    1     2.4246     4.5817   38 C    0 0 0

  43 C    1     1.0914     2.0624   17 H    0 0 0
  43 C    1     1.3914     2.6293   41 C    0 0 0
  43 C    1     1.4020     2.6495   37 C    0-1 0
  43 C    1     2.1666     4.0942   15 H    0 0 0
  43 C    1     2.4177     4.5688   39 C    0-1 0
  43 C    1     2.4250     4.5826   47 C    0 0 0

  44 C    1     1.0914     2.0624   18 H    0 0 0
  44 C    1     1.3914     2.6293   42 C    0 0 0
  44 C    1     1.4020     2.6495   38 C    0 0 0
  44 C    1     2.1666     4.0942   16 H    0 0 0
  44 C    1     2.4177     4.5688   40 C    0 0 0
  44 C    1     2.4250     4.5826   48 C    0 0 0

  45 C    1     1.0915     2.0626   19 H    0 0 0
  45 C    1     1.3914     2.6294   39 C    0 0 0
  45 C    1     1.4025     2.6504   47 C    0 1 0
  45 C    1     2.1680     4.0969   13 H    0 0 0
  45 C    1     2.4182     4.5697   41 C    0 1 0
  45 C    1     2.4246     4.5818   37 C    0 0 0

  46 C    1     1.0915     2.0626   20 H    0 0 0
  46 C    1     1.3914     2.6294   40 C    0 0 0
  46 C    1     1.4025     2.6504   48 C    0 0 0
  46 C    1     2.1680     4.0969   14 H    0 0 0
  46 C    1     2.4182     4.5697   42 C    0 0 0
  46 C    1     2.4246     4.5818   38 C    0 0 0

  47 C    1     1.4025     2.6504   45 C    0-1 0
  47 C    1     1.4026     2.6505   41 C    0 0 0
  47 C    1     1.5513     2.9316    7 B    0 0 0
  47 C    1     2.1490     4.0610   19 H    0-1 0
  47 C    1     2.1493     4.0616   15 H    0 0 0
  47 C    1     2.4250     4.5825   39 C    0-1 0

  48 C    1     1.4025     2.6504   46 C    0 0 0
  48 C    1     1.4026     2.6505   42 C    0 0 0
  48 C    1     1.5513     2.9316    8 B    0 0 0
  48 C    1     2.1490     4.0610   20 H    0 0 0
  48 C    1     2.1493     4.0616   16 H    0 0 0
  48 C    1     2.4250     4.5825   40 C    0 0 0

  49 C    1     1.4020     2.6494   51 C    1 0 0
  49 C    1     1.4021     2.6495   55 C    0 0 0
  49 C    1     1.5503     2.9297    1 B    1 0 0
  49 C    1     2.1469     4.0571   21 H    1 0 0
  49 C    1     2.1475     4.0581   25 H    0 0 0
  49 C    1     2.4246     4.5818   53 C    0 0 0

  50 C    1     1.4020     2.6494   52 C    0-1 0
  50 C    1     1.4021     2.6495   56 C   -1-1 0
  50 C    1     1.5503     2.9297    2 B    0 0 0
  50 C    1     2.1469     4.0571   22 H    0-1 0
  50 C    1     2.1475     4.0581   26 H   -1-1 0
  50 C    1     2.4246     4.5818   54 C   -1-1 0

  51 C    1     1.0913     2.0623   21 H    0 0 0
  51 C    1     1.3914     2.6293   57 C    0 0 0
  51 C    1     1.4020     2.6494   49 C   -1 0 0
  51 C    1     2.1666     4.0942   27 H    0 0 0
  51 C    1     2.4175     4.5684   55 C   -1 0 0
  51 C    1     2.4251     4.5828   59 C   -1 0 0

  52 C    1     1.0913     2.0623   22 H    0 0 0
  52 C    1     1.3914     2.6293   58 C    0 0 0
  52 C    1     1.4020     2.6494   50 C    0 1 0
  52 C    1     2.1666     4.0942   28 H    0 0 0
  52 C    1     2.4175     4.5684   56 C   -1 0 0
  52 C    1     2.4251     4.5828   60 C   -1 0 0

  53 C    1     1.0914     2.0625   23 H    0 0 0
  53 C    1     1.3915     2.6295   55 C    0 0 0
  53 C    1     1.4026     2.6505   59 C    0 0 0
  53 C    1     2.1679     4.0967   25 H    0 0 0
  53 C    1     2.4179     4.5691   57 C    1 0 0
  53 C    1     2.4246     4.5818   49 C    0 0 0

  54 C    1     1.0914     2.0625   24 H    0 0 0
  54 C    1     1.3915     2.6295   56 C    0 0 0
  54 C    1     1.4026     2.6505   60 C    0 0 0
  54 C    1     2.1679     4.0967   26 H    0 0 0
  54 C    1     2.4179     4.5691   58 C    1 0 0
  54 C    1     2.4246     4.5818   50 C    1 1 0

  55 C    1     1.0914     2.0624   25 H    0 0 0
  55 C    1     1.3915     2.6295   53 C    0 0 0
  55 C    1     1.4021     2.6495   49 C    0 0 0
  55 C    1     2.1664     4.0939   23 H    0 0 0
  55 C    1     2.4175     4.5684   51 C    1 0 0
  55 C    1     2.4253     4.5832   59 C    0 0 0

  56 C    1     1.0914     2.0624   26 H    0 0 0
  56 C    1     1.3915     2.6295   54 C    0 0 0
  56 C    1     1.4021     2.6495   50 C    1 1 0
  56 C    1     2.1664     4.0939   24 H    0 0 0
  56 C    1     2.4175     4.5684   52 C    1 0 0
  56 C    1     2.4253     4.5832   60 C    0 0 0

  57 C    1     1.0914     2.0625   27 H    0 0 0
  57 C    1     1.3914     2.6293   51 C    0 0 0
  57 C    1     1.4025     2.6504   59 C   -1 0 0
  57 C    1     2.1680     4.0968   21 H    0 0 0
  57 C    1     2.4179     4.5691   53 C   -1 0 0
  57 C    1     2.4247     4.5819   49 C   -1 0 0

  58 C    1     1.0914     2.0625   28 H    0 0 0
  58 C    1     1.3914     2.6293   52 C    0 0 0
  58 C    1     1.4025     2.6504   60 C   -1 0 0
  58 C    1     2.1680     4.0968   22 H    0 0 0
  58 C    1     2.4179     4.5691   54 C   -1 0 0
  58 C    1     2.4247     4.5819   50 C    0 1 0

  59 C    1     1.4025     2.6504   57 C    1 0 0
  59 C    1     1.4026     2.6505   53 C    0 0 0
  59 C    1     1.5516     2.9322   11 B    0 0 0
  59 C    1     2.1491     4.0612   27 H    1 0 0
  59 C    1     2.1493     4.0617   23 H    0 0 0
  59 C    1     2.4251     4.5828   51 C    1 0 0

  60 C    1     1.4025     2.6504   58 C    1 0 0
  60 C    1     1.4026     2.6505   54 C    0 0 0
  60 C    1     1.5516     2.9322   12 B    0 0 0
  60 C    1     2.1491     4.0612   28 H    1 0 0
  60 C    1     2.1493     4.0617   24 H    0 0 0
  60 C    1     2.4251     4.5828   52 C    1 0 0

  61 C    1     1.4021     2.6496   63 C    1 1 0
  61 C    1     1.4021     2.6497   67 C    0 0 0
  61 C    1     1.5502     2.9294    5 B    1 1 0
  61 C    1     2.1475     4.0582   29 H    1 1 0
  61 C    1     2.1479     4.0589   33 H    0 0 0
  61 C    1     2.4244     4.5814   65 C    0 0 0

  62 C    1     1.4021     2.6496   64 C    0 0 0
  62 C    1     1.4021     2.6497   68 C    0 0 0
  62 C    1     1.5502     2.9294    6 B    0 0 0
  62 C    1     2.1475     4.0582   30 H    0 0 0
  62 C    1     2.1479     4.0589   34 H    0 0 0
  62 C    1     2.4244     4.5814   66 C    0 0 0

  63 C    1     1.0914     2.0624   29 H    0 0 0
  63 C    1     1.3914     2.6293   69 C    0 0 0
  63 C    1     1.4021     2.6496   61 C   -1-1 0
  63 C    1     2.1668     4.0947   35 H    0 0 0
  63 C    1     2.4179     4.5692   67 C   -1-1 0
  63 C    1     2.4251     4.5827   71 C   -1-1 0

  64 C    1     1.0914     2.0624   30 H    0 0 0
  64 C    1     1.3914     2.6293   70 C    0 0 0
  64 C    1     1.4021     2.6496   62 C    0 0 0
  64 C    1     2.1668     4.0947   36 H    0 0 0
  64 C    1     2.4179     4.5692   68 C    0 0 0
  64 C    1     2.4251     4.5827   72 C    0 0 0

  65 C    1     1.0913     2.0623   31 H    0 0 0
  65 C    1     1.3914     2.6294   67 C    0 0 0
  65 C    1     1.4025     2.6504   71 C    0 0 0
  65 C    1     2.1679     4.0968   33 H    0 0 0
  65 C    1     2.4178     4.5690   69 C    1 1 0
  65 C    1     2.4244     4.5814   61 C    0 0 0

  66 C    1     1.0913     2.0623   32 H    0 0 0
  66 C    1     1.3914     2.6294   68 C    0 0 0
  66 C    1     1.4025     2.6504   72 C    0 0 0
  66 C    1     2.1679     4.0968   34 H    0 0 0
  66 C    1     2.4178     4.5690   70 C    0 0 0
  66 C    1     2.4244     4.5814   62 C    0 0 0

  67 C    1     1.0915     2.0626   33 H    0 0 0
  67 C    1     1.3914     2.6294   65 C    0 0 0
  67 C    1     1.4021     2.6497   61 C    0 0 0
  67 C    1     2.1667     4.0945   31 H    0 0 0
  67 C    1     2.4179     4.5692   63 C    1 1 0
  67 C    1     2.4253     4.5832   71 C    0 0 0

  68 C    1     1.0915     2.0626   34 H    0 0 0
  68 C    1     1.3914     2.6294   66 C    0 0 0
  68 C    1     1.4021     2.6497   62 C    0 0 0
  68 C    1     2.1667     4.0945   32 H    0 0 0
  68 C    1     2.4179     4.5692   64 C    0 0 0
  68 C    1     2.4253     4.5832   72 C    0 0 0

  69 C    1     1.0914     2.0624   35 H    0 0 0
  69 C    1     1.3914     2.6293   63 C    0 0 0
  69 C    1     1.4025     2.6503   71 C   -1-1 0
  69 C    1     2.1678     4.0966   29 H    0 0 0
  69 C    1     2.4178     4.5690   65 C   -1-1 0
  69 C    1     2.4245     4.5817   61 C   -1-1 0

  70 C    1     1.0914     2.0624   36 H    0 0 0
  70 C    1     1.3914     2.6293   64 C    0 0 0
  70 C    1     1.4025     2.6503   72 C    0 0 0
  70 C    1     2.1678     4.0966   30 H    0 0 0
  70 C    1     2.4178     4.5690   66 C    0 0 0
  70 C    1     2.4245     4.5817   62 C    0 0 0

  71 C    1     1.4025     2.6503   69 C    1 1 0
  71 C    1     1.4025     2.6504   65 C    0 0 0
  71 C    1     1.5516     2.9322    9 B    0 0 0
  71 C    1     2.1486     4.0602   35 H    1 1 0
  71 C    1     2.1487     4.0605   31 H    0 0 0
  71 C    1     2.4251     4.5827   63 C    1 1 0

  72 C    1     1.4025     2.6503   70 C    0 0 0
  72 C    1     1.4025     2.6504   66 C    0 0 0
  72 C    1     1.5516     2.9322   10 B    0 0 0
  72 C    1     2.1486     4.0602   36 H    0 0 0
  72 C    1     2.1487     4.0605   32 H    0 0 0
  72 C    1     2.4251     4.5827   64 C    0 0 0

  73 O    1     1.3791     2.6061    1 B    1 0 0
  73 O    1     1.3791     2.6061    5 B    1 1 0
  73 O    1     2.3880     4.5126   75 O    1 0 0
  73 O    1     2.3882     4.5130   77 O    1 1 0
  73 O    1     2.5383     4.7966   61 C    0 0 0
  73 O    1     2.5384     4.7968   49 C    0 0 0

  74 O    1     1.3791     2.6061    2 B    0 0 0
  74 O    1     1.3791     2.6061    6 B    0 0 0
  74 O    1     2.3880     4.5126   76 O    0 0 0
  74 O    1     2.3882     4.5130   78 O    0 0 0
  74 O    1     2.5383     4.7966   62 C    0 0 0
  74 O    1     2.5384     4.7968   50 C    0 0 0

  75 O    1     1.3793     2.6065    1 B    0 0 0
  75 O    1     1.3793     2.6065    3 B    0 0 0
  75 O    1     2.3880     4.5126   73 O   -1 0 0
  75 O    1     2.3882     4.5131   77 O    0 1 0
  75 O    1     2.5391     4.7981   37 C    0 0 0
  75 O    1     2.5395     4.7990   49 C   -1 0 0

  76 O    1     1.3793     2.6065    2 B    0 0 0
  76 O    1     1.3793     2.6065    4 B    0 0 0
  76 O    1     2.3880     4.5126   74 O    0 0 0
  76 O    1     2.3882     4.5131   78 O    0 0 0
  76 O    1     2.5391     4.7981   38 C    0 0 0
  76 O    1     2.5395     4.7990   50 C    0 0 0

  77 O    1     1.3793     2.6064    5 B    0 0 0
  77 O    1     1.3793     2.6065    3 B    0-1 0
  77 O    1     2.3882     4.5130   73 O   -1-1 0
  77 O    1     2.3882     4.5131   75 O    0-1 0
  77 O    1     2.5390     4.7980   37 C    0-1 0
  77 O    1     2.5391     4.7982   61 C   -1-1 0

  78 O    1     1.3793     2.6064    6 B    0 0 0
  78 O    1     1.3793     2.6065    4 B    0 0 0
  78 O    1     2.3882     4.5130   74 O    0 0 0
  78 O    1     2.3882     4.5131   76 O    0 0 0
  78 O    1     2.5390     4.7980   38 C    0 0 0
  78 O    1     2.5391     4.7982   62 C    0 0 0

  79 O    1     1.3795     2.6068   11 B    0 0 0
  79 O    1     1.3795     2.6068    7 B    0 0 0
  79 O    1     2.3880     4.5126   83 O    1 0 0
  79 O    1     2.3884     4.5134   81 O    0-1 0
  79 O    1     2.5400     4.7998   47 C    0 0 0
  79 O    1     2.5403     4.8005   59 C    0 0 0

  80 O    1     1.3795     2.6068   12 B    0 0 0
  80 O    1     1.3795     2.6068    8 B    0 0 0
  80 O    1     2.3880     4.5126   84 O    1 0 0
  80 O    1     2.3884     4.5134   82 O    0 0 0
  80 O    1     2.5400     4.7998   48 C    0 0 0
  80 O    1     2.5403     4.8005   60 C    0 0 0

  81 O    1     1.3795     2.6069    9 B    0 0 0
  81 O    1     1.3795     2.6070    7 B    0 1 0
  81 O    1     2.3881     4.5128   83 O    1 1 0
  81 O    1     2.3884     4.5134   79 O    0 1 0
  81 O    1     2.5404     4.8006   47 C    0 1 0
  81 O    1     2.5405     4.8008   71 C    0 0 0

  82 O    1     1.3795     2.6069   10 B    1 0 0
  82 O    1     1.3795     2.6070    8 B    0 0 0
  82 O    1     2.3881     4.5128   84 O    1 0 0
  82 O    1     2.3884     4.5134   80 O    0 0 0
  82 O    1     2.5404     4.8006   48 C    0 0 0
  82 O    1     2.5405     4.8008   72 C    1 0 0

  83 O    1     1.3796     2.6071   11 B   -1 0 0
  83 O    1     1.3797     2.6072    9 B   -1-1 0
  83 O    1     2.3880     4.5126   79 O   -1 0 0
  83 O    1     2.3881     4.5128   81 O   -1-1 0
  83 O    1     2.5409     4.8016   71 C   -1-1 0
  83 O    1     2.5410     4.8019   59 C   -1 0 0

  84 O    1     1.3796     2.6071   12 B   -1 0 0
  84 O    1     1.3797     2.6072   10 B    0 0 0
  84 O    1     2.3880     4.5126   80 O   -1 0 0
  84 O    1     2.3881     4.5128   82 O   -1 0 0
  84 O    1     2.5409     4.8016   72 C    0 0 0
  84 O    1     2.5410     4.8019   60 C   -1 0 0


 SYMMETRY ALLOWED INTERNAL DEGREE(S) OF FREEDOM: 249
 TTTTTTTTTTTTTTTTTTTTTTTTTTTTTT SYMM        TELAPSE        2.82 TCPU        2.82
 TTTTTTTTTTTTTTTTTTTTTTTTTTTTTT INT_SCREEN  TELAPSE        3.03 TCPU        3.03

 DFT PARAMETERS

     ATOM       ELECTRONS   NET CHARGE   R(ANGSTROM)
   1   5  B       5.0000      0.0000     0.89000000
  13   1  H       1.0000      0.0000     1.11000000
  37   6  C       6.0000      0.0000     0.77000000
  73   8  O       8.0000      0.0000     0.74000000

 SIZE OF GRID=    2530298
 TTTTTTTTTTTTTTTTTTTTTTTTTTTTTT MAKE_GRID2  TELAPSE       25.53 TCPU       25.50
 BECKE WEIGHT FUNCTION
 RADSAFE =     2.00
 TOLERANCES - DENSITY:10**- 6; POTENTIAL:10**- 9; GRID WGT:10**-14

 RADIAL INTEGRATION  - INTERVALS (POINTS,UPPER LIMIT):            1( 75,  4.0*R)

 ANGULAR INTEGRATION - INTERVALS (ACCURACY LEVEL [N. POINTS] UPPER LIMIT):
  1(  4[  86]   0.2)  2(  8[ 194]   0.5)  3( 12[ 350]   0.9)  4( 16[ 974]   3.5)
  5( 12[ 350]9999.0)
 TTTTTTTTTTTTTTTTTTTTTTTTTTTTTT INT_CALC    TELAPSE       25.81 TCPU       25.78
 EEEEEEEEEE INT_CALC TERMINATION  DATE 19 02 2026 TIME 20:04:42.8

 *******************************************************************************
 cof-1_z34_L040_serr                                                             
 CRYSTAL - SCF - TYPE OF CALCULATION :  RESTRICTED CLOSED SHELL
 *******************************************************************************

 CAPPA:IS1  2;IS2  2;IS3  8; K PTS MONK NET  20; SYMMOPS:K SPACE   2;G SPACE   1

 TTTTTTTTTTTTTTTTTTTTTTTTTTTTTT SDIK        TELAPSE       27.77 TCPU       50.39

 AAAAAAAAAAAAAAAAAAAAAAAAAAAAAAAAAAAAAAAAAAAAAAAAAAAAAAAAAAAAAAAAAAAAAAAAAAAAAAA
         ATOMIC WAVEFUNCTION(S)


 NUCLEAR CHARGE  5.0  SYMMETRY SPECIES            S    P
 N. ELECTRONS    5.0  NUMBER OF PRIMITIVE GTOS    8    4
                      NUMBER OF CONTRACTED GTOS   4    2
                      NUMBER OF CLOSED SHELLS     2    0
                      OPEN SHELL OCCUPATION       0    1

  ZNUC  SCFIT    TOTAL HF ENERGY   KINETIC ENERGY   VIRIAL THEOREM ACCURACY
   5.0    11    -2.451164084E+01  2.462155050E+01 -1.995536038E+00  1.5E-06

 NUCLEAR CHARGE  1.0  SYMMETRY SPECIES            S
 N. ELECTRONS    1.0  NUMBER OF PRIMITIVE GTOS    4
                      NUMBER OF CONTRACTED GTOS   2
                      NUMBER OF CLOSED SHELLS     0
                      OPEN SHELL OCCUPATION       1

  ZNUC  SCFIT    TOTAL HF ENERGY   KINETIC ENERGY   VIRIAL THEOREM ACCURACY
   1.0     1    -4.977266687E-01  5.190767460E-01 -1.958869132E+00  0.0E+00

 NUCLEAR CHARGE  6.0  SYMMETRY SPECIES            S    P
 N. ELECTRONS    6.0  NUMBER OF PRIMITIVE GTOS    8    4
                      NUMBER OF CONTRACTED GTOS   4    2
                      NUMBER OF CLOSED SHELLS     2    0
                      OPEN SHELL OCCUPATION       0    2

  ZNUC  SCFIT    TOTAL HF ENERGY   KINETIC ENERGY   VIRIAL THEOREM ACCURACY
   6.0     9    -3.766704647E+01  3.775180683E+01 -1.997754800E+00  1.1E-06

 NUCLEAR CHARGE  8.0  SYMMETRY SPECIES            S    P
 N. ELECTRONS    8.0  NUMBER OF PRIMITIVE GTOS    8    4
                      NUMBER OF CONTRACTED GTOS   4    2
                      NUMBER OF CLOSED SHELLS     2    0
                      OPEN SHELL OCCUPATION       0    4

  ZNUC  SCFIT    TOTAL HF ENERGY   KINETIC ENERGY   VIRIAL THEOREM ACCURACY
   8.0    12    -7.477373220E+01  7.477365593E+01 -2.000001020E+00  3.8E-06

 AAAAAAAAAAAAAAAAAAAAAAAAAAAAAAAAAAAAAAAAAAAAAAAAAAAAAAAAAAAAAAAAAAAAAAAAAAAAAAA

 CHARGE NORMALIZATION FACTOR   1.00000000
 TOTAL ATOMIC CHARGES:
   5.0000000   5.0000000   5.0000000   5.0000000   5.0000000   5.0000000
   5.0000000   5.0000000   5.0000000   5.0000000   5.0000000   5.0000000
   1.0000000   1.0000000   1.0000000   1.0000000   1.0000000   1.0000000
   1.0000000   1.0000000   1.0000000   1.0000000   1.0000000   1.0000000
   1.0000000   1.0000000   1.0000000   1.0000000   1.0000000   1.0000000
   1.0000000   1.0000000   1.0000000   1.0000000   1.0000000   1.0000000
   6.0000000   6.0000000   6.0000000   6.0000000   6.0000000   6.0000000
   6.0000000   6.0000000   6.0000000   6.0000000   6.0000000   6.0000000
   6.0000000   6.0000000   6.0000000   6.0000000   6.0000000   6.0000000
   6.0000000   6.0000000   6.0000000   6.0000000   6.0000000   6.0000000
   6.0000000   6.0000000   6.0000000   6.0000000   6.0000000   6.0000000
   6.0000000   6.0000000   6.0000000   6.0000000   6.0000000   6.0000000
   8.0000000   8.0000000   8.0000000   8.0000000   8.0000000   8.0000000
   8.0000000   8.0000000   8.0000000   8.0000000   8.0000000   8.0000000
 TTTTTTTTTTTTTTTTTTTTTTTTTTTTTT MOQGAD      TELAPSE       27.87 TCPU       53.21
 TTTTTTTTTTTTTTTTTTTTTTTTTTTTTT SHELLXN     TELAPSE       49.00 TCPU      727.93
 TTTTTTTTTTTTTTTTTTTTTTTTTTTTTT MONMO3      TELAPSE       49.63 TCPU      748.06
 NUMERICALLY INTEGRATED DENSITY    395.9998550516
 TTTTTTTTTTTTTTTTTTTTTTTTTTTTTT NUMDFT      TELAPSE       51.15 TCPU      796.64
 CYC   0 ETOT(AU) -2.591956549549E+03 DETOT -2.59E+03 tst  0.00E+00 PX  1.00E+00
 TTTTTTTTTTTTTTTTTTTTTTTTTTTTTT DIIS        TELAPSE       51.26 TCPU      800.24
 TTTTTTTTTTTTTTTTTTTTTTTTTTTTTT FDIK        TELAPSE       53.08 TCPU      858.14
 INSULATING STATE
 TOP OF VALENCE BANDS -    BAND    198; K    3; EIG -3.0924913E-01 AU
 TOP OF VALENCE BANDS -    BAND    198; K    1; EIG -3.0948825E-01 AU
 BOTTOM OF VIRTUAL BANDS - BAND    199; K    1; EIG -1.6436700E-01 AU
 INDIRECT ENERGY BAND GAP:   3.9424 eV
 TTTTTTTTTTTTTTTTTTTTTTTTTTTTTT PDIG        TELAPSE       54.68 TCPU      865.11
 CHARGE NORMALIZATION FACTOR   1.00000000
 TOTAL ATOMIC CHARGES:
   4.1449144   4.1358872   4.1528707   4.1632797   4.1530778   4.1635509
   4.1631401   4.1527536   4.1629218   4.1525386   4.1356072   4.1445644
   0.7857081   0.7857203   0.7858317   0.7858218   0.7834889   0.7851938
   0.7853128   0.7836065   0.7861708   0.7860104   0.7861792   0.7863323
   0.7861586   0.7860004   0.7861392   0.7862942   0.7834910   0.7851953
   0.7853773   0.7836717   0.7856620   0.7856712   0.7858258   0.7858141
   6.0472267   6.0433527   6.2688260   6.2675628   6.2675303   6.2687869
   6.2672840   6.2654961   6.2654411   6.2672369   6.0426185   6.0464680
   6.0502339   6.0499708   6.2598938   6.2638233   6.2638764   6.2599407
   6.2598171   6.2637330   6.2638932   6.2599363   6.0487146   6.0489959
   6.0475989   6.0437171   6.2670655   6.2652555   6.2658191   6.2676150
   6.2684537   6.2671829   6.2678069   6.2690668   6.0421508   6.0459926
   8.7035329   8.6952460   8.7036563   8.6953587   8.7077233   8.6911075
   8.6956763   8.7039565   8.6915207   8.7080795   8.6958437   8.7041310
 TTTTTTTTTTTTTTTTTTTTTTTTTTTTTT MOQGAD      TELAPSE       54.78 TCPU      865.21
 TTTTTTTTTTTTTTTTTTTTTTTTTTTTTT SHELLXN     TELAPSE       76.79 TCPU     1566.21
 TTTTTTTTTTTTTTTTTTTTTTTTTTTTTT MONMO3      TELAPSE       77.42 TCPU     1586.36
 NUMERICALLY INTEGRATED DENSITY    395.9999020810
 TTTTTTTTTTTTTTTTTTTTTTTTTTTTTT NUMDFT      TELAPSE       78.96 TCPU     1635.77
 CYC   1 ETOT(AU) -2.577662657992E+03 DETOT  1.43E+01 tst  0.00E+00 PX  1.00E+00
 TTTTTTTTTTTTTTTTTTTTTTTTTTTTTT DIIS        TELAPSE       79.10 TCPU     1640.19
 DIIS TEST: 0.21684E+01 AT SCF   CYCLE   1 - MIX   30 %
 TTTTTTTTTTTTTTTTTTTTTTTTTTTTTT FDIK        TELAPSE       80.97 TCPU     1699.89
 INSULATING STATE
 TOP OF VALENCE BANDS -    BAND    198; K    3; EIG -2.2084091E-01 AU
 TOP OF VALENCE BANDS -    BAND    198; K    1; EIG -2.2096855E-01 AU
 BOTTOM OF VIRTUAL BANDS - BAND    199; K    1; EIG -8.8611462E-02 AU
 INDIRECT ENERGY BAND GAP:   3.5981 eV
 TTTTTTTTTTTTTTTTTTTTTTTTTTTTTT PDIG        TELAPSE       82.58 TCPU     1706.87
 CHARGE NORMALIZATION FACTOR   1.00000000
 TOTAL ATOMIC CHARGES:
   4.6431499   4.6550232   4.6709874   4.7125742   4.6708514   4.7126456
   4.7128288   4.6713367   4.7128026   4.6713403   4.6552687   4.6430429
   0.9132919   0.8977853   0.8978850   0.9132884   0.9225402   0.9152482
   0.9152918   0.9226298   0.9055651   0.8883158   0.8882966   0.9057121
   0.9055356   0.8882955   0.8882937   0.9056513   0.9225328   0.9152365
   0.9153637   0.9226971   0.9132345   0.8977223   0.8978843   0.9132766
   5.8640174   5.8796527   6.1524889   6.1136113   6.1140368   6.1528951
   6.1328351   6.1515643   6.1522804   6.1336117   5.8823406   5.8668339
   5.8943515   5.9139943   6.1369421   6.1605577   6.1613556   6.1376842
   6.1372040   6.1606537   6.1613530   6.1376963   5.9173396   5.8973589
   5.8640299   5.8795666   6.1328784   6.1516284   6.1521321   6.1335652
   6.1526877   6.1138220   6.1138035   6.1526137   5.8825760   5.8669795
   8.3413740   8.3266378   8.3417718   8.3269988   8.3654236   8.3421026
   8.3265216   8.3411540   8.3418392   8.3653755   8.3269178   8.3415158
 TTTTTTTTTTTTTTTTTTTTTTTTTTTTTT MOQGAD      TELAPSE       82.68 TCPU     1706.98
 TTTTTTTTTTTTTTTTTTTTTTTTTTTTTT SHELLXN     TELAPSE      104.67 TCPU     2407.80
 TTTTTTTTTTTTTTTTTTTTTTTTTTTTTT MONMO3      TELAPSE      105.30 TCPU     2427.92
 NUMERICALLY INTEGRATED DENSITY    395.9998833520
 TTTTTTTTTTTTTTTTTTTTTTTTTTTTTT NUMDFT      TELAPSE      106.85 TCPU     2477.31
 CYC   2 ETOT(AU) -2.578046186447E+03 DETOT -3.84E-01 tst  3.85E-03 PX  1.60E-01
 TTTTTTTTTTTTTTTTTTTTTTTTTTTTTT DIIS        TELAPSE      107.01 TCPU     2482.49
 DIIS TEST: 0.89155E+00 AT SCF   CYCLE   2 - DIIS ACTIVE - HISTORY:     2 CYCLES
 TTTTTTTTTTTTTTTTTTTTTTTTTTTTTT FDIK        TELAPSE      108.83 TCPU     2540.73
 INSULATING STATE
 TOP OF VALENCE BANDS -    BAND    198; K    3; EIG -2.3329277E-01 AU
 TOP OF VALENCE BANDS -    BAND    198; K    1; EIG -2.3352252E-01 AU
 BOTTOM OF VIRTUAL BANDS - BAND    199; K    1; EIG -8.4496765E-02 AU
 INDIRECT ENERGY BAND GAP:   4.0489 eV
 TTTTTTTTTTTTTTTTTTTTTTTTTTTTTT PDIG        TELAPSE      110.43 TCPU     2547.71
 CHARGE NORMALIZATION FACTOR   1.00000000
 TOTAL ATOMIC CHARGES:
   4.4594707   4.4468204   4.4787151   4.5057289   4.4787113   4.5059100
   4.5053839   4.4782125   4.5052253   4.4780605   4.4461754   4.4591504
   0.8938709   0.8761045   0.8761362   0.8941556   0.8946975   0.8939722
   0.8940815   0.8947042   0.8859503   0.8756237   0.8760600   0.8860015
   0.8859618   0.8756304   0.8760272   0.8859163   0.8946947   0.8939735
   0.8941343   0.8947780   0.8938720   0.8761128   0.8760800   0.8940978
   5.9041194   5.8910468   6.1598577   6.1735169   6.1732025   6.1595793
   6.1612493   6.1483172   6.1475866   6.1599520   5.8897950   5.9030069
   5.9269621   5.9134449   6.1574861   6.1704045   6.1696453   6.1571425
   6.1577003   6.1705251   6.1695727   6.1570318   5.9118392   5.9259698
   5.9046059   5.8913205   6.1611774   6.1482818   6.1476952   6.1600783
   6.1597390   6.1733900   6.1732176   6.1596345   5.8894941   5.9025846
   8.5240006   8.5184990   8.5241521   8.5186655   8.5303368   8.5036991
   8.5186480   8.5243664   8.5039019   8.5299664   8.5188269   8.5245634
 TTTTTTTTTTTTTTTTTTTTTTTTTTTTTT MOQGAD      TELAPSE      110.53 TCPU     2547.81
 TTTTTTTTTTTTTTTTTTTTTTTTTTTTTT SHELLXN     TELAPSE      132.51 TCPU     3248.70
 TTTTTTTTTTTTTTTTTTTTTTTTTTTTTT MONMO3      TELAPSE      133.14 TCPU     3268.84
 NUMERICALLY INTEGRATED DENSITY    395.9998877903
 TTTTTTTTTTTTTTTTTTTTTTTTTTTTTT NUMDFT      TELAPSE      134.69 TCPU     3318.28
 CYC   3 ETOT(AU) -2.578230168650E+03 DETOT -1.84E-01 tst  6.19E-04 PX  6.68E-02
 TTTTTTTTTTTTTTTTTTTTTTTTTTTTTT DIIS        TELAPSE      134.87 TCPU     3324.10
 DIIS TEST: 0.31732E-01 AT SCF   CYCLE   3 - DIIS ACTIVE - HISTORY:     3 CYCLES
 TTTTTTTTTTTTTTTTTTTTTTTTTTTTTT FDIK        TELAPSE      136.73 TCPU     3383.36
 INSULATING STATE
 TOP OF VALENCE BANDS -    BAND    198; K    3; EIG -2.4276000E-01 AU
 TOP OF VALENCE BANDS -    BAND    198; K    1; EIG -2.4290370E-01 AU
 BOTTOM OF VIRTUAL BANDS - BAND    199; K    1; EIG -9.2943443E-02 AU
 INDIRECT ENERGY BAND GAP:   4.0767 eV
 TTTTTTTTTTTTTTTTTTTTTTTTTTTTTT PDIG        TELAPSE      138.34 TCPU     3390.34
 CHARGE NORMALIZATION FACTOR   1.00000000
 TOTAL ATOMIC CHARGES:
   4.4624838   4.4540847   4.4844303   4.5072985   4.4843898   4.5074756
   4.5075120   4.4846822   4.5073535   4.4845714   4.4542160   4.4622461
   0.8733403   0.8643832   0.8645720   0.8733181   0.8820036   0.8730161
   0.8730211   0.8820596   0.8677312   0.8563662   0.8562244   0.8680306
   0.8677352   0.8563871   0.8561850   0.8679357   0.8820306   0.8730201
   0.8730817   0.8820992   0.8733300   0.8643525   0.8645379   0.8732765
   5.9346672   5.9441106   6.1800880   6.1519975   6.1524577   6.1802461
   6.1591616   6.1815790   6.1830296   6.1611302   5.9474291   5.9382126
   5.9562955   5.9748525   6.1611892   6.1899039   6.1909818   6.1620965
   6.1612131   6.1897633   6.1911483   6.1622522   5.9785240   5.9590908
   5.9348056   5.9440782   6.1590094   6.1814878   6.1831011   6.1613416
   6.1799246   6.1519125   6.1525274   6.1802899   5.9475058   5.9381330
   8.4851194   8.4755536   8.4854444   8.4758352   8.5046350   8.4859409
   8.4757130   8.4849008   8.4859042   8.5053465   8.4760605   8.4852275
 TTTTTTTTTTTTTTTTTTTTTTTTTTTTTT MOQGAD      TELAPSE      138.44 TCPU     3390.44
 TTTTTTTTTTTTTTTTTTTTTTTTTTTTTT SHELLXN     TELAPSE      160.41 TCPU     4091.43
 TTTTTTTTTTTTTTTTTTTTTTTTTTTTTT MONMO3      TELAPSE      161.04 TCPU     4111.55
 NUMERICALLY INTEGRATED DENSITY    395.9998878600
 TTTTTTTTTTTTTTTTTTTTTTTTTTTTTT NUMDFT      TELAPSE      162.60 TCPU     4161.19
 CYC   4 ETOT(AU) -2.578236851139E+03 DETOT -6.68E-03 tst  3.10E-05 PX  1.61E-02
 TTTTTTTTTTTTTTTTTTTTTTTTTTTTTT DIIS        TELAPSE      162.80 TCPU     4167.67
 DIIS TEST: 0.93853E-02 AT SCF   CYCLE   4 - DIIS ACTIVE - HISTORY:     4 CYCLES
 TTTTTTTTTTTTTTTTTTTTTTTTTTTTTT FDIK        TELAPSE      164.65 TCPU     4226.82
 INSULATING STATE
 TOP OF VALENCE BANDS -    BAND    198; K    3; EIG -2.4149369E-01 AU
 TOP OF VALENCE BANDS -    BAND    198; K    1; EIG -2.4166404E-01 AU
 BOTTOM OF VIRTUAL BANDS - BAND    199; K    1; EIG -9.2836773E-02 AU
 INDIRECT ENERGY BAND GAP:   4.0452 eV
 TTTTTTTTTTTTTTTTTTTTTTTTTTTTTT PDIG        TELAPSE      166.24 TCPU     4233.79
 CHARGE NORMALIZATION FACTOR   1.00000000
 TOTAL ATOMIC CHARGES:
   4.4626529   4.4558840   4.4846943   4.5136549   4.4846664   4.5138287
   4.5134762   4.4844030   4.5133301   4.4842786   4.4554084   4.4624484
   0.8780665   0.8634818   0.8635224   0.8783039   0.8827636   0.8782951
   0.8784803   0.8828619   0.8700372   0.8593305   0.8597614   0.8701047
   0.8700251   0.8593214   0.8597452   0.8700326   0.8827624   0.8782938
   0.8785401   0.8829370   0.8780450   0.8634663   0.8634851   0.8782663
   5.9272928   5.9269583   6.1723985   6.1677501   6.1675069   6.1723313
   6.1695476   6.1654857   6.1643472   6.1676434   5.9252551   5.9258192
   5.9545454   5.9510045   6.1669873   6.1826846   6.1819279   6.1665670
   6.1672728   6.1828243   6.1818378   6.1664321   5.9493449   5.9535619
   5.9277156   5.9271650   6.1694710   6.1654703   6.1643938   6.1677523
   6.1723725   6.1677103   6.1674577   6.1722939   5.9250525   5.9254757
   8.4966631   8.4892142   8.4968474   8.4894079   8.5093415   8.4843254
   8.4892225   8.4969971   8.4843772   8.5086418   8.4894431   8.4972063
 TTTTTTTTTTTTTTTTTTTTTTTTTTTTTT MOQGAD      TELAPSE      166.35 TCPU     4233.89
 TTTTTTTTTTTTTTTTTTTTTTTTTTTTTT SHELLXN     TELAPSE      188.32 TCPU     4934.96
 TTTTTTTTTTTTTTTTTTTTTTTTTTTTTT MONMO3      TELAPSE      188.95 TCPU     4955.08
 NUMERICALLY INTEGRATED DENSITY    395.9998881623
 TTTTTTTTTTTTTTTTTTTTTTTTTTTTTT NUMDFT      TELAPSE      190.50 TCPU     5004.44
 CYC   5 ETOT(AU) -2.578238962728E+03 DETOT -2.11E-03 tst  6.62E-06 PX  8.52E-03
 TTTTTTTTTTTTTTTTTTTTTTTTTTTTTT DIIS        TELAPSE      190.72 TCPU     5011.24
 DIIS TEST: 0.45735E-03 AT SCF   CYCLE   5 - DIIS ACTIVE - HISTORY:     5 CYCLES
 TTTTTTTTTTTTTTTTTTTTTTTTTTTTTT FDIK        TELAPSE      192.56 TCPU     5069.75
 INSULATING STATE
 TOP OF VALENCE BANDS -    BAND    198; K    3; EIG -2.4101271E-01 AU
 TOP OF VALENCE BANDS -    BAND    198; K    1; EIG -2.4118237E-01 AU
 BOTTOM OF VIRTUAL BANDS - BAND    199; K    1; EIG -9.2018210E-02 AU
 INDIRECT ENERGY BAND GAP:   4.0543 eV
 TTTTTTTTTTTTTTTTTTTTTTTTTTTTTT PDIG        TELAPSE      194.18 TCPU     5076.72
 CHARGE NORMALIZATION FACTOR   1.00000000
 TOTAL ATOMIC CHARGES:
   4.4629192   4.4559308   4.4852362   4.5115215   4.4851906   4.5116985
   4.5116928   4.4853794   4.5115406   4.4852737   4.4560209   4.4626523
   0.8784511   0.8654678   0.8656672   0.8784646   0.8848761   0.8785467
   0.8784890   0.8848874   0.8723438   0.8603587   0.8602245   0.8726399
   0.8723541   0.8603800   0.8601821   0.8725442   0.8848968   0.8785470
   0.8785502   0.8849336   0.8784458   0.8654449   0.8656299   0.8784180
   5.9224388   5.9233001   6.1762507   6.1604728   6.1608252   6.1762352
   6.1596360   6.1721811   6.1740325   6.1621292   5.9269874   5.9262862
   5.9432195   5.9519264   6.1617850   6.1850550   6.1861239   6.1627320
   6.1617826   6.1849230   6.1862915   6.1628870   5.9556003   5.9459857
   5.9226475   5.9233295   6.1595068   6.1721026   6.1741199   6.1623221
   6.1760539   6.1603478   6.1609092   6.1763196   5.9269831   5.9261364
   8.4972472   8.4878268   8.4975501   8.4880906   8.5107710   8.4901136
   8.4880636   8.4970313   8.4901920   8.5117258   8.4883758   8.4973470
 TTTTTTTTTTTTTTTTTTTTTTTTTTTTTT MOQGAD      TELAPSE      194.28 TCPU     5076.83
 TTTTTTTTTTTTTTTTTTTTTTTTTTTTTT SHELLXN     TELAPSE      216.25 TCPU     5777.87
 TTTTTTTTTTTTTTTTTTTTTTTTTTTTTT MONMO3      TELAPSE      216.88 TCPU     5797.99
 NUMERICALLY INTEGRATED DENSITY    395.9998881233
 TTTTTTTTTTTTTTTTTTTTTTTTTTTTTT NUMDFT      TELAPSE      218.43 TCPU     5847.34
 CYC   6 ETOT(AU) -2.578239003737E+03 DETOT -4.10E-05 tst  2.62E-06 PX  2.61E-03
 TTTTTTTTTTTTTTTTTTTTTTTTTTTTTT DIIS        TELAPSE      218.67 TCPU     5854.13
 DIIS TEST: 0.33917E-03 AT SCF   CYCLE   6 - DIIS ACTIVE - HISTORY:     6 CYCLES
 TTTTTTTTTTTTTTTTTTTTTTTTTTTTTT FDIK        TELAPSE      220.52 TCPU     5912.76
 INSULATING STATE
 TOP OF VALENCE BANDS -    BAND    198; K    3; EIG -2.4114871E-01 AU
 TOP OF VALENCE BANDS -    BAND    198; K    1; EIG -2.4132094E-01 AU
 BOTTOM OF VIRTUAL BANDS - BAND    199; K    1; EIG -9.2154234E-02 AU
 INDIRECT ENERGY BAND GAP:   4.0543 eV
 TTTTTTTTTTTTTTTTTTTTTTTTTTTTTT PDIG        TELAPSE      222.10 TCPU     5919.72
 CHARGE NORMALIZATION FACTOR   1.00000000
 TOTAL ATOMIC CHARGES:
   4.4634895   4.4558077   4.4852325   4.5121913   4.4852018   4.5123668
   4.5120860   4.4850525   4.5119364   4.4849321   4.4554519   4.4632526
   0.8788457   0.8650366   0.8651104   0.8790107   0.8841947   0.8788756
   0.8790104   0.8842753   0.8718920   0.8603266   0.8606043   0.8720167
   0.8718875   0.8603284   0.8605800   0.8719360   0.8842027   0.8788779
   0.8790680   0.8843376   0.8788314   0.8650198   0.8650711   0.8789696
   5.9252779   5.9259421   6.1735502   6.1638382   6.1638138   6.1735528
   6.1645211   6.1692844   6.1688236   6.1636390   5.9256007   5.9251807
   5.9490059   5.9522822   6.1635055   6.1839462   6.1836892   6.1634576
   6.1637057   6.1839992   6.1836768   6.1634118   5.9521048   5.9490763
   5.9256224   5.9260802   6.1644124   6.1692352   6.1688933   6.1637960
   6.1734647   6.1637727   6.1638133   6.1735510   5.9254758   5.9249054
   8.4964494   8.4883366   8.4966715   8.4885539   8.5105414   8.4876706
   8.4884098   8.4966514   8.4876995   8.5102392   8.4886662   8.4968926
 TTTTTTTTTTTTTTTTTTTTTTTTTTTTTT MOQGAD      TELAPSE      222.21 TCPU     5919.82
 TTTTTTTTTTTTTTTTTTTTTTTTTTTTTT SHELLXN     TELAPSE      244.18 TCPU     6620.62
 TTTTTTTTTTTTTTTTTTTTTTTTTTTTTT MONMO3      TELAPSE      244.80 TCPU     6640.74
 NUMERICALLY INTEGRATED DENSITY    395.9998880908
 TTTTTTTTTTTTTTTTTTTTTTTTTTTTTT NUMDFT      TELAPSE      246.35 TCPU     6690.10
 CYC   7 ETOT(AU) -2.578239088326E+03 DETOT -8.46E-05 tst  6.61E-07 PX  1.33E-03
 TTTTTTTTTTTTTTTTTTTTTTTTTTTTTT DIIS        TELAPSE      246.62 TCPU     6696.95
 DIIS TEST: 0.75883E-05 AT SCF   CYCLE   7 - DIIS ACTIVE - HISTORY:     7 CYCLES
 TTTTTTTTTTTTTTTTTTTTTTTTTTTTTT FDIK        TELAPSE      248.49 TCPU     6756.20
 INSULATING STATE
 TOP OF VALENCE BANDS -    BAND    198; K    3; EIG -2.4114930E-01 AU
 TOP OF VALENCE BANDS -    BAND    198; K    1; EIG -2.4132039E-01 AU
 BOTTOM OF VIRTUAL BANDS - BAND    199; K    1; EIG -9.2195905E-02 AU
 INDIRECT ENERGY BAND GAP:   4.0532 eV
 TTTTTTTTTTTTTTTTTTTTTTTTTTTTTT PDIG        TELAPSE      250.10 TCPU     6763.19
 CHARGE NORMALIZATION FACTOR   1.00000000
 TOTAL ATOMIC CHARGES:
   4.4633028   4.4557654   4.4851953   4.5123416   4.4851598   4.5125173
   4.5123418   4.4851292   4.5121920   4.4850133   4.4555818   4.4630637
   0.8788142   0.8650142   0.8651376   0.8789342   0.8841960   0.8789013
   0.8789570   0.8842443   0.8717389   0.8603539   0.8604863   0.8719257
   0.8717390   0.8603614   0.8604563   0.8718408   0.8842062   0.8789012
   0.8790172   0.8843044   0.8788018   0.8649959   0.8650997   0.8788913
   5.9246844   5.9250498   6.1737634   6.1636503   6.1637179   6.1737228
   6.1640662   6.1685700   6.1690051   6.1644729   5.9261885   5.9260161
   5.9486479   5.9514964   6.1636535   6.1835747   6.1837795   6.1639564
   6.1637927   6.1835752   6.1838206   6.1639697   5.9526508   5.9496396
   5.9249979   5.9251653   6.1639616   6.1685221   6.1690728   6.1646257
   6.1736500   6.1635659   6.1637371   6.1737480   5.9260875   5.9257719
   8.4966716   8.4883978   8.4969170   8.4886278   8.5100679   8.4873570
   8.4885226   8.4967154   8.4874245   8.5102357   8.4887909   8.4969795
 TTTTTTTTTTTTTTTTTTTTTTTTTTTTTT MOQGAD      TELAPSE      250.21 TCPU     6763.30
 TTTTTTTTTTTTTTTTTTTTTTTTTTTTTT SHELLXN     TELAPSE      272.19 TCPU     7463.93
 TTTTTTTTTTTTTTTTTTTTTTTTTTTTTT MONMO3      TELAPSE      272.82 TCPU     7484.06
 NUMERICALLY INTEGRATED DENSITY    395.9998880932
 TTTTTTTTTTTTTTTTTTTTTTTTTTTTTT NUMDFT      TELAPSE      274.37 TCPU     7533.46
 CYC   8 ETOT(AU) -2.578239089364E+03 DETOT -1.04E-06 tst  2.87E-08 PX  2.37E-04
 TTTTTTTTTTTTTTTTTTTTTTTTTTTTTT DIIS        TELAPSE      274.65 TCPU     7540.27
 DIIS TEST: 0.19870E-05 AT SCF   CYCLE   8 - DIIS ACTIVE - HISTORY:     8 CYCLES
 TTTTTTTTTTTTTTTTTTTTTTTTTTTTTT FDIK        TELAPSE      276.50 TCPU     7598.93
 INSULATING STATE
 TOP OF VALENCE BANDS -    BAND    198; K    3; EIG -2.4114958E-01 AU
 TOP OF VALENCE BANDS -    BAND    198; K    1; EIG -2.4132060E-01 AU
 BOTTOM OF VIRTUAL BANDS - BAND    199; K    1; EIG -9.2198689E-02 AU
 INDIRECT ENERGY BAND GAP:   4.0532 eV
 TTTTTTTTTTTTTTTTTTTTTTTTTTTTTT PDIG        TELAPSE      278.08 TCPU     7605.88
 CHARGE NORMALIZATION FACTOR   1.00000000
 TOTAL ATOMIC CHARGES:
   4.4632311   4.4558523   4.4852246   4.5123999   4.4851899   4.5125754
   4.5123621   4.4851164   4.5122126   4.4849997   4.4556050   4.4629934
   0.8787624   0.8650276   0.8651322   0.8788989   0.8842262   0.8788449
   0.8789315   0.8842883   0.8717399   0.8603050   0.8604933   0.8719038
   0.8717385   0.8603107   0.8604651   0.8718202   0.8842359   0.8788455
   0.8789909   0.8843488   0.8787494   0.8650095   0.8650940   0.8788567
   5.9248671   5.9253493   6.1738360   6.1635686   6.1636018   6.1738128
   6.1642059   6.1689016   6.1689925   6.1641182   5.9259171   5.9256479
   5.9486214   5.9518512   6.1636984   6.1837411   6.1837660   6.1638619
   6.1638551   6.1837569   6.1837920   6.1638582   5.9524944   5.9492603
   5.9251886   5.9254709   6.1640998   6.1688527   6.1690608   6.1642728
   6.1737306   6.1634908   6.1636155   6.1738295   5.9258102   5.9253952
   8.4966736   8.4883876   8.4969122   8.4886139   8.5102146   8.4874515
   8.4884945   8.4967781   8.4875018   8.5102031   8.4887594   8.4970353
 TTTTTTTTTTTTTTTTTTTTTTTTTTTTTT MOQGAD      TELAPSE      278.18 TCPU     7605.99
 TTTTTTTTTTTTTTTTTTTTTTTTTTTTTT SHELLXN     TELAPSE      300.15 TCPU     8306.76
 TTTTTTTTTTTTTTTTTTTTTTTTTTTTTT MONMO3      TELAPSE      300.78 TCPU     8326.86
 NUMERICALLY INTEGRATED DENSITY    395.9998880910
 TTTTTTTTTTTTTTTTTTTTTTTTTTTTTT NUMDFT      TELAPSE      302.32 TCPU     8376.20
 CYC   9 ETOT(AU) -2.578239089724E+03 DETOT -3.59E-07 tst  4.42E-09 PX  1.03E-04
 TTTTTTTTTTTTTTTTTTTTTTTTTTTTTT DIIS        TELAPSE      302.63 TCPU     8383.10
 DIIS TEST: 0.84725E-07 AT SCF   CYCLE   9 - DIIS ACTIVE - HISTORY:     9 CYCLES
 TTTTTTTTTTTTTTTTTTTTTTTTTTTTTT FDIK        TELAPSE      304.48 TCPU     8441.72
 INSULATING STATE
 TOP OF VALENCE BANDS -    BAND    198; K    3; EIG -2.4115175E-01 AU
 TOP OF VALENCE BANDS -    BAND    198; K    1; EIG -2.4132295E-01 AU
 BOTTOM OF VIRTUAL BANDS - BAND    199; K    1; EIG -9.2196175E-02 AU
 INDIRECT ENERGY BAND GAP:   4.0533 eV
 TTTTTTTTTTTTTTTTTTTTTTTTTTTTTT PDIG        TELAPSE      306.09 TCPU     8448.70
 CHARGE NORMALIZATION FACTOR   1.00000000
 TOTAL ATOMIC CHARGES:
   4.4632920   4.4558367   4.4852048   4.5123590   4.4851704   4.5125345
   4.5123252   4.4851020   4.5121756   4.4849848   4.4555970   4.4630539
   0.8787745   0.8650089   0.8651158   0.8789088   0.8842177   0.8788464
   0.8789293   0.8842779   0.8717482   0.8603127   0.8604935   0.8719143
   0.8717465   0.8603181   0.8604656   0.8718309   0.8842273   0.8788472
   0.8789885   0.8843386   0.8787614   0.8649910   0.8650775   0.8788666
   5.9248421   5.9253295   6.1737660   6.1636549   6.1636942   6.1737431
   6.1641631   6.1688954   6.1690282   6.1641350   5.9259701   5.9256942
   5.9487072   5.9517776   6.1636363   6.1837340   6.1837866   6.1638233
   6.1637967   6.1837528   6.1838091   6.1638161   5.9524860   5.9493915
   5.9251659   5.9254523   6.1640566   6.1688466   6.1690969   6.1642898
   6.1736621   6.1635774   6.1637065   6.1737587   5.9258615   5.9254395
   8.4966388   8.4883734   8.4968760   8.4885991   8.5102559   8.4874968
   8.4884815   8.4967357   8.4875500   8.5102656   8.4887457   8.4969917
 TTTTTTTTTTTTTTTTTTTTTTTTTTTTTT MOQGAD      TELAPSE      306.19 TCPU     8448.80
 TTTTTTTTTTTTTTTTTTTTTTTTTTTTTT SHELLXN     TELAPSE      328.17 TCPU     9150.00
 +++ ENERGIES IN A.U. +++
 ::: EXT EL-POLE                                  -2.9364349647241E+03
 ::: EXT EL-SPHEROPOLE                             3.3748729562663E+01
 ::: BIELET ZONE E-E                               4.5570512748997E+03
 ::: TOTAL E-E                                     1.6543650397383E+03
 ::: TOTAL E-N + N-E                              -6.9576451421508E+03
 ::: TOTAL N-N                                     4.3261087748847E+02
 ::: KINETIC ENERGY                                2.5598715735213E+03
 ::: PSEUDO TOTAL   ENERGY                        -2.3107976514027E+03
 ::: VIRIAL COEFFICIENT                            1.0511375153221E+00
 TTTTTTTTTTTTTTTTTTTTTTTTTTTTTT MONMO3      TELAPSE      328.80 TCPU     9170.13
 NUMERICALLY INTEGRATED DENSITY    395.9998880904
 EXCHANGE ENERGY: -0.252041727862E+03  CORRELATION ENERGY: -0.153997105014E+02
 TTTTTTTTTTTTTTTTTTTTTTTTTTTTTT NUMDFT      TELAPSE      330.34 TCPU     9219.47
 CYC  10 ETOT(AU) -2.578239089766E+03 DETOT -4.22E-08 tst  2.02E-10 PX  1.03E-04

 == SCF ENDED - CONVERGENCE ON ENERGY      E(AU) -2.5782390897661E+03 CYCLES  10


 ENERGY EXPRESSION=HARTREE+FOCK EXCH*0.00000+(HSESOL     EXCH)*1.00000+PBESOL     CORR


 TOTAL ENERGY(DFT)(AU)( 10) -2.5782390897661E+03 DE-4.2E-08 tester 2.0E-10
 TTTTTTTTTTTTTTTTTTTTTTTTTTTTTT EDFT        TELAPSE      330.34 TCPU     9219.48
 
 INFORMATION **** DFTD3 ENERGY **** CALCULATE DFTD3 ENERGY

           DFT-D V3(BJ)
 DF                                         hsesol3c  
 parameters
 s6       :    1.0000
 s8       :    0.0000
 a1       :    0.5196
 a2       :    4.9385
 k1 k3    :   16.0000   -4.0000
 Cutoff   :   50.2022
 CN-Cutoff:   21.1671
 ABC-Cutoff:   21.1671
 
 Edisp /kcal,au:   -57.8419 -0.09217697

 E6    /kcal :   -62.0521
 E8    /kcal :     0.0000
 E6(ABC) "   :   4.210175
 
 INFORMATION **** DFTD3 ENERGY **** NORMAL TERMINATION OF DFTD3 MODULE

 GCP ENERGY CALCULATION
  level        hsesol3c            basis:hsesol3c
  Nbf            948
  Atoms           84

  Parameters: 
  sigma     1.0000
  eta       1.4281
  alpha     0.2936
  beta      1.9467

  dmp_scal      4.0000
  dmp_exp       6.0000
 cutoffs: 
   distance [bohr] 60.0
   noise    [a.u.] 2.2E-16
 SR-damping   T
 ** gCP correction **
  Egcp:        0.1674288632 / (a.u.) ||     105.0632 / (kcal/mol)
 INFORMATION **** GCP **** NORMAL TERMINATION OF GCP MODULE

 *******************************************************************************

 DFT-D3-GCP DISPERSION AND COUNTERPOISE CORRECTION

 D3 DISPERSION ENERGY (AU)      -9.2176971486777E-02
 GCP ENERGY (AU)                 1.6742886318066E-01
 TOTAL ENERGY + DISP + GCP (AU) -2.5781638378744E+03

 *******************************************************************************

 EIGENVECTORS IN FORTRAN UNIT  8
 TTTTTTTTTTTTTTTTTTTTTTTTTTTTTT END         TELAPSE      333.79 TCPU     9228.83
 EEEEEEEEEE TERMINATION  DATE 19 02 2026 TIME 20:09:50.8
