 Default number of threads is:           32

         
 *******************************************************************************
 *                                                                             *
 *                               CRYSTAL23                                     *
 *                      public : 1.0.1 - October 2022                          *
 *                       HTTP://WWW.CRYSTAL.UNITO.IT                           *
 *                                                                             *
 *                              MAIN AUTHORS                                   *
 *                                                                             *
 *  R. DOVESI(1,11), V.R. SAUNDERS(2), C. ROETTI(1,11), R. ORLANDO(1,11),      *
 *  C.M. ZICOVICH-WILSON(1,3), F. PASCALE(4), B. CIVALLERI(1,11),              *
 *  K. DOLL(5), N.M. HARRISON(6), I.J. BUSH(7), Ph. D'ARCO(8),                 *
 *  M. LLUNELL(9), M. CAUSA'(10), Y. NOEL(8), L. MASCHIO(1,11), A. ERBA(1,11)  *
 *  M. RE'RAT(14), S. CASASSA(1,11), B.G. SEARLE(2), J.K. DESMARAIS(1)         *
 *                                                                             *
 *        CONTRIBUTIONS TO THE CODE HAVE ALSO BEEN GIVEN BY                    *
 *                                                                             *
 *  M. FERRABONE(1,11), M. DE LA PIERRE(1,11), M. FERRERO(1,11),               *
 *  J. BAIMA(1,11), E. ALBANESE(1,11), M.F. PEINTINGER(12), R. BAST(13),       *
 *  B. KIRTMAN(15), V. LACIVITA(1,11), R. DEMICHELIS(1,16)                     *
 *  G. BRANDEBURG(17), S. SALUSTRO(1,11), G. SANSONE(1,11)                     *
 *  M.T. RUGGIERO(18), L.E. DAGA(1), L. DONA'(1), A. COSSARD(1)                *
 *                                                                             *
 * (1) THEORETICAL CHEMISTRY GROUP - UNIVERSITA' DI TORINO - TORINO (ITALY)    *
 * (2) SCIENTIFIC COMPUTING DEPARTMENT - STFC DARESBURY (UK)                   *
 * (3) UNIVERSIDAD AUTONOMA DEL ESTADO DE MORELOS - CUERNAVACA (MEXICO)        *
 * (4) UNIVERSITE' DE LORRAINE - NANCY (FRANCE)                                *
 * (5) UNIVERSITAET STUTTGART- STUTTGART (GERMANY)                             *
 * (6) IMPERIAL COLLEGE - LONDON (UK)                                          *
 * (7) SCIENTIFIC COMPUTING DEPARTMENT - STFC RAL (UK)                         *
 * (8) UPMC - SORBONNE UNIVERSITES - PARIS (FRANCE)                            *
 * (9) UNIVERSIDAD DE BARCELONA - BARCELONA (SPAIN)                            *
 *(10) UNIVERSITA' DI NAPOLI "FEDERICO II" - NAPOLI (ITALY)                    *
 *(11) NIS - NANOSTRUCTURED INTERFACES AND SURFACES - TORINO (ITALY)           *
 *(12) MPI FUER CHEMISCHE ENERGIEKONVERSION - MUELHEIM AN DER RUHR (GERMANY)   *
 *(13) UNIVERSITY OF TROMSO - TROMSO (NORWAY)                                  *
 *(14) UNIVERSITE' DE PAU ET DES PAYS DE L'ADOUR - PAU (FRANCE)                *
 *(15) UNIVERSITY OF CALIFORNIA SANTA BARBARA - SANTA BARBARA (USA)            *
 *(16) CURTIN UNIVERSITY - PERTH (AUSTRALIA)                                   *
 *(17) UNIVERSITY COLLEGE LONDON - LONDON (UK)                                 *
 *(18) UNIVERSITY OF VERMONT - BURLINGTON (USA)                                *
 *                                                                             *
 *******************************************************************************
 EEEEEEEEEE STARTING  DATE 19 02 2026 TIME 18:24:47.6
 cof-1_z35_L030_incl                                                             

 CRYSTAL CALCULATION
 (INPUT ACCORDING TO THE INTERNATIONAL TABLES FOR X-RAY CRYSTALLOGRAPHY)
 CRYSTAL FAMILY                       :  TRICLINIC   
 CRYSTAL CLASS  (GROTH - 1921)        :  TRICLINIC PEDIAL                     

 SPACE GROUP (NONCENTROSYMMETRIC)     :  P 1             

 LATTICE PARAMETERS  (ANGSTROMS AND DEGREES) - CONVENTIONAL CELL
        A           B           C        ALPHA        BETA       GAMMA
    15.02361    15.02392     4.60977    55.69345    89.99996   119.99596


 NUMBER OF IRREDUCIBLE ATOMS IN THE CONVENTIONAL CELL:   42

 INPUT COORDINATES

 ATOM AT. N.              COORDINATES
   1   5     5.558886000000E-01  1.117225900000E-01  5.013622300000E-01
   2   5     7.149442600000E-01  2.707822400000E-01  5.013622500000E-01
   3   5     5.562150900000E-01  2.714266300000E-01  4.984927800000E-01
   4   5     1.694633100000E-01  4.980375900000E-01  5.013622400000E-01
   5   5     3.285712800000E-01  4.980168200000E-01  5.013622300000E-01
   6   5     3.288823200000E-01  6.578176100000E-01  4.984927800000E-01
   7   1     8.459374200000E-01  1.947060300000E-01  4.954132600000E-01
   8   1     3.963319000000E-02  5.770391700000E-01  4.945035600000E-01
   9   1     8.459862200000E-01  4.800904400000E-01  4.943635600000E-01
  10   1     3.974695000000E-02  2.916948900000E-01  4.943984800000E-01
  11   1     6.328693500000E-01 -1.933380000000E-02  5.045816900000E-01
  12   1     2.506618000000E-01  7.868896300000E-01  5.054914600000E-01
  13   1     3.475859300000E-01 -1.953000000000E-02  5.056315500000E-01
  14   1     5.360322000000E-01  7.867754500000E-01  5.055964000000E-01
  15   1     6.339665300000E-01  4.798301800000E-01  4.954133100000E-01
  16   1     2.519604900000E-01  2.915950700000E-01  4.945035100000E-01
  17   1     3.488553800000E-01  1.948412800000E-01  4.943634400000E-01
  18   1     5.373016400000E-01  5.769678600000E-01  4.943985900000E-01
  19   6     8.344412300000E-01  3.310338600000E-01  4.983877900000E-01
  20   6     8.893667700000E-01  2.785293400000E-01  4.955532500000E-01
  21   6    -3.706000000000E-03  4.929854600000E-01  4.953083900000E-01
  22   6     8.892732900000E-01  4.393229200000E-01  4.960432500000E-01
  23   6    -3.534650000000E-03  3.323164000000E-01  4.941535200000E-01
  24   6     5.085304000000E-02  4.396583000000E-01  4.960782100000E-01
  25   6     4.962192400000E-01 -7.483650000000E-03  5.016072100000E-01
  26   6     5.490309400000E-01 -6.274970000000E-02  5.044416900000E-01
  27   6     3.346235300000E-01  8.303010400000E-01  5.046866400000E-01
  28   6     3.881971400000E-01 -6.258983000000E-02  5.039518100000E-01
  29   6     4.954086000000E-01  8.299952000000E-01  5.058414000000E-01
  30   6     3.878415100000E-01  7.758074500000E-01  5.039167700000E-01
  31   6     4.965957900000E-01  3.309647200000E-01  4.983877800000E-01
  32   6     5.500878700000E-01  4.393694700000E-01  4.955533100000E-01
  33   6     3.357292600000E-01  3.319722100000E-01  4.953083300000E-01
  34   6     3.891084500000E-01  2.783207400000E-01  4.960431700000E-01
  35   6     4.967819600000E-01  4.931644200000E-01  4.941535900000E-01
  36   6     3.887771300000E-01  4.395809000000E-01  4.960782100000E-01
  37   8     5.031867600000E-01  1.652590900000E-01  4.992626200000E-01
  38   8     6.614339500000E-01  1.638709900000E-01  5.053165000000E-01
  39   8     6.624844600000E-01  3.249219200000E-01  4.961832200000E-01
  40   8     2.227745900000E-01  6.045395600000E-01  4.992626500000E-01
  41   8     2.220962200000E-01  4.441882700000E-01  5.053165000000E-01
  42   8     3.820688900000E-01  6.052338900000E-01  4.961831900000E-01

 *******************************************************************************

 << INFORMATION >>: FROM NOW ON, ALL COORDINATES REFER TO THE PRIMITIVE CELL

 *******************************************************************************

 LATTICE PARAMETERS  (ANGSTROMS AND DEGREES) - PRIMITIVE CELL
       A          B          C        ALPHA      BETA     GAMMA        VOLUME
   15.02361   15.02392    4.60977    55.69345  89.99996 119.99596    684.188870

 COORDINATES OF THE EQUIVALENT ATOMS (FRACTIONAL UNITS)

 N. ATOM EQUIV AT. N.          X                  Y                  Z

   1   1   1    5 B    -4.44111400000E-01  1.11722590000E-01 -4.98637770000E-01

   2   2   1    5 B    -2.85055740000E-01  2.70782240000E-01 -4.98637750000E-01

   3   3   1    5 B    -4.43784910000E-01  2.71426630000E-01  4.98492780000E-01

   4   4   1    5 B     1.69463310000E-01  4.98037590000E-01 -4.98637760000E-01

   5   5   1    5 B     3.28571280000E-01  4.98016820000E-01 -4.98637770000E-01

   6   6   1    5 B     3.28882320000E-01 -3.42182390000E-01  4.98492780000E-01

   7   7   1    1 H    -1.54062580000E-01  1.94706030000E-01  4.95413260000E-01

   8   8   1    1 H     3.96331900000E-02 -4.22960830000E-01  4.94503560000E-01

   9   9   1    1 H    -1.54013780000E-01  4.80090440000E-01  4.94363560000E-01

  10  10   1    1 H     3.97469500000E-02  2.91694890000E-01  4.94398480000E-01

  11  11   1    1 H    -3.67130650000E-01 -1.93338000000E-02 -4.95418310000E-01

  12  12   1    1 H     2.50661800000E-01 -2.13110370000E-01 -4.94508540000E-01

  13  13   1    1 H     3.47585930000E-01 -1.95300000000E-02 -4.94368450000E-01

  14  14   1    1 H    -4.63967800000E-01 -2.13224550000E-01 -4.94403600000E-01

  15  15   1    1 H    -3.66033470000E-01  4.79830180000E-01  4.95413310000E-01

  16  16   1    1 H     2.51960490000E-01  2.91595070000E-01  4.94503510000E-01

  17  17   1    1 H     3.48855380000E-01  1.94841280000E-01  4.94363440000E-01

  18  18   1    1 H    -4.62698360000E-01 -4.23032140000E-01  4.94398590000E-01

  19  19   1    6 C    -1.65558770000E-01  3.31033860000E-01  4.98387790000E-01

  20  20   1    6 C    -1.10633230000E-01  2.78529340000E-01  4.95553250000E-01

  21  21   1    6 C    -3.70600000000E-03  4.92985460000E-01  4.95308390000E-01

  22  22   1    6 C    -1.10726710000E-01  4.39322920000E-01  4.96043250000E-01

  23  23   1    6 C    -3.53465000000E-03  3.32316400000E-01  4.94153520000E-01

  24  24   1    6 C     5.08530400000E-02  4.39658300000E-01  4.96078210000E-01

  25  25   1    6 C     4.96219240000E-01 -7.48365000000E-03 -4.98392790000E-01

  26  26   1    6 C    -4.50969060000E-01 -6.27497000000E-02 -4.95558310000E-01

  27  27   1    6 C     3.34623530000E-01 -1.69698960000E-01 -4.95313360000E-01

  28  28   1    6 C     3.88197140000E-01 -6.25898300000E-02 -4.96048190000E-01

  29  29   1    6 C     4.95408600000E-01 -1.70004800000E-01 -4.94158600000E-01

  30  30   1    6 C     3.87841510000E-01 -2.24192550000E-01 -4.96083230000E-01

  31  31   1    6 C     4.96595790000E-01  3.30964720000E-01  4.98387780000E-01

  32  32   1    6 C    -4.49912130000E-01  4.39369470000E-01  4.95553310000E-01

  33  33   1    6 C     3.35729260000E-01  3.31972210000E-01  4.95308330000E-01

  34  34   1    6 C     3.89108450000E-01  2.78320740000E-01  4.96043170000E-01

  35  35   1    6 C     4.96781960000E-01  4.93164420000E-01  4.94153590000E-01

  36  36   1    6 C     3.88777130000E-01  4.39580900000E-01  4.96078210000E-01

  37  37   1    8 O    -4.96813240000E-01  1.65259090000E-01  4.99262620000E-01

  38  38   1    8 O    -3.38566050000E-01  1.63870990000E-01 -4.94683500000E-01

  39  39   1    8 O    -3.37515540000E-01  3.24921920000E-01  4.96183220000E-01

  40  40   1    8 O     2.22774590000E-01 -3.95460440000E-01  4.99262650000E-01

  41  41   1    8 O     2.22096220000E-01  4.44188270000E-01 -4.94683500000E-01

  42  42   1    8 O     3.82068890000E-01 -3.94766110000E-01  4.96183190000E-01

 NUMBER OF SYMMETRY OPERATORS         :    1
 *******************************************************************************
 * GEOMETRY EDITING - INPUT COORDINATES ARE GIVEN IN ANGSTROM         
 *******************************************************************************

 GCALCO - MAX INDICES DIRECT LATTICE VECTOR     9    11    31
 NO.OF VECTORS CREATED 6999 STARS 3500 RMAX   197.45968 BOHR

 GEOMETRY FOR WAVE FUNCTION - DIMENSIONALITY OF THE SYSTEM    3
 (NON PERIODIC DIRECTION: LATTICE PARAMETER FORMALLY SET TO 500)
 *******************************************************************************
 LATTICE PARAMETERS (ANGSTROMS AND DEGREES) - BOHR = 0.5291772083 ANGSTROM
 PRIMITIVE CELL - CENTRING CODE 1/0 VOLUME=   684.188870 - DENSITY  0.947 g/cm^3
         A              B              C           ALPHA      BETA       GAMMA 
    15.02361100    15.02391600     4.60977200    55.693449  89.999957 119.995964
 *******************************************************************************
 ATOMS IN THE ASYMMETRIC UNIT   42 - ATOMS IN THE UNIT CELL:   42
     ATOM                 X/A                 Y/B                 Z/C    
 *******************************************************************************
      1 T   5 B    -4.441114000000E-01  1.117225900000E-01 -4.986377700000E-01
      2 T   5 B    -2.850557400000E-01  2.707822400000E-01 -4.986377500000E-01
      3 T   5 B    -4.437849100000E-01  2.714266300000E-01  4.984927800000E-01
      4 T   5 B     1.694633100000E-01  4.980375900000E-01 -4.986377600000E-01
      5 T   5 B     3.285712800000E-01  4.980168200000E-01 -4.986377700000E-01
      6 T   5 B     3.288823200000E-01 -3.421823900000E-01  4.984927800000E-01
      7 T   1 H    -1.540625800000E-01  1.947060300000E-01  4.954132600000E-01
      8 T   1 H     3.963319000000E-02 -4.229608300000E-01  4.945035600000E-01
      9 T   1 H    -1.540137800000E-01  4.800904400000E-01  4.943635600000E-01
     10 T   1 H     3.974695000000E-02  2.916948900000E-01  4.943984800000E-01
     11 T   1 H    -3.671306500000E-01 -1.933380000000E-02 -4.954183100000E-01
     12 T   1 H     2.506618000000E-01 -2.131103700000E-01 -4.945085400000E-01
     13 T   1 H     3.475859300000E-01 -1.953000000000E-02 -4.943684500000E-01
     14 T   1 H    -4.639678000000E-01 -2.132245500000E-01 -4.944036000000E-01
     15 T   1 H    -3.660334700000E-01  4.798301800000E-01  4.954133100000E-01
     16 T   1 H     2.519604900000E-01  2.915950700000E-01  4.945035100000E-01
     17 T   1 H     3.488553800000E-01  1.948412800000E-01  4.943634400000E-01
     18 T   1 H    -4.626983600000E-01 -4.230321400000E-01  4.943985900000E-01
     19 T   6 C    -1.655587700000E-01  3.310338600000E-01  4.983877900000E-01
     20 T   6 C    -1.106332300000E-01  2.785293400000E-01  4.955532500000E-01
     21 T   6 C    -3.706000000000E-03  4.929854600000E-01  4.953083900000E-01
     22 T   6 C    -1.107267100000E-01  4.393229200000E-01  4.960432500000E-01
     23 T   6 C    -3.534650000000E-03  3.323164000000E-01  4.941535200000E-01
     24 T   6 C     5.085304000000E-02  4.396583000000E-01  4.960782100000E-01
     25 T   6 C     4.962192400000E-01 -7.483650000000E-03 -4.983927900000E-01
     26 T   6 C    -4.509690600000E-01 -6.274970000000E-02 -4.955583100000E-01
     27 T   6 C     3.346235300000E-01 -1.696989600000E-01 -4.953133600000E-01
     28 T   6 C     3.881971400000E-01 -6.258983000000E-02 -4.960481900000E-01
     29 T   6 C     4.954086000000E-01 -1.700048000000E-01 -4.941586000000E-01
     30 T   6 C     3.878415100000E-01 -2.241925500000E-01 -4.960832300000E-01
     31 T   6 C     4.965957900000E-01  3.309647200000E-01  4.983877800000E-01
     32 T   6 C    -4.499121300000E-01  4.393694700000E-01  4.955533100000E-01
     33 T   6 C     3.357292600000E-01  3.319722100000E-01  4.953083300000E-01
     34 T   6 C     3.891084500000E-01  2.783207400000E-01  4.960431700000E-01
     35 T   6 C     4.967819600000E-01  4.931644200000E-01  4.941535900000E-01
     36 T   6 C     3.887771300000E-01  4.395809000000E-01  4.960782100000E-01
     37 T   8 O    -4.968132400000E-01  1.652590900000E-01  4.992626200000E-01
     38 T   8 O    -3.385660500000E-01  1.638709900000E-01 -4.946835000000E-01
     39 T   8 O    -3.375155400000E-01  3.249219200000E-01  4.961832200000E-01
     40 T   8 O     2.227745900000E-01 -3.954604400000E-01  4.992626500000E-01
     41 T   8 O     2.220962200000E-01  4.441882700000E-01 -4.946835000000E-01
     42 T   8 O     3.820688900000E-01 -3.947661100000E-01  4.961831900000E-01

 T = ATOM BELONGING TO THE ASYMMETRIC UNIT

 ****    1 SYMMOPS - TRANSLATORS IN FRACTIONAL UNITS
 **** MATRICES AND TRANSLATORS IN THE CRYSTALLOGRAPHIC REFERENCE FRAME
   V INV                    ROTATION MATRICES                   TRANSLATORS
   1   1  1.00 -0.00  0.00  0.00  1.00  0.00  0.00 -0.00  1.00  0.00  0.00  0.00

 DIRECT LATTICE VECTORS CARTESIAN COMPONENTS (ANGSTROM)
          X                    Y                    Z
   0.130113578931E+02  -0.751088897922E+01   0.000000000000E+00
   0.000000000000E+00   0.150239160000E+02   0.000000000000E+00
   0.149980950575E+01   0.259816199242E+01   0.350001765705E+01


 CARTESIAN COORDINATES - PRIMITIVE CELL
 *******************************************************************************
 *      ATOM          X(ANGSTROM)         Y(ANGSTROM)         Z(ANGSTROM)
 *******************************************************************************
    1     5 B    -6.526354037156E+00  3.718640525270E+00 -1.745240999470E+00
    2     5 B    -4.456823889984E+00  4.913689994047E+00 -1.745240929469E+00
    3     5 B     6.484948305753E+00 -1.402775898198E+00 -1.755284125136E+00
    4     5 B     1.457086123780E+00  4.914113133527E+00 -1.745240964469E+00
    5     5 B     3.527296850090E+00  3.718758762431E+00 -1.745240999470E+00
    6     5 B     3.527040274463E+00  6.109800925288E+00 -1.755284125136E+00
    7     1 H    -2.761347355433E+00  2.771395883900E+00 -1.766062499511E+00
    8     1 H     1.257342759447E+00 -5.367408116486E+00  1.730771191472E+00
    9     1 H    -1.262477245460E+00 -5.369860542160E+00  1.730281189000E+00
   10     1 H    -2.411441742079E-01  2.770229943705E+00 -1.769614247429E+00
   11     1 H    -4.020091865573E+00  3.777993134884E+00  1.766044824422E+00
   12     1 H     4.019591286699E+00 -3.771096549877E+00  1.769229035485E+00
   13     1 H     5.280915938916E+00 -1.590383735072E+00  1.769719352959E+00
   14     1 H    -5.278552809863E+00  1.594964257376E+00  1.769596327338E+00
   15     1 H    -4.019566887397E+00 -3.778586892989E+00  1.733955332535E+00
   16     1 H     2.520199669477E+00  1.175090802538E+00 -1.769246640574E+00
   17     1 H     3.780723682958E+00 -1.006660697098E+00 -1.769736888048E+00
   18     1 H    -5.278830253581E+00 -1.595795698193E+00  1.730403794618E+00
   19     6 C    -2.906467169560E+00  4.913648667848E+00 -1.755651591989E+00
   20     6 C    -2.196062581187E+00  3.704920942590E+00 -1.765572532039E+00
   21     6 C    -8.051613664997E-01  6.123136935825E+00 -1.766429546362E+00
   22     6 C     8.030750352257E-01 -3.704946616042E+00  5.236177790703E+00
   23     6 C    -8.046639553286E-01  3.704970944420E+00 -1.770471611754E+00
   24     6 C    -9.411958740437E-02  4.914167388279E+00 -1.763735162770E+00
   25     6 C     7.208801386769E+00 -2.536224561821E+00  1.755634091901E+00
   26     6 C    -5.111153396599E+00  3.755053547244E+00  1.765554821950E+00
   27     6 C     5.110840328363E+00 -3.751605457863E+00  1.766412151275E+00
   28     6 C     5.806803636677E+00 -2.546701530213E+00  1.763840233300E+00
   29     6 C    -5.806753555039E+00  2.550050050141E+00  1.770453831664E+00
   30     6 C     2.802504842653E+00  4.855564852156E+00 -5.236317721409E+00
   31     6 C     5.709062776121E+00 -6.075949892793E-02 -1.755651626990E+00
   32     6 C    -3.610922673170E+00 -1.157936163249E+00  5.234462992052E+00
   33     6 C     3.611352192894E+00  1.154626683557E+00 -1.766429756364E+00
   34     6 C     4.306990058043E+00 -5.044443153135E-02 -1.763857803388E+00
   35     6 C     5.705134622209E+00  2.363715755369E+00 -1.770471366753E+00
   36     6 C     4.302731688271E+00  2.374894213788E+00 -1.763735162770E+00
   37     8 O     5.796132339001E+00 -2.597538032673E+00 -1.752589671542E+00
   38     8 O    -5.147135062624E+00  3.719648134304E+00 -1.731400984649E+00
   39     8 O    -2.147545669715E+00 -3.719948241767E+00  5.236667688174E+00
   40     8 O     2.147589282557E+00  6.108319604284E+00 -1.752589566542E+00
   41     8 O     2.147842389480E+00  3.720039337567E+00 -1.731400984649E+00
   42     8 O     4.215605826800E+00  4.914308421629E+00 -1.763367730916E+00

 *******************************************************************************
 STARTING BASIS SET HANDLING 
 *******************************************************************************

 Loading internal basis set: SOLDEF2MSVP         

 Please cite in your publication:
 L. Dona', J. G. Brandenburg and B. Civalleri, J. Chem. Phys., 151, 121101 (2019
 )                                                                              
                                                                                
                    

 *******************************************************************************
 LOCAL ATOMIC FUNCTIONS BASIS SET
 *******************************************************************************
   ATOM   X(AU)   Y(AU)   Z(AU)  N. TYPE  EXPONENT  S COEF   P COEF   D/F/G COEF
 *******************************************************************************
   1 B  -12.333   7.027  -3.298
                                  1 S  
                                         2.410E+03 1.755E-03 0.000E+00 0.000E+00
                                         3.619E+02 1.344E-02 0.000E+00 0.000E+00
                                         8.231E+01 6.637E-02 0.000E+00 0.000E+00
                                         2.311E+01 2.303E-01 0.000E+00 0.000E+00
                                         7.252E+00 5.150E-01 0.000E+00 0.000E+00
                                  2 S  
                                         2.367E+00 1.000E+00 0.000E+00 0.000E+00
                                  3 S  
                                         5.533E-01 1.000E+00 0.000E+00 0.000E+00
                                  4 S  
                                         1.716E-01 1.000E+00 0.000E+00 0.000E+00
                           5-     7 P  
                                         6.002E+00 0.000E+00-3.555E-02 0.000E+00
                                         1.240E+00 0.000E+00-1.983E-01 0.000E+00
                                         3.367E-01 0.000E+00-5.048E-01 0.000E+00
                           8-    10 P  
                                         1.256E-01 0.000E+00 1.000E+00 0.000E+00
                          11-    15 D  
                                         8.880E-01 0.000E+00 0.000E+00 1.000E+00
   2 B   -8.422   9.286  -3.298
   3 B   12.255  -2.651  -3.317
   4 B    2.753   9.286  -3.298
   5 B    6.666   7.027  -3.298
   6 B    6.665  11.546  -3.317
   7 H   -5.218   5.237  -3.337
                                 91 S  
                                         1.874E+01 1.968E-02 0.000E+00 0.000E+00
                                         2.826E+00 1.380E-01 0.000E+00 0.000E+00
                                         6.401E-01 4.783E-01 0.000E+00 0.000E+00
                                 92 S  
                                         1.756E-01 1.000E+00 0.000E+00 0.000E+00
   8 H    2.376 -10.143   3.271
   9 H   -2.386 -10.148   3.270
  10 H   -0.456   5.235  -3.344
  11 H   -7.597   7.139   3.337
  12 H    7.596  -7.126   3.343
  13 H    9.979  -3.005   3.344
  14 H   -9.975   3.014   3.344
  15 H   -7.596  -7.140   3.277
  16 H    4.762   2.221  -3.343
  17 H    7.145  -1.902  -3.344
  18 H   -9.976  -3.016   3.270
  19 C   -5.492   9.285  -3.318
                                115 S  
                                         3.624E+03 1.634E-03 0.000E+00 0.000E+00
                                         5.440E+02 1.252E-02 0.000E+00 0.000E+00
                                         1.237E+02 6.211E-02 0.000E+00 0.000E+00
                                         3.476E+01 2.182E-01 0.000E+00 0.000E+00
                                         1.093E+01 4.980E-01 0.000E+00 0.000E+00
                                116 S  
                                         3.574E+00 1.000E+00 0.000E+00 0.000E+00
                                117 S  
                                         7.742E-01 1.000E+00 0.000E+00 0.000E+00
                                118 S  
                                         2.330E-01 1.000E+00 0.000E+00 0.000E+00
                         119-   121 P  
                                         9.443E+00 0.000E+00 3.790E-02 0.000E+00
                                         2.002E+00 0.000E+00 2.082E-01 0.000E+00
                                         5.463E-01 0.000E+00 5.047E-01 0.000E+00
                         122-   124 P  
                                         1.820E-01 0.000E+00 1.000E+00 0.000E+00
                         125-   129 D  
                                         8.880E-01 0.000E+00 0.000E+00 1.000E+00
  20 C   -4.150   7.001  -3.336
  21 C   -1.522  11.571  -3.338
  22 C    1.518  -7.001   9.895
  23 C   -1.521   7.001  -3.346
  24 C   -0.178   9.286  -3.333
  25 C   13.623  -4.793   3.318
  26 C   -9.659   7.096   3.336
  27 C    9.658  -7.090   3.338
  28 C   10.973  -4.813   3.333
  29 C  -10.973   4.819   3.346
  30 C    5.296   9.176  -9.895
  31 C   10.789  -0.115  -3.318
  32 C   -6.824  -2.188   9.892
  33 C    6.824   2.182  -3.338
  34 C    8.139  -0.095  -3.333
  35 C   10.781   4.467  -3.346
  36 C    8.131   4.488  -3.333
  37 O   10.953  -4.909  -3.312
                                385 S  
                                         6.773E+03 1.727E-03 0.000E+00 0.000E+00
                                         1.017E+03 1.325E-02 0.000E+00 0.000E+00
                                         2.313E+02 6.603E-02 0.000E+00 0.000E+00
                                         6.501E+01 2.353E-01 0.000E+00 0.000E+00
                                         2.050E+01 5.498E-01 0.000E+00 0.000E+00
                                386 S  
                                         6.716E+00 1.000E+00 0.000E+00 0.000E+00
                                387 S  
                                         1.147E+00 1.000E+00 0.000E+00 0.000E+00
                                388 S  
                                         3.342E-01 1.000E+00 0.000E+00 0.000E+00
                         389-   391 P  
                                         1.769E+01 0.000E+00 4.359E-02 0.000E+00
                                         3.854E+00 0.000E+00 2.318E-01 0.000E+00
                                         1.047E+00 0.000E+00 5.146E-01 0.000E+00
                         392-   394 P  
                                         2.759E-01 0.000E+00 1.000E+00 0.000E+00
                         395-   399 D  
                                         8.000E-01 0.000E+00 0.000E+00 1.000E+00
  38 O   -9.727   7.029  -3.272
  39 O   -4.058  -7.030   9.896
  40 O    4.058  11.543  -3.312
  41 O    4.059   7.030  -3.272
  42 O    7.966   9.287  -3.332

 *******************************************************************************
 FINISHED BASIS SET HANDLING 
 *******************************************************************************

 INFORMATION **** SET_MPP **** PCRYSTAL CALCULATION
 INFORMATION **** READM2 **** NEW DEFAULT: FOCK/KS MATRIX MIXING SET TO 30 %
 INFORMATION **** READM2 **** NEW DEFAULT: FULL DIRECT SCF MODE
 INFORMATION **** READM2 **** NEW DEFAULT: COULOMB BIPOLAR BUFFER SET TO 32 Mb
 INFORMATION **** READM2 **** NEW DEFAULT: EXCHANGE BIPOLAR BUFFER SET TO 32 Mb

 *******************************************************************************
 NEW DEFAULT: DFT INTEGRATION GRID INCREASED TO XLGRID
 NEW DEFAULT: DIIS ACCELERATOR ACTIVE
 USE KEYWORD NODIIS TO TURN IT OFF
 *******************************************************************************

 WARNING **** RDDFTP **** HSEsol-HJS ACTIVE
 RANGE SEPARATION - OMEGA:   0.110000000000000     
 WARNING **** RDDFTP **** HSEsol-3c has to be combined with sol-def2-mSVP basis set
 *******************************************************************************
 N. OF ATOMS PER CELL        42  COULOMB OVERLAP TOL         (T1) 10**   -6
 NUMBER OF SHELLS           234  COULOMB PENETRATION TOL     (T2) 10**   -6
 NUMBER OF AO               474  EXCHANGE OVERLAP TOL        (T3) 10**   -6
 N. OF ELECTRONS PER CELL   198  EXCHANGE PSEUDO OVP (F(G))  (T4) 10**   -6
 CORE ELECTRONS PER CELL     60  EXCHANGE PSEUDO OVP (P(G))  (T5) 10**  -12
 N. OF SYMMETRY OPERATORS     1  POLE ORDER IN MONO ZONE                  4
 *******************************************************************************
 TYPE OF CALCULATION :  RESTRICTED CLOSED SHELL
 KOHN-SHAM HAMILTONIAN

 (EXCHANGE)[CORRELATION] FUNCTIONAL:(HSEsol GGA)[PBEsol]

 RANGE-SEPARATED HYBRID FUNCTIONAL 
 OMEGA (SHORT-RANGE)[LONG-RANGE]:(    0.1100)[    0.0000]

 HYBRID EXCHANGE - PERCENTAGE OF FOCK EXCHANGE    25.0000

 CAPPA:IS1  2;IS2  2;IS3  8; K PTS MONK NET  20; SYMMOPS:K SPACE   2;G SPACE   1

 *******************************************************************************
 MAX NUMBER OF SCF CYCLES      50  CONVERGENCE ON DELTAP        10**-16
 WEIGHT OF F(I) IN F(I+1)      30% CONVERGENCE ON ENERGY        10**- 6
 SHRINK. FACT.(MONKH.)    2  2  8  NUMBER OF K POINTS IN THE IBZ     20
 SHRINKING FACTOR(GILAT NET)    8  NUMBER OF K POINTS(GILAT NET)   1028
 *******************************************************************************
 *** K POINTS COORDINATES (OBLIQUE COORDINATES IN UNITS OF IS =  2)
   1-R(  0  0  0)   2-R(  1  0  0)   3-R(  0  1  0)   4-R(  1  1  0)
   5-C(  0  0  1)   6-C(  1  0  1)   7-C(  0  1  1)   8-C(  1  1  1)
   9-C(  0  0  2)  10-C(  1  0  2)  11-C(  0  1  2)  12-C(  1  1  2)
  13-C(  0  0  3)  14-C(  1  0  3)  15-C(  0  1  3)  16-C(  1  1  3)
  17-R(  0  0  4)  18-R(  1  0  4)  19-R(  0  1  4)  20-R(  1  1  4)

 DIRECT LATTICE VECTORS COMPON. (A.U.)     RECIP. LATTICE VECTORS COMPON. (A.U.) 
        X            Y            Z              X            Y            Z
   24.5879030  -14.1935232    0.0000000      0.2555397    0.0000000   -0.1095026
    0.0000000   28.3910867    0.0000000      0.1277517    0.2213084   -0.2190269
    2.8342292    4.9098146    6.6140748      0.0000000    0.0000000    0.9499719

 DISK SPACE FOR EIGENVECTORS (FTN 10)     7189632 REALS

 SYMMETRY ADAPTION OF THE BLOCH FUNCTIONS DISABLED
 TTTTTTTTTTTTTTTTTTTTTTTTTTTTTT gordsh1     TELAPSE        0.04 TCPU        0.04

 MATRIX SIZE: P(G)  362092, F(G)   74300, P(G) IRR  182543, F(G) IRR   74996
 MAX G-VECTOR INDEX FOR 1- AND 2-ELECTRON INTEGRALS  59

 TTTTTTTTTTTTTTTTTTTTTTTTTTTTTT INPUT       TELAPSE        0.35 TCPU        0.34

 NEIGHBORS OF THE NON-EQUIVALENT ATOMS

 N = NUMBER OF NEIGHBORS AT DISTANCE R
    ATOM  N     R/ANG      R/AU   NEIGHBORS (ATOM LABELS AND CELL INDICES)
   1 B    1     1.3791     2.6061   37 O   -1 0 0
   1 B    1     1.3793     2.6065   38 O    0 0 0
   1 B    1     1.5503     2.9297   25 C   -1 0-1
   1 B    1     2.3895     4.5155    3 B   -1 0 0
   1 B    1     2.3898     4.5160    2 B    0 0 0
   1 B    1     2.5632     4.8437   26 C    0 0-1

   2 B    1     1.3793     2.6065   39 O    0 1-2
   2 B    1     1.3793     2.6065   38 O    0 0 0
   2 B    1     1.5504     2.9298   19 C    0 0 0
   2 B    1     2.3895     4.5156    3 B   -1 0 0
   2 B    1     2.3898     4.5160    1 B    0 0 0
   2 B    1     2.5634     4.8440   22 C    0 1-2

   3 B    1     1.3791     2.6061   37 O    0 0 0
   3 B    1     1.3793     2.6064   39 O    1 1-2
   3 B    1     1.5502     2.9294   31 C    0 0 0
   3 B    1     2.3895     4.5155    1 B    1 0 0
   3 B    1     2.3895     4.5156    2 B    1 0 0
   3 B    1     2.5629     4.8433   32 C    1 1-2

   4 B    1     1.3795     2.6068   40 O    0 0 0
   4 B    1     1.3795     2.6070   41 O    0 0 0
   4 B    1     1.5513     2.9316   24 C    0 0 0
   4 B    1     2.3905     4.5174    6 B    0 0 0
   4 B    1     2.3905     4.5175    5 B    0 0 0
   4 B    1     2.5648     4.8468   23 C    0 0 0

   5 B    1     1.3795     2.6069   41 O    0 0 0
   5 B    1     1.3797     2.6072   42 O    0 0 0
   5 B    1     1.5516     2.9322   36 C    0 0 0
   5 B    1     2.3905     4.5175    4 B    0 0 0
   5 B    1     2.3911     4.5185    6 B    0 0 0
   5 B    1     2.5651     4.8473   35 C    0 0 0

   6 B    1     1.3795     2.6068   40 O    0 0 0
   6 B    1     1.3796     2.6071   42 O    0 0 0
   6 B    1     1.5516     2.9322   30 C    0 0 1
   6 B    1     2.3905     4.5174    4 B    0 0 0
   6 B    1     2.3911     4.5185    5 B    0 0 0
   6 B    1     2.5651     4.8473   29 C    1 1-1

   7 H    1     1.0913     2.0623   20 C    0 0 0
   7 H    1     2.1472     4.0576   19 C    0 0 0
   7 H    1     2.1680     4.0969   23 C    0 0 0
   7 H    1     2.5202     4.7625   10 H    0 0 0
   7 H    1     2.5676     4.8520   38 O    0 0 0
   7 H    1     2.7321     5.1630    2 B    0 0 0

   8 H    1     1.0914     2.0625   21 C    0-1 1
   8 H    1     2.1493     4.0616   24 C    0-1 1
   8 H    1     2.1666     4.0942   22 C    0 0-1
   8 H    1     2.5198     4.7618    9 H    0 0 0
   8 H    1     2.5720     4.8604   40 O    0-1 1
   8 H    1     2.7362     5.1707    4 B    0-1 1

   9 H    1     1.0914     2.0624   22 C    0 0-1
   9 H    1     2.1471     4.0575   19 C    0-1 1
   9 H    1     2.1680     4.0970   21 C    0-1 1
   9 H    1     2.5198     4.7618    8 H    0 0 0
   9 H    1     2.5665     4.8500   39 O    0 0-1
   9 H    1     2.7315     5.1618    2 B    0-1 1

  10 H    1     1.0915     2.0626   23 C    0 0 0
  10 H    1     2.1490     4.0610   24 C    0 0 0
  10 H    1     2.1669     4.0948   20 C    0 0 0
  10 H    1     2.5202     4.7625    7 H    0 0 0
  10 H    1     2.5712     4.8588   41 O    0 0 0
  10 H    1     2.7351     5.1686    4 B    0 0 0

  11 H    1     1.0913     2.0623   26 C    0 0 0
  11 H    1     2.1469     4.0571   25 C   -1 0 0
  11 H    1     2.1680     4.0968   29 C    0 0 0
  11 H    1     2.5198     4.7617   14 H    0 0 0
  11 H    1     2.5670     4.8510   38 O    0 0 1
  11 H    1     2.7310     5.1609    1 B    0 0 1

  12 H    1     1.0914     2.0625   27 C    0 0 0
  12 H    1     2.1493     4.0617   30 C    0-1 2
  12 H    1     2.1664     4.0939   28 C    0 0 0
  12 H    1     2.5192     4.7606   13 H    0 0 0
  12 H    1     2.5735     4.8632   40 O    0-1 1
  12 H    1     2.7371     5.1723    6 B    0-1 1

  13 H    1     1.0914     2.0624   28 C    0 0 0
  13 H    1     2.1475     4.0581   25 C    0 0 0
  13 H    1     2.1679     4.0967   27 C    0 0 0
  13 H    1     2.5192     4.7606   12 H    0 0 0
  13 H    1     2.5675     4.8519   37 O    0 0 1
  13 H    1     2.7328     5.1643    1 B    1 0 1

  14 H    1     1.0914     2.0625   29 C    0 0 0
  14 H    1     2.1491     4.0612   30 C   -1-1 2
  14 H    1     2.1666     4.0942   26 C    0 0 0
  14 H    1     2.5198     4.7617   11 H    0 0 0
  14 H    1     2.5723     4.8609   42 O   -1-1 1
  14 H    1     2.7355     5.1693    6 B   -1-1 1

  15 H    1     1.0914     2.0624   32 C    0 0-1
  15 H    1     2.1475     4.0582   31 C   -1-1 1
  15 H    1     2.1678     4.0966   35 C   -1-1 1
  15 H    1     2.5200     4.7621   18 H    0 0 0
  15 H    1     2.5667     4.8503   39 O    0 0-1
  15 H    1     2.7315     5.1618    3 B   -1-1 1

  16 H    1     1.0913     2.0623   33 C    0 0 0
  16 H    1     2.1487     4.0605   36 C    0 0 0
  16 H    1     2.1667     4.0945   34 C    0 0 0
  16 H    1     2.5197     4.7616   17 H    0 0 0
  16 H    1     2.5723     4.8610   41 O    0 0 0
  16 H    1     2.7359     5.1701    5 B    0 0 0

  17 H    1     1.0915     2.0626   34 C    0 0 0
  17 H    1     2.1479     4.0589   31 C    0 0 0
  17 H    1     2.1679     4.0968   33 C    0 0 0
  17 H    1     2.5197     4.7616   16 H    0 0 0
  17 H    1     2.5677     4.8522   37 O    0 0 0
  17 H    1     2.7331     5.1648    3 B    0 0 0

  18 H    1     1.0914     2.0624   35 C   -1-1 1
  18 H    1     2.1486     4.0602   36 C   -1-1 1
  18 H    1     2.1668     4.0947   32 C    0 0-1
  18 H    1     2.5200     4.7621   15 H    0 0 0
  18 H    1     2.5717     4.8598   42 O   -1-1 1
  18 H    1     2.7349     5.1682    5 B   -1-1 1

  19 C    1     1.4020     2.6495   22 C    0 1-2
  19 C    1     1.4021     2.6495   20 C    0 0 0
  19 C    1     1.5504     2.9298    2 B    0 0 0
  19 C    1     2.1471     4.0575    9 H    0 1-1
  19 C    1     2.1472     4.0576    7 H    0 0 0
  19 C    1     2.4246     4.5817   21 C    0 0 0

  20 C    1     1.0913     2.0623    7 H    0 0 0
  20 C    1     1.3914     2.6294   23 C    0 0 0
  20 C    1     1.4021     2.6495   19 C    0 0 0
  20 C    1     2.1669     4.0948   10 H    0 0 0
  20 C    1     2.4177     4.5688   22 C    0 1-2
  20 C    1     2.4250     4.5825   24 C    0 0 0

  21 C    1     1.0914     2.0625    8 H    0 1-1
  21 C    1     1.3914     2.6293   22 C    0 1-2
  21 C    1     1.4026     2.6505   24 C    0 0 0
  21 C    1     2.1680     4.0970    9 H    0 1-1
  21 C    1     2.4182     4.5697   23 C    0 0 0
  21 C    1     2.4246     4.5817   19 C    0 0 0

  22 C    1     1.0914     2.0624    9 H    0 0 1
  22 C    1     1.3914     2.6293   21 C    0-1 2
  22 C    1     1.4020     2.6495   19 C    0-1 2
  22 C    1     2.1666     4.0942    8 H    0 0 1
  22 C    1     2.4177     4.5688   20 C    0-1 2
  22 C    1     2.4250     4.5826   24 C    0-1 2

  23 C    1     1.0915     2.0626   10 H    0 0 0
  23 C    1     1.3914     2.6294   20 C    0 0 0
  23 C    1     1.4025     2.6504   24 C    0 0 0
  23 C    1     2.1680     4.0969    7 H    0 0 0
  23 C    1     2.4182     4.5697   21 C    0 0 0
  23 C    1     2.4246     4.5818   19 C    0 0 0

  24 C    1     1.4025     2.6504   23 C    0 0 0
  24 C    1     1.4026     2.6505   21 C    0 0 0
  24 C    1     1.5513     2.9316    4 B    0 0 0
  24 C    1     2.1490     4.0610   10 H    0 0 0
  24 C    1     2.1493     4.0616    8 H    0 1-1
  24 C    1     2.4250     4.5825   20 C    0 0 0

  25 C    1     1.4020     2.6494   26 C    1 0 0
  25 C    1     1.4021     2.6495   28 C    0 0 0
  25 C    1     1.5503     2.9297    1 B    1 0 1
  25 C    1     2.1469     4.0571   11 H    1 0 0
  25 C    1     2.1475     4.0581   13 H    0 0 0
  25 C    1     2.4246     4.5818   27 C    0 0 0

  26 C    1     1.0913     2.0623   11 H    0 0 0
  26 C    1     1.3914     2.6293   29 C    0 0 0
  26 C    1     1.4020     2.6494   25 C   -1 0 0
  26 C    1     2.1666     4.0942   14 H    0 0 0
  26 C    1     2.4175     4.5684   28 C   -1 0 0
  26 C    1     2.4251     4.5828   30 C   -1-1 2

  27 C    1     1.0914     2.0625   12 H    0 0 0
  27 C    1     1.3915     2.6295   28 C    0 0 0
  27 C    1     1.4026     2.6505   30 C    0-1 2
  27 C    1     2.1679     4.0967   13 H    0 0 0
  27 C    1     2.4179     4.5691   29 C    1 0 0
  27 C    1     2.4246     4.5818   25 C    0 0 0

  28 C    1     1.0914     2.0624   13 H    0 0 0
  28 C    1     1.3915     2.6295   27 C    0 0 0
  28 C    1     1.4021     2.6495   25 C    0 0 0
  28 C    1     2.1664     4.0939   12 H    0 0 0
  28 C    1     2.4175     4.5684   26 C    1 0 0
  28 C    1     2.4253     4.5832   30 C    0-1 2

  29 C    1     1.0914     2.0625   14 H    0 0 0
  29 C    1     1.3914     2.6293   26 C    0 0 0
  29 C    1     1.4025     2.6504   30 C   -1-1 2
  29 C    1     2.1680     4.0968   11 H    0 0 0
  29 C    1     2.4179     4.5691   27 C   -1 0 0
  29 C    1     2.4247     4.5819   25 C   -1 0 0

  30 C    1     1.4025     2.6504   29 C    1 1-2
  30 C    1     1.4026     2.6505   27 C    0 1-2
  30 C    1     1.5516     2.9322    6 B    0 0-1
  30 C    1     2.1491     4.0612   14 H    1 1-2
  30 C    1     2.1493     4.0617   12 H    0 1-2
  30 C    1     2.4251     4.5828   26 C    1 1-2

  31 C    1     1.4021     2.6496   32 C    1 1-2
  31 C    1     1.4021     2.6497   34 C    0 0 0
  31 C    1     1.5502     2.9294    3 B    0 0 0
  31 C    1     2.1475     4.0582   15 H    1 1-1
  31 C    1     2.1479     4.0589   17 H    0 0 0
  31 C    1     2.4244     4.5814   33 C    0 0 0

  32 C    1     1.0914     2.0624   15 H    0 0 1
  32 C    1     1.3914     2.6293   35 C   -1-1 2
  32 C    1     1.4021     2.6496   31 C   -1-1 2
  32 C    1     2.1668     4.0947   18 H    0 0 1
  32 C    1     2.4179     4.5692   34 C   -1-1 2
  32 C    1     2.4251     4.5827   36 C   -1-1 2

  33 C    1     1.0913     2.0623   16 H    0 0 0
  33 C    1     1.3914     2.6294   34 C    0 0 0
  33 C    1     1.4025     2.6504   36 C    0 0 0
  33 C    1     2.1679     4.0968   17 H    0 0 0
  33 C    1     2.4178     4.5690   35 C    0 0 0
  33 C    1     2.4244     4.5814   31 C    0 0 0

  34 C    1     1.0915     2.0626   17 H    0 0 0
  34 C    1     1.3914     2.6294   33 C    0 0 0
  34 C    1     1.4021     2.6497   31 C    0 0 0
  34 C    1     2.1667     4.0945   16 H    0 0 0
  34 C    1     2.4179     4.5692   32 C    1 1-2
  34 C    1     2.4253     4.5832   36 C    0 0 0

  35 C    1     1.0914     2.0624   18 H    1 1-1
  35 C    1     1.3914     2.6293   32 C    1 1-2
  35 C    1     1.4025     2.6503   36 C    0 0 0
  35 C    1     2.1678     4.0966   15 H    1 1-1
  35 C    1     2.4178     4.5690   33 C    0 0 0
  35 C    1     2.4245     4.5817   31 C    0 0 0

  36 C    1     1.4025     2.6503   35 C    0 0 0
  36 C    1     1.4025     2.6504   33 C    0 0 0
  36 C    1     1.5516     2.9322    5 B    0 0 0
  36 C    1     2.1486     4.0602   18 H    1 1-1
  36 C    1     2.1487     4.0605   16 H    0 0 0
  36 C    1     2.4251     4.5827   32 C    1 1-2

  37 O    1     1.3791     2.6061    1 B    1 0 0
  37 O    1     1.3791     2.6061    3 B    0 0 0
  37 O    1     2.3880     4.5126   38 O    1 0 0
  37 O    1     2.3882     4.5130   39 O    1 1-2
  37 O    1     2.5383     4.7966   31 C    0 0 0
  37 O    1     2.5384     4.7968   25 C    0 0-1

  38 O    1     1.3793     2.6065    1 B    0 0 0
  38 O    1     1.3793     2.6065    2 B    0 0 0
  38 O    1     2.3880     4.5126   37 O   -1 0 0
  38 O    1     2.3882     4.5131   39 O    0 1-2
  38 O    1     2.5391     4.7981   19 C    0 0 0
  38 O    1     2.5395     4.7990   25 C   -1 0-1

  39 O    1     1.3793     2.6064    3 B   -1-1 2
  39 O    1     1.3793     2.6065    2 B    0-1 2
  39 O    1     2.3882     4.5130   37 O   -1-1 2
  39 O    1     2.3882     4.5131   38 O    0-1 2
  39 O    1     2.5390     4.7980   19 C    0-1 2
  39 O    1     2.5391     4.7982   31 C   -1-1 2

  40 O    1     1.3795     2.6068    6 B    0 0 0
  40 O    1     1.3795     2.6068    4 B    0 0 0
  40 O    1     2.3880     4.5126   42 O    0 0 0
  40 O    1     2.3884     4.5134   41 O    0 0 0
  40 O    1     2.5400     4.7998   24 C    0 0 0
  40 O    1     2.5403     4.8005   30 C    0 0 1

  41 O    1     1.3795     2.6069    5 B    0 0 0
  41 O    1     1.3795     2.6070    4 B    0 0 0
  41 O    1     2.3881     4.5128   42 O    0 0 0
  41 O    1     2.3884     4.5134   40 O    0 0 0
  41 O    1     2.5404     4.8006   24 C    0 0 0
  41 O    1     2.5405     4.8008   36 C    0 0 0

  42 O    1     1.3796     2.6071    6 B    0 0 0
  42 O    1     1.3797     2.6072    5 B    0 0 0
  42 O    1     2.3880     4.5126   40 O    0 0 0
  42 O    1     2.3881     4.5128   41 O    0 0 0
  42 O    1     2.5409     4.8016   36 C    0 0 0
  42 O    1     2.5410     4.8019   30 C    0 0 1


 SYMMETRY ALLOWED INTERNAL DEGREE(S) OF FREEDOM: 123
 TTTTTTTTTTTTTTTTTTTTTTTTTTTTTT SYMM        TELAPSE        0.35 TCPU        0.35
 TTTTTTTTTTTTTTTTTTTTTTTTTTTTTT INT_SCREEN  TELAPSE        0.38 TCPU        0.38

 DFT PARAMETERS

     ATOM       ELECTRONS   NET CHARGE   R(ANGSTROM)
   1   5  B       5.0000      0.0000     0.89000000
   7   1  H       1.0000      0.0000     1.11000000
  19   6  C       6.0000      0.0000     0.77000000
  37   8  O       8.0000      0.0000     0.74000000

 SIZE OF GRID=    1269546
 TTTTTTTTTTTTTTTTTTTTTTTTTTTTTT MAKE_GRID2  TELAPSE       10.84 TCPU       10.83
 BECKE WEIGHT FUNCTION
 RADSAFE =     2.00
 TOLERANCES - DENSITY:10**- 6; POTENTIAL:10**- 9; GRID WGT:10**-14

 RADIAL INTEGRATION  - INTERVALS (POINTS,UPPER LIMIT):            1( 75,  4.0*R)

 ANGULAR INTEGRATION - INTERVALS (ACCURACY LEVEL [N. POINTS] UPPER LIMIT):
  1(  4[  86]   0.2)  2(  8[ 194]   0.5)  3( 12[ 350]   0.9)  4( 16[ 974]   3.5)
  5( 12[ 350]9999.0)
 TTTTTTTTTTTTTTTTTTTTTTTTTTTTTT INT_CALC    TELAPSE       10.94 TCPU       10.93
 EEEEEEEEEE INT_CALC TERMINATION  DATE 19 02 2026 TIME 18:24:58.5

 *******************************************************************************
 cof-1_z35_L030_incl                                                             
 CRYSTAL - SCF - TYPE OF CALCULATION :  RESTRICTED CLOSED SHELL
 *******************************************************************************

 CAPPA:IS1  2;IS2  2;IS3  8; K PTS MONK NET  20; SYMMOPS:K SPACE   2;G SPACE   1

 TTTTTTTTTTTTTTTTTTTTTTTTTTTTTT SDIK        TELAPSE       11.58 TCPU       18.96

 AAAAAAAAAAAAAAAAAAAAAAAAAAAAAAAAAAAAAAAAAAAAAAAAAAAAAAAAAAAAAAAAAAAAAAAAAAAAAAA
         ATOMIC WAVEFUNCTION(S)


 NUCLEAR CHARGE  5.0  SYMMETRY SPECIES            S    P
 N. ELECTRONS    5.0  NUMBER OF PRIMITIVE GTOS    8    4
                      NUMBER OF CONTRACTED GTOS   4    2
                      NUMBER OF CLOSED SHELLS     2    0
                      OPEN SHELL OCCUPATION       0    1

  ZNUC  SCFIT    TOTAL HF ENERGY   KINETIC ENERGY   VIRIAL THEOREM ACCURACY
   5.0    11    -2.451164084E+01  2.462155050E+01 -1.995536038E+00  1.5E-06

 NUCLEAR CHARGE  1.0  SYMMETRY SPECIES            S
 N. ELECTRONS    1.0  NUMBER OF PRIMITIVE GTOS    4
                      NUMBER OF CONTRACTED GTOS   2
                      NUMBER OF CLOSED SHELLS     0
                      OPEN SHELL OCCUPATION       1

  ZNUC  SCFIT    TOTAL HF ENERGY   KINETIC ENERGY   VIRIAL THEOREM ACCURACY
   1.0     1    -4.977266687E-01  5.190767460E-01 -1.958869132E+00  0.0E+00

 NUCLEAR CHARGE  6.0  SYMMETRY SPECIES            S    P
 N. ELECTRONS    6.0  NUMBER OF PRIMITIVE GTOS    8    4
                      NUMBER OF CONTRACTED GTOS   4    2
                      NUMBER OF CLOSED SHELLS     2    0
                      OPEN SHELL OCCUPATION       0    2

  ZNUC  SCFIT    TOTAL HF ENERGY   KINETIC ENERGY   VIRIAL THEOREM ACCURACY
   6.0     9    -3.766704647E+01  3.775180683E+01 -1.997754800E+00  1.1E-06

 NUCLEAR CHARGE  8.0  SYMMETRY SPECIES            S    P
 N. ELECTRONS    8.0  NUMBER OF PRIMITIVE GTOS    8    4
                      NUMBER OF CONTRACTED GTOS   4    2
                      NUMBER OF CLOSED SHELLS     2    0
                      OPEN SHELL OCCUPATION       0    4

  ZNUC  SCFIT    TOTAL HF ENERGY   KINETIC ENERGY   VIRIAL THEOREM ACCURACY
   8.0    12    -7.477373220E+01  7.477365593E+01 -2.000001020E+00  3.8E-06

 AAAAAAAAAAAAAAAAAAAAAAAAAAAAAAAAAAAAAAAAAAAAAAAAAAAAAAAAAAAAAAAAAAAAAAAAAAAAAAA

 CHARGE NORMALIZATION FACTOR   1.00000000
 TOTAL ATOMIC CHARGES:
   5.0000000   5.0000000   5.0000000   5.0000000   5.0000000   5.0000000
   1.0000000   1.0000000   1.0000000   1.0000000   1.0000000   1.0000000
   1.0000000   1.0000000   1.0000000   1.0000000   1.0000000   1.0000000
   6.0000000   6.0000000   6.0000000   6.0000000   6.0000000   6.0000000
   6.0000000   6.0000000   6.0000000   6.0000000   6.0000000   6.0000000
   6.0000000   6.0000000   6.0000000   6.0000000   6.0000000   6.0000000
   8.0000000   8.0000000   8.0000000   8.0000000   8.0000000   8.0000000
 TTTTTTTTTTTTTTTTTTTTTTTTTTTTTT MOQGAD      TELAPSE       11.64 TCPU       20.55
 TTTTTTTTTTTTTTTTTTTTTTTTTTTTTT SHELLXN     TELAPSE       21.20 TCPU      325.38
 TTTTTTTTTTTTTTTTTTTTTTTTTTTTTT MONMO3      TELAPSE       21.36 TCPU      330.45
 NUMERICALLY INTEGRATED DENSITY    198.0000198217
 TTTTTTTTTTTTTTTTTTTTTTTTTTTTTT NUMDFT      TELAPSE       21.99 TCPU      350.89
 CYC   0 ETOT(AU) -1.295972885873E+03 DETOT -1.30E+03 tst  0.00E+00 PX  1.00E+00
 TTTTTTTTTTTTTTTTTTTTTTTTTTTTTT DIIS        TELAPSE       22.03 TCPU      352.06
 TTTTTTTTTTTTTTTTTTTTTTTTTTTTTT FDIK        TELAPSE       22.51 TCPU      367.31
 INSULATING STATE
 TOP OF VALENCE BANDS -    BAND     99; K   17; EIG -3.0689879E-01 AU
 TOP OF VALENCE BANDS -    BAND     99; K    1; EIG -3.1173737E-01 AU
 BOTTOM OF VIRTUAL BANDS - BAND    100; K    1; EIG -1.6355276E-01 AU
 INDIRECT ENERGY BAND GAP:   3.9006 eV
 TTTTTTTTTTTTTTTTTTTTTTTTTTTTTT PDIG        TELAPSE       22.82 TCPU      373.47
 CHARGE NORMALIZATION FACTOR   1.00000000
 TOTAL ATOMIC CHARGES:
   4.1366330   4.1549969   4.1555386   4.1547470   4.1545449   4.1361258
   0.7857077   0.7858398   0.7846103   0.7846176   0.7862713   0.7864851
   0.7862892   0.7864547   0.7845584   0.7846619   0.7856580   0.7858346
   6.0454311   6.2682573   6.2681569   6.2658416   6.2657810   6.0448357
   6.0519227   6.2653350   6.2654849   6.2652171   6.2654981   6.0509517
   6.0458806   6.2655305   6.2661479   6.2678369   6.2684384   6.0443779
   8.7001739   8.7003951   8.6982162   8.7009050   8.6986961   8.7011135
 TTTTTTTTTTTTTTTTTTTTTTTTTTTTTT MOQGAD      TELAPSE       22.87 TCPU      373.52
 TTTTTTTTTTTTTTTTTTTTTTTTTTTTTT SHELLXN     TELAPSE       32.78 TCPU      689.79
 TTTTTTTTTTTTTTTTTTTTTTTTTTTTTT MONMO3      TELAPSE       32.94 TCPU      694.85
 NUMERICALLY INTEGRATED DENSITY    198.0000115075
 TTTTTTTTTTTTTTTTTTTTTTTTTTTTTT NUMDFT      TELAPSE       33.59 TCPU      715.62
 CYC   1 ETOT(AU) -1.288828092367E+03 DETOT  7.14E+00 tst  0.00E+00 PX  1.00E+00
 TTTTTTTTTTTTTTTTTTTTTTTTTTTTTT DIIS        TELAPSE       33.64 TCPU      717.09
 DIIS TEST: 0.10859E+01 AT SCF   CYCLE   1 - MIX   30 %
 TTTTTTTTTTTTTTTTTTTTTTTTTTTTTT FDIK        TELAPSE       34.12 TCPU      732.65
 INSULATING STATE
 TOP OF VALENCE BANDS -    BAND     99; K   17; EIG -2.1543979E-01 AU
 TOP OF VALENCE BANDS -    BAND     99; K    1; EIG -2.2556895E-01 AU
 BOTTOM OF VIRTUAL BANDS - BAND    100; K    1; EIG -8.6436353E-02 AU
 INDIRECT ENERGY BAND GAP:   3.5104 eV
 TTTTTTTTTTTTTTTTTTTTTTTTTTTTTT PDIG        TELAPSE       34.44 TCPU      738.82
 CHARGE NORMALIZATION FACTOR   1.00000000
 TOTAL ATOMIC CHARGES:
   4.6567139   4.6937562   4.6933026   4.6931922   4.6936270   4.6553762
   0.9076908   0.9078708   0.9175141   0.9177848   0.9049492   0.9047084
   0.9048359   0.9047288   0.9175360   0.9177751   0.9075575   0.9076393
   5.8689004   6.1219589   6.1223136   6.1485494   6.1496146   5.8712422
   5.8989934   6.1409924   6.1430639   6.1425249   6.1414797   5.9013530
   5.8684158   6.1481356   6.1501738   6.1223771   6.1224028   5.8715455
   8.3351600   8.3353839   8.3594256   8.3349685   8.3594840   8.3349821
 TTTTTTTTTTTTTTTTTTTTTTTTTTTTTT MOQGAD      TELAPSE       34.49 TCPU      738.87
 TTTTTTTTTTTTTTTTTTTTTTTTTTTTTT SHELLXN     TELAPSE       44.40 TCPU     1055.01
 TTTTTTTTTTTTTTTTTTTTTTTTTTTTTT MONMO3      TELAPSE       44.56 TCPU     1060.07
 NUMERICALLY INTEGRATED DENSITY    198.0000096048
 TTTTTTTTTTTTTTTTTTTTTTTTTTTTTT NUMDFT      TELAPSE       45.21 TCPU     1080.85
 CYC   2 ETOT(AU) -1.289020971711E+03 DETOT -1.93E-01 tst  3.51E-03 PX  1.59E-01
 TTTTTTTTTTTTTTTTTTTTTTTTTTTTTT DIIS        TELAPSE       45.25 TCPU     1082.40
 DIIS TEST: 0.45090E+00 AT SCF   CYCLE   2 - DIIS ACTIVE - HISTORY:     2 CYCLES
 TTTTTTTTTTTTTTTTTTTTTTTTTTTTTT FDIK        TELAPSE       45.74 TCPU     1097.90
 INSULATING STATE
 TOP OF VALENCE BANDS -    BAND     99; K   17; EIG -2.2863618E-01 AU
 TOP OF VALENCE BANDS -    BAND     99; K    1; EIG -2.3587636E-01 AU
 BOTTOM OF VIRTUAL BANDS - BAND    100; K    1; EIG -8.2061958E-02 AU
 INDIRECT ENERGY BAND GAP:   3.9885 eV
 TTTTTTTTTTTTTTTTTTTTTTTTTTTTTT PDIG        TELAPSE       46.05 TCPU     1104.07
 CHARGE NORMALIZATION FACTOR   1.00000000
 TOTAL ATOMIC CHARGES:
   4.4581082   4.4892649   4.4891708   4.4882442   4.4883131   4.4571862
   0.8861044   0.8863560   0.8934669   0.8936222   0.8861196   0.8863145
   0.8862713   0.8861075   0.8934009   0.8937149   0.8860063   0.8862025
   5.8915384   6.1657014   6.1656298   6.1594078   6.1582746   5.8911844
   5.9170210   6.1615692   6.1611406   6.1612887   6.1614075   5.9171992
   5.8921325   6.1594686   6.1582935   6.1655383   6.1660081   5.8905774
   8.5216793   8.5220713   8.5170656   8.5223405   8.5167612   8.5227265
 TTTTTTTTTTTTTTTTTTTTTTTTTTTTTT MOQGAD      TELAPSE       46.10 TCPU     1104.12
 TTTTTTTTTTTTTTTTTTTTTTTTTTTTTT SHELLXN     TELAPSE       56.01 TCPU     1420.23
 TTTTTTTTTTTTTTTTTTTTTTTTTTTTTT MONMO3      TELAPSE       56.17 TCPU     1425.30
 NUMERICALLY INTEGRATED DENSITY    198.0000109509
 TTTTTTTTTTTTTTTTTTTTTTTTTTTTTT NUMDFT      TELAPSE       56.82 TCPU     1446.11
 CYC   3 ETOT(AU) -1.289114353810E+03 DETOT -9.34E-02 tst  7.09E-04 PX  6.63E-02
 TTTTTTTTTTTTTTTTTTTTTTTTTTTTTT DIIS        TELAPSE       56.87 TCPU     1447.89
 DIIS TEST: 0.14178E-01 AT SCF   CYCLE   3 - DIIS ACTIVE - HISTORY:     3 CYCLES
 TTTTTTTTTTTTTTTTTTTTTTTTTTTTTT FDIK        TELAPSE       57.36 TCPU     1463.50
 INSULATING STATE
 TOP OF VALENCE BANDS -    BAND     99; K   17; EIG -2.3844804E-01 AU
 TOP OF VALENCE BANDS -    BAND     99; K    1; EIG -2.4796358E-01 AU
 BOTTOM OF VIRTUAL BANDS - BAND    100; K    1; EIG -9.0520240E-02 AU
 INDIRECT ENERGY BAND GAP:   4.0253 eV
 TTTTTTTTTTTTTTTTTTTTTTTTTTTTTT PDIG        TELAPSE       57.67 TCPU     1469.66
 CHARGE NORMALIZATION FACTOR   1.00000000
 TOTAL ATOMIC CHARGES:
   4.4660337   4.4929509   4.4927121   4.4923873   4.4926065   4.4655140
   0.8701364   0.8704228   0.8758108   0.8758862   0.8669900   0.8668464
   0.8668705   0.8668967   0.8758939   0.8758512   0.8700658   0.8702345
   5.9381076   6.1600864   6.1600669   6.1756702   6.1774696   5.9409249
   5.9667097   6.1702132   6.1724078   6.1717628   6.1707813   5.9685173
   5.9378800   6.1749996   6.1782313   6.1603341   6.1601561   5.9409730
   8.4808194   8.4808804   8.4984464   8.4807804   8.4989686   8.4807031
 TTTTTTTTTTTTTTTTTTTTTTTTTTTTTT MOQGAD      TELAPSE       57.72 TCPU     1469.72
 TTTTTTTTTTTTTTTTTTTTTTTTTTTTTT SHELLXN     TELAPSE       67.63 TCPU     1785.86
 TTTTTTTTTTTTTTTTTTTTTTTTTTTTTT MONMO3      TELAPSE       67.79 TCPU     1790.93
 NUMERICALLY INTEGRATED DENSITY    198.0000104521
 TTTTTTTTTTTTTTTTTTTTTTTTTTTTTT NUMDFT      TELAPSE       68.44 TCPU     1811.73
 CYC   4 ETOT(AU) -1.289117345554E+03 DETOT -2.99E-03 tst  3.33E-05 PX  1.43E-02
 TTTTTTTTTTTTTTTTTTTTTTTTTTTTTT DIIS        TELAPSE       68.50 TCPU     1813.61
 DIIS TEST: 0.42713E-02 AT SCF   CYCLE   4 - DIIS ACTIVE - HISTORY:     4 CYCLES
 TTTTTTTTTTTTTTTTTTTTTTTTTTTTTT FDIK        TELAPSE       68.98 TCPU     1829.11
 INSULATING STATE
 TOP OF VALENCE BANDS -    BAND     99; K   17; EIG -2.3689376E-01 AU
 TOP OF VALENCE BANDS -    BAND     99; K    1; EIG -2.4560646E-01 AU
 BOTTOM OF VIRTUAL BANDS - BAND    100; K    1; EIG -9.0304467E-02 AU
 INDIRECT ENERGY BAND GAP:   3.9889 eV
 TTTTTTTTTTTTTTTTTTTTTTTTTTTTTT PDIG        TELAPSE       69.29 TCPU     1835.27
 CHARGE NORMALIZATION FACTOR   1.00000000
 TOTAL ATOMIC CHARGES:
   4.4649390   4.4966812   4.4964731   4.4958000   4.4959774   4.4638932
   0.8722481   0.8724599   0.8793037   0.8795392   0.8706882   0.8708219
   0.8707690   0.8706666   0.8792673   0.8796196   0.8721414   0.8722947
   5.9226903   6.1651198   6.1650642   6.1728027   6.1715917   5.9217260
   5.9476804   6.1709501   6.1707855   6.1709071   6.1708085   5.9474140
   5.9229075   6.1727671   6.1717006   6.1649831   6.1655232   5.9213874
   8.4945907   8.4949849   8.5000258   8.4950101   8.4996427   8.4953529
 TTTTTTTTTTTTTTTTTTTTTTTTTTTTTT MOQGAD      TELAPSE       69.34 TCPU     1835.32
 TTTTTTTTTTTTTTTTTTTTTTTTTTTTTT SHELLXN     TELAPSE       79.26 TCPU     2151.76
 TTTTTTTTTTTTTTTTTTTTTTTTTTTTTT MONMO3      TELAPSE       79.42 TCPU     2156.82
 NUMERICALLY INTEGRATED DENSITY    198.0000104740
 TTTTTTTTTTTTTTTTTTTTTTTTTTTTTT NUMDFT      TELAPSE       80.07 TCPU     2177.61
 CYC   5 ETOT(AU) -1.289118318957E+03 DETOT -9.73E-04 tst  5.40E-06 PX  6.89E-03
 TTTTTTTTTTTTTTTTTTTTTTTTTTTTTT DIIS        TELAPSE       80.13 TCPU     2179.72
 DIIS TEST: 0.86885E-04 AT SCF   CYCLE   5 - DIIS ACTIVE - HISTORY:     5 CYCLES
 TTTTTTTTTTTTTTTTTTTTTTTTTTTTTT FDIK        TELAPSE       80.62 TCPU     2195.40
 INSULATING STATE
 TOP OF VALENCE BANDS -    BAND     99; K   17; EIG -2.3657460E-01 AU
 TOP OF VALENCE BANDS -    BAND     99; K    1; EIG -2.4531470E-01 AU
 BOTTOM OF VIRTUAL BANDS - BAND    100; K    1; EIG -8.9742107E-02 AU
 INDIRECT ENERGY BAND GAP:   3.9955 eV
 TTTTTTTTTTTTTTTTTTTTTTTTTTTTTT PDIG        TELAPSE       80.93 TCPU     2201.56
 CHARGE NORMALIZATION FACTOR   1.00000000
 TOTAL ATOMIC CHARGES:
   4.4660927   4.4955187   4.4953194   4.4949439   4.4951395   4.4655336
   0.8733286   0.8736180   0.8803725   0.8803913   0.8718738   0.8717166
   0.8717798   0.8717419   0.8804332   0.8803737   0.8732359   0.8734417
   5.9192665   6.1640788   6.1642314   6.1707273   6.1732033   5.9234354
   5.9470747   6.1684676   6.1708469   6.1699663   6.1692960   5.9498143
   5.9194205   6.1701450   6.1738722   6.1644197   6.1641967   5.9231562
   8.4931349   8.4931422   8.5030882   8.4932412   8.5037773   8.4931426
 TTTTTTTTTTTTTTTTTTTTTTTTTTTTTT MOQGAD      TELAPSE       80.98 TCPU     2201.61
 TTTTTTTTTTTTTTTTTTTTTTTTTTTTTT SHELLXN     TELAPSE       90.89 TCPU     2517.71
 TTTTTTTTTTTTTTTTTTTTTTTTTTTTTT MONMO3      TELAPSE       91.05 TCPU     2522.77
 NUMERICALLY INTEGRATED DENSITY    198.0000105067
 TTTTTTTTTTTTTTTTTTTTTTTTTTTTTT NUMDFT      TELAPSE       91.70 TCPU     2543.56
 CYC   6 ETOT(AU) -1.289118331234E+03 DETOT -1.23E-05 tst  3.90E-07 PX  1.26E-03
 TTTTTTTTTTTTTTTTTTTTTTTTTTTTTT DIIS        TELAPSE       91.77 TCPU     2545.77
 DIIS TEST: 0.54711E-04 AT SCF   CYCLE   6 - DIIS ACTIVE - HISTORY:     6 CYCLES
 TTTTTTTTTTTTTTTTTTTTTTTTTTTTTT FDIK        TELAPSE       92.26 TCPU     2561.34
 INSULATING STATE
 TOP OF VALENCE BANDS -    BAND     99; K   17; EIG -2.3661545E-01 AU
 TOP OF VALENCE BANDS -    BAND     99; K    1; EIG -2.4533499E-01 AU
 BOTTOM OF VIRTUAL BANDS - BAND    100; K    1; EIG -8.9777789E-02 AU
 INDIRECT ENERGY BAND GAP:   3.9957 eV
 TTTTTTTTTTTTTTTTTTTTTTTTTTTTTT PDIG        TELAPSE       92.57 TCPU     2567.51
 CHARGE NORMALIZATION FACTOR   1.00000000
 TOTAL ATOMIC CHARGES:
   4.4657782   4.4960171   4.4958187   4.4951822   4.4953603   4.4648847
   0.8733182   0.8735686   0.8802045   0.8804043   0.8716789   0.8717490
   0.8717112   0.8716473   0.8802043   0.8804466   0.8732239   0.8733922
   5.9219663   6.1642292   6.1641182   6.1720545   6.1714041   5.9217258
   5.9481704   6.1696599   6.1699968   6.1700259   6.1695908   5.9482744
   5.9220442   6.1718166   6.1717240   6.1641728   6.1644915   5.9215214
   8.4935321   8.4938470   8.5016285   8.4938543   8.5014648   8.4940964
 TTTTTTTTTTTTTTTTTTTTTTTTTTTTTT MOQGAD      TELAPSE       92.62 TCPU     2567.56
 TTTTTTTTTTTTTTTTTTTTTTTTTTTTTT SHELLXN     TELAPSE      102.53 TCPU     2883.71
 TTTTTTTTTTTTTTTTTTTTTTTTTTTTTT MONMO3      TELAPSE      102.68 TCPU     2888.77
 NUMERICALLY INTEGRATED DENSITY    198.0000105023
 TTTTTTTTTTTTTTTTTTTTTTTTTTTTTT NUMDFT      TELAPSE      103.33 TCPU     2909.53
 CYC   7 ETOT(AU) -1.289118343427E+03 DETOT -1.22E-05 tst  2.67E-07 PX  8.89E-04
 TTTTTTTTTTTTTTTTTTTTTTTTTTTTTT DIIS        TELAPSE      103.41 TCPU     2911.98
 DIIS TEST: 0.35958E-05 AT SCF   CYCLE   7 - DIIS ACTIVE - HISTORY:     7 CYCLES
 TTTTTTTTTTTTTTTTTTTTTTTTTTTTTT FDIK        TELAPSE      103.90 TCPU     2927.67
 INSULATING STATE
 TOP OF VALENCE BANDS -    BAND     99; K   17; EIG -2.3662688E-01 AU
 TOP OF VALENCE BANDS -    BAND     99; K    1; EIG -2.4535227E-01 AU
 BOTTOM OF VIRTUAL BANDS - BAND    100; K    1; EIG -8.9813565E-02 AU
 INDIRECT ENERGY BAND GAP:   3.9950 eV
 TTTTTTTTTTTTTTTTTTTTTTTTTTTTTT PDIG        TELAPSE      104.21 TCPU     2933.83
 CHARGE NORMALIZATION FACTOR   1.00000000
 TOTAL ATOMIC CHARGES:
   4.4656454   4.4961162   4.4959154   4.4953676   4.4955485   4.4648279
   0.8732765   0.8735244   0.8802016   0.8803363   0.8716596   0.8716709
   0.8716715   0.8715889   0.8802026   0.8803779   0.8731779   0.8733525
   5.9212794   6.1641298   6.1641582   6.1715345   6.1719075   5.9225149
   5.9475601   6.1694551   6.1703552   6.1700380   6.1697359   5.9485873
   5.9214696   6.1712853   6.1722371   6.1641836   6.1644213   5.9221995
   8.4937338   8.4939726   8.5012591   8.4940158   8.5013250   8.4941795
 TTTTTTTTTTTTTTTTTTTTTTTTTTTTTT MOQGAD      TELAPSE      104.26 TCPU     2933.88
 TTTTTTTTTTTTTTTTTTTTTTTTTTTTTT SHELLXN     TELAPSE      114.18 TCPU     3250.12
 TTTTTTTTTTTTTTTTTTTTTTTTTTTTTT MONMO3      TELAPSE      114.33 TCPU     3255.19
 NUMERICALLY INTEGRATED DENSITY    198.0000104995
 TTTTTTTTTTTTTTTTTTTTTTTTTTTTTT NUMDFT      TELAPSE      114.98 TCPU     3275.97
 CYC   8 ETOT(AU) -1.289118343945E+03 DETOT -5.18E-07 tst  2.61E-08 PX  1.91E-04
 TTTTTTTTTTTTTTTTTTTTTTTTTTTTTT DIIS        TELAPSE      115.06 TCPU     3278.51
 DIIS TEST: 0.57281E-06 AT SCF   CYCLE   8 - DIIS ACTIVE - HISTORY:     8 CYCLES
 TTTTTTTTTTTTTTTTTTTTTTTTTTTTTT FDIK        TELAPSE      115.55 TCPU     3294.11
 INSULATING STATE
 TOP OF VALENCE BANDS -    BAND     99; K   17; EIG -2.3662704E-01 AU
 TOP OF VALENCE BANDS -    BAND     99; K    1; EIG -2.4535693E-01 AU
 BOTTOM OF VIRTUAL BANDS - BAND    100; K    1; EIG -8.9818865E-02 AU
 INDIRECT ENERGY BAND GAP:   3.9949 eV
 TTTTTTTTTTTTTTTTTTTTTTTTTTTTTT PDIG        TELAPSE      115.86 TCPU     3300.28
 CHARGE NORMALIZATION FACTOR   1.00000000
 TOTAL ATOMIC CHARGES:
   4.4657203   4.4961100   4.4959072   4.4953372   4.4955205   4.4648857
   0.8732584   0.8735106   0.8801891   0.8803445   0.8716506   0.8716702
   0.8716590   0.8715917   0.8801973   0.8803791   0.8731613   0.8733372
   5.9214044   6.1641560   6.1641398   6.1717056   6.1718121   5.9222481
   5.9477260   6.1694833   6.1702898   6.1700774   6.1696576   5.9484879
   5.9215443   6.1714200   6.1721789   6.1641992   6.1644124   5.9219831
   8.4936422   8.4938860   8.5015359   8.4939263   8.5015602   8.4940936
 TTTTTTTTTTTTTTTTTTTTTTTTTTTTTT MOQGAD      TELAPSE      115.91 TCPU     3300.33
 TTTTTTTTTTTTTTTTTTTTTTTTTTTTTT SHELLXN     TELAPSE      125.83 TCPU     3616.59
 +++ ENERGIES IN A.U. +++
 ::: EXT EL-POLE                                  -1.4783042018399E+03
 ::: EXT EL-SPHEROPOLE                             1.6389504807578E+01
 ::: BIELET ZONE E-E                               2.2917521093975E+03
 ::: TOTAL E-E                                     8.2983741236524E+02
 ::: TOTAL E-N + N-E                              -3.4850340553696E+03
 ::: TOTAL N-N                                     2.1987141948935E+02
 ::: KINETIC ENERGY                                1.2799234332210E+03
 ::: PSEUDO TOTAL   ENERGY                        -1.1554017902940E+03
 ::: VIRIAL COEFFICIENT                            1.0511314224994E+00
 TTTTTTTTTTTTTTTTTTTTTTTTTTTTTT MONMO3      TELAPSE      125.98 TCPU     3621.66
 NUMERICALLY INTEGRATED DENSITY    198.0000104996
 EXCHANGE ENERGY: -0.126018323539E+03  CORRELATION ENERGY: -0.769823021564E+01
 TTTTTTTTTTTTTTTTTTTTTTTTTTTTTT NUMDFT      TELAPSE      126.63 TCPU     3642.39
 CYC   9 ETOT(AU) -1.289118344049E+03 DETOT -1.04E-07 tst  1.65E-09 PX  1.91E-04

 == SCF ENDED - CONVERGENCE ON ENERGY      E(AU) -1.2891183440489E+03 CYCLES   9


 ENERGY EXPRESSION=HARTREE+FOCK EXCH*0.00000+(HSESOL     EXCH)*1.00000+PBESOL     CORR


 TOTAL ENERGY(DFT)(AU)(  9) -1.2891183440489E+03 DE-1.0E-07 tester 1.7E-09
 TTTTTTTTTTTTTTTTTTTTTTTTTTTTTT EDFT        TELAPSE      126.63 TCPU     3642.40
 
 INFORMATION **** DFTD3 ENERGY **** CALCULATE DFTD3 ENERGY

           DFT-D V3(BJ)
 DF                                         hsesol3c  
 parameters
 s6       :    1.0000
 s8       :    0.0000
 a1       :    0.5196
 a2       :    4.9385
 k1 k3    :   16.0000   -4.0000
 Cutoff   :   50.2022
 CN-Cutoff:   21.1671
 ABC-Cutoff:   21.1671
 
 Edisp /kcal,au:   -28.9260 -0.04609645

 E6    /kcal :   -30.8222
 E8    /kcal :     0.0000
 E6(ABC) "   :   1.896188
 
 INFORMATION **** DFTD3 ENERGY **** NORMAL TERMINATION OF DFTD3 MODULE

 GCP ENERGY CALCULATION
  level        hsesol3c            basis:hsesol3c
  Nbf            474
  Atoms           42

  Parameters: 
  sigma     1.0000
  eta       1.4281
  alpha     0.2936
  beta      1.9467

  dmp_scal      4.0000
  dmp_exp       6.0000
 cutoffs: 
   distance [bohr] 60.0
   noise    [a.u.] 2.2E-16
 SR-damping   T
 ** gCP correction **
  Egcp:        0.0834572695 / (a.u.) ||      52.3702 / (kcal/mol)
 INFORMATION **** GCP **** NORMAL TERMINATION OF GCP MODULE

 *******************************************************************************

 DFT-D3-GCP DISPERSION AND COUNTERPOISE CORRECTION

 D3 DISPERSION ENERGY (AU)      -4.6096450136491E-02
 GCP ENERGY (AU)                 8.3457269459557E-02
 TOTAL ENERGY + DISP + GCP (AU) -1.2890809832295E+03

 *******************************************************************************

 EIGENVECTORS IN FORTRAN UNIT 10
 TTTTTTTTTTTTTTTTTTTTTTTTTTTTTT END         TELAPSE      128.04 TCPU     3649.78
 EEEEEEEEEE TERMINATION  DATE 19 02 2026 TIME 18:26:55.6
