 Default number of threads is:           64

         
 *******************************************************************************
 *                                                                             *
 *                               CRYSTAL23                                     *
 *                      public : 1.0.1 - October 2022                          *
 *                       HTTP://WWW.CRYSTAL.UNITO.IT                           *
 *                                                                             *
 *                              MAIN AUTHORS                                   *
 *                                                                             *
 *  R. DOVESI(1,11), V.R. SAUNDERS(2), C. ROETTI(1,11), R. ORLANDO(1,11),      *
 *  C.M. ZICOVICH-WILSON(1,3), F. PASCALE(4), B. CIVALLERI(1,11),              *
 *  K. DOLL(5), N.M. HARRISON(6), I.J. BUSH(7), Ph. D'ARCO(8),                 *
 *  M. LLUNELL(9), M. CAUSA'(10), Y. NOEL(8), L. MASCHIO(1,11), A. ERBA(1,11)  *
 *  M. RE'RAT(14), S. CASASSA(1,11), B.G. SEARLE(2), J.K. DESMARAIS(1)         *
 *                                                                             *
 *        CONTRIBUTIONS TO THE CODE HAVE ALSO BEEN GIVEN BY                    *
 *                                                                             *
 *  M. FERRABONE(1,11), M. DE LA PIERRE(1,11), M. FERRERO(1,11),               *
 *  J. BAIMA(1,11), E. ALBANESE(1,11), M.F. PEINTINGER(12), R. BAST(13),       *
 *  B. KIRTMAN(15), V. LACIVITA(1,11), R. DEMICHELIS(1,16)                     *
 *  G. BRANDEBURG(17), S. SALUSTRO(1,11), G. SANSONE(1,11)                     *
 *  M.T. RUGGIERO(18), L.E. DAGA(1), L. DONA'(1), A. COSSARD(1)                *
 *                                                                             *
 * (1) THEORETICAL CHEMISTRY GROUP - UNIVERSITA' DI TORINO - TORINO (ITALY)    *
 * (2) SCIENTIFIC COMPUTING DEPARTMENT - STFC DARESBURY (UK)                   *
 * (3) UNIVERSIDAD AUTONOMA DEL ESTADO DE MORELOS - CUERNAVACA (MEXICO)        *
 * (4) UNIVERSITE' DE LORRAINE - NANCY (FRANCE)                                *
 * (5) UNIVERSITAET STUTTGART- STUTTGART (GERMANY)                             *
 * (6) IMPERIAL COLLEGE - LONDON (UK)                                          *
 * (7) SCIENTIFIC COMPUTING DEPARTMENT - STFC RAL (UK)                         *
 * (8) UPMC - SORBONNE UNIVERSITES - PARIS (FRANCE)                            *
 * (9) UNIVERSIDAD DE BARCELONA - BARCELONA (SPAIN)                            *
 *(10) UNIVERSITA' DI NAPOLI "FEDERICO II" - NAPOLI (ITALY)                    *
 *(11) NIS - NANOSTRUCTURED INTERFACES AND SURFACES - TORINO (ITALY)           *
 *(12) MPI FUER CHEMISCHE ENERGIEKONVERSION - MUELHEIM AN DER RUHR (GERMANY)   *
 *(13) UNIVERSITY OF TROMSO - TROMSO (NORWAY)                                  *
 *(14) UNIVERSITE' DE PAU ET DES PAYS DE L'ADOUR - PAU (FRANCE)                *
 *(15) UNIVERSITY OF CALIFORNIA SANTA BARBARA - SANTA BARBARA (USA)            *
 *(16) CURTIN UNIVERSITY - PERTH (AUSTRALIA)                                   *
 *(17) UNIVERSITY COLLEGE LONDON - LONDON (UK)                                 *
 *(18) UNIVERSITY OF VERMONT - BURLINGTON (USA)                                *
 *                                                                             *
 *******************************************************************************
 EEEEEEEEEE STARTING  DATE 20 02 2026 TIME 13:52:26.3
 cof-1_z30_L087_serr                                                             

 CRYSTAL CALCULATION
 (INPUT ACCORDING TO THE INTERNATIONAL TABLES FOR X-RAY CRYSTALLOGRAPHY)
 CRYSTAL FAMILY                       :  TRICLINIC   
 CRYSTAL CLASS  (GROTH - 1921)        :  TRICLINIC PEDIAL                     

 SPACE GROUP (NONCENTROSYMMETRIC)     :  P 1             

 LATTICE PARAMETERS  (ANGSTROMS AND DEGREES) - CONVENTIONAL CELL
        A           B           C        ALPHA        BETA       GAMMA
    15.02361    15.02392     6.00000    90.00032    89.99994   119.99596


 NUMBER OF IRREDUCIBLE ATOMS IN THE CONVENTIONAL CELL:   84

 INPUT COORDINATES

 ATOM AT. N.              COORDINATES
   1   5     6.136805400000E-01  2.273182200000E-01  2.507961200000E-01
   2   5     9.469833800000E-01  8.939916600000E-01  7.507961200000E-01
   3   5     7.727362000000E-01  3.863778800000E-01  2.507961300000E-01
   4   5     1.060390400000E-01  5.305132000000E-02  7.507961300000E-01
   5   5     6.136762700000E-01  3.863606700000E-01  2.491222600000E-01
   6   5     9.469791100000E-01  5.303411000000E-02  7.491222600000E-01
   7   5     2.272552500000E-01  6.136332200000E-01  2.507961300000E-01
   8   5     5.605580900000E-01  2.803066600000E-01  7.507961300000E-01
   9   5     3.863632200000E-01  6.136124500000E-01  2.507961200000E-01
  10   5     7.196660600000E-01  2.802858900000E-01  7.507961200000E-01
  11   5     3.863435000000E-01  7.727516500000E-01  2.491222700000E-01
  12   5     7.196463400000E-01  4.394250900000E-01  7.491222600000E-01
  13   1     9.030436200000E-01  3.089300500000E-01  2.473258700000E-01
  14   1     2.363464600000E-01  9.756034900000E-01  7.473258700000E-01
  15   1     9.663453000000E-02  6.910534400000E-01  2.467952100000E-01
  16   1     4.299373700000E-01  3.577268800000E-01  7.467952100000E-01
  17   1     9.029714200000E-01  5.940724300000E-01  2.467135400000E-01
  18   1     2.362742600000E-01  2.607458700000E-01  7.467135400000E-01
  19   1     9.673618000000E-02  4.056849400000E-01  2.467339100000E-01
  20   1     4.300390200000E-01  7.235838000000E-02  7.467339100000E-01
  21   1     6.910324000000E-01  9.700412000000E-02  2.526741600000E-01
  22   1     2.433524000000E-02  7.636775600000E-01  7.526741500000E-01
  23   1     3.089297200000E-01  9.034373100000E-01  2.532048500000E-01
  24   1     6.422325600000E-01  5.701107500000E-01  7.532048500000E-01
  25   1     4.058699900000E-01  9.704998000000E-02  2.532865700000E-01
  26   1     7.391728300000E-01  7.637234200000E-01  7.532865700000E-01
  27   1     5.943122100000E-01  9.033473200000E-01  2.532660600000E-01
  28   1     9.276150500000E-01  5.700207600000E-01  7.532660700000E-01
  29   1     6.910727400000E-01  5.940542100000E-01  2.473259000000E-01
  30   1     2.437558000000E-02  2.607276500000E-01  7.473259000000E-01
  31   1     3.089618300000E-01  4.056093300000E-01  2.467951800000E-01
  32   1     6.422646700000E-01  7.228277000000E-02  7.467951700000E-01
  33   1     4.058405700000E-01  3.088232500000E-01  2.467134700000E-01
  34   1     7.391434100000E-01  9.754966900000E-01  7.467134700000E-01
  35   1     5.942908800000E-01  6.909579300000E-01  2.467339700000E-01
  36   1     9.275937200000E-01  3.576313700000E-01  7.467339700000E-01
  37   6     8.918903100000E-01  4.459436900000E-01  2.490610100000E-01
  38   6     2.251931500000E-01  1.126171300000E-01  7.490610100000E-01
  39   6     9.464891100000E-01  3.927856300000E-01  2.474075400000E-01
  40   6     2.797919500000E-01  5.945907000000E-02  7.474075300000E-01
  41   6     5.338812000000E-02  6.071853000000E-01  2.472647000000E-01
  42   6     3.866909600000E-01  2.738587400000E-01  7.472647000000E-01
  43   6     9.464521100000E-01  5.536921900000E-01  2.476933600000E-01
  44   6     2.797549500000E-01  2.203656300000E-01  7.476933600000E-01
  45   6     5.342634000000E-02  4.462499700000E-01  2.465910100000E-01
  46   6     3.867291800000E-01  1.129234100000E-01  7.465910200000E-01
  47   6     1.080358900000E-01  5.540356300000E-01  2.477137600000E-01
  48   6     4.413387300000E-01  2.207090700000E-01  7.477137600000E-01
  49   6     5.540394200000E-01  1.081684600000E-01  2.509390200000E-01
  50   6     8.873422600000E-01  7.748419000000E-01  7.509390200000E-01
  51   6     6.071778500000E-01  5.355594000000E-02  2.525924800000E-01
  52   6     9.404806900000E-01  7.202293800000E-01  7.525924800000E-01
  53   6     3.927986700000E-01  9.466631600000E-01  2.527353700000E-01
  54   6     7.261015100000E-01  6.133366000000E-01  7.527353700000E-01
  55   6     4.462875800000E-01  5.360286000000E-02  2.523067200000E-01
  56   6     7.795904200000E-01  7.202763000000E-01  7.523067200000E-01
  57   6     5.537168500000E-01  9.466235600000E-01  2.534089800000E-01
  58   6     8.870196900000E-01  6.132970000000E-01  7.534089800000E-01
  59   6     4.459279100000E-01  8.919920600000E-01  2.522862800000E-01
  60   6     7.792307500000E-01  5.586655000000E-01  7.522862800000E-01
  61   6     5.540448700000E-01  4.458745500000E-01  2.490610100000E-01
  62   6     8.873477100000E-01  1.125479900000E-01  7.490610100000E-01
  63   6     6.072102200000E-01  5.536257800000E-01  2.474075700000E-01
  64   6     9.405130600000E-01  2.202992200000E-01  7.474075700000E-01
  65   6     3.928233700000E-01  4.461720300000E-01  2.472646600000E-01
  66   6     7.261262100000E-01  1.128454700000E-01  7.472646600000E-01
  67   6     4.462872600000E-01  3.926899900000E-01  2.476933200000E-01
  68   6     7.795901000000E-01  5.936343000000E-02  7.476933200000E-01
  69   6     5.537429600000E-01  6.070980000000E-01  2.465910600000E-01
  70   6     8.870458000000E-01  2.737714400000E-01  7.465910600000E-01
  71   6     4.459599800000E-01  5.539582300000E-01  2.477137600000E-01
  72   6     7.792628200000E-01  2.206316700000E-01  7.477137600000E-01
  73   8     5.607366800000E-01  2.803706300000E-01  2.495713400000E-01
  74   8     8.940395200000E-01  9.470440700000E-01  7.495713400000E-01
  75   8     7.196817000000E-01  2.803783300000E-01  2.531027900000E-01
  76   8     5.298454000000E-02  9.470517700000E-01  7.531027900000E-01
  77   8     7.196794200000E-01  4.393234600000E-01  2.477750100000E-01
  78   8     5.298226000000E-02  1.059969000000E-01  7.477750100000E-01
  79   8     2.803245100000E-01  7.196511100000E-01  2.495713600000E-01
  80   8     6.136273500000E-01  3.863245500000E-01  7.495713600000E-01
  81   8     2.803439700000E-01  5.606956100000E-01  2.531027900000E-01
  82   8     6.136468100000E-01  2.273690500000E-01  7.531027900000E-01
  83   8     4.392638400000E-01  7.196354200000E-01  2.477750000000E-01
  84   8     7.725666800000E-01  3.863088600000E-01  7.477750000000E-01

 *******************************************************************************

 << INFORMATION >>: FROM NOW ON, ALL COORDINATES REFER TO THE PRIMITIVE CELL

 *******************************************************************************

 LATTICE PARAMETERS  (ANGSTROMS AND DEGREES) - PRIMITIVE CELL
       A          B          C        ALPHA      BETA     GAMMA        VOLUME
   15.02361   15.02392    6.00000    90.00032  89.99994 119.99596   1172.889288

 COORDINATES OF THE EQUIVALENT ATOMS (FRACTIONAL UNITS)

 N. ATOM EQUIV AT. N.          X                  Y                  Z

   1   1   1    5 B    -3.86319460000E-01  2.27318220000E-01  2.50796120000E-01

   2   2   1    5 B    -5.30166200000E-02 -1.06008340000E-01 -2.49203880000E-01

   3   3   1    5 B    -2.27263800000E-01  3.86377880000E-01  2.50796130000E-01

   4   4   1    5 B     1.06039040000E-01  5.30513200000E-02 -2.49203870000E-01

   5   5   1    5 B    -3.86323730000E-01  3.86360670000E-01  2.49122260000E-01

   6   6   1    5 B    -5.30208900000E-02  5.30341100000E-02 -2.50877740000E-01

   7   7   1    5 B     2.27255250000E-01 -3.86366780000E-01  2.50796130000E-01

   8   8   1    5 B    -4.39441910000E-01  2.80306660000E-01 -2.49203870000E-01

   9   9   1    5 B     3.86363220000E-01 -3.86387550000E-01  2.50796120000E-01

  10  10   1    5 B    -2.80333940000E-01  2.80285890000E-01 -2.49203880000E-01

  11  11   1    5 B     3.86343500000E-01 -2.27248350000E-01  2.49122270000E-01

  12  12   1    5 B    -2.80353660000E-01  4.39425090000E-01 -2.50877740000E-01

  13  13   1    1 H    -9.69563800000E-02  3.08930050000E-01  2.47325870000E-01

  14  14   1    1 H     2.36346460000E-01 -2.43965100000E-02 -2.52674130000E-01

  15  15   1    1 H     9.66345300000E-02 -3.08946560000E-01  2.46795210000E-01

  16  16   1    1 H     4.29937370000E-01  3.57726880000E-01 -2.53204790000E-01

  17  17   1    1 H    -9.70285800000E-02 -4.05927570000E-01  2.46713540000E-01

  18  18   1    1 H     2.36274260000E-01  2.60745870000E-01 -2.53286460000E-01

  19  19   1    1 H     9.67361800000E-02  4.05684940000E-01  2.46733910000E-01

  20  20   1    1 H     4.30039020000E-01  7.23583800000E-02 -2.53266090000E-01

  21  21   1    1 H    -3.08967600000E-01  9.70041200000E-02  2.52674160000E-01

  22  22   1    1 H     2.43352400000E-02 -2.36322440000E-01 -2.47325850000E-01

  23  23   1    1 H     3.08929720000E-01 -9.65626900000E-02  2.53204850000E-01

  24  24   1    1 H    -3.57767440000E-01 -4.29889250000E-01 -2.46795150000E-01

  25  25   1    1 H     4.05869990000E-01  9.70499800000E-02  2.53286570000E-01

  26  26   1    1 H    -2.60827170000E-01 -2.36276580000E-01 -2.46713430000E-01

  27  27   1    1 H    -4.05687790000E-01 -9.66526800000E-02  2.53266060000E-01

  28  28   1    1 H    -7.23849500000E-02 -4.29979240000E-01 -2.46733930000E-01

  29  29   1    1 H    -3.08927260000E-01 -4.05945790000E-01  2.47325900000E-01

  30  30   1    1 H     2.43755800000E-02  2.60727650000E-01 -2.52674100000E-01

  31  31   1    1 H     3.08961830000E-01  4.05609330000E-01  2.46795180000E-01

  32  32   1    1 H    -3.57735330000E-01  7.22827700000E-02 -2.53204830000E-01

  33  33   1    1 H     4.05840570000E-01  3.08823250000E-01  2.46713470000E-01

  34  34   1    1 H    -2.60856590000E-01 -2.45033100000E-02 -2.53286530000E-01

  35  35   1    1 H    -4.05709120000E-01 -3.09042070000E-01  2.46733970000E-01

  36  36   1    1 H    -7.24062800000E-02  3.57631370000E-01 -2.53266030000E-01

  37  37   1    6 C    -1.08109690000E-01  4.45943690000E-01  2.49061010000E-01

  38  38   1    6 C     2.25193150000E-01  1.12617130000E-01 -2.50938990000E-01

  39  39   1    6 C    -5.35108900000E-02  3.92785630000E-01  2.47407540000E-01

  40  40   1    6 C     2.79791950000E-01  5.94590700000E-02 -2.52592470000E-01

  41  41   1    6 C     5.33881200000E-02 -3.92814700000E-01  2.47264700000E-01

  42  42   1    6 C     3.86690960000E-01  2.73858740000E-01 -2.52735300000E-01

  43  43   1    6 C    -5.35478900000E-02 -4.46307810000E-01  2.47693360000E-01

  44  44   1    6 C     2.79754950000E-01  2.20365630000E-01 -2.52306640000E-01

  45  45   1    6 C     5.34263400000E-02  4.46249970000E-01  2.46591010000E-01

  46  46   1    6 C     3.86729180000E-01  1.12923410000E-01 -2.53408980000E-01

  47  47   1    6 C     1.08035890000E-01 -4.45964370000E-01  2.47713760000E-01

  48  48   1    6 C     4.41338730000E-01  2.20709070000E-01 -2.52286240000E-01

  49  49   1    6 C    -4.45960580000E-01  1.08168460000E-01  2.50939020000E-01

  50  50   1    6 C    -1.12657740000E-01 -2.25158100000E-01 -2.49060980000E-01

  51  51   1    6 C    -3.92822150000E-01  5.35559400000E-02  2.52592480000E-01

  52  52   1    6 C    -5.95193100000E-02 -2.79770620000E-01 -2.47407520000E-01

  53  53   1    6 C     3.92798670000E-01 -5.33368400000E-02  2.52735370000E-01

  54  54   1    6 C    -2.73898490000E-01 -3.86663400000E-01 -2.47264630000E-01

  55  55   1    6 C     4.46287580000E-01  5.36028600000E-02  2.52306720000E-01

  56  56   1    6 C    -2.20409580000E-01 -2.79723700000E-01 -2.47693280000E-01

  57  57   1    6 C    -4.46283150000E-01 -5.33764400000E-02  2.53408980000E-01

  58  58   1    6 C    -1.12980310000E-01 -3.86703000000E-01 -2.46591020000E-01

  59  59   1    6 C     4.45927910000E-01 -1.08007940000E-01  2.52286280000E-01

  60  60   1    6 C    -2.20769250000E-01 -4.41334500000E-01 -2.47713720000E-01

  61  61   1    6 C    -4.45955130000E-01  4.45874550000E-01  2.49061010000E-01

  62  62   1    6 C    -1.12652290000E-01  1.12547990000E-01 -2.50938990000E-01

  63  63   1    6 C    -3.92789780000E-01 -4.46374220000E-01  2.47407570000E-01

  64  64   1    6 C    -5.94869400000E-02  2.20299220000E-01 -2.52592430000E-01

  65  65   1    6 C     3.92823370000E-01  4.46172030000E-01  2.47264660000E-01

  66  66   1    6 C    -2.73873790000E-01  1.12845470000E-01 -2.52735340000E-01

  67  67   1    6 C     4.46287260000E-01  3.92689990000E-01  2.47693320000E-01

  68  68   1    6 C    -2.20409900000E-01  5.93634300000E-02 -2.52306680000E-01

  69  69   1    6 C    -4.46257040000E-01 -3.92902000000E-01  2.46591060000E-01

  70  70   1    6 C    -1.12954200000E-01  2.73771440000E-01 -2.53408940000E-01

  71  71   1    6 C     4.45959980000E-01 -4.46041770000E-01  2.47713760000E-01

  72  72   1    6 C    -2.20737180000E-01  2.20631670000E-01 -2.52286240000E-01

  73  73   1    8 O    -4.39263320000E-01  2.80370630000E-01  2.49571340000E-01

  74  74   1    8 O    -1.05960480000E-01 -5.29559300000E-02 -2.50428660000E-01

  75  75   1    8 O    -2.80318300000E-01  2.80378330000E-01  2.53102790000E-01

  76  76   1    8 O     5.29845400000E-02 -5.29482300000E-02 -2.46897210000E-01

  77  77   1    8 O    -2.80320580000E-01  4.39323460000E-01  2.47775010000E-01

  78  78   1    8 O     5.29822600000E-02  1.05996900000E-01 -2.52224990000E-01

  79  79   1    8 O     2.80324510000E-01 -2.80348890000E-01  2.49571360000E-01

  80  80   1    8 O    -3.86372650000E-01  3.86324550000E-01 -2.50428640000E-01

  81  81   1    8 O     2.80343970000E-01 -4.39304390000E-01  2.53102790000E-01

  82  82   1    8 O    -3.86353190000E-01  2.27369050000E-01 -2.46897210000E-01

  83  83   1    8 O     4.39263840000E-01 -2.80364580000E-01  2.47775000000E-01

  84  84   1    8 O    -2.27433320000E-01  3.86308860000E-01 -2.52225000000E-01

 NUMBER OF SYMMETRY OPERATORS         :    1
 *******************************************************************************
 * GEOMETRY EDITING - INPUT COORDINATES ARE GIVEN IN ANGSTROM         
 *******************************************************************************
 INFORMATION **** NEW DEFAULT **** FINALRUN 4 FOR GEOMETRY OPTIMIZATIONS
 INFORMATION **** NEW DEFAULT **** OPTGEOM OPTIMIZES BOTH ATOMIC COORDINATES AND CELL PARAMETERS
 INFORMATION **** NEW DEFAULT **** TOL. ON ATOMIC DISP TO REDEFINE REF. GEOMETRY: 0.8 Angs
 INFORMATION **** NEW DEFAULT **** N POINTS TO REDEFINE REF. GEOMETRY: N OF OPT DEGS OF FREEDOM
 INFORMATION **** NEW DEFAULT **** TOL. ON ENERGY TO REDEFINE REF. GEOMETRY: 10**-3*(5*N. ATOMS)
 INFORMATION **** MAXTRADIUS **** MAX ALLOWED TRUST RADIUS  8.000000E-01

 IMPORTANT INFORMATION:
 THE COORDINATE SYSTEM ADOPTED IN THE OPTIMIZATION IS NOT IN
 GENERAL HOMOGENEOUS UNITS. FOR THIS REASON THE GRADIENT AND 
 HESSIAN MATRIX IN TERMS OF THIS SYSTEM ARE GIVEN WITHOUT
 UNITS. FOR MORE DETAILS SEE THE MANUAL.

 *******************************************************************************
 COMBINED CELL/ATOM OPTIMIZATION CONTROL

 INITIAL TRUST RADIUS         0.50000 MAXIMUM TRUST RADIUS               0.80000
 MAXIMUM GRADIENT COMPONENT   0.00045 MAXIMUM DISPLACEMENT COMPONENT     0.00180
 R.M.S. OF GRADIENT COMPONENT 0.00030 R.M.S. OF DISPLACEMENT COMPONENTS  0.00120
 THRESHOLD ON ENERGY CHANGE 0.100E-06 EXTRAPOLATING POLYNOMIAL ORDER           2
 MAXIMUM ALLOWED NUMBER OF STEPS   -1 SORTING OF ENERGY POINTS:               NO
 ANALYTICAL  GRADIENT                 HESSIAN UPDATING                      BFGS
 STEP SIZE NUMERICAL GRADIENT 0.00100
 INITIAL HESSIAN MATRIX: SCHLEGEL MODEL 2
 *******************************************************************************


 GCALCO - MAX INDICES DIRECT LATTICE VECTOR    11    11    25
 NO.OF VECTORS CREATED 6999 STARS 3500 RMAX   235.54317 BOHR

 GEOMETRY FOR WAVE FUNCTION - DIMENSIONALITY OF THE SYSTEM    3
 (NON PERIODIC DIRECTION: LATTICE PARAMETER FORMALLY SET TO 500)
 *******************************************************************************
 LATTICE PARAMETERS (ANGSTROMS AND DEGREES) - BOHR = 0.5291772083 ANGSTROM
 PRIMITIVE CELL - CENTRING CODE 1/0 VOLUME=  1172.889288 - DENSITY  1.105 g/cm^3
         A              B              C           ALPHA      BETA       GAMMA 
    15.02361100    15.02391600     6.00000000    90.000323  89.999944 119.995964
 *******************************************************************************
 ATOMS IN THE ASYMMETRIC UNIT   84 - ATOMS IN THE UNIT CELL:   84
     ATOM                 X/A                 Y/B                 Z/C    
 *******************************************************************************
      1 T   5 B    -3.863194600000E-01  2.273182200000E-01  2.507961200000E-01
      2 T   5 B    -5.301662000000E-02 -1.060083400000E-01 -2.492038800000E-01
      3 T   5 B    -2.272638000000E-01  3.863778800000E-01  2.507961300000E-01
      4 T   5 B     1.060390400000E-01  5.305132000000E-02 -2.492038700000E-01
      5 T   5 B    -3.863237300000E-01  3.863606700000E-01  2.491222600000E-01
      6 T   5 B    -5.302089000000E-02  5.303411000000E-02 -2.508777400000E-01
      7 T   5 B     2.272552500000E-01 -3.863667800000E-01  2.507961300000E-01
      8 T   5 B    -4.394419100000E-01  2.803066600000E-01 -2.492038700000E-01
      9 T   5 B     3.863632200000E-01 -3.863875500000E-01  2.507961200000E-01
     10 T   5 B    -2.803339400000E-01  2.802858900000E-01 -2.492038800000E-01
     11 T   5 B     3.863435000000E-01 -2.272483500000E-01  2.491222700000E-01
     12 T   5 B    -2.803536600000E-01  4.394250900000E-01 -2.508777400000E-01
     13 T   1 H    -9.695638000000E-02  3.089300500000E-01  2.473258700000E-01
     14 T   1 H     2.363464600000E-01 -2.439651000000E-02 -2.526741300000E-01
     15 T   1 H     9.663453000000E-02 -3.089465600000E-01  2.467952100000E-01
     16 T   1 H     4.299373700000E-01  3.577268800000E-01 -2.532047900000E-01
     17 T   1 H    -9.702858000000E-02 -4.059275700000E-01  2.467135400000E-01
     18 T   1 H     2.362742600000E-01  2.607458700000E-01 -2.532864600000E-01
     19 T   1 H     9.673618000000E-02  4.056849400000E-01  2.467339100000E-01
     20 T   1 H     4.300390200000E-01  7.235838000000E-02 -2.532660900000E-01
     21 T   1 H    -3.089676000000E-01  9.700412000000E-02  2.526741600000E-01
     22 T   1 H     2.433524000000E-02 -2.363224400000E-01 -2.473258500000E-01
     23 T   1 H     3.089297200000E-01 -9.656269000000E-02  2.532048500000E-01
     24 T   1 H    -3.577674400000E-01 -4.298892500000E-01 -2.467951500000E-01
     25 T   1 H     4.058699900000E-01  9.704998000000E-02  2.532865700000E-01
     26 T   1 H    -2.608271700000E-01 -2.362765800000E-01 -2.467134300000E-01
     27 T   1 H    -4.056877900000E-01 -9.665268000000E-02  2.532660600000E-01
     28 T   1 H    -7.238495000000E-02 -4.299792400000E-01 -2.467339300000E-01
     29 T   1 H    -3.089272600000E-01 -4.059457900000E-01  2.473259000000E-01
     30 T   1 H     2.437558000000E-02  2.607276500000E-01 -2.526741000000E-01
     31 T   1 H     3.089618300000E-01  4.056093300000E-01  2.467951800000E-01
     32 T   1 H    -3.577353300000E-01  7.228277000000E-02 -2.532048300000E-01
     33 T   1 H     4.058405700000E-01  3.088232500000E-01  2.467134700000E-01
     34 T   1 H    -2.608565900000E-01 -2.450331000000E-02 -2.532865300000E-01
     35 T   1 H    -4.057091200000E-01 -3.090420700000E-01  2.467339700000E-01
     36 T   1 H    -7.240628000000E-02  3.576313700000E-01 -2.532660300000E-01
     37 T   6 C    -1.081096900000E-01  4.459436900000E-01  2.490610100000E-01
     38 T   6 C     2.251931500000E-01  1.126171300000E-01 -2.509389900000E-01
     39 T   6 C    -5.351089000000E-02  3.927856300000E-01  2.474075400000E-01
     40 T   6 C     2.797919500000E-01  5.945907000000E-02 -2.525924700000E-01
     41 T   6 C     5.338812000000E-02 -3.928147000000E-01  2.472647000000E-01
     42 T   6 C     3.866909600000E-01  2.738587400000E-01 -2.527353000000E-01
     43 T   6 C    -5.354789000000E-02 -4.463078100000E-01  2.476933600000E-01
     44 T   6 C     2.797549500000E-01  2.203656300000E-01 -2.523066400000E-01
     45 T   6 C     5.342634000000E-02  4.462499700000E-01  2.465910100000E-01
     46 T   6 C     3.867291800000E-01  1.129234100000E-01 -2.534089800000E-01
     47 T   6 C     1.080358900000E-01 -4.459643700000E-01  2.477137600000E-01
     48 T   6 C     4.413387300000E-01  2.207090700000E-01 -2.522862400000E-01
     49 T   6 C    -4.459605800000E-01  1.081684600000E-01  2.509390200000E-01
     50 T   6 C    -1.126577400000E-01 -2.251581000000E-01 -2.490609800000E-01
     51 T   6 C    -3.928221500000E-01  5.355594000000E-02  2.525924800000E-01
     52 T   6 C    -5.951931000000E-02 -2.797706200000E-01 -2.474075200000E-01
     53 T   6 C     3.927986700000E-01 -5.333684000000E-02  2.527353700000E-01
     54 T   6 C    -2.738984900000E-01 -3.866634000000E-01 -2.472646300000E-01
     55 T   6 C     4.462875800000E-01  5.360286000000E-02  2.523067200000E-01
     56 T   6 C    -2.204095800000E-01 -2.797237000000E-01 -2.476932800000E-01
     57 T   6 C    -4.462831500000E-01 -5.337644000000E-02  2.534089800000E-01
     58 T   6 C    -1.129803100000E-01 -3.867030000000E-01 -2.465910200000E-01
     59 T   6 C     4.459279100000E-01 -1.080079400000E-01  2.522862800000E-01
     60 T   6 C    -2.207692500000E-01 -4.413345000000E-01 -2.477137200000E-01
     61 T   6 C    -4.459551300000E-01  4.458745500000E-01  2.490610100000E-01
     62 T   6 C    -1.126522900000E-01  1.125479900000E-01 -2.509389900000E-01
     63 T   6 C    -3.927897800000E-01 -4.463742200000E-01  2.474075700000E-01
     64 T   6 C    -5.948694000000E-02  2.202992200000E-01 -2.525924300000E-01
     65 T   6 C     3.928233700000E-01  4.461720300000E-01  2.472646600000E-01
     66 T   6 C    -2.738737900000E-01  1.128454700000E-01 -2.527353400000E-01
     67 T   6 C     4.462872600000E-01  3.926899900000E-01  2.476933200000E-01
     68 T   6 C    -2.204099000000E-01  5.936343000000E-02 -2.523066800000E-01
     69 T   6 C    -4.462570400000E-01 -3.929020000000E-01  2.465910600000E-01
     70 T   6 C    -1.129542000000E-01  2.737714400000E-01 -2.534089400000E-01
     71 T   6 C     4.459599800000E-01 -4.460417700000E-01  2.477137600000E-01
     72 T   6 C    -2.207371800000E-01  2.206316700000E-01 -2.522862400000E-01
     73 T   8 O    -4.392633200000E-01  2.803706300000E-01  2.495713400000E-01
     74 T   8 O    -1.059604800000E-01 -5.295593000000E-02 -2.504286600000E-01
     75 T   8 O    -2.803183000000E-01  2.803783300000E-01  2.531027900000E-01
     76 T   8 O     5.298454000000E-02 -5.294823000000E-02 -2.468972100000E-01
     77 T   8 O    -2.803205800000E-01  4.393234600000E-01  2.477750100000E-01
     78 T   8 O     5.298226000000E-02  1.059969000000E-01 -2.522249900000E-01
     79 T   8 O     2.803245100000E-01 -2.803488900000E-01  2.495713600000E-01
     80 T   8 O    -3.863726500000E-01  3.863245500000E-01 -2.504286400000E-01
     81 T   8 O     2.803439700000E-01 -4.393043900000E-01  2.531027900000E-01
     82 T   8 O    -3.863531900000E-01  2.273690500000E-01 -2.468972100000E-01
     83 T   8 O     4.392638400000E-01 -2.803645800000E-01  2.477750000000E-01
     84 T   8 O    -2.274333200000E-01  3.863088600000E-01 -2.522250000000E-01

 T = ATOM BELONGING TO THE ASYMMETRIC UNIT

 ****    1 SYMMOPS - TRANSLATORS IN FRACTIONAL UNITS
 **** MATRICES AND TRANSLATORS IN THE CRYSTALLOGRAPHIC REFERENCE FRAME
   V INV                    ROTATION MATRICES                   TRANSLATORS
   1   1  1.00 -0.00  0.00  0.00  1.00  0.00  0.00  0.00  1.00  0.00  0.00  0.00

 DIRECT LATTICE VECTORS CARTESIAN COMPONENTS (ANGSTROM)
          X                    Y                    Z
   0.130113578931E+02  -0.751088897922E+01   0.000000000000E+00
   0.000000000000E+00   0.150239160000E+02   0.000000000000E+00
  -0.127541541606E-04  -0.338244809023E-04   0.599999999989E+01


 CARTESIAN COORDINATES - PRIMITIVE CELL
 *******************************************************************************
 *      ATOM          X(ANGSTROM)         Y(ANGSTROM)         Z(ANGSTROM)
 *******************************************************************************
    1     5 B    -5.026543953805E+00  6.316803934072E+00  1.504776719973E+00
    2     5 B    -6.898150387155E-01 -1.194450019394E+00 -1.495223279973E+00
    3     5 B    -2.957013836629E+00  7.511853501124E+00  1.504776779973E+00
    4     5 B     1.379715078461E+00  5.995476579685E-04 -1.495223219973E+00
    5     5 B    -5.026599490954E+00 -6.317639528581E+00  1.494733559973E+00
    6     5 B    -6.898705758650E-01  1.195022517953E+00 -1.505266439973E+00
    7     5 B     2.956896192134E+00 -7.511639483653E+00  1.504776779973E+00
    8     5 B     7.293625107223E+00  1.022562880474E-03 -1.495223219973E+00
    9     5 B     5.027106933441E+00  6.316922171233E+00  1.504776719973E+00
   10     5 B    -3.647522044526E+00  6.316557196983E+00 -1.495223279973E+00
   11     5 B     5.026850370812E+00 -6.315951684312E+00  1.494733619973E+00
   12     5 B    -3.647778607155E+00 -6.316316658561E+00 -1.505266439973E+00
   13     1 H    -1.261537314627E+00  5.369559361413E+00  1.483955219973E+00
   14     1 H     3.075191600462E+00 -2.141694592053E+00 -1.516044779972E+00
   15     1 H     1.257343306993E+00 -5.367406740038E+00  1.480771259973E+00
   16     1 H     5.594072222082E+00  2.145255306496E+00 -1.519228739972E+00
   17     1 H    -1.262476726858E+00 -5.369859166531E+00  1.480281239973E+00
   18     1 H     3.074252188232E+00  2.142802880003E+00 -1.519718759972E+00
   19     1 H     1.258665912305E+00  5.368393407125E+00  1.480403459973E+00
   20     1 H     5.595394827394E+00 -2.142860546341E+00 -1.519596539972E+00
   21     1 H    -4.020091243604E+00  3.777994545737E+00  1.516044959972E+00
   22     1 H     3.166376714854E-01 -3.733259407729E+00 -1.483955099973E+00
   23     1 H     4.019591921308E+00 -3.771095137117E+00  1.519229099972E+00
   24     1 H    -4.655037056659E+00 -3.771460111367E+00 -1.480770899973E+00
   25     1 H     5.280916467485E+00 -1.590382254851E+00  1.519719419972E+00
   26     1 H    -3.393712510482E+00 -1.590747229100E+00 -1.480280579973E+00
   27     1 H    -5.278552258728E+00  1.594965638826E+00  1.519596359972E+00
   28     1 H    -9.418233436384E-01 -5.916288314641E+00 -1.480403579973E+00
   29     1 H    -4.019566297214E+00 -3.778585462670E+00  1.483955399973E+00
   30     1 H     3.171626178753E-01  3.734076583864E+00 -1.516044599972E+00
   31     1 H     4.020009797760E+00  3.773254151072E+00  1.480771079973E+00
   32     1 H    -4.654619180207E+00  3.772889176823E+00 -1.519228979972E+00
   33     1 H     5.280533757170E+00  1.591502757360E+00  1.480280819973E+00
   34     1 H    -3.394095220797E+00  1.591137783110E+00 -1.519719179972E+00
   35     1 H    -5.278829707680E+00 -1.595794287619E+00  1.480403819973E+00
   36     1 H    -9.421007925909E-01  5.916867758915E+00 -1.519596179972E+00
   37     6 C    -1.406657044860E+00  7.511811994098E+00  1.494366059973E+00
   38     6 C     2.930071870229E+00  5.580406321162E-04 -1.505633939973E+00
   39     6 C    -6.962524964399E-01  6.303084296665E+00  1.484445239973E+00
   40     6 C     3.640476418649E+00 -1.208169656801E+00 -1.515554819972E+00
   41     6 C     6.946487829053E-01 -6.302615662094E+00  1.483588199973E+00
   42     6 C     5.031377697995E+00  1.210046384440E+00 -1.516411799972E+00
   43     6 C    -6.967339203273E-01 -6.303107168822E+00  1.486160159973E+00
   44     6 C     3.639994994762E+00  1.209554877712E+00 -1.513839839973E+00
   45     6 C     6.951460855964E-01  6.303134415164E+00  1.479546059973E+00
   46     6 C     5.031875000685E+00 -1.208119538303E+00 -1.520453879972E+00
   47     6 C     1.405690470705E+00 -7.511585188223E+00  1.486282559973E+00
   48     6 C     5.742419385795E+00  1.076858310839E-03 -1.513717439973E+00
   49     6 C     7.208801979967E+00 -2.536223204722E+00  1.505634119973E+00
   50     6 C    -1.465826998001E+00 -2.536588178972E+00 -1.494365879973E+00
   51     6 C    -5.111152803573E+00  3.755054957279E+00  1.515554879972E+00
   52     6 C    -7.744238884841E-01 -3.756198996187E+00 -1.484445119973E+00
   53     6 C     5.110840851861E+00 -3.751603954062E+00  1.516412219972E+00
   54     6 C    -3.563788126107E+00 -3.751968928312E+00 -1.483587779973E+00
   55     6 C     5.806804208647E+00 -2.546700134327E+00  1.513840319973E+00
   56     6 C    -2.867824769320E+00 -2.547065108577E+00 -1.486159679973E+00
   57     6 C    -5.806753018308E+00  2.550051470579E+00  1.520453879972E+00
   58     6 C    -1.470024103219E+00 -4.961202482887E+00 -1.479546119973E+00
   59     6 C     5.802124413815E+00 -4.972025776090E+00  1.513717679973E+00
   60     6 C    -2.872504564153E+00 -4.972390750339E+00 -1.486282319973E+00
   61     6 C     7.208872915819E+00  2.537403853304E+00  1.494366059973E+00
   62     6 C    -1.465756062148E+00  2.537038879054E+00 -1.505633939973E+00
   63     6 C    -5.110731559789E+00 -3.756096724527E+00  1.484445419973E+00
   64     6 C    -7.740026447000E-01  3.756565322007E+00 -1.515554579972E+00
   65     6 C     5.111162302175E+00  3.752790016159E+00  1.483587959973E+00
   66     6 C    -3.563466675792E+00  3.752425041909E+00 -1.516412039972E+00
   67     6 C     5.806800103853E+00  2.547718983004E+00  1.486159919973E+00
   68     6 C    -2.867828874115E+00  2.547354008755E+00 -1.513840079973E+00
   69     6 C    -5.806413204796E+00 -2.551147901413E+00  1.479546359973E+00
   70     6 C    -1.469684289707E+00  4.961514145121E+00 -1.520453639972E+00
   71     6 C     5.802541746381E+00  4.973057637286E+00  1.486282559973E+00
   72     6 C    -2.872087231586E+00  4.972692663036E+00 -1.513717439973E+00
   73     8 O     7.295942444173E+00  6.254023116313E-04  1.497428039973E+00
   74     8 O    -1.378686533794E+00  2.604280620339E-04 -1.502571959973E+00
   75     8 O    -3.647324953385E+00  6.317811547212E+00  1.518616739972E+00
   76     8 O     6.894039617041E-01 -1.193442406254E+00 -1.481383259973E+00
   77     8 O    -3.647354551330E+00 -6.318108866022E+00  1.486650059973E+00
   78     8 O     6.893743637594E-01  1.194553180512E+00 -1.513349939973E+00
   79     8 O     3.647399342734E+00 -6.317432888438E+00  1.497428159973E+00
   80     8 O     7.984128257823E+00  1.195229158096E+00 -1.502571839973E+00
   81     8 O     3.647652498718E+00  6.318202750475E+00  1.518616739972E+00
   82     8 O     7.984381413808E+00 -1.193051202991E+00 -1.481383259973E+00
   83     8 O    -7.295942021499E+00 -5.552357638786E-04  1.486649999973E+00
   84     8 O    -2.959213106410E+00 -7.511809189230E+00 -1.513349999973E+00

 *******************************************************************************
 STARTING BASIS SET HANDLING 
 *******************************************************************************

 Loading internal basis set: SOLDEF2MSVP         

 Please cite in your publication:
 L. Dona', J. G. Brandenburg and B. Civalleri, J. Chem. Phys., 151, 121101 (2019
 )                                                                              
                                                                                
                    

 *******************************************************************************
 LOCAL ATOMIC FUNCTIONS BASIS SET
 *******************************************************************************
   ATOM   X(AU)   Y(AU)   Z(AU)  N. TYPE  EXPONENT  S COEF   P COEF   D/F/G COEF
 *******************************************************************************
   1 B   -9.499  11.937   2.844
                                  1 S  
                                         2.410E+03 1.755E-03 0.000E+00 0.000E+00
                                         3.619E+02 1.344E-02 0.000E+00 0.000E+00
                                         8.231E+01 6.637E-02 0.000E+00 0.000E+00
                                         2.311E+01 2.303E-01 0.000E+00 0.000E+00
                                         7.252E+00 5.150E-01 0.000E+00 0.000E+00
                                  2 S  
                                         2.367E+00 1.000E+00 0.000E+00 0.000E+00
                                  3 S  
                                         5.533E-01 1.000E+00 0.000E+00 0.000E+00
                                  4 S  
                                         1.716E-01 1.000E+00 0.000E+00 0.000E+00
                           5-     7 P  
                                         6.002E+00 0.000E+00-3.555E-02 0.000E+00
                                         1.240E+00 0.000E+00-1.983E-01 0.000E+00
                                         3.367E-01 0.000E+00-5.048E-01 0.000E+00
                           8-    10 P  
                                         1.256E-01 0.000E+00 1.000E+00 0.000E+00
                          11-    15 D  
                                         8.880E-01 0.000E+00 0.000E+00 1.000E+00
   2 B   -1.304  -2.257  -2.826
   3 B   -5.588  14.195   2.844
   4 B    2.607   0.001  -2.826
   5 B   -9.499 -11.939   2.825
   6 B   -1.304   2.258  -2.845
   7 B    5.588 -14.195   2.844
   8 B   13.783   0.002  -2.826
   9 B    9.500  11.937   2.844
  10 B   -6.893  11.937  -2.826
  11 B    9.499 -11.935   2.825
  12 B   -6.893 -11.936  -2.845
  13 H   -2.384  10.147   2.804
                                181 S  
                                         1.874E+01 1.968E-02 0.000E+00 0.000E+00
                                         2.826E+00 1.380E-01 0.000E+00 0.000E+00
                                         6.401E-01 4.783E-01 0.000E+00 0.000E+00
                                182 S  
                                         1.756E-01 1.000E+00 0.000E+00 0.000E+00
  14 H    5.811  -4.047  -2.865
  15 H    2.376 -10.143   2.798
  16 H   10.571   4.054  -2.871
  17 H   -2.386 -10.148   2.797
  18 H    5.809   4.049  -2.872
  19 H    2.379  10.145   2.798
  20 H   10.574  -4.049  -2.872
  21 H   -7.597   7.139   2.865
  22 H    0.598  -7.055  -2.804
  23 H    7.596  -7.126   2.871
  24 H   -8.797  -7.127  -2.798
  25 H    9.979  -3.005   2.872
  26 H   -6.413  -3.006  -2.797
  27 H   -9.975   3.014   2.872
  28 H   -1.780 -11.180  -2.798
  29 H   -7.596  -7.140   2.804
  30 H    0.599   7.056  -2.865
  31 H    7.597   7.130   2.798
  32 H   -8.796   7.130  -2.871
  33 H    9.979   3.008   2.797
  34 H   -6.414   3.007  -2.872
  35 H   -9.976  -3.016   2.798
  36 H   -1.780  11.181  -2.872
  37 C   -2.658  14.195   2.824
                                229 S  
                                         3.624E+03 1.634E-03 0.000E+00 0.000E+00
                                         5.440E+02 1.252E-02 0.000E+00 0.000E+00
                                         1.237E+02 6.211E-02 0.000E+00 0.000E+00
                                         3.476E+01 2.182E-01 0.000E+00 0.000E+00
                                         1.093E+01 4.980E-01 0.000E+00 0.000E+00
                                230 S  
                                         3.574E+00 1.000E+00 0.000E+00 0.000E+00
                                231 S  
                                         7.742E-01 1.000E+00 0.000E+00 0.000E+00
                                232 S  
                                         2.330E-01 1.000E+00 0.000E+00 0.000E+00
                         233-   235 P  
                                         9.443E+00 0.000E+00 3.790E-02 0.000E+00
                                         2.002E+00 0.000E+00 2.082E-01 0.000E+00
                                         5.463E-01 0.000E+00 5.047E-01 0.000E+00
                         236-   238 P  
                                         1.820E-01 0.000E+00 1.000E+00 0.000E+00
                         239-   243 D  
                                         8.880E-01 0.000E+00 0.000E+00 1.000E+00
  38 C    5.537   0.001  -2.845
  39 C   -1.316  11.911   2.805
  40 C    6.880  -2.283  -2.864
  41 C    1.313 -11.910   2.804
  42 C    9.508   2.287  -2.866
  43 C   -1.317 -11.911   2.808
  44 C    6.879   2.286  -2.861
  45 C    1.314  11.911   2.796
  46 C    9.509  -2.283  -2.873
  47 C    2.656 -14.195   2.809
  48 C   10.852   0.002  -2.861
  49 C   13.623  -4.793   2.845
  50 C   -2.770  -4.793  -2.824
  51 C   -9.659   7.096   2.864
  52 C   -1.463  -7.098  -2.805
  53 C    9.658  -7.090   2.866
  54 C   -6.735  -7.090  -2.804
  55 C   10.973  -4.813   2.861
  56 C   -5.419  -4.813  -2.808
  57 C  -10.973   4.819   2.873
  58 C   -2.778  -9.375  -2.796
  59 C   10.964  -9.396   2.861
  60 C   -5.428  -9.396  -2.809
  61 C   13.623   4.795   2.824
  62 C   -2.770   4.794  -2.845
  63 C   -9.658  -7.098   2.805
  64 C   -1.463   7.099  -2.864
  65 C    9.659   7.092   2.804
  66 C   -6.734   7.091  -2.866
  67 C   10.973   4.814   2.808
  68 C   -5.419   4.814  -2.861
  69 C  -10.973  -4.821   2.796
  70 C   -2.777   9.376  -2.873
  71 C   10.965   9.398   2.809
  72 C   -5.427   9.397  -2.861
  73 O   13.787   0.001   2.830
                                769 S  
                                         6.773E+03 1.727E-03 0.000E+00 0.000E+00
                                         1.017E+03 1.325E-02 0.000E+00 0.000E+00
                                         2.313E+02 6.603E-02 0.000E+00 0.000E+00
                                         6.501E+01 2.353E-01 0.000E+00 0.000E+00
                                         2.050E+01 5.498E-01 0.000E+00 0.000E+00
                                770 S  
                                         6.716E+00 1.000E+00 0.000E+00 0.000E+00
                                771 S  
                                         1.147E+00 1.000E+00 0.000E+00 0.000E+00
                                772 S  
                                         3.342E-01 1.000E+00 0.000E+00 0.000E+00
                         773-   775 P  
                                         1.769E+01 0.000E+00 4.359E-02 0.000E+00
                                         3.854E+00 0.000E+00 2.318E-01 0.000E+00
                                         1.047E+00 0.000E+00 5.146E-01 0.000E+00
                         776-   778 P  
                                         2.759E-01 0.000E+00 1.000E+00 0.000E+00
                         779-   783 D  
                                         8.000E-01 0.000E+00 0.000E+00 1.000E+00
  74 O   -2.605   0.000  -2.839
  75 O   -6.892  11.939   2.870
  76 O    1.303  -2.255  -2.799
  77 O   -6.893 -11.939   2.809
  78 O    1.303   2.257  -2.860
  79 O    6.893 -11.938   2.830
  80 O   15.088   2.259  -2.839
  81 O    6.893  11.940   2.870
  82 O   15.088  -2.255  -2.799
  83 O  -13.787  -0.001   2.809
  84 O   -5.592 -14.195  -2.860

 *******************************************************************************
 FINISHED BASIS SET HANDLING 
 *******************************************************************************

 INFORMATION **** SET_MPP **** PCRYSTAL CALCULATION
 INFORMATION **** READM2 **** NEW DEFAULT: FOCK/KS MATRIX MIXING SET TO 30 %
 INFORMATION **** READM2 **** NEW DEFAULT: FULL DIRECT SCF MODE
 INFORMATION **** READM2 **** NEW DEFAULT: COULOMB BIPOLAR BUFFER SET TO 32 Mb
 INFORMATION **** READM2 **** NEW DEFAULT: EXCHANGE BIPOLAR BUFFER SET TO 32 Mb

 *******************************************************************************
 NEW DEFAULT: DFT INTEGRATION GRID INCREASED TO XLGRID
 NEW DEFAULT: DIIS ACCELERATOR ACTIVE
 USE KEYWORD NODIIS TO TURN IT OFF
 *******************************************************************************

 WARNING **** RDDFTP **** HSEsol-HJS ACTIVE
 RANGE SEPARATION - OMEGA:   0.110000000000000     
 WARNING **** RDDFTP **** HSEsol-3c has to be combined with sol-def2-mSVP basis set
 *******************************************************************************
 N. OF ATOMS PER CELL        84  COULOMB OVERLAP TOL         (T1) 10**   -6
 NUMBER OF SHELLS           468  COULOMB PENETRATION TOL     (T2) 10**   -6
 NUMBER OF AO               948  EXCHANGE OVERLAP TOL        (T3) 10**   -6
 N. OF ELECTRONS PER CELL   396  EXCHANGE PSEUDO OVP (F(G))  (T4) 10**   -6
 CORE ELECTRONS PER CELL    120  EXCHANGE PSEUDO OVP (P(G))  (T5) 10**  -12
 N. OF SYMMETRY OPERATORS     1  POLE ORDER IN MONO ZONE                  4
 *******************************************************************************
 TYPE OF CALCULATION :  RESTRICTED CLOSED SHELL
 KOHN-SHAM HAMILTONIAN

 (EXCHANGE)[CORRELATION] FUNCTIONAL:(HSEsol GGA)[PBEsol]

 RANGE-SEPARATED HYBRID FUNCTIONAL 
 OMEGA (SHORT-RANGE)[LONG-RANGE]:(    0.1100)[    0.0000]

 HYBRID EXCHANGE - PERCENTAGE OF FOCK EXCHANGE    25.0000

 CAPPA:IS1  2;IS2  2;IS3  8; K PTS MONK NET  20; SYMMOPS:K SPACE   2;G SPACE   1

 *******************************************************************************
 MAX NUMBER OF SCF CYCLES      50  CONVERGENCE ON DELTAP        10**-16
 WEIGHT OF F(I) IN F(I+1)      30% CONVERGENCE ON ENERGY        10**- 7
 SHRINK. FACT.(MONKH.)    2  2  8  NUMBER OF K POINTS IN THE IBZ     20
 SHRINKING FACTOR(GILAT NET)    8  NUMBER OF K POINTS(GILAT NET)   1028
 *******************************************************************************
 *** K POINTS COORDINATES (OBLIQUE COORDINATES IN UNITS OF IS =  2)
   1-R(  0  0  0)   2-R(  1  0  0)   3-R(  0  1  0)   4-R(  1  1  0)
   5-C(  0  0  1)   6-C(  1  0  1)   7-C(  0  1  1)   8-C(  1  1  1)
   9-C(  0  0  2)  10-C(  1  0  2)  11-C(  0  1  2)  12-C(  1  1  2)
  13-C(  0  0  3)  14-C(  1  0  3)  15-C(  0  1  3)  16-C(  1  1  3)
  17-R(  0  0  4)  18-R(  1  0  4)  19-R(  0  1  4)  20-R(  1  1  4)

 DIRECT LATTICE VECTORS COMPON. (A.U.)     RECIP. LATTICE VECTORS COMPON. (A.U.) 
        X            Y            Z              X            Y            Z
   24.5879030  -14.1935232    0.0000000      0.2555397    0.0000000    0.0000005
    0.0000000   28.3910867    0.0000000      0.1277517    0.2213084    0.0000015
   -0.0000241   -0.0000639   11.3383568      0.0000000    0.0000000    0.5541531

 DISK SPACE FOR EIGENVECTORS (FTN 10)    28758528 REALS

 SYMMETRY ADAPTION OF THE BLOCH FUNCTIONS DISABLED
 TTTTTTTTTTTTTTTTTTTTTTTTTTTTTT gordsh1     TELAPSE        0.06 TCPU        0.06

 MATRIX SIZE: P(G)  813356, F(G)  148683, P(G) IRR  408844, F(G) IRR  149931
 MAX G-VECTOR INDEX FOR 1- AND 2-ELECTRON INTEGRALS  57

 TTTTTTTTTTTTTTTTTTTTTTTTTTTTTT INPUT       TELAPSE        2.99 TCPU        2.99

 NEIGHBORS OF THE NON-EQUIVALENT ATOMS

 N = NUMBER OF NEIGHBORS AT DISTANCE R
    ATOM  N     R/ANG      R/AU   NEIGHBORS (ATOM LABELS AND CELL INDICES)
   1 B    1     1.3791     2.6061   73 O   -1 0 0
   1 B    1     1.3793     2.6065   75 O    0 0 0
   1 B    1     1.5503     2.9297   49 C   -1 0 0
   1 B    1     2.3895     4.5155    5 B    0 1 0
   1 B    1     2.3898     4.5160    3 B    0 0 0
   1 B    1     2.5632     4.8437   51 C    0 0 0

   2 B    1     1.3791     2.6061   74 O    0 0 0
   2 B    1     1.3793     2.6065   76 O    0 0 0
   2 B    1     1.5503     2.9297   50 C    0 0 0
   2 B    1     2.3895     4.5155    6 B    0 0 0
   2 B    1     2.3898     4.5160    4 B    0 0 0
   2 B    1     2.5632     4.8437   52 C    0 0 0

   3 B    1     1.3793     2.6065   77 O    0 1 0
   3 B    1     1.3793     2.6065   75 O    0 0 0
   3 B    1     1.5504     2.9298   37 C    0 0 0
   3 B    1     2.3895     4.5156    5 B    0 1 0
   3 B    1     2.3898     4.5160    1 B    0 0 0
   3 B    1     2.5634     4.8440   43 C    0 1 0

   4 B    1     1.3793     2.6065   78 O    0 0 0
   4 B    1     1.3793     2.6065   76 O    0 0 0
   4 B    1     1.5504     2.9298   38 C    0 0 0
   4 B    1     2.3895     4.5156    6 B    0 0 0
   4 B    1     2.3898     4.5160    2 B    0 0 0
   4 B    1     2.5634     4.8440   44 C    0 0 0

   5 B    1     1.3791     2.6061   73 O   -1-1 0
   5 B    1     1.3793     2.6064   77 O    0 0 0
   5 B    1     1.5502     2.9294   61 C   -1-1 0
   5 B    1     2.3895     4.5155    1 B    0-1 0
   5 B    1     2.3895     4.5156    3 B    0-1 0
   5 B    1     2.5629     4.8433   63 C    0 0 0

   6 B    1     1.3791     2.6061   74 O    0 0 0
   6 B    1     1.3793     2.6064   78 O    0 0 0
   6 B    1     1.5502     2.9294   62 C    0 0 0
   6 B    1     2.3895     4.5155    2 B    0 0 0
   6 B    1     2.3895     4.5156    4 B    0 0 0
   6 B    1     2.5629     4.8433   64 C    0 0 0

   7 B    1     1.3795     2.6068   79 O    0 0 0
   7 B    1     1.3795     2.6070   81 O    0-1 0
   7 B    1     1.5513     2.9316   47 C    0 0 0
   7 B    1     2.3905     4.5174   11 B    0 0 0
   7 B    1     2.3905     4.5175    9 B    0-1 0
   7 B    1     2.5648     4.8468   45 C    0-1 0

   8 B    1     1.3795     2.6068   80 O    0 0 0
   8 B    1     1.3795     2.6070   82 O    0 0 0
   8 B    1     1.5513     2.9316   48 C    0 0 0
   8 B    1     2.3905     4.5174   12 B    1 1 0
   8 B    1     2.3905     4.5175   10 B    1 0 0
   8 B    1     2.5648     4.8468   46 C    0 0 0

   9 B    1     1.3795     2.6069   81 O    0 0 0
   9 B    1     1.3797     2.6072   83 O    1 1 0
   9 B    1     1.5516     2.9322   71 C    0 0 0
   9 B    1     2.3905     4.5175    7 B    0 1 0
   9 B    1     2.3911     4.5185   11 B    0 1 0
   9 B    1     2.5651     4.8473   69 C    1 1 0

  10 B    1     1.3795     2.6069   82 O   -1 0 0
  10 B    1     1.3797     2.6072   84 O    0 1 0
  10 B    1     1.5516     2.9322   72 C    0 0 0
  10 B    1     2.3905     4.5175    8 B   -1 0 0
  10 B    1     2.3911     4.5185   12 B    0 1 0
  10 B    1     2.5651     4.8473   70 C    0 0 0

  11 B    1     1.3795     2.6068   79 O    0 0 0
  11 B    1     1.3796     2.6071   83 O    1 0 0
  11 B    1     1.5516     2.9322   59 C    0 0 0
  11 B    1     2.3905     4.5174    7 B    0 0 0
  11 B    1     2.3911     4.5185    9 B    0-1 0
  11 B    1     2.5651     4.8473   57 C    1 0 0

  12 B    1     1.3795     2.6068   80 O   -1-1 0
  12 B    1     1.3796     2.6071   84 O    0 0 0
  12 B    1     1.5516     2.9322   60 C    0 0 0
  12 B    1     2.3905     4.5174    8 B   -1-1 0
  12 B    1     2.3911     4.5185   10 B    0-1 0
  12 B    1     2.5651     4.8473   58 C    0 0 0

  13 H    1     1.0913     2.0623   39 C    0 0 0
  13 H    1     2.1472     4.0576   37 C    0 0 0
  13 H    1     2.1680     4.0969   45 C    0 0 0
  13 H    1     2.5202     4.7625   19 H    0 0 0
  13 H    1     2.5676     4.8520   75 O    0 0 0
  13 H    1     2.7321     5.1630    3 B    0 0 0

  14 H    1     1.0913     2.0623   40 C    0 0 0
  14 H    1     2.1472     4.0576   38 C    0 0 0
  14 H    1     2.1680     4.0969   46 C    0 0 0
  14 H    1     2.5202     4.7625   20 H    0 0 0
  14 H    1     2.5676     4.8520   76 O    0 0 0
  14 H    1     2.7321     5.1630    4 B    0 0 0

  15 H    1     1.0914     2.0625   41 C    0 0 0
  15 H    1     2.1493     4.0616   47 C    0 0 0
  15 H    1     2.1666     4.0942   43 C    0 0 0
  15 H    1     2.5198     4.7618   17 H    0 0 0
  15 H    1     2.5720     4.8604   79 O    0 0 0
  15 H    1     2.7362     5.1707    7 B    0 0 0

  16 H    1     1.0914     2.0625   42 C    0 0 0
  16 H    1     2.1493     4.0616   48 C    0 0 0
  16 H    1     2.1666     4.0942   44 C    0 0 0
  16 H    1     2.5198     4.7618   18 H    0 0 0
  16 H    1     2.5720     4.8604   80 O    0 0 0
  16 H    1     2.7362     5.1707    8 B    0 0 0

  17 H    1     1.0914     2.0624   43 C    0 0 0
  17 H    1     2.1471     4.0575   37 C    0-1 0
  17 H    1     2.1680     4.0970   41 C    0 0 0
  17 H    1     2.5198     4.7618   15 H    0 0 0
  17 H    1     2.5665     4.8500   77 O    0 0 0
  17 H    1     2.7315     5.1618    3 B    0-1 0

  18 H    1     1.0914     2.0624   44 C    0 0 0
  18 H    1     2.1471     4.0575   38 C    0 0 0
  18 H    1     2.1680     4.0970   42 C    0 0 0
  18 H    1     2.5198     4.7618   16 H    0 0 0
  18 H    1     2.5665     4.8500   78 O    0 0 0
  18 H    1     2.7315     5.1618    4 B    0 0 0

  19 H    1     1.0915     2.0626   45 C    0 0 0
  19 H    1     2.1490     4.0610   47 C    0 1 0
  19 H    1     2.1669     4.0948   39 C    0 0 0
  19 H    1     2.5202     4.7625   13 H    0 0 0
  19 H    1     2.5712     4.8588   81 O    0 0 0
  19 H    1     2.7351     5.1686    7 B    0 1 0

  20 H    1     1.0915     2.0626   46 C    0 0 0
  20 H    1     2.1490     4.0610   48 C    0 0 0
  20 H    1     2.1669     4.0948   40 C    0 0 0
  20 H    1     2.5202     4.7625   14 H    0 0 0
  20 H    1     2.5712     4.8588   82 O    0 0 0
  20 H    1     2.7351     5.1686    8 B    0 0 0

  21 H    1     1.0913     2.0623   51 C    0 0 0
  21 H    1     2.1469     4.0571   49 C   -1 0 0
  21 H    1     2.1680     4.0968   57 C    0 0 0
  21 H    1     2.5198     4.7617   27 H    0 0 0
  21 H    1     2.5670     4.8510   75 O    0 0 0
  21 H    1     2.7310     5.1609    1 B    0 0 0

  22 H    1     1.0913     2.0623   52 C    0 0 0
  22 H    1     2.1469     4.0571   50 C    0 0 0
  22 H    1     2.1680     4.0968   58 C    0 0 0
  22 H    1     2.5198     4.7617   28 H    0 0 0
  22 H    1     2.5670     4.8510   76 O    0 0 0
  22 H    1     2.7310     5.1609    2 B    0 0 0

  23 H    1     1.0914     2.0625   53 C    0 0 0
  23 H    1     2.1493     4.0617   59 C    0 0 0
  23 H    1     2.1664     4.0939   55 C    0 0 0
  23 H    1     2.5192     4.7606   25 H    0 0 0
  23 H    1     2.5735     4.8632   79 O    0 0 0
  23 H    1     2.7371     5.1723   11 B    0 0 0

  24 H    1     1.0914     2.0625   54 C    0 0 0
  24 H    1     2.1493     4.0617   60 C    0 0 0
  24 H    1     2.1664     4.0939   56 C    0 0 0
  24 H    1     2.5192     4.7606   26 H    0 0 0
  24 H    1     2.5735     4.8632   80 O   -1-1 0
  24 H    1     2.7371     5.1723   12 B    0 0 0

  25 H    1     1.0914     2.0624   55 C    0 0 0
  25 H    1     2.1475     4.0581   49 C    0 0 0
  25 H    1     2.1679     4.0967   53 C    0 0 0
  25 H    1     2.5192     4.7606   23 H    0 0 0
  25 H    1     2.5675     4.8519   73 O    0 0 0
  25 H    1     2.7328     5.1643    1 B    1 0 0

  26 H    1     1.0914     2.0624   56 C    0 0 0
  26 H    1     2.1475     4.0581   50 C    0 0 0
  26 H    1     2.1679     4.0967   54 C    0 0 0
  26 H    1     2.5192     4.7606   24 H    0 0 0
  26 H    1     2.5675     4.8519   74 O    0 0 0
  26 H    1     2.7328     5.1643    2 B    0 0 0

  27 H    1     1.0914     2.0625   57 C    0 0 0
  27 H    1     2.1491     4.0612   59 C   -1 0 0
  27 H    1     2.1666     4.0942   51 C    0 0 0
  27 H    1     2.5198     4.7617   21 H    0 0 0
  27 H    1     2.5723     4.8609   83 O    0 0 0
  27 H    1     2.7355     5.1693   11 B   -1 0 0

  28 H    1     1.0914     2.0625   58 C    0 0 0
  28 H    1     2.1491     4.0612   60 C    0 0 0
  28 H    1     2.1666     4.0942   52 C    0 0 0
  28 H    1     2.5198     4.7617   22 H    0 0 0
  28 H    1     2.5723     4.8609   84 O    0 0 0
  28 H    1     2.7355     5.1693   12 B    0 0 0

  29 H    1     1.0914     2.0624   63 C    0 0 0
  29 H    1     2.1475     4.0582   61 C   -1-1 0
  29 H    1     2.1678     4.0966   69 C    0 0 0
  29 H    1     2.5200     4.7621   35 H    0 0 0
  29 H    1     2.5667     4.8503   77 O    0 0 0
  29 H    1     2.7315     5.1618    5 B    0 0 0

  30 H    1     1.0914     2.0624   64 C    0 0 0
  30 H    1     2.1475     4.0582   62 C    0 0 0
  30 H    1     2.1678     4.0966   70 C    0 0 0
  30 H    1     2.5200     4.7621   36 H    0 0 0
  30 H    1     2.5667     4.8503   78 O    0 0 0
  30 H    1     2.7315     5.1618    6 B    0 0 0

  31 H    1     1.0913     2.0623   65 C    0 0 0
  31 H    1     2.1487     4.0605   71 C    0 0 0
  31 H    1     2.1667     4.0945   67 C    0 0 0
  31 H    1     2.5197     4.7616   33 H    0 0 0
  31 H    1     2.5723     4.8610   81 O    0 0 0
  31 H    1     2.7359     5.1701    9 B    0 0 0

  32 H    1     1.0913     2.0623   66 C    0 0 0
  32 H    1     2.1487     4.0605   72 C    0 0 0
  32 H    1     2.1667     4.0945   68 C    0 0 0
  32 H    1     2.5197     4.7616   34 H    0 0 0
  32 H    1     2.5723     4.8610   82 O   -1 0 0
  32 H    1     2.7359     5.1701   10 B    0 0 0

  33 H    1     1.0915     2.0626   67 C    0 0 0
  33 H    1     2.1479     4.0589   61 C    0 0 0
  33 H    1     2.1679     4.0968   65 C    0 0 0
  33 H    1     2.5197     4.7616   31 H    0 0 0
  33 H    1     2.5677     4.8522   73 O    0 0 0
  33 H    1     2.7331     5.1648    5 B    1 1 0

  34 H    1     1.0915     2.0626   68 C    0 0 0
  34 H    1     2.1479     4.0589   62 C    0 0 0
  34 H    1     2.1679     4.0968   66 C    0 0 0
  34 H    1     2.5197     4.7616   32 H    0 0 0
  34 H    1     2.5677     4.8522   74 O    0 0 0
  34 H    1     2.7331     5.1648    6 B    0 0 0

  35 H    1     1.0914     2.0624   69 C    0 0 0
  35 H    1     2.1486     4.0602   71 C   -1-1 0
  35 H    1     2.1668     4.0947   63 C    0 0 0
  35 H    1     2.5200     4.7621   29 H    0 0 0
  35 H    1     2.5717     4.8598   83 O    0 0 0
  35 H    1     2.7349     5.1682    9 B   -1-1 0

  36 H    1     1.0914     2.0624   70 C    0 0 0
  36 H    1     2.1486     4.0602   72 C    0 0 0
  36 H    1     2.1668     4.0947   64 C    0 0 0
  36 H    1     2.5200     4.7621   30 H    0 0 0
  36 H    1     2.5717     4.8598   84 O    0 1 0
  36 H    1     2.7349     5.1682   10 B    0 0 0

  37 C    1     1.4020     2.6495   43 C    0 1 0
  37 C    1     1.4021     2.6495   39 C    0 0 0
  37 C    1     1.5504     2.9298    3 B    0 0 0
  37 C    1     2.1471     4.0575   17 H    0 1 0
  37 C    1     2.1472     4.0576   13 H    0 0 0
  37 C    1     2.4246     4.5817   41 C    0 1 0

  38 C    1     1.4020     2.6495   44 C    0 0 0
  38 C    1     1.4021     2.6495   40 C    0 0 0
  38 C    1     1.5504     2.9298    4 B    0 0 0
  38 C    1     2.1471     4.0575   18 H    0 0 0
  38 C    1     2.1472     4.0576   14 H    0 0 0
  38 C    1     2.4246     4.5817   42 C    0 0 0

  39 C    1     1.0913     2.0623   13 H    0 0 0
  39 C    1     1.3914     2.6294   45 C    0 0 0
  39 C    1     1.4021     2.6495   37 C    0 0 0
  39 C    1     2.1669     4.0948   19 H    0 0 0
  39 C    1     2.4177     4.5688   43 C    0 1 0
  39 C    1     2.4250     4.5825   47 C    0 1 0

  40 C    1     1.0913     2.0623   14 H    0 0 0
  40 C    1     1.3914     2.6294   46 C    0 0 0
  40 C    1     1.4021     2.6495   38 C    0 0 0
  40 C    1     2.1669     4.0948   20 H    0 0 0
  40 C    1     2.4177     4.5688   44 C    0 0 0
  40 C    1     2.4250     4.5825   48 C    0 0 0

  41 C    1     1.0914     2.0625   15 H    0 0 0
  41 C    1     1.3914     2.6293   43 C    0 0 0
  41 C    1     1.4026     2.6505   47 C    0 0 0
  41 C    1     2.1680     4.0970   17 H    0 0 0
  41 C    1     2.4182     4.5697   45 C    0-1 0
  41 C    1     2.4246     4.5817   37 C    0-1 0

  42 C    1     1.0914     2.0625   16 H    0 0 0
  42 C    1     1.3914     2.6293   44 C    0 0 0
  42 C    1     1.4026     2.6505   48 C    0 0 0
  42 C    1     2.1680     4.0970   18 H    0 0 0
  42 C    1     2.4182     4.5697   46 C    0 0 0
  42 C    1     2.4246     4.5817   38 C    0 0 0

  43 C    1     1.0914     2.0624   17 H    0 0 0
  43 C    1     1.3914     2.6293   41 C    0 0 0
  43 C    1     1.4020     2.6495   37 C    0-1 0
  43 C    1     2.1666     4.0942   15 H    0 0 0
  43 C    1     2.4177     4.5688   39 C    0-1 0
  43 C    1     2.4250     4.5826   47 C    0 0 0

  44 C    1     1.0914     2.0624   18 H    0 0 0
  44 C    1     1.3914     2.6293   42 C    0 0 0
  44 C    1     1.4020     2.6495   38 C    0 0 0
  44 C    1     2.1666     4.0942   16 H    0 0 0
  44 C    1     2.4177     4.5688   40 C    0 0 0
  44 C    1     2.4250     4.5826   48 C    0 0 0

  45 C    1     1.0915     2.0626   19 H    0 0 0
  45 C    1     1.3914     2.6294   39 C    0 0 0
  45 C    1     1.4025     2.6504   47 C    0 1 0
  45 C    1     2.1680     4.0969   13 H    0 0 0
  45 C    1     2.4182     4.5697   41 C    0 1 0
  45 C    1     2.4246     4.5818   37 C    0 0 0

  46 C    1     1.0915     2.0626   20 H    0 0 0
  46 C    1     1.3914     2.6294   40 C    0 0 0
  46 C    1     1.4025     2.6504   48 C    0 0 0
  46 C    1     2.1680     4.0969   14 H    0 0 0
  46 C    1     2.4182     4.5697   42 C    0 0 0
  46 C    1     2.4246     4.5818   38 C    0 0 0

  47 C    1     1.4025     2.6504   45 C    0-1 0
  47 C    1     1.4026     2.6505   41 C    0 0 0
  47 C    1     1.5513     2.9316    7 B    0 0 0
  47 C    1     2.1490     4.0610   19 H    0-1 0
  47 C    1     2.1493     4.0616   15 H    0 0 0
  47 C    1     2.4250     4.5825   39 C    0-1 0

  48 C    1     1.4025     2.6504   46 C    0 0 0
  48 C    1     1.4026     2.6505   42 C    0 0 0
  48 C    1     1.5513     2.9316    8 B    0 0 0
  48 C    1     2.1490     4.0610   20 H    0 0 0
  48 C    1     2.1493     4.0616   16 H    0 0 0
  48 C    1     2.4250     4.5825   40 C    0 0 0

  49 C    1     1.4020     2.6494   51 C    1 0 0
  49 C    1     1.4021     2.6495   55 C    0 0 0
  49 C    1     1.5503     2.9297    1 B    1 0 0
  49 C    1     2.1469     4.0571   21 H    1 0 0
  49 C    1     2.1475     4.0581   25 H    0 0 0
  49 C    1     2.4246     4.5818   53 C    0 0 0

  50 C    1     1.4020     2.6494   52 C    0 0 0
  50 C    1     1.4021     2.6495   56 C    0 0 0
  50 C    1     1.5503     2.9297    2 B    0 0 0
  50 C    1     2.1469     4.0571   22 H    0 0 0
  50 C    1     2.1475     4.0581   26 H    0 0 0
  50 C    1     2.4246     4.5818   54 C    0 0 0

  51 C    1     1.0913     2.0623   21 H    0 0 0
  51 C    1     1.3914     2.6293   57 C    0 0 0
  51 C    1     1.4020     2.6494   49 C   -1 0 0
  51 C    1     2.1666     4.0942   27 H    0 0 0
  51 C    1     2.4175     4.5684   55 C   -1 0 0
  51 C    1     2.4251     4.5828   59 C   -1 0 0

  52 C    1     1.0913     2.0623   22 H    0 0 0
  52 C    1     1.3914     2.6293   58 C    0 0 0
  52 C    1     1.4020     2.6494   50 C    0 0 0
  52 C    1     2.1666     4.0942   28 H    0 0 0
  52 C    1     2.4175     4.5684   56 C    0 0 0
  52 C    1     2.4251     4.5828   60 C    0 0 0

  53 C    1     1.0914     2.0625   23 H    0 0 0
  53 C    1     1.3915     2.6295   55 C    0 0 0
  53 C    1     1.4026     2.6505   59 C    0 0 0
  53 C    1     2.1679     4.0967   25 H    0 0 0
  53 C    1     2.4179     4.5691   57 C    1 0 0
  53 C    1     2.4246     4.5818   49 C    0 0 0

  54 C    1     1.0914     2.0625   24 H    0 0 0
  54 C    1     1.3915     2.6295   56 C    0 0 0
  54 C    1     1.4026     2.6505   60 C    0 0 0
  54 C    1     2.1679     4.0967   26 H    0 0 0
  54 C    1     2.4179     4.5691   58 C    0 0 0
  54 C    1     2.4246     4.5818   50 C    0 0 0

  55 C    1     1.0914     2.0624   25 H    0 0 0
  55 C    1     1.3915     2.6295   53 C    0 0 0
  55 C    1     1.4021     2.6495   49 C    0 0 0
  55 C    1     2.1664     4.0939   23 H    0 0 0
  55 C    1     2.4175     4.5684   51 C    1 0 0
  55 C    1     2.4253     4.5832   59 C    0 0 0

  56 C    1     1.0914     2.0624   26 H    0 0 0
  56 C    1     1.3915     2.6295   54 C    0 0 0
  56 C    1     1.4021     2.6495   50 C    0 0 0
  56 C    1     2.1664     4.0939   24 H    0 0 0
  56 C    1     2.4175     4.5684   52 C    0 0 0
  56 C    1     2.4253     4.5832   60 C    0 0 0

  57 C    1     1.0914     2.0625   27 H    0 0 0
  57 C    1     1.3914     2.6293   51 C    0 0 0
  57 C    1     1.4025     2.6504   59 C   -1 0 0
  57 C    1     2.1680     4.0968   21 H    0 0 0
  57 C    1     2.4179     4.5691   53 C   -1 0 0
  57 C    1     2.4247     4.5819   49 C   -1 0 0

  58 C    1     1.0914     2.0625   28 H    0 0 0
  58 C    1     1.3914     2.6293   52 C    0 0 0
  58 C    1     1.4025     2.6504   60 C    0 0 0
  58 C    1     2.1680     4.0968   22 H    0 0 0
  58 C    1     2.4179     4.5691   54 C    0 0 0
  58 C    1     2.4247     4.5819   50 C    0 0 0

  59 C    1     1.4025     2.6504   57 C    1 0 0
  59 C    1     1.4026     2.6505   53 C    0 0 0
  59 C    1     1.5516     2.9322   11 B    0 0 0
  59 C    1     2.1491     4.0612   27 H    1 0 0
  59 C    1     2.1493     4.0617   23 H    0 0 0
  59 C    1     2.4251     4.5828   51 C    1 0 0

  60 C    1     1.4025     2.6504   58 C    0 0 0
  60 C    1     1.4026     2.6505   54 C    0 0 0
  60 C    1     1.5516     2.9322   12 B    0 0 0
  60 C    1     2.1491     4.0612   28 H    0 0 0
  60 C    1     2.1493     4.0617   24 H    0 0 0
  60 C    1     2.4251     4.5828   52 C    0 0 0

  61 C    1     1.4021     2.6496   63 C    1 1 0
  61 C    1     1.4021     2.6497   67 C    0 0 0
  61 C    1     1.5502     2.9294    5 B    1 1 0
  61 C    1     2.1475     4.0582   29 H    1 1 0
  61 C    1     2.1479     4.0589   33 H    0 0 0
  61 C    1     2.4244     4.5814   65 C    0 0 0

  62 C    1     1.4021     2.6496   64 C    0 0 0
  62 C    1     1.4021     2.6497   68 C    0 0 0
  62 C    1     1.5502     2.9294    6 B    0 0 0
  62 C    1     2.1475     4.0582   30 H    0 0 0
  62 C    1     2.1479     4.0589   34 H    0 0 0
  62 C    1     2.4244     4.5814   66 C    0 0 0

  63 C    1     1.0914     2.0624   29 H    0 0 0
  63 C    1     1.3914     2.6293   69 C    0 0 0
  63 C    1     1.4021     2.6496   61 C   -1-1 0
  63 C    1     2.1668     4.0947   35 H    0 0 0
  63 C    1     2.4179     4.5692   67 C   -1-1 0
  63 C    1     2.4251     4.5827   71 C   -1-1 0

  64 C    1     1.0914     2.0624   30 H    0 0 0
  64 C    1     1.3914     2.6293   70 C    0 0 0
  64 C    1     1.4021     2.6496   62 C    0 0 0
  64 C    1     2.1668     4.0947   36 H    0 0 0
  64 C    1     2.4179     4.5692   68 C    0 0 0
  64 C    1     2.4251     4.5827   72 C    0 0 0

  65 C    1     1.0913     2.0623   31 H    0 0 0
  65 C    1     1.3914     2.6294   67 C    0 0 0
  65 C    1     1.4025     2.6504   71 C    0 0 0
  65 C    1     2.1679     4.0968   33 H    0 0 0
  65 C    1     2.4178     4.5690   69 C    1 1 0
  65 C    1     2.4244     4.5814   61 C    0 0 0

  66 C    1     1.0913     2.0623   32 H    0 0 0
  66 C    1     1.3914     2.6294   68 C    0 0 0
  66 C    1     1.4025     2.6504   72 C    0 0 0
  66 C    1     2.1679     4.0968   34 H    0 0 0
  66 C    1     2.4178     4.5690   70 C    0 0 0
  66 C    1     2.4244     4.5814   62 C    0 0 0

  67 C    1     1.0915     2.0626   33 H    0 0 0
  67 C    1     1.3914     2.6294   65 C    0 0 0
  67 C    1     1.4021     2.6497   61 C    0 0 0
  67 C    1     2.1667     4.0945   31 H    0 0 0
  67 C    1     2.4179     4.5692   63 C    1 1 0
  67 C    1     2.4253     4.5832   71 C    0 0 0

  68 C    1     1.0915     2.0626   34 H    0 0 0
  68 C    1     1.3914     2.6294   66 C    0 0 0
  68 C    1     1.4021     2.6497   62 C    0 0 0
  68 C    1     2.1667     4.0945   32 H    0 0 0
  68 C    1     2.4179     4.5692   64 C    0 0 0
  68 C    1     2.4253     4.5832   72 C    0 0 0

  69 C    1     1.0914     2.0624   35 H    0 0 0
  69 C    1     1.3914     2.6293   63 C    0 0 0
  69 C    1     1.4025     2.6503   71 C   -1-1 0
  69 C    1     2.1678     4.0966   29 H    0 0 0
  69 C    1     2.4178     4.5690   65 C   -1-1 0
  69 C    1     2.4245     4.5817   61 C   -1-1 0

  70 C    1     1.0914     2.0624   36 H    0 0 0
  70 C    1     1.3914     2.6293   64 C    0 0 0
  70 C    1     1.4025     2.6503   72 C    0 0 0
  70 C    1     2.1678     4.0966   30 H    0 0 0
  70 C    1     2.4178     4.5690   66 C    0 0 0
  70 C    1     2.4245     4.5817   62 C    0 0 0

  71 C    1     1.4025     2.6503   69 C    1 1 0
  71 C    1     1.4025     2.6504   65 C    0 0 0
  71 C    1     1.5516     2.9322    9 B    0 0 0
  71 C    1     2.1486     4.0602   35 H    1 1 0
  71 C    1     2.1487     4.0605   31 H    0 0 0
  71 C    1     2.4251     4.5827   63 C    1 1 0

  72 C    1     1.4025     2.6503   70 C    0 0 0
  72 C    1     1.4025     2.6504   66 C    0 0 0
  72 C    1     1.5516     2.9322   10 B    0 0 0
  72 C    1     2.1486     4.0602   36 H    0 0 0
  72 C    1     2.1487     4.0605   32 H    0 0 0
  72 C    1     2.4251     4.5827   64 C    0 0 0

  73 O    1     1.3791     2.6061    1 B    1 0 0
  73 O    1     1.3791     2.6061    5 B    1 1 0
  73 O    1     2.3880     4.5126   75 O    1 0 0
  73 O    1     2.3882     4.5130   77 O    1 1 0
  73 O    1     2.5383     4.7966   61 C    0 0 0
  73 O    1     2.5384     4.7968   49 C    0 0 0

  74 O    1     1.3791     2.6061    2 B    0 0 0
  74 O    1     1.3791     2.6061    6 B    0 0 0
  74 O    1     2.3880     4.5126   76 O    0 0 0
  74 O    1     2.3882     4.5130   78 O    0 0 0
  74 O    1     2.5383     4.7966   62 C    0 0 0
  74 O    1     2.5384     4.7968   50 C    0 0 0

  75 O    1     1.3793     2.6065    1 B    0 0 0
  75 O    1     1.3793     2.6065    3 B    0 0 0
  75 O    1     2.3880     4.5126   73 O   -1 0 0
  75 O    1     2.3882     4.5131   77 O    0 1 0
  75 O    1     2.5391     4.7981   37 C    0 0 0
  75 O    1     2.5395     4.7990   49 C   -1 0 0

  76 O    1     1.3793     2.6065    2 B    0 0 0
  76 O    1     1.3793     2.6065    4 B    0 0 0
  76 O    1     2.3880     4.5126   74 O    0 0 0
  76 O    1     2.3882     4.5131   78 O    0 0 0
  76 O    1     2.5391     4.7981   38 C    0 0 0
  76 O    1     2.5395     4.7990   50 C    0 0 0

  77 O    1     1.3793     2.6064    5 B    0 0 0
  77 O    1     1.3793     2.6065    3 B    0-1 0
  77 O    1     2.3882     4.5130   73 O   -1-1 0
  77 O    1     2.3882     4.5131   75 O    0-1 0
  77 O    1     2.5390     4.7980   37 C    0-1 0
  77 O    1     2.5391     4.7982   61 C   -1-1 0

  78 O    1     1.3793     2.6064    6 B    0 0 0
  78 O    1     1.3793     2.6065    4 B    0 0 0
  78 O    1     2.3882     4.5130   74 O    0 0 0
  78 O    1     2.3882     4.5131   76 O    0 0 0
  78 O    1     2.5390     4.7980   38 C    0 0 0
  78 O    1     2.5391     4.7982   62 C    0 0 0

  79 O    1     1.3795     2.6068   11 B    0 0 0
  79 O    1     1.3795     2.6068    7 B    0 0 0
  79 O    1     2.3880     4.5126   83 O    1 0 0
  79 O    1     2.3884     4.5134   81 O    0-1 0
  79 O    1     2.5400     4.7998   47 C    0 0 0
  79 O    1     2.5403     4.8005   59 C    0 0 0

  80 O    1     1.3795     2.6068   12 B    1 1 0
  80 O    1     1.3795     2.6068    8 B    0 0 0
  80 O    1     2.3880     4.5126   84 O    1 1 0
  80 O    1     2.3884     4.5134   82 O    0 0 0
  80 O    1     2.5400     4.7998   48 C    0 0 0
  80 O    1     2.5403     4.8005   60 C    1 1 0

  81 O    1     1.3795     2.6069    9 B    0 0 0
  81 O    1     1.3795     2.6070    7 B    0 1 0
  81 O    1     2.3881     4.5128   83 O    1 1 0
  81 O    1     2.3884     4.5134   79 O    0 1 0
  81 O    1     2.5404     4.8006   47 C    0 1 0
  81 O    1     2.5405     4.8008   71 C    0 0 0

  82 O    1     1.3795     2.6069   10 B    1 0 0
  82 O    1     1.3795     2.6070    8 B    0 0 0
  82 O    1     2.3881     4.5128   84 O    1 1 0
  82 O    1     2.3884     4.5134   80 O    0 0 0
  82 O    1     2.5404     4.8006   48 C    0 0 0
  82 O    1     2.5405     4.8008   72 C    1 0 0

  83 O    1     1.3796     2.6071   11 B   -1 0 0
  83 O    1     1.3797     2.6072    9 B   -1-1 0
  83 O    1     2.3880     4.5126   79 O   -1 0 0
  83 O    1     2.3881     4.5128   81 O   -1-1 0
  83 O    1     2.5409     4.8016   71 C   -1-1 0
  83 O    1     2.5410     4.8019   59 C   -1 0 0

  84 O    1     1.3796     2.6071   12 B    0 0 0
  84 O    1     1.3797     2.6072   10 B    0-1 0
  84 O    1     2.3880     4.5126   80 O   -1-1 0
  84 O    1     2.3881     4.5128   82 O   -1-1 0
  84 O    1     2.5409     4.8016   72 C    0-1 0
  84 O    1     2.5410     4.8019   60 C    0 0 0


 SYMMETRY ALLOWED ELASTIC DISTORTION 1
  0.5773503  0.0000000  0.0000000
  0.0000000  0.5773503  0.0000000
  0.0000000  0.0000000  0.5773503

 SYMMETRY ALLOWED ELASTIC DISTORTION 2
  0.8164966  0.0000000  0.0000000
  0.0000000 -0.4082483  0.0000000
  0.0000000  0.0000000 -0.4082483

 SYMMETRY ALLOWED ELASTIC DISTORTION 3
  0.0000000  0.7071068  0.0000000
  0.7071068  0.0000000  0.0000000
  0.0000000  0.0000000  0.0000000

 SYMMETRY ALLOWED ELASTIC DISTORTION 4
  0.0000000  0.0000000  0.0000000
  0.0000000  0.7071068  0.0000000
  0.0000000  0.0000000 -0.7071068

 SYMMETRY ALLOWED ELASTIC DISTORTION 5
  0.0000000  0.0000000  0.7071068
  0.0000000  0.0000000  0.0000000
  0.7071068  0.0000000  0.0000000

 SYMMETRY ALLOWED ELASTIC DISTORTION 6
  0.0000000  0.0000000  0.0000000
  0.0000000  0.0000000  0.7071068
  0.0000000  0.7071068  0.0000000

 SYMMETRY ALLOWED INTERNAL DEGREE(S) OF FREEDOM: 249
 TTTTTTTTTTTTTTTTTTTTTTTTTTTTTT SYMM        TELAPSE        3.00 TCPU        3.00
 TTTTTTTTTTTTTTTTTTTTTTTTTTTTTT INT_SCREEN  TELAPSE        3.22 TCPU        3.21

 *******************************************************************************
 *                             OPTIMIZATION STARTS                             *
 *******************************************************************************
 RECLASIFICATION OF INDICES FOR INTEGRAL CALC ACCORDING TO DIFFERENT CRITERIA:
           FIXDELTE                  FIXDELTX              FIXDELTN
           1.0000000               0.80000000                255
 DEFAULT MAX NUM OF POINTS  510
 *******************************************************************************

 *******************************************************************************
 COORDINATE AND CELL OPTIMIZATION - POINT    1

 DFT PARAMETERS

     ATOM       ELECTRONS   NET CHARGE   R(ANGSTROM)
   1   5  B       5.0000      0.0000     0.89000000
  13   1  H       1.0000      0.0000     1.11000000
  37   6  C       6.0000      0.0000     0.77000000
  73   8  O       8.0000      0.0000     0.74000000

 SIZE OF GRID=    2491804
 TTTTTTTTTTTTTTTTTTTTTTTTTTTTTT MAKE_GRID2  TELAPSE       40.38 TCPU       40.34
 BECKE WEIGHT FUNCTION
 RADSAFE =     2.00
 TOLERANCES - DENSITY:10**- 6; POTENTIAL:10**- 9; GRID WGT:10**-14

 RADIAL INTEGRATION  - INTERVALS (POINTS,UPPER LIMIT):            1( 75,  4.0*R)

 ANGULAR INTEGRATION - INTERVALS (ACCURACY LEVEL [N. POINTS] UPPER LIMIT):
  1(  4[  86]   0.2)  2(  8[ 194]   0.5)  3( 12[ 350]   0.9)  4( 16[ 974]   3.5)
  5( 12[ 350]9999.0)
 TTTTTTTTTTTTTTTTTTTTTTTTTTTTTT INT_CALC    TELAPSE       40.68 TCPU       40.63

 *******************************************************************************
 cof-1_z30_L087_serr                                                             
 CRYSTAL - SCF - TYPE OF CALCULATION :  RESTRICTED CLOSED SHELL
 *******************************************************************************

 CAPPA:IS1  2;IS2  2;IS3  8; K PTS MONK NET  20; SYMMOPS:K SPACE   2;G SPACE   1

 TTTTTTTTTTTTTTTTTTTTTTTTTTTTTT SDIK        TELAPSE       42.73 TCPU      101.60

 AAAAAAAAAAAAAAAAAAAAAAAAAAAAAAAAAAAAAAAAAAAAAAAAAAAAAAAAAAAAAAAAAAAAAAAAAAAAAAA
         ATOMIC WAVEFUNCTION(S)


 NUCLEAR CHARGE  5.0  SYMMETRY SPECIES            S    P
 N. ELECTRONS    5.0  NUMBER OF PRIMITIVE GTOS    8    4
                      NUMBER OF CONTRACTED GTOS   4    2
                      NUMBER OF CLOSED SHELLS     2    0
                      OPEN SHELL OCCUPATION       0    1

  ZNUC  SCFIT    TOTAL HF ENERGY   KINETIC ENERGY   VIRIAL THEOREM ACCURACY
   5.0    11    -2.451164084E+01  2.462155050E+01 -1.995536038E+00  1.5E-06

 NUCLEAR CHARGE  1.0  SYMMETRY SPECIES            S
 N. ELECTRONS    1.0  NUMBER OF PRIMITIVE GTOS    4
                      NUMBER OF CONTRACTED GTOS   2
                      NUMBER OF CLOSED SHELLS     0
                      OPEN SHELL OCCUPATION       1

  ZNUC  SCFIT    TOTAL HF ENERGY   KINETIC ENERGY   VIRIAL THEOREM ACCURACY
   1.0     1    -4.977266687E-01  5.190767460E-01 -1.958869132E+00  0.0E+00

 NUCLEAR CHARGE  6.0  SYMMETRY SPECIES            S    P
 N. ELECTRONS    6.0  NUMBER OF PRIMITIVE GTOS    8    4
                      NUMBER OF CONTRACTED GTOS   4    2
                      NUMBER OF CLOSED SHELLS     2    0
                      OPEN SHELL OCCUPATION       0    2

  ZNUC  SCFIT    TOTAL HF ENERGY   KINETIC ENERGY   VIRIAL THEOREM ACCURACY
   6.0     9    -3.766704647E+01  3.775180683E+01 -1.997754800E+00  1.1E-06

 NUCLEAR CHARGE  8.0  SYMMETRY SPECIES            S    P
 N. ELECTRONS    8.0  NUMBER OF PRIMITIVE GTOS    8    4
                      NUMBER OF CONTRACTED GTOS   4    2
                      NUMBER OF CLOSED SHELLS     2    0
                      OPEN SHELL OCCUPATION       0    4

  ZNUC  SCFIT    TOTAL HF ENERGY   KINETIC ENERGY   VIRIAL THEOREM ACCURACY
   8.0    12    -7.477373220E+01  7.477365593E+01 -2.000001020E+00  3.8E-06

 AAAAAAAAAAAAAAAAAAAAAAAAAAAAAAAAAAAAAAAAAAAAAAAAAAAAAAAAAAAAAAAAAAAAAAAAAAAAAAA

 CHARGE NORMALIZATION FACTOR   1.00000000
 TOTAL ATOMIC CHARGES:
   5.0000000   5.0000000   5.0000000   5.0000000   5.0000000   5.0000000
   5.0000000   5.0000000   5.0000000   5.0000000   5.0000000   5.0000000
   1.0000000   1.0000000   1.0000000   1.0000000   1.0000000   1.0000000
   1.0000000   1.0000000   1.0000000   1.0000000   1.0000000   1.0000000
   1.0000000   1.0000000   1.0000000   1.0000000   1.0000000   1.0000000
   1.0000000   1.0000000   1.0000000   1.0000000   1.0000000   1.0000000
   6.0000000   6.0000000   6.0000000   6.0000000   6.0000000   6.0000000
   6.0000000   6.0000000   6.0000000   6.0000000   6.0000000   6.0000000
   6.0000000   6.0000000   6.0000000   6.0000000   6.0000000   6.0000000
   6.0000000   6.0000000   6.0000000   6.0000000   6.0000000   6.0000000
   6.0000000   6.0000000   6.0000000   6.0000000   6.0000000   6.0000000
   6.0000000   6.0000000   6.0000000   6.0000000   6.0000000   6.0000000
   8.0000000   8.0000000   8.0000000   8.0000000   8.0000000   8.0000000
   8.0000000   8.0000000   8.0000000   8.0000000   8.0000000   8.0000000
 TTTTTTTTTTTTTTTTTTTTTTTTTTTTTT MOQGAD      TELAPSE       42.84 TCPU      108.47
 TTTTTTTTTTTTTTTTTTTTTTTTTTTTTT SHELLXN     TELAPSE       55.45 TCPU      914.52
 TTTTTTTTTTTTTTTTTTTTTTTTTTTTTT MONMO3      TELAPSE       55.77 TCPU      935.24
 NUMERICALLY INTEGRATED DENSITY    396.0001118019
 TTTTTTTTTTTTTTTTTTTTTTTTTTTTTT NUMDFT      TELAPSE       56.68 TCPU      993.13
 CYC   0 ETOT(AU) -2.592031699363E+03 DETOT -2.59E+03 tst  0.00E+00 PX  1.00E+00
 TTTTTTTTTTTTTTTTTTTTTTTTTTTTTT DIIS        TELAPSE       56.90 TCPU     1004.29
 TTTTTTTTTTTTTTTTTTTTTTTTTTTTTT FDIK        TELAPSE       59.22 TCPU     1150.30
 INSULATING STATE
 TOP OF VALENCE BANDS -    BAND    198; K    2; EIG -3.0214335E-01 AU
 TOP OF VALENCE BANDS -    BAND    198; K    1; EIG -3.0219536E-01 AU
 BOTTOM OF VIRTUAL BANDS - BAND    199; K   17; EIG -1.5714675E-01 AU
 INDIRECT ENERGY BAND GAP:   3.9456 eV
 BOTTOM OF VIRTUAL BANDS - BAND    199; K    1; EIG -1.5477871E-01 AU
 TTTTTTTTTTTTTTTTTTTTTTTTTTTTTT PDIG        TELAPSE       61.01 TCPU     1162.09
 CHARGE NORMALIZATION FACTOR   1.00000000
 TOTAL ATOMIC CHARGES:
   4.1192828   4.1660907   4.1190290   4.1659206   4.1193696   4.1661676
   4.1657563   4.1189439   4.1655297   4.1189312   4.1656986   4.1187983
   0.7862851   0.7854116   0.7855269   0.7864117   0.7862271   0.7853600
   0.7854775   0.7863492   0.7862452   0.7853810   0.7855515   0.7864215
   0.7862316   0.7853717   0.7855113   0.7863760   0.7862314   0.7853619
   0.7855443   0.7864201   0.7862448   0.7853623   0.7855191   0.7863936
   6.0453044   6.0417868   6.2726944   6.2670801   6.2670497   6.2726802
   6.2726545   6.2670350   6.2670083   6.2725930   6.0410653   6.0445051
   6.0453425   6.0418335   6.2726962   6.2670811   6.2671732   6.2728166
   6.2726193   6.2669841   6.2671977   6.2728261   6.0406384   6.0440904
   6.0457396   6.0421554   6.2724065   6.2667954   6.2673870   6.2730103
   6.2723112   6.2666964   6.2673465   6.2729827   6.0405935   6.0440406
   8.7144822   8.6908754   8.7145493   8.6909828   8.7145236   8.6909265
   8.6913031   8.7148390   8.6913310   8.7148008   8.6914791   8.7149517
 TTTTTTTTTTTTTTTTTTTTTTTTTTTTTT MOQGAD      TELAPSE       61.12 TCPU     1162.20
 TTTTTTTTTTTTTTTTTTTTTTTTTTTTTT SHELLXN     TELAPSE       74.02 TCPU     1984.06
[...]
  68 C    1     2.1433     4.0503   32 H    0 0 0
  68 C    1     2.4050     4.5448   64 C    0 0 0
  68 C    1     2.4219     4.5767   72 C    0 0 0

  69 C    1     1.0908     2.0614   35 H    0 0 0
  69 C    1     1.3862     2.6195   63 C    0 0 0
  69 C    1     1.4008     2.6471   71 C   -1-1 0
  69 C    1     2.1433     4.0502   29 H    0 0 0
  69 C    1     2.4050     4.5448   65 C   -1-1 0
  69 C    1     2.4219     4.5767   61 C   -1-1 0

  70 C    1     1.0896     2.0591   36 H    0 0 0
  70 C    1     1.3862     2.6195   64 C    0 0 0
  70 C    1     1.4006     2.6468   72 C    0 0 0
  70 C    1     2.1431     4.0499   30 H    0 0 0
  70 C    1     2.4074     4.5493   66 C    0 0 0
  70 C    1     2.4244     4.5815   62 C    0 0 0

  71 C    1     1.4008     2.6470   65 C    0 0 0
  71 C    1     1.4008     2.6471   69 C    1 1 0
  71 C    1     1.5493     2.9278    9 B    0 0 0
  71 C    1     2.1607     4.0831   35 H    1 1 0
  71 C    1     2.1609     4.0834   31 H    0 0 0
  71 C    1     2.4244     4.5815   67 C    0 0 0

  72 C    1     1.4006     2.6468   66 C    0 0 0
  72 C    1     1.4006     2.6468   70 C    0 0 0
  72 C    1     1.5458     2.9211   10 B    0 0 0
  72 C    1     2.1605     4.0828   36 H    0 0 0
  72 C    1     2.1606     4.0830   32 H    0 0 0
  72 C    1     2.4219     4.5767   68 C    0 0 0

  73 O    1     1.3804     2.6086    5 B    1 1 0
  73 O    1     1.3804     2.6087    1 B    1 0 0
  73 O    1     2.3717     4.4819   75 O    1 0 0
  73 O    1     2.3717     4.4819   77 O    1 1 0
  73 O    1     2.5453     4.8099   49 C    0 0 0
  73 O    1     2.5455     4.8102   61 C    0 0 0

  74 O    1     1.3775     2.6032    6 B    0 0 0
  74 O    1     1.3775     2.6032    2 B    0 0 0
  74 O    1     2.3729     4.4841   76 O    0 0 0
  74 O    1     2.3729     4.4841   78 O    0 0 0
  74 O    1     2.5429     4.8054   62 C    0 0 0
  74 O    1     2.5429     4.8054   50 C    0 0 0

  75 O    1     1.3804     2.6085    1 B    0 0 0
  75 O    1     1.3805     2.6088    3 B    0 0 0
  75 O    1     2.3717     4.4819   73 O   -1 0 0
  75 O    1     2.3718     4.4821   77 O    0 1 0
  75 O    1     2.5453     4.8100   37 C    0 0 0
  75 O    1     2.5456     4.8105   49 C   -1 0 0

  76 O    1     1.3775     2.6032    2 B    0 0 0
  76 O    1     1.3776     2.6032    4 B    0 0 0
  76 O    1     2.3729     4.4841   74 O    0 0 0
  76 O    1     2.3730     4.4843   78 O    0 0 0
  76 O    1     2.5430     4.8056   38 C    0 0 0
  76 O    1     2.5432     4.8059   50 C    0 0 0

  77 O    1     1.3804     2.6085    3 B    0-1 0
  77 O    1     1.3804     2.6086    5 B    0 0 0
  77 O    1     2.3717     4.4819   73 O   -1-1 0
  77 O    1     2.3718     4.4821   75 O    0-1 0
  77 O    1     2.5455     4.8103   61 C   -1-1 0
  77 O    1     2.5455     4.8103   37 C    0-1 0

  78 O    1     1.3776     2.6032    6 B    0 0 0
  78 O    1     1.3776     2.6032    4 B    0 0 0
  78 O    1     2.3729     4.4841   74 O    0 0 0
  78 O    1     2.3730     4.4843   76 O    0 0 0
  78 O    1     2.5431     4.8057   38 C    0 0 0
  78 O    1     2.5432     4.8059   62 C    0 0 0

  79 O    1     1.3776     2.6032   11 B    0 0 0
  79 O    1     1.3776     2.6032    7 B    0 0 0
  79 O    1     2.3729     4.4841   83 O    1 0 0
  79 O    1     2.3730     4.4843   81 O    0-1 0
  79 O    1     2.5430     4.8056   47 C    0 0 0
  79 O    1     2.5431     4.8058   59 C    0 0 0

  80 O    1     1.3804     2.6086   12 B    1 1 0
  80 O    1     1.3804     2.6086    8 B    0 0 0
  80 O    1     2.3717     4.4819   84 O    1 1 0
  80 O    1     2.3718     4.4821   82 O    0 0 0
  80 O    1     2.5455     4.8102   48 C    0 0 0
  80 O    1     2.5455     4.8103   60 C    1 1 0

  81 O    1     1.3776     2.6032    7 B    0 1 0
  81 O    1     1.3776     2.6032    9 B    0 0 0
  81 O    1     2.3729     4.4842   83 O    1 1 0
  81 O    1     2.3730     4.4843   79 O    0 1 0
  81 O    1     2.5430     4.8057   47 C    0 1 0
  81 O    1     2.5432     4.8060   71 C    0 0 0

  82 O    1     1.3804     2.6086   10 B    1 0 0
  82 O    1     1.3804     2.6086    8 B    0 0 0
  82 O    1     2.3717     4.4819   84 O    1 1 0
  82 O    1     2.3718     4.4821   80 O    0 0 0
  82 O    1     2.5453     4.8100   48 C    0 0 0
  82 O    1     2.5457     4.8106   72 C    1 0 0

  83 O    1     1.3775     2.6032   11 B   -1 0 0
  83 O    1     1.3776     2.6032    9 B   -1-1 0
  83 O    1     2.3729     4.4841   79 O   -1 0 0
  83 O    1     2.3729     4.4842   81 O   -1-1 0
  83 O    1     2.5429     4.8054   71 C   -1-1 0
  83 O    1     2.5429     4.8055   59 C   -1 0 0

  84 O    1     1.3804     2.6086   12 B    0 0 0
  84 O    1     1.3804     2.6086   10 B    0-1 0
  84 O    1     2.3717     4.4819   82 O   -1-1 0
  84 O    1     2.3717     4.4819   80 O   -1-1 0
  84 O    1     2.5453     4.8099   72 C    0-1 0
  84 O    1     2.5454     4.8102   60 C    0 0 0


 FINAL OPTIMIZED GEOMETRY - DIMENSIONALITY OF THE SYSTEM      3
 (NON PERIODIC DIRECTION: LATTICE PARAMETER FORMALLY SET TO 500)
 *******************************************************************************
 LATTICE PARAMETERS (ANGSTROMS AND DEGREES) - BOHR = 0.5291772083 ANGSTROM
 PRIMITIVE CELL - CENTRING CODE 1/0 VOLUME=  1177.246978 - DENSITY  1.101 g/cm^3
         A              B              C           ALPHA      BETA       GAMMA 
    15.05612737    15.05354951     5.99752108    90.179289  89.881125 119.996532
 *******************************************************************************
 ATOMS IN THE ASYMMETRIC UNIT   84 - ATOMS IN THE UNIT CELL:   84
     ATOM                 X/A                 Y/B                 Z/C    
 *******************************************************************************
      1 T   5 B    -3.866681765097E-01  2.267491359512E-01  2.492264008770E-01
      2 T   5 B    -5.308012722784E-02 -1.063102572888E-01 -2.503535586728E-01
      3 T   5 B    -2.266475546354E-01  3.868348867903E-01  2.494418390868E-01
      4 T   5 B     1.062352786137E-01  5.304005335273E-02 -2.504565167284E-01
      5 T   5 B    -3.867047359513E-01  3.868107648863E-01  2.495781929444E-01
      6 T   5 B    -5.309062333684E-02  5.304166433290E-02 -2.504723242557E-01
      7 T   5 B     2.270421091620E-01 -3.863472761930E-01  2.493115744034E-01
      8 T   5 B    -4.400749058032E-01  2.798777158911E-01 -2.504989662533E-01
      9 T   5 B     3.863518098229E-01 -3.863825369494E-01  2.495841384278E-01
     10 T   5 B    -2.800522754500E-01  2.798287924897E-01 -2.507738648178E-01
     11 T   5 B     3.863753536596E-01 -2.270140435363E-01  2.491435490495E-01
     12 T   5 B    -2.800190151061E-01  4.399249263498E-01 -2.504558519733E-01
     13 T   1 H    -9.421186530503E-02  3.100302675950E-01  2.498965929025E-01
     14 T   1 H     2.391121937312E-01 -2.354984859401E-02 -2.509652605584E-01
     15 T   1 H     9.417856033617E-02 -3.097369177316E-01  2.487702542006E-01
     16 T   1 H     4.274818825090E-01  3.566869880820E-01 -2.502383209842E-01
     17 T   1 H    -9.417105166662E-02 -4.039011251294E-01  2.488766652727E-01
     18 T   1 H     2.391325299286E-01  2.625216785794E-01 -2.501439306311E-01
     19 T   1 H     9.413640982917E-02  4.041856301240E-01  2.499775718512E-01
     20 T   1 H     4.274602799632E-01  7.062498294489E-02 -2.510328425212E-01
     21 T   1 H    -3.099475868089E-01  9.420289961710E-02  2.493020312950E-01
     22 T   1 H     2.344123228476E-02 -2.392684413390E-01 -2.503070942572E-01
     23 T   1 H     3.098727795579E-01 -9.404830226003E-02  2.485197375147E-01
     24 T   1 H    -3.567374939028E-01 -4.275398956000E-01 -2.504641119023E-01
     25 T   1 H     4.041381705780E-01  9.435793747205E-02  2.485671831780E-01
     26 T   1 H    -2.624866076780E-01 -2.391288450629E-01 -2.504493537411E-01
     27 T   1 H    -4.042113678097E-01 -9.421015078680E-02  2.492623001736E-01
     28 T   1 H    -7.081463020001E-02 -4.276762492251E-01 -2.503229172837E-01
     29 T   1 H    -3.099874069824E-01 -4.039282819482E-01  2.497097862034E-01
     30 T   1 H     2.340856742739E-02  2.625183704500E-01 -2.500259338203E-01
     31 T   1 H     3.098327030219E-01  4.041351277778E-01  2.500840552756E-01
     32 T   1 H    -3.567711544200E-01  7.055661558530E-02 -2.513077367384E-01
     33 T   1 H     4.040922331936E-01  3.099906151279E-01  2.499663049032E-01
     34 T   1 H    -2.625015675319E-01 -2.358336474618E-02 -2.512198658126E-01
     35 T   1 H    -4.042439498684E-01 -3.097778629031E-01  2.495884529443E-01
     36 T   1 H    -7.086158958326E-02  3.566502518504E-01 -2.502063216484E-01
     37 T   6 C    -1.081043486199E-01  4.461094132436E-01  2.493476326230E-01
     38 T   6 C     2.250536367492E-01  1.124524352936E-01 -2.505188690551E-01
     39 T   6 C    -5.319366204245E-02  3.936021444271E-01  2.496413233435E-01
     40 T   6 C     2.801478673781E-01  6.011750625031E-02 -2.507788692479E-01
     41 T   6 C     5.313645459651E-02 -3.934039218663E-01  2.490084377187E-01
     42 T   6 C     3.864664590749E-01  2.731141494717E-01 -2.504062182810E-01
     43 T   6 C    -5.317066407102E-02 -4.464694168630E-01  2.490486372911E-01
     44 T   6 C     2.801596808995E-01  2.198844495405E-01 -2.503378791934E-01
     45 T   6 C     5.311257129422E-02  4.468256722810E-01  2.496652269291E-01
     46 T   6 C     3.864545214941E-01  1.131888282987E-01 -2.508355914617E-01
     47 T   6 C     1.082241721411E-01 -4.457441340917E-01  2.493409896011E-01
     48 T   6 C     4.413824283179E-01  2.206114186442E-01 -2.506044366982E-01
     49 T   6 C    -4.459537748525E-01  1.081833107844E-01  2.489902043440E-01
     50 T   6 C    -1.125010455689E-01 -2.251486806479E-01 -2.503101315325E-01
     51 T   6 C    -3.935046598996E-01  5.321466027288E-02  2.491291805846E-01
     52 T   6 C    -6.021164989934E-02 -2.802870042902E-01 -2.503249713545E-01
     53 T   6 C     3.935261333560E-01 -5.303339394100E-02  2.486909025130E-01
     54 T   6 C    -2.731800929246E-01 -3.865462920672E-01 -2.504009318806E-01
     55 T   6 C     4.466399192204E-01  5.329086719601E-02  2.487104773603E-01
     56 T   6 C    -2.199164574728E-01 -2.802231782983E-01 -2.504097864577E-01
     57 T   6 C    -4.467748943915E-01 -5.310901500571E-02  2.491165502940E-01
     58 T   6 C    -1.133189230287E-01 -3.866115716629E-01 -2.503321870647E-01
     59 T   6 C     4.458102584539E-01 -1.081767054657E-01  2.489449537204E-01
     60 T   6 C    -2.207236617333E-01 -4.415085529564E-01 -2.503655636686E-01
     61 T   6 C    -4.460002769365E-01  4.460781579205E-01  2.498137237961E-01
     62 T   6 C    -1.125263325949E-01  1.124408445424E-01 -2.506264539812E-01
     63 T   6 C    -3.935446780734E-01 -4.464987302019E-01  2.497786220423E-01
     64 T   6 C    -6.024410542509E-02  2.198728047948E-01 -2.503397404761E-01
     65 T   6 C     3.934857089934E-01  4.467738400058E-01  2.499772745677E-01
     66 T   6 C    -2.732141185531E-01  1.131305184328E-01 -2.510743873770E-01
     67 T   6 C     4.465943804966E-01  3.935620173788E-01  2.499603932604E-01
     68 T   6 C    -2.199407229973E-01  6.008371349654E-02 -2.509772208718E-01
     69 T   6 C    -4.468107487194E-01 -3.934451754251E-01  2.497211753768E-01
     70 T   6 C    -1.133593864849E-01  2.730775373202E-01 -2.504701957879E-01
     71 T   6 C     4.457737200927E-01 -4.457959858777E-01  2.498206498791E-01
     72 T   6 C    -2.207666631044E-01  2.205526858320E-01 -2.508204032895E-01
     73 T   8 O    -4.383499829076E-01  2.809395932694E-01  2.493457787183E-01
     74 T   8 O    -1.050398385201E-01 -5.261579228088E-02 -2.504445131061E-01
     75 T   8 O    -2.808186936481E-01  2.809555633061E-01  2.495404857871E-01
     76 T   8 O     5.255946785649E-02 -5.261936452966E-02 -2.503789823304E-01
     77 T   8 O    -2.808482712628E-01  4.384988312494E-01  2.494040152297E-01
     78 T   8 O     5.254980781229E-02  1.050107403803E-01 -2.504467475897E-01
     79 T   8 O     2.807347227380E-01 -2.806888373834E-01  2.490234599144E-01
     80 T   8 O    -3.858744151357E-01  3.857511340144E-01 -2.503774469097E-01
     81 T   8 O     2.807098501102E-01 -4.383354921695E-01  2.495926682641E-01
     82 T   8 O    -3.859053063676E-01  2.281773075398E-01 -2.505577148583E-01
     83 T   8 O     4.383193813304E-01 -2.807234978405E-01  2.494284997711E-01
     84 T   8 O    -2.283728750120E-01  3.857031517216E-01 -2.507586583595E-01

 T = ATOM BELONGING TO THE ASYMMETRIC UNIT
 INFORMATION **** fort.34 **** GEOMETRY OUTPUT FILE

 DIRECT LATTICE VECTORS CARTESIAN COMPONENTS (ANGSTROM)
          X                    Y                    Z
   0.130399173281E+02  -0.752643913631E+01   0.155327737227E-01
  -0.946914548951E-03   0.150535312295E+02  -0.234387011709E-01
   0.178101366746E-02  -0.942897778339E-02   0.599751340514E+01


 CARTESIAN COORDINATES - PRIMITIVE CELL
 *******************************************************************************
 *      ATOM          X(ANGSTROM)         Y(ANGSTROM)         Z(ANGSTROM)
 *******************************************************************************
    1     5 B    -5.041891891510E+00  6.321259745565E+00  1.483417945644E+00
    2     5 B    -6.925056871945E-01 -1.198479853047E+00 -1.499831531417E+00
    3     5 B    -2.955387415311E+00  7.526728092771E+00  1.483443401230E+00
    4     5 B     1.384802959569E+00  1.228289878716E-03 -1.501709377899E+00
    5     5 B    -5.041572647195E+00 -6.322506908778E+00  1.505214319896E+00
    6     5 B    -6.927936597643E-01  1.200409393736E+00 -1.504278994699E+00
    7     5 B     2.961420198641E+00 -7.527060156902E+00  1.507831581602E+00
    8     5 B     7.300665775872E+00  1.267743440462E-03 -1.500233688434E+00
    9     5 B     5.037859129098E+00  6.326902937891E+00  1.488502934820E+00
   10     5 B    -3.652570125041E+00  6.322572414029E+00 -1.514928427974E+00
   11     5 B     5.038961360290E+00 -6.327742745996E+00  1.505564170496E+00
   12     5 B    -3.651340529330E+00 -6.321199995210E+00 -1.493334369320E+00
   13     1 H    -1.228363437824E+00  5.373773916057E+00  1.490028087449E+00
   14     1 H     3.117578565522E+00 -2.151805408262E+00 -1.500901460959E+00
   15     1 H     1.228816998476E+00 -5.373809215530E+00  1.500725619691E+00
   16     1 H     5.573544977195E+00  2.154341835253E+00 -1.502527984955E+00
   17     1 H    -1.227157015836E+00 -5.373712164558E+00  1.500645316337E+00
   18     1 H     3.117574325364E+00  2.154420456470E+00 -1.502680352872E+00
   19     1 H     1.227593485952E+00  5.373552013542E+00  1.491232451512E+00
   20     1 H     5.573532743004E+00 -2.151731410892E+00 -1.500588552217E+00
   21     1 H    -4.041336099793E+00  3.748537275549E+00  1.488169935274E+00
   22     1 H     3.054524974735E-01 -3.775903821980E+00 -1.495247904356E+00
   23     1 H     4.041247100408E+00 -3.750340957583E+00  1.497518011006E+00
   24     1 H    -4.651868664573E+00 -3.748660514242E+00 -1.497682011560E+00
   25     1 H     5.270281686100E+00 -1.623644919473E+00  1.494850772444E+00
   26     1 H    -3.423023282986E+00 -1.621782578861E+00 -1.500545631912E+00
   27     1 H    -5.270349670777E+00  1.621726522325E+00  1.490883626545E+00
   28     1 H    -9.234577791000E-01 -5.902695480456E+00 -1.492390823846E+00
   29     1 H    -4.041382937683E+00 -3.749800163151E+00  1.502290380194E+00
   30     1 H     3.045519019519E-01  3.778002818861E+00 -1.505323379375E+00
   31     1 H     4.040255554624E+00  3.749365748223E+00  1.495222632702E+00
   32     1 H    -4.652780752274E+00  3.749712170564E+00 -1.514416920944E+00
   33     1 H     5.269480972540E+00  1.622720880368E+00  1.498187160317E+00
   34     1 H    -3.423423833687E+00  1.623057900044E+00 -1.510219126859E+00
   35     1 H    -5.270569833044E+00 -1.623086612503E+00  1.497891853257E+00
   36     1 H    -9.248126080919E-01  5.904540335201E+00 -1.510075863848E+00
   37     6 C    -1.409650104760E+00  7.526811691025E+00  1.483330383583E+00
   38     6 C     2.934128157214E+00  1.315883982452E-03 -1.501630307210E+00
   39     6 C    -6.935690483988E-01  6.323107170455E+00  1.487175415069E+00
   40     6 C     3.652601463509E+00 -1.201170526821E+00 -1.501107232870E+00
   41     6 C     6.937109823731E-01 -6.324394410105E+00  1.503477676700E+00
   42     6 C     5.038786083748E+00  1.204977170517E+00 -1.502213195745E+00
   43     6 C    -6.924747363510E-01 -6.323103816883E+00  1.503311316035E+00
   44     6 C     3.652605010617E+00  1.203793071611E+00 -1.502206935251E+00
   45     6 C     6.926050902091E-01  6.324201588745E+00  1.487722517447E+00
   46     6 C     5.038781089575E+00 -1.202369750128E+00 -1.501040110763E+00
   47     6 C     1.412100418934E+00 -7.526916918282E+00  1.507554612717E+00
   48     6 C     5.754935145238E+00  1.305841246605E-03 -1.501318420216E+00
   49     6 C     7.225057986457E+00 -2.543802067972E+00  1.499392286655E+00
   50     6 C    -1.467236942743E+00 -2.540190254508E+00 -1.497708629947E+00
   51     6 C    -5.130874920559E+00  3.760408389367E+00  1.486796098806E+00
   52     6 C    -7.853353612268E-01 -3.763769545459E+00 -1.495693061937E+00
   53     6 C     5.132041385384E+00 -3.762535244146E+00  1.498882607814E+00
   54     6 C    -3.562325768585E+00 -3.760452311823E+00 -1.496966047153E+00
   55     6 C     5.824540116910E+00 -2.561737519841E+00  1.497332910056E+00
   56     6 C    -2.867873060375E+00 -2.560799425199E+00 -1.498683896292E+00
   57     6 C    -5.825413717441E+00  2.560796919893E+00  1.488385002823E+00
   58     6 C    -1.477749144924E+00 -4.964621013930E+00 -1.494069131750E+00
   59     6 C     5.813874722703E+00 -4.986152487070E+00  1.502510888420E+00
   60     6 C    -2.878246134969E+00 -4.982638892721E+00 -1.494650887943E+00
   61     6 C     7.224133112278E+00  2.543050795850E+00  1.496410816953E+00
   62     6 C    -1.467886915279E+00  2.541917509569E+00 -1.507518830851E+00
   63     6 C    -5.130922411694E+00 -3.761747669183E+00  1.502403143891E+00
   64     6 C    -7.862322135036E-01  3.765646174160E+00 -1.507505240369E+00
   65     6 C     5.131043271343E+00  3.761620683153E+00  1.494882181153E+00
   66     6 C    -3.563243810642E+00  3.761710601534E+00 -1.512717409476E+00
   67     6 C     5.823626314131E+00  2.560875824951E+00  1.496853076273E+00
   68     6 C    -2.868512732963E+00  2.562208981382E+00 -1.510063820251E+00
   69     6 C    -5.825557908805E+00 -2.562199945102E+00  1.499987730506E+00
   70     6 C    -1.478901700058E+00  4.966335436954E+00 -1.510359725319E+00
   71     6 C     5.812772607181E+00  4.985283107923E+00  1.492236976581E+00
   72     6 C    -2.879434594788E+00  4.984048577124E+00 -1.512897318130E+00
   73     8 O     7.324047852643E+00 -4.428044666392E-04  1.497593773831E+00
   74     8 O    -1.370107032897E+00  8.839149921453E-04 -1.502442638808E+00
   75     8 O    -3.661674155242E+00  6.340585240725E+00  1.485675281916E+00
   76     8 O     6.849750133080E-01 -1.185332065223E+00 -1.499601579009E+00
   77     8 O    -3.661262353411E+00 -6.341139583931E+00  1.504602430088E+00
   78     8 O     6.846996641997E-01  1.187630986448E+00 -1.503702797032E+00
   79     8 O     3.661466878151E+00 -6.340639020142E+00  1.504461109736E+00
   80     8 O     8.007335656664E+00  1.187098709569E+00 -1.501144525994E+00
   81     8 O     3.660345918271E+00  6.339935203609E+00  1.488130889764E+00
   82     8 O     8.007081725443E+00 -1.184709607506E+00 -1.498532839428E+00
   83     8 O    -7.323558775497E+00 -7.768069285454E-04  1.493806107224E+00
   84     8 O    -2.977828328104E+00 -7.526137847786E+00 -1.493077358900E+00

 ****    1 SYMMOPS - TRANSLATORS IN FRACTIONAL UNITS
 **** MATRICES AND TRANSLATORS IN THE CRYSTALLOGRAPHIC REFERENCE FRAME
   V INV                    ROTATION MATRICES                   TRANSLATORS
   1   1  1.00 -0.00  0.00  0.00  1.00  0.00  0.00  0.00  1.00  0.00  0.00  0.00
 TTTTTTTTTTTTTTTTTTTTTTTTTTTTTT END         TELAPSE     5175.33 TCPU   263429.73
 EEEEEEEEEE TERMINATION  DATE 20 02 2026 TIME 15:18:41.6
