 Default number of threads is:           32

         
 *******************************************************************************
 *                                                                             *
 *                               CRYSTAL23                                     *
 *                      public : 1.0.1 - October 2022                          *
 *                       HTTP://WWW.CRYSTAL.UNITO.IT                           *
 *                                                                             *
 *                              MAIN AUTHORS                                   *
 *                                                                             *
 *  R. DOVESI(1,11), V.R. SAUNDERS(2), C. ROETTI(1,11), R. ORLANDO(1,11),      *
 *  C.M. ZICOVICH-WILSON(1,3), F. PASCALE(4), B. CIVALLERI(1,11),              *
 *  K. DOLL(5), N.M. HARRISON(6), I.J. BUSH(7), Ph. D'ARCO(8),                 *
 *  M. LLUNELL(9), M. CAUSA'(10), Y. NOEL(8), L. MASCHIO(1,11), A. ERBA(1,11)  *
 *  M. RE'RAT(14), S. CASASSA(1,11), B.G. SEARLE(2), J.K. DESMARAIS(1)         *
 *                                                                             *
 *        CONTRIBUTIONS TO THE CODE HAVE ALSO BEEN GIVEN BY                    *
 *                                                                             *
 *  M. FERRABONE(1,11), M. DE LA PIERRE(1,11), M. FERRERO(1,11),               *
 *  J. BAIMA(1,11), E. ALBANESE(1,11), M.F. PEINTINGER(12), R. BAST(13),       *
 *  B. KIRTMAN(15), V. LACIVITA(1,11), R. DEMICHELIS(1,16)                     *
 *  G. BRANDEBURG(17), S. SALUSTRO(1,11), G. SANSONE(1,11)                     *
 *  M.T. RUGGIERO(18), L.E. DAGA(1), L. DONA'(1), A. COSSARD(1)                *
 *                                                                             *
 * (1) THEORETICAL CHEMISTRY GROUP - UNIVERSITA' DI TORINO - TORINO (ITALY)    *
 * (2) SCIENTIFIC COMPUTING DEPARTMENT - STFC DARESBURY (UK)                   *
 * (3) UNIVERSIDAD AUTONOMA DEL ESTADO DE MORELOS - CUERNAVACA (MEXICO)        *
 * (4) UNIVERSITE' DE LORRAINE - NANCY (FRANCE)                                *
 * (5) UNIVERSITAET STUTTGART- STUTTGART (GERMANY)                             *
 * (6) IMPERIAL COLLEGE - LONDON (UK)                                          *
 * (7) SCIENTIFIC COMPUTING DEPARTMENT - STFC RAL (UK)                         *
 * (8) UPMC - SORBONNE UNIVERSITES - PARIS (FRANCE)                            *
 * (9) UNIVERSIDAD DE BARCELONA - BARCELONA (SPAIN)                            *
 *(10) UNIVERSITA' DI NAPOLI "FEDERICO II" - NAPOLI (ITALY)                    *
 *(11) NIS - NANOSTRUCTURED INTERFACES AND SURFACES - TORINO (ITALY)           *
 *(12) MPI FUER CHEMISCHE ENERGIEKONVERSION - MUELHEIM AN DER RUHR (GERMANY)   *
 *(13) UNIVERSITY OF TROMSO - TROMSO (NORWAY)                                  *
 *(14) UNIVERSITE' DE PAU ET DES PAYS DE L'ADOUR - PAU (FRANCE)                *
 *(15) UNIVERSITY OF CALIFORNIA SANTA BARBARA - SANTA BARBARA (USA)            *
 *(16) CURTIN UNIVERSITY - PERTH (AUSTRALIA)                                   *
 *(17) UNIVERSITY COLLEGE LONDON - LONDON (UK)                                 *
 *(18) UNIVERSITY OF VERMONT - BURLINGTON (USA)                                *
 *                                                                             *
 *******************************************************************************
 EEEEEEEEEE STARTING  DATE 19 02 2026 TIME 19:23:44.0
 cof-1_z45_L070_incl                                                             

 CRYSTAL CALCULATION
 (INPUT ACCORDING TO THE INTERNATIONAL TABLES FOR X-RAY CRYSTALLOGRAPHY)
 CRYSTAL FAMILY                       :  TRICLINIC   
 CRYSTAL CLASS  (GROTH - 1921)        :  TRICLINIC PEDIAL                     

 SPACE GROUP (NONCENTROSYMMETRIC)     :  P 1             

 LATTICE PARAMETERS  (ANGSTROMS AND DEGREES) - CONVENTIONAL CELL
        A           B           C        ALPHA        BETA       GAMMA
    15.02361    15.02392     8.32166    43.23850    89.99997   119.99596


 NUMBER OF IRREDUCIBLE ATOMS IN THE CONVENTIONAL CELL:   42

 INPUT COORDINATES

 ATOM AT. N.              COORDINATES
   1   5     4.789148100000E-01 -4.224064000000E-02  5.010568800000E-01
   2   5     6.379704700000E-01  1.168190100000E-01  5.010568900000E-01
   3   5     4.795108100000E-01  1.180024700000E-01  4.988250900000E-01
   4   5     9.248952000000E-02  3.440743500000E-01  5.010568900000E-01
   5   5     2.515974900000E-01  3.440535900000E-01  5.010568800000E-01
   6   5     2.521780400000E-01  5.043934500000E-01  4.988250900000E-01
   7   1     7.695223700000E-01  4.186041000000E-02  4.964299100000E-01
   8   1    -3.669642000000E-02  4.243644400000E-01  4.957223700000E-01
   9   1     7.696697600000E-01  3.274420100000E-01  4.956134800000E-01
  10   1    -3.657278000000E-02  1.390399100000E-01  4.956406400000E-01
  11   1     5.555931800000E-01 -1.739018600000E-01  5.035608900000E-01
  12   1     1.733001900000E-01  6.321506700000E-01  5.042684800000E-01
  13   1     2.702111500000E-01 -1.742952900000E-01  5.043774500000E-01
  14   1     4.586607200000E-01  6.320167700000E-01  5.043501000000E-01
  15   1     5.575514800000E-01  3.269845400000E-01  4.964299500000E-01
  16   1     1.756308900000E-01  1.389203500000E-01  4.957223300000E-01
  17   1     2.725389300000E-01  4.219288000000E-02  4.956133900000E-01
  18   1     4.609818900000E-01  4.243128500000E-01  4.956407300000E-01
  19   6     7.577468100000E-01  1.776294200000E-01  4.987434200000E-01
  20   6     8.129385700000E-01  1.256574000000E-01  4.965388000000E-01
  21   6    -8.011119000000E-02  3.401595300000E-01  4.963483500000E-01
  22   6     8.127990700000E-01  2.863589400000E-01  4.969199100000E-01
  23   6    -7.983138000000E-02  1.797074300000E-01  4.954501200000E-01
  24   6    -2.562446000000E-02  2.866877500000E-01  4.969470900000E-01
  25   6     4.192224400000E-01 -1.614929100000E-01  5.012474200000E-01
  26   6     4.717679200000E-01 -2.172914500000E-01  5.034519900000E-01
  27   6     2.573375000000E-01  6.757132700000E-01  5.036425100000E-01
  28   6     3.109801300000E-01 -2.170395500000E-01  5.030709800000E-01
  29   6     4.180141100000E-01  6.751904900000E-01  5.045406500000E-01
  30   6     3.106277900000E-01  6.213643100000E-01  5.030437300000E-01
  31   6     4.199013700000E-01  1.775602800000E-01  4.987434200000E-01
  32   6     4.736596700000E-01  2.864975300000E-01  4.965388400000E-01
  33   6     2.593240700000E-01  1.791462900000E-01  4.963483000000E-01
  34   6     3.126342400000E-01  1.253567700000E-01  4.969198500000E-01
  35   6     4.204852200000E-01  3.405554300000E-01  4.954501800000E-01
  36   6     3.122996300000E-01  2.866103500000E-01  4.969470900000E-01
  37   8     4.264101700000E-01  1.169030000000E-02  4.994238500000E-01
  38   8     5.840887600000E-01  9.164890000000E-03  5.041324100000E-01
  39   8     5.859971000000E-01  1.719316400000E-01  4.970287600000E-01
  40   8     1.459980000000E-01  4.509707700000E-01  4.994238700000E-01
  41   8     1.447510400000E-01  2.894821800000E-01  5.041324000000E-01
  42   8     3.055815300000E-01  4.522436100000E-01  4.970287400000E-01

 *******************************************************************************

 << INFORMATION >>: FROM NOW ON, ALL COORDINATES REFER TO THE PRIMITIVE CELL

 *******************************************************************************

 LATTICE PARAMETERS  (ANGSTROMS AND DEGREES) - PRIMITIVE CELL
       A          B          C        ALPHA      BETA     GAMMA        VOLUME
   15.02361   15.02392    8.32166    43.23850  89.99997 119.99596    879.675035

 COORDINATES OF THE EQUIVALENT ATOMS (FRACTIONAL UNITS)

 N. ATOM EQUIV AT. N.          X                  Y                  Z

   1   1   1    5 B     4.78914810000E-01 -4.22406400000E-02 -4.98943120000E-01

   2   2   1    5 B    -3.62029530000E-01  1.16819010000E-01 -4.98943110000E-01

   3   3   1    5 B     4.79510810000E-01  1.18002470000E-01  4.98825090000E-01

   4   4   1    5 B     9.24895200000E-02  3.44074350000E-01 -4.98943110000E-01

   5   5   1    5 B     2.51597490000E-01  3.44053590000E-01 -4.98943120000E-01

   6   6   1    5 B     2.52178040000E-01 -4.95606550000E-01  4.98825090000E-01

   7   7   1    1 H    -2.30477630000E-01  4.18604100000E-02  4.96429910000E-01

   8   8   1    1 H    -3.66964200000E-02  4.24364440000E-01  4.95722370000E-01

   9   9   1    1 H    -2.30330240000E-01  3.27442010000E-01  4.95613480000E-01

  10  10   1    1 H    -3.65727800000E-02  1.39039910000E-01  4.95640640000E-01

  11  11   1    1 H    -4.44406820000E-01 -1.73901860000E-01 -4.96439110000E-01

  12  12   1    1 H     1.73300190000E-01 -3.67849330000E-01 -4.95731520000E-01

  13  13   1    1 H     2.70211150000E-01 -1.74295290000E-01 -4.95622550000E-01

  14  14   1    1 H     4.58660720000E-01 -3.67983230000E-01 -4.95649900000E-01

  15  15   1    1 H    -4.42448520000E-01  3.26984540000E-01  4.96429950000E-01

  16  16   1    1 H     1.75630890000E-01  1.38920350000E-01  4.95722330000E-01

  17  17   1    1 H     2.72538930000E-01  4.21928800000E-02  4.95613390000E-01

  18  18   1    1 H     4.60981890000E-01  4.24312850000E-01  4.95640730000E-01

  19  19   1    6 C    -2.42253190000E-01  1.77629420000E-01  4.98743420000E-01

  20  20   1    6 C    -1.87061430000E-01  1.25657400000E-01  4.96538800000E-01

  21  21   1    6 C    -8.01111900000E-02  3.40159530000E-01  4.96348350000E-01

  22  22   1    6 C    -1.87200930000E-01  2.86358940000E-01  4.96919910000E-01

  23  23   1    6 C    -7.98313800000E-02  1.79707430000E-01  4.95450120000E-01

  24  24   1    6 C    -2.56244600000E-02  2.86687750000E-01  4.96947090000E-01

  25  25   1    6 C     4.19222440000E-01 -1.61492910000E-01 -4.98752580000E-01

  26  26   1    6 C     4.71767920000E-01 -2.17291450000E-01 -4.96548010000E-01

  27  27   1    6 C     2.57337500000E-01 -3.24286730000E-01 -4.96357490000E-01

  28  28   1    6 C     3.10980130000E-01 -2.17039550000E-01 -4.96929020000E-01

  29  29   1    6 C     4.18014110000E-01 -3.24809510000E-01 -4.95459350000E-01

  30  30   1    6 C     3.10627790000E-01 -3.78635690000E-01 -4.96956270000E-01

  31  31   1    6 C     4.19901370000E-01  1.77560280000E-01  4.98743420000E-01

  32  32   1    6 C     4.73659670000E-01  2.86497530000E-01  4.96538840000E-01

  33  33   1    6 C     2.59324070000E-01  1.79146290000E-01  4.96348300000E-01

  34  34   1    6 C     3.12634240000E-01  1.25356770000E-01  4.96919850000E-01

  35  35   1    6 C     4.20485220000E-01  3.40555430000E-01  4.95450180000E-01

  36  36   1    6 C     3.12299630000E-01  2.86610350000E-01  4.96947090000E-01

  37  37   1    8 O     4.26410170000E-01  1.16903000000E-02  4.99423850000E-01

  38  38   1    8 O    -4.15911240000E-01  9.16489000000E-03 -4.95867590000E-01

  39  39   1    8 O    -4.14002900000E-01  1.71931640000E-01  4.97028760000E-01

  40  40   1    8 O     1.45998000000E-01  4.50970770000E-01  4.99423870000E-01

  41  41   1    8 O     1.44751040000E-01  2.89482180000E-01 -4.95867600000E-01

  42  42   1    8 O     3.05581530000E-01  4.52243610000E-01  4.97028740000E-01

 NUMBER OF SYMMETRY OPERATORS         :    1
 *******************************************************************************
 * GEOMETRY EDITING - INPUT COORDINATES ARE GIVEN IN ANGSTROM         
 *******************************************************************************

 GCALCO - MAX INDICES DIRECT LATTICE VECTOR    10    14    22
 NO.OF VECTORS CREATED 6999 STARS 3500 RMAX   217.86004 BOHR

 GEOMETRY FOR WAVE FUNCTION - DIMENSIONALITY OF THE SYSTEM    3
 (NON PERIODIC DIRECTION: LATTICE PARAMETER FORMALLY SET TO 500)
 *******************************************************************************
 LATTICE PARAMETERS (ANGSTROMS AND DEGREES) - BOHR = 0.5291772083 ANGSTROM
 PRIMITIVE CELL - CENTRING CODE 1/0 VOLUME=   879.675035 - DENSITY  0.736 g/cm^3
         A              B              C           ALPHA      BETA       GAMMA 
    15.02361100    15.02391600     8.32165800    43.238498  89.999969 119.995964
 *******************************************************************************
 ATOMS IN THE ASYMMETRIC UNIT   42 - ATOMS IN THE UNIT CELL:   42
     ATOM                 X/A                 Y/B                 Z/C    
 *******************************************************************************
      1 T   5 B     4.789148100000E-01 -4.224064000000E-02 -4.989431200000E-01
      2 T   5 B    -3.620295300000E-01  1.168190100000E-01 -4.989431100000E-01
      3 T   5 B     4.795108100000E-01  1.180024700000E-01  4.988250900000E-01
      4 T   5 B     9.248952000000E-02  3.440743500000E-01 -4.989431100000E-01
      5 T   5 B     2.515974900000E-01  3.440535900000E-01 -4.989431200000E-01
      6 T   5 B     2.521780400000E-01 -4.956065500000E-01  4.988250900000E-01
      7 T   1 H    -2.304776300000E-01  4.186041000000E-02  4.964299100000E-01
      8 T   1 H    -3.669642000000E-02  4.243644400000E-01  4.957223700000E-01
      9 T   1 H    -2.303302400000E-01  3.274420100000E-01  4.956134800000E-01
     10 T   1 H    -3.657278000000E-02  1.390399100000E-01  4.956406400000E-01
     11 T   1 H    -4.444068200000E-01 -1.739018600000E-01 -4.964391100000E-01
     12 T   1 H     1.733001900000E-01 -3.678493300000E-01 -4.957315200000E-01
     13 T   1 H     2.702111500000E-01 -1.742952900000E-01 -4.956225500000E-01
     14 T   1 H     4.586607200000E-01 -3.679832300000E-01 -4.956499000000E-01
     15 T   1 H    -4.424485200000E-01  3.269845400000E-01  4.964299500000E-01
     16 T   1 H     1.756308900000E-01  1.389203500000E-01  4.957223300000E-01
     17 T   1 H     2.725389300000E-01  4.219288000000E-02  4.956133900000E-01
     18 T   1 H     4.609818900000E-01  4.243128500000E-01  4.956407300000E-01
     19 T   6 C    -2.422531900000E-01  1.776294200000E-01  4.987434200000E-01
     20 T   6 C    -1.870614300000E-01  1.256574000000E-01  4.965388000000E-01
     21 T   6 C    -8.011119000000E-02  3.401595300000E-01  4.963483500000E-01
     22 T   6 C    -1.872009300000E-01  2.863589400000E-01  4.969199100000E-01
     23 T   6 C    -7.983138000000E-02  1.797074300000E-01  4.954501200000E-01
     24 T   6 C    -2.562446000000E-02  2.866877500000E-01  4.969470900000E-01
     25 T   6 C     4.192224400000E-01 -1.614929100000E-01 -4.987525800000E-01
     26 T   6 C     4.717679200000E-01 -2.172914500000E-01 -4.965480100000E-01
     27 T   6 C     2.573375000000E-01 -3.242867300000E-01 -4.963574900000E-01
     28 T   6 C     3.109801300000E-01 -2.170395500000E-01 -4.969290200000E-01
     29 T   6 C     4.180141100000E-01 -3.248095100000E-01 -4.954593500000E-01
     30 T   6 C     3.106277900000E-01 -3.786356900000E-01 -4.969562700000E-01
     31 T   6 C     4.199013700000E-01  1.775602800000E-01  4.987434200000E-01
     32 T   6 C     4.736596700000E-01  2.864975300000E-01  4.965388400000E-01
     33 T   6 C     2.593240700000E-01  1.791462900000E-01  4.963483000000E-01
     34 T   6 C     3.126342400000E-01  1.253567700000E-01  4.969198500000E-01
     35 T   6 C     4.204852200000E-01  3.405554300000E-01  4.954501800000E-01
     36 T   6 C     3.122996300000E-01  2.866103500000E-01  4.969470900000E-01
     37 T   8 O     4.264101700000E-01  1.169030000000E-02  4.994238500000E-01
     38 T   8 O    -4.159112400000E-01  9.164890000000E-03 -4.958675900000E-01
     39 T   8 O    -4.140029000000E-01  1.719316400000E-01  4.970287600000E-01
     40 T   8 O     1.459980000000E-01  4.509707700000E-01  4.994238700000E-01
     41 T   8 O     1.447510400000E-01  2.894821800000E-01 -4.958676000000E-01
     42 T   8 O     3.055815300000E-01  4.522436100000E-01  4.970287400000E-01

 T = ATOM BELONGING TO THE ASYMMETRIC UNIT

 ****    1 SYMMOPS - TRANSLATORS IN FRACTIONAL UNITS
 **** MATRICES AND TRANSLATORS IN THE CRYSTALLOGRAPHIC REFERENCE FRAME
   V INV                    ROTATION MATRICES                   TRANSLATORS
   1   1  1.00 -0.00  0.00  0.00  1.00  0.00 -0.00 -0.00  1.00  0.00  0.00  0.00

 DIRECT LATTICE VECTORS CARTESIAN COMPONENTS (ANGSTROM)
          X                    Y                    Z
   0.130113578931E+02  -0.751088897922E+01   0.000000000000E+00
   0.000000000000E+00   0.150239160000E+02   0.000000000000E+00
   0.349956330561E+01   0.606239862173E+01   0.450004127650E+01


 CARTESIAN COORDINATES - PRIMITIVE CELL
 *******************************************************************************
 *      ATOM          X(ANGSTROM)         Y(ANGSTROM)         Z(ANGSTROM)
 *******************************************************************************
    1     5 B     9.856856532518E-01  1.705029499697E+00 -6.745305911129E+00
    2     5 B    -6.456578782026E+00  1.449450578084E+00 -2.245264589626E+00
    3     5 B    -1.527037844071E+00 -2.552451221200E-01  6.744774771257E+00
    4     5 B    -5.426687532642E-01  1.449873593306E+00 -2.245264589626E+00
    5     5 B     1.527541953048E+00  2.545193378076E-01 -2.245264634627E+00
    6     5 B     1.527285406483E+00  2.645561478683E+00 -2.255307781747E+00
    7     1 H    -4.761102339038E+00 -6.928434448736E-01 -2.266086190612E+00
    8     1 H    -2.242221743800E+00  3.594106427419E+00 -2.269270149817E+00
    9     1 H    -1.262478437862E+00 -5.369863407628E+00  2.230281117191E+00
   10     1 H    -2.240899038819E+00 -6.940094701934E-01 -2.269637938190E+00
   11     1 H    -4.020092972353E+00  3.777990195238E+00  2.266044790232E+00
   12     1 H     5.200269582002E-01  5.190417994659E+00 -2.230812302063E+00
   13     1 H     5.280914795540E+00 -1.590386587039E+00  2.269719343937E+00
   14     1 H     4.233240576939E+00  3.045589845402E+00 -2.230445008694E+00
   15     1 H    -4.019568006149E+00 -3.778589780336E+00  2.233955265892E+00
   16     1 H     5.204447370973E-01 -2.289148698599E+00 -2.269270329818E+00
   17     1 H     1.780968685825E+00 -4.470900050111E+00 -2.269760564315E+00
   18     1 H     4.232963158873E+00 -1.451701244051E-01 -2.269637533187E+00
   19     6 C    -4.906222089886E+00  1.449409100433E+00 -2.255675300118E+00
   20     6 C    -4.195817555034E+00  2.406813704257E-01 -2.265596181117E+00
   21     6 C    -2.804916197477E+00  2.658897390609E+00 -2.266453213978E+00
   22     6 C    -4.196298920888E+00  2.658406018208E+00 -2.263881170386E+00
   23     6 C    -2.804418902173E+00  2.407314680259E-01 -2.270495286054E+00
   24     6 C    -2.093874524491E+00  1.449927880198E+00 -2.263758859265E+00
   25     6 C     2.096736704893E-01  3.628913058171E-01 -6.744448473264E+00
   26     6 C    -5.111154533135E+00  3.755050666107E+00  2.265554735737E+00
   27     6 C     1.611275853337E+00  5.209909052613E+00 -2.233629192901E+00
   28     6 C     5.806802510783E+00 -2.546704383264E+00  2.263840175010E+00
   29     6 C     3.705039828878E+00  4.000675553238E+00 -2.229587525829E+00
   30     6 C     2.302559420236E+00  3.989487347979E+00 -2.236323727617E+00
   31     6 C     3.709307870793E+00 -3.524999040361E+00 -2.255675300118E+00
   32     6 C     4.401061284543E+00 -2.305472612855E+00 -2.265596001116E+00
   33     6 C     1.611597276928E+00 -2.309612858651E+00 -2.266453438980E+00
   34     6 C     2.307235153545E+00 -3.514683893212E+00 -2.263881440389E+00
   35     6 C     3.705379650238E+00 -1.100523764521E+00 -2.270495016052E+00
   36     6 C     2.302976751185E+00 -1.089345294293E+00 -2.263758859265E+00
   37     8 O    -2.215853876936E+00 -1.450007300414E+00  6.747469215972E+00
   38     8 O     2.364904569662E+00  1.706037091230E+00 -6.731465899182E+00
   39     8 O    -1.477929847297E-01 -2.557145726051E-01  6.736691212111E+00
   40     8 O     1.478343734600E-01  2.644080157163E+00 -2.252613247032E+00
   41     8 O     1.480875294330E-01  2.557999099486E-01 -2.231424667680E+00
   42     8 O     2.215850887067E+00  1.450068788852E+00 -2.263391430894E+00

 *******************************************************************************
 STARTING BASIS SET HANDLING 
 *******************************************************************************

 Loading internal basis set: SOLDEF2MSVP         

 Please cite in your publication:
 L. Dona', J. G. Brandenburg and B. Civalleri, J. Chem. Phys., 151, 121101 (2019
 )                                                                              
                                                                                
                    

 *******************************************************************************
 LOCAL ATOMIC FUNCTIONS BASIS SET
 *******************************************************************************
   ATOM   X(AU)   Y(AU)   Z(AU)  N. TYPE  EXPONENT  S COEF   P COEF   D/F/G COEF
 *******************************************************************************
   1 B    1.863   3.222 -12.747
                                  1 S  
                                         2.410E+03 1.755E-03 0.000E+00 0.000E+00
                                         3.619E+02 1.344E-02 0.000E+00 0.000E+00
                                         8.231E+01 6.637E-02 0.000E+00 0.000E+00
                                         2.311E+01 2.303E-01 0.000E+00 0.000E+00
                                         7.252E+00 5.150E-01 0.000E+00 0.000E+00
                                  2 S  
                                         2.367E+00 1.000E+00 0.000E+00 0.000E+00
                                  3 S  
                                         5.533E-01 1.000E+00 0.000E+00 0.000E+00
                                  4 S  
                                         1.716E-01 1.000E+00 0.000E+00 0.000E+00
                           5-     7 P  
                                         6.002E+00 0.000E+00-3.555E-02 0.000E+00
                                         1.240E+00 0.000E+00-1.983E-01 0.000E+00
                                         3.367E-01 0.000E+00-5.048E-01 0.000E+00
                           8-    10 P  
                                         1.256E-01 0.000E+00 1.000E+00 0.000E+00
                          11-    15 D  
                                         8.880E-01 0.000E+00 0.000E+00 1.000E+00
   2 B  -12.201   2.739  -4.243
   3 B   -2.886  -0.482  12.746
   4 B   -1.025   2.740  -4.243
   5 B    2.887   0.481  -4.243
   6 B    2.886   4.999  -4.262
   7 H   -8.997  -1.309  -4.282
                                 91 S  
                                         1.874E+01 1.968E-02 0.000E+00 0.000E+00
                                         2.826E+00 1.380E-01 0.000E+00 0.000E+00
                                         6.401E-01 4.783E-01 0.000E+00 0.000E+00
                                 92 S  
                                         1.756E-01 1.000E+00 0.000E+00 0.000E+00
   8 H   -4.237   6.792  -4.288
   9 H   -2.386 -10.148   4.215
  10 H   -4.235  -1.311  -4.289
  11 H   -7.597   7.139   4.282
  12 H    0.983   9.808  -4.216
  13 H    9.979  -3.005   4.289
  14 H    8.000   5.755  -4.215
  15 H   -7.596  -7.140   4.222
  16 H    0.983  -4.326  -4.288
  17 H    3.366  -8.449  -4.289
  18 H    7.999  -0.274  -4.289
  19 C   -9.271   2.739  -4.263
                                115 S  
                                         3.624E+03 1.634E-03 0.000E+00 0.000E+00
                                         5.440E+02 1.252E-02 0.000E+00 0.000E+00
                                         1.237E+02 6.211E-02 0.000E+00 0.000E+00
                                         3.476E+01 2.182E-01 0.000E+00 0.000E+00
                                         1.093E+01 4.980E-01 0.000E+00 0.000E+00
                                116 S  
                                         3.574E+00 1.000E+00 0.000E+00 0.000E+00
                                117 S  
                                         7.742E-01 1.000E+00 0.000E+00 0.000E+00
                                118 S  
                                         2.330E-01 1.000E+00 0.000E+00 0.000E+00
                         119-   121 P  
                                         9.443E+00 0.000E+00 3.790E-02 0.000E+00
                                         2.002E+00 0.000E+00 2.082E-01 0.000E+00
                                         5.463E-01 0.000E+00 5.047E-01 0.000E+00
                         122-   124 P  
                                         1.820E-01 0.000E+00 1.000E+00 0.000E+00
                         125-   129 D  
                                         8.880E-01 0.000E+00 0.000E+00 1.000E+00
  20 C   -7.929   0.455  -4.281
  21 C   -5.301   5.025  -4.283
  22 C   -7.930   5.024  -4.278
  23 C   -5.300   0.455  -4.291
  24 C   -3.957   2.740  -4.278
  25 C    0.396   0.686 -12.745
  26 C   -9.659   7.096   4.281
  27 C    3.045   9.845  -4.221
  28 C   10.973  -4.813   4.278
  29 C    7.002   7.560  -4.213
  30 C    4.351   7.539  -4.226
  31 C    7.010  -6.661  -4.263
  32 C    8.317  -4.357  -4.281
  33 C    3.045  -4.365  -4.283
  34 C    4.360  -6.642  -4.278
  35 C    7.002  -2.080  -4.291
  36 C    4.352  -2.059  -4.278
  37 O   -4.187  -2.740  12.751
                                385 S  
                                         6.773E+03 1.727E-03 0.000E+00 0.000E+00
                                         1.017E+03 1.325E-02 0.000E+00 0.000E+00
                                         2.313E+02 6.603E-02 0.000E+00 0.000E+00
                                         6.501E+01 2.353E-01 0.000E+00 0.000E+00
                                         2.050E+01 5.498E-01 0.000E+00 0.000E+00
                                386 S  
                                         6.716E+00 1.000E+00 0.000E+00 0.000E+00
                                387 S  
                                         1.147E+00 1.000E+00 0.000E+00 0.000E+00
                                388 S  
                                         3.342E-01 1.000E+00 0.000E+00 0.000E+00
                         389-   391 P  
                                         1.769E+01 0.000E+00 4.359E-02 0.000E+00
                                         3.854E+00 0.000E+00 2.318E-01 0.000E+00
                                         1.047E+00 0.000E+00 5.146E-01 0.000E+00
                         392-   394 P  
                                         2.759E-01 0.000E+00 1.000E+00 0.000E+00
                         395-   399 D  
                                         8.000E-01 0.000E+00 0.000E+00 1.000E+00
  38 O    4.469   3.224 -12.721
  39 O   -0.279  -0.483  12.731
  40 O    0.279   4.997  -4.257
  41 O    0.280   0.483  -4.217
  42 O    4.187   2.740  -4.277

 *******************************************************************************
 FINISHED BASIS SET HANDLING 
 *******************************************************************************

 INFORMATION **** SET_MPP **** PCRYSTAL CALCULATION
 INFORMATION **** READM2 **** NEW DEFAULT: FOCK/KS MATRIX MIXING SET TO 30 %
 INFORMATION **** READM2 **** NEW DEFAULT: FULL DIRECT SCF MODE
 INFORMATION **** READM2 **** NEW DEFAULT: COULOMB BIPOLAR BUFFER SET TO 32 Mb
 INFORMATION **** READM2 **** NEW DEFAULT: EXCHANGE BIPOLAR BUFFER SET TO 32 Mb

 *******************************************************************************
 NEW DEFAULT: DFT INTEGRATION GRID INCREASED TO XLGRID
 NEW DEFAULT: DIIS ACCELERATOR ACTIVE
 USE KEYWORD NODIIS TO TURN IT OFF
 *******************************************************************************

 WARNING **** RDDFTP **** HSEsol-HJS ACTIVE
 RANGE SEPARATION - OMEGA:   0.110000000000000     
 WARNING **** RDDFTP **** HSEsol-3c has to be combined with sol-def2-mSVP basis set
 *******************************************************************************
 N. OF ATOMS PER CELL        42  COULOMB OVERLAP TOL         (T1) 10**   -6
 NUMBER OF SHELLS           234  COULOMB PENETRATION TOL     (T2) 10**   -6
 NUMBER OF AO               474  EXCHANGE OVERLAP TOL        (T3) 10**   -6
 N. OF ELECTRONS PER CELL   198  EXCHANGE PSEUDO OVP (F(G))  (T4) 10**   -6
 CORE ELECTRONS PER CELL     60  EXCHANGE PSEUDO OVP (P(G))  (T5) 10**  -12
 N. OF SYMMETRY OPERATORS     1  POLE ORDER IN MONO ZONE                  4
 *******************************************************************************
 TYPE OF CALCULATION :  RESTRICTED CLOSED SHELL
 KOHN-SHAM HAMILTONIAN

 (EXCHANGE)[CORRELATION] FUNCTIONAL:(HSEsol GGA)[PBEsol]

 RANGE-SEPARATED HYBRID FUNCTIONAL 
 OMEGA (SHORT-RANGE)[LONG-RANGE]:(    0.1100)[    0.0000]

 HYBRID EXCHANGE - PERCENTAGE OF FOCK EXCHANGE    25.0000

 CAPPA:IS1  2;IS2  2;IS3  8; K PTS MONK NET  20; SYMMOPS:K SPACE   2;G SPACE   1

 *******************************************************************************
 MAX NUMBER OF SCF CYCLES      50  CONVERGENCE ON DELTAP        10**-16
 WEIGHT OF F(I) IN F(I+1)      30% CONVERGENCE ON ENERGY        10**- 6
 SHRINK. FACT.(MONKH.)    2  2  8  NUMBER OF K POINTS IN THE IBZ     20
 SHRINKING FACTOR(GILAT NET)    8  NUMBER OF K POINTS(GILAT NET)   1028
 *******************************************************************************
 *** K POINTS COORDINATES (OBLIQUE COORDINATES IN UNITS OF IS =  2)
   1-R(  0  0  0)   2-R(  1  0  0)   3-R(  0  1  0)   4-R(  1  1  0)
   5-C(  0  0  1)   6-C(  1  0  1)   7-C(  0  1  1)   8-C(  1  1  1)
   9-C(  0  0  2)  10-C(  1  0  2)  11-C(  0  1  2)  12-C(  1  1  2)
  13-C(  0  0  3)  14-C(  1  0  3)  15-C(  0  1  3)  16-C(  1  1  3)
  17-R(  0  0  4)  18-R(  1  0  4)  19-R(  0  1  4)  20-R(  1  1  4)

 DIRECT LATTICE VECTORS COMPON. (A.U.)     RECIP. LATTICE VECTORS COMPON. (A.U.) 
        X            Y            Z              X            Y            Z
   24.5879030  -14.1935232    0.0000000      0.2555397    0.0000000   -0.1987265
    0.0000000   28.3910867    0.0000000      0.1277517    0.2213084   -0.3974929
    6.6132162   11.4562731    8.5038456      0.0000000    0.0000000    0.7388640

 DISK SPACE FOR EIGENVECTORS (FTN 10)     7189632 REALS

 SYMMETRY ADAPTION OF THE BLOCH FUNCTIONS DISABLED
 TTTTTTTTTTTTTTTTTTTTTTTTTTTTTT gordsh1     TELAPSE        0.04 TCPU        0.04

 MATRIX SIZE: P(G)  266374, F(G)   52822, P(G) IRR  134246, F(G) IRR   53302
 MAX G-VECTOR INDEX FOR 1- AND 2-ELECTRON INTEGRALS  71

 TTTTTTTTTTTTTTTTTTTTTTTTTTTTTT INPUT       TELAPSE        0.37 TCPU        0.37

 NEIGHBORS OF THE NON-EQUIVALENT ATOMS

 N = NUMBER OF NEIGHBORS AT DISTANCE R
    ATOM  N     R/ANG      R/AU   NEIGHBORS (ATOM LABELS AND CELL INDICES)
   1 B    1     1.3791     2.6061   37 O    1 2-3
   1 B    1     1.3793     2.6065   38 O    0 0 0
   1 B    1     1.5503     2.9297   25 C    0 0 0
   1 B    1     2.3895     4.5155    3 B    1 2-3
   1 B    1     2.3898     4.5160    2 B    1 1-1
   1 B    1     2.5632     4.8437   26 C    1 1-2

   2 B    1     1.3793     2.6065   39 O    0 1-2
   2 B    1     1.3793     2.6065   38 O   -1-1 1
   2 B    1     1.5504     2.9298   19 C    0 0 0
   2 B    1     2.3895     4.5156    3 B    0 1-2
   2 B    1     2.3898     4.5160    1 B   -1-1 1
   2 B    1     2.5634     4.8440   22 C    0 0 0

   3 B    1     1.3791     2.6061   37 O    0 0 0
   3 B    1     1.3793     2.6064   39 O    0 0 0
   3 B    1     1.5502     2.9294   31 C   -1-1 2
   3 B    1     2.3895     4.5155    1 B   -1-2 3
   3 B    1     2.3895     4.5156    2 B    0-1 2
   3 B    1     2.5629     4.8433   32 C   -1-1 2

   4 B    1     1.3795     2.6068   40 O    0 0 0
   4 B    1     1.3795     2.6070   41 O    0 0 0
   4 B    1     1.5513     2.9316   24 C    0 0 0
   4 B    1     2.3905     4.5174    6 B    0 0 0
   4 B    1     2.3905     4.5175    5 B    0 0 0
   4 B    1     2.5648     4.8468   23 C    0 0 0

   5 B    1     1.3795     2.6069   41 O    0 0 0
   5 B    1     1.3797     2.6072   42 O    0 0 0
   5 B    1     1.5516     2.9322   36 C    0 0 0
   5 B    1     2.3905     4.5175    4 B    0 0 0
   5 B    1     2.3911     4.5185    6 B    0 0 0
   5 B    1     2.5651     4.8473   35 C    0 0 0

   6 B    1     1.3795     2.6068   40 O    0 0 0
   6 B    1     1.3796     2.6071   42 O    0 0 0
   6 B    1     1.5516     2.9322   30 C    0 0 0
   6 B    1     2.3905     4.5174    4 B    0 0 0
   6 B    1     2.3911     4.5185    5 B    0 0 0
   6 B    1     2.5651     4.8473   29 C    0 0 0

   7 H    1     1.0913     2.0623   20 C    0 0 0
   7 H    1     2.1472     4.0576   19 C    0 0 0
   7 H    1     2.1680     4.0969   23 C    0 0 0
   7 H    1     2.5202     4.7625   10 H    0 0 0
   7 H    1     2.5676     4.8520   38 O   -1-1 1
   7 H    1     2.7321     5.1630    2 B    0 0 0

   8 H    1     1.0914     2.0625   21 C    0 0 0
   8 H    1     2.1493     4.0616   24 C    0 0 0
   8 H    1     2.1666     4.0942   22 C    0 0 0
   8 H    1     2.5198     4.7618    9 H    0 1-1
   8 H    1     2.5720     4.8604   40 O    0 0 0
   8 H    1     2.7362     5.1707    4 B    0 0 0

   9 H    1     1.0914     2.0624   22 C    0-1 1
   9 H    1     2.1471     4.0575   19 C    0-1 1
   9 H    1     2.1680     4.0970   21 C    0-1 1
   9 H    1     2.5198     4.7618    8 H    0-1 1
   9 H    1     2.5665     4.8500   39 O    0 0-1
   9 H    1     2.7315     5.1618    2 B    0-1 1

  10 H    1     1.0915     2.0626   23 C    0 0 0
  10 H    1     2.1490     4.0610   24 C    0 0 0
  10 H    1     2.1669     4.0948   20 C    0 0 0
  10 H    1     2.5202     4.7625    7 H    0 0 0
  10 H    1     2.5712     4.8588   41 O    0 0 0
  10 H    1     2.7351     5.1686    4 B    0 0 0

  11 H    1     1.0913     2.0623   26 C    0 0 0
  11 H    1     2.1469     4.0571   25 C   -1-1 2
  11 H    1     2.1680     4.0968   29 C   -1-1 1
  11 H    1     2.5198     4.7617   14 H   -1-1 1
  11 H    1     2.5670     4.8510   38 O   -1-1 2
  11 H    1     2.7310     5.1609    1 B   -1-1 2

  12 H    1     1.0914     2.0625   27 C    0 0 0
  12 H    1     2.1493     4.0617   30 C    0 0 0
  12 H    1     2.1664     4.0939   28 C    0 1-1
  12 H    1     2.5192     4.7606   13 H    0 1-1
  12 H    1     2.5735     4.8632   40 O    0 0 0
  12 H    1     2.7371     5.1723    6 B    0 0 0

  13 H    1     1.0914     2.0624   28 C    0 0 0
  13 H    1     2.1475     4.0581   25 C    0-1 2
  13 H    1     2.1679     4.0967   27 C    0-1 1
  13 H    1     2.5192     4.7606   12 H    0-1 1
  13 H    1     2.5675     4.8519   37 O    1 1-1
  13 H    1     2.7328     5.1643    1 B    0-1 2

  14 H    1     1.0914     2.0625   29 C    0 0 0
  14 H    1     2.1491     4.0612   30 C    0 0 0
  14 H    1     2.1666     4.0942   26 C    1 1-1
  14 H    1     2.5198     4.7617   11 H    1 1-1
  14 H    1     2.5723     4.8609   42 O    0 0 0
  14 H    1     2.7355     5.1693    6 B    0 0 0

  15 H    1     1.0914     2.0624   32 C   -1-1 1
  15 H    1     2.1475     4.0582   31 C   -1-1 1
  15 H    1     2.1678     4.0966   35 C   -1-1 1
  15 H    1     2.5200     4.7621   18 H   -1-1 1
  15 H    1     2.5667     4.8503   39 O    0 0-1
  15 H    1     2.7315     5.1618    3 B    0 0-1

  16 H    1     1.0913     2.0623   33 C    0 0 0
  16 H    1     2.1487     4.0605   36 C    0 0 0
  16 H    1     2.1667     4.0945   34 C    0 0 0
  16 H    1     2.5197     4.7616   17 H    0 0 0
  16 H    1     2.5723     4.8610   41 O    0 0 0
  16 H    1     2.7359     5.1701    5 B    0 0 0

  17 H    1     1.0915     2.0626   34 C    0 0 0
  17 H    1     2.1479     4.0589   31 C    0 0 0
  17 H    1     2.1679     4.0968   33 C    0 0 0
  17 H    1     2.5197     4.7616   16 H    0 0 0
  17 H    1     2.5677     4.8522   37 O    1 1-2
  17 H    1     2.7331     5.1648    3 B    1 1-2

  18 H    1     1.0914     2.0624   35 C    0 0 0
  18 H    1     2.1486     4.0602   36 C    0 0 0
  18 H    1     2.1668     4.0947   32 C    0 0 0
  18 H    1     2.5200     4.7621   15 H    1 1-1
  18 H    1     2.5717     4.8598   42 O    0 0 0
  18 H    1     2.7349     5.1682    5 B    0 0 0

  19 C    1     1.4020     2.6495   22 C    0 0 0
  19 C    1     1.4021     2.6495   20 C    0 0 0
  19 C    1     1.5504     2.9298    2 B    0 0 0
  19 C    1     2.1471     4.0575    9 H    0 1-1
  19 C    1     2.1472     4.0576    7 H    0 0 0
  19 C    1     2.4246     4.5817   21 C    0 0 0

  20 C    1     1.0913     2.0623    7 H    0 0 0
  20 C    1     1.3914     2.6294   23 C    0 0 0
  20 C    1     1.4021     2.6495   19 C    0 0 0
  20 C    1     2.1669     4.0948   10 H    0 0 0
  20 C    1     2.4177     4.5688   22 C    0 0 0
  20 C    1     2.4250     4.5825   24 C    0 0 0

  21 C    1     1.0914     2.0625    8 H    0 0 0
  21 C    1     1.3914     2.6293   22 C    0 0 0
  21 C    1     1.4026     2.6505   24 C    0 0 0
  21 C    1     2.1680     4.0970    9 H    0 1-1
  21 C    1     2.4182     4.5697   23 C    0 0 0
  21 C    1     2.4246     4.5817   19 C    0 0 0

  22 C    1     1.0914     2.0624    9 H    0 1-1
  22 C    1     1.3914     2.6293   21 C    0 0 0
  22 C    1     1.4020     2.6495   19 C    0 0 0
  22 C    1     2.1666     4.0942    8 H    0 0 0
  22 C    1     2.4177     4.5688   20 C    0 0 0
  22 C    1     2.4250     4.5826   24 C    0 0 0

  23 C    1     1.0915     2.0626   10 H    0 0 0
  23 C    1     1.3914     2.6294   20 C    0 0 0
  23 C    1     1.4025     2.6504   24 C    0 0 0
  23 C    1     2.1680     4.0969    7 H    0 0 0
  23 C    1     2.4182     4.5697   21 C    0 0 0
  23 C    1     2.4246     4.5818   19 C    0 0 0

  24 C    1     1.4025     2.6504   23 C    0 0 0
  24 C    1     1.4026     2.6505   21 C    0 0 0
  24 C    1     1.5513     2.9316    4 B    0 0 0
  24 C    1     2.1490     4.0610   10 H    0 0 0
  24 C    1     2.1493     4.0616    8 H    0 0 0
  24 C    1     2.4250     4.5825   20 C    0 0 0

  25 C    1     1.4020     2.6494   26 C    1 1-2
  25 C    1     1.4021     2.6495   28 C    0 1-2
  25 C    1     1.5503     2.9297    1 B    0 0 0
  25 C    1     2.1469     4.0571   11 H    1 1-2
  25 C    1     2.1475     4.0581   13 H    0 1-2
  25 C    1     2.4246     4.5818   27 C    0 0-1

  26 C    1     1.0913     2.0623   11 H    0 0 0
  26 C    1     1.3914     2.6293   29 C   -1-1 1
  26 C    1     1.4020     2.6494   25 C   -1-1 2
  26 C    1     2.1666     4.0942   14 H   -1-1 1
  26 C    1     2.4175     4.5684   28 C   -1 0 0
  26 C    1     2.4251     4.5828   30 C   -1-1 1

  27 C    1     1.0914     2.0625   12 H    0 0 0
  27 C    1     1.3915     2.6295   28 C    0 1-1
  27 C    1     1.4026     2.6505   30 C    0 0 0
  27 C    1     2.1679     4.0967   13 H    0 1-1
  27 C    1     2.4179     4.5691   29 C    0 0 0
  27 C    1     2.4246     4.5818   25 C    0 0 1

  28 C    1     1.0914     2.0624   13 H    0 0 0
  28 C    1     1.3915     2.6295   27 C    0-1 1
  28 C    1     1.4021     2.6495   25 C    0-1 2
  28 C    1     2.1664     4.0939   12 H    0-1 1
  28 C    1     2.4175     4.5684   26 C    1 0 0
  28 C    1     2.4253     4.5832   30 C    0-1 1

  29 C    1     1.0914     2.0625   14 H    0 0 0
  29 C    1     1.3914     2.6293   26 C    1 1-1
  29 C    1     1.4025     2.6504   30 C    0 0 0
  29 C    1     2.1680     4.0968   11 H    1 1-1
  29 C    1     2.4179     4.5691   27 C    0 0 0
  29 C    1     2.4247     4.5819   25 C    0 0 1

  30 C    1     1.4025     2.6504   29 C    0 0 0
  30 C    1     1.4026     2.6505   27 C    0 0 0
  30 C    1     1.5516     2.9322    6 B    0 0 0
  30 C    1     2.1491     4.0612   14 H    0 0 0
  30 C    1     2.1493     4.0617   12 H    0 0 0
  30 C    1     2.4251     4.5828   26 C    1 1-1

  31 C    1     1.4021     2.6496   32 C    0 0 0
  31 C    1     1.4021     2.6497   34 C    0 0 0
  31 C    1     1.5502     2.9294    3 B    1 1-2
  31 C    1     2.1475     4.0582   15 H    1 1-1
  31 C    1     2.1479     4.0589   17 H    0 0 0
  31 C    1     2.4244     4.5814   33 C    0 0 0

  32 C    1     1.0914     2.0624   15 H    1 1-1
  32 C    1     1.3914     2.6293   35 C    0 0 0
  32 C    1     1.4021     2.6496   31 C    0 0 0
  32 C    1     2.1668     4.0947   18 H    0 0 0
  32 C    1     2.4179     4.5692   34 C    0 0 0
  32 C    1     2.4251     4.5827   36 C    0 0 0

  33 C    1     1.0913     2.0623   16 H    0 0 0
  33 C    1     1.3914     2.6294   34 C    0 0 0
  33 C    1     1.4025     2.6504   36 C    0 0 0
  33 C    1     2.1679     4.0968   17 H    0 0 0
  33 C    1     2.4178     4.5690   35 C    0 0 0
  33 C    1     2.4244     4.5814   31 C    0 0 0

  34 C    1     1.0915     2.0626   17 H    0 0 0
  34 C    1     1.3914     2.6294   33 C    0 0 0
  34 C    1     1.4021     2.6497   31 C    0 0 0
  34 C    1     2.1667     4.0945   16 H    0 0 0
  34 C    1     2.4179     4.5692   32 C    0 0 0
  34 C    1     2.4253     4.5832   36 C    0 0 0

  35 C    1     1.0914     2.0624   18 H    0 0 0
  35 C    1     1.3914     2.6293   32 C    0 0 0
  35 C    1     1.4025     2.6503   36 C    0 0 0
  35 C    1     2.1678     4.0966   15 H    1 1-1
  35 C    1     2.4178     4.5690   33 C    0 0 0
  35 C    1     2.4245     4.5817   31 C    0 0 0

  36 C    1     1.4025     2.6503   35 C    0 0 0
  36 C    1     1.4025     2.6504   33 C    0 0 0
  36 C    1     1.5516     2.9322    5 B    0 0 0
  36 C    1     2.1486     4.0602   18 H    0 0 0
  36 C    1     2.1487     4.0605   16 H    0 0 0
  36 C    1     2.4251     4.5827   32 C    0 0 0

  37 O    1     1.3791     2.6061    1 B   -1-2 3
  37 O    1     1.3791     2.6061    3 B    0 0 0
  37 O    1     2.3880     4.5126   38 O   -1-2 3
  37 O    1     2.3882     4.5130   39 O    0 0 0
  37 O    1     2.5383     4.7966   31 C   -1-1 2
  37 O    1     2.5384     4.7968   25 C   -1-2 3

  38 O    1     1.3793     2.6065    1 B    0 0 0
  38 O    1     1.3793     2.6065    2 B    1 1-1
  38 O    1     2.3880     4.5126   37 O    1 2-3
  38 O    1     2.3882     4.5131   39 O    1 2-3
  38 O    1     2.5391     4.7981   19 C    1 1-1
  38 O    1     2.5395     4.7990   25 C    0 0 0

  39 O    1     1.3793     2.6064    3 B    0 0 0
  39 O    1     1.3793     2.6065    2 B    0-1 2
  39 O    1     2.3882     4.5130   37 O    0 0 0
  39 O    1     2.3882     4.5131   38 O   -1-2 3
  39 O    1     2.5390     4.7980   19 C    0-1 2
  39 O    1     2.5391     4.7982   31 C   -1-1 2

  40 O    1     1.3795     2.6068    6 B    0 0 0
  40 O    1     1.3795     2.6068    4 B    0 0 0
  40 O    1     2.3880     4.5126   42 O    0 0 0
  40 O    1     2.3884     4.5134   41 O    0 0 0
  40 O    1     2.5400     4.7998   24 C    0 0 0
  40 O    1     2.5403     4.8005   30 C    0 0 0

  41 O    1     1.3795     2.6069    5 B    0 0 0
  41 O    1     1.3795     2.6070    4 B    0 0 0
  41 O    1     2.3881     4.5128   42 O    0 0 0
  41 O    1     2.3884     4.5134   40 O    0 0 0
  41 O    1     2.5404     4.8006   24 C    0 0 0
  41 O    1     2.5405     4.8008   36 C    0 0 0

  42 O    1     1.3796     2.6071    6 B    0 0 0
  42 O    1     1.3797     2.6072    5 B    0 0 0
  42 O    1     2.3880     4.5126   40 O    0 0 0
  42 O    1     2.3881     4.5128   41 O    0 0 0
  42 O    1     2.5409     4.8016   36 C    0 0 0
  42 O    1     2.5410     4.8019   30 C    0 0 0


 SYMMETRY ALLOWED INTERNAL DEGREE(S) OF FREEDOM: 123
 TTTTTTTTTTTTTTTTTTTTTTTTTTTTTT SYMM        TELAPSE        0.38 TCPU        0.37
 TTTTTTTTTTTTTTTTTTTTTTTTTTTTTT INT_SCREEN  TELAPSE        0.41 TCPU        0.41

 DFT PARAMETERS

     ATOM       ELECTRONS   NET CHARGE   R(ANGSTROM)
   1   5  B       5.0000      0.0000     0.89000000
   7   1  H       1.0000      0.0000     1.11000000
  19   6  C       6.0000      0.0000     0.77000000
  37   8  O       8.0000      0.0000     0.74000000

 SIZE OF GRID=    1344130
 TTTTTTTTTTTTTTTTTTTTTTTTTTTTTT MAKE_GRID2  TELAPSE        7.17 TCPU        7.16
 BECKE WEIGHT FUNCTION
 RADSAFE =     2.00
 TOLERANCES - DENSITY:10**- 6; POTENTIAL:10**- 9; GRID WGT:10**-14

 RADIAL INTEGRATION  - INTERVALS (POINTS,UPPER LIMIT):            1( 75,  4.0*R)

 ANGULAR INTEGRATION - INTERVALS (ACCURACY LEVEL [N. POINTS] UPPER LIMIT):
  1(  4[  86]   0.2)  2(  8[ 194]   0.5)  3( 12[ 350]   0.9)  4( 16[ 974]   3.5)
  5( 12[ 350]9999.0)
 TTTTTTTTTTTTTTTTTTTTTTTTTTTTTT INT_CALC    TELAPSE        7.24 TCPU        7.23
 EEEEEEEEEE INT_CALC TERMINATION  DATE 19 02 2026 TIME 19:23:51.2

 *******************************************************************************
 cof-1_z45_L070_incl                                                             
 CRYSTAL - SCF - TYPE OF CALCULATION :  RESTRICTED CLOSED SHELL
 *******************************************************************************

 CAPPA:IS1  2;IS2  2;IS3  8; K PTS MONK NET  20; SYMMOPS:K SPACE   2;G SPACE   1

 TTTTTTTTTTTTTTTTTTTTTTTTTTTTTT SDIK        TELAPSE        7.81 TCPU       15.29

 AAAAAAAAAAAAAAAAAAAAAAAAAAAAAAAAAAAAAAAAAAAAAAAAAAAAAAAAAAAAAAAAAAAAAAAAAAAAAAA
         ATOMIC WAVEFUNCTION(S)


 NUCLEAR CHARGE  5.0  SYMMETRY SPECIES            S    P
 N. ELECTRONS    5.0  NUMBER OF PRIMITIVE GTOS    8    4
                      NUMBER OF CONTRACTED GTOS   4    2
                      NUMBER OF CLOSED SHELLS     2    0
                      OPEN SHELL OCCUPATION       0    1

  ZNUC  SCFIT    TOTAL HF ENERGY   KINETIC ENERGY   VIRIAL THEOREM ACCURACY
   5.0    11    -2.451164084E+01  2.462155050E+01 -1.995536038E+00  1.5E-06

 NUCLEAR CHARGE  1.0  SYMMETRY SPECIES            S
 N. ELECTRONS    1.0  NUMBER OF PRIMITIVE GTOS    4
                      NUMBER OF CONTRACTED GTOS   2
                      NUMBER OF CLOSED SHELLS     0
                      OPEN SHELL OCCUPATION       1

  ZNUC  SCFIT    TOTAL HF ENERGY   KINETIC ENERGY   VIRIAL THEOREM ACCURACY
   1.0     1    -4.977266687E-01  5.190767460E-01 -1.958869132E+00  0.0E+00

 NUCLEAR CHARGE  6.0  SYMMETRY SPECIES            S    P
 N. ELECTRONS    6.0  NUMBER OF PRIMITIVE GTOS    8    4
                      NUMBER OF CONTRACTED GTOS   4    2
                      NUMBER OF CLOSED SHELLS     2    0
                      OPEN SHELL OCCUPATION       0    2

  ZNUC  SCFIT    TOTAL HF ENERGY   KINETIC ENERGY   VIRIAL THEOREM ACCURACY
   6.0     9    -3.766704647E+01  3.775180683E+01 -1.997754800E+00  1.1E-06

 NUCLEAR CHARGE  8.0  SYMMETRY SPECIES            S    P
 N. ELECTRONS    8.0  NUMBER OF PRIMITIVE GTOS    8    4
                      NUMBER OF CONTRACTED GTOS   4    2
                      NUMBER OF CLOSED SHELLS     2    0
                      OPEN SHELL OCCUPATION       0    4

  ZNUC  SCFIT    TOTAL HF ENERGY   KINETIC ENERGY   VIRIAL THEOREM ACCURACY
   8.0    12    -7.477373220E+01  7.477365593E+01 -2.000001020E+00  3.8E-06

 AAAAAAAAAAAAAAAAAAAAAAAAAAAAAAAAAAAAAAAAAAAAAAAAAAAAAAAAAAAAAAAAAAAAAAAAAAAAAAA

 CHARGE NORMALIZATION FACTOR   1.00000000
 TOTAL ATOMIC CHARGES:
   5.0000000   5.0000000   5.0000000   5.0000000   5.0000000   5.0000000
   1.0000000   1.0000000   1.0000000   1.0000000   1.0000000   1.0000000
   1.0000000   1.0000000   1.0000000   1.0000000   1.0000000   1.0000000
   6.0000000   6.0000000   6.0000000   6.0000000   6.0000000   6.0000000
   6.0000000   6.0000000   6.0000000   6.0000000   6.0000000   6.0000000
   6.0000000   6.0000000   6.0000000   6.0000000   6.0000000   6.0000000
   8.0000000   8.0000000   8.0000000   8.0000000   8.0000000   8.0000000
 TTTTTTTTTTTTTTTTTTTTTTTTTTTTTT MOQGAD      TELAPSE        7.85 TCPU       16.52
 TTTTTTTTTTTTTTTTTTTTTTTTTTTTTT SHELLXN     TELAPSE       12.07 TCPU      151.46
 TTTTTTTTTTTTTTTTTTTTTTTTTTTTTT MONMO3      TELAPSE       12.19 TCPU      155.17
 NUMERICALLY INTEGRATED DENSITY    197.9999614357
 TTTTTTTTTTTTTTTTTTTTTTTTTTTTTT NUMDFT      TELAPSE       12.69 TCPU      171.21
 CYC   0 ETOT(AU) -1.295953830591E+03 DETOT -1.30E+03 tst  0.00E+00 PX  1.00E+00
 TTTTTTTTTTTTTTTTTTTTTTTTTTTTTT DIIS        TELAPSE       12.73 TCPU      172.31
 TTTTTTTTTTTTTTTTTTTTTTTTTTTTTT FDIK        TELAPSE       13.23 TCPU      188.32
 INSULATING STATE
 TOP OF VALENCE BANDS -    BAND     99; K    1; EIG -3.1442466E-01 AU
 BOTTOM OF VIRTUAL BANDS - BAND    100; K    1; EIG -1.5601040E-01 AU
 DIRECT ENERGY BAND GAP:   4.3107 eV
 TTTTTTTTTTTTTTTTTTTTTTTTTTTTTT PDIG        TELAPSE       13.55 TCPU      194.49
 CHARGE NORMALIZATION FACTOR   1.00000000
 TOTAL ATOMIC CHARGES:
   4.1632576   4.1662495   4.1665116   4.1660983   4.1658584   4.1628489
   0.7850694   0.7851857   0.7850274   0.7851510   0.7851638   0.7853291
   0.7851532   0.7852917   0.7850304   0.7852174   0.7850205   0.7851789
   6.0428970   6.2651732   6.2651400   6.2651019   6.2650635   6.0422191
   6.0436629   6.2651082   6.2651997   6.2650231   6.2652073   6.0424472
   6.0432713   6.2648650   6.2654350   6.2647972   6.2654174   6.0417591
   8.6913599   8.6915056   8.6912432   8.6918009   8.6916568   8.6920025
 TTTTTTTTTTTTTTTTTTTTTTTTTTTTTT MOQGAD      TELAPSE       13.58 TCPU      194.53
 TTTTTTTTTTTTTTTTTTTTTTTTTTTTTT SHELLXN     TELAPSE       17.99 TCPU      334.68
 TTTTTTTTTTTTTTTTTTTTTTTTTTTTTT MONMO3      TELAPSE       18.10 TCPU      338.38
 NUMERICALLY INTEGRATED DENSITY    197.9999849324
 TTTTTTTTTTTTTTTTTTTTTTTTTTTTTT NUMDFT      TELAPSE       18.61 TCPU      354.59
 CYC   1 ETOT(AU) -1.288808998531E+03 DETOT  7.14E+00 tst  0.00E+00 PX  1.00E+00
 TTTTTTTTTTTTTTTTTTTTTTTTTTTTTT DIIS        TELAPSE       18.65 TCPU      356.02
 DIIS TEST: 0.11149E+01 AT SCF   CYCLE   1 - MIX   30 %
 TTTTTTTTTTTTTTTTTTTTTTTTTTTTTT FDIK        TELAPSE       19.15 TCPU      371.89
 INSULATING STATE
 TOP OF VALENCE BANDS -    BAND     99; K    1; EIG -2.2626829E-01 AU
 BOTTOM OF VIRTUAL BANDS - BAND    100; K    1; EIG -7.9767121E-02 AU
 DIRECT ENERGY BAND GAP:   3.9865 eV
 TTTTTTTTTTTTTTTTTTTTTTTTTTTTTT PDIG        TELAPSE       19.46 TCPU      378.05
 CHARGE NORMALIZATION FACTOR   1.00000000
 TOTAL ATOMIC CHARGES:
   4.7174461   4.7087408   4.7090619   4.7090227   4.7087856   4.7178538
   0.9092733   0.9093364   0.9102730   0.9101850   0.9079604   0.9080992
   0.9080027   0.9080129   0.9102259   0.9102508   0.9092982   0.9093148
   5.8675396   6.1374782   6.1379782   6.1316272   6.1317251   5.8700700
   5.8768004   6.1280810   6.1290872   6.1284756   6.1289528   5.8803083
   5.8674816   6.1316669   6.1317513   6.1378629   6.1374407   5.8700818
   8.3334498   8.3337312   8.3303250   8.3333735   8.3299101   8.3336580
 TTTTTTTTTTTTTTTTTTTTTTTTTTTTTT MOQGAD      TELAPSE       19.50 TCPU      378.09
 TTTTTTTTTTTTTTTTTTTTTTTTTTTTTT SHELLXN     TELAPSE       23.90 TCPU      518.25
 TTTTTTTTTTTTTTTTTTTTTTTTTTTTTT MONMO3      TELAPSE       24.02 TCPU      521.95
 NUMERICALLY INTEGRATED DENSITY    197.9999772166
 TTTTTTTTTTTTTTTTTTTTTTTTTTTTTT NUMDFT      TELAPSE       24.53 TCPU      538.19
 CYC   2 ETOT(AU) -1.289004551015E+03 DETOT -1.96E-01 tst  3.69E-03 PX  1.58E-01
 TTTTTTTTTTTTTTTTTTTTTTTTTTTTTT DIIS        TELAPSE       24.57 TCPU      539.69
 DIIS TEST: 0.46110E+00 AT SCF   CYCLE   2 - DIIS ACTIVE - HISTORY:     2 CYCLES
 TTTTTTTTTTTTTTTTTTTTTTTTTTTTTT FDIK        TELAPSE       25.06 TCPU      555.41
 INSULATING STATE
 TOP OF VALENCE BANDS -    BAND     99; K    1; EIG -2.3960930E-01 AU
 BOTTOM OF VIRTUAL BANDS - BAND    100; K    1; EIG -7.4459793E-02 AU
 DIRECT ENERGY BAND GAP:   4.4939 eV
 TTTTTTTTTTTTTTTTTTTTTTTTTTTTTT PDIG        TELAPSE       25.38 TCPU      561.58
 CHARGE NORMALIZATION FACTOR   1.00000000
 TOTAL ATOMIC CHARGES:
   4.5083317   4.5035308   4.5038180   4.5036929   4.5033585   4.5083327
   0.8876228   0.8878247   0.8884184   0.8884123   0.8858277   0.8862275
   0.8859129   0.8860970   0.8883680   0.8884803   0.8877101   0.8877112
   5.8905533   6.1604815   6.1600140   6.1600924   6.1597817   5.8903314
   5.8894318   6.1606811   6.1601659   6.1606179   6.1602846   5.8886102
   5.8906069   6.1600792   6.1599075   6.1602322   6.1601606   5.8902353
   8.5087787   8.5090465   8.5108862   8.5089740   8.5111170   8.5092527
 TTTTTTTTTTTTTTTTTTTTTTTTTTTTTT MOQGAD      TELAPSE       25.42 TCPU      561.62
 TTTTTTTTTTTTTTTTTTTTTTTTTTTTTT SHELLXN     TELAPSE       29.82 TCPU      701.84
 TTTTTTTTTTTTTTTTTTTTTTTTTTTTTT MONMO3      TELAPSE       29.94 TCPU      705.53
 NUMERICALLY INTEGRATED DENSITY    197.9999789587
 TTTTTTTTTTTTTTTTTTTTTTTTTTTTTT NUMDFT      TELAPSE       30.44 TCPU      721.76
 CYC   3 ETOT(AU) -1.289099772724E+03 DETOT -9.52E-02 tst  6.87E-04 PX  6.39E-02
 TTTTTTTTTTTTTTTTTTTTTTTTTTTTTT DIIS        TELAPSE       30.50 TCPU      723.53
 DIIS TEST: 0.13267E-01 AT SCF   CYCLE   3 - DIIS ACTIVE - HISTORY:     3 CYCLES
 TTTTTTTTTTTTTTTTTTTTTTTTTTTTTT FDIK        TELAPSE       31.00 TCPU      739.37
 INSULATING STATE
 TOP OF VALENCE BANDS -    BAND     99; K    1; EIG -2.4919348E-01 AU
 BOTTOM OF VIRTUAL BANDS - BAND    100; K    1; EIG -8.3085500E-02 AU
 DIRECT ENERGY BAND GAP:   4.5200 eV
 TTTTTTTTTTTTTTTTTTTTTTTTTTTTTT PDIG        TELAPSE       31.31 TCPU      745.54
 CHARGE NORMALIZATION FACTOR   1.00000000
 TOTAL ATOMIC CHARGES:
   4.5139574   4.5085434   4.5088387   4.5086207   4.5082697   4.5139454
   0.8704767   0.8705307   0.8713890   0.8713754   0.8691106   0.8692459
   0.8691514   0.8691563   0.8713739   0.8714307   0.8705046   0.8704850
   5.9380869   6.1686330   6.1690791   6.1649104   6.1650268   5.9397959
   5.9434223   6.1633785   6.1642468   6.1636250   6.1641177   5.9458689
   5.9382394   6.1647779   6.1652290   6.1687784   6.1688260   5.9396060
   8.4771063   8.4772977   8.4745576   8.4771738   8.4744160   8.4773947
 TTTTTTTTTTTTTTTTTTTTTTTTTTTTTT MOQGAD      TELAPSE       31.35 TCPU      745.58
 TTTTTTTTTTTTTTTTTTTTTTTTTTTTTT SHELLXN     TELAPSE       35.75 TCPU      885.77
 TTTTTTTTTTTTTTTTTTTTTTTTTTTTTT MONMO3      TELAPSE       35.86 TCPU      889.47
 NUMERICALLY INTEGRATED DENSITY    197.9999793123
 TTTTTTTTTTTTTTTTTTTTTTTTTTTTTT NUMDFT      TELAPSE       36.37 TCPU      905.65
 CYC   4 ETOT(AU) -1.289102557697E+03 DETOT -2.78E-03 tst  2.75E-05 PX  1.35E-02
 TTTTTTTTTTTTTTTTTTTTTTTTTTTTTT DIIS        TELAPSE       36.43 TCPU      907.50
 DIIS TEST: 0.39991E-02 AT SCF   CYCLE   4 - DIIS ACTIVE - HISTORY:     4 CYCLES
 TTTTTTTTTTTTTTTTTTTTTTTTTTTTTT FDIK        TELAPSE       36.92 TCPU      923.15
 INSULATING STATE
 TOP OF VALENCE BANDS -    BAND     99; K    1; EIG -2.4736029E-01 AU
 BOTTOM OF VIRTUAL BANDS - BAND    100; K    1; EIG -8.2749860E-02 AU
 DIRECT ENERGY BAND GAP:   4.4793 eV
 TTTTTTTTTTTTTTTTTTTTTTTTTTTTTT PDIG        TELAPSE       37.23 TCPU      929.32
 CHARGE NORMALIZATION FACTOR   1.00000000
 TOTAL ATOMIC CHARGES:
   4.5167756   4.5104198   4.5107355   4.5106297   4.5102841   4.5168888
   0.8736425   0.8738064   0.8744830   0.8744978   0.8720217   0.8723559
   0.8720908   0.8722395   0.8744407   0.8745682   0.8737076   0.8737228
   5.9205483   6.1681306   6.1678805   6.1656646   6.1653252   5.9208060
   5.9236120   6.1649088   6.1647080   6.1649271   6.1647960   5.9237259
   5.9205591   6.1656433   6.1654426   6.1680022   6.1678996   5.9207413
   8.4863297   8.4866018   8.4866005   8.4864495   8.4866466   8.4867405
 TTTTTTTTTTTTTTTTTTTTTTTTTTTTTT MOQGAD      TELAPSE       37.27 TCPU      929.36
 TTTTTTTTTTTTTTTTTTTTTTTTTTTTTT SHELLXN     TELAPSE       41.67 TCPU     1069.49
 TTTTTTTTTTTTTTTTTTTTTTTTTTTTTT MONMO3      TELAPSE       41.79 TCPU     1073.18
 NUMERICALLY INTEGRATED DENSITY    197.9999793025
 TTTTTTTTTTTTTTTTTTTTTTTTTTTTTT NUMDFT      TELAPSE       42.29 TCPU     1089.37
 CYC   5 ETOT(AU) -1.289103473133E+03 DETOT -9.15E-04 tst  6.89E-06 PX  6.54E-03
 TTTTTTTTTTTTTTTTTTTTTTTTTTTTTT DIIS        TELAPSE       42.36 TCPU     1091.50
 DIIS TEST: 0.62926E-04 AT SCF   CYCLE   5 - DIIS ACTIVE - HISTORY:     5 CYCLES
 TTTTTTTTTTTTTTTTTTTTTTTTTTTTTT FDIK        TELAPSE       42.85 TCPU     1107.29
 INSULATING STATE
 TOP OF VALENCE BANDS -    BAND     99; K    1; EIG -2.4719799E-01 AU
 BOTTOM OF VIRTUAL BANDS - BAND    100; K    1; EIG -8.2175314E-02 AU
 DIRECT ENERGY BAND GAP:   4.4905 eV
 TTTTTTTTTTTTTTTTTTTTTTTTTTTTTT PDIG        TELAPSE       43.16 TCPU     1113.46
 CHARGE NORMALIZATION FACTOR   1.00000000
 TOTAL ATOMIC CHARGES:
   4.5161911   4.5105313   4.5108303   4.5106047   4.5102680   4.5161533
   0.8745347   0.8746150   0.8753738   0.8753361   0.8729977   0.8731811
   0.8730415   0.8730905   0.8753465   0.8753907   0.8745712   0.8745596
   5.9199324   6.1675017   6.1677767   6.1649013   6.1650598   5.9213477
   5.9224445   6.1640766   6.1647526   6.1642874   6.1646399   5.9242323
   5.9200977   6.1647966   6.1652571   6.1675751   6.1675949   5.9211362
   8.4862411   8.4864315   8.4851944   8.4863520   8.4851885   8.4865649
 TTTTTTTTTTTTTTTTTTTTTTTTTTTTTT MOQGAD      TELAPSE       43.20 TCPU     1113.50
 TTTTTTTTTTTTTTTTTTTTTTTTTTTTTT SHELLXN     TELAPSE       47.60 TCPU     1253.62
 TTTTTTTTTTTTTTTTTTTTTTTTTTTTTT MONMO3      TELAPSE       47.72 TCPU     1257.31
 NUMERICALLY INTEGRATED DENSITY    197.9999792688
 TTTTTTTTTTTTTTTTTTTTTTTTTTTTTT NUMDFT      TELAPSE       48.23 TCPU     1273.56
 CYC   6 ETOT(AU) -1.289103491827E+03 DETOT -1.87E-05 tst  1.67E-07 PX  9.42E-04
 TTTTTTTTTTTTTTTTTTTTTTTTTTTTTT DIIS        TELAPSE       48.29 TCPU     1275.69
 DIIS TEST: 0.47249E-05 AT SCF   CYCLE   6 - DIIS ACTIVE - HISTORY:     6 CYCLES
 TTTTTTTTTTTTTTTTTTTTTTTTTTTTTT FDIK        TELAPSE       48.78 TCPU     1291.38
 INSULATING STATE
 TOP OF VALENCE BANDS -    BAND     99; K    1; EIG -2.4717616E-01 AU
 BOTTOM OF VIRTUAL BANDS - BAND    100; K    1; EIG -8.2262512E-02 AU
 DIRECT ENERGY BAND GAP:   4.4875 eV
 TTTTTTTTTTTTTTTTTTTTTTTTTTTTTT PDIG        TELAPSE       49.10 TCPU     1297.55
 CHARGE NORMALIZATION FACTOR   1.00000000
 TOTAL ATOMIC CHARGES:
   4.5165522   4.5104510   4.5107629   4.5106653   4.5103174   4.5166561
   0.8744859   0.8746448   0.8753426   0.8753656   0.8728776   0.8732143
   0.8729500   0.8730943   0.8753016   0.8754342   0.8745534   0.8745588
   5.9207074   6.1674801   6.1672478   6.1650101   6.1646111   5.9209306
   5.9237939   6.1642279   6.1640082   6.1642309   6.1641093   5.9239499
   5.9207055   6.1649803   6.1647351   6.1673441   6.1672754   5.9208829
   8.4859409   8.4862194   8.4859683   8.4860634   8.4859869   8.4863627
 TTTTTTTTTTTTTTTTTTTTTTTTTTTTTT MOQGAD      TELAPSE       49.14 TCPU     1297.59
 TTTTTTTTTTTTTTTTTTTTTTTTTTTTTT SHELLXN     TELAPSE       53.54 TCPU     1437.68
 TTTTTTTTTTTTTTTTTTTTTTTTTTTTTT MONMO3      TELAPSE       53.65 TCPU     1441.39
 NUMERICALLY INTEGRATED DENSITY    197.9999792716
 TTTTTTTTTTTTTTTTTTTTTTTTTTTTTT NUMDFT      TELAPSE       54.16 TCPU     1457.61
 CYC   7 ETOT(AU) -1.289103491960E+03 DETOT -1.33E-07 tst  1.62E-08 PX  3.25E-04
 TTTTTTTTTTTTTTTTTTTTTTTTTTTTTT DIIS        TELAPSE       54.24 TCPU     1460.10
 DIIS TEST: 0.11609E-05 AT SCF   CYCLE   7 - DIIS ACTIVE - HISTORY:     7 CYCLES
 TTTTTTTTTTTTTTTTTTTTTTTTTTTTTT FDIK        TELAPSE       54.73 TCPU     1475.90
 INSULATING STATE
 TOP OF VALENCE BANDS -    BAND     99; K    1; EIG -2.4718822E-01 AU
 BOTTOM OF VIRTUAL BANDS - BAND    100; K    1; EIG -8.2264552E-02 AU
 DIRECT ENERGY BAND GAP:   4.4878 eV
 TTTTTTTTTTTTTTTTTTTTTTTTTTTTTT PDIG        TELAPSE       55.04 TCPU     1482.07
 CHARGE NORMALIZATION FACTOR   1.00000000
 TOTAL ATOMIC CHARGES:
   4.5165453   4.5105523   4.5108582   4.5106876   4.5103461   4.5165791
   0.8744731   0.8745934   0.8753270   0.8753107   0.8728938   0.8731479
   0.8729493   0.8730452   0.8752922   0.8753733   0.8745234   0.8745246
   5.9202873   6.1674603   6.1674840   6.1648780   6.1648201   5.9211778
   5.9231674   6.1640796   6.1643449   6.1642054   6.1643221   5.9241672
   5.9203862   6.1648151   6.1649766   6.1674425   6.1673929   5.9210301
   8.4861042   8.4863314   8.4857009   8.4862156   8.4857245   8.4864634
 TTTTTTTTTTTTTTTTTTTTTTTTTTTTTT MOQGAD      TELAPSE       55.08 TCPU     1482.11
 TTTTTTTTTTTTTTTTTTTTTTTTTTTTTT SHELLXN     TELAPSE       59.48 TCPU     1622.31
 +++ ENERGIES IN A.U. +++
 ::: EXT EL-POLE                                  -1.1916953633532E+03
 ::: EXT EL-SPHEROPOLE                             1.2694219920612E+01
 ::: BIELET ZONE E-E                               1.9240063334896E+03
 ::: TOTAL E-E                                     7.4500519005700E+02
 ::: TOTAL E-N + N-E                              -3.3228285674656E+03
 ::: TOTAL N-N                                     1.4248482492143E+02
 ::: KINETIC ENERGY                                1.2799570308556E+03
 ::: PSEUDO TOTAL   ENERGY                        -1.1553815216315E+03
 ::: VIRIAL COEFFICIENT                            1.0511532612568E+00
 TTTTTTTTTTTTTTTTTTTTTTTTTTTTTT MONMO3      TELAPSE       59.60 TCPU     1626.01
 NUMERICALLY INTEGRATED DENSITY    197.9999792703
 EXCHANGE ENERGY: -0.126032247581E+03  CORRELATION ENERGY: -0.768972300703E+01
 TTTTTTTTTTTTTTTTTTTTTTTTTTTTTT NUMDFT      TELAPSE       60.11 TCPU     1642.24
 CYC   8 ETOT(AU) -1.289103492220E+03 DETOT -2.60E-07 tst  4.42E-09 PX  3.25E-04

 == SCF ENDED - CONVERGENCE ON ENERGY      E(AU) -1.2891034922200E+03 CYCLES   8


 ENERGY EXPRESSION=HARTREE+FOCK EXCH*0.00000+(HSESOL     EXCH)*1.00000+PBESOL     CORR


 TOTAL ENERGY(DFT)(AU)(  8) -1.2891034922200E+03 DE-2.6E-07 tester 4.4E-09
 TTTTTTTTTTTTTTTTTTTTTTTTTTTTTT EDFT        TELAPSE       60.11 TCPU     1642.25
 
 INFORMATION **** DFTD3 ENERGY **** CALCULATE DFTD3 ENERGY

           DFT-D V3(BJ)
 DF                                         hsesol3c  
 parameters
 s6       :    1.0000
 s8       :    0.0000
 a1       :    0.5196
 a2       :    4.9385
 k1 k3    :   16.0000   -4.0000
 Cutoff   :   50.2022
 CN-Cutoff:   21.1671
 ABC-Cutoff:   21.1671
 
 Edisp /kcal,au:   -20.9961 -0.03345942

 E6    /kcal :   -21.8987
 E8    /kcal :     0.0000
 E6(ABC) "   :   0.902569
 
 INFORMATION **** DFTD3 ENERGY **** NORMAL TERMINATION OF DFTD3 MODULE

 GCP ENERGY CALCULATION
  level        hsesol3c            basis:hsesol3c
  Nbf            474
  Atoms           42

  Parameters: 
  sigma     1.0000
  eta       1.4281
  alpha     0.2936
  beta      1.9467

  dmp_scal      4.0000
  dmp_exp       6.0000
 cutoffs: 
   distance [bohr] 60.0
   noise    [a.u.] 2.2E-16
 SR-damping   T
 ** gCP correction **
  Egcp:        0.0829191135 / (a.u.) ||      52.0325 / (kcal/mol)
 INFORMATION **** GCP **** NORMAL TERMINATION OF GCP MODULE

 *******************************************************************************

 DFT-D3-GCP DISPERSION AND COUNTERPOISE CORRECTION

 D3 DISPERSION ENERGY (AU)      -3.3459421581324E-02
 GCP ENERGY (AU)                 8.2919113500616E-02
 TOTAL ENERGY + DISP + GCP (AU) -1.2890540325281E+03

 *******************************************************************************

 EIGENVECTORS IN FORTRAN UNIT  8
 TTTTTTTTTTTTTTTTTTTTTTTTTTTTTT END         TELAPSE       61.27 TCPU     1649.36
 EEEEEEEEEE TERMINATION  DATE 19 02 2026 TIME 19:24:45.2
