 Default number of threads is:           32

         
 *******************************************************************************
 *                                                                             *
 *                               CRYSTAL23                                     *
 *                      public : 1.0.1 - October 2022                          *
 *                       HTTP://WWW.CRYSTAL.UNITO.IT                           *
 *                                                                             *
 *                              MAIN AUTHORS                                   *
 *                                                                             *
 *  R. DOVESI(1,11), V.R. SAUNDERS(2), C. ROETTI(1,11), R. ORLANDO(1,11),      *
 *  C.M. ZICOVICH-WILSON(1,3), F. PASCALE(4), B. CIVALLERI(1,11),              *
 *  K. DOLL(5), N.M. HARRISON(6), I.J. BUSH(7), Ph. D'ARCO(8),                 *
 *  M. LLUNELL(9), M. CAUSA'(10), Y. NOEL(8), L. MASCHIO(1,11), A. ERBA(1,11)  *
 *  M. RE'RAT(14), S. CASASSA(1,11), B.G. SEARLE(2), J.K. DESMARAIS(1)         *
 *                                                                             *
 *        CONTRIBUTIONS TO THE CODE HAVE ALSO BEEN GIVEN BY                    *
 *                                                                             *
 *  M. FERRABONE(1,11), M. DE LA PIERRE(1,11), M. FERRERO(1,11),               *
 *  J. BAIMA(1,11), E. ALBANESE(1,11), M.F. PEINTINGER(12), R. BAST(13),       *
 *  B. KIRTMAN(15), V. LACIVITA(1,11), R. DEMICHELIS(1,16)                     *
 *  G. BRANDEBURG(17), S. SALUSTRO(1,11), G. SANSONE(1,11)                     *
 *  M.T. RUGGIERO(18), L.E. DAGA(1), L. DONA'(1), A. COSSARD(1)                *
 *                                                                             *
 * (1) THEORETICAL CHEMISTRY GROUP - UNIVERSITA' DI TORINO - TORINO (ITALY)    *
 * (2) SCIENTIFIC COMPUTING DEPARTMENT - STFC DARESBURY (UK)                   *
 * (3) UNIVERSIDAD AUTONOMA DEL ESTADO DE MORELOS - CUERNAVACA (MEXICO)        *
 * (4) UNIVERSITE' DE LORRAINE - NANCY (FRANCE)                                *
 * (5) UNIVERSITAET STUTTGART- STUTTGART (GERMANY)                             *
 * (6) IMPERIAL COLLEGE - LONDON (UK)                                          *
 * (7) SCIENTIFIC COMPUTING DEPARTMENT - STFC RAL (UK)                         *
 * (8) UPMC - SORBONNE UNIVERSITES - PARIS (FRANCE)                            *
 * (9) UNIVERSIDAD DE BARCELONA - BARCELONA (SPAIN)                            *
 *(10) UNIVERSITA' DI NAPOLI "FEDERICO II" - NAPOLI (ITALY)                    *
 *(11) NIS - NANOSTRUCTURED INTERFACES AND SURFACES - TORINO (ITALY)           *
 *(12) MPI FUER CHEMISCHE ENERGIEKONVERSION - MUELHEIM AN DER RUHR (GERMANY)   *
 *(13) UNIVERSITY OF TROMSO - TROMSO (NORWAY)                                  *
 *(14) UNIVERSITE' DE PAU ET DES PAYS DE L'ADOUR - PAU (FRANCE)                *
 *(15) UNIVERSITY OF CALIFORNIA SANTA BARBARA - SANTA BARBARA (USA)            *
 *(16) CURTIN UNIVERSITY - PERTH (AUSTRALIA)                                   *
 *(17) UNIVERSITY COLLEGE LONDON - LONDON (UK)                                 *
 *(18) UNIVERSITY OF VERMONT - BURLINGTON (USA)                                *
 *                                                                             *
 *******************************************************************************
 EEEEEEEEEE STARTING  DATE 19 02 2026 TIME 20:26:57.7
 cof-1_z42_L060_serr                                                             

 CRYSTAL CALCULATION
 (INPUT ACCORDING TO THE INTERNATIONAL TABLES FOR X-RAY CRYSTALLOGRAPHY)
 CRYSTAL FAMILY                       :  TRICLINIC   
 CRYSTAL CLASS  (GROTH - 1921)        :  TRICLINIC PEDIAL                     

 SPACE GROUP (NONCENTROSYMMETRIC)     :  P 1             

 LATTICE PARAMETERS  (ANGSTROMS AND DEGREES) - CONVENTIONAL CELL
        A           B           C        ALPHA        BETA       GAMMA
    15.02361    15.02392     8.40000    90.00032    89.99994   119.99596


 NUMBER OF IRREDUCIBLE ATOMS IN THE CONVENTIONAL CELL:   84

 INPUT COORDINATES

 ATOM AT. N.              COORDINATES
   1   5     6.136805400000E-01  2.273182200000E-01  2.505686600000E-01
   2   5     8.442202100000E-01  6.884444200000E-01  7.505686600000E-01
   3   5     7.727362000000E-01  3.863778800000E-01  2.505686700000E-01
   4   5     3.275870000000E-03  8.475040800000E-01  7.505686600000E-01
   5   5     6.136762700000E-01  3.863606700000E-01  2.493730400000E-01
   6   5     8.442159400000E-01  8.474868700000E-01  7.493730400000E-01
   7   5     2.272552500000E-01  6.136332200000E-01  2.505686700000E-01
   8   5     4.577949200000E-01  7.475942000000E-02  7.505686600000E-01
   9   5     3.863632200000E-01  6.136124500000E-01  2.505686600000E-01
  10   5     6.169028900000E-01  7.473865000000E-02  7.505686600000E-01
  11   5     3.863435000000E-01  7.727516500000E-01  2.493730400000E-01
  12   5     6.168831700000E-01  2.338778500000E-01  7.493730500000E-01
  13   1     9.030436200000E-01  3.089300500000E-01  2.480899000000E-01
  14   1     1.335832900000E-01  7.700562500000E-01  7.480899100000E-01
  15   1     9.663453000000E-02  6.910534400000E-01  2.477108700000E-01
  16   1     3.271742000000E-01  1.521796400000E-01  7.477108600000E-01
  17   1     9.029714200000E-01  5.940724300000E-01  2.476525200000E-01
  18   1     1.335110900000E-01  5.519863000000E-02  7.476525300000E-01
  19   1     9.673618000000E-02  4.056849400000E-01  2.476670700000E-01
  20   1     3.272758500000E-01  8.668111400000E-01  7.476670700000E-01
  21   1     6.910324000000E-01  9.700412000000E-02  2.519101100000E-01
  22   1     9.215720700000E-01  5.581303200000E-01  7.519101100000E-01
  23   1     3.089297200000E-01  9.034373100000E-01  2.522891800000E-01
  24   1     5.394693900000E-01  3.645635100000E-01  7.522891800000E-01
  25   1     4.058699900000E-01  9.704998000000E-02  2.523475500000E-01
  26   1     6.364096600000E-01  5.581761800000E-01  7.523475500000E-01
  27   1     5.943122100000E-01  9.033473200000E-01  2.523329000000E-01
  28   1     8.248518800000E-01  3.644735200000E-01  7.523329000000E-01
  29   1     6.910727400000E-01  5.940542100000E-01  2.480899300000E-01
  30   1     9.216124100000E-01  5.518041000000E-02  7.480899300000E-01
  31   1     3.089618300000E-01  4.056093300000E-01  2.477108400000E-01
  32   1     5.395015000000E-01  8.667355300000E-01  7.477108400000E-01
  33   1     4.058405700000E-01  3.088232500000E-01  2.476524800000E-01
  34   1     6.363802400000E-01  7.699494500000E-01  7.476524800000E-01
  35   1     5.942908800000E-01  6.909579300000E-01  2.476671200000E-01
  36   1     8.248305500000E-01  1.520841300000E-01  7.476671200000E-01
  37   6     8.918903100000E-01  4.459436900000E-01  2.493293000000E-01
  38   6     1.224299800000E-01  9.070698900000E-01  7.493293000000E-01
  39   6     9.464891100000E-01  3.927856300000E-01  2.481482400000E-01
  40   6     1.770287800000E-01  8.539118300000E-01  7.481482400000E-01
  41   6     5.338812000000E-02  6.071853000000E-01  2.480462100000E-01
  42   6     2.839277900000E-01  6.831150000000E-02  7.480462100000E-01
  43   6     9.464521100000E-01  5.536921900000E-01  2.483524000000E-01
  44   6     1.769917800000E-01  1.481839000000E-02  7.483524000000E-01
  45   6     5.342634000000E-02  4.462499700000E-01  2.475650100000E-01
  46   6     2.839660100000E-01  9.073761700000E-01  7.475650100000E-01
  47   6     1.080358900000E-01  5.540356300000E-01  2.483669700000E-01
  48   6     3.385755600000E-01  1.516183000000E-02  7.483669700000E-01
  49   6     5.540394200000E-01  1.081684600000E-01  2.506707300000E-01
  50   6     7.845790900000E-01  5.692946600000E-01  7.506707300000E-01
  51   6     6.071778500000E-01  5.355594000000E-02  2.518517700000E-01
  52   6     8.377175200000E-01  5.146821400000E-01  7.518517700000E-01
  53   6     3.927986700000E-01  9.466631600000E-01  2.519538400000E-01
  54   6     6.233383400000E-01  4.077893600000E-01  7.519538400000E-01
  55   6     4.462875800000E-01  5.360286000000E-02  2.516476600000E-01
  56   6     6.768272500000E-01  5.147290600000E-01  7.516476500000E-01
  57   6     5.537168500000E-01  9.466235600000E-01  2.524349900000E-01
  58   6     7.842565200000E-01  4.077497600000E-01  7.524349900000E-01
  59   6     4.459279100000E-01  8.919920600000E-01  2.516330500000E-01
  60   6     6.764675800000E-01  3.531182600000E-01  7.516330500000E-01
  61   6     5.540448700000E-01  4.458745500000E-01  2.493293000000E-01
  62   6     7.845845400000E-01  9.070007500000E-01  7.493293000000E-01
  63   6     6.072102200000E-01  5.536257800000E-01  2.481482600000E-01
  64   6     8.377498900000E-01  1.475198000000E-02  7.481482600000E-01
  65   6     3.928233700000E-01  4.461720300000E-01  2.480461900000E-01
  66   6     6.233630400000E-01  9.072982300000E-01  7.480461900000E-01
  67   6     4.462872600000E-01  3.926899900000E-01  2.483523700000E-01
  68   6     6.768269300000E-01  8.538161900000E-01  7.483523700000E-01
  69   6     5.537429600000E-01  6.070980000000E-01  2.475650500000E-01
  70   6     7.842826300000E-01  6.822420000000E-02  7.475650400000E-01
  71   6     4.459599800000E-01  5.539582300000E-01  2.483669700000E-01
  72   6     6.764996500000E-01  1.508443000000E-02  7.483669700000E-01
  73   8     5.607366800000E-01  2.803706300000E-01  2.496938200000E-01
  74   8     7.912763500000E-01  7.414968300000E-01  7.496938100000E-01
  75   8     7.196817000000E-01  2.803783300000E-01  2.522162800000E-01
  76   8     9.502213700000E-01  7.415045300000E-01  7.522162800000E-01
  77   8     7.196794200000E-01  4.393234600000E-01  2.484107200000E-01
  78   8     9.502190900000E-01  9.004496600000E-01  7.484107200000E-01
  79   8     2.803245100000E-01  7.196511100000E-01  2.496938300000E-01
  80   8     5.108641800000E-01  1.807773100000E-01  7.496938300000E-01
  81   8     2.803439700000E-01  5.606956100000E-01  2.522162700000E-01
  82   8     5.108836400000E-01  2.182181000000E-02  7.522162700000E-01
  83   8     4.392638400000E-01  7.196354200000E-01  2.484107200000E-01
  84   8     6.698035100000E-01  1.807616200000E-01  7.484107200000E-01

 *******************************************************************************

 << INFORMATION >>: FROM NOW ON, ALL COORDINATES REFER TO THE PRIMITIVE CELL

 *******************************************************************************

 LATTICE PARAMETERS  (ANGSTROMS AND DEGREES) - PRIMITIVE CELL
       A          B          C        ALPHA      BETA     GAMMA        VOLUME
   15.02361   15.02392    8.40000    90.00032  89.99994 119.99596   1642.045003

 COORDINATES OF THE EQUIVALENT ATOMS (FRACTIONAL UNITS)

 N. ATOM EQUIV AT. N.          X                  Y                  Z

   1   1   1    5 B    -3.86319460000E-01  2.27318220000E-01  2.50568660000E-01

   2   2   1    5 B    -1.55779790000E-01 -3.11555580000E-01 -2.49431340000E-01

   3   3   1    5 B    -2.27263800000E-01  3.86377880000E-01  2.50568670000E-01

   4   4   1    5 B     3.27587000000E-03 -1.52495920000E-01 -2.49431340000E-01

   5   5   1    5 B    -3.86323730000E-01  3.86360670000E-01  2.49373040000E-01

   6   6   1    5 B    -1.55784060000E-01 -1.52513130000E-01 -2.50626960000E-01

   7   7   1    5 B     2.27255250000E-01 -3.86366780000E-01  2.50568670000E-01

   8   8   1    5 B     4.57794920000E-01  7.47594200000E-02 -2.49431340000E-01

   9   9   1    5 B     3.86363220000E-01 -3.86387550000E-01  2.50568660000E-01

  10  10   1    5 B    -3.83097110000E-01  7.47386500000E-02 -2.49431340000E-01

  11  11   1    5 B     3.86343500000E-01 -2.27248350000E-01  2.49373040000E-01

  12  12   1    5 B    -3.83116830000E-01  2.33877850000E-01 -2.50626950000E-01

  13  13   1    1 H    -9.69563800000E-02  3.08930050000E-01  2.48089900000E-01

  14  14   1    1 H     1.33583290000E-01 -2.29943750000E-01 -2.51910090000E-01

  15  15   1    1 H     9.66345300000E-02 -3.08946560000E-01  2.47710870000E-01

  16  16   1    1 H     3.27174200000E-01  1.52179640000E-01 -2.52289140000E-01

  17  17   1    1 H    -9.70285800000E-02 -4.05927570000E-01  2.47652520000E-01

  18  18   1    1 H     1.33511090000E-01  5.51986300000E-02 -2.52347470000E-01

  19  19   1    1 H     9.67361800000E-02  4.05684940000E-01  2.47667070000E-01

  20  20   1    1 H     3.27275850000E-01 -1.33188860000E-01 -2.52332930000E-01

  21  21   1    1 H    -3.08967600000E-01  9.70041200000E-02  2.51910110000E-01

  22  22   1    1 H    -7.84279300000E-02 -4.41869680000E-01 -2.48089890000E-01

  23  23   1    1 H     3.08929720000E-01 -9.65626900000E-02  2.52289180000E-01

  24  24   1    1 H    -4.60530610000E-01  3.64563510000E-01 -2.47710820000E-01

  25  25   1    1 H     4.05869990000E-01  9.70499800000E-02  2.52347550000E-01

  26  26   1    1 H    -3.63590340000E-01 -4.41823820000E-01 -2.47652450000E-01

  27  27   1    1 H    -4.05687790000E-01 -9.66526800000E-02  2.52332900000E-01

  28  28   1    1 H    -1.75148120000E-01  3.64473520000E-01 -2.47667100000E-01

  29  29   1    1 H    -3.08927260000E-01 -4.05945790000E-01  2.48089930000E-01

  30  30   1    1 H    -7.83875900000E-02  5.51804100000E-02 -2.51910070000E-01

  31  31   1    1 H     3.08961830000E-01  4.05609330000E-01  2.47710840000E-01

  32  32   1    1 H    -4.60498500000E-01 -1.33264470000E-01 -2.52289160000E-01

  33  33   1    1 H     4.05840570000E-01  3.08823250000E-01  2.47652480000E-01

  34  34   1    1 H    -3.63619760000E-01 -2.30050550000E-01 -2.52347520000E-01

  35  35   1    1 H    -4.05709120000E-01 -3.09042070000E-01  2.47667120000E-01

  36  36   1    1 H    -1.75169450000E-01  1.52084130000E-01 -2.52332880000E-01

  37  37   1    6 C    -1.08109690000E-01  4.45943690000E-01  2.49329300000E-01

  38  38   1    6 C     1.22429980000E-01 -9.29301100000E-02 -2.50670700000E-01

  39  39   1    6 C    -5.35108900000E-02  3.92785630000E-01  2.48148240000E-01

  40  40   1    6 C     1.77028780000E-01 -1.46088170000E-01 -2.51851760000E-01

  41  41   1    6 C     5.33881200000E-02 -3.92814700000E-01  2.48046210000E-01

  42  42   1    6 C     2.83927790000E-01  6.83115000000E-02 -2.51953790000E-01

  43  43   1    6 C    -5.35478900000E-02 -4.46307810000E-01  2.48352400000E-01

  44  44   1    6 C     1.76991780000E-01  1.48183900000E-02 -2.51647600000E-01

  45  45   1    6 C     5.34263400000E-02  4.46249970000E-01  2.47565010000E-01

  46  46   1    6 C     2.83966010000E-01 -9.26238300000E-02 -2.52434990000E-01

  47  47   1    6 C     1.08035890000E-01 -4.45964370000E-01  2.48366970000E-01

  48  48   1    6 C     3.38575560000E-01  1.51618300000E-02 -2.51633030000E-01

  49  49   1    6 C    -4.45960580000E-01  1.08168460000E-01  2.50670730000E-01

  50  50   1    6 C    -2.15420910000E-01 -4.30705340000E-01 -2.49329270000E-01

  51  51   1    6 C    -3.92822150000E-01  5.35559400000E-02  2.51851770000E-01

  52  52   1    6 C    -1.62282480000E-01 -4.85317860000E-01 -2.48148230000E-01

  53  53   1    6 C     3.92798670000E-01 -5.33368400000E-02  2.51953840000E-01

  54  54   1    6 C    -3.76661660000E-01  4.07789360000E-01 -2.48046160000E-01

  55  55   1    6 C     4.46287580000E-01  5.36028600000E-02  2.51647660000E-01

  56  56   1    6 C    -3.23172750000E-01 -4.85270940000E-01 -2.48352350000E-01

  57  57   1    6 C    -4.46283150000E-01 -5.33764400000E-02  2.52434990000E-01

  58  58   1    6 C    -2.15743480000E-01  4.07749760000E-01 -2.47565010000E-01

  59  59   1    6 C     4.45927910000E-01 -1.08007940000E-01  2.51633050000E-01

  60  60   1    6 C    -3.23532420000E-01  3.53118260000E-01 -2.48366950000E-01

  61  61   1    6 C    -4.45955130000E-01  4.45874550000E-01  2.49329300000E-01

  62  62   1    6 C    -2.15415460000E-01 -9.29992500000E-02 -2.50670700000E-01

  63  63   1    6 C    -3.92789780000E-01 -4.46374220000E-01  2.48148260000E-01

  64  64   1    6 C    -1.62250110000E-01  1.47519800000E-02 -2.51851740000E-01

  65  65   1    6 C     3.92823370000E-01  4.46172030000E-01  2.48046190000E-01

  66  66   1    6 C    -3.76636960000E-01 -9.27017700000E-02 -2.51953810000E-01

  67  67   1    6 C     4.46287260000E-01  3.92689990000E-01  2.48352370000E-01

  68  68   1    6 C    -3.23173070000E-01 -1.46183810000E-01 -2.51647630000E-01

  69  69   1    6 C    -4.46257040000E-01 -3.92902000000E-01  2.47565050000E-01

  70  70   1    6 C    -2.15717370000E-01  6.82242000000E-02 -2.52434960000E-01

  71  71   1    6 C     4.45959980000E-01 -4.46041770000E-01  2.48366970000E-01

  72  72   1    6 C    -3.23500350000E-01  1.50844300000E-02 -2.51633030000E-01

  73  73   1    8 O    -4.39263320000E-01  2.80370630000E-01  2.49693820000E-01

  74  74   1    8 O    -2.08723650000E-01 -2.58503170000E-01 -2.50306190000E-01

  75  75   1    8 O    -2.80318300000E-01  2.80378330000E-01  2.52216280000E-01

  76  76   1    8 O    -4.97786300000E-02 -2.58495470000E-01 -2.47783720000E-01

  77  77   1    8 O    -2.80320580000E-01  4.39323460000E-01  2.48410720000E-01

  78  78   1    8 O    -4.97809100000E-02 -9.95503400000E-02 -2.51589280000E-01

  79  79   1    8 O     2.80324510000E-01 -2.80348890000E-01  2.49693830000E-01

  80  80   1    8 O    -4.89135820000E-01  1.80777310000E-01 -2.50306170000E-01

  81  81   1    8 O     2.80343970000E-01 -4.39304390000E-01  2.52216270000E-01

  82  82   1    8 O    -4.89116360000E-01  2.18218100000E-02 -2.47783730000E-01

  83  83   1    8 O     4.39263840000E-01 -2.80364580000E-01  2.48410720000E-01

  84  84   1    8 O    -3.30196490000E-01  1.80761620000E-01 -2.51589280000E-01

 NUMBER OF SYMMETRY OPERATORS         :    1
 *******************************************************************************
 * GEOMETRY EDITING - INPUT COORDINATES ARE GIVEN IN ANGSTROM         
 *******************************************************************************

 GCALCO - MAX INDICES DIRECT LATTICE VECTOR    12    12    20
 NO.OF VECTORS CREATED 6999 STARS 3500 RMAX   264.54886 BOHR

 GEOMETRY FOR WAVE FUNCTION - DIMENSIONALITY OF THE SYSTEM    3
 (NON PERIODIC DIRECTION: LATTICE PARAMETER FORMALLY SET TO 500)
 *******************************************************************************
 LATTICE PARAMETERS (ANGSTROMS AND DEGREES) - BOHR = 0.5291772083 ANGSTROM
 PRIMITIVE CELL - CENTRING CODE 1/0 VOLUME=  1642.045003 - DENSITY  0.789 g/cm^3
         A              B              C           ALPHA      BETA       GAMMA 
    15.02361100    15.02391600     8.40000000    90.000323  89.999944 119.995964
 *******************************************************************************
 ATOMS IN THE ASYMMETRIC UNIT   84 - ATOMS IN THE UNIT CELL:   84
     ATOM                 X/A                 Y/B                 Z/C    
 *******************************************************************************
      1 T   5 B    -3.863194600000E-01  2.273182200000E-01  2.505686600000E-01
      2 T   5 B    -1.557797900000E-01 -3.115555800000E-01 -2.494313400000E-01
      3 T   5 B    -2.272638000000E-01  3.863778800000E-01  2.505686700000E-01
      4 T   5 B     3.275870000000E-03 -1.524959200000E-01 -2.494313400000E-01
      5 T   5 B    -3.863237300000E-01  3.863606700000E-01  2.493730400000E-01
      6 T   5 B    -1.557840600000E-01 -1.525131300000E-01 -2.506269600000E-01
      7 T   5 B     2.272552500000E-01 -3.863667800000E-01  2.505686700000E-01
      8 T   5 B     4.577949200000E-01  7.475942000000E-02 -2.494313400000E-01
      9 T   5 B     3.863632200000E-01 -3.863875500000E-01  2.505686600000E-01
     10 T   5 B    -3.830971100000E-01  7.473865000000E-02 -2.494313400000E-01
     11 T   5 B     3.863435000000E-01 -2.272483500000E-01  2.493730400000E-01
     12 T   5 B    -3.831168300000E-01  2.338778500000E-01 -2.506269500000E-01
     13 T   1 H    -9.695638000000E-02  3.089300500000E-01  2.480899000000E-01
     14 T   1 H     1.335832900000E-01 -2.299437500000E-01 -2.519100900000E-01
     15 T   1 H     9.663453000000E-02 -3.089465600000E-01  2.477108700000E-01
     16 T   1 H     3.271742000000E-01  1.521796400000E-01 -2.522891400000E-01
     17 T   1 H    -9.702858000000E-02 -4.059275700000E-01  2.476525200000E-01
     18 T   1 H     1.335110900000E-01  5.519863000000E-02 -2.523474700000E-01
     19 T   1 H     9.673618000000E-02  4.056849400000E-01  2.476670700000E-01
     20 T   1 H     3.272758500000E-01 -1.331888600000E-01 -2.523329300000E-01
     21 T   1 H    -3.089676000000E-01  9.700412000000E-02  2.519101100000E-01
     22 T   1 H    -7.842793000000E-02 -4.418696800000E-01 -2.480898900000E-01
     23 T   1 H     3.089297200000E-01 -9.656269000000E-02  2.522891800000E-01
     24 T   1 H    -4.605306100000E-01  3.645635100000E-01 -2.477108200000E-01
     25 T   1 H     4.058699900000E-01  9.704998000000E-02  2.523475500000E-01
     26 T   1 H    -3.635903400000E-01 -4.418238200000E-01 -2.476524500000E-01
     27 T   1 H    -4.056877900000E-01 -9.665268000000E-02  2.523329000000E-01
     28 T   1 H    -1.751481200000E-01  3.644735200000E-01 -2.476671000000E-01
     29 T   1 H    -3.089272600000E-01 -4.059457900000E-01  2.480899300000E-01
     30 T   1 H    -7.838759000000E-02  5.518041000000E-02 -2.519100700000E-01
     31 T   1 H     3.089618300000E-01  4.056093300000E-01  2.477108400000E-01
     32 T   1 H    -4.604985000000E-01 -1.332644700000E-01 -2.522891600000E-01
     33 T   1 H     4.058405700000E-01  3.088232500000E-01  2.476524800000E-01
     34 T   1 H    -3.636197600000E-01 -2.300505500000E-01 -2.523475200000E-01
     35 T   1 H    -4.057091200000E-01 -3.090420700000E-01  2.476671200000E-01
     36 T   1 H    -1.751694500000E-01  1.520841300000E-01 -2.523328800000E-01
     37 T   6 C    -1.081096900000E-01  4.459436900000E-01  2.493293000000E-01
     38 T   6 C     1.224299800000E-01 -9.293011000000E-02 -2.506707000000E-01
     39 T   6 C    -5.351089000000E-02  3.927856300000E-01  2.481482400000E-01
     40 T   6 C     1.770287800000E-01 -1.460881700000E-01 -2.518517600000E-01
     41 T   6 C     5.338812000000E-02 -3.928147000000E-01  2.480462100000E-01
     42 T   6 C     2.839277900000E-01  6.831150000000E-02 -2.519537900000E-01
     43 T   6 C    -5.354789000000E-02 -4.463078100000E-01  2.483524000000E-01
     44 T   6 C     1.769917800000E-01  1.481839000000E-02 -2.516476000000E-01
     45 T   6 C     5.342634000000E-02  4.462499700000E-01  2.475650100000E-01
     46 T   6 C     2.839660100000E-01 -9.262383000000E-02 -2.524349900000E-01
     47 T   6 C     1.080358900000E-01 -4.459643700000E-01  2.483669700000E-01
     48 T   6 C     3.385755600000E-01  1.516183000000E-02 -2.516330300000E-01
     49 T   6 C    -4.459605800000E-01  1.081684600000E-01  2.506707300000E-01
     50 T   6 C    -2.154209100000E-01 -4.307053400000E-01 -2.493292700000E-01
     51 T   6 C    -3.928221500000E-01  5.355594000000E-02  2.518517700000E-01
     52 T   6 C    -1.622824800000E-01 -4.853178600000E-01 -2.481482300000E-01
     53 T   6 C     3.927986700000E-01 -5.333684000000E-02  2.519538400000E-01
     54 T   6 C    -3.766616600000E-01  4.077893600000E-01 -2.480461600000E-01
     55 T   6 C     4.462875800000E-01  5.360286000000E-02  2.516476600000E-01
     56 T   6 C    -3.231727500000E-01 -4.852709400000E-01 -2.483523500000E-01
     57 T   6 C    -4.462831500000E-01 -5.337644000000E-02  2.524349900000E-01
     58 T   6 C    -2.157434800000E-01  4.077497600000E-01 -2.475650100000E-01
     59 T   6 C     4.459279100000E-01 -1.080079400000E-01  2.516330500000E-01
     60 T   6 C    -3.235324200000E-01  3.531182600000E-01 -2.483669500000E-01
     61 T   6 C    -4.459551300000E-01  4.458745500000E-01  2.493293000000E-01
     62 T   6 C    -2.154154600000E-01 -9.299925000000E-02 -2.506707000000E-01
     63 T   6 C    -3.927897800000E-01 -4.463742200000E-01  2.481482600000E-01
     64 T   6 C    -1.622501100000E-01  1.475198000000E-02 -2.518517400000E-01
     65 T   6 C     3.928233700000E-01  4.461720300000E-01  2.480461900000E-01
     66 T   6 C    -3.766369600000E-01 -9.270177000000E-02 -2.519538100000E-01
     67 T   6 C     4.462872600000E-01  3.926899900000E-01  2.483523700000E-01
     68 T   6 C    -3.231730700000E-01 -1.461838100000E-01 -2.516476300000E-01
     69 T   6 C    -4.462570400000E-01 -3.929020000000E-01  2.475650500000E-01
     70 T   6 C    -2.157173700000E-01  6.822420000000E-02 -2.524349600000E-01
     71 T   6 C     4.459599800000E-01 -4.460417700000E-01  2.483669700000E-01
     72 T   6 C    -3.235003500000E-01  1.508443000000E-02 -2.516330300000E-01
     73 T   8 O    -4.392633200000E-01  2.803706300000E-01  2.496938200000E-01
     74 T   8 O    -2.087236500000E-01 -2.585031700000E-01 -2.503061900000E-01
     75 T   8 O    -2.803183000000E-01  2.803783300000E-01  2.522162800000E-01
     76 T   8 O    -4.977863000000E-02 -2.584954700000E-01 -2.477837200000E-01
     77 T   8 O    -2.803205800000E-01  4.393234600000E-01  2.484107200000E-01
     78 T   8 O    -4.978091000000E-02 -9.955034000000E-02 -2.515892800000E-01
     79 T   8 O     2.803245100000E-01 -2.803488900000E-01  2.496938300000E-01
     80 T   8 O    -4.891358200000E-01  1.807773100000E-01 -2.503061700000E-01
     81 T   8 O     2.803439700000E-01 -4.393043900000E-01  2.522162700000E-01
     82 T   8 O    -4.891163600000E-01  2.182181000000E-02 -2.477837300000E-01
     83 T   8 O     4.392638400000E-01 -2.803645800000E-01  2.484107200000E-01
     84 T   8 O    -3.301964900000E-01  1.807616200000E-01 -2.515892800000E-01

 T = ATOM BELONGING TO THE ASYMMETRIC UNIT

 ****    1 SYMMOPS - TRANSLATORS IN FRACTIONAL UNITS
 **** MATRICES AND TRANSLATORS IN THE CRYSTALLOGRAPHIC REFERENCE FRAME
   V INV                    ROTATION MATRICES                   TRANSLATORS
   1   1  1.00  0.00  0.00  0.00  1.00  0.00 -0.00  0.00  1.00  0.00  0.00  0.00

 DIRECT LATTICE VECTORS CARTESIAN COMPONENTS (ANGSTROM)
          X                    Y                    Z
   0.130113578931E+02  -0.751088897922E+01   0.000000000000E+00
   0.000000000000E+00   0.150239160000E+02   0.000000000000E+00
  -0.178558158248E-04  -0.473542732632E-04   0.839999999985E+01


 CARTESIAN COORDINATES - PRIMITIVE CELL
 *******************************************************************************
 *      ATOM          X(ANGSTROM)         Y(ANGSTROM)         Z(ANGSTROM)
 *******************************************************************************
    1     5 B    -5.026545229220E+00  6.316800551624E+00  2.104776743962E+00
    2     5 B    -2.026902146395E+00 -3.510728343716E+00 -2.095223255962E+00
    3     5 B    -2.957015112044E+00  7.511850118676E+00  2.104776827962E+00
    4     5 B     4.262797078120E-02 -2.315678776663E+00 -2.095223255962E+00
    5     5 B    -5.026600766370E+00 -6.317642911029E+00  2.094733535962E+00
    6     5 B    -2.026957683545E+00 -1.121255806368E+00 -2.105266463962E+00
    7     5 B     2.956894916718E+00 -7.511642866102E+00  2.104776827962E+00
    8     5 B     5.956537999543E+00 -2.315255761441E+00 -2.095223255962E+00
    9     5 B     5.027105658026E+00  6.316918788785E+00  2.104776743962E+00
   10     5 B    -4.984609152206E+00  4.000278872662E+00 -2.095223255962E+00
   11     5 B     5.026849095397E+00 -6.315955066760E+00  2.094733535962E+00
   12     5 B     8.026492178222E+00 -1.119567962099E+00 -2.105266379962E+00
   13     1 H    -1.261538590043E+00  5.369555978966E+00  2.083955159962E+00
   14     1 H     1.738104492782E+00 -4.457972916374E+00 -2.116044755962E+00
   15     1 H     1.257342031578E+00 -5.367410122486E+00  2.080771307962E+00
   16     1 H     4.256985114403E+00 -1.710230178248E-01 -2.119228775962E+00
   17     1 H    -1.262478002273E+00 -5.369862548978E+00  2.080281167962E+00
   18     1 H     1.737165080552E+00 -1.734754443180E-01 -2.119718747962E+00
   19     1 H     1.258664636890E+00  5.368390024677E+00  2.080403387962E+00
   20     1 H     4.258307719715E+00 -4.459138870662E+00 -2.119596611962E+00
   21     1 H    -4.020092519019E+00  3.777991163289E+00  2.116044923962E+00
   22     1 H    -1.020449436194E+00 -6.049537732051E+00 -2.083955075962E+00
   23     1 H     4.019590645893E+00 -3.771098519565E+00  2.119229111962E+00
   24     1 H     7.019233728718E+00  1.425288585095E+00 -2.080770887962E+00
   25     1 H     5.280915192070E+00 -1.590385637299E+00  2.119719419962E+00
   26     1 H    -4.730799618162E+00 -3.907025553422E+00 -2.080280579962E+00
   27     1 H    -5.278553534143E+00  1.594962256378E+00  2.119596359962E+00
   28     1 H    -2.278910451318E+00  6.791349361038E+00 -2.080403639962E+00
   29     1 H    -4.019567572629E+00 -3.778588845118E+00  2.083955411962E+00
   30     1 H    -1.019924489804E+00  1.417798259542E+00 -2.116044587962E+00
   31     1 H     4.020008522345E+00  3.773250768624E+00  2.080771055962E+00
   32     1 H    -5.991706287887E+00  1.456610852501E+00 -2.119228943962E+00
   33     1 H     5.280532481755E+00  1.591499374912E+00  2.080280831962E+00
   34     1 H    -4.731182328476E+00 -7.251405412110E-01 -2.119719167962E+00
   35     1 H    -5.278830983096E+00 -1.595797670067E+00  2.080403807962E+00
   36     1 H    -2.279187900270E+00  3.600589434594E+00 -2.119596191962E+00
   37     6 C    -1.406658320275E+00  7.511808611650E+00  2.094366119962E+00
   38     6 C     1.592984762550E+00 -2.315720283690E+00 -2.105633879962E+00
   39     6 C    -6.962537718553E-01  6.303080914217E+00  2.084445215962E+00
   40     6 C     2.303389310970E+00 -3.524447981123E+00 -2.115554783962E+00
   41     6 C     6.946475074900E-01 -6.302619044542E+00  2.083588163962E+00
   42     6 C     3.694290590315E+00 -1.106231939882E+00 -2.116411835962E+00
   43     6 C    -6.967351957427E-01 -6.303110551270E+00  2.086160159962E+00
   44     6 C     2.302907887082E+00 -1.106723446609E+00 -2.113839839962E+00
   45     6 C     6.951448101809E-01  6.303131032716E+00  2.079546083962E+00
   46     6 C     3.694787893006E+00 -3.524397862624E+00 -2.120453915962E+00
   47     6 C     1.405689195290E+00 -7.511588570671E+00  2.086282547962E+00
   48     6 C     4.405332278115E+00 -2.315201466010E+00 -2.113717451962E+00
   49     6 C     7.208800704551E+00 -2.536226587170E+00  2.105634131962E+00
   50     6 C    -2.802914105680E+00 -4.852866503293E+00 -2.094365867962E+00
   51     6 C    -5.111154078989E+00  3.755051574831E+00  2.115554867962E+00
   52     6 C    -2.111510996164E+00 -6.072477320509E+00 -2.084445131962E+00
   53     6 C     5.110839576445E+00 -3.751607336510E+00  2.116412255962E+00
   54     6 C    -4.900875233786E+00 -6.068247252633E+00 -2.083587743962E+00
   55     6 C     5.806802933232E+00 -2.546703516775E+00  2.113840343962E+00
   56     6 C    -4.204911876999E+00 -4.863343432898E+00 -2.086159739962E+00
   57     6 C    -5.806754293723E+00  2.550048088130E+00  2.120453915962E+00
   58     6 C    -2.807111210898E+00 -7.277480807209E+00 -2.079546083962E+00
   59     6 C     5.802123138399E+00 -4.972029158537E+00  2.113717619962E+00
   60     6 C    -4.209591671832E+00 -7.288669074660E+00 -2.086282379962E+00
   61     6 C     7.208871640404E+00  2.537400470856E+00  2.094366119962E+00
   62     6 C    -2.802843169828E+00  2.207605547327E-01 -2.105633879962E+00
   63     6 C    -5.110732835205E+00 -3.756100106975E+00  2.084445383962E+00
   64     6 C    -2.111089752380E+00  1.440286997685E+00 -2.115554615962E+00
   65     6 C     5.111161026760E+00  3.752786633711E+00  2.083587995962E+00
   66     6 C    -4.900553783472E+00  1.436146717588E+00 -2.116412003962E+00
   67     6 C     5.806798828437E+00  2.547715600556E+00  2.086159907962E+00
   68     6 C    -4.204915981794E+00  2.310756844332E-01 -2.113840091962E+00
   69     6 C    -5.806414480212E+00 -2.551151283861E+00  2.079546419962E+00
   70     6 C    -2.806771397387E+00  2.645235820800E+00 -2.120453663962E+00
   71     6 C     5.802540470965E+00  4.973054254838E+00  2.086282547962E+00
   72     6 C    -4.209174339266E+00  2.656414338715E+00 -2.113717451962E+00
   73     8 O     7.295941168757E+00  6.220198632697E-04  2.097428087962E+00
   74     8 O    -2.715773641474E+00 -2.316017896259E+00 -2.102571995962E+00
   75     8 O    -3.647326228801E+00  6.317808164764E+00  2.118616751962E+00
   76     8 O    -6.476831459756E-01 -3.509720730575E+00 -2.081383247962E+00
   77     8 O    -3.647355826745E+00 -6.318112248470E+00  2.086650047962E+00
   78     8 O    -6.477127439202E-01 -1.121725143810E+00 -2.113349951962E+00
   79     8 O     3.647398067319E+00 -6.317436270886E+00  2.097428171962E+00
   80     8 O     6.647041150144E+00 -1.121049166226E+00 -2.102571827962E+00
   81     8 O     3.647651223303E+00  6.318199368028E+00  2.118616667962E+00
   82     8 O     6.647294306128E+00 -3.509329527312E+00 -2.081383331962E+00
   83     8 O    -7.295943296914E+00 -5.586182122386E-04  2.086650047962E+00
   84     8 O    -4.296300214089E+00  5.195828486448E+00 -2.113349951962E+00

 *******************************************************************************
 STARTING BASIS SET HANDLING 
 *******************************************************************************

 Loading internal basis set: SOLDEF2MSVP         

 Please cite in your publication:
 L. Dona', J. G. Brandenburg and B. Civalleri, J. Chem. Phys., 151, 121101 (2019
 )                                                                              
                                                                                
                    

 *******************************************************************************
 LOCAL ATOMIC FUNCTIONS BASIS SET
 *******************************************************************************
   ATOM   X(AU)   Y(AU)   Z(AU)  N. TYPE  EXPONENT  S COEF   P COEF   D/F/G COEF
 *******************************************************************************
   1 B   -9.499  11.937   3.977
                                  1 S  
                                         2.410E+03 1.755E-03 0.000E+00 0.000E+00
                                         3.619E+02 1.344E-02 0.000E+00 0.000E+00
                                         8.231E+01 6.637E-02 0.000E+00 0.000E+00
                                         2.311E+01 2.303E-01 0.000E+00 0.000E+00
                                         7.252E+00 5.150E-01 0.000E+00 0.000E+00
                                  2 S  
                                         2.367E+00 1.000E+00 0.000E+00 0.000E+00
                                  3 S  
                                         5.533E-01 1.000E+00 0.000E+00 0.000E+00
                                  4 S  
                                         1.716E-01 1.000E+00 0.000E+00 0.000E+00
                           5-     7 P  
                                         6.002E+00 0.000E+00-3.555E-02 0.000E+00
                                         1.240E+00 0.000E+00-1.983E-01 0.000E+00
                                         3.367E-01 0.000E+00-5.048E-01 0.000E+00
                           8-    10 P  
                                         1.256E-01 0.000E+00 1.000E+00 0.000E+00
                          11-    15 D  
                                         8.880E-01 0.000E+00 0.000E+00 1.000E+00
   2 B   -3.830  -6.634  -3.959
   3 B   -5.588  14.195   3.977
   4 B    0.081  -4.376  -3.959
   5 B   -9.499 -11.939   3.958
   6 B   -3.830  -2.119  -3.978
   7 B    5.588 -14.195   3.977
   8 B   11.256  -4.375  -3.959
   9 B    9.500  11.937   3.977
  10 B   -9.420   7.559  -3.959
  11 B    9.499 -11.935   3.958
  12 B   15.168  -2.116  -3.978
  13 H   -2.384  10.147   3.938
                                181 S  
                                         1.874E+01 1.968E-02 0.000E+00 0.000E+00
                                         2.826E+00 1.380E-01 0.000E+00 0.000E+00
                                         6.401E-01 4.783E-01 0.000E+00 0.000E+00
                                182 S  
                                         1.756E-01 1.000E+00 0.000E+00 0.000E+00
  14 H    3.285  -8.424  -3.999
  15 H    2.376 -10.143   3.932
  16 H    8.045  -0.323  -4.005
  17 H   -2.386 -10.148   3.931
  18 H    3.283  -0.328  -4.006
  19 H    2.379  10.145   3.931
  20 H    8.047  -8.427  -4.005
  21 H   -7.597   7.139   3.999
  22 H   -1.928 -11.432  -3.938
  23 H    7.596  -7.126   4.005
  24 H   13.264   2.693  -3.932
  25 H    9.979  -3.005   4.006
  26 H   -8.940  -7.383  -3.931
  27 H   -9.975   3.014   4.005
  28 H   -4.307  12.834  -3.931
  29 H   -7.596  -7.140   3.938
  30 H   -1.927   2.679  -3.999
  31 H    7.597   7.130   3.932
  32 H  -11.323   2.753  -4.005
  33 H    9.979   3.007   3.931
  34 H   -8.941  -1.370  -4.006
  35 H   -9.976  -3.016   3.931
  36 H   -4.307   6.804  -4.005
  37 C   -2.658  14.195   3.958
                                229 S  
                                         3.624E+03 1.634E-03 0.000E+00 0.000E+00
                                         5.440E+02 1.252E-02 0.000E+00 0.000E+00
                                         1.237E+02 6.211E-02 0.000E+00 0.000E+00
                                         3.476E+01 2.182E-01 0.000E+00 0.000E+00
                                         1.093E+01 4.980E-01 0.000E+00 0.000E+00
                                230 S  
                                         3.574E+00 1.000E+00 0.000E+00 0.000E+00
                                231 S  
                                         7.742E-01 1.000E+00 0.000E+00 0.000E+00
                                232 S  
                                         2.330E-01 1.000E+00 0.000E+00 0.000E+00
                         233-   235 P  
                                         9.443E+00 0.000E+00 3.790E-02 0.000E+00
                                         2.002E+00 0.000E+00 2.082E-01 0.000E+00
                                         5.463E-01 0.000E+00 5.047E-01 0.000E+00
                         236-   238 P  
                                         1.820E-01 0.000E+00 1.000E+00 0.000E+00
                         239-   243 D  
                                         8.880E-01 0.000E+00 0.000E+00 1.000E+00
  38 C    3.010  -4.376  -3.979
  39 C   -1.316  11.911   3.939
  40 C    4.353  -6.660  -3.998
  41 C    1.313 -11.910   3.937
  42 C    6.981  -2.090  -3.999
  43 C   -1.317 -11.911   3.942
  44 C    4.352  -2.091  -3.995
  45 C    1.314  11.911   3.930
  46 C    6.982  -6.660  -4.007
  47 C    2.656 -14.195   3.943
  48 C    8.325  -4.375  -3.994
  49 C   13.623  -4.793   3.979
  50 C   -5.297  -9.171  -3.958
  51 C   -9.659   7.096   3.998
  52 C   -3.990 -11.475  -3.939
  53 C    9.658  -7.090   3.999
  54 C   -9.261 -11.467  -3.937
  55 C   10.973  -4.813   3.995
  56 C   -7.946  -9.190  -3.942
  57 C  -10.973   4.819   4.007
  58 C   -5.305 -13.752  -3.930
  59 C   10.964  -9.396   3.994
  60 C   -7.955 -13.774  -3.943
  61 C   13.623   4.795   3.958
  62 C   -5.297   0.417  -3.979
  63 C   -9.658  -7.098   3.939
  64 C   -3.989   2.722  -3.998
  65 C    9.659   7.092   3.937
  66 C   -9.261   2.714  -3.999
  67 C   10.973   4.814   3.942
  68 C   -7.946   0.437  -3.995
  69 C  -10.973  -4.821   3.930
  70 C   -5.304   4.999  -4.007
  71 C   10.965   9.398   3.943
  72 C   -7.954   5.020  -3.994
  73 O   13.787   0.001   3.964
                                769 S  
                                         6.773E+03 1.727E-03 0.000E+00 0.000E+00
                                         1.017E+03 1.325E-02 0.000E+00 0.000E+00
                                         2.313E+02 6.603E-02 0.000E+00 0.000E+00
                                         6.501E+01 2.353E-01 0.000E+00 0.000E+00
                                         2.050E+01 5.498E-01 0.000E+00 0.000E+00
                                770 S  
                                         6.716E+00 1.000E+00 0.000E+00 0.000E+00
                                771 S  
                                         1.147E+00 1.000E+00 0.000E+00 0.000E+00
                                772 S  
                                         3.342E-01 1.000E+00 0.000E+00 0.000E+00
                         773-   775 P  
                                         1.769E+01 0.000E+00 4.359E-02 0.000E+00
                                         3.854E+00 0.000E+00 2.318E-01 0.000E+00
                                         1.047E+00 0.000E+00 5.146E-01 0.000E+00
                         776-   778 P  
                                         2.759E-01 0.000E+00 1.000E+00 0.000E+00
                         779-   783 D  
                                         8.000E-01 0.000E+00 0.000E+00 1.000E+00
  74 O   -5.132  -4.377  -3.973
  75 O   -6.892  11.939   4.004
  76 O   -1.224  -6.632  -3.933
  77 O   -6.893 -11.940   3.943
  78 O   -1.224  -2.120  -3.994
  79 O    6.893 -11.938   3.964
  80 O   12.561  -2.118  -3.973
  81 O    6.893  11.940   4.004
  82 O   12.562  -6.632  -3.933
  83 O  -13.787  -0.001   3.943
  84 O   -8.119   9.819  -3.994

 *******************************************************************************
 FINISHED BASIS SET HANDLING 
 *******************************************************************************

 INFORMATION **** SET_MPP **** PCRYSTAL CALCULATION
 INFORMATION **** READM2 **** NEW DEFAULT: FOCK/KS MATRIX MIXING SET TO 30 %
 INFORMATION **** READM2 **** NEW DEFAULT: FULL DIRECT SCF MODE
 INFORMATION **** READM2 **** NEW DEFAULT: COULOMB BIPOLAR BUFFER SET TO 32 Mb
 INFORMATION **** READM2 **** NEW DEFAULT: EXCHANGE BIPOLAR BUFFER SET TO 32 Mb

 *******************************************************************************
 NEW DEFAULT: DFT INTEGRATION GRID INCREASED TO XLGRID
 NEW DEFAULT: DIIS ACCELERATOR ACTIVE
 USE KEYWORD NODIIS TO TURN IT OFF
 *******************************************************************************

 WARNING **** RDDFTP **** HSEsol-HJS ACTIVE
 RANGE SEPARATION - OMEGA:   0.110000000000000     
 WARNING **** RDDFTP **** HSEsol-3c has to be combined with sol-def2-mSVP basis set
 *******************************************************************************
 N. OF ATOMS PER CELL        84  COULOMB OVERLAP TOL         (T1) 10**   -6
 NUMBER OF SHELLS           468  COULOMB PENETRATION TOL     (T2) 10**   -6
 NUMBER OF AO               948  EXCHANGE OVERLAP TOL        (T3) 10**   -6
 N. OF ELECTRONS PER CELL   396  EXCHANGE PSEUDO OVP (F(G))  (T4) 10**   -6
 CORE ELECTRONS PER CELL    120  EXCHANGE PSEUDO OVP (P(G))  (T5) 10**  -12
 N. OF SYMMETRY OPERATORS     1  POLE ORDER IN MONO ZONE                  4
 *******************************************************************************
 TYPE OF CALCULATION :  RESTRICTED CLOSED SHELL
 KOHN-SHAM HAMILTONIAN

 (EXCHANGE)[CORRELATION] FUNCTIONAL:(HSEsol GGA)[PBEsol]

 RANGE-SEPARATED HYBRID FUNCTIONAL 
 OMEGA (SHORT-RANGE)[LONG-RANGE]:(    0.1100)[    0.0000]

 HYBRID EXCHANGE - PERCENTAGE OF FOCK EXCHANGE    25.0000

 CAPPA:IS1  2;IS2  2;IS3  8; K PTS MONK NET  20; SYMMOPS:K SPACE   2;G SPACE   1

 *******************************************************************************
 MAX NUMBER OF SCF CYCLES      50  CONVERGENCE ON DELTAP        10**-16
 WEIGHT OF F(I) IN F(I+1)      30% CONVERGENCE ON ENERGY        10**- 6
 SHRINK. FACT.(MONKH.)    2  2  8  NUMBER OF K POINTS IN THE IBZ     20
 SHRINKING FACTOR(GILAT NET)    8  NUMBER OF K POINTS(GILAT NET)   1028
 *******************************************************************************
 *** K POINTS COORDINATES (OBLIQUE COORDINATES IN UNITS OF IS =  2)
   1-R(  0  0  0)   2-R(  1  0  0)   3-R(  0  1  0)   4-R(  1  1  0)
   5-C(  0  0  1)   6-C(  1  0  1)   7-C(  0  1  1)   8-C(  1  1  1)
   9-C(  0  0  2)  10-C(  1  0  2)  11-C(  0  1  2)  12-C(  1  1  2)
  13-C(  0  0  3)  14-C(  1  0  3)  15-C(  0  1  3)  16-C(  1  1  3)
  17-R(  0  0  4)  18-R(  1  0  4)  19-R(  0  1  4)  20-R(  1  1  4)

 DIRECT LATTICE VECTORS COMPON. (A.U.)     RECIP. LATTICE VECTORS COMPON. (A.U.) 
        X            Y            Z              X            Y            Z
   24.5879030  -14.1935232    0.0000000      0.2555397    0.0000000    0.0000005
    0.0000000   28.3910867    0.0000000      0.1277517    0.2213084    0.0000015
   -0.0000337   -0.0000895   15.8736995      0.0000000    0.0000000    0.3958236

 DISK SPACE FOR EIGENVECTORS (FTN 10)    28758528 REALS

 SYMMETRY ADAPTION OF THE BLOCH FUNCTIONS DISABLED
 TTTTTTTTTTTTTTTTTTTTTTTTTTTTTT gordsh1     TELAPSE        0.05 TCPU        0.05

 MATRIX SIZE: P(G)  575804, F(G)  114492, P(G) IRR  289804, F(G) IRR  115452
 MAX G-VECTOR INDEX FOR 1- AND 2-ELECTRON INTEGRALS  43

 TTTTTTTTTTTTTTTTTTTTTTTTTTTTTT INPUT       TELAPSE        2.86 TCPU        2.85

 NEIGHBORS OF THE NON-EQUIVALENT ATOMS

 N = NUMBER OF NEIGHBORS AT DISTANCE R
    ATOM  N     R/ANG      R/AU   NEIGHBORS (ATOM LABELS AND CELL INDICES)
   1 B    1     1.3791     2.6061   73 O   -1 0 0
   1 B    1     1.3793     2.6065   75 O    0 0 0
   1 B    1     1.5503     2.9297   49 C   -1 0 0
   1 B    1     2.3895     4.5155    5 B    0 1 0
   1 B    1     2.3898     4.5160    3 B    0 0 0
   1 B    1     2.5632     4.8437   51 C    0 0 0

   2 B    1     1.3791     2.6061   74 O    0 0 0
   2 B    1     1.3793     2.6065   76 O    0 0 0
   2 B    1     1.5503     2.9297   50 C    0 0 0
   2 B    1     2.3895     4.5155    6 B    0 0 0
   2 B    1     2.3898     4.5160    4 B    0 0 0
   2 B    1     2.5632     4.8437   52 C    0 0 0

   3 B    1     1.3793     2.6065   77 O    0 1 0
   3 B    1     1.3793     2.6065   75 O    0 0 0
   3 B    1     1.5504     2.9298   37 C    0 0 0
   3 B    1     2.3895     4.5156    5 B    0 1 0
   3 B    1     2.3898     4.5160    1 B    0 0 0
   3 B    1     2.5634     4.8440   43 C    0 1 0

   4 B    1     1.3793     2.6065   78 O    0 0 0
   4 B    1     1.3793     2.6065   76 O    0 0 0
   4 B    1     1.5504     2.9298   38 C    0 0 0
   4 B    1     2.3895     4.5156    6 B    0 0 0
   4 B    1     2.3898     4.5160    2 B    0 0 0
   4 B    1     2.5634     4.8440   44 C    0 0 0

   5 B    1     1.3791     2.6061   73 O   -1-1 0
   5 B    1     1.3793     2.6064   77 O    0 0 0
   5 B    1     1.5502     2.9294   61 C   -1-1 0
   5 B    1     2.3895     4.5155    1 B    0-1 0
   5 B    1     2.3895     4.5156    3 B    0-1 0
   5 B    1     2.5629     4.8433   63 C    0 0 0

   6 B    1     1.3791     2.6061   74 O    0 0 0
   6 B    1     1.3793     2.6064   78 O    0 0 0
   6 B    1     1.5502     2.9294   62 C    0 0 0
   6 B    1     2.3895     4.5155    2 B    0 0 0
   6 B    1     2.3895     4.5156    4 B    0 0 0
   6 B    1     2.5629     4.8433   64 C    0 0 0

   7 B    1     1.3795     2.6068   79 O    0 0 0
   7 B    1     1.3795     2.6070   81 O    0-1 0
   7 B    1     1.5513     2.9316   47 C    0 0 0
   7 B    1     2.3905     4.5174   11 B    0 0 0
   7 B    1     2.3905     4.5175    9 B    0-1 0
   7 B    1     2.5648     4.8468   45 C    0-1 0

   8 B    1     1.3795     2.6068   80 O    0 0 0
   8 B    1     1.3795     2.6070   82 O    0 0 0
   8 B    1     1.5513     2.9316   48 C    0 0 0
   8 B    1     2.3905     4.5174   12 B    0 0 0
   8 B    1     2.3905     4.5175   10 B    1 0 0
   8 B    1     2.5648     4.8468   46 C    0 0 0

   9 B    1     1.3795     2.6069   81 O    0 0 0
   9 B    1     1.3797     2.6072   83 O    1 1 0
   9 B    1     1.5516     2.9322   71 C    0 0 0
   9 B    1     2.3905     4.5175    7 B    0 1 0
   9 B    1     2.3911     4.5185   11 B    0 1 0
   9 B    1     2.5651     4.8473   69 C    1 1 0

  10 B    1     1.3795     2.6069   82 O   -1 0 0
  10 B    1     1.3797     2.6072   84 O    0 0 0
  10 B    1     1.5516     2.9322   72 C    0 0 0
  10 B    1     2.3905     4.5175    8 B   -1 0 0
  10 B    1     2.3911     4.5185   12 B   -1 0 0
  10 B    1     2.5651     4.8473   70 C    0 0 0

  11 B    1     1.3795     2.6068   79 O    0 0 0
  11 B    1     1.3796     2.6071   83 O    1 0 0
  11 B    1     1.5516     2.9322   59 C    0 0 0
  11 B    1     2.3905     4.5174    7 B    0 0 0
  11 B    1     2.3911     4.5185    9 B    0-1 0
  11 B    1     2.5651     4.8473   57 C    1 0 0

  12 B    1     1.3795     2.6068   80 O    0 0 0
  12 B    1     1.3796     2.6071   84 O    1 0 0
  12 B    1     1.5516     2.9322   60 C    1 1 0
  12 B    1     2.3905     4.5174    8 B    0 0 0
  12 B    1     2.3911     4.5185   10 B    1 0 0
  12 B    1     2.5651     4.8473   58 C    1 1 0

  13 H    1     1.0913     2.0623   39 C    0 0 0
  13 H    1     2.1472     4.0576   37 C    0 0 0
  13 H    1     2.1680     4.0969   45 C    0 0 0
  13 H    1     2.5202     4.7625   19 H    0 0 0
  13 H    1     2.5676     4.8520   75 O    0 0 0
  13 H    1     2.7321     5.1630    3 B    0 0 0

  14 H    1     1.0913     2.0623   40 C    0 0 0
  14 H    1     2.1472     4.0576   38 C    0 0 0
  14 H    1     2.1680     4.0969   46 C    0 0 0
  14 H    1     2.5202     4.7625   20 H    0 0 0
  14 H    1     2.5676     4.8520   76 O    0 0 0
  14 H    1     2.7321     5.1630    4 B    0 0 0

  15 H    1     1.0914     2.0625   41 C    0 0 0
  15 H    1     2.1493     4.0616   47 C    0 0 0
  15 H    1     2.1666     4.0942   43 C    0 0 0
  15 H    1     2.5198     4.7618   17 H    0 0 0
  15 H    1     2.5720     4.8604   79 O    0 0 0
  15 H    1     2.7362     5.1707    7 B    0 0 0

  16 H    1     1.0914     2.0625   42 C    0 0 0
  16 H    1     2.1493     4.0616   48 C    0 0 0
  16 H    1     2.1666     4.0942   44 C    0 0 0
  16 H    1     2.5198     4.7618   18 H    0 0 0
  16 H    1     2.5720     4.8604   80 O    0 0 0
  16 H    1     2.7362     5.1707    8 B    0 0 0

  17 H    1     1.0914     2.0624   43 C    0 0 0
  17 H    1     2.1471     4.0575   37 C    0-1 0
  17 H    1     2.1680     4.0970   41 C    0 0 0
  17 H    1     2.5198     4.7618   15 H    0 0 0
  17 H    1     2.5665     4.8500   77 O    0 0 0
  17 H    1     2.7315     5.1618    3 B    0-1 0

  18 H    1     1.0914     2.0624   44 C    0 0 0
  18 H    1     2.1471     4.0575   38 C    0 0 0
  18 H    1     2.1680     4.0970   42 C    0 0 0
  18 H    1     2.5198     4.7618   16 H    0 0 0
  18 H    1     2.5665     4.8500   78 O    0 0 0
  18 H    1     2.7315     5.1618    4 B    0 0 0

  19 H    1     1.0915     2.0626   45 C    0 0 0
  19 H    1     2.1490     4.0610   47 C    0 1 0
  19 H    1     2.1669     4.0948   39 C    0 0 0
  19 H    1     2.5202     4.7625   13 H    0 0 0
  19 H    1     2.5712     4.8588   81 O    0 0 0
  19 H    1     2.7351     5.1686    7 B    0 1 0

  20 H    1     1.0915     2.0626   46 C    0 0 0
  20 H    1     2.1490     4.0610   48 C    0 0 0
  20 H    1     2.1669     4.0948   40 C    0 0 0
  20 H    1     2.5202     4.7625   14 H    0 0 0
  20 H    1     2.5712     4.8588   82 O    0 0 0
  20 H    1     2.7351     5.1686    8 B    0 0 0

  21 H    1     1.0913     2.0623   51 C    0 0 0
  21 H    1     2.1469     4.0571   49 C   -1 0 0
  21 H    1     2.1680     4.0968   57 C    0 0 0
  21 H    1     2.5198     4.7617   27 H    0 0 0
  21 H    1     2.5670     4.8510   75 O    0 0 0
  21 H    1     2.7310     5.1609    1 B    0 0 0

  22 H    1     1.0913     2.0623   52 C    0 0 0
  22 H    1     2.1469     4.0571   50 C    0 0 0
  22 H    1     2.1680     4.0968   58 C    0 0 0
  22 H    1     2.5198     4.7617   28 H    0-1 0
  22 H    1     2.5670     4.8510   76 O    0 0 0
  22 H    1     2.7310     5.1609    2 B    0 0 0

  23 H    1     1.0914     2.0625   53 C    0 0 0
  23 H    1     2.1493     4.0617   59 C    0 0 0
  23 H    1     2.1664     4.0939   55 C    0 0 0
  23 H    1     2.5192     4.7606   25 H    0 0 0
  23 H    1     2.5735     4.8632   79 O    0 0 0
  23 H    1     2.7371     5.1723   11 B    0 0 0

  24 H    1     1.0914     2.0625   54 C    1 1 0
  24 H    1     2.1493     4.0617   60 C    1 1 0
  24 H    1     2.1664     4.0939   56 C    1 1 0
  24 H    1     2.5192     4.7606   26 H    1 1 0
  24 H    1     2.5735     4.8632   80 O    0 0 0
  24 H    1     2.7371     5.1723   12 B    0 0 0

  25 H    1     1.0914     2.0624   55 C    0 0 0
  25 H    1     2.1475     4.0581   49 C    0 0 0
  25 H    1     2.1679     4.0967   53 C    0 0 0
  25 H    1     2.5192     4.7606   23 H    0 0 0
  25 H    1     2.5675     4.8519   73 O    0 0 0
  25 H    1     2.7328     5.1643    1 B    1 0 0

  26 H    1     1.0914     2.0624   56 C    0 0 0
  26 H    1     2.1475     4.0581   50 C    0 0 0
  26 H    1     2.1679     4.0967   54 C    0 0 0
  26 H    1     2.5192     4.7606   24 H   -1-1 0
  26 H    1     2.5675     4.8519   74 O    0 0 0
  26 H    1     2.7328     5.1643    2 B    0 0 0

  27 H    1     1.0914     2.0625   57 C    0 0 0
  27 H    1     2.1491     4.0612   59 C   -1 0 0
  27 H    1     2.1666     4.0942   51 C    0 0 0
  27 H    1     2.5198     4.7617   21 H    0 0 0
  27 H    1     2.5723     4.8609   83 O    0 0 0
  27 H    1     2.7355     5.1693   11 B   -1 0 0

  28 H    1     1.0914     2.0625   58 C    0 1 0
  28 H    1     2.1491     4.0612   60 C    0 1 0
  28 H    1     2.1666     4.0942   52 C    0 1 0
  28 H    1     2.5198     4.7617   22 H    0 1 0
  28 H    1     2.5723     4.8609   84 O    0 0 0
  28 H    1     2.7355     5.1693   12 B   -1 0 0

  29 H    1     1.0914     2.0624   63 C    0 0 0
  29 H    1     2.1475     4.0582   61 C   -1-1 0
  29 H    1     2.1678     4.0966   69 C    0 0 0
  29 H    1     2.5200     4.7621   35 H    0 0 0
  29 H    1     2.5667     4.8503   77 O    0 0 0
  29 H    1     2.7315     5.1618    5 B    0 0 0

  30 H    1     1.0914     2.0624   64 C    0 0 0
  30 H    1     2.1475     4.0582   62 C    0 0 0
  30 H    1     2.1678     4.0966   70 C    0 0 0
  30 H    1     2.5200     4.7621   36 H    0 0 0
  30 H    1     2.5667     4.8503   78 O    0 0 0
  30 H    1     2.7315     5.1618    6 B    0 0 0

  31 H    1     1.0913     2.0623   65 C    0 0 0
  31 H    1     2.1487     4.0605   71 C    0 0 0
  31 H    1     2.1667     4.0945   67 C    0 0 0
  31 H    1     2.5197     4.7616   33 H    0 0 0
  31 H    1     2.5723     4.8610   81 O    0 0 0
  31 H    1     2.7359     5.1701    9 B    0 0 0

  32 H    1     1.0913     2.0623   66 C    0 0 0
  32 H    1     2.1487     4.0605   72 C    0 0 0
  32 H    1     2.1667     4.0945   68 C    0 0 0
  32 H    1     2.5197     4.7616   34 H    0 0 0
  32 H    1     2.5723     4.8610   82 O   -1 0 0
  32 H    1     2.7359     5.1701   10 B    0 0 0

  33 H    1     1.0915     2.0626   67 C    0 0 0
  33 H    1     2.1479     4.0589   61 C    0 0 0
  33 H    1     2.1679     4.0968   65 C    0 0 0
  33 H    1     2.5197     4.7616   31 H    0 0 0
  33 H    1     2.5677     4.8522   73 O    0 0 0
  33 H    1     2.7331     5.1648    5 B    1 1 0

  34 H    1     1.0915     2.0626   68 C    0 0 0
  34 H    1     2.1479     4.0589   62 C    0 0 0
  34 H    1     2.1679     4.0968   66 C    0 0 0
  34 H    1     2.5197     4.7616   32 H    0 0 0
  34 H    1     2.5677     4.8522   74 O    0 0 0
  34 H    1     2.7331     5.1648    6 B    0 0 0

  35 H    1     1.0914     2.0624   69 C    0 0 0
  35 H    1     2.1486     4.0602   71 C   -1-1 0
  35 H    1     2.1668     4.0947   63 C    0 0 0
  35 H    1     2.5200     4.7621   29 H    0 0 0
  35 H    1     2.5717     4.8598   83 O    0 0 0
  35 H    1     2.7349     5.1682    9 B   -1-1 0

  36 H    1     1.0914     2.0624   70 C    0 0 0
  36 H    1     2.1486     4.0602   72 C    0 0 0
  36 H    1     2.1668     4.0947   64 C    0 0 0
  36 H    1     2.5200     4.7621   30 H    0 0 0
  36 H    1     2.5717     4.8598   84 O    0 0 0
  36 H    1     2.7349     5.1682   10 B    0 0 0

  37 C    1     1.4020     2.6495   43 C    0 1 0
  37 C    1     1.4021     2.6495   39 C    0 0 0
  37 C    1     1.5504     2.9298    3 B    0 0 0
  37 C    1     2.1471     4.0575   17 H    0 1 0
  37 C    1     2.1472     4.0576   13 H    0 0 0
  37 C    1     2.4246     4.5817   41 C    0 1 0

  38 C    1     1.4020     2.6495   44 C    0 0 0
  38 C    1     1.4021     2.6495   40 C    0 0 0
  38 C    1     1.5504     2.9298    4 B    0 0 0
  38 C    1     2.1471     4.0575   18 H    0 0 0
  38 C    1     2.1472     4.0576   14 H    0 0 0
  38 C    1     2.4246     4.5817   42 C    0 0 0

  39 C    1     1.0913     2.0623   13 H    0 0 0
  39 C    1     1.3914     2.6294   45 C    0 0 0
  39 C    1     1.4021     2.6495   37 C    0 0 0
  39 C    1     2.1669     4.0948   19 H    0 0 0
  39 C    1     2.4177     4.5688   43 C    0 1 0
  39 C    1     2.4250     4.5825   47 C    0 1 0

  40 C    1     1.0913     2.0623   14 H    0 0 0
  40 C    1     1.3914     2.6294   46 C    0 0 0
  40 C    1     1.4021     2.6495   38 C    0 0 0
  40 C    1     2.1669     4.0948   20 H    0 0 0
  40 C    1     2.4177     4.5688   44 C    0 0 0
  40 C    1     2.4250     4.5825   48 C    0 0 0

  41 C    1     1.0914     2.0625   15 H    0 0 0
  41 C    1     1.3914     2.6293   43 C    0 0 0
  41 C    1     1.4026     2.6505   47 C    0 0 0
  41 C    1     2.1680     4.0970   17 H    0 0 0
  41 C    1     2.4182     4.5697   45 C    0-1 0
  41 C    1     2.4246     4.5817   37 C    0-1 0

  42 C    1     1.0914     2.0625   16 H    0 0 0
  42 C    1     1.3914     2.6293   44 C    0 0 0
  42 C    1     1.4026     2.6505   48 C    0 0 0
  42 C    1     2.1680     4.0970   18 H    0 0 0
  42 C    1     2.4182     4.5697   46 C    0 0 0
  42 C    1     2.4246     4.5817   38 C    0 0 0

  43 C    1     1.0914     2.0624   17 H    0 0 0
  43 C    1     1.3914     2.6293   41 C    0 0 0
  43 C    1     1.4020     2.6495   37 C    0-1 0
  43 C    1     2.1666     4.0942   15 H    0 0 0
  43 C    1     2.4177     4.5688   39 C    0-1 0
  43 C    1     2.4250     4.5826   47 C    0 0 0

  44 C    1     1.0914     2.0624   18 H    0 0 0
  44 C    1     1.3914     2.6293   42 C    0 0 0
  44 C    1     1.4020     2.6495   38 C    0 0 0
  44 C    1     2.1666     4.0942   16 H    0 0 0
  44 C    1     2.4177     4.5688   40 C    0 0 0
  44 C    1     2.4250     4.5826   48 C    0 0 0

  45 C    1     1.0915     2.0626   19 H    0 0 0
  45 C    1     1.3914     2.6294   39 C    0 0 0
  45 C    1     1.4025     2.6504   47 C    0 1 0
  45 C    1     2.1680     4.0969   13 H    0 0 0
  45 C    1     2.4182     4.5697   41 C    0 1 0
  45 C    1     2.4246     4.5818   37 C    0 0 0

  46 C    1     1.0915     2.0626   20 H    0 0 0
  46 C    1     1.3914     2.6294   40 C    0 0 0
  46 C    1     1.4025     2.6504   48 C    0 0 0
  46 C    1     2.1680     4.0969   14 H    0 0 0
  46 C    1     2.4182     4.5697   42 C    0 0 0
  46 C    1     2.4246     4.5818   38 C    0 0 0

  47 C    1     1.4025     2.6504   45 C    0-1 0
  47 C    1     1.4026     2.6505   41 C    0 0 0
  47 C    1     1.5513     2.9316    7 B    0 0 0
  47 C    1     2.1490     4.0610   19 H    0-1 0
  47 C    1     2.1493     4.0616   15 H    0 0 0
  47 C    1     2.4250     4.5825   39 C    0-1 0

  48 C    1     1.4025     2.6504   46 C    0 0 0
  48 C    1     1.4026     2.6505   42 C    0 0 0
  48 C    1     1.5513     2.9316    8 B    0 0 0
  48 C    1     2.1490     4.0610   20 H    0 0 0
  48 C    1     2.1493     4.0616   16 H    0 0 0
  48 C    1     2.4250     4.5825   40 C    0 0 0

  49 C    1     1.4020     2.6494   51 C    1 0 0
  49 C    1     1.4021     2.6495   55 C    0 0 0
  49 C    1     1.5503     2.9297    1 B    1 0 0
  49 C    1     2.1469     4.0571   21 H    1 0 0
  49 C    1     2.1475     4.0581   25 H    0 0 0
  49 C    1     2.4246     4.5818   53 C    0 0 0

  50 C    1     1.4020     2.6494   52 C    0 0 0
  50 C    1     1.4021     2.6495   56 C    0 0 0
  50 C    1     1.5503     2.9297    2 B    0 0 0
  50 C    1     2.1469     4.0571   22 H    0 0 0
  50 C    1     2.1475     4.0581   26 H    0 0 0
  50 C    1     2.4246     4.5818   54 C    0 0 0

  51 C    1     1.0913     2.0623   21 H    0 0 0
  51 C    1     1.3914     2.6293   57 C    0 0 0
  51 C    1     1.4020     2.6494   49 C   -1 0 0
  51 C    1     2.1666     4.0942   27 H    0 0 0
  51 C    1     2.4175     4.5684   55 C   -1 0 0
  51 C    1     2.4251     4.5828   59 C   -1 0 0

  52 C    1     1.0913     2.0623   22 H    0 0 0
  52 C    1     1.3914     2.6293   58 C    0 0 0
  52 C    1     1.4020     2.6494   50 C    0 0 0
  52 C    1     2.1666     4.0942   28 H    0-1 0
  52 C    1     2.4175     4.5684   56 C    0 0 0
  52 C    1     2.4251     4.5828   60 C    0 0 0

  53 C    1     1.0914     2.0625   23 H    0 0 0
  53 C    1     1.3915     2.6295   55 C    0 0 0
  53 C    1     1.4026     2.6505   59 C    0 0 0
  53 C    1     2.1679     4.0967   25 H    0 0 0
  53 C    1     2.4179     4.5691   57 C    1 0 0
  53 C    1     2.4246     4.5818   49 C    0 0 0

  54 C    1     1.0914     2.0625   24 H   -1-1 0
  54 C    1     1.3915     2.6295   56 C    0 0 0
  54 C    1     1.4026     2.6505   60 C    0 0 0
  54 C    1     2.1679     4.0967   26 H    0 0 0
  54 C    1     2.4179     4.5691   58 C    0 0 0
  54 C    1     2.4246     4.5818   50 C    0 0 0

  55 C    1     1.0914     2.0624   25 H    0 0 0
  55 C    1     1.3915     2.6295   53 C    0 0 0
  55 C    1     1.4021     2.6495   49 C    0 0 0
  55 C    1     2.1664     4.0939   23 H    0 0 0
  55 C    1     2.4175     4.5684   51 C    1 0 0
  55 C    1     2.4253     4.5832   59 C    0 0 0

  56 C    1     1.0914     2.0624   26 H    0 0 0
  56 C    1     1.3915     2.6295   54 C    0 0 0
  56 C    1     1.4021     2.6495   50 C    0 0 0
  56 C    1     2.1664     4.0939   24 H   -1-1 0
  56 C    1     2.4175     4.5684   52 C    0 0 0
  56 C    1     2.4253     4.5832   60 C    0 0 0

  57 C    1     1.0914     2.0625   27 H    0 0 0
  57 C    1     1.3914     2.6293   51 C    0 0 0
  57 C    1     1.4025     2.6504   59 C   -1 0 0
  57 C    1     2.1680     4.0968   21 H    0 0 0
  57 C    1     2.4179     4.5691   53 C   -1 0 0
  57 C    1     2.4247     4.5819   49 C   -1 0 0

  58 C    1     1.0914     2.0625   28 H    0-1 0
  58 C    1     1.3914     2.6293   52 C    0 0 0
  58 C    1     1.4025     2.6504   60 C    0 0 0
  58 C    1     2.1680     4.0968   22 H    0 0 0
  58 C    1     2.4179     4.5691   54 C    0 0 0
  58 C    1     2.4247     4.5819   50 C    0 0 0

  59 C    1     1.4025     2.6504   57 C    1 0 0
  59 C    1     1.4026     2.6505   53 C    0 0 0
  59 C    1     1.5516     2.9322   11 B    0 0 0
  59 C    1     2.1491     4.0612   27 H    1 0 0
  59 C    1     2.1493     4.0617   23 H    0 0 0
  59 C    1     2.4251     4.5828   51 C    1 0 0

  60 C    1     1.4025     2.6504   58 C    0 0 0
  60 C    1     1.4026     2.6505   54 C    0 0 0
  60 C    1     1.5516     2.9322   12 B   -1-1 0
  60 C    1     2.1491     4.0612   28 H    0-1 0
  60 C    1     2.1493     4.0617   24 H   -1-1 0
  60 C    1     2.4251     4.5828   52 C    0 0 0

  61 C    1     1.4021     2.6496   63 C    1 1 0
  61 C    1     1.4021     2.6497   67 C    0 0 0
  61 C    1     1.5502     2.9294    5 B    1 1 0
  61 C    1     2.1475     4.0582   29 H    1 1 0
  61 C    1     2.1479     4.0589   33 H    0 0 0
  61 C    1     2.4244     4.5814   65 C    0 0 0

  62 C    1     1.4021     2.6496   64 C    0 0 0
  62 C    1     1.4021     2.6497   68 C    0 0 0
  62 C    1     1.5502     2.9294    6 B    0 0 0
  62 C    1     2.1475     4.0582   30 H    0 0 0
  62 C    1     2.1479     4.0589   34 H    0 0 0
  62 C    1     2.4244     4.5814   66 C    0 0 0

  63 C    1     1.0914     2.0624   29 H    0 0 0
  63 C    1     1.3914     2.6293   69 C    0 0 0
  63 C    1     1.4021     2.6496   61 C   -1-1 0
  63 C    1     2.1668     4.0947   35 H    0 0 0
  63 C    1     2.4179     4.5692   67 C   -1-1 0
  63 C    1     2.4251     4.5827   71 C   -1-1 0

  64 C    1     1.0914     2.0624   30 H    0 0 0
  64 C    1     1.3914     2.6293   70 C    0 0 0
  64 C    1     1.4021     2.6496   62 C    0 0 0
  64 C    1     2.1668     4.0947   36 H    0 0 0
  64 C    1     2.4179     4.5692   68 C    0 0 0
  64 C    1     2.4251     4.5827   72 C    0 0 0

  65 C    1     1.0913     2.0623   31 H    0 0 0
  65 C    1     1.3914     2.6294   67 C    0 0 0
  65 C    1     1.4025     2.6504   71 C    0 0 0
  65 C    1     2.1679     4.0968   33 H    0 0 0
  65 C    1     2.4178     4.5690   69 C    1 1 0
  65 C    1     2.4244     4.5814   61 C    0 0 0

  66 C    1     1.0913     2.0623   32 H    0 0 0
  66 C    1     1.3914     2.6294   68 C    0 0 0
  66 C    1     1.4025     2.6504   72 C    0 0 0
  66 C    1     2.1679     4.0968   34 H    0 0 0
  66 C    1     2.4178     4.5690   70 C    0 0 0
  66 C    1     2.4244     4.5814   62 C    0 0 0

  67 C    1     1.0915     2.0626   33 H    0 0 0
  67 C    1     1.3914     2.6294   65 C    0 0 0
  67 C    1     1.4021     2.6497   61 C    0 0 0
  67 C    1     2.1667     4.0945   31 H    0 0 0
  67 C    1     2.4179     4.5692   63 C    1 1 0
  67 C    1     2.4253     4.5832   71 C    0 0 0

  68 C    1     1.0915     2.0626   34 H    0 0 0
  68 C    1     1.3914     2.6294   66 C    0 0 0
  68 C    1     1.4021     2.6497   62 C    0 0 0
  68 C    1     2.1667     4.0945   32 H    0 0 0
  68 C    1     2.4179     4.5692   64 C    0 0 0
  68 C    1     2.4253     4.5832   72 C    0 0 0

  69 C    1     1.0914     2.0624   35 H    0 0 0
  69 C    1     1.3914     2.6293   63 C    0 0 0
  69 C    1     1.4025     2.6503   71 C   -1-1 0
  69 C    1     2.1678     4.0966   29 H    0 0 0
  69 C    1     2.4178     4.5690   65 C   -1-1 0
  69 C    1     2.4245     4.5817   61 C   -1-1 0

  70 C    1     1.0914     2.0624   36 H    0 0 0
  70 C    1     1.3914     2.6293   64 C    0 0 0
  70 C    1     1.4025     2.6503   72 C    0 0 0
  70 C    1     2.1678     4.0966   30 H    0 0 0
  70 C    1     2.4178     4.5690   66 C    0 0 0
  70 C    1     2.4245     4.5817   62 C    0 0 0

  71 C    1     1.4025     2.6503   69 C    1 1 0
  71 C    1     1.4025     2.6504   65 C    0 0 0
  71 C    1     1.5516     2.9322    9 B    0 0 0
  71 C    1     2.1486     4.0602   35 H    1 1 0
  71 C    1     2.1487     4.0605   31 H    0 0 0
  71 C    1     2.4251     4.5827   63 C    1 1 0

  72 C    1     1.4025     2.6503   70 C    0 0 0
  72 C    1     1.4025     2.6504   66 C    0 0 0
  72 C    1     1.5516     2.9322   10 B    0 0 0
  72 C    1     2.1486     4.0602   36 H    0 0 0
  72 C    1     2.1487     4.0605   32 H    0 0 0
  72 C    1     2.4251     4.5827   64 C    0 0 0

  73 O    1     1.3791     2.6061    1 B    1 0 0
  73 O    1     1.3791     2.6061    5 B    1 1 0
  73 O    1     2.3880     4.5126   75 O    1 0 0
  73 O    1     2.3882     4.5130   77 O    1 1 0
  73 O    1     2.5383     4.7966   61 C    0 0 0
  73 O    1     2.5384     4.7968   49 C    0 0 0

  74 O    1     1.3791     2.6061    2 B    0 0 0
  74 O    1     1.3791     2.6061    6 B    0 0 0
  74 O    1     2.3880     4.5126   76 O    0 0 0
  74 O    1     2.3882     4.5130   78 O    0 0 0
  74 O    1     2.5383     4.7966   62 C    0 0 0
  74 O    1     2.5384     4.7968   50 C    0 0 0

  75 O    1     1.3793     2.6065    1 B    0 0 0
  75 O    1     1.3793     2.6065    3 B    0 0 0
  75 O    1     2.3880     4.5126   73 O   -1 0 0
  75 O    1     2.3882     4.5131   77 O    0 1 0
  75 O    1     2.5391     4.7981   37 C    0 0 0
  75 O    1     2.5395     4.7990   49 C   -1 0 0

  76 O    1     1.3793     2.6065    2 B    0 0 0
  76 O    1     1.3793     2.6065    4 B    0 0 0
  76 O    1     2.3880     4.5126   74 O    0 0 0
  76 O    1     2.3882     4.5131   78 O    0 0 0
  76 O    1     2.5391     4.7981   38 C    0 0 0
  76 O    1     2.5395     4.7990   50 C    0 0 0

  77 O    1     1.3793     2.6064    5 B    0 0 0
  77 O    1     1.3793     2.6065    3 B    0-1 0
  77 O    1     2.3882     4.5130   73 O   -1-1 0
  77 O    1     2.3882     4.5131   75 O    0-1 0
  77 O    1     2.5390     4.7980   37 C    0-1 0
  77 O    1     2.5391     4.7982   61 C   -1-1 0

  78 O    1     1.3793     2.6064    6 B    0 0 0
  78 O    1     1.3793     2.6065    4 B    0 0 0
  78 O    1     2.3882     4.5130   74 O    0 0 0
  78 O    1     2.3882     4.5131   76 O    0 0 0
  78 O    1     2.5390     4.7980   38 C    0 0 0
  78 O    1     2.5391     4.7982   62 C    0 0 0

  79 O    1     1.3795     2.6068   11 B    0 0 0
  79 O    1     1.3795     2.6068    7 B    0 0 0
  79 O    1     2.3880     4.5126   83 O    1 0 0
  79 O    1     2.3884     4.5134   81 O    0-1 0
  79 O    1     2.5400     4.7998   47 C    0 0 0
  79 O    1     2.5403     4.8005   59 C    0 0 0

  80 O    1     1.3795     2.6068   12 B    0 0 0
  80 O    1     1.3795     2.6068    8 B    0 0 0
  80 O    1     2.3880     4.5126   84 O    1 0 0
  80 O    1     2.3884     4.5134   82 O    0 0 0
  80 O    1     2.5400     4.7998   48 C    0 0 0
  80 O    1     2.5403     4.8005   60 C    1 1 0

  81 O    1     1.3795     2.6069    9 B    0 0 0
  81 O    1     1.3795     2.6070    7 B    0 1 0
  81 O    1     2.3881     4.5128   83 O    1 1 0
  81 O    1     2.3884     4.5134   79 O    0 1 0
  81 O    1     2.5404     4.8006   47 C    0 1 0
  81 O    1     2.5405     4.8008   71 C    0 0 0

  82 O    1     1.3795     2.6069   10 B    1 0 0
  82 O    1     1.3795     2.6070    8 B    0 0 0
  82 O    1     2.3881     4.5128   84 O    1 0 0
  82 O    1     2.3884     4.5134   80 O    0 0 0
  82 O    1     2.5404     4.8006   48 C    0 0 0
  82 O    1     2.5405     4.8008   72 C    1 0 0

  83 O    1     1.3796     2.6071   11 B   -1 0 0
  83 O    1     1.3797     2.6072    9 B   -1-1 0
  83 O    1     2.3880     4.5126   79 O   -1 0 0
  83 O    1     2.3881     4.5128   81 O   -1-1 0
  83 O    1     2.5409     4.8016   71 C   -1-1 0
  83 O    1     2.5410     4.8019   59 C   -1 0 0

  84 O    1     1.3796     2.6071   12 B   -1 0 0
  84 O    1     1.3797     2.6072   10 B    0 0 0
  84 O    1     2.3880     4.5126   80 O   -1 0 0
  84 O    1     2.3881     4.5128   82 O   -1 0 0
  84 O    1     2.5409     4.8016   72 C    0 0 0
  84 O    1     2.5410     4.8019   60 C    0 1 0


 SYMMETRY ALLOWED INTERNAL DEGREE(S) OF FREEDOM: 249
 TTTTTTTTTTTTTTTTTTTTTTTTTTTTTT SYMM        TELAPSE        2.86 TCPU        2.86
 TTTTTTTTTTTTTTTTTTTTTTTTTTTTTT INT_SCREEN  TELAPSE        3.06 TCPU        3.06

 DFT PARAMETERS

     ATOM       ELECTRONS   NET CHARGE   R(ANGSTROM)
   1   5  B       5.0000      0.0000     0.89000000
  13   1  H       1.0000      0.0000     1.11000000
  37   6  C       6.0000      0.0000     0.77000000
  73   8  O       8.0000      0.0000     0.74000000

 SIZE OF GRID=    2665519
 TTTTTTTTTTTTTTTTTTTTTTTTTTTTTT MAKE_GRID2  TELAPSE       19.61 TCPU       19.58
 BECKE WEIGHT FUNCTION
 RADSAFE =     2.00
 TOLERANCES - DENSITY:10**- 6; POTENTIAL:10**- 9; GRID WGT:10**-14

 RADIAL INTEGRATION  - INTERVALS (POINTS,UPPER LIMIT):            1( 75,  4.0*R)

 ANGULAR INTEGRATION - INTERVALS (ACCURACY LEVEL [N. POINTS] UPPER LIMIT):
  1(  4[  86]   0.2)  2(  8[ 194]   0.5)  3( 12[ 350]   0.9)  4( 16[ 974]   3.5)
  5( 12[ 350]9999.0)
 TTTTTTTTTTTTTTTTTTTTTTTTTTTTTT INT_CALC    TELAPSE       19.92 TCPU       19.89
 EEEEEEEEEE INT_CALC TERMINATION  DATE 19 02 2026 TIME 20:27:17.6

 *******************************************************************************
 cof-1_z42_L060_serr                                                             
 CRYSTAL - SCF - TYPE OF CALCULATION :  RESTRICTED CLOSED SHELL
 *******************************************************************************

 CAPPA:IS1  2;IS2  2;IS3  8; K PTS MONK NET  20; SYMMOPS:K SPACE   2;G SPACE   1

 TTTTTTTTTTTTTTTTTTTTTTTTTTTTTT SDIK        TELAPSE       22.16 TCPU       49.73

 AAAAAAAAAAAAAAAAAAAAAAAAAAAAAAAAAAAAAAAAAAAAAAAAAAAAAAAAAAAAAAAAAAAAAAAAAAAAAAA
         ATOMIC WAVEFUNCTION(S)


 NUCLEAR CHARGE  5.0  SYMMETRY SPECIES            S    P
 N. ELECTRONS    5.0  NUMBER OF PRIMITIVE GTOS    8    4
                      NUMBER OF CONTRACTED GTOS   4    2
                      NUMBER OF CLOSED SHELLS     2    0
                      OPEN SHELL OCCUPATION       0    1

  ZNUC  SCFIT    TOTAL HF ENERGY   KINETIC ENERGY   VIRIAL THEOREM ACCURACY
   5.0    11    -2.451164084E+01  2.462155050E+01 -1.995536038E+00  1.5E-06

 NUCLEAR CHARGE  1.0  SYMMETRY SPECIES            S
 N. ELECTRONS    1.0  NUMBER OF PRIMITIVE GTOS    4
                      NUMBER OF CONTRACTED GTOS   2
                      NUMBER OF CLOSED SHELLS     0
                      OPEN SHELL OCCUPATION       1

  ZNUC  SCFIT    TOTAL HF ENERGY   KINETIC ENERGY   VIRIAL THEOREM ACCURACY
   1.0     1    -4.977266687E-01  5.190767460E-01 -1.958869132E+00  0.0E+00

 NUCLEAR CHARGE  6.0  SYMMETRY SPECIES            S    P
 N. ELECTRONS    6.0  NUMBER OF PRIMITIVE GTOS    8    4
                      NUMBER OF CONTRACTED GTOS   4    2
                      NUMBER OF CLOSED SHELLS     2    0
                      OPEN SHELL OCCUPATION       0    2

  ZNUC  SCFIT    TOTAL HF ENERGY   KINETIC ENERGY   VIRIAL THEOREM ACCURACY
   6.0     9    -3.766704647E+01  3.775180683E+01 -1.997754800E+00  1.1E-06

 NUCLEAR CHARGE  8.0  SYMMETRY SPECIES            S    P
 N. ELECTRONS    8.0  NUMBER OF PRIMITIVE GTOS    8    4
                      NUMBER OF CONTRACTED GTOS   4    2
                      NUMBER OF CLOSED SHELLS     2    0
                      OPEN SHELL OCCUPATION       0    4

  ZNUC  SCFIT    TOTAL HF ENERGY   KINETIC ENERGY   VIRIAL THEOREM ACCURACY
   8.0    12    -7.477373220E+01  7.477365593E+01 -2.000001020E+00  3.8E-06

 AAAAAAAAAAAAAAAAAAAAAAAAAAAAAAAAAAAAAAAAAAAAAAAAAAAAAAAAAAAAAAAAAAAAAAAAAAAAAAA

 CHARGE NORMALIZATION FACTOR   1.00000000
 TOTAL ATOMIC CHARGES:
   5.0000000   5.0000000   5.0000000   5.0000000   5.0000000   5.0000000
   5.0000000   5.0000000   5.0000000   5.0000000   5.0000000   5.0000000
   1.0000000   1.0000000   1.0000000   1.0000000   1.0000000   1.0000000
   1.0000000   1.0000000   1.0000000   1.0000000   1.0000000   1.0000000
   1.0000000   1.0000000   1.0000000   1.0000000   1.0000000   1.0000000
   1.0000000   1.0000000   1.0000000   1.0000000   1.0000000   1.0000000
   6.0000000   6.0000000   6.0000000   6.0000000   6.0000000   6.0000000
   6.0000000   6.0000000   6.0000000   6.0000000   6.0000000   6.0000000
   6.0000000   6.0000000   6.0000000   6.0000000   6.0000000   6.0000000
   6.0000000   6.0000000   6.0000000   6.0000000   6.0000000   6.0000000
   6.0000000   6.0000000   6.0000000   6.0000000   6.0000000   6.0000000
   6.0000000   6.0000000   6.0000000   6.0000000   6.0000000   6.0000000
   8.0000000   8.0000000   8.0000000   8.0000000   8.0000000   8.0000000
   8.0000000   8.0000000   8.0000000   8.0000000   8.0000000   8.0000000
 TTTTTTTTTTTTTTTTTTTTTTTTTTTTTT MOQGAD      TELAPSE       22.26 TCPU       53.06
 TTTTTTTTTTTTTTTTTTTTTTTTTTTTTT SHELLXN     TELAPSE       35.85 TCPU      487.66
 TTTTTTTTTTTTTTTTTTTTTTTTTTTTTT MONMO3      TELAPSE       36.40 TCPU      505.03
 NUMERICALLY INTEGRATED DENSITY    395.9999503536
 TTTTTTTTTTTTTTTTTTTTTTTTTTTTTT NUMDFT      TELAPSE       37.87 TCPU      551.96
 CYC   0 ETOT(AU) -2.591909251946E+03 DETOT -2.59E+03 tst  0.00E+00 PX  1.00E+00
 TTTTTTTTTTTTTTTTTTTTTTTTTTTTTT DIIS        TELAPSE       37.97 TCPU      555.20
 TTTTTTTTTTTTTTTTTTTTTTTTTTTTTT FDIK        TELAPSE       39.93 TCPU      617.88
 INSULATING STATE
 TOP OF VALENCE BANDS -    BAND    198; K    4; EIG -3.1391764E-01 AU
 TOP OF VALENCE BANDS -    BAND    198; K    1; EIG -3.1414495E-01 AU
 BOTTOM OF VIRTUAL BANDS - BAND    199; K    1; EIG -1.5858321E-01 AU
 INDIRECT ENERGY BAND GAP:   4.2269 eV
 TTTTTTTTTTTTTTTTTTTTTTTTTTTTTT PDIG        TELAPSE       41.81 TCPU      624.66
 CHARGE NORMALIZATION FACTOR   1.00000000
 TOTAL ATOMIC CHARGES:
   4.1534994   4.1661391   4.1679539   4.1660533   4.1681904   4.1663017
   4.1658847   4.1677881   4.1656624   4.1675524   4.1657537   4.1531450
   0.7851235   0.7851198   0.7852357   0.7852393   0.7850263   0.7849952
   0.7851148   0.7851470   0.7854871   0.7850736   0.7852419   0.7856535
   0.7854774   0.7850635   0.7852035   0.7856157   0.7850289   0.7849976
   0.7851794   0.7852110   0.7850755   0.7850700   0.7852270   0.7852323
   6.0432108   6.0430482   6.2656137   6.2650535   6.2650178   6.2655772
   6.2654546   6.2648747   6.2648175   6.2654009   6.0423264   6.0424858
   6.0454744   6.0422424   6.2650082   6.2641054   6.2641837   6.2650800
   6.2649209   6.2640155   6.2642053   6.2650981   6.0410456   6.0442444
   6.0435730   6.0434068   6.2652281   6.2646433   6.2651878   6.2657739
   6.2652470   6.2646831   6.2652961   6.2658560   6.0418661   6.0420262
   8.6934540   8.6907475   8.6935595   8.6908540   8.6922049   8.6908266
   8.6911733   8.6938803   8.6912318   8.6926022   8.6913504   8.6940596
 TTTTTTTTTTTTTTTTTTTTTTTTTTTTTT MOQGAD      TELAPSE       41.91 TCPU      624.76
 TTTTTTTTTTTTTTTTTTTTTTTTTTTTTT SHELLXN     TELAPSE       56.09 TCPU     1076.73
 TTTTTTTTTTTTTTTTTTTTTTTTTTTTTT MONMO3      TELAPSE       56.63 TCPU     1094.08
 NUMERICALLY INTEGRATED DENSITY    395.9999795807
 TTTTTTTTTTTTTTTTTTTTTTTTTTTTTT NUMDFT      TELAPSE       58.12 TCPU     1141.51
 CYC   1 ETOT(AU) -2.577625784667E+03 DETOT  1.43E+01 tst  0.00E+00 PX  1.00E+00
 TTTTTTTTTTTTTTTTTTTTTTTTTTTTTT DIIS        TELAPSE       58.25 TCPU     1145.67
 DIIS TEST: 0.22189E+01 AT SCF   CYCLE   1 - MIX   30 %
 TTTTTTTTTTTTTTTTTTTTTTTTTTTTTT FDIK        TELAPSE       60.24 TCPU     1209.47
 INSULATING STATE
 TOP OF VALENCE BANDS -    BAND    198; K    4; EIG -2.2567332E-01 AU
 TOP OF VALENCE BANDS -    BAND    198; K    1; EIG -2.2624277E-01 AU
 BOTTOM OF VIRTUAL BANDS - BAND    199; K    1; EIG -8.2567918E-02 AU
 INDIRECT ENERGY BAND GAP:   3.8941 eV
 TTTTTTTTTTTTTTTTTTTTTTTTTTTTTT PDIG        TELAPSE       62.19 TCPU     1216.32
 CHARGE NORMALIZATION FACTOR   1.00000000
 TOTAL ATOMIC CHARGES:
   4.7097372   4.7101121   4.6943803   4.7159648   4.6943466   4.7159803
   4.7161013   4.6943832   4.7160806   4.6943578   4.7101367   4.7097090
   0.9103439   0.9077676   0.9077953   0.9103483   0.9116297   0.9132735
   0.9132713   0.9117462   0.9060431   0.9053742   0.9053023   0.9060982
   0.9060156   0.9053635   0.9052831   0.9060984   0.9116324   0.9132682
   0.9133619   0.9118297   0.9102711   0.9077135   0.9078023   0.9103596
   5.8547578   5.8772905   6.1413501   6.1372565   6.1376567   6.1417799
   6.1242536   6.1431233   6.1437776   6.1250055   5.8798618   5.8572904
   5.8957898   5.8670081   6.1402245   6.1199085   6.1207031   6.1408029
   6.1404373   6.1201090   6.1206030   6.1406981   5.8700831   5.8988449
   5.8546979   5.8772344   6.1243331   6.1431909   6.1435754   6.1248701
   6.1415762   6.1374704   6.1373942   6.1414888   5.8800948   5.8574657
   8.3381883   8.3299580   8.3385410   8.3303110   8.3257553   8.3371196
   8.3297893   8.3380055   8.3368543   8.3256282   8.3301715   8.3383876
 TTTTTTTTTTTTTTTTTTTTTTTTTTTTTT MOQGAD      TELAPSE       62.29 TCPU     1216.43
 TTTTTTTTTTTTTTTTTTTTTTTTTTTTTT SHELLXN     TELAPSE       76.47 TCPU     1668.43
 TTTTTTTTTTTTTTTTTTTTTTTTTTTTTT MONMO3      TELAPSE       77.01 TCPU     1685.78
 NUMERICALLY INTEGRATED DENSITY    395.9999748864
 TTTTTTTTTTTTTTTTTTTTTTTTTTTTTT NUMDFT      TELAPSE       78.50 TCPU     1733.23
 CYC   2 ETOT(AU) -2.578015167371E+03 DETOT -3.89E-01 tst  3.28E-03 PX  1.60E-01
 TTTTTTTTTTTTTTTTTTTTTTTTTTTTTT DIIS        TELAPSE       78.65 TCPU     1738.13
 DIIS TEST: 0.91931E+00 AT SCF   CYCLE   2 - DIIS ACTIVE - HISTORY:     2 CYCLES
 TTTTTTTTTTTTTTTTTTTTTTTTTTTTTT FDIK        TELAPSE       80.64 TCPU     1801.66
 INSULATING STATE
 TOP OF VALENCE BANDS -    BAND    198; K    4; EIG -2.3911068E-01 AU
 TOP OF VALENCE BANDS -    BAND    198; K    1; EIG -2.3994643E-01 AU
 BOTTOM OF VIRTUAL BANDS - BAND    199; K    1; EIG -7.8459684E-02 AU
 INDIRECT ENERGY BAND GAP:   4.3715 eV
 TTTTTTTTTTTTTTTTTTTTTTTTTTTTTT PDIG        TELAPSE       82.53 TCPU     1808.45
 CHARGE NORMALIZATION FACTOR   1.00000000
 TOTAL ATOMIC CHARGES:
   4.4969273   4.5059309   4.4960442   4.5090404   4.4961218   4.5091483
   4.5088778   4.4959567   4.5087177   4.4957793   4.5055348   4.4967393
   0.8882788   0.8871541   0.8872978   0.8884632   0.8885762   0.8917356
   0.8918682   0.8886596   0.8845783   0.8819541   0.8822903   0.8846929
   0.8846038   0.8819784   0.8822320   0.8846594   0.8885819   0.8917420
   0.8919440   0.8887330   0.8882562   0.8871540   0.8872499   0.8884209
   5.9034067   5.8811666   6.1587423   6.1616064   6.1614000   6.1585851
   6.1668488   6.1512148   6.1507212   6.1660493   5.8805283   5.9028756
   5.8903603   5.8961332   6.1605233   6.1640857   6.1637656   6.1603658
   6.1605924   6.1641327   6.1636993   6.1602312   5.8952257   5.8897163
   5.9036859   5.8814405   6.1667968   6.1511415   6.1507794   6.1661622
   6.1586909   6.1614769   6.1614347   6.1586078   5.8802778   5.9026129
   8.5101808   8.5101522   8.5103258   8.5103282   8.5176637   8.5052646
   8.5103908   8.5104756   8.5054029   8.5175485   8.5105966   8.5106634
 TTTTTTTTTTTTTTTTTTTTTTTTTTTTTT MOQGAD      TELAPSE       82.63 TCPU     1808.56
 TTTTTTTTTTTTTTTTTTTTTTTTTTTTTT SHELLXN     TELAPSE       96.81 TCPU     2260.56
 TTTTTTTTTTTTTTTTTTTTTTTTTTTTTT MONMO3      TELAPSE       97.35 TCPU     2277.92
 NUMERICALLY INTEGRATED DENSITY    395.9999760904
 TTTTTTTTTTTTTTTTTTTTTTTTTTTTTT NUMDFT      TELAPSE       98.84 TCPU     2325.50
 CYC   3 ETOT(AU) -2.578204577615E+03 DETOT -1.89E-01 tst  6.45E-04 PX  6.79E-02
 TTTTTTTTTTTTTTTTTTTTTTTTTTTTTT DIIS        TELAPSE       99.02 TCPU     2331.18
 DIIS TEST: 0.29641E-01 AT SCF   CYCLE   3 - DIIS ACTIVE - HISTORY:     3 CYCLES
 TTTTTTTTTTTTTTTTTTTTTTTTTTTTTT FDIK        TELAPSE      101.00 TCPU     2394.68
 INSULATING STATE
 TOP OF VALENCE BANDS -    BAND    198; K    4; EIG -2.4845907E-01 AU
 TOP OF VALENCE BANDS -    BAND    198; K    1; EIG -2.4898814E-01 AU
 BOTTOM OF VIRTUAL BANDS - BAND    199; K    1; EIG -8.6318426E-02 AU
 INDIRECT ENERGY BAND GAP:   4.4121 eV
 TTTTTTTTTTTTTTTTTTTTTTTTTTTTTT PDIG        TELAPSE      102.93 TCPU     2401.51
 CHARGE NORMALIZATION FACTOR   1.00000000
 TOTAL ATOMIC CHARGES:
   4.5059732   4.5076198   4.5018635   4.5115200   4.5019328   4.5116288
   4.5114878   4.5017153   4.5113254   4.5015446   4.5073578   4.5057633
   0.8712559   0.8700564   0.8701526   0.8713039   0.8743532   0.8720373
   0.8720092   0.8743981   0.8671685   0.8679706   0.8679349   0.8673070
   0.8671780   0.8679930   0.8678765   0.8672792   0.8743748   0.8720471
   0.8720950   0.8744633   0.8712259   0.8700337   0.8701160   0.8712745
   5.9239324   5.9482475   6.1728231   6.1662844   6.1665032   6.1730279
   6.1529756   6.1782324   6.1791165   6.1541338   5.9503420   5.9258906
   5.9647038   5.9269942   6.1748088   6.1548068   6.1555458   6.1753356
   6.1748279   6.1548068   6.1555467   6.1753007   5.9291445   5.9666654
   5.9239611   5.9482873   6.1529063   6.1781390   6.1791139   6.1542236
   6.1727640   6.1662231   6.1665340   6.1730308   5.9503907   5.9258798
   8.4831416   8.4743910   8.4834026   8.4746474   8.4705643   8.4821870
   8.4743874   8.4830611   8.4821910   8.4708580   8.4747023   8.4833796
 TTTTTTTTTTTTTTTTTTTTTTTTTTTTTT MOQGAD      TELAPSE      103.04 TCPU     2401.61
 TTTTTTTTTTTTTTTTTTTTTTTTTTTTTT SHELLXN     TELAPSE      117.21 TCPU     2853.63
 TTTTTTTTTTTTTTTTTTTTTTTTTTTTTT MONMO3      TELAPSE      117.76 TCPU     2870.99
 NUMERICALLY INTEGRATED DENSITY    395.9999759958
 TTTTTTTTTTTTTTTTTTTTTTTTTTTTTT NUMDFT      TELAPSE      119.24 TCPU     2918.40
 CYC   4 ETOT(AU) -2.578210377610E+03 DETOT -5.80E-03 tst  2.57E-05 PX  1.72E-02
 TTTTTTTTTTTTTTTTTTTTTTTTTTTTTT DIIS        TELAPSE      119.44 TCPU     2924.78
 DIIS TEST: 0.10448E-01 AT SCF   CYCLE   4 - DIIS ACTIVE - HISTORY:     4 CYCLES
 TTTTTTTTTTTTTTTTTTTTTTTTTTTTTT FDIK        TELAPSE      121.43 TCPU     2988.08
 INSULATING STATE
 TOP OF VALENCE BANDS -    BAND    198; K    4; EIG -2.4732693E-01 AU
 TOP OF VALENCE BANDS -    BAND    198; K    1; EIG -2.4796581E-01 AU
 BOTTOM OF VIRTUAL BANDS - BAND    199; K    1; EIG -8.6445482E-02 AU
 INDIRECT ENERGY BAND GAP:   4.3778 eV
 TTTTTTTTTTTTTTTTTTTTTTTTTTTTTT PDIG        TELAPSE      123.37 TCPU     2994.92
 CHARGE NORMALIZATION FACTOR   1.00000000
 TOTAL ATOMIC CHARGES:
   4.5075556   4.5115476   4.5010912   4.5161555   4.5011542   4.5162567
   4.5161300   4.5010788   4.5159824   4.5009151   4.5112925   4.5074299
   0.8738803   0.8725807   0.8726969   0.8740014   0.8750247   0.8766751
   0.8768109   0.8751671   0.8700674   0.8684216   0.8686526   0.8701857
   0.8700737   0.8684316   0.8686043   0.8701661   0.8750336   0.8766786
   0.8768985   0.8752453   0.8738396   0.8725580   0.8726652   0.8739778
   5.9249150   5.9199593   6.1672597   6.1700745   6.1700551   6.1673132
   6.1700478   6.1623673   6.1620036   6.1694770   5.9198609   5.9248914
   5.9295276   5.9299142   6.1680311   6.1653602   6.1653111   6.1680193
   6.1681245   6.1654390   6.1652335   6.1678890   5.9298460   5.9296389
   5.9251053   5.9201504   6.1700125   6.1623145   6.1619946   6.1695366
   6.1672702   6.1700270   6.1700322   6.1672742   5.9197284   5.9247292
   8.4870627   8.4856139   8.4872522   8.4858271   8.4889797   8.4831869
   8.4857378   8.4872395   8.4831858   8.4887901   8.4859881   8.4874755
 TTTTTTTTTTTTTTTTTTTTTTTTTTTTTT MOQGAD      TELAPSE      123.47 TCPU     2995.03
 TTTTTTTTTTTTTTTTTTTTTTTTTTTTTT SHELLXN     TELAPSE      137.65 TCPU     3447.02
 TTTTTTTTTTTTTTTTTTTTTTTTTTTTTT MONMO3      TELAPSE      138.19 TCPU     3464.37
 NUMERICALLY INTEGRATED DENSITY    395.9999762574
 TTTTTTTTTTTTTTTTTTTTTTTTTTTTTT NUMDFT      TELAPSE      139.68 TCPU     3511.82
 CYC   5 ETOT(AU) -2.578212652052E+03 DETOT -2.27E-03 tst  1.21E-05 PX  8.95E-03
 TTTTTTTTTTTTTTTTTTTTTTTTTTTTTT DIIS        TELAPSE      139.91 TCPU     3518.23
 DIIS TEST: 0.90091E-03 AT SCF   CYCLE   5 - DIIS ACTIVE - HISTORY:     5 CYCLES
 TTTTTTTTTTTTTTTTTTTTTTTTTTTTTT FDIK        TELAPSE      141.90 TCPU     3581.65
 INSULATING STATE
 TOP OF VALENCE BANDS -    BAND    198; K    4; EIG -2.4663276E-01 AU
 TOP OF VALENCE BANDS -    BAND    198; K    1; EIG -2.4723830E-01 AU
 BOTTOM OF VIRTUAL BANDS - BAND    199; K    1; EIG -8.5873745E-02 AU
 INDIRECT ENERGY BAND GAP:   4.3745 eV
 TTTTTTTTTTTTTTTTTTTTTTTTTTTTTT PDIG        TELAPSE      143.78 TCPU     3588.44
 CHARGE NORMALIZATION FACTOR   1.00000000
 TOTAL ATOMIC CHARGES:
   4.5072664   4.5114928   4.5021318   4.5153937   4.5021962   4.5154986
   4.5153211   4.5020021   4.5151679   4.5018372   4.5112021   4.5070776
   0.8749016   0.8739016   0.8740206   0.8750038   0.8769906   0.8769996
   0.8770218   0.8770570   0.8711205   0.8703664   0.8704636   0.8712548
   0.8711326   0.8703874   0.8704070   0.8712292   0.8770055   0.8770064
   0.8771068   0.8771268   0.8748699   0.8738829   0.8739830   0.8749741
   5.9173439   5.9213042   6.1710673   6.1654599   6.1654912   6.1711114
   6.1595199   6.1706609   6.1711100   6.1600185   5.9224267   5.9184245
   5.9365813   5.9145410   6.1718164   6.1599901   6.1603333   6.1720751
   6.1718548   6.1600040   6.1603131   6.1720021   5.9155325   5.9375560
   5.9174705   5.9214338   6.1594606   6.1705814   6.1711232   6.1601138
   6.1710163   6.1653771   6.1655185   6.1711158   5.9223619   5.9183175
   8.4910627   8.4850533   8.4912811   8.4852817   8.4857884   8.4886036
   8.4851399   8.4911169   8.4886786   8.4859664   8.4854129   8.4913847
 TTTTTTTTTTTTTTTTTTTTTTTTTTTTTT MOQGAD      TELAPSE      143.88 TCPU     3588.55
 TTTTTTTTTTTTTTTTTTTTTTTTTTTTTT SHELLXN     TELAPSE      158.06 TCPU     4040.48
 TTTTTTTTTTTTTTTTTTTTTTTTTTTTTT MONMO3      TELAPSE      158.60 TCPU     4057.85
 NUMERICALLY INTEGRATED DENSITY    395.9999762247
 TTTTTTTTTTTTTTTTTTTTTTTTTTTTTT NUMDFT      TELAPSE      160.08 TCPU     4105.19
 CYC   6 ETOT(AU) -2.578212792135E+03 DETOT -1.40E-04 tst  4.06E-06 PX  3.55E-03
 TTTTTTTTTTTTTTTTTTTTTTTTTTTTTT DIIS        TELAPSE      160.35 TCPU     4111.65
 DIIS TEST: 0.41989E-03 AT SCF   CYCLE   6 - DIIS ACTIVE - HISTORY:     6 CYCLES
 TTTTTTTTTTTTTTTTTTTTTTTTTTTTTT FDIK        TELAPSE      162.36 TCPU     4175.42
 INSULATING STATE
 TOP OF VALENCE BANDS -    BAND    198; K    4; EIG -2.4675113E-01 AU
 TOP OF VALENCE BANDS -    BAND    198; K    1; EIG -2.4736684E-01 AU
 BOTTOM OF VIRTUAL BANDS - BAND    199; K    1; EIG -8.5761035E-02 AU
 INDIRECT ENERGY BAND GAP:   4.3808 eV
 TTTTTTTTTTTTTTTTTTTTTTTTTTTTTT PDIG        TELAPSE      164.29 TCPU     4182.25
 CHARGE NORMALIZATION FACTOR   1.00000000
 TOTAL ATOMIC CHARGES:
   4.5071085   4.5114704   4.5019981   4.5154939   4.5020635   4.5155979
   4.5154360   4.5019125   4.5152838   4.5017464   4.5111831   4.5069342
   0.8751767   0.8737392   0.8738509   0.8752800   0.8767159   0.8773978
   0.8774682   0.8768135   0.8712478   0.8702364   0.8703801   0.8713700
   0.8712581   0.8702533   0.8703272   0.8713467   0.8767290   0.8774044
   0.8775530   0.8768858   0.8751428   0.8737198   0.8738147   0.8752517
   5.9189616   5.9220390   6.1680257   6.1680100   6.1680551   6.1681060
   6.1634155   6.1670247   6.1671247   6.1634761   5.9227088   5.9196265
   5.9334243   5.9206520   6.1696735   6.1618615   6.1620784   6.1698548
   6.1697345   6.1619045   6.1620317   6.1697565   5.9213116   5.9341379
   5.9191077   5.9221884   6.1633631   6.1669505   6.1671341   6.1635604
   6.1679950   6.1679410   6.1680644   6.1680949   5.9226234   5.9195020
   8.4892291   8.4851606   8.4894384   8.4853837   8.4867610   8.4861973
   8.4852623   8.4893330   8.4862253   8.4867773   8.4855292   8.4895917
 TTTTTTTTTTTTTTTTTTTTTTTTTTTTTT MOQGAD      TELAPSE      164.40 TCPU     4182.36
 TTTTTTTTTTTTTTTTTTTTTTTTTTTTTT SHELLXN     TELAPSE      178.57 TCPU     4634.28
 TTTTTTTTTTTTTTTTTTTTTTTTTTTTTT MONMO3      TELAPSE      179.12 TCPU     4651.62
 NUMERICALLY INTEGRATED DENSITY    395.9999762106
 TTTTTTTTTTTTTTTTTTTTTTTTTTTTTT NUMDFT      TELAPSE      180.60 TCPU     4699.09
 CYC   7 ETOT(AU) -2.578212895049E+03 DETOT -1.03E-04 tst  8.04E-07 PX  1.38E-03
 TTTTTTTTTTTTTTTTTTTTTTTTTTTTTT DIIS        TELAPSE      180.88 TCPU     4705.53
 DIIS TEST: 0.10109E-04 AT SCF   CYCLE   7 - DIIS ACTIVE - HISTORY:     7 CYCLES
 TTTTTTTTTTTTTTTTTTTTTTTTTTTTTT FDIK        TELAPSE      182.87 TCPU     4768.97
 INSULATING STATE
 TOP OF VALENCE BANDS -    BAND    198; K    4; EIG -2.4679279E-01 AU
 TOP OF VALENCE BANDS -    BAND    198; K    1; EIG -2.4741135E-01 AU
 BOTTOM OF VIRTUAL BANDS - BAND    199; K    1; EIG -8.5829929E-02 AU
 INDIRECT ENERGY BAND GAP:   4.3800 eV
 TTTTTTTTTTTTTTTTTTTTTTTTTTTTTT PDIG        TELAPSE      184.81 TCPU     4775.81
 CHARGE NORMALIZATION FACTOR   1.00000000
 TOTAL ATOMIC CHARGES:
   4.5072897   4.5115224   4.5019740   4.5155970   4.5020388   4.5157007
   4.5155410   4.5018920   4.5153894   4.5017266   4.5112407   4.5071232
   0.8750436   0.8738300   0.8739458   0.8751513   0.8766787   0.8773777
   0.8774469   0.8767742   0.8711848   0.8701216   0.8702716   0.8713104
   0.8711952   0.8701387   0.8702184   0.8712868   0.8766913   0.8773837
   0.8775323   0.8768471   0.8750091   0.8738105   0.8739099   0.8751233
   5.9201064   5.9210532   6.1688895   6.1671281   6.1671492   6.1689483
   6.1634031   6.1668795   6.1669872   6.1634593   5.9216909   5.9207469
   5.9339806   5.9205549   6.1698733   6.1616828   6.1618737   6.1700301
   6.1699346   6.1617238   6.1618286   6.1699329   5.9211468   5.9346335
   5.9202571   5.9212061   6.1633527   6.1668095   6.1669925   6.1635405
   6.1688629   6.1670598   6.1671564   6.1689354   5.9216007   5.9206193
   8.4892442   8.4850871   8.4894519   8.4853102   8.4867490   8.4862058
   8.4851874   8.4893473   8.4862437   8.4867688   8.4854527   8.4896038
 TTTTTTTTTTTTTTTTTTTTTTTTTTTTTT MOQGAD      TELAPSE      184.91 TCPU     4775.91
 TTTTTTTTTTTTTTTTTTTTTTTTTTTTTT SHELLXN     TELAPSE      199.09 TCPU     5227.83
 TTTTTTTTTTTTTTTTTTTTTTTTTTTTTT MONMO3      TELAPSE      199.63 TCPU     5245.17
 NUMERICALLY INTEGRATED DENSITY    395.9999762127
 TTTTTTTTTTTTTTTTTTTTTTTTTTTTTT NUMDFT      TELAPSE      201.12 TCPU     5292.68
 CYC   8 ETOT(AU) -2.578212897041E+03 DETOT -1.99E-06 tst  3.89E-08 PX  2.74E-04
 TTTTTTTTTTTTTTTTTTTTTTTTTTTTTT DIIS        TELAPSE      201.42 TCPU     5299.13
 DIIS TEST: 0.17301E-05 AT SCF   CYCLE   8 - DIIS ACTIVE - HISTORY:     8 CYCLES
 TTTTTTTTTTTTTTTTTTTTTTTTTTTTTT FDIK        TELAPSE      203.41 TCPU     5362.55
 INSULATING STATE
 TOP OF VALENCE BANDS -    BAND    198; K    4; EIG -2.4678245E-01 AU
 TOP OF VALENCE BANDS -    BAND    198; K    1; EIG -2.4739999E-01 AU
 BOTTOM OF VIRTUAL BANDS - BAND    199; K    1; EIG -8.5829212E-02 AU
 INDIRECT ENERGY BAND GAP:   4.3798 eV
 TTTTTTTTTTTTTTTTTTTTTTTTTTTTTT PDIG        TELAPSE      205.34 TCPU     5369.39
 CHARGE NORMALIZATION FACTOR   1.00000000
 TOTAL ATOMIC CHARGES:
   4.5073432   4.5115420   4.5019573   4.5156350   4.5020218   4.5157387
   4.5155788   4.5018732   4.5154272   4.5017079   4.5112603   4.5071754
   0.8750427   0.8737930   0.8739086   0.8751498   0.8766939   0.8773417
   0.8774091   0.8767889   0.8711781   0.8701233   0.8702702   0.8713040
   0.8711885   0.8701405   0.8702168   0.8712805   0.8767068   0.8773477
   0.8774946   0.8768616   0.8750085   0.8737734   0.8738726   0.8751218
   5.9196967   5.9213538   6.1687046   6.1673282   6.1673522   6.1687649
   6.1633116   6.1669977   6.1671188   6.1633873   5.9220134   5.9203561
   5.9337314   5.9206722   6.1698022   6.1617331   6.1619338   6.1699658
   6.1698620   6.1617738   6.1618898   6.1698697   5.9212868   5.9344020
   5.9198456   5.9215054   6.1632610   6.1669269   6.1671246   6.1634690
   6.1686765   6.1672596   6.1673604   6.1687528   5.9219250   5.9202298
   8.4892672   8.4851168   8.4894757   8.4853399   8.4868018   8.4862580
   8.4852170   8.4893686   8.4862959   8.4868284   8.4854826   8.4896257
 TTTTTTTTTTTTTTTTTTTTTTTTTTTTTT MOQGAD      TELAPSE      205.45 TCPU     5369.49
 TTTTTTTTTTTTTTTTTTTTTTTTTTTTTT SHELLXN     TELAPSE      219.62 TCPU     5821.44
 TTTTTTTTTTTTTTTTTTTTTTTTTTTTTT MONMO3      TELAPSE      220.17 TCPU     5838.82
 NUMERICALLY INTEGRATED DENSITY    395.9999762122
 TTTTTTTTTTTTTTTTTTTTTTTTTTTTTT NUMDFT      TELAPSE      221.65 TCPU     5886.31
 CYC   9 ETOT(AU) -2.578212897238E+03 DETOT -1.97E-07 tst  5.51E-09 PX  1.05E-04
 TTTTTTTTTTTTTTTTTTTTTTTTTTTTTT DIIS        TELAPSE      221.98 TCPU     5892.88
 DIIS TEST: 0.50651E-07 AT SCF   CYCLE   9 - DIIS ACTIVE - HISTORY:     9 CYCLES
 TTTTTTTTTTTTTTTTTTTTTTTTTTTTTT FDIK        TELAPSE      223.97 TCPU     5956.11
 INSULATING STATE
 TOP OF VALENCE BANDS -    BAND    198; K    4; EIG -2.4678552E-01 AU
 TOP OF VALENCE BANDS -    BAND    198; K    1; EIG -2.4740349E-01 AU
 BOTTOM OF VIRTUAL BANDS - BAND    199; K    1; EIG -8.5827164E-02 AU
 INDIRECT ENERGY BAND GAP:   4.3799 eV
 TTTTTTTTTTTTTTTTTTTTTTTTTTTTTT PDIG        TELAPSE      225.92 TCPU     5962.96
 CHARGE NORMALIZATION FACTOR   1.00000000
 TOTAL ATOMIC CHARGES:
   4.5073053   4.5115345   4.5019681   4.5156198   4.5020328   4.5157235
   4.5155637   4.5018848   4.5154120   4.5017194   4.5112520   4.5071366
   0.8750524   0.8737812   0.8738958   0.8751586   0.8766776   0.8773463
   0.8774157   0.8767741   0.8711700   0.8701257   0.8702733   0.8712947
   0.8711803   0.8701427   0.8702202   0.8712713   0.8766905   0.8773524
   0.8775010   0.8768469   0.8750181   0.8737617   0.8738599   0.8751306
   5.9197402   5.9213347   6.1686582   6.1673841   6.1674128   6.1687240
   6.1633704   6.1669647   6.1670721   6.1634305   5.9219838   5.9203896
   5.9338145   5.9205380   6.1698494   6.1617278   6.1619282   6.1700148
   6.1699106   6.1617693   6.1618829   6.1699174   5.9211518   5.9344871
   5.9198894   5.9214865   6.1633194   6.1668934   6.1670786   6.1635128
   6.1686303   6.1673155   6.1674208   6.1687116   5.9218952   5.9202630
   8.4892739   8.4851228   8.4894821   8.4853458   8.4867790   8.4862358
   8.4852237   8.4893771   8.4862706   8.4867989   8.4854894   8.4896342
 TTTTTTTTTTTTTTTTTTTTTTTTTTTTTT MOQGAD      TELAPSE      226.03 TCPU     5963.07
 TTTTTTTTTTTTTTTTTTTTTTTTTTTTTT SHELLXN     TELAPSE      240.20 TCPU     6415.02
 +++ ENERGIES IN A.U. +++
 ::: EXT EL-POLE                                  -2.4651588360339E+03
 ::: EXT EL-SPHEROPOLE                             2.7224506529484E+01
 ::: BIELET ZONE E-E                               3.9663950351366E+03
 ::: TOTAL E-E                                     1.5284607056322E+03
 ::: TOTAL E-N + N-E                              -6.7188778811306E+03
 ::: TOTAL N-N                                     3.1975463480402E+02
 ::: KINETIC ENERGY                                2.5598881479331E+03
 ::: PSEUDO TOTAL   ENERGY                        -2.3107743927612E+03
 ::: VIRIAL COEFFICIENT                            1.0511457636596E+00
 TTTTTTTTTTTTTTTTTTTTTTTTTTTTTT MONMO3      TELAPSE      240.74 TCPU     6432.39
 NUMERICALLY INTEGRATED DENSITY    395.9999762118
 EXCHANGE ENERGY: -0.252059248529E+03  CORRELATION ENERGY: -0.153792560351E+02
 TTTTTTTTTTTTTTTTTTTTTTTTTTTTTT NUMDFT      TELAPSE      242.23 TCPU     6479.75
 CYC  10 ETOT(AU) -2.578212897325E+03 DETOT -8.73E-08 tst  2.92E-10 PX  1.05E-04

 == SCF ENDED - CONVERGENCE ON ENERGY      E(AU) -2.5782128973251E+03 CYCLES  10


 ENERGY EXPRESSION=HARTREE+FOCK EXCH*0.00000+(HSESOL     EXCH)*1.00000+PBESOL     CORR


 TOTAL ENERGY(DFT)(AU)( 10) -2.5782128973251E+03 DE-8.7E-08 tester 2.9E-10
 TTTTTTTTTTTTTTTTTTTTTTTTTTTTTT EDFT        TELAPSE      242.23 TCPU     6479.76
 
 INFORMATION **** DFTD3 ENERGY **** CALCULATE DFTD3 ENERGY

           DFT-D V3(BJ)
 DF                                         hsesol3c  
 parameters
 s6       :    1.0000
 s8       :    0.0000
 a1       :    0.5196
 a2       :    4.9385
 k1 k3    :   16.0000   -4.0000
 Cutoff   :   50.2022
 CN-Cutoff:   21.1671
 ABC-Cutoff:   21.1671
 
 Edisp /kcal,au:   -44.9452 -0.07162466

 E6    /kcal :   -47.3208
 E8    /kcal :     0.0000
 E6(ABC) "   :   2.375600
 
 INFORMATION **** DFTD3 ENERGY **** NORMAL TERMINATION OF DFTD3 MODULE

 GCP ENERGY CALCULATION
  level        hsesol3c            basis:hsesol3c
  Nbf            948
  Atoms           84

  Parameters: 
  sigma     1.0000
  eta       1.4281
  alpha     0.2936
  beta      1.9467

  dmp_scal      4.0000
  dmp_exp       6.0000
 cutoffs: 
   distance [bohr] 60.0
   noise    [a.u.] 2.2E-16
 SR-damping   T
 ** gCP correction **
  Egcp:        0.1658510678 / (a.u.) ||     104.0731 / (kcal/mol)
 INFORMATION **** GCP **** NORMAL TERMINATION OF GCP MODULE

 *******************************************************************************

 DFT-D3-GCP DISPERSION AND COUNTERPOISE CORRECTION

 D3 DISPERSION ENERGY (AU)      -7.1624664623194E-02
 GCP ENERGY (AU)                 1.6585106781738E-01
 TOTAL ENERGY + DISP + GCP (AU) -2.5781186709219E+03

 *******************************************************************************

 EIGENVECTORS IN FORTRAN UNIT  8
 TTTTTTTTTTTTTTTTTTTTTTTTTTTTTT END         TELAPSE      245.35 TCPU     6488.42
 EEEEEEEEEE TERMINATION  DATE 19 02 2026 TIME 20:31:03.0
