 Default number of threads is:           32

         
 *******************************************************************************
 *                                                                             *
 *                               CRYSTAL23                                     *
 *                      public : 1.0.1 - October 2022                          *
 *                       HTTP://WWW.CRYSTAL.UNITO.IT                           *
 *                                                                             *
 *                              MAIN AUTHORS                                   *
 *                                                                             *
 *  R. DOVESI(1,11), V.R. SAUNDERS(2), C. ROETTI(1,11), R. ORLANDO(1,11),      *
 *  C.M. ZICOVICH-WILSON(1,3), F. PASCALE(4), B. CIVALLERI(1,11),              *
 *  K. DOLL(5), N.M. HARRISON(6), I.J. BUSH(7), Ph. D'ARCO(8),                 *
 *  M. LLUNELL(9), M. CAUSA'(10), Y. NOEL(8), L. MASCHIO(1,11), A. ERBA(1,11)  *
 *  M. RE'RAT(14), S. CASASSA(1,11), B.G. SEARLE(2), J.K. DESMARAIS(1)         *
 *                                                                             *
 *        CONTRIBUTIONS TO THE CODE HAVE ALSO BEEN GIVEN BY                    *
 *                                                                             *
 *  M. FERRABONE(1,11), M. DE LA PIERRE(1,11), M. FERRERO(1,11),               *
 *  J. BAIMA(1,11), E. ALBANESE(1,11), M.F. PEINTINGER(12), R. BAST(13),       *
 *  B. KIRTMAN(15), V. LACIVITA(1,11), R. DEMICHELIS(1,16)                     *
 *  G. BRANDEBURG(17), S. SALUSTRO(1,11), G. SANSONE(1,11)                     *
 *  M.T. RUGGIERO(18), L.E. DAGA(1), L. DONA'(1), A. COSSARD(1)                *
 *                                                                             *
 * (1) THEORETICAL CHEMISTRY GROUP - UNIVERSITA' DI TORINO - TORINO (ITALY)    *
 * (2) SCIENTIFIC COMPUTING DEPARTMENT - STFC DARESBURY (UK)                   *
 * (3) UNIVERSIDAD AUTONOMA DEL ESTADO DE MORELOS - CUERNAVACA (MEXICO)        *
 * (4) UNIVERSITE' DE LORRAINE - NANCY (FRANCE)                                *
 * (5) UNIVERSITAET STUTTGART- STUTTGART (GERMANY)                             *
 * (6) IMPERIAL COLLEGE - LONDON (UK)                                          *
 * (7) SCIENTIFIC COMPUTING DEPARTMENT - STFC RAL (UK)                         *
 * (8) UPMC - SORBONNE UNIVERSITES - PARIS (FRANCE)                            *
 * (9) UNIVERSIDAD DE BARCELONA - BARCELONA (SPAIN)                            *
 *(10) UNIVERSITA' DI NAPOLI "FEDERICO II" - NAPOLI (ITALY)                    *
 *(11) NIS - NANOSTRUCTURED INTERFACES AND SURFACES - TORINO (ITALY)           *
 *(12) MPI FUER CHEMISCHE ENERGIEKONVERSION - MUELHEIM AN DER RUHR (GERMANY)   *
 *(13) UNIVERSITY OF TROMSO - TROMSO (NORWAY)                                  *
 *(14) UNIVERSITE' DE PAU ET DES PAYS DE L'ADOUR - PAU (FRANCE)                *
 *(15) UNIVERSITY OF CALIFORNIA SANTA BARBARA - SANTA BARBARA (USA)            *
 *(16) CURTIN UNIVERSITY - PERTH (AUSTRALIA)                                   *
 *(17) UNIVERSITY COLLEGE LONDON - LONDON (UK)                                 *
 *(18) UNIVERSITY OF VERMONT - BURLINGTON (USA)                                *
 *                                                                             *
 *******************************************************************************
 EEEEEEEEEE STARTING  DATE 19 02 2026 TIME 20:03:20.7
 cof-1_z34_L000_serr                                                             

 CRYSTAL CALCULATION
 (INPUT ACCORDING TO THE INTERNATIONAL TABLES FOR X-RAY CRYSTALLOGRAPHY)
 CRYSTAL FAMILY                       :  TRICLINIC   
 CRYSTAL CLASS  (GROTH - 1921)        :  TRICLINIC PEDIAL                     

 SPACE GROUP (NONCENTROSYMMETRIC)     :  P 1             

 LATTICE PARAMETERS  (ANGSTROMS AND DEGREES) - CONVENTIONAL CELL
        A           B           C        ALPHA        BETA       GAMMA
    15.02361    15.02392     6.80000    90.00032    89.99994   119.99596


 NUMBER OF IRREDUCIBLE ATOMS IN THE CONVENTIONAL CELL:   84

 INPUT COORDINATES

 ATOM AT. N.              COORDINATES
   1   5     6.136805400000E-01  2.273182200000E-01  2.507024600000E-01
   2   5     6.136805400000E-01  2.273182200000E-01  7.507024600000E-01
   3   5     7.727362000000E-01  3.863778800000E-01  2.507024700000E-01
   4   5     7.727362000000E-01  3.863778800000E-01  7.507024700000E-01
   5   5     6.136762700000E-01  3.863606700000E-01  2.492255300000E-01
   6   5     6.136762700000E-01  3.863606700000E-01  7.492255200000E-01
   7   5     2.272552500000E-01  6.136332200000E-01  2.507024600000E-01
   8   5     2.272552500000E-01  6.136332200000E-01  7.507024600000E-01
   9   5     3.863632200000E-01  6.136124500000E-01  2.507024600000E-01
  10   5     3.863632200000E-01  6.136124500000E-01  7.507024600000E-01
  11   5     3.863435000000E-01  7.727516500000E-01  2.492255300000E-01
  12   5     3.863435000000E-01  7.727516500000E-01  7.492255300000E-01
  13   1     9.030436200000E-01  3.089300500000E-01  2.476404700000E-01
  14   1     9.030436200000E-01  3.089300500000E-01  7.476404800000E-01
  15   1     9.663453000000E-02  6.910534400000E-01  2.471722500000E-01
  16   1     9.663453000000E-02  6.910534400000E-01  7.471722500000E-01
  17   1     9.029714200000E-01  5.940724300000E-01  2.471001800000E-01
  18   1     9.029714200000E-01  5.940724300000E-01  7.471001800000E-01
  19   1     9.673618000000E-02  4.056849400000E-01  2.471181600000E-01
  20   1     9.673618000000E-02  4.056849400000E-01  7.471181600000E-01
  21   1     6.910324000000E-01  9.700412000000E-02  2.523595500000E-01
  22   1     6.910324000000E-01  9.700412000000E-02  7.523595500000E-01
  23   1     3.089297200000E-01  9.034373100000E-01  2.528278100000E-01
  24   1     3.089297200000E-01  9.034373100000E-01  7.528278100000E-01
  25   1     4.058699900000E-01  9.704998000000E-02  2.528999100000E-01
  26   1     4.058699900000E-01  9.704998000000E-02  7.528999100000E-01
  27   1     5.943122100000E-01  9.033473200000E-01  2.528818200000E-01
  28   1     5.943122100000E-01  9.033473200000E-01  7.528818200000E-01
  29   1     6.910727400000E-01  5.940542100000E-01  2.476405000000E-01
  30   1     6.910727400000E-01  5.940542100000E-01  7.476405000000E-01
  31   1     3.089618300000E-01  4.056093300000E-01  2.471722200000E-01
  32   1     3.089618300000E-01  4.056093300000E-01  7.471722100000E-01
  33   1     4.058405700000E-01  3.088232500000E-01  2.471001300000E-01
  34   1     4.058405700000E-01  3.088232500000E-01  7.471001300000E-01
  35   1     5.942908800000E-01  6.909579300000E-01  2.471182100000E-01
  36   1     5.942908800000E-01  6.909579300000E-01  7.471182100000E-01
  37   6     8.918903100000E-01  4.459436900000E-01  2.491714900000E-01
  38   6     8.918903100000E-01  4.459436900000E-01  7.491714900000E-01
  39   6     9.464891100000E-01  3.927856300000E-01  2.477125300000E-01
  40   6     9.464891100000E-01  3.927856300000E-01  7.477125300000E-01
  41   6     5.338812000000E-02  6.071853000000E-01  2.475864900000E-01
  42   6     5.338812000000E-02  6.071853000000E-01  7.475864900000E-01
  43   6     9.464521100000E-01  5.536921900000E-01  2.479647300000E-01
  44   6     9.464521100000E-01  5.536921900000E-01  7.479647300000E-01
  45   6     5.342634000000E-02  4.462499700000E-01  2.469920800000E-01
  46   6     5.342634000000E-02  4.462499700000E-01  7.469920700000E-01
  47   6     1.080358900000E-01  5.540356300000E-01  2.479827300000E-01
  48   6     1.080358900000E-01  5.540356300000E-01  7.479827300000E-01
  49   6     5.540394200000E-01  1.081684600000E-01  2.508285600000E-01
  50   6     5.540394200000E-01  1.081684600000E-01  7.508285600000E-01
  51   6     6.071778500000E-01  5.355594000000E-02  2.522874800000E-01
  52   6     6.071778500000E-01  5.355594000000E-02  7.522874800000E-01
  53   6     3.927986700000E-01  9.466631600000E-01  2.524135600000E-01
  54   6     3.927986700000E-01  9.466631600000E-01  7.524135600000E-01
  55   6     4.462875800000E-01  5.360286000000E-02  2.520353400000E-01
  56   6     4.462875800000E-01  5.360286000000E-02  7.520353300000E-01
  57   6     5.537168500000E-01  9.466235600000E-01  2.530079300000E-01
  58   6     5.537168500000E-01  9.466235600000E-01  7.530079300000E-01
  59   6     4.459279100000E-01  8.919920600000E-01  2.520173100000E-01
  60   6     4.459279100000E-01  8.919920600000E-01  7.520173000000E-01
  61   6     5.540448700000E-01  4.458745500000E-01  2.491714900000E-01
  62   6     5.540448700000E-01  4.458745500000E-01  7.491714800000E-01
  63   6     6.072102200000E-01  5.536257800000E-01  2.477125600000E-01
  64   6     6.072102200000E-01  5.536257800000E-01  7.477125600000E-01
  65   6     3.928233700000E-01  4.461720300000E-01  2.475864700000E-01
  66   6     3.928233700000E-01  4.461720300000E-01  7.475864700000E-01
  67   6     4.462872600000E-01  3.926899900000E-01  2.479647000000E-01
  68   6     4.462872600000E-01  3.926899900000E-01  7.479647000000E-01
  69   6     5.537429600000E-01  6.070980000000E-01  2.469921100000E-01
  70   6     5.537429600000E-01  6.070980000000E-01  7.469921100000E-01
  71   6     4.459599800000E-01  5.539582300000E-01  2.479827300000E-01
  72   6     4.459599800000E-01  5.539582300000E-01  7.479827300000E-01
  73   8     5.607366800000E-01  2.803706300000E-01  2.496217700000E-01
  74   8     5.607366800000E-01  2.803706300000E-01  7.496217700000E-01
  75   8     7.196817000000E-01  2.803783300000E-01  2.527377600000E-01
  76   8     7.196817000000E-01  2.803783300000E-01  7.527377600000E-01
  77   8     7.196794200000E-01  4.393234600000E-01  2.480367700000E-01
  78   8     7.196794200000E-01  4.393234600000E-01  7.480367700000E-01
  79   8     2.803245100000E-01  7.196511100000E-01  2.496217900000E-01
  80   8     2.803245100000E-01  7.196511100000E-01  7.496217900000E-01
  81   8     2.803439700000E-01  5.606956100000E-01  2.527377600000E-01
  82   8     2.803439700000E-01  5.606956100000E-01  7.527377600000E-01
  83   8     4.392638400000E-01  7.196354200000E-01  2.480367600000E-01
  84   8     4.392638400000E-01  7.196354200000E-01  7.480367600000E-01

 *******************************************************************************

 << INFORMATION >>: FROM NOW ON, ALL COORDINATES REFER TO THE PRIMITIVE CELL

 *******************************************************************************

 LATTICE PARAMETERS  (ANGSTROMS AND DEGREES) - PRIMITIVE CELL
       A          B          C        ALPHA      BETA     GAMMA        VOLUME
   15.02361   15.02392    6.80000    90.00032  89.99994 119.99596   1329.274527

 COORDINATES OF THE EQUIVALENT ATOMS (FRACTIONAL UNITS)

 N. ATOM EQUIV AT. N.          X                  Y                  Z

   1   1   1    5 B    -3.86319460000E-01  2.27318220000E-01  2.50702460000E-01

   2   2   1    5 B    -3.86319460000E-01  2.27318220000E-01 -2.49297540000E-01

   3   3   1    5 B    -2.27263800000E-01  3.86377880000E-01  2.50702470000E-01

   4   4   1    5 B    -2.27263800000E-01  3.86377880000E-01 -2.49297530000E-01

   5   5   1    5 B    -3.86323730000E-01  3.86360670000E-01  2.49225530000E-01

   6   6   1    5 B    -3.86323730000E-01  3.86360670000E-01 -2.50774480000E-01

   7   7   1    5 B     2.27255250000E-01 -3.86366780000E-01  2.50702460000E-01

   8   8   1    5 B     2.27255250000E-01 -3.86366780000E-01 -2.49297540000E-01

   9   9   1    5 B     3.86363220000E-01 -3.86387550000E-01  2.50702460000E-01

  10  10   1    5 B     3.86363220000E-01 -3.86387550000E-01 -2.49297540000E-01

  11  11   1    5 B     3.86343500000E-01 -2.27248350000E-01  2.49225530000E-01

  12  12   1    5 B     3.86343500000E-01 -2.27248350000E-01 -2.50774470000E-01

  13  13   1    1 H    -9.69563800000E-02  3.08930050000E-01  2.47640470000E-01

  14  14   1    1 H    -9.69563800000E-02  3.08930050000E-01 -2.52359520000E-01

  15  15   1    1 H     9.66345300000E-02 -3.08946560000E-01  2.47172250000E-01

  16  16   1    1 H     9.66345300000E-02 -3.08946560000E-01 -2.52827750000E-01

  17  17   1    1 H    -9.70285800000E-02 -4.05927570000E-01  2.47100180000E-01

  18  18   1    1 H    -9.70285800000E-02 -4.05927570000E-01 -2.52899820000E-01

  19  19   1    1 H     9.67361800000E-02  4.05684940000E-01  2.47118160000E-01

  20  20   1    1 H     9.67361800000E-02  4.05684940000E-01 -2.52881840000E-01

  21  21   1    1 H    -3.08967600000E-01  9.70041200000E-02  2.52359550000E-01

  22  22   1    1 H    -3.08967600000E-01  9.70041200000E-02 -2.47640450000E-01

  23  23   1    1 H     3.08929720000E-01 -9.65626900000E-02  2.52827810000E-01

  24  24   1    1 H     3.08929720000E-01 -9.65626900000E-02 -2.47172190000E-01

  25  25   1    1 H     4.05869990000E-01  9.70499800000E-02  2.52899910000E-01

  26  26   1    1 H     4.05869990000E-01  9.70499800000E-02 -2.47100090000E-01

  27  27   1    1 H    -4.05687790000E-01 -9.66526800000E-02  2.52881820000E-01

  28  28   1    1 H    -4.05687790000E-01 -9.66526800000E-02 -2.47118180000E-01

  29  29   1    1 H    -3.08927260000E-01 -4.05945790000E-01  2.47640500000E-01

  30  30   1    1 H    -3.08927260000E-01 -4.05945790000E-01 -2.52359500000E-01

  31  31   1    1 H     3.08961830000E-01  4.05609330000E-01  2.47172220000E-01

  32  32   1    1 H     3.08961830000E-01  4.05609330000E-01 -2.52827790000E-01

  33  33   1    1 H     4.05840570000E-01  3.08823250000E-01  2.47100130000E-01

  34  34   1    1 H     4.05840570000E-01  3.08823250000E-01 -2.52899870000E-01

  35  35   1    1 H    -4.05709120000E-01 -3.09042070000E-01  2.47118210000E-01

  36  36   1    1 H    -4.05709120000E-01 -3.09042070000E-01 -2.52881790000E-01

  37  37   1    6 C    -1.08109690000E-01  4.45943690000E-01  2.49171490000E-01

  38  38   1    6 C    -1.08109690000E-01  4.45943690000E-01 -2.50828510000E-01

  39  39   1    6 C    -5.35108900000E-02  3.92785630000E-01  2.47712530000E-01

  40  40   1    6 C    -5.35108900000E-02  3.92785630000E-01 -2.52287470000E-01

  41  41   1    6 C     5.33881200000E-02 -3.92814700000E-01  2.47586490000E-01

  42  42   1    6 C     5.33881200000E-02 -3.92814700000E-01 -2.52413510000E-01

  43  43   1    6 C    -5.35478900000E-02 -4.46307810000E-01  2.47964730000E-01

  44  44   1    6 C    -5.35478900000E-02 -4.46307810000E-01 -2.52035270000E-01

  45  45   1    6 C     5.34263400000E-02  4.46249970000E-01  2.46992080000E-01

  46  46   1    6 C     5.34263400000E-02  4.46249970000E-01 -2.53007930000E-01

  47  47   1    6 C     1.08035890000E-01 -4.45964370000E-01  2.47982730000E-01

  48  48   1    6 C     1.08035890000E-01 -4.45964370000E-01 -2.52017270000E-01

  49  49   1    6 C    -4.45960580000E-01  1.08168460000E-01  2.50828560000E-01

  50  50   1    6 C    -4.45960580000E-01  1.08168460000E-01 -2.49171440000E-01

  51  51   1    6 C    -3.92822150000E-01  5.35559400000E-02  2.52287480000E-01

  52  52   1    6 C    -3.92822150000E-01  5.35559400000E-02 -2.47712520000E-01

  53  53   1    6 C     3.92798670000E-01 -5.33368400000E-02  2.52413560000E-01

  54  54   1    6 C     3.92798670000E-01 -5.33368400000E-02 -2.47586440000E-01

  55  55   1    6 C     4.46287580000E-01  5.36028600000E-02  2.52035340000E-01

  56  56   1    6 C     4.46287580000E-01  5.36028600000E-02 -2.47964670000E-01

  57  57   1    6 C    -4.46283150000E-01 -5.33764400000E-02  2.53007930000E-01

  58  58   1    6 C    -4.46283150000E-01 -5.33764400000E-02 -2.46992070000E-01

  59  59   1    6 C     4.45927910000E-01 -1.08007940000E-01  2.52017310000E-01

  60  60   1    6 C     4.45927910000E-01 -1.08007940000E-01 -2.47982700000E-01

  61  61   1    6 C    -4.45955130000E-01  4.45874550000E-01  2.49171490000E-01

  62  62   1    6 C    -4.45955130000E-01  4.45874550000E-01 -2.50828520000E-01

  63  63   1    6 C    -3.92789780000E-01 -4.46374220000E-01  2.47712560000E-01

  64  64   1    6 C    -3.92789780000E-01 -4.46374220000E-01 -2.52287440000E-01

  65  65   1    6 C     3.92823370000E-01  4.46172030000E-01  2.47586470000E-01

  66  66   1    6 C     3.92823370000E-01  4.46172030000E-01 -2.52413530000E-01

  67  67   1    6 C     4.46287260000E-01  3.92689990000E-01  2.47964700000E-01

  68  68   1    6 C     4.46287260000E-01  3.92689990000E-01 -2.52035300000E-01

  69  69   1    6 C    -4.46257040000E-01 -3.92902000000E-01  2.46992110000E-01

  70  70   1    6 C    -4.46257040000E-01 -3.92902000000E-01 -2.53007890000E-01

  71  71   1    6 C     4.45959980000E-01 -4.46041770000E-01  2.47982730000E-01

  72  72   1    6 C     4.45959980000E-01 -4.46041770000E-01 -2.52017270000E-01

  73  73   1    8 O    -4.39263320000E-01  2.80370630000E-01  2.49621770000E-01

  74  74   1    8 O    -4.39263320000E-01  2.80370630000E-01 -2.50378230000E-01

  75  75   1    8 O    -2.80318300000E-01  2.80378330000E-01  2.52737760000E-01

  76  76   1    8 O    -2.80318300000E-01  2.80378330000E-01 -2.47262240000E-01

  77  77   1    8 O    -2.80320580000E-01  4.39323460000E-01  2.48036770000E-01

  78  78   1    8 O    -2.80320580000E-01  4.39323460000E-01 -2.51963230000E-01

  79  79   1    8 O     2.80324510000E-01 -2.80348890000E-01  2.49621790000E-01

  80  80   1    8 O     2.80324510000E-01 -2.80348890000E-01 -2.50378210000E-01

  81  81   1    8 O     2.80343970000E-01 -4.39304390000E-01  2.52737760000E-01

  82  82   1    8 O     2.80343970000E-01 -4.39304390000E-01 -2.47262240000E-01

  83  83   1    8 O     4.39263840000E-01 -2.80364580000E-01  2.48036760000E-01

  84  84   1    8 O     4.39263840000E-01 -2.80364580000E-01 -2.51963240000E-01

 NUMBER OF SYMMETRY OPERATORS         :    1
 *******************************************************************************
 * GEOMETRY EDITING - INPUT COORDINATES ARE GIVEN IN ANGSTROM         
 *******************************************************************************

 GCALCO - MAX INDICES DIRECT LATTICE VECTOR    11    11    22
 NO.OF VECTORS CREATED 6999 STARS 3500 RMAX   247.51041 BOHR

 GEOMETRY FOR WAVE FUNCTION - DIMENSIONALITY OF THE SYSTEM    3
 (NON PERIODIC DIRECTION: LATTICE PARAMETER FORMALLY SET TO 500)
 *******************************************************************************
 LATTICE PARAMETERS (ANGSTROMS AND DEGREES) - BOHR = 0.5291772083 ANGSTROM
 PRIMITIVE CELL - CENTRING CODE 1/0 VOLUME=  1329.274527 - DENSITY  0.975 g/cm^3
         A              B              C           ALPHA      BETA       GAMMA 
    15.02361100    15.02391600     6.80000000    90.000323  89.999944 119.995964
 *******************************************************************************
 ATOMS IN THE ASYMMETRIC UNIT   84 - ATOMS IN THE UNIT CELL:   84
     ATOM                 X/A                 Y/B                 Z/C    
 *******************************************************************************
      1 T   5 B    -3.863194600000E-01  2.273182200000E-01  2.507024600000E-01
      2 T   5 B    -3.863194600000E-01  2.273182200000E-01 -2.492975400000E-01
      3 T   5 B    -2.272638000000E-01  3.863778800000E-01  2.507024700000E-01
      4 T   5 B    -2.272638000000E-01  3.863778800000E-01 -2.492975300000E-01
      5 T   5 B    -3.863237300000E-01  3.863606700000E-01  2.492255300000E-01
      6 T   5 B    -3.863237300000E-01  3.863606700000E-01 -2.507744800000E-01
      7 T   5 B     2.272552500000E-01 -3.863667800000E-01  2.507024600000E-01
      8 T   5 B     2.272552500000E-01 -3.863667800000E-01 -2.492975400000E-01
      9 T   5 B     3.863632200000E-01 -3.863875500000E-01  2.507024600000E-01
     10 T   5 B     3.863632200000E-01 -3.863875500000E-01 -2.492975400000E-01
     11 T   5 B     3.863435000000E-01 -2.272483500000E-01  2.492255300000E-01
     12 T   5 B     3.863435000000E-01 -2.272483500000E-01 -2.507744700000E-01
     13 T   1 H    -9.695638000000E-02  3.089300500000E-01  2.476404700000E-01
     14 T   1 H    -9.695638000000E-02  3.089300500000E-01 -2.523595200000E-01
     15 T   1 H     9.663453000000E-02 -3.089465600000E-01  2.471722500000E-01
     16 T   1 H     9.663453000000E-02 -3.089465600000E-01 -2.528277500000E-01
     17 T   1 H    -9.702858000000E-02 -4.059275700000E-01  2.471001800000E-01
     18 T   1 H    -9.702858000000E-02 -4.059275700000E-01 -2.528998200000E-01
     19 T   1 H     9.673618000000E-02  4.056849400000E-01  2.471181600000E-01
     20 T   1 H     9.673618000000E-02  4.056849400000E-01 -2.528818400000E-01
     21 T   1 H    -3.089676000000E-01  9.700412000000E-02  2.523595500000E-01
     22 T   1 H    -3.089676000000E-01  9.700412000000E-02 -2.476404500000E-01
     23 T   1 H     3.089297200000E-01 -9.656269000000E-02  2.528278100000E-01
     24 T   1 H     3.089297200000E-01 -9.656269000000E-02 -2.471721900000E-01
     25 T   1 H     4.058699900000E-01  9.704998000000E-02  2.528999100000E-01
     26 T   1 H     4.058699900000E-01  9.704998000000E-02 -2.471000900000E-01
     27 T   1 H    -4.056877900000E-01 -9.665268000000E-02  2.528818200000E-01
     28 T   1 H    -4.056877900000E-01 -9.665268000000E-02 -2.471181800000E-01
     29 T   1 H    -3.089272600000E-01 -4.059457900000E-01  2.476405000000E-01
     30 T   1 H    -3.089272600000E-01 -4.059457900000E-01 -2.523595000000E-01
     31 T   1 H     3.089618300000E-01  4.056093300000E-01  2.471722200000E-01
     32 T   1 H     3.089618300000E-01  4.056093300000E-01 -2.528277900000E-01
     33 T   1 H     4.058405700000E-01  3.088232500000E-01  2.471001300000E-01
     34 T   1 H     4.058405700000E-01  3.088232500000E-01 -2.528998700000E-01
     35 T   1 H    -4.057091200000E-01 -3.090420700000E-01  2.471182100000E-01
     36 T   1 H    -4.057091200000E-01 -3.090420700000E-01 -2.528817900000E-01
     37 T   6 C    -1.081096900000E-01  4.459436900000E-01  2.491714900000E-01
     38 T   6 C    -1.081096900000E-01  4.459436900000E-01 -2.508285100000E-01
     39 T   6 C    -5.351089000000E-02  3.927856300000E-01  2.477125300000E-01
     40 T   6 C    -5.351089000000E-02  3.927856300000E-01 -2.522874700000E-01
     41 T   6 C     5.338812000000E-02 -3.928147000000E-01  2.475864900000E-01
     42 T   6 C     5.338812000000E-02 -3.928147000000E-01 -2.524135100000E-01
     43 T   6 C    -5.354789000000E-02 -4.463078100000E-01  2.479647300000E-01
     44 T   6 C    -5.354789000000E-02 -4.463078100000E-01 -2.520352700000E-01
     45 T   6 C     5.342634000000E-02  4.462499700000E-01  2.469920800000E-01
     46 T   6 C     5.342634000000E-02  4.462499700000E-01 -2.530079300000E-01
     47 T   6 C     1.080358900000E-01 -4.459643700000E-01  2.479827300000E-01
     48 T   6 C     1.080358900000E-01 -4.459643700000E-01 -2.520172700000E-01
     49 T   6 C    -4.459605800000E-01  1.081684600000E-01  2.508285600000E-01
     50 T   6 C    -4.459605800000E-01  1.081684600000E-01 -2.491714400000E-01
     51 T   6 C    -3.928221500000E-01  5.355594000000E-02  2.522874800000E-01
     52 T   6 C    -3.928221500000E-01  5.355594000000E-02 -2.477125200000E-01
     53 T   6 C     3.927986700000E-01 -5.333684000000E-02  2.524135600000E-01
     54 T   6 C     3.927986700000E-01 -5.333684000000E-02 -2.475864400000E-01
     55 T   6 C     4.462875800000E-01  5.360286000000E-02  2.520353400000E-01
     56 T   6 C     4.462875800000E-01  5.360286000000E-02 -2.479646700000E-01
     57 T   6 C    -4.462831500000E-01 -5.337644000000E-02  2.530079300000E-01
     58 T   6 C    -4.462831500000E-01 -5.337644000000E-02 -2.469920700000E-01
     59 T   6 C     4.459279100000E-01 -1.080079400000E-01  2.520173100000E-01
     60 T   6 C     4.459279100000E-01 -1.080079400000E-01 -2.479827000000E-01
     61 T   6 C    -4.459551300000E-01  4.458745500000E-01  2.491714900000E-01
     62 T   6 C    -4.459551300000E-01  4.458745500000E-01 -2.508285200000E-01
     63 T   6 C    -3.927897800000E-01 -4.463742200000E-01  2.477125600000E-01
     64 T   6 C    -3.927897800000E-01 -4.463742200000E-01 -2.522874400000E-01
     65 T   6 C     3.928233700000E-01  4.461720300000E-01  2.475864700000E-01
     66 T   6 C     3.928233700000E-01  4.461720300000E-01 -2.524135300000E-01
     67 T   6 C     4.462872600000E-01  3.926899900000E-01  2.479647000000E-01
     68 T   6 C     4.462872600000E-01  3.926899900000E-01 -2.520353000000E-01
     69 T   6 C    -4.462570400000E-01 -3.929020000000E-01  2.469921100000E-01
     70 T   6 C    -4.462570400000E-01 -3.929020000000E-01 -2.530078900000E-01
     71 T   6 C     4.459599800000E-01 -4.460417700000E-01  2.479827300000E-01
     72 T   6 C     4.459599800000E-01 -4.460417700000E-01 -2.520172700000E-01
     73 T   8 O    -4.392633200000E-01  2.803706300000E-01  2.496217700000E-01
     74 T   8 O    -4.392633200000E-01  2.803706300000E-01 -2.503782300000E-01
     75 T   8 O    -2.803183000000E-01  2.803783300000E-01  2.527377600000E-01
     76 T   8 O    -2.803183000000E-01  2.803783300000E-01 -2.472622400000E-01
     77 T   8 O    -2.803205800000E-01  4.393234600000E-01  2.480367700000E-01
     78 T   8 O    -2.803205800000E-01  4.393234600000E-01 -2.519632300000E-01
     79 T   8 O     2.803245100000E-01 -2.803488900000E-01  2.496217900000E-01
     80 T   8 O     2.803245100000E-01 -2.803488900000E-01 -2.503782100000E-01
     81 T   8 O     2.803439700000E-01 -4.393043900000E-01  2.527377600000E-01
     82 T   8 O     2.803439700000E-01 -4.393043900000E-01 -2.472622400000E-01
     83 T   8 O     4.392638400000E-01 -2.803645800000E-01  2.480367600000E-01
     84 T   8 O     4.392638400000E-01 -2.803645800000E-01 -2.519632400000E-01

 T = ATOM BELONGING TO THE ASYMMETRIC UNIT

 ****    1 SYMMOPS - TRANSLATORS IN FRACTIONAL UNITS
 **** MATRICES AND TRANSLATORS IN THE CRYSTALLOGRAPHIC REFERENCE FRAME
   V INV                    ROTATION MATRICES                   TRANSLATORS
   1   1  1.00  0.00  0.00  0.00  1.00  0.00  0.00 -0.00  1.00  0.00  0.00  0.00

 DIRECT LATTICE VECTORS CARTESIAN COMPONENTS (ANGSTROM)
          X                    Y                    Z
   0.130113578931E+02  -0.751088897922E+01   0.000000000000E+00
   0.000000000000E+00   0.150239160000E+02   0.000000000000E+00
  -0.144547080487E-04  -0.383344116893E-04   0.679999999988E+01


 CARTESIAN COORDINATES - PRIMITIVE CELL
 *******************************************************************************
 *      ATOM          X(ANGSTROM)         Y(ANGSTROM)         Z(ANGSTROM)
 *******************************************************************************
    1     5 B    -5.026544378943E+00  6.316802806589E+00  1.704776727969E+00
    2     5 B    -5.026537151589E+00  6.316821973795E+00 -1.695223271969E+00
    3     5 B    -2.957014261767E+00  7.511852373641E+00  1.704776795969E+00
    4     5 B    -2.957007034413E+00  7.511871540847E+00 -1.695223203969E+00
    5     5 B    -5.026599916093E+00 -6.317640656064E+00  1.694733603969E+00
    6     5 B    -5.026592688739E+00 -6.317621488857E+00 -1.705266463969E+00
    7     5 B     2.956895766995E+00 -7.511640611136E+00  1.704776727969E+00
    8     5 B     2.956902994349E+00 -7.511621443930E+00 -1.695223271969E+00
    9     5 B     5.027106508303E+00  6.316921043750E+00  1.704776727969E+00
   10     5 B     5.027113735657E+00  6.316940210956E+00 -1.695223271969E+00
   11     5 B     5.026849945674E+00 -6.315952811795E+00  1.694733603969E+00
   12     5 B     5.026857173028E+00 -6.315933644589E+00 -1.705266395969E+00
   13     1 H    -1.261537739766E+00  5.369558233931E+00  1.683955195969E+00
   14     1 H    -1.261530512412E+00  5.369577401136E+00 -1.716044735969E+00
   15     1 H     1.257342881855E+00 -5.367407867521E+00  1.680771299969E+00
   16     1 H     1.257350109209E+00 -5.367388700315E+00 -1.719228699969E+00
   17     1 H    -1.262477151996E+00 -5.369860294013E+00  1.680281223970E+00
   18     1 H    -1.262469924642E+00 -5.369841126807E+00 -1.719718775969E+00
   19     1 H     1.258665487166E+00  5.368392279642E+00  1.680403487970E+00
   20     1 H     1.258672714520E+00  5.368411446848E+00 -1.719596511969E+00
   21     1 H    -4.020091668742E+00  3.777993418254E+00  1.716044939969E+00
   22     1 H    -4.020084441388E+00  3.778012585460E+00 -1.683955059969E+00
   23     1 H     4.019591496170E+00 -3.771096264600E+00  1.719229107969E+00
   24     1 H     4.019598723524E+00 -3.771077097394E+00 -1.680770891969E+00
   25     1 H     5.280916042347E+00 -1.590383382333E+00  1.719719387969E+00
   26     1 H     5.280923269701E+00 -1.590364215127E+00 -1.680280611970E+00
   27     1 H    -5.278552683866E+00  1.594964511343E+00  1.719596375969E+00
   28     1 H    -5.278545456512E+00  1.594983678549E+00 -1.680403623970E+00
   29     1 H    -4.019566722352E+00 -3.778586590153E+00  1.683955399969E+00
   30     1 H    -4.019559494998E+00 -3.778567422947E+00 -1.716044599969E+00
   31     1 H     4.020009372621E+00  3.773253023589E+00  1.680771095969E+00
   32     1 H     4.020016599976E+00  3.773272190795E+00 -1.719228971969E+00
   33     1 H     5.280533332032E+00  1.591501629877E+00  1.680280883970E+00
   34     1 H     5.280540559386E+00  1.591520797083E+00 -1.719719115969E+00
   35     1 H    -5.278830132819E+00 -1.595795415102E+00  1.680403827970E+00
   36     1 H    -5.278822905465E+00 -1.595776247896E+00 -1.719596171969E+00
   37     6 C    -1.406657469999E+00  7.511810866615E+00  1.694366131969E+00
   38     6 C    -1.406650242645E+00  7.511830033821E+00 -1.705633867969E+00
   39     6 C    -6.962529215783E-01  6.303083169182E+00  1.684445203969E+00
   40     6 C    -6.962456942243E-01  6.303102336388E+00 -1.715554795969E+00
   41     6 C     6.946483577670E-01 -6.302616789577E+00  1.683588131969E+00
   42     6 C     6.946555851210E-01 -6.302597622371E+00 -1.716411867969E+00
   43     6 C    -6.967343454658E-01 -6.303108296305E+00  1.686160163969E+00
   44     6 C    -6.967271181118E-01 -6.303089129099E+00 -1.713839835969E+00
   45     6 C     6.951456604577E-01  6.303133287681E+00  1.679546143970E+00
   46     6 C     6.951528878119E-01  6.303152454887E+00 -1.720453923969E+00
   47     6 C     1.405690045567E+00 -7.511586315706E+00  1.686282563969E+00
   48     6 C     1.405697272921E+00 -7.511567148500E+00 -1.713717435969E+00
   49     6 C     7.208801554828E+00 -2.536224332205E+00  1.705634207969E+00
   50     6 C     7.208808782182E+00 -2.536205165000E+00 -1.694365791969E+00
   51     6 C    -5.111153228712E+00  3.755053829796E+00  1.715554863969E+00
   52     6 C    -5.111146001358E+00  3.755072997002E+00 -1.684445135969E+00
   53     6 C     5.110840426722E+00 -3.751605081545E+00  1.716412207969E+00
   54     6 C     5.110847654076E+00 -3.751585914339E+00 -1.683587791969E+00
   55     6 C     5.806803783509E+00 -2.546701261810E+00  1.713840311969E+00
   56     6 C     5.806811010863E+00 -2.546682094604E+00 -1.686159755969E+00
   57     6 C    -5.806753443446E+00  2.550050343096E+00  1.720453923969E+00
   58     6 C    -5.806746216092E+00  2.550069510302E+00 -1.679546075970E+00
   59     6 C     5.802123988676E+00 -4.972026903572E+00  1.713717707969E+00
   60     6 C     5.802131216030E+00 -4.972007736366E+00 -1.686282359969E+00
   61     6 C     7.208872490681E+00  2.537402725821E+00  1.694366131969E+00
   62     6 C     7.208879718035E+00  2.537421893027E+00 -1.705633935969E+00
   63     6 C    -5.110731984928E+00 -3.756097852010E+00  1.684445407969E+00
   64     6 C    -5.110724757574E+00 -3.756078684804E+00 -1.715554591969E+00
   65     6 C     5.111161877036E+00  3.752788888676E+00  1.683587995969E+00
   66     6 C     5.111169104390E+00  3.752808055882E+00 -1.716412003969E+00
   67     6 C     5.806799678714E+00  2.547717855521E+00  1.686159959969E+00
   68     6 C     5.806806906068E+00  2.547737022727E+00 -1.713840039969E+00
   69     6 C    -5.806413629935E+00 -2.551149028895E+00  1.679546347970E+00
   70     6 C    -5.806406402581E+00 -2.551129861690E+00 -1.720453651969E+00
   71     6 C     5.802541321242E+00  4.973056509803E+00  1.686282563969E+00
   72     6 C     5.802548548596E+00  4.973075677009E+00 -1.713717435969E+00
   73     8 O     7.295942019035E+00  6.242748289573E-04  1.697428035969E+00
   74     8 O     7.295949246389E+00  6.434420348026E-04 -1.702571963969E+00
   75     8 O    -3.647325378524E+00  6.317810419730E+00  1.718616767969E+00
   76     8 O    -3.647318151170E+00  6.317829586935E+00 -1.681383231969E+00
   77     8 O    -3.647354976468E+00 -6.318109993505E+00  1.686650035969E+00
   78     8 O    -3.647347749114E+00 -6.318090826299E+00 -1.713349963969E+00
   79     8 O     3.647398917596E+00 -6.317434015921E+00  1.697428171969E+00
   80     8 O     3.647406144950E+00 -6.317414848715E+00 -1.702571827969E+00
   81     8 O     3.647652073580E+00  6.318201622993E+00  1.718616767969E+00
   82     8 O     3.647659300934E+00  6.318220790198E+00 -1.681383231969E+00
   83     8 O    -7.295942446637E+00 -5.563632463949E-04  1.686649967969E+00
   84     8 O    -7.295935219283E+00 -5.371960405503E-04 -1.713350031969E+00

 *******************************************************************************
 STARTING BASIS SET HANDLING 
 *******************************************************************************

 Loading internal basis set: SOLDEF2MSVP         

 Please cite in your publication:
 L. Dona', J. G. Brandenburg and B. Civalleri, J. Chem. Phys., 151, 121101 (2019
 )                                                                              
                                                                                
                    

 *******************************************************************************
 LOCAL ATOMIC FUNCTIONS BASIS SET
 *******************************************************************************
   ATOM   X(AU)   Y(AU)   Z(AU)  N. TYPE  EXPONENT  S COEF   P COEF   D/F/G COEF
 *******************************************************************************
   1 B   -9.499  11.937   3.222
                                  1 S  
                                         2.410E+03 1.755E-03 0.000E+00 0.000E+00
                                         3.619E+02 1.344E-02 0.000E+00 0.000E+00
                                         8.231E+01 6.637E-02 0.000E+00 0.000E+00
                                         2.311E+01 2.303E-01 0.000E+00 0.000E+00
                                         7.252E+00 5.150E-01 0.000E+00 0.000E+00
                                  2 S  
                                         2.367E+00 1.000E+00 0.000E+00 0.000E+00
                                  3 S  
                                         5.533E-01 1.000E+00 0.000E+00 0.000E+00
                                  4 S  
                                         1.716E-01 1.000E+00 0.000E+00 0.000E+00
                           5-     7 P  
                                         6.002E+00 0.000E+00-3.555E-02 0.000E+00
                                         1.240E+00 0.000E+00-1.983E-01 0.000E+00
                                         3.367E-01 0.000E+00-5.048E-01 0.000E+00
                           8-    10 P  
                                         1.256E-01 0.000E+00 1.000E+00 0.000E+00
                          11-    15 D  
                                         8.880E-01 0.000E+00 0.000E+00 1.000E+00
   2 B   -9.499  11.937  -3.204
   3 B   -5.588  14.195   3.222
   4 B   -5.588  14.195  -3.204
   5 B   -9.499 -11.939   3.203
   6 B   -9.499 -11.939  -3.222
   7 B    5.588 -14.195   3.222
   8 B    5.588 -14.195  -3.204
   9 B    9.500  11.937   3.222
  10 B    9.500  11.937  -3.204
  11 B    9.499 -11.935   3.203
  12 B    9.499 -11.935  -3.222
  13 H   -2.384  10.147   3.182
                                181 S  
                                         1.874E+01 1.968E-02 0.000E+00 0.000E+00
                                         2.826E+00 1.380E-01 0.000E+00 0.000E+00
                                         6.401E-01 4.783E-01 0.000E+00 0.000E+00
                                182 S  
                                         1.756E-01 1.000E+00 0.000E+00 0.000E+00
  14 H   -2.384  10.147  -3.243
  15 H    2.376 -10.143   3.176
  16 H    2.376 -10.143  -3.249
  17 H   -2.386 -10.148   3.175
  18 H   -2.386 -10.148  -3.250
  19 H    2.379  10.145   3.176
  20 H    2.379  10.145  -3.250
  21 H   -7.597   7.139   3.243
  22 H   -7.597   7.139  -3.182
  23 H    7.596  -7.126   3.249
  24 H    7.596  -7.126  -3.176
  25 H    9.979  -3.005   3.250
  26 H    9.979  -3.005  -3.175
  27 H   -9.975   3.014   3.250
  28 H   -9.975   3.014  -3.176
  29 H   -7.596  -7.140   3.182
  30 H   -7.596  -7.140  -3.243
  31 H    7.597   7.130   3.176
  32 H    7.597   7.130  -3.249
  33 H    9.979   3.008   3.175
  34 H    9.979   3.008  -3.250
  35 H   -9.976  -3.016   3.176
  36 H   -9.976  -3.016  -3.250
  37 C   -2.658  14.195   3.202
                                229 S  
                                         3.624E+03 1.634E-03 0.000E+00 0.000E+00
                                         5.440E+02 1.252E-02 0.000E+00 0.000E+00
                                         1.237E+02 6.211E-02 0.000E+00 0.000E+00
                                         3.476E+01 2.182E-01 0.000E+00 0.000E+00
                                         1.093E+01 4.980E-01 0.000E+00 0.000E+00
                                230 S  
                                         3.574E+00 1.000E+00 0.000E+00 0.000E+00
                                231 S  
                                         7.742E-01 1.000E+00 0.000E+00 0.000E+00
                                232 S  
                                         2.330E-01 1.000E+00 0.000E+00 0.000E+00
                         233-   235 P  
                                         9.443E+00 0.000E+00 3.790E-02 0.000E+00
                                         2.002E+00 0.000E+00 2.082E-01 0.000E+00
                                         5.463E-01 0.000E+00 5.047E-01 0.000E+00
                         236-   238 P  
                                         1.820E-01 0.000E+00 1.000E+00 0.000E+00
                         239-   243 D  
                                         8.880E-01 0.000E+00 0.000E+00 1.000E+00
  38 C   -2.658  14.195  -3.223
  39 C   -1.316  11.911   3.183
  40 C   -1.316  11.911  -3.242
  41 C    1.313 -11.910   3.182
  42 C    1.313 -11.910  -3.244
  43 C   -1.317 -11.911   3.186
  44 C   -1.317 -11.911  -3.239
  45 C    1.314  11.911   3.174
  46 C    1.314  11.911  -3.251
  47 C    2.656 -14.195   3.187
  48 C    2.656 -14.195  -3.238
  49 C   13.623  -4.793   3.223
  50 C   13.623  -4.793  -3.202
  51 C   -9.659   7.096   3.242
  52 C   -9.659   7.096  -3.183
  53 C    9.658  -7.090   3.244
  54 C    9.658  -7.089  -3.182
  55 C   10.973  -4.813   3.239
  56 C   10.973  -4.813  -3.186
  57 C  -10.973   4.819   3.251
  58 C  -10.973   4.819  -3.174
  59 C   10.964  -9.396   3.238
  60 C   10.964  -9.396  -3.187
  61 C   13.623   4.795   3.202
  62 C   13.623   4.795  -3.223
  63 C   -9.658  -7.098   3.183
  64 C   -9.658  -7.098  -3.242
  65 C    9.659   7.092   3.182
  66 C    9.659   7.092  -3.244
  67 C   10.973   4.814   3.186
  68 C   10.973   4.815  -3.239
  69 C  -10.973  -4.821   3.174
  70 C  -10.973  -4.821  -3.251
  71 C   10.965   9.398   3.187
  72 C   10.965   9.398  -3.238
  73 O   13.787   0.001   3.208
                                769 S  
                                         6.773E+03 1.727E-03 0.000E+00 0.000E+00
                                         1.017E+03 1.325E-02 0.000E+00 0.000E+00
                                         2.313E+02 6.603E-02 0.000E+00 0.000E+00
                                         6.501E+01 2.353E-01 0.000E+00 0.000E+00
                                         2.050E+01 5.498E-01 0.000E+00 0.000E+00
                                770 S  
                                         6.716E+00 1.000E+00 0.000E+00 0.000E+00
                                771 S  
                                         1.147E+00 1.000E+00 0.000E+00 0.000E+00
                                772 S  
                                         3.342E-01 1.000E+00 0.000E+00 0.000E+00
                         773-   775 P  
                                         1.769E+01 0.000E+00 4.359E-02 0.000E+00
                                         3.854E+00 0.000E+00 2.318E-01 0.000E+00
                                         1.047E+00 0.000E+00 5.146E-01 0.000E+00
                         776-   778 P  
                                         2.759E-01 0.000E+00 1.000E+00 0.000E+00
                         779-   783 D  
                                         8.000E-01 0.000E+00 0.000E+00 1.000E+00
  74 O   13.787   0.001  -3.217
  75 O   -6.892  11.939   3.248
  76 O   -6.892  11.939  -3.177
  77 O   -6.893 -11.939   3.187
  78 O   -6.892 -11.939  -3.238
  79 O    6.893 -11.938   3.208
  80 O    6.893 -11.938  -3.217
  81 O    6.893  11.940   3.248
  82 O    6.893  11.940  -3.177
  83 O  -13.787  -0.001   3.187
  84 O  -13.787  -0.001  -3.238

 *******************************************************************************
 FINISHED BASIS SET HANDLING 
 *******************************************************************************

 INFORMATION **** SET_MPP **** PCRYSTAL CALCULATION
 INFORMATION **** READM2 **** NEW DEFAULT: FOCK/KS MATRIX MIXING SET TO 30 %
 INFORMATION **** READM2 **** NEW DEFAULT: FULL DIRECT SCF MODE
 INFORMATION **** READM2 **** NEW DEFAULT: COULOMB BIPOLAR BUFFER SET TO 32 Mb
 INFORMATION **** READM2 **** NEW DEFAULT: EXCHANGE BIPOLAR BUFFER SET TO 32 Mb

 *******************************************************************************
 NEW DEFAULT: DFT INTEGRATION GRID INCREASED TO XLGRID
 NEW DEFAULT: DIIS ACCELERATOR ACTIVE
 USE KEYWORD NODIIS TO TURN IT OFF
 *******************************************************************************

 WARNING **** RDDFTP **** HSEsol-HJS ACTIVE
 RANGE SEPARATION - OMEGA:   0.110000000000000     
 WARNING **** RDDFTP **** HSEsol-3c has to be combined with sol-def2-mSVP basis set
 *******************************************************************************
 N. OF ATOMS PER CELL        84  COULOMB OVERLAP TOL         (T1) 10**   -6
 NUMBER OF SHELLS           468  COULOMB PENETRATION TOL     (T2) 10**   -6
 NUMBER OF AO               948  EXCHANGE OVERLAP TOL        (T3) 10**   -6
 N. OF ELECTRONS PER CELL   396  EXCHANGE PSEUDO OVP (F(G))  (T4) 10**   -6
 CORE ELECTRONS PER CELL    120  EXCHANGE PSEUDO OVP (P(G))  (T5) 10**  -12
 N. OF SYMMETRY OPERATORS     1  POLE ORDER IN MONO ZONE                  4
 *******************************************************************************
 TYPE OF CALCULATION :  RESTRICTED CLOSED SHELL
 KOHN-SHAM HAMILTONIAN

 (EXCHANGE)[CORRELATION] FUNCTIONAL:(HSEsol GGA)[PBEsol]

 RANGE-SEPARATED HYBRID FUNCTIONAL 
 OMEGA (SHORT-RANGE)[LONG-RANGE]:(    0.1100)[    0.0000]

 HYBRID EXCHANGE - PERCENTAGE OF FOCK EXCHANGE    25.0000

 CAPPA:IS1  2;IS2  2;IS3  8; K PTS MONK NET  20; SYMMOPS:K SPACE   2;G SPACE   1

 *******************************************************************************
 MAX NUMBER OF SCF CYCLES      50  CONVERGENCE ON DELTAP        10**-16
 WEIGHT OF F(I) IN F(I+1)      30% CONVERGENCE ON ENERGY        10**- 6
 SHRINK. FACT.(MONKH.)    2  2  8  NUMBER OF K POINTS IN THE IBZ     20
 SHRINKING FACTOR(GILAT NET)    8  NUMBER OF K POINTS(GILAT NET)   1028
 *******************************************************************************
 *** K POINTS COORDINATES (OBLIQUE COORDINATES IN UNITS OF IS =  2)
   1-R(  0  0  0)   2-R(  1  0  0)   3-R(  0  1  0)   4-R(  1  1  0)
   5-C(  0  0  1)   6-C(  1  0  1)   7-C(  0  1  1)   8-C(  1  1  1)
   9-C(  0  0  2)  10-C(  1  0  2)  11-C(  0  1  2)  12-C(  1  1  2)
  13-C(  0  0  3)  14-C(  1  0  3)  15-C(  0  1  3)  16-C(  1  1  3)
  17-R(  0  0  4)  18-R(  1  0  4)  19-R(  0  1  4)  20-R(  1  1  4)

 DIRECT LATTICE VECTORS COMPON. (A.U.)     RECIP. LATTICE VECTORS COMPON. (A.U.) 
        X            Y            Z              X            Y            Z
   24.5879030  -14.1935232    0.0000000      0.2555397    0.0000000    0.0000005
    0.0000000   28.3910867    0.0000000      0.1277517    0.2213084    0.0000015
   -0.0000273   -0.0000724   12.8501377      0.0000000    0.0000000    0.4889586

 DISK SPACE FOR EIGENVECTORS (FTN 10)    28758528 REALS

 SYMMETRY ADAPTION OF THE BLOCH FUNCTIONS DISABLED
 TTTTTTTTTTTTTTTTTTTTTTTTTTTTTT gordsh1     TELAPSE        0.05 TCPU        0.05

 MATRIX SIZE: P(G)  797980, F(G)  163624, P(G) IRR  401048, F(G) IRR  164656
 MAX G-VECTOR INDEX FOR 1- AND 2-ELECTRON INTEGRALS  67

 TTTTTTTTTTTTTTTTTTTTTTTTTTTTTT INPUT       TELAPSE        3.03 TCPU        3.03

 NEIGHBORS OF THE NON-EQUIVALENT ATOMS

 N = NUMBER OF NEIGHBORS AT DISTANCE R
    ATOM  N     R/ANG      R/AU   NEIGHBORS (ATOM LABELS AND CELL INDICES)
   1 B    1     1.3791     2.6061   73 O   -1 0 0
   1 B    1     1.3793     2.6065   75 O    0 0 0
   1 B    1     1.5503     2.9297   49 C   -1 0 0
   1 B    1     2.3895     4.5155    5 B    0 1 0
   1 B    1     2.3898     4.5160    3 B    0 0 0
   1 B    1     2.5632     4.8437   51 C    0 0 0

   2 B    1     1.3791     2.6061   74 O   -1 0 0
   2 B    1     1.3793     2.6065   76 O    0 0 0
   2 B    1     1.5503     2.9297   50 C   -1 0 0
   2 B    1     2.3895     4.5155    6 B    0 1 0
   2 B    1     2.3898     4.5160    4 B    0 0 0
   2 B    1     2.5632     4.8437   52 C    0 0 0

   3 B    1     1.3793     2.6065   77 O    0 1 0
   3 B    1     1.3793     2.6065   75 O    0 0 0
   3 B    1     1.5504     2.9298   37 C    0 0 0
   3 B    1     2.3895     4.5156    5 B    0 1 0
   3 B    1     2.3898     4.5160    1 B    0 0 0
   3 B    1     2.5634     4.8440   43 C    0 1 0

   4 B    1     1.3793     2.6065   78 O    0 1 0
   4 B    1     1.3793     2.6065   76 O    0 0 0
   4 B    1     1.5504     2.9298   38 C    0 0 0
   4 B    1     2.3895     4.5156    6 B    0 1 0
   4 B    1     2.3898     4.5160    2 B    0 0 0
   4 B    1     2.5634     4.8440   44 C    0 1 0

   5 B    1     1.3791     2.6061   73 O   -1-1 0
   5 B    1     1.3793     2.6064   77 O    0 0 0
   5 B    1     1.5502     2.9294   61 C   -1-1 0
   5 B    1     2.3895     4.5155    1 B    0-1 0
   5 B    1     2.3895     4.5156    3 B    0-1 0
   5 B    1     2.5629     4.8433   63 C    0 0 0

   6 B    1     1.3791     2.6061   74 O   -1-1 0
   6 B    1     1.3793     2.6064   78 O    0 0 0
   6 B    1     1.5502     2.9294   62 C   -1-1 0
   6 B    1     2.3895     4.5155    2 B    0-1 0
   6 B    1     2.3895     4.5156    4 B    0-1 0
   6 B    1     2.5629     4.8433   64 C    0 0 0

   7 B    1     1.3795     2.6068   79 O    0 0 0
   7 B    1     1.3795     2.6070   81 O    0-1 0
   7 B    1     1.5513     2.9316   47 C    0 0 0
   7 B    1     2.3905     4.5174   11 B    0 0 0
   7 B    1     2.3905     4.5175    9 B    0-1 0
   7 B    1     2.5648     4.8468   45 C    0-1 0

   8 B    1     1.3795     2.6068   80 O    0 0 0
   8 B    1     1.3795     2.6070   82 O    0-1 0
   8 B    1     1.5513     2.9316   48 C    0 0 0
   8 B    1     2.3905     4.5174   12 B    0 0 0
   8 B    1     2.3905     4.5175   10 B    0-1 0
   8 B    1     2.5648     4.8468   46 C    0-1 0

   9 B    1     1.3795     2.6069   81 O    0 0 0
   9 B    1     1.3797     2.6072   83 O    1 1 0
   9 B    1     1.5516     2.9322   71 C    0 0 0
   9 B    1     2.3905     4.5175    7 B    0 1 0
   9 B    1     2.3911     4.5185   11 B    0 1 0
   9 B    1     2.5651     4.8473   69 C    1 1 0

  10 B    1     1.3795     2.6069   82 O    0 0 0
  10 B    1     1.3797     2.6072   84 O    1 1 0
  10 B    1     1.5516     2.9322   72 C    0 0 0
  10 B    1     2.3905     4.5175    8 B    0 1 0
  10 B    1     2.3911     4.5185   12 B    0 1 0
  10 B    1     2.5651     4.8473   70 C    1 1 0

  11 B    1     1.3795     2.6068   79 O    0 0 0
  11 B    1     1.3796     2.6071   83 O    1 0 0
  11 B    1     1.5516     2.9322   59 C    0 0 0
  11 B    1     2.3905     4.5174    7 B    0 0 0
  11 B    1     2.3911     4.5185    9 B    0-1 0
  11 B    1     2.5651     4.8473   57 C    1 0 0

  12 B    1     1.3795     2.6068   80 O    0 0 0
  12 B    1     1.3796     2.6071   84 O    1 0 0
  12 B    1     1.5516     2.9322   60 C    0 0 0
  12 B    1     2.3905     4.5174    8 B    0 0 0
  12 B    1     2.3911     4.5185   10 B    0-1 0
  12 B    1     2.5651     4.8473   58 C    1 0 0

  13 H    1     1.0913     2.0623   39 C    0 0 0
  13 H    1     2.1472     4.0576   37 C    0 0 0
  13 H    1     2.1680     4.0969   45 C    0 0 0
  13 H    1     2.5202     4.7625   19 H    0 0 0
  13 H    1     2.5676     4.8520   75 O    0 0 0
  13 H    1     2.7321     5.1630    3 B    0 0 0

  14 H    1     1.0913     2.0623   40 C    0 0 0
  14 H    1     2.1472     4.0576   38 C    0 0 0
  14 H    1     2.1680     4.0969   46 C    0 0 0
  14 H    1     2.5202     4.7625   20 H    0 0 0
  14 H    1     2.5676     4.8520   76 O    0 0 0
  14 H    1     2.7321     5.1630    4 B    0 0 0

  15 H    1     1.0914     2.0625   41 C    0 0 0
  15 H    1     2.1493     4.0616   47 C    0 0 0
  15 H    1     2.1666     4.0942   43 C    0 0 0
  15 H    1     2.5198     4.7618   17 H    0 0 0
  15 H    1     2.5720     4.8604   79 O    0 0 0
  15 H    1     2.7362     5.1707    7 B    0 0 0

  16 H    1     1.0914     2.0625   42 C    0 0 0
  16 H    1     2.1493     4.0616   48 C    0 0 0
  16 H    1     2.1666     4.0942   44 C    0 0 0
  16 H    1     2.5198     4.7618   18 H    0 0 0
  16 H    1     2.5720     4.8604   80 O    0 0 0
  16 H    1     2.7362     5.1707    8 B    0 0 0

  17 H    1     1.0914     2.0624   43 C    0 0 0
  17 H    1     2.1471     4.0575   37 C    0-1 0
  17 H    1     2.1680     4.0970   41 C    0 0 0
  17 H    1     2.5198     4.7618   15 H    0 0 0
  17 H    1     2.5665     4.8500   77 O    0 0 0
  17 H    1     2.7315     5.1618    3 B    0-1 0

  18 H    1     1.0914     2.0624   44 C    0 0 0
  18 H    1     2.1471     4.0575   38 C    0-1 0
  18 H    1     2.1680     4.0970   42 C    0 0 0
  18 H    1     2.5198     4.7618   16 H    0 0 0
  18 H    1     2.5665     4.8500   78 O    0 0 0
  18 H    1     2.7315     5.1618    4 B    0-1 0

  19 H    1     1.0915     2.0626   45 C    0 0 0
  19 H    1     2.1490     4.0610   47 C    0 1 0
  19 H    1     2.1669     4.0948   39 C    0 0 0
  19 H    1     2.5202     4.7625   13 H    0 0 0
  19 H    1     2.5712     4.8588   81 O    0 0 0
  19 H    1     2.7351     5.1686    7 B    0 1 0

  20 H    1     1.0915     2.0626   46 C    0 0 0
  20 H    1     2.1490     4.0610   48 C    0 1 0
  20 H    1     2.1669     4.0948   40 C    0 0 0
  20 H    1     2.5202     4.7625   14 H    0 0 0
  20 H    1     2.5712     4.8588   82 O    0 0 0
  20 H    1     2.7351     5.1686    8 B    0 1 0

  21 H    1     1.0913     2.0623   51 C    0 0 0
  21 H    1     2.1469     4.0571   49 C   -1 0 0
  21 H    1     2.1680     4.0968   57 C    0 0 0
  21 H    1     2.5198     4.7617   27 H    0 0 0
  21 H    1     2.5670     4.8510   75 O    0 0 0
  21 H    1     2.7310     5.1609    1 B    0 0 0

  22 H    1     1.0913     2.0623   52 C    0 0 0
  22 H    1     2.1469     4.0571   50 C   -1 0 0
  22 H    1     2.1680     4.0968   58 C    0 0 0
  22 H    1     2.5198     4.7617   28 H    0 0 0
  22 H    1     2.5670     4.8510   76 O    0 0 0
  22 H    1     2.7310     5.1609    2 B    0 0 0

  23 H    1     1.0914     2.0625   53 C    0 0 0
  23 H    1     2.1493     4.0617   59 C    0 0 0
  23 H    1     2.1664     4.0939   55 C    0 0 0
  23 H    1     2.5192     4.7606   25 H    0 0 0
  23 H    1     2.5735     4.8632   79 O    0 0 0
  23 H    1     2.7371     5.1723   11 B    0 0 0

  24 H    1     1.0914     2.0625   54 C    0 0 0
  24 H    1     2.1493     4.0617   60 C    0 0 0
  24 H    1     2.1664     4.0939   56 C    0 0 0
  24 H    1     2.5192     4.7606   26 H    0 0 0
  24 H    1     2.5735     4.8632   80 O    0 0 0
  24 H    1     2.7371     5.1723   12 B    0 0 0

  25 H    1     1.0914     2.0624   55 C    0 0 0
  25 H    1     2.1475     4.0581   49 C    0 0 0
  25 H    1     2.1679     4.0967   53 C    0 0 0
  25 H    1     2.5192     4.7606   23 H    0 0 0
  25 H    1     2.5675     4.8519   73 O    0 0 0
  25 H    1     2.7328     5.1643    1 B    1 0 0

  26 H    1     1.0914     2.0624   56 C    0 0 0
  26 H    1     2.1475     4.0581   50 C    0 0 0
  26 H    1     2.1679     4.0967   54 C    0 0 0
  26 H    1     2.5192     4.7606   24 H    0 0 0
  26 H    1     2.5675     4.8519   74 O    0 0 0
  26 H    1     2.7328     5.1643    2 B    1 0 0

  27 H    1     1.0914     2.0625   57 C    0 0 0
  27 H    1     2.1491     4.0612   59 C   -1 0 0
  27 H    1     2.1666     4.0942   51 C    0 0 0
  27 H    1     2.5198     4.7617   21 H    0 0 0
  27 H    1     2.5723     4.8609   83 O    0 0 0
  27 H    1     2.7355     5.1693   11 B   -1 0 0

  28 H    1     1.0914     2.0625   58 C    0 0 0
  28 H    1     2.1491     4.0612   60 C   -1 0 0
  28 H    1     2.1666     4.0942   52 C    0 0 0
  28 H    1     2.5198     4.7617   22 H    0 0 0
  28 H    1     2.5723     4.8609   84 O    0 0 0
  28 H    1     2.7355     5.1693   12 B   -1 0 0

  29 H    1     1.0914     2.0624   63 C    0 0 0
  29 H    1     2.1475     4.0582   61 C   -1-1 0
  29 H    1     2.1678     4.0966   69 C    0 0 0
  29 H    1     2.5200     4.7621   35 H    0 0 0
  29 H    1     2.5667     4.8503   77 O    0 0 0
  29 H    1     2.7315     5.1618    5 B    0 0 0

  30 H    1     1.0914     2.0624   64 C    0 0 0
  30 H    1     2.1475     4.0582   62 C   -1-1 0
  30 H    1     2.1678     4.0966   70 C    0 0 0
  30 H    1     2.5200     4.7621   36 H    0 0 0
  30 H    1     2.5667     4.8503   78 O    0 0 0
  30 H    1     2.7315     5.1618    6 B    0 0 0

  31 H    1     1.0913     2.0623   65 C    0 0 0
  31 H    1     2.1487     4.0605   71 C    0 0 0
  31 H    1     2.1667     4.0945   67 C    0 0 0
  31 H    1     2.5197     4.7616   33 H    0 0 0
  31 H    1     2.5723     4.8610   81 O    0 0 0
  31 H    1     2.7359     5.1701    9 B    0 0 0

  32 H    1     1.0913     2.0623   66 C    0 0 0
  32 H    1     2.1487     4.0605   72 C    0 0 0
  32 H    1     2.1667     4.0945   68 C    0 0 0
  32 H    1     2.5197     4.7616   34 H    0 0 0
  32 H    1     2.5723     4.8610   82 O    0 0 0
  32 H    1     2.7359     5.1701   10 B    0 0 0

  33 H    1     1.0915     2.0626   67 C    0 0 0
  33 H    1     2.1479     4.0589   61 C    0 0 0
  33 H    1     2.1679     4.0968   65 C    0 0 0
  33 H    1     2.5197     4.7616   31 H    0 0 0
  33 H    1     2.5677     4.8522   73 O    0 0 0
  33 H    1     2.7331     5.1648    5 B    1 1 0

  34 H    1     1.0915     2.0626   68 C    0 0 0
  34 H    1     2.1479     4.0589   62 C    0 0 0
  34 H    1     2.1679     4.0968   66 C    0 0 0
  34 H    1     2.5197     4.7616   32 H    0 0 0
  34 H    1     2.5677     4.8522   74 O    0 0 0
  34 H    1     2.7331     5.1648    6 B    1 1 0

  35 H    1     1.0914     2.0624   69 C    0 0 0
  35 H    1     2.1486     4.0602   71 C   -1-1 0
  35 H    1     2.1668     4.0947   63 C    0 0 0
  35 H    1     2.5200     4.7621   29 H    0 0 0
  35 H    1     2.5717     4.8598   83 O    0 0 0
  35 H    1     2.7349     5.1682    9 B   -1-1 0

  36 H    1     1.0914     2.0624   70 C    0 0 0
  36 H    1     2.1486     4.0602   72 C   -1-1 0
  36 H    1     2.1668     4.0947   64 C    0 0 0
  36 H    1     2.5200     4.7621   30 H    0 0 0
  36 H    1     2.5717     4.8598   84 O    0 0 0
  36 H    1     2.7349     5.1682   10 B   -1-1 0

  37 C    1     1.4020     2.6495   43 C    0 1 0
  37 C    1     1.4021     2.6495   39 C    0 0 0
  37 C    1     1.5504     2.9298    3 B    0 0 0
  37 C    1     2.1471     4.0575   17 H    0 1 0
  37 C    1     2.1472     4.0576   13 H    0 0 0
  37 C    1     2.4246     4.5817   41 C    0 1 0

  38 C    1     1.4020     2.6495   44 C    0 1 0
  38 C    1     1.4021     2.6495   40 C    0 0 0
  38 C    1     1.5504     2.9298    4 B    0 0 0
  38 C    1     2.1471     4.0575   18 H    0 1 0
  38 C    1     2.1472     4.0576   14 H    0 0 0
  38 C    1     2.4246     4.5817   42 C    0 1 0

  39 C    1     1.0913     2.0623   13 H    0 0 0
  39 C    1     1.3914     2.6294   45 C    0 0 0
  39 C    1     1.4021     2.6495   37 C    0 0 0
  39 C    1     2.1669     4.0948   19 H    0 0 0
  39 C    1     2.4177     4.5688   43 C    0 1 0
  39 C    1     2.4250     4.5825   47 C    0 1 0

  40 C    1     1.0913     2.0623   14 H    0 0 0
  40 C    1     1.3914     2.6294   46 C    0 0 0
  40 C    1     1.4021     2.6495   38 C    0 0 0
  40 C    1     2.1669     4.0948   20 H    0 0 0
  40 C    1     2.4177     4.5688   44 C    0 1 0
  40 C    1     2.4250     4.5825   48 C    0 1 0

  41 C    1     1.0914     2.0625   15 H    0 0 0
  41 C    1     1.3914     2.6293   43 C    0 0 0
  41 C    1     1.4026     2.6505   47 C    0 0 0
  41 C    1     2.1680     4.0970   17 H    0 0 0
  41 C    1     2.4182     4.5697   45 C    0-1 0
  41 C    1     2.4246     4.5817   37 C    0-1 0

  42 C    1     1.0914     2.0625   16 H    0 0 0
  42 C    1     1.3914     2.6293   44 C    0 0 0
  42 C    1     1.4026     2.6505   48 C    0 0 0
  42 C    1     2.1680     4.0970   18 H    0 0 0
  42 C    1     2.4182     4.5697   46 C    0-1 0
  42 C    1     2.4246     4.5817   38 C    0-1 0

  43 C    1     1.0914     2.0624   17 H    0 0 0
  43 C    1     1.3914     2.6293   41 C    0 0 0
  43 C    1     1.4020     2.6495   37 C    0-1 0
  43 C    1     2.1666     4.0942   15 H    0 0 0
  43 C    1     2.4177     4.5688   39 C    0-1 0
  43 C    1     2.4250     4.5826   47 C    0 0 0

  44 C    1     1.0914     2.0624   18 H    0 0 0
  44 C    1     1.3914     2.6293   42 C    0 0 0
  44 C    1     1.4020     2.6495   38 C    0-1 0
  44 C    1     2.1666     4.0942   16 H    0 0 0
  44 C    1     2.4177     4.5688   40 C    0-1 0
  44 C    1     2.4250     4.5826   48 C    0 0 0

  45 C    1     1.0915     2.0626   19 H    0 0 0
  45 C    1     1.3914     2.6294   39 C    0 0 0
  45 C    1     1.4025     2.6504   47 C    0 1 0
  45 C    1     2.1680     4.0969   13 H    0 0 0
  45 C    1     2.4182     4.5697   41 C    0 1 0
  45 C    1     2.4246     4.5818   37 C    0 0 0

  46 C    1     1.0915     2.0626   20 H    0 0 0
  46 C    1     1.3914     2.6294   40 C    0 0 0
  46 C    1     1.4025     2.6504   48 C    0 1 0
  46 C    1     2.1680     4.0969   14 H    0 0 0
  46 C    1     2.4182     4.5697   42 C    0 1 0
  46 C    1     2.4246     4.5818   38 C    0 0 0

  47 C    1     1.4025     2.6504   45 C    0-1 0
  47 C    1     1.4026     2.6505   41 C    0 0 0
  47 C    1     1.5513     2.9316    7 B    0 0 0
  47 C    1     2.1490     4.0610   19 H    0-1 0
  47 C    1     2.1493     4.0616   15 H    0 0 0
  47 C    1     2.4250     4.5825   39 C    0-1 0

  48 C    1     1.4025     2.6504   46 C    0-1 0
  48 C    1     1.4026     2.6505   42 C    0 0 0
  48 C    1     1.5513     2.9316    8 B    0 0 0
  48 C    1     2.1490     4.0610   20 H    0-1 0
  48 C    1     2.1493     4.0616   16 H    0 0 0
  48 C    1     2.4250     4.5825   40 C    0-1 0

  49 C    1     1.4020     2.6494   51 C    1 0 0
  49 C    1     1.4021     2.6495   55 C    0 0 0
  49 C    1     1.5503     2.9297    1 B    1 0 0
  49 C    1     2.1469     4.0571   21 H    1 0 0
  49 C    1     2.1475     4.0581   25 H    0 0 0
  49 C    1     2.4246     4.5818   53 C    0 0 0

  50 C    1     1.4020     2.6494   52 C    1 0 0
  50 C    1     1.4021     2.6495   56 C    0 0 0
  50 C    1     1.5503     2.9297    2 B    1 0 0
  50 C    1     2.1469     4.0571   22 H    1 0 0
  50 C    1     2.1475     4.0581   26 H    0 0 0
  50 C    1     2.4246     4.5818   54 C    0 0 0

  51 C    1     1.0913     2.0623   21 H    0 0 0
  51 C    1     1.3914     2.6293   57 C    0 0 0
  51 C    1     1.4020     2.6494   49 C   -1 0 0
  51 C    1     2.1666     4.0942   27 H    0 0 0
  51 C    1     2.4175     4.5684   55 C   -1 0 0
  51 C    1     2.4251     4.5828   59 C   -1 0 0

  52 C    1     1.0913     2.0623   22 H    0 0 0
  52 C    1     1.3914     2.6293   58 C    0 0 0
  52 C    1     1.4020     2.6494   50 C   -1 0 0
  52 C    1     2.1666     4.0942   28 H    0 0 0
  52 C    1     2.4175     4.5684   56 C   -1 0 0
  52 C    1     2.4251     4.5828   60 C   -1 0 0

  53 C    1     1.0914     2.0625   23 H    0 0 0
  53 C    1     1.3915     2.6295   55 C    0 0 0
  53 C    1     1.4026     2.6505   59 C    0 0 0
  53 C    1     2.1679     4.0967   25 H    0 0 0
  53 C    1     2.4179     4.5691   57 C    1 0 0
  53 C    1     2.4246     4.5818   49 C    0 0 0

  54 C    1     1.0914     2.0625   24 H    0 0 0
  54 C    1     1.3915     2.6295   56 C    0 0 0
  54 C    1     1.4026     2.6505   60 C    0 0 0
  54 C    1     2.1679     4.0967   26 H    0 0 0
  54 C    1     2.4179     4.5691   58 C    1 0 0
  54 C    1     2.4246     4.5818   50 C    0 0 0

  55 C    1     1.0914     2.0624   25 H    0 0 0
  55 C    1     1.3915     2.6295   53 C    0 0 0
  55 C    1     1.4021     2.6495   49 C    0 0 0
  55 C    1     2.1664     4.0939   23 H    0 0 0
  55 C    1     2.4175     4.5684   51 C    1 0 0
  55 C    1     2.4253     4.5832   59 C    0 0 0

  56 C    1     1.0914     2.0624   26 H    0 0 0
  56 C    1     1.3915     2.6295   54 C    0 0 0
  56 C    1     1.4021     2.6495   50 C    0 0 0
  56 C    1     2.1664     4.0939   24 H    0 0 0
  56 C    1     2.4175     4.5684   52 C    1 0 0
  56 C    1     2.4253     4.5832   60 C    0 0 0

  57 C    1     1.0914     2.0625   27 H    0 0 0
  57 C    1     1.3914     2.6293   51 C    0 0 0
  57 C    1     1.4025     2.6504   59 C   -1 0 0
  57 C    1     2.1680     4.0968   21 H    0 0 0
  57 C    1     2.4179     4.5691   53 C   -1 0 0
  57 C    1     2.4247     4.5819   49 C   -1 0 0

  58 C    1     1.0914     2.0625   28 H    0 0 0
  58 C    1     1.3914     2.6293   52 C    0 0 0
  58 C    1     1.4025     2.6504   60 C   -1 0 0
  58 C    1     2.1680     4.0968   22 H    0 0 0
  58 C    1     2.4179     4.5691   54 C   -1 0 0
  58 C    1     2.4247     4.5819   50 C   -1 0 0

  59 C    1     1.4025     2.6504   57 C    1 0 0
  59 C    1     1.4026     2.6505   53 C    0 0 0
  59 C    1     1.5516     2.9322   11 B    0 0 0
  59 C    1     2.1491     4.0612   27 H    1 0 0
  59 C    1     2.1493     4.0617   23 H    0 0 0
  59 C    1     2.4251     4.5828   51 C    1 0 0

  60 C    1     1.4025     2.6504   58 C    1 0 0
  60 C    1     1.4026     2.6505   54 C    0 0 0
  60 C    1     1.5516     2.9322   12 B    0 0 0
  60 C    1     2.1491     4.0612   28 H    1 0 0
  60 C    1     2.1493     4.0617   24 H    0 0 0
  60 C    1     2.4251     4.5828   52 C    1 0 0

  61 C    1     1.4021     2.6496   63 C    1 1 0
  61 C    1     1.4021     2.6497   67 C    0 0 0
  61 C    1     1.5502     2.9294    5 B    1 1 0
  61 C    1     2.1475     4.0582   29 H    1 1 0
  61 C    1     2.1479     4.0589   33 H    0 0 0
  61 C    1     2.4244     4.5814   65 C    0 0 0

  62 C    1     1.4021     2.6496   64 C    1 1 0
  62 C    1     1.4021     2.6497   68 C    0 0 0
  62 C    1     1.5502     2.9294    6 B    1 1 0
  62 C    1     2.1475     4.0582   30 H    1 1 0
  62 C    1     2.1479     4.0589   34 H    0 0 0
  62 C    1     2.4244     4.5814   66 C    0 0 0

  63 C    1     1.0914     2.0624   29 H    0 0 0
  63 C    1     1.3914     2.6293   69 C    0 0 0
  63 C    1     1.4021     2.6496   61 C   -1-1 0
  63 C    1     2.1668     4.0947   35 H    0 0 0
  63 C    1     2.4179     4.5692   67 C   -1-1 0
  63 C    1     2.4251     4.5827   71 C   -1-1 0

  64 C    1     1.0914     2.0624   30 H    0 0 0
  64 C    1     1.3914     2.6293   70 C    0 0 0
  64 C    1     1.4021     2.6496   62 C   -1-1 0
  64 C    1     2.1668     4.0947   36 H    0 0 0
  64 C    1     2.4179     4.5692   68 C   -1-1 0
  64 C    1     2.4251     4.5827   72 C   -1-1 0

  65 C    1     1.0913     2.0623   31 H    0 0 0
  65 C    1     1.3914     2.6294   67 C    0 0 0
  65 C    1     1.4025     2.6504   71 C    0 0 0
  65 C    1     2.1679     4.0968   33 H    0 0 0
  65 C    1     2.4178     4.5690   69 C    1 1 0
  65 C    1     2.4244     4.5814   61 C    0 0 0

  66 C    1     1.0913     2.0623   32 H    0 0 0
  66 C    1     1.3914     2.6294   68 C    0 0 0
  66 C    1     1.4025     2.6504   72 C    0 0 0
  66 C    1     2.1679     4.0968   34 H    0 0 0
  66 C    1     2.4178     4.5690   70 C    1 1 0
  66 C    1     2.4244     4.5814   62 C    0 0 0

  67 C    1     1.0915     2.0626   33 H    0 0 0
  67 C    1     1.3914     2.6294   65 C    0 0 0
  67 C    1     1.4021     2.6497   61 C    0 0 0
  67 C    1     2.1667     4.0945   31 H    0 0 0
  67 C    1     2.4179     4.5692   63 C    1 1 0
  67 C    1     2.4253     4.5832   71 C    0 0 0

  68 C    1     1.0915     2.0626   34 H    0 0 0
  68 C    1     1.3914     2.6294   66 C    0 0 0
  68 C    1     1.4021     2.6497   62 C    0 0 0
  68 C    1     2.1667     4.0945   32 H    0 0 0
  68 C    1     2.4179     4.5692   64 C    1 1 0
  68 C    1     2.4253     4.5832   72 C    0 0 0

  69 C    1     1.0914     2.0624   35 H    0 0 0
  69 C    1     1.3914     2.6293   63 C    0 0 0
  69 C    1     1.4025     2.6503   71 C   -1-1 0
  69 C    1     2.1678     4.0966   29 H    0 0 0
  69 C    1     2.4178     4.5690   65 C   -1-1 0
  69 C    1     2.4245     4.5817   61 C   -1-1 0

  70 C    1     1.0914     2.0624   36 H    0 0 0
  70 C    1     1.3914     2.6293   64 C    0 0 0
  70 C    1     1.4025     2.6503   72 C   -1-1 0
  70 C    1     2.1678     4.0966   30 H    0 0 0
  70 C    1     2.4178     4.5690   66 C   -1-1 0
  70 C    1     2.4245     4.5817   62 C   -1-1 0

  71 C    1     1.4025     2.6503   69 C    1 1 0
  71 C    1     1.4025     2.6504   65 C    0 0 0
  71 C    1     1.5516     2.9322    9 B    0 0 0
  71 C    1     2.1486     4.0602   35 H    1 1 0
  71 C    1     2.1487     4.0605   31 H    0 0 0
  71 C    1     2.4251     4.5827   63 C    1 1 0

  72 C    1     1.4025     2.6503   70 C    1 1 0
  72 C    1     1.4025     2.6504   66 C    0 0 0
  72 C    1     1.5516     2.9322   10 B    0 0 0
  72 C    1     2.1486     4.0602   36 H    1 1 0
  72 C    1     2.1487     4.0605   32 H    0 0 0
  72 C    1     2.4251     4.5827   64 C    1 1 0

  73 O    1     1.3791     2.6061    1 B    1 0 0
  73 O    1     1.3791     2.6061    5 B    1 1 0
  73 O    1     2.3880     4.5126   75 O    1 0 0
  73 O    1     2.3882     4.5130   77 O    1 1 0
  73 O    1     2.5383     4.7966   61 C    0 0 0
  73 O    1     2.5384     4.7968   49 C    0 0 0

  74 O    1     1.3791     2.6061    2 B    1 0 0
  74 O    1     1.3791     2.6061    6 B    1 1 0
  74 O    1     2.3880     4.5126   76 O    1 0 0
  74 O    1     2.3882     4.5130   78 O    1 1 0
  74 O    1     2.5383     4.7966   62 C    0 0 0
  74 O    1     2.5384     4.7968   50 C    0 0 0

  75 O    1     1.3793     2.6065    1 B    0 0 0
  75 O    1     1.3793     2.6065    3 B    0 0 0
  75 O    1     2.3880     4.5126   73 O   -1 0 0
  75 O    1     2.3882     4.5131   77 O    0 1 0
  75 O    1     2.5391     4.7981   37 C    0 0 0
  75 O    1     2.5395     4.7990   49 C   -1 0 0

  76 O    1     1.3793     2.6065    2 B    0 0 0
  76 O    1     1.3793     2.6065    4 B    0 0 0
  76 O    1     2.3880     4.5126   74 O   -1 0 0
  76 O    1     2.3882     4.5131   78 O    0 1 0
  76 O    1     2.5391     4.7981   38 C    0 0 0
  76 O    1     2.5395     4.7990   50 C   -1 0 0

  77 O    1     1.3793     2.6064    5 B    0 0 0
  77 O    1     1.3793     2.6065    3 B    0-1 0
  77 O    1     2.3882     4.5130   73 O   -1-1 0
  77 O    1     2.3882     4.5131   75 O    0-1 0
  77 O    1     2.5390     4.7980   37 C    0-1 0
  77 O    1     2.5391     4.7982   61 C   -1-1 0

  78 O    1     1.3793     2.6064    6 B    0 0 0
  78 O    1     1.3793     2.6065    4 B    0-1 0
  78 O    1     2.3882     4.5130   74 O   -1-1 0
  78 O    1     2.3882     4.5131   76 O    0-1 0
  78 O    1     2.5390     4.7980   38 C    0-1 0
  78 O    1     2.5391     4.7982   62 C   -1-1 0

  79 O    1     1.3795     2.6068   11 B    0 0 0
  79 O    1     1.3795     2.6068    7 B    0 0 0
  79 O    1     2.3880     4.5126   83 O    1 0 0
  79 O    1     2.3884     4.5134   81 O    0-1 0
  79 O    1     2.5400     4.7998   47 C    0 0 0
  79 O    1     2.5403     4.8005   59 C    0 0 0

  80 O    1     1.3795     2.6068   12 B    0 0 0
  80 O    1     1.3795     2.6068    8 B    0 0 0
  80 O    1     2.3880     4.5126   84 O    1 0 0
  80 O    1     2.3884     4.5134   82 O    0-1 0
  80 O    1     2.5400     4.7998   48 C    0 0 0
  80 O    1     2.5403     4.8005   60 C    0 0 0

  81 O    1     1.3795     2.6069    9 B    0 0 0
  81 O    1     1.3795     2.6070    7 B    0 1 0
  81 O    1     2.3881     4.5128   83 O    1 1 0
  81 O    1     2.3884     4.5134   79 O    0 1 0
  81 O    1     2.5404     4.8006   47 C    0 1 0
  81 O    1     2.5405     4.8008   71 C    0 0 0

  82 O    1     1.3795     2.6069   10 B    0 0 0
  82 O    1     1.3795     2.6070    8 B    0 1 0
  82 O    1     2.3881     4.5128   84 O    1 1 0
  82 O    1     2.3884     4.5134   80 O    0 1 0
  82 O    1     2.5404     4.8006   48 C    0 1 0
  82 O    1     2.5405     4.8008   72 C    0 0 0

  83 O    1     1.3796     2.6071   11 B   -1 0 0
  83 O    1     1.3797     2.6072    9 B   -1-1 0
  83 O    1     2.3880     4.5126   79 O   -1 0 0
  83 O    1     2.3881     4.5128   81 O   -1-1 0
  83 O    1     2.5409     4.8016   71 C   -1-1 0
  83 O    1     2.5410     4.8019   59 C   -1 0 0

  84 O    1     1.3796     2.6071   12 B   -1 0 0
  84 O    1     1.3797     2.6072   10 B   -1-1 0
  84 O    1     2.3880     4.5126   80 O   -1 0 0
  84 O    1     2.3881     4.5128   82 O   -1-1 0
  84 O    1     2.5409     4.8016   72 C   -1-1 0
  84 O    1     2.5410     4.8019   60 C   -1 0 0


 SYMMETRY ALLOWED INTERNAL DEGREE(S) OF FREEDOM: 249
 TTTTTTTTTTTTTTTTTTTTTTTTTTTTTT SYMM        TELAPSE        3.04 TCPU        3.03
 TTTTTTTTTTTTTTTTTTTTTTTTTTTTTT INT_SCREEN  TELAPSE        3.24 TCPU        3.23

 DFT PARAMETERS

     ATOM       ELECTRONS   NET CHARGE   R(ANGSTROM)
   1   5  B       5.0000      0.0000     0.89000000
  13   1  H       1.0000      0.0000     1.11000000
  37   6  C       6.0000      0.0000     0.77000000
  73   8  O       8.0000      0.0000     0.74000000

 SIZE OF GRID=    2493398
 TTTTTTTTTTTTTTTTTTTTTTTTTTTTTT MAKE_GRID2  TELAPSE       28.58 TCPU       28.55
 BECKE WEIGHT FUNCTION
 RADSAFE =     2.00
 TOLERANCES - DENSITY:10**- 6; POTENTIAL:10**- 9; GRID WGT:10**-14

 RADIAL INTEGRATION  - INTERVALS (POINTS,UPPER LIMIT):            1( 75,  4.0*R)

 ANGULAR INTEGRATION - INTERVALS (ACCURACY LEVEL [N. POINTS] UPPER LIMIT):
  1(  4[  86]   0.2)  2(  8[ 194]   0.5)  3( 12[ 350]   0.9)  4( 16[ 974]   3.5)
  5( 12[ 350]9999.0)
 TTTTTTTTTTTTTTTTTTTTTTTTTTTTTT INT_CALC    TELAPSE       28.90 TCPU       28.87
 EEEEEEEEEE INT_CALC TERMINATION  DATE 19 02 2026 TIME 20:03:49.6

 *******************************************************************************
 cof-1_z34_L000_serr                                                             
 CRYSTAL - SCF - TYPE OF CALCULATION :  RESTRICTED CLOSED SHELL
 *******************************************************************************

 CAPPA:IS1  2;IS2  2;IS3  8; K PTS MONK NET  20; SYMMOPS:K SPACE   2;G SPACE   1

 TTTTTTTTTTTTTTTTTTTTTTTTTTTTTT SDIK        TELAPSE       30.83 TCPU       57.06

 AAAAAAAAAAAAAAAAAAAAAAAAAAAAAAAAAAAAAAAAAAAAAAAAAAAAAAAAAAAAAAAAAAAAAAAAAAAAAAA
         ATOMIC WAVEFUNCTION(S)


 NUCLEAR CHARGE  5.0  SYMMETRY SPECIES            S    P
 N. ELECTRONS    5.0  NUMBER OF PRIMITIVE GTOS    8    4
                      NUMBER OF CONTRACTED GTOS   4    2
                      NUMBER OF CLOSED SHELLS     2    0
                      OPEN SHELL OCCUPATION       0    1

  ZNUC  SCFIT    TOTAL HF ENERGY   KINETIC ENERGY   VIRIAL THEOREM ACCURACY
   5.0    11    -2.451164084E+01  2.462155050E+01 -1.995536038E+00  1.5E-06

 NUCLEAR CHARGE  1.0  SYMMETRY SPECIES            S
 N. ELECTRONS    1.0  NUMBER OF PRIMITIVE GTOS    4
                      NUMBER OF CONTRACTED GTOS   2
                      NUMBER OF CLOSED SHELLS     0
                      OPEN SHELL OCCUPATION       1

  ZNUC  SCFIT    TOTAL HF ENERGY   KINETIC ENERGY   VIRIAL THEOREM ACCURACY
   1.0     1    -4.977266687E-01  5.190767460E-01 -1.958869132E+00  0.0E+00

 NUCLEAR CHARGE  6.0  SYMMETRY SPECIES            S    P
 N. ELECTRONS    6.0  NUMBER OF PRIMITIVE GTOS    8    4
                      NUMBER OF CONTRACTED GTOS   4    2
                      NUMBER OF CLOSED SHELLS     2    0
                      OPEN SHELL OCCUPATION       0    2

  ZNUC  SCFIT    TOTAL HF ENERGY   KINETIC ENERGY   VIRIAL THEOREM ACCURACY
   6.0     9    -3.766704647E+01  3.775180683E+01 -1.997754800E+00  1.1E-06

 NUCLEAR CHARGE  8.0  SYMMETRY SPECIES            S    P
 N. ELECTRONS    8.0  NUMBER OF PRIMITIVE GTOS    8    4
                      NUMBER OF CONTRACTED GTOS   4    2
                      NUMBER OF CLOSED SHELLS     2    0
                      OPEN SHELL OCCUPATION       0    4

  ZNUC  SCFIT    TOTAL HF ENERGY   KINETIC ENERGY   VIRIAL THEOREM ACCURACY
   8.0    12    -7.477373220E+01  7.477365593E+01 -2.000001020E+00  3.8E-06

 AAAAAAAAAAAAAAAAAAAAAAAAAAAAAAAAAAAAAAAAAAAAAAAAAAAAAAAAAAAAAAAAAAAAAAAAAAAAAAA

 CHARGE NORMALIZATION FACTOR   1.00000000
 TOTAL ATOMIC CHARGES:
   5.0000000   5.0000000   5.0000000   5.0000000   5.0000000   5.0000000
   5.0000000   5.0000000   5.0000000   5.0000000   5.0000000   5.0000000
   1.0000000   1.0000000   1.0000000   1.0000000   1.0000000   1.0000000
   1.0000000   1.0000000   1.0000000   1.0000000   1.0000000   1.0000000
   1.0000000   1.0000000   1.0000000   1.0000000   1.0000000   1.0000000
   1.0000000   1.0000000   1.0000000   1.0000000   1.0000000   1.0000000
   6.0000000   6.0000000   6.0000000   6.0000000   6.0000000   6.0000000
   6.0000000   6.0000000   6.0000000   6.0000000   6.0000000   6.0000000
   6.0000000   6.0000000   6.0000000   6.0000000   6.0000000   6.0000000
   6.0000000   6.0000000   6.0000000   6.0000000   6.0000000   6.0000000
   6.0000000   6.0000000   6.0000000   6.0000000   6.0000000   6.0000000
   6.0000000   6.0000000   6.0000000   6.0000000   6.0000000   6.0000000
   8.0000000   8.0000000   8.0000000   8.0000000   8.0000000   8.0000000
   8.0000000   8.0000000   8.0000000   8.0000000   8.0000000   8.0000000
 TTTTTTTTTTTTTTTTTTTTTTTTTTTTTT MOQGAD      TELAPSE       30.94 TCPU       60.67
 TTTTTTTTTTTTTTTTTTTTTTTTTTTTTT SHELLXN     TELAPSE       59.00 TCPU      956.88
 TTTTTTTTTTTTTTTTTTTTTTTTTTTTTT MONMO3      TELAPSE       59.72 TCPU      979.73
 NUMERICALLY INTEGRATED DENSITY    395.9999373747
 TTTTTTTTTTTTTTTTTTTTTTTTTTTTTT NUMDFT      TELAPSE       61.46 TCPU     1035.37
 CYC   0 ETOT(AU) -2.592002817854E+03 DETOT -2.59E+03 tst  0.00E+00 PX  1.00E+00
 TTTTTTTTTTTTTTTTTTTTTTTTTTTTTT DIIS        TELAPSE       61.60 TCPU     1039.87
 TTTTTTTTTTTTTTTTTTTTTTTTTTTTTT FDIK        TELAPSE       63.59 TCPU     1103.15
 INSULATING STATE
 TOP OF VALENCE BANDS -    BAND    198; K    1; EIG -2.8693311E-01 AU
 BOTTOM OF VIRTUAL BANDS - BAND    199; K    1; EIG -1.8688120E-01 AU
 DIRECT ENERGY BAND GAP:   2.7226 eV
 TTTTTTTTTTTTTTTTTTTTTTTTTTTTTT PDIG        TELAPSE       65.26 TCPU     1110.19
 CHARGE NORMALIZATION FACTOR   1.00000000
 TOTAL ATOMIC CHARGES:
   4.1107100   4.1107099   4.1105726   4.1105725   4.1107686   4.1107686
   4.1106158   4.1106157   4.1104645   4.1104645   4.1106378   4.1106378
   0.7865115   0.7865115   0.7866196   0.7866197   0.7864689   0.7864689
   0.7865817   0.7865817   0.7864906   0.7864907   0.7866489   0.7866488
   0.7864803   0.7864803   0.7866118   0.7866118   0.7864697   0.7864698
   0.7866491   0.7866490   0.7864621   0.7864621   0.7866139   0.7866139
   6.0606659   6.0606659   6.2740528   6.2740529   6.2739782   6.2739782
   6.2739911   6.2739912   6.2739021   6.2739020   6.0598800   6.0598800
   6.0607192   6.0607193   6.2740280   6.2740279   6.2740735   6.2740735
   6.2739325   6.2739325   6.2740801   6.2740802   6.0593882   6.0593883
   6.0610639   6.0610640   6.2737452   6.2737451   6.2742861   6.2742862
   6.2736586   6.2736585   6.2742566   6.2742566   6.0593520   6.0593520
   8.7078467   8.7078467   8.7079517   8.7079517   8.7078950   8.7078950
   8.7082274   8.7082274   8.7082527   8.7082527   8.7083949   8.7083949
 TTTTTTTTTTTTTTTTTTTTTTTTTTTTTT MOQGAD      TELAPSE       65.37 TCPU     1110.30
 TTTTTTTTTTTTTTTTTTTTTTTTTTTTTT SHELLXN     TELAPSE       94.10 TCPU     2027.10
 TTTTTTTTTTTTTTTTTTTTTTTTTTTTTT MONMO3      TELAPSE       94.81 TCPU     2049.61
 NUMERICALLY INTEGRATED DENSITY    395.9999465107
 TTTTTTTTTTTTTTTTTTTTTTTTTTTTTT NUMDFT      TELAPSE       96.56 TCPU     2105.78
 CYC   1 ETOT(AU) -2.577586231689E+03 DETOT  1.44E+01 tst  0.00E+00 PX  1.00E+00
 TTTTTTTTTTTTTTTTTTTTTTTTTTTTTT DIIS        TELAPSE       96.74 TCPU     2111.33
 DIIS TEST: 0.23640E+01 AT SCF   CYCLE   1 - MIX   30 %
 TTTTTTTTTTTTTTTTTTTTTTTTTTTTTT FDIK        TELAPSE       98.78 TCPU     2176.46
 INSULATING STATE
 TOP OF VALENCE BANDS -    BAND    198; K    1; EIG -1.8180776E-01 AU
 BOTTOM OF VIRTUAL BANDS - BAND    199; K    1; EIG -1.1121277E-01 AU
 DIRECT ENERGY BAND GAP:   1.9210 eV
 TTTTTTTTTTTTTTTTTTTTTTTTTTTTTT PDIG        TELAPSE      100.46 TCPU     2183.52
 CHARGE NORMALIZATION FACTOR   1.00000000
 TOTAL ATOMIC CHARGES:
   4.6869351   4.6869349   4.6868542   4.6868540   4.6868547   4.6868547
   4.6875691   4.6875689   4.6876232   4.6876232   4.6877165   4.6877165
   0.9267934   0.9267934   0.9268699   0.9268699   0.9267659   0.9267659
   0.9268090   0.9268090   0.9267867   0.9267867   0.9268691   0.9268690
   0.9267768   0.9267768   0.9268453   0.9268453   0.9267537   0.9267538
   0.9268826   0.9268825   0.9267315   0.9267314   0.9268607   0.9268607
   5.8660914   5.8660914   6.1200077   6.1200077   6.1205838   6.1205838
   6.1198686   6.1198687   6.1205737   6.1205737   5.8690578   5.8690578
   5.8658848   5.8658849   6.1196965   6.1196964   6.1205725   6.1205725
   6.1199963   6.1199963   6.1204344   6.1204345   5.8695179   5.8695180
   5.8660254   5.8660255   6.1200096   6.1200094   6.1204468   6.1204469
   6.1201917   6.1201917   6.1202410   6.1202411   5.8692697   5.8692697
   8.3508833   8.3508832   8.3512923   8.3512923   8.3512390   8.3512390
   8.3507252   8.3507252   8.3509230   8.3509230   8.3511705   8.3511705
 TTTTTTTTTTTTTTTTTTTTTTTTTTTTTT MOQGAD      TELAPSE      100.58 TCPU     2183.63
 TTTTTTTTTTTTTTTTTTTTTTTTTTTTTT SHELLXN     TELAPSE      129.68 TCPU     3111.87
 TTTTTTTTTTTTTTTTTTTTTTTTTTTTTT MONMO3      TELAPSE      130.39 TCPU     3134.55
 NUMERICALLY INTEGRATED DENSITY    395.9999379119
 TTTTTTTTTTTTTTTTTTTTTTTTTTTTTT NUMDFT      TELAPSE      132.13 TCPU     3190.31
 CYC   2 ETOT(AU) -2.577970685716E+03 DETOT -3.84E-01 tst  4.89E-03 PX  1.55E-01
 TTTTTTTTTTTTTTTTTTTTTTTTTTTTTT DIIS        TELAPSE      132.33 TCPU     3196.42
 DIIS TEST: 0.10594E+01 AT SCF   CYCLE   2 - DIIS ACTIVE - HISTORY:     2 CYCLES
 TTTTTTTTTTTTTTTTTTTTTTTTTTTTTT FDIK        TELAPSE      134.39 TCPU     3262.49
 INSULATING STATE
 TOP OF VALENCE BANDS -    BAND    198; K    1; EIG -2.0165701E-01 AU
 BOTTOM OF VIRTUAL BANDS - BAND    199; K    1; EIG -1.0547036E-01 AU
 DIRECT ENERGY BAND GAP:   2.6174 eV
 TTTTTTTTTTTTTTTTTTTTTTTTTTTTTT PDIG        TELAPSE      136.15 TCPU     3269.60
 CHARGE NORMALIZATION FACTOR   1.00000000
 TOTAL ATOMIC CHARGES:
   4.4578594   4.4578593   4.4576557   4.4576555   4.4578290   4.4578290
   4.4570302   4.4570301   4.4568815   4.4568816   4.4569552   4.4569552
   0.8946672   0.8946672   0.8947865   0.8947865   0.8946290   0.8946291
   0.8947339   0.8947339   0.8946015   0.8946015   0.8948327   0.8948327
   0.8946656   0.8946656   0.8947414   0.8947414   0.8946315   0.8946315
   0.8947958   0.8947958   0.8946720   0.8946720   0.8947205   0.8947204
   5.9015226   5.9015227   6.1691219   6.1691220   6.1681034   6.1681034
   6.1690314   6.1690315   6.1680123   6.1680122   5.8992511   5.8992511
   5.9017124   5.9017126   6.1691239   6.1691238   6.1680210   6.1680211
   6.1692042   6.1692042   6.1679778   6.1679779   5.8988553   5.8988554
   5.9018763   5.9018764   6.1690738   6.1690737   6.1682194   6.1682195
   6.1689700   6.1689699   6.1679709   6.1679709   5.8988682   5.8988681
   8.5156047   8.5156047   8.5157681   8.5157681   8.5157220   8.5157220
   8.5156792   8.5156792   8.5157667   8.5157667   8.5158546   8.5158546
 TTTTTTTTTTTTTTTTTTTTTTTTTTTTTT MOQGAD      TELAPSE      136.26 TCPU     3269.71
 TTTTTTTTTTTTTTTTTTTTTTTTTTTTTT SHELLXN     TELAPSE      165.38 TCPU     4198.78
 TTTTTTTTTTTTTTTTTTTTTTTTTTTTTT MONMO3      TELAPSE      166.09 TCPU     4221.37
 NUMERICALLY INTEGRATED DENSITY    395.9999359939
 TTTTTTTTTTTTTTTTTTTTTTTTTTTTTT NUMDFT      TELAPSE      167.87 TCPU     4278.29
 CYC   3 ETOT(AU) -2.578187416057E+03 DETOT -2.17E-01 tst  7.10E-04 PX  5.63E-02
 TTTTTTTTTTTTTTTTTTTTTTTTTTTTTT DIIS        TELAPSE      168.10 TCPU     4285.33
 DIIS TEST: 0.20955E-01 AT SCF   CYCLE   3 - DIIS ACTIVE - HISTORY:     3 CYCLES
 TTTTTTTTTTTTTTTTTTTTTTTTTTTTTT FDIK        TELAPSE      170.49 TCPU     4360.65
 INSULATING STATE
 TOP OF VALENCE BANDS -    BAND    198; K    1; EIG -2.0942053E-01 AU
 BOTTOM OF VIRTUAL BANDS - BAND    199; K    1; EIG -1.1648183E-01 AU
 DIRECT ENERGY BAND GAP:   2.5290 eV
 TTTTTTTTTTTTTTTTTTTTTTTTTTTTTT PDIG        TELAPSE      172.17 TCPU     4367.69
 CHARGE NORMALIZATION FACTOR   1.00000000
 TOTAL ATOMIC CHARGES:
   4.4685164   4.4685163   4.4684114   4.4684112   4.4685226   4.4685225
   4.4697680   4.4697678   4.4696907   4.4696907   4.4698184   4.4698184
   0.8804828   0.8804827   0.8805387   0.8805388   0.8804523   0.8804523
   0.8804729   0.8804729   0.8804770   0.8804771   0.8805319   0.8805319
   0.8804988   0.8804988   0.8804781   0.8804781   0.8804665   0.8804666
   0.8805286   0.8805286   0.8804678   0.8804677   0.8804833   0.8804832
   5.9543301   5.9543301   6.1576107   6.1576107   6.1597342   6.1597342
   6.1575004   6.1575004   6.1597472   6.1597471   5.9609092   5.9609092
   5.9539275   5.9539276   6.1573294   6.1573293   6.1598528   6.1598529
   6.1574116   6.1574116   6.1598732   6.1598733   5.9612910   5.9612911
   5.9542284   5.9542285   6.1574984   6.1574983   6.1598817   6.1598818
   6.1573818   6.1573817   6.1597314   6.1597314   5.9610581   5.9610581
   8.4947177   8.4947177   8.4950630   8.4950630   8.4949998   8.4949998
   8.4949225   8.4949225   8.4950573   8.4950573   8.4953367   8.4953367
 TTTTTTTTTTTTTTTTTTTTTTTTTTTTTT MOQGAD      TELAPSE      172.28 TCPU     4367.80
 TTTTTTTTTTTTTTTTTTTTTTTTTTTTTT SHELLXN     TELAPSE      201.69 TCPU     5306.03
 TTTTTTTTTTTTTTTTTTTTTTTTTTTTTT MONMO3      TELAPSE      202.40 TCPU     5328.68
 NUMERICALLY INTEGRATED DENSITY    395.9999363950
 TTTTTTTTTTTTTTTTTTTTTTTTTTTTTT NUMDFT      TELAPSE      204.11 TCPU     5383.24
 CYC   4 ETOT(AU) -2.578191337970E+03 DETOT -3.92E-03 tst  4.06E-05 PX  1.34E-02
 TTTTTTTTTTTTTTTTTTTTTTTTTTTTTT DIIS        TELAPSE      204.33 TCPU     5390.10
 DIIS TEST: 0.73414E-02 AT SCF   CYCLE   4 - DIIS ACTIVE - HISTORY:     4 CYCLES
 TTTTTTTTTTTTTTTTTTTTTTTTTTTTTT FDIK        TELAPSE      206.25 TCPU     5451.05
 INSULATING STATE
 TOP OF VALENCE BANDS -    BAND    198; K    1; EIG -2.0898671E-01 AU
 BOTTOM OF VIRTUAL BANDS - BAND    199; K    1; EIG -1.1462359E-01 AU
 DIRECT ENERGY BAND GAP:   2.5678 eV
 TTTTTTTTTTTTTTTTTTTTTTTTTTTTTT PDIG        TELAPSE      207.92 TCPU     5458.09
 CHARGE NORMALIZATION FACTOR   1.00000000
 TOTAL ATOMIC CHARGES:
   4.4707119   4.4707118   4.4705208   4.4705207   4.4706841   4.4706840
   4.4694211   4.4694209   4.4693003   4.4693003   4.4693838   4.4693838
   0.8826254   0.8826253   0.8828304   0.8828305   0.8825834   0.8825834
   0.8827802   0.8827802   0.8825671   0.8825671   0.8828728   0.8828728
   0.8826037   0.8826037   0.8828048   0.8828048   0.8825808   0.8825809
   0.8828488   0.8828488   0.8825973   0.8825973   0.8827898   0.8827897
   5.9304813   5.9304813   6.1695437   6.1695438   6.1669804   6.1669804
   6.1694549   6.1694550   6.1669206   6.1669206   5.9241517   5.9241517
   5.9307205   5.9307206   6.1695033   6.1695031   6.1668945   6.1668945
   6.1697053   6.1697053   6.1667635   6.1667636   5.9238045   5.9238046
   5.9308315   5.9308317   6.1695141   6.1695140   6.1670571   6.1670572
   6.1695424   6.1695424   6.1667242   6.1667243   5.9238100   5.9238100
   8.5008313   8.5008313   8.5010167   8.5010167   8.5009514   8.5009514
   8.5006532   8.5006532   8.5007738   8.5007738   8.5008633   8.5008633
 TTTTTTTTTTTTTTTTTTTTTTTTTTTTTT MOQGAD      TELAPSE      208.03 TCPU     5458.21
 TTTTTTTTTTTTTTTTTTTTTTTTTTTTTT SHELLXN     TELAPSE      237.08 TCPU     6384.85
 TTTTTTTTTTTTTTTTTTTTTTTTTTTTTT MONMO3      TELAPSE      237.79 TCPU     6407.49
 NUMERICALLY INTEGRATED DENSITY    395.9999366611
 TTTTTTTTTTTTTTTTTTTTTTTTTTTTTT NUMDFT      TELAPSE      239.53 TCPU     6462.91
 CYC   5 ETOT(AU) -2.578192829195E+03 DETOT -1.49E-03 tst  1.01E-05 PX  8.17E-03
 TTTTTTTTTTTTTTTTTTTTTTTTTTTTTT DIIS        TELAPSE      239.77 TCPU     6469.98
 DIIS TEST: 0.65980E-03 AT SCF   CYCLE   5 - DIIS ACTIVE - HISTORY:     5 CYCLES
 TTTTTTTTTTTTTTTTTTTTTTTTTTTTTT FDIK        TELAPSE      241.68 TCPU     6530.46
 INSULATING STATE
 TOP OF VALENCE BANDS -    BAND    198; K    1; EIG -2.0849390E-01 AU
 BOTTOM OF VIRTUAL BANDS - BAND    199; K    1; EIG -1.1418086E-01 AU
 DIRECT ENERGY BAND GAP:   2.5664 eV
 TTTTTTTTTTTTTTTTTTTTTTTTTTTTTT PDIG        TELAPSE      243.35 TCPU     6537.51
 CHARGE NORMALIZATION FACTOR   1.00000000
 TOTAL ATOMIC CHARGES:
   4.4686728   4.4686727   4.4685451   4.4685449   4.4686670   4.4686670
   4.4705181   4.4705179   4.4704342   4.4704343   4.4705437   4.4705437
   0.8839924   0.8839924   0.8839638   0.8839638   0.8839598   0.8839598
   0.8839042   0.8839042   0.8839664   0.8839665   0.8839744   0.8839744
   0.8840080   0.8840080   0.8839032   0.8839032   0.8839697   0.8839697
   0.8839626   0.8839625   0.8839899   0.8839899   0.8839009   0.8839009
   5.9242854   5.9242854   6.1642475   6.1642476   6.1680132   6.1680131
   6.1641517   6.1641517   6.1679653   6.1679653   5.9350685   5.9350685
   5.9239763   5.9239764   6.1640674   6.1640673   6.1680623   6.1680624
   6.1640491   6.1640491   6.1681497   6.1681498   5.9352809   5.9352810
   5.9242671   5.9242672   6.1641762   6.1641761   6.1681295   6.1681296
   6.1639440   6.1639439   6.1680526   6.1680526   5.9351034   5.9351034
   8.5002994   8.5002994   8.5006117   8.5006117   8.5005668   8.5005668
   8.5007331   8.5007331   8.5008365   8.5008365   8.5010863   8.5010863
 TTTTTTTTTTTTTTTTTTTTTTTTTTTTTT MOQGAD      TELAPSE      243.47 TCPU     6537.63
 TTTTTTTTTTTTTTTTTTTTTTTTTTTTTT SHELLXN     TELAPSE      272.53 TCPU     7464.71
 TTTTTTTTTTTTTTTTTTTTTTTTTTTTTT MONMO3      TELAPSE      273.23 TCPU     7487.32
 NUMERICALLY INTEGRATED DENSITY    395.9999366347
 TTTTTTTTTTTTTTTTTTTTTTTTTTTTTT NUMDFT      TELAPSE      274.97 TCPU     7542.90
 CYC   6 ETOT(AU) -2.578192762112E+03 DETOT  6.71E-05 tst  5.54E-06 PX  2.72E-03
 TTTTTTTTTTTTTTTTTTTTTTTTTTTTTT DIIS        TELAPSE      275.24 TCPU     7549.82
 DIIS TEST: 0.91332E-03 AT SCF   CYCLE   6 - DIIS ACTIVE - HISTORY:     6 CYCLES
 TTTTTTTTTTTTTTTTTTTTTTTTTTTTTT FDIK        TELAPSE      277.16 TCPU     7610.82
 INSULATING STATE
 TOP OF VALENCE BANDS -    BAND    198; K    1; EIG -2.0846757E-01 AU
 BOTTOM OF VIRTUAL BANDS - BAND    199; K    1; EIG -1.1418602E-01 AU
 DIRECT ENERGY BAND GAP:   2.5655 eV
 TTTTTTTTTTTTTTTTTTTTTTTTTTTTTT PDIG        TELAPSE      278.84 TCPU     7617.88
 CHARGE NORMALIZATION FACTOR   1.00000000
 TOTAL ATOMIC CHARGES:
   4.4697503   4.4697502   4.4695982   4.4695980   4.4697371   4.4697371
   4.4696358   4.4696357   4.4695360   4.4695361   4.4696374   4.4696374
   0.8840046   0.8840046   0.8841320   0.8841320   0.8839700   0.8839700
   0.8840738   0.8840738   0.8839712   0.8839712   0.8841502   0.8841501
   0.8840067   0.8840067   0.8840842   0.8840842   0.8839775   0.8839776
   0.8841337   0.8841337   0.8839914   0.8839913   0.8840779   0.8840779
   5.9309149   5.9309150   6.1656824   6.1656825   6.1654233   6.1654233
   6.1655766   6.1655766   6.1653896   6.1653895   5.9309469   5.9309469
   5.9308188   5.9308189   6.1655263   6.1655262   6.1654455   6.1654456
   6.1656423   6.1656423   6.1654065   6.1654066   5.9309493   5.9309494
   5.9310442   5.9310443   6.1655979   6.1655978   6.1655526   6.1655527
   6.1655248   6.1655247   6.1653236   6.1653236   5.9308346   5.9308346
   8.5001522   8.5001522   8.5004083   8.5004083   8.5003501   8.5003501
   8.5002019   8.5002019   8.5003193   8.5003193   8.5004998   8.5004998
 TTTTTTTTTTTTTTTTTTTTTTTTTTTTTT MOQGAD      TELAPSE      278.95 TCPU     7617.99
 TTTTTTTTTTTTTTTTTTTTTTTTTTTTTT SHELLXN     TELAPSE      308.29 TCPU     8553.97
 TTTTTTTTTTTTTTTTTTTTTTTTTTTTTT MONMO3      TELAPSE      309.00 TCPU     8576.62
 NUMERICALLY INTEGRATED DENSITY    395.9999365892
 TTTTTTTTTTTTTTTTTTTTTTTTTTTTTT NUMDFT      TELAPSE      310.76 TCPU     8632.98
 CYC   7 ETOT(AU) -2.578192983736E+03 DETOT -2.22E-04 tst  2.13E-06 PX  1.63E-03
 TTTTTTTTTTTTTTTTTTTTTTTTTTTTTT DIIS        TELAPSE      311.07 TCPU     8640.13
 DIIS TEST: 0.69109E-05 AT SCF   CYCLE   7 - DIIS ACTIVE - HISTORY:     7 CYCLES
 TTTTTTTTTTTTTTTTTTTTTTTTTTTTTT FDIK        TELAPSE      313.02 TCPU     8702.04
 INSULATING STATE
 TOP OF VALENCE BANDS -    BAND    198; K    1; EIG -2.0856673E-01 AU
 BOTTOM OF VIRTUAL BANDS - BAND    199; K    1; EIG -1.1427238E-01 AU
 DIRECT ENERGY BAND GAP:   2.5659 eV
 TTTTTTTTTTTTTTTTTTTTTTTTTTTTTT PDIG        TELAPSE      314.78 TCPU     8709.16
 CHARGE NORMALIZATION FACTOR   1.00000000
 TOTAL ATOMIC CHARGES:
   4.4699779   4.4699778   4.4698095   4.4698094   4.4699581   4.4699581
   4.4699704   4.4699702   4.4698620   4.4698621   4.4699558   4.4699558
   0.8838181   0.8838181   0.8839250   0.8839250   0.8837796   0.8837796
   0.8838708   0.8838708   0.8837725   0.8837725   0.8839551   0.8839550
   0.8838104   0.8838104   0.8838865   0.8838865   0.8837820   0.8837820
   0.8839357   0.8839357   0.8837992   0.8837992   0.8838764   0.8838763
   5.9301364   5.9301364   6.1658717   6.1658717   6.1658992   6.1658992
   6.1657800   6.1657801   6.1658493   6.1658493   5.9308433   5.9308433
   5.9301754   5.9301755   6.1657754   6.1657752   6.1658645   6.1658645
   6.1659072   6.1659072   6.1658059   6.1658060   5.9307085   5.9307086
   5.9303511   5.9303513   6.1658260   6.1658258   6.1659911   6.1659912
   6.1657700   6.1657699   6.1657429   6.1657429   5.9306438   5.9306438
   8.5000555   8.5000555   8.5002902   8.5002902   8.5002297   8.5002298
   8.5001171   8.5001171   8.5002354   8.5002353   8.5003855   8.5003855
 TTTTTTTTTTTTTTTTTTTTTTTTTTTTTT MOQGAD      TELAPSE      314.89 TCPU     8709.28
 TTTTTTTTTTTTTTTTTTTTTTTTTTTTTT SHELLXN     TELAPSE      343.97 TCPU     9636.82
 TTTTTTTTTTTTTTTTTTTTTTTTTTTTTT MONMO3      TELAPSE      344.68 TCPU     9659.69
 NUMERICALLY INTEGRATED DENSITY    395.9999365840
 TTTTTTTTTTTTTTTTTTTTTTTTTTTTTT NUMDFT      TELAPSE      346.44 TCPU     9715.77
 CYC   8 ETOT(AU) -2.578192985512E+03 DETOT -1.78E-06 tst  6.65E-09 PX  1.86E-04
 TTTTTTTTTTTTTTTTTTTTTTTTTTTTTT DIIS        TELAPSE      346.74 TCPU     9722.64
 DIIS TEST: 0.24565E-06 AT SCF   CYCLE   8 - DIIS ACTIVE - HISTORY:     8 CYCLES
 TTTTTTTTTTTTTTTTTTTTTTTTTTTTTT FDIK        TELAPSE      348.71 TCPU     9785.18
 INSULATING STATE
 TOP OF VALENCE BANDS -    BAND    198; K    1; EIG -2.0854532E-01 AU
 BOTTOM OF VIRTUAL BANDS - BAND    199; K    1; EIG -1.1427520E-01 AU
 DIRECT ENERGY BAND GAP:   2.5652 eV
 TTTTTTTTTTTTTTTTTTTTTTTTTTTTTT PDIG        TELAPSE      350.38 TCPU     9792.20
 CHARGE NORMALIZATION FACTOR   1.00000000
 TOTAL ATOMIC CHARGES:
   4.4699371   4.4699370   4.4697909   4.4697908   4.4699256   4.4699256
   4.4699222   4.4699220   4.4698269   4.4698269   4.4699293   4.4699293
   0.8838350   0.8838350   0.8839568   0.8839569   0.8838004   0.8838004
   0.8838987   0.8838987   0.8838023   0.8838023   0.8839742   0.8839741
   0.8838391   0.8838391   0.8839067   0.8839067   0.8838079   0.8838079
   0.8839586   0.8839586   0.8838233   0.8838233   0.8839011   0.8839011
   5.9303082   5.9303082   6.1658440   6.1658441   6.1657660   6.1657660
   6.1657424   6.1657424   6.1657271   6.1657270   5.9308050   5.9308050
   5.9301713   5.9301715   6.1656876   6.1656875   6.1657894   6.1657894
   6.1657714   6.1657714   6.1657816   6.1657817   5.9308472   5.9308473
   5.9304071   5.9304072   6.1657673   6.1657671   6.1658877   6.1658877
   6.1656561   6.1656560   6.1656963   6.1656964   5.9307225   5.9307225
   8.5001108   8.5001108   8.5003783   8.5003783   8.5003240   8.5003240
   8.5001840   8.5001840   8.5002972   8.5002971   8.5004914   8.5004914
 TTTTTTTTTTTTTTTTTTTTTTTTTTTTTT MOQGAD      TELAPSE      350.49 TCPU     9792.32
 TTTTTTTTTTTTTTTTTTTTTTTTTTTTTT SHELLXN     TELAPSE      379.65 TCPU    10722.34
 TTTTTTTTTTTTTTTTTTTTTTTTTTTTTT MONMO3      TELAPSE      380.35 TCPU    10744.98
 NUMERICALLY INTEGRATED DENSITY    395.9999365821
 TTTTTTTTTTTTTTTTTTTTTTTTTTTTTT NUMDFT      TELAPSE      382.10 TCPU    10800.82
 CYC   9 ETOT(AU) -2.578192985367E+03 DETOT  1.45E-07 tst  3.97E-10 PX  3.43E-05
 TTTTTTTTTTTTTTTTTTTTTTTTTTTTTT DIIS        TELAPSE      382.43 TCPU    10807.88
 DIIS TEST: 0.10725E-06 AT SCF   CYCLE   9 - DIIS ACTIVE - HISTORY:     9 CYCLES
 TTTTTTTTTTTTTTTTTTTTTTTTTTTTTT FDIK        TELAPSE      384.35 TCPU    10868.82
 INSULATING STATE
 TOP OF VALENCE BANDS -    BAND    198; K    1; EIG -2.0855165E-01 AU
 BOTTOM OF VIRTUAL BANDS - BAND    199; K    1; EIG -1.1427145E-01 AU
 DIRECT ENERGY BAND GAP:   2.5655 eV
 TTTTTTTTTTTTTTTTTTTTTTTTTTTTTT PDIG        TELAPSE      386.01 TCPU    10875.85
 CHARGE NORMALIZATION FACTOR   1.00000000
 TOTAL ATOMIC CHARGES:
   4.4699316   4.4699315   4.4697680   4.4697678   4.4699141   4.4699140
   4.4699188   4.4699187   4.4698125   4.4698126   4.4699088   4.4699088
   0.8838332   0.8838332   0.8839448   0.8839449   0.8837963   0.8837963
   0.8838891   0.8838890   0.8837924   0.8837924   0.8839703   0.8839702
   0.8838283   0.8838283   0.8839037   0.8839037   0.8838009   0.8838009
   0.8839518   0.8839518   0.8838157   0.8838156   0.8838950   0.8838950
   5.9302308   5.9302309   6.1658289   6.1658289   6.1658246   6.1658246
   6.1657288   6.1657288   6.1657837   6.1657837   5.9308882   5.9308883
   5.9302339   5.9302341   6.1657078   6.1657077   6.1658135   6.1658136
   6.1658485   6.1658485   6.1657475   6.1657476   5.9307899   5.9307900
   5.9304249   5.9304250   6.1657629   6.1657627   6.1659361   6.1659362
   6.1657185   6.1657184   6.1656771   6.1656771   5.9307100   5.9307100
   8.5001135   8.5001135   8.5003508   8.5003508   8.5002898   8.5002898
   8.5001738   8.5001738   8.5002931   8.5002931   8.5004481   8.5004481
 TTTTTTTTTTTTTTTTTTTTTTTTTTTTTT MOQGAD      TELAPSE      386.12 TCPU    10875.96
 TTTTTTTTTTTTTTTTTTTTTTTTTTTTTT SHELLXN     TELAPSE      415.19 TCPU    11803.64
 +++ ENERGIES IN A.U. +++
 ::: EXT EL-POLE                                  -3.0190401246329E+03
 ::: EXT EL-SPHEROPOLE                             3.3640883043972E+01
 ::: BIELET ZONE E-E                               4.9650262666110E+03
 ::: TOTAL E-E                                     1.9796270250221E+03
 ::: TOTAL E-N + N-E                              -7.6072351716702E+03
 ::: TOTAL N-N                                     7.5682780171058E+02
 ::: KINETIC ENERGY                                2.5600633436613E+03
 ::: PSEUDO TOTAL   ENERGY                        -2.3107170012761E+03
 ::: VIRIAL COEFFICIENT                            1.0511922781828E+00
 TTTTTTTTTTTTTTTTTTTTTTTTTTTTTT MONMO3      TELAPSE      415.90 TCPU    11826.27
 NUMERICALLY INTEGRATED DENSITY    395.9999365818
 EXCHANGE ENERGY: -0.252054129071E+03  CORRELATION ENERGY: -0.154218551165E+02
 TTTTTTTTTTTTTTTTTTTTTTTTTTTTTT NUMDFT      TELAPSE      417.68 TCPU    11883.09
 CYC  10 ETOT(AU) -2.578192985464E+03 DETOT -9.66E-08 tst  2.26E-10 PX  3.43E-05

 == SCF ENDED - CONVERGENCE ON ENERGY      E(AU) -2.5781929854639E+03 CYCLES  10


 ENERGY EXPRESSION=HARTREE+FOCK EXCH*0.00000+(HSESOL     EXCH)*1.00000+PBESOL     CORR


 TOTAL ENERGY(DFT)(AU)( 10) -2.5781929854639E+03 DE-9.7E-08 tester 2.3E-10
 TTTTTTTTTTTTTTTTTTTTTTTTTTTTTT EDFT        TELAPSE      417.68 TCPU    11883.11
 
 INFORMATION **** DFTD3 ENERGY **** CALCULATE DFTD3 ENERGY

           DFT-D V3(BJ)
 DF                                         hsesol3c  
 parameters
 s6       :    1.0000
 s8       :    0.0000
 a1       :    0.5196
 a2       :    4.9385
 k1 k3    :   16.0000   -4.0000
 Cutoff   :   50.2022
 CN-Cutoff:   21.1671
 ABC-Cutoff:   21.1671
 
 Edisp /kcal,au:   -63.4502 -0.10111435

 E6    /kcal :   -68.0244
 E8    /kcal :     0.0000
 E6(ABC) "   :   4.574215
 
 INFORMATION **** DFTD3 ENERGY **** NORMAL TERMINATION OF DFTD3 MODULE

 GCP ENERGY CALCULATION
  level        hsesol3c            basis:hsesol3c
  Nbf            948
  Atoms           84

  Parameters: 
  sigma     1.0000
  eta       1.4281
  alpha     0.2936
  beta      1.9467

  dmp_scal      4.0000
  dmp_exp       6.0000
 cutoffs: 
   distance [bohr] 60.0
   noise    [a.u.] 2.2E-16
 SR-damping   T
 ** gCP correction **
  Egcp:        0.1684718873 / (a.u.) ||     105.7177 / (kcal/mol)
 INFORMATION **** GCP **** NORMAL TERMINATION OF GCP MODULE

 *******************************************************************************

 DFT-D3-GCP DISPERSION AND COUNTERPOISE CORRECTION

 D3 DISPERSION ENERGY (AU)      -1.0111435183443E-01
 GCP ENERGY (AU)                 1.6847188733275E-01
 TOTAL ENERGY + DISP + GCP (AU) -2.5781256279284E+03

 *******************************************************************************

 EIGENVECTORS IN FORTRAN UNIT  8
 TTTTTTTTTTTTTTTTTTTTTTTTTTTTTT END         TELAPSE      421.16 TCPU    11892.43
 EEEEEEEEEE TERMINATION  DATE 19 02 2026 TIME 20:10:21.9
