 Default number of threads is:           32

         
 *******************************************************************************
 *                                                                             *
 *                               CRYSTAL23                                     *
 *                      public : 1.0.1 - October 2022                          *
 *                       HTTP://WWW.CRYSTAL.UNITO.IT                           *
 *                                                                             *
 *                              MAIN AUTHORS                                   *
 *                                                                             *
 *  R. DOVESI(1,11), V.R. SAUNDERS(2), C. ROETTI(1,11), R. ORLANDO(1,11),      *
 *  C.M. ZICOVICH-WILSON(1,3), F. PASCALE(4), B. CIVALLERI(1,11),              *
 *  K. DOLL(5), N.M. HARRISON(6), I.J. BUSH(7), Ph. D'ARCO(8),                 *
 *  M. LLUNELL(9), M. CAUSA'(10), Y. NOEL(8), L. MASCHIO(1,11), A. ERBA(1,11)  *
 *  M. RE'RAT(14), S. CASASSA(1,11), B.G. SEARLE(2), J.K. DESMARAIS(1)         *
 *                                                                             *
 *        CONTRIBUTIONS TO THE CODE HAVE ALSO BEEN GIVEN BY                    *
 *                                                                             *
 *  M. FERRABONE(1,11), M. DE LA PIERRE(1,11), M. FERRERO(1,11),               *
 *  J. BAIMA(1,11), E. ALBANESE(1,11), M.F. PEINTINGER(12), R. BAST(13),       *
 *  B. KIRTMAN(15), V. LACIVITA(1,11), R. DEMICHELIS(1,16)                     *
 *  G. BRANDEBURG(17), S. SALUSTRO(1,11), G. SANSONE(1,11)                     *
 *  M.T. RUGGIERO(18), L.E. DAGA(1), L. DONA'(1), A. COSSARD(1)                *
 *                                                                             *
 * (1) THEORETICAL CHEMISTRY GROUP - UNIVERSITA' DI TORINO - TORINO (ITALY)    *
 * (2) SCIENTIFIC COMPUTING DEPARTMENT - STFC DARESBURY (UK)                   *
 * (3) UNIVERSIDAD AUTONOMA DEL ESTADO DE MORELOS - CUERNAVACA (MEXICO)        *
 * (4) UNIVERSITE' DE LORRAINE - NANCY (FRANCE)                                *
 * (5) UNIVERSITAET STUTTGART- STUTTGART (GERMANY)                             *
 * (6) IMPERIAL COLLEGE - LONDON (UK)                                          *
 * (7) SCIENTIFIC COMPUTING DEPARTMENT - STFC RAL (UK)                         *
 * (8) UPMC - SORBONNE UNIVERSITES - PARIS (FRANCE)                            *
 * (9) UNIVERSIDAD DE BARCELONA - BARCELONA (SPAIN)                            *
 *(10) UNIVERSITA' DI NAPOLI "FEDERICO II" - NAPOLI (ITALY)                    *
 *(11) NIS - NANOSTRUCTURED INTERFACES AND SURFACES - TORINO (ITALY)           *
 *(12) MPI FUER CHEMISCHE ENERGIEKONVERSION - MUELHEIM AN DER RUHR (GERMANY)   *
 *(13) UNIVERSITY OF TROMSO - TROMSO (NORWAY)                                  *
 *(14) UNIVERSITE' DE PAU ET DES PAYS DE L'ADOUR - PAU (FRANCE)                *
 *(15) UNIVERSITY OF CALIFORNIA SANTA BARBARA - SANTA BARBARA (USA)            *
 *(16) CURTIN UNIVERSITY - PERTH (AUSTRALIA)                                   *
 *(17) UNIVERSITY COLLEGE LONDON - LONDON (UK)                                 *
 *(18) UNIVERSITY OF VERMONT - BURLINGTON (USA)                                *
 *                                                                             *
 *******************************************************************************
 EEEEEEEEEE STARTING  DATE 19 02 2026 TIME 19:18:46.3
 cof-1_z44_L060_incl                                                             

 CRYSTAL CALCULATION
 (INPUT ACCORDING TO THE INTERNATIONAL TABLES FOR X-RAY CRYSTALLOGRAPHY)
 CRYSTAL FAMILY                       :  TRICLINIC   
 CRYSTAL CLASS  (GROTH - 1921)        :  TRICLINIC PEDIAL                     

 SPACE GROUP (NONCENTROSYMMETRIC)     :  P 1             

 LATTICE PARAMETERS  (ANGSTROMS AND DEGREES) - CONVENTIONAL CELL
        A           B           C        ALPHA        BETA       GAMMA
    15.02361    15.02392     7.44043    45.70184    89.99997   119.99596


 NUMBER OF IRREDUCIBLE ATOMS IN THE CONVENTIONAL CELL:   42

 INPUT COORDINATES

 ATOM AT. N.              COORDINATES
   1   5     4.981613600000E-01 -3.743620000000E-03  5.010815700000E-01
   2   5     6.572170200000E-01  1.553160400000E-01  5.010815800000E-01
   3   5     4.986833000000E-01  1.563513600000E-01  4.987990600000E-01
   4   5     1.117360700000E-01  3.825713800000E-01  5.010815800000E-01
   5   5     2.708440400000E-01  3.825506100000E-01  5.010815700000E-01
   6   5     2.713505300000E-01  5.427423400000E-01  4.987990600000E-01
   7   1     7.886153900000E-01  8.005032000000E-02  4.963494500000E-01
   8   1    -1.762688000000E-02  4.625073900000E-01  4.956258200000E-01
   9   1     7.887356800000E-01  3.655777300000E-01  4.955144500000E-01
  10   1    -1.750596000000E-02  1.771774300000E-01  4.955422300000E-01
  11   1     5.749228300000E-01 -1.352386300000E-01  5.036425000000E-01
  12   1     1.926533100000E-01  6.708608500000E-01  5.043661700000E-01
  13   1     2.895678900000E-01 -1.355778600000E-01  5.044776100000E-01
  14   1     4.780165600000E-01  6.707323700000E-01  5.044496400000E-01
  15   1     5.766445000000E-01  3.651744600000E-01  4.963494900000E-01
  16   1     1.947004300000E-01  1.770633000000E-01  4.956257700000E-01
  17   1     2.916048500000E-01  8.032859000000E-02  4.955143600000E-01
  18   1     4.800487200000E-01  4.624503800000E-01  4.955423200000E-01
  19   6     7.769166000000E-01  2.159728900000E-01  4.987155400000E-01
  20   6     8.320352000000E-01  1.638545500000E-01  4.964608000000E-01
  21   6    -6.102088000000E-02  3.783440300000E-01  4.962660300000E-01
  22   6     8.319083500000E-01  3.245813700000E-01  4.968505700000E-01
  23   6    -6.077088000000E-02  2.178323100000E-01  4.953473800000E-01
  24   6    -6.514290000000E-03  3.249119900000E-01  4.968783800000E-01
  25   6     4.384753200000E-01 -1.229832400000E-01  5.012764400000E-01
  26   6     4.910939500000E-01 -1.786354600000E-01  5.035311300000E-01
  27   6     2.766698500000E-01  7.143819100000E-01  5.037259800000E-01
  28   6     3.302935200000E-01 -1.784088500000E-01  5.031414500000E-01
  29   6     4.373762700000E-01  7.139187500000E-01  5.046445300000E-01
  30   6     3.299402700000E-01  6.599932100000E-01  5.031135800000E-01
  31   6     4.390711600000E-01  2.159037500000E-01  4.987155400000E-01
  32   6     4.927563000000E-01  3.246946700000E-01  4.964608500000E-01
  33   6     2.784143800000E-01  2.173307900000E-01  4.962659800000E-01
  34   6     3.317435100000E-01  1.635792000000E-01  4.968505100000E-01
  35   6     4.395457300000E-01  3.786803200000E-01  4.953474400000E-01
  36   6     3.314098000000E-01  3.248345900000E-01  4.968783800000E-01
  37   8     4.456025400000E-01  5.007893000000E-02  4.994114300000E-01
  38   8     6.034373800000E-01  4.786605000000E-02  5.042270000000E-01
  39   8     6.051099900000E-01  2.101613000000E-01  4.969619100000E-01
  40   8     1.651903600000E-01  4.893594000000E-01  4.994114500000E-01
  41   8     1.640996500000E-01  3.281833300000E-01  5.042269900000E-01
  42   8     3.246944100000E-01  4.904732700000E-01  4.969618900000E-01

 *******************************************************************************

 << INFORMATION >>: FROM NOW ON, ALL COORDINATES REFER TO THE PRIMITIVE CELL

 *******************************************************************************

 LATTICE PARAMETERS  (ANGSTROMS AND DEGREES) - PRIMITIVE CELL
       A          B          C        ALPHA      BETA     GAMMA        VOLUME
   15.02361   15.02392    7.44043    45.70184  89.99997 119.99596    860.125781

 COORDINATES OF THE EQUIVALENT ATOMS (FRACTIONAL UNITS)

 N. ATOM EQUIV AT. N.          X                  Y                  Z

   1   1   1    5 B     4.98161360000E-01 -3.74362000000E-03 -4.98918430000E-01

   2   2   1    5 B    -3.42782980000E-01  1.55316040000E-01 -4.98918420000E-01

   3   3   1    5 B     4.98683300000E-01  1.56351360000E-01  4.98799060000E-01

   4   4   1    5 B     1.11736070000E-01  3.82571380000E-01 -4.98918420000E-01

   5   5   1    5 B     2.70844040000E-01  3.82550610000E-01 -4.98918430000E-01

   6   6   1    5 B     2.71350530000E-01 -4.57257660000E-01  4.98799060000E-01

   7   7   1    1 H    -2.11384610000E-01  8.00503200000E-02  4.96349450000E-01

   8   8   1    1 H    -1.76268800000E-02  4.62507390000E-01  4.95625820000E-01

   9   9   1    1 H    -2.11264320000E-01  3.65577730000E-01  4.95514450000E-01

  10  10   1    1 H    -1.75059600000E-02  1.77177430000E-01  4.95542230000E-01

  11  11   1    1 H    -4.25077170000E-01 -1.35238630000E-01 -4.96357500000E-01

  12  12   1    1 H     1.92653310000E-01 -3.29139150000E-01 -4.95633830000E-01

  13  13   1    1 H     2.89567890000E-01 -1.35577860000E-01 -4.95522390000E-01

  14  14   1    1 H     4.78016560000E-01 -3.29267630000E-01 -4.95550360000E-01

  15  15   1    1 H    -4.23355500000E-01  3.65174460000E-01  4.96349490000E-01

  16  16   1    1 H     1.94700430000E-01  1.77063300000E-01  4.95625770000E-01

  17  17   1    1 H     2.91604850000E-01  8.03285900000E-02  4.95514360000E-01

  18  18   1    1 H     4.80048720000E-01  4.62450380000E-01  4.95542320000E-01

  19  19   1    6 C    -2.23083400000E-01  2.15972890000E-01  4.98715540000E-01

  20  20   1    6 C    -1.67964800000E-01  1.63854550000E-01  4.96460800000E-01

  21  21   1    6 C    -6.10208800000E-02  3.78344030000E-01  4.96266030000E-01

  22  22   1    6 C    -1.68091650000E-01  3.24581370000E-01  4.96850570000E-01

  23  23   1    6 C    -6.07708800000E-02  2.17832310000E-01  4.95347380000E-01

  24  24   1    6 C    -6.51429000000E-03  3.24911990000E-01  4.96878380000E-01

  25  25   1    6 C     4.38475320000E-01 -1.22983240000E-01 -4.98723560000E-01

  26  26   1    6 C     4.91093950000E-01 -1.78635460000E-01 -4.96468870000E-01

  27  27   1    6 C     2.76669850000E-01 -2.85618090000E-01 -4.96274020000E-01

  28  28   1    6 C     3.30293520000E-01 -1.78408850000E-01 -4.96858550000E-01

  29  29   1    6 C     4.37376270000E-01 -2.86081250000E-01 -4.95355470000E-01

  30  30   1    6 C     3.29940270000E-01 -3.40006790000E-01 -4.96886420000E-01

  31  31   1    6 C     4.39071160000E-01  2.15903750000E-01  4.98715540000E-01

  32  32   1    6 C     4.92756300000E-01  3.24694670000E-01  4.96460850000E-01

  33  33   1    6 C     2.78414380000E-01  2.17330790000E-01  4.96265980000E-01

  34  34   1    6 C     3.31743510000E-01  1.63579200000E-01  4.96850510000E-01

  35  35   1    6 C     4.39545730000E-01  3.78680320000E-01  4.95347440000E-01

  36  36   1    6 C     3.31409800000E-01  3.24834590000E-01  4.96878380000E-01

  37  37   1    8 O     4.45602540000E-01  5.00789300000E-02  4.99411430000E-01

  38  38   1    8 O    -3.96562620000E-01  4.78660500000E-02 -4.95773000000E-01

  39  39   1    8 O    -3.94890010000E-01  2.10161300000E-01  4.96961910000E-01

  40  40   1    8 O     1.65190360000E-01  4.89359400000E-01  4.99411450000E-01

  41  41   1    8 O     1.64099650000E-01  3.28183330000E-01 -4.95773010000E-01

  42  42   1    8 O     3.24694410000E-01  4.90473270000E-01  4.96961890000E-01

 NUMBER OF SYMMETRY OPERATORS         :    1
 *******************************************************************************
 * GEOMETRY EDITING - INPUT COORDINATES ARE GIVEN IN ANGSTROM         
 *******************************************************************************

 GCALCO - MAX INDICES DIRECT LATTICE VECTOR    10    13    24
 NO.OF VECTORS CREATED 6999 STARS 3500 RMAX   214.20300 BOHR

 GEOMETRY FOR WAVE FUNCTION - DIMENSIONALITY OF THE SYSTEM    3
 (NON PERIODIC DIRECTION: LATTICE PARAMETER FORMALLY SET TO 500)
 *******************************************************************************
 LATTICE PARAMETERS (ANGSTROMS AND DEGREES) - BOHR = 0.5291772083 ANGSTROM
 PRIMITIVE CELL - CENTRING CODE 1/0 VOLUME=   860.125781 - DENSITY  0.753 g/cm^3
         A              B              C           ALPHA      BETA       GAMMA 
    15.02361100    15.02391600     7.44043000    45.701842  89.999967 119.995964
 *******************************************************************************
 ATOMS IN THE ASYMMETRIC UNIT   42 - ATOMS IN THE UNIT CELL:   42
     ATOM                 X/A                 Y/B                 Z/C    
 *******************************************************************************
      1 T   5 B     4.981613600000E-01 -3.743620000000E-03 -4.989184300000E-01
      2 T   5 B    -3.427829800000E-01  1.553160400000E-01 -4.989184200000E-01
      3 T   5 B     4.986833000000E-01  1.563513600000E-01  4.987990600000E-01
      4 T   5 B     1.117360700000E-01  3.825713800000E-01 -4.989184200000E-01
      5 T   5 B     2.708440400000E-01  3.825506100000E-01 -4.989184300000E-01
      6 T   5 B     2.713505300000E-01 -4.572576600000E-01  4.987990600000E-01
      7 T   1 H    -2.113846100000E-01  8.005032000000E-02  4.963494500000E-01
      8 T   1 H    -1.762688000000E-02  4.625073900000E-01  4.956258200000E-01
      9 T   1 H    -2.112643200000E-01  3.655777300000E-01  4.955144500000E-01
     10 T   1 H    -1.750596000000E-02  1.771774300000E-01  4.955422300000E-01
     11 T   1 H    -4.250771700000E-01 -1.352386300000E-01 -4.963575000000E-01
     12 T   1 H     1.926533100000E-01 -3.291391500000E-01 -4.956338300000E-01
     13 T   1 H     2.895678900000E-01 -1.355778600000E-01 -4.955223900000E-01
     14 T   1 H     4.780165600000E-01 -3.292676300000E-01 -4.955503600000E-01
     15 T   1 H    -4.233555000000E-01  3.651744600000E-01  4.963494900000E-01
     16 T   1 H     1.947004300000E-01  1.770633000000E-01  4.956257700000E-01
     17 T   1 H     2.916048500000E-01  8.032859000000E-02  4.955143600000E-01
     18 T   1 H     4.800487200000E-01  4.624503800000E-01  4.955423200000E-01
     19 T   6 C    -2.230834000000E-01  2.159728900000E-01  4.987155400000E-01
     20 T   6 C    -1.679648000000E-01  1.638545500000E-01  4.964608000000E-01
     21 T   6 C    -6.102088000000E-02  3.783440300000E-01  4.962660300000E-01
     22 T   6 C    -1.680916500000E-01  3.245813700000E-01  4.968505700000E-01
     23 T   6 C    -6.077088000000E-02  2.178323100000E-01  4.953473800000E-01
     24 T   6 C    -6.514290000000E-03  3.249119900000E-01  4.968783800000E-01
     25 T   6 C     4.384753200000E-01 -1.229832400000E-01 -4.987235600000E-01
     26 T   6 C     4.910939500000E-01 -1.786354600000E-01 -4.964688700000E-01
     27 T   6 C     2.766698500000E-01 -2.856180900000E-01 -4.962740200000E-01
     28 T   6 C     3.302935200000E-01 -1.784088500000E-01 -4.968585500000E-01
     29 T   6 C     4.373762700000E-01 -2.860812500000E-01 -4.953554700000E-01
     30 T   6 C     3.299402700000E-01 -3.400067900000E-01 -4.968864200000E-01
     31 T   6 C     4.390711600000E-01  2.159037500000E-01  4.987155400000E-01
     32 T   6 C     4.927563000000E-01  3.246946700000E-01  4.964608500000E-01
     33 T   6 C     2.784143800000E-01  2.173307900000E-01  4.962659800000E-01
     34 T   6 C     3.317435100000E-01  1.635792000000E-01  4.968505100000E-01
     35 T   6 C     4.395457300000E-01  3.786803200000E-01  4.953474400000E-01
     36 T   6 C     3.314098000000E-01  3.248345900000E-01  4.968783800000E-01
     37 T   8 O     4.456025400000E-01  5.007893000000E-02  4.994114300000E-01
     38 T   8 O    -3.965626200000E-01  4.786605000000E-02 -4.957730000000E-01
     39 T   8 O    -3.948900100000E-01  2.101613000000E-01  4.969619100000E-01
     40 T   8 O     1.651903600000E-01  4.893594000000E-01  4.994114500000E-01
     41 T   8 O     1.640996500000E-01  3.281833300000E-01 -4.957730100000E-01
     42 T   8 O     3.246944100000E-01  4.904732700000E-01  4.969618900000E-01

 T = ATOM BELONGING TO THE ASYMMETRIC UNIT

 ****    1 SYMMOPS - TRANSLATORS IN FRACTIONAL UNITS
 **** MATRICES AND TRANSLATORS IN THE CRYSTALLOGRAPHIC REFERENCE FRAME
   V INV                    ROTATION MATRICES                   TRANSLATORS
   1   1  1.00 -0.00  0.00  0.00  1.00  0.00  0.00  0.00  1.00  0.00  0.00  0.00

 DIRECT LATTICE VECTORS CARTESIAN COMPONENTS (ANGSTROM)
          X                    Y                    Z
   0.130113578931E+02  -0.751088897922E+01   0.000000000000E+00
   0.000000000000E+00   0.150239160000E+02   0.000000000000E+00
   0.299962454806E+01   0.519633884427E+01   0.440003565566E+01


 CARTESIAN COORDINATES - PRIMITIVE CELL
 *******************************************************************************
 *      ATOM          X(ANGSTROM)         Y(ANGSTROM)         Z(ANGSTROM)
 *******************************************************************************
    1     5 B     1.985563225284E+00  3.437149436683E+00 -6.595294536925E+00
    2     5 B    -5.956639972540E+00  2.315510879188E+00 -2.195258837265E+00
    3     5 B     4.985132248456E+00 -4.000955116272E+00 -2.205302006650E+00
    4     5 B    -4.272994377775E-02  2.315933894411E+00 -2.195258837265E+00
    5     5 B     2.027480767534E+00  1.120579497334E+00 -2.195258881266E+00
    6     5 B     2.027224217166E+00  3.511621707214E+00 -2.205302006650E+00
    7     1 H    -4.261163367218E+00  1.732167041735E-01 -2.216080377992E+00
    8     1 H    -1.742282815954E+00  4.460166571887E+00 -2.219264375794E+00
    9     1 H    -1.262478369415E+00 -5.369863055786E+00  2.180281247894E+00
   10     1 H    -1.740960221173E+00  1.720506419041E-01 -2.219632174774E+00
   11     1 H    -4.020092784591E+00  3.777990700771E+00  2.216044957705E+00
   12     1 H     4.019590310435E+00 -3.771099043892E+00  2.219229131508E+00
   13     1 H     5.280914874030E+00 -1.590386052927E+00  2.219719471482E+00
   14     1 H    -5.278553828685E+00  1.594961711502E+00  2.219596402484E+00
   15     1 H    -4.019567811873E+00 -3.778589293152E+00  2.183955453668E+00
   16     1 H     1.020383654945E+00 -1.423088571452E+00 -2.219264595796E+00
   17     1 H     2.280907556813E+00 -3.604839993103E+00 -2.219754803768E+00
   18     1 H     4.732902061638E+00  7.208899848772E-01 -2.219631778771E+00
   19     6 C    -4.406283129177E+00  2.315469296615E+00 -2.205669497628E+00
   20     6 C    -3.695878671466E+00  1.106741656060E+00 -2.215590434022E+00
   21     6 C    -2.304977290733E+00  3.524957585425E+00 -2.216447428967E+00
   22     6 C    -3.696359998555E+00  3.524466031945E+00 -2.213875432125E+00
   23     6 C    -2.304480056351E+00  1.106791648205E+00 -2.220489521722E+00
   24     6 C    -1.593935720621E+00  2.315988136722E+00 -2.213753067133E+00
   25     6 C     1.209551334460E+00  2.095011232530E+00 -6.594437101977E+00
   26     6 C    -5.111154412231E+00  3.755051066860E+00  2.215554925734E+00
   27     6 C    -8.884098444483E-01  8.796304687103E-01 -6.583659038637E+00
   28     6 C     5.806802643044E+00 -2.546704074532E+00  2.213840319840E+00
   29     6 C     1.205354207012E+00 -3.296029900462E-01 -6.579617385885E+00
   30     6 C     2.802498233272E+00  4.855547604430E+00 -2.186317964813E+00
   31     6 C     4.209246831502E+00 -2.658938844179E+00 -2.205669497628E+00
   32     6 C     4.901000178109E+00 -1.439412460139E+00 -2.215590214020E+00
   33     6 C     2.111536208668E+00 -1.443552620532E+00 -2.216447648969E+00
   34     6 C     2.807173975761E+00 -2.648623752402E+00 -2.213875696127E+00
   35     6 C     4.205318596177E+00 -2.344635611754E-01 -2.220489257720E+00
   36     6 C     2.802915555055E+00 -2.232850377695E-01 -2.213753067133E+00
   37     8 O     4.296316362945E+00 -5.195717400397E+00 -2.202607556815E+00
   38     8 O    -6.646951036894E+00  1.121468828737E+00 -2.181418877113E+00
   39     8 O    -6.477315557557E-01 -1.121773936907E+00  6.586685779164E+00
   40     8 O     6.477731913850E-01  3.510140337650E+00 -2.202607468815E+00
   41     8 O     6.480263852137E-01  1.121859980037E+00 -2.181418921114E+00
   42     8 O     2.715789711019E+00  2.316129071900E+00 -2.213385620155E+00

 *******************************************************************************
 STARTING BASIS SET HANDLING 
 *******************************************************************************

 Loading internal basis set: SOLDEF2MSVP         

 Please cite in your publication:
 L. Dona', J. G. Brandenburg and B. Civalleri, J. Chem. Phys., 151, 121101 (2019
 )                                                                              
                                                                                
                    

 *******************************************************************************
 LOCAL ATOMIC FUNCTIONS BASIS SET
 *******************************************************************************
   ATOM   X(AU)   Y(AU)   Z(AU)  N. TYPE  EXPONENT  S COEF   P COEF   D/F/G COEF
 *******************************************************************************
   1 B    3.752   6.495 -12.463
                                  1 S  
                                         2.410E+03 1.755E-03 0.000E+00 0.000E+00
                                         3.619E+02 1.344E-02 0.000E+00 0.000E+00
                                         8.231E+01 6.637E-02 0.000E+00 0.000E+00
                                         2.311E+01 2.303E-01 0.000E+00 0.000E+00
                                         7.252E+00 5.150E-01 0.000E+00 0.000E+00
                                  2 S  
                                         2.367E+00 1.000E+00 0.000E+00 0.000E+00
                                  3 S  
                                         5.533E-01 1.000E+00 0.000E+00 0.000E+00
                                  4 S  
                                         1.716E-01 1.000E+00 0.000E+00 0.000E+00
                           5-     7 P  
                                         6.002E+00 0.000E+00-3.555E-02 0.000E+00
                                         1.240E+00 0.000E+00-1.983E-01 0.000E+00
                                         3.367E-01 0.000E+00-5.048E-01 0.000E+00
                           8-    10 P  
                                         1.256E-01 0.000E+00 1.000E+00 0.000E+00
                          11-    15 D  
                                         8.880E-01 0.000E+00 0.000E+00 1.000E+00
   2 B  -11.256   4.376  -4.148
   3 B    9.421  -7.561  -4.167
   4 B   -0.081   4.376  -4.148
   5 B    3.831   2.118  -4.148
   6 B    3.831   6.636  -4.167
   7 H   -8.052   0.327  -4.188
                                 91 S  
                                         1.874E+01 1.968E-02 0.000E+00 0.000E+00
                                         2.826E+00 1.380E-01 0.000E+00 0.000E+00
                                         6.401E-01 4.783E-01 0.000E+00 0.000E+00
                                 92 S  
                                         1.756E-01 1.000E+00 0.000E+00 0.000E+00
   8 H   -3.292   8.428  -4.194
   9 H   -2.386 -10.148   4.120
  10 H   -3.290   0.325  -4.194
  11 H   -7.597   7.139   4.188
  12 H    7.596  -7.126   4.194
  13 H    9.979  -3.005   4.195
  14 H   -9.975   3.014   4.194
  15 H   -7.596  -7.140   4.127
  16 H    1.928  -2.689  -4.194
  17 H    4.310  -6.812  -4.195
  18 H    8.944   1.362  -4.194
  19 C   -8.327   4.376  -4.168
                                115 S  
                                         3.624E+03 1.634E-03 0.000E+00 0.000E+00
                                         5.440E+02 1.252E-02 0.000E+00 0.000E+00
                                         1.237E+02 6.211E-02 0.000E+00 0.000E+00
                                         3.476E+01 2.182E-01 0.000E+00 0.000E+00
                                         1.093E+01 4.980E-01 0.000E+00 0.000E+00
                                116 S  
                                         3.574E+00 1.000E+00 0.000E+00 0.000E+00
                                117 S  
                                         7.742E-01 1.000E+00 0.000E+00 0.000E+00
                                118 S  
                                         2.330E-01 1.000E+00 0.000E+00 0.000E+00
                         119-   121 P  
                                         9.443E+00 0.000E+00 3.790E-02 0.000E+00
                                         2.002E+00 0.000E+00 2.082E-01 0.000E+00
                                         5.463E-01 0.000E+00 5.047E-01 0.000E+00
                         122-   124 P  
                                         1.820E-01 0.000E+00 1.000E+00 0.000E+00
                         125-   129 D  
                                         8.880E-01 0.000E+00 0.000E+00 1.000E+00
  20 C   -6.984   2.091  -4.187
  21 C   -4.356   6.661  -4.188
  22 C   -6.985   6.660  -4.184
  23 C   -4.355   2.092  -4.196
  24 C   -3.012   4.377  -4.183
  25 C    2.286   3.959 -12.462
  26 C   -9.659   7.096   4.187
  27 C   -1.679   1.662 -12.441
  28 C   10.973  -4.813   4.184
  29 C    2.278  -0.623 -12.434
  30 C    5.296   9.176  -4.132
  31 C    7.954  -5.025  -4.168
  32 C    9.262  -2.720  -4.187
  33 C    3.990  -2.728  -4.188
  34 C    5.305  -5.005  -4.184
  35 C    7.947  -0.443  -4.196
  36 C    5.297  -0.422  -4.183
  37 O    8.119  -9.818  -4.162
                                385 S  
                                         6.773E+03 1.727E-03 0.000E+00 0.000E+00
                                         1.017E+03 1.325E-02 0.000E+00 0.000E+00
                                         2.313E+02 6.603E-02 0.000E+00 0.000E+00
                                         6.501E+01 2.353E-01 0.000E+00 0.000E+00
                                         2.050E+01 5.498E-01 0.000E+00 0.000E+00
                                386 S  
                                         6.716E+00 1.000E+00 0.000E+00 0.000E+00
                                387 S  
                                         1.147E+00 1.000E+00 0.000E+00 0.000E+00
                                388 S  
                                         3.342E-01 1.000E+00 0.000E+00 0.000E+00
                         389-   391 P  
                                         1.769E+01 0.000E+00 4.359E-02 0.000E+00
                                         3.854E+00 0.000E+00 2.318E-01 0.000E+00
                                         1.047E+00 0.000E+00 5.146E-01 0.000E+00
                         392-   394 P  
                                         2.759E-01 0.000E+00 1.000E+00 0.000E+00
                         395-   399 D  
                                         8.000E-01 0.000E+00 0.000E+00 1.000E+00
  38 O  -12.561   2.119  -4.122
  39 O   -1.224  -2.120  12.447
  40 O    1.224   6.633  -4.162
  41 O    1.225   2.120  -4.122
  42 O    5.132   4.377  -4.183

 *******************************************************************************
 FINISHED BASIS SET HANDLING 
 *******************************************************************************

 INFORMATION **** SET_MPP **** PCRYSTAL CALCULATION
 INFORMATION **** READM2 **** NEW DEFAULT: FOCK/KS MATRIX MIXING SET TO 30 %
 INFORMATION **** READM2 **** NEW DEFAULT: FULL DIRECT SCF MODE
 INFORMATION **** READM2 **** NEW DEFAULT: COULOMB BIPOLAR BUFFER SET TO 32 Mb
 INFORMATION **** READM2 **** NEW DEFAULT: EXCHANGE BIPOLAR BUFFER SET TO 32 Mb

 *******************************************************************************
 NEW DEFAULT: DFT INTEGRATION GRID INCREASED TO XLGRID
 NEW DEFAULT: DIIS ACCELERATOR ACTIVE
 USE KEYWORD NODIIS TO TURN IT OFF
 *******************************************************************************

 WARNING **** RDDFTP **** HSEsol-HJS ACTIVE
 RANGE SEPARATION - OMEGA:   0.110000000000000     
 WARNING **** RDDFTP **** HSEsol-3c has to be combined with sol-def2-mSVP basis set
 *******************************************************************************
 N. OF ATOMS PER CELL        42  COULOMB OVERLAP TOL         (T1) 10**   -6
 NUMBER OF SHELLS           234  COULOMB PENETRATION TOL     (T2) 10**   -6
 NUMBER OF AO               474  EXCHANGE OVERLAP TOL        (T3) 10**   -6
 N. OF ELECTRONS PER CELL   198  EXCHANGE PSEUDO OVP (F(G))  (T4) 10**   -6
 CORE ELECTRONS PER CELL     60  EXCHANGE PSEUDO OVP (P(G))  (T5) 10**  -12
 N. OF SYMMETRY OPERATORS     1  POLE ORDER IN MONO ZONE                  4
 *******************************************************************************
 TYPE OF CALCULATION :  RESTRICTED CLOSED SHELL
 KOHN-SHAM HAMILTONIAN

 (EXCHANGE)[CORRELATION] FUNCTIONAL:(HSEsol GGA)[PBEsol]

 RANGE-SEPARATED HYBRID FUNCTIONAL 
 OMEGA (SHORT-RANGE)[LONG-RANGE]:(    0.1100)[    0.0000]

 HYBRID EXCHANGE - PERCENTAGE OF FOCK EXCHANGE    25.0000

 CAPPA:IS1  2;IS2  2;IS3  8; K PTS MONK NET  20; SYMMOPS:K SPACE   2;G SPACE   1

 *******************************************************************************
 MAX NUMBER OF SCF CYCLES      50  CONVERGENCE ON DELTAP        10**-16
 WEIGHT OF F(I) IN F(I+1)      30% CONVERGENCE ON ENERGY        10**- 6
 SHRINK. FACT.(MONKH.)    2  2  8  NUMBER OF K POINTS IN THE IBZ     20
 SHRINKING FACTOR(GILAT NET)    8  NUMBER OF K POINTS(GILAT NET)   1028
 *******************************************************************************
 *** K POINTS COORDINATES (OBLIQUE COORDINATES IN UNITS OF IS =  2)
   1-R(  0  0  0)   2-R(  1  0  0)   3-R(  0  1  0)   4-R(  1  1  0)
   5-C(  0  0  1)   6-C(  1  0  1)   7-C(  0  1  1)   8-C(  1  1  1)
   9-C(  0  0  2)  10-C(  1  0  2)  11-C(  0  1  2)  12-C(  1  1  2)
  13-C(  0  0  3)  14-C(  1  0  3)  15-C(  0  1  3)  16-C(  1  1  3)
  17-R(  0  0  4)  18-R(  1  0  4)  19-R(  0  1  4)  20-R(  1  1  4)

 DIRECT LATTICE VECTORS COMPON. (A.U.)     RECIP. LATTICE VECTORS COMPON. (A.U.) 
        X            Y            Z              X            Y            Z
   24.5879030  -14.1935232    0.0000000      0.2555397    0.0000000   -0.1742084
    0.0000000   28.3910867    0.0000000      0.1277517    0.2213084   -0.3484518
    5.6684689    9.8196573    8.3148624      0.0000000    0.0000000    0.7556572

 DISK SPACE FOR EIGENVECTORS (FTN 10)     7189632 REALS

 SYMMETRY ADAPTION OF THE BLOCH FUNCTIONS DISABLED
 TTTTTTTTTTTTTTTTTTTTTTTTTTTTTT gordsh1     TELAPSE        0.04 TCPU        0.04

 MATRIX SIZE: P(G)  275018, F(G)   54656, P(G) IRR  138532, F(G) IRR   55172
 MAX G-VECTOR INDEX FOR 1- AND 2-ELECTRON INTEGRALS  35

 TTTTTTTTTTTTTTTTTTTTTTTTTTTTTT INPUT       TELAPSE        0.36 TCPU        0.36

 NEIGHBORS OF THE NON-EQUIVALENT ATOMS

 N = NUMBER OF NEIGHBORS AT DISTANCE R
    ATOM  N     R/ANG      R/AU   NEIGHBORS (ATOM LABELS AND CELL INDICES)
   1 B    1     1.3791     2.6061   37 O    0 1-1
   1 B    1     1.3793     2.6065   38 O    1 1-1
   1 B    1     1.5503     2.9297   25 C    0 0 0
   1 B    1     2.3895     4.5155    3 B    0 1-1
   1 B    1     2.3898     4.5160    2 B    1 1-1
   1 B    1     2.5632     4.8437   26 C    1 1-2

   2 B    1     1.3793     2.6065   39 O    0 1-2
   2 B    1     1.3793     2.6065   38 O    0 0 0
   2 B    1     1.5504     2.9298   19 C    0 0 0
   2 B    1     2.3895     4.5156    3 B   -1 0 0
   2 B    1     2.3898     4.5160    1 B   -1-1 1
   2 B    1     2.5634     4.8440   22 C    0 0 0

   3 B    1     1.3791     2.6061   37 O    0 0 0
   3 B    1     1.3793     2.6064   39 O    1 1-2
   3 B    1     1.5502     2.9294   31 C    0 0 0
   3 B    1     2.3895     4.5155    1 B    0-1 1
   3 B    1     2.3895     4.5156    2 B    1 0 0
   3 B    1     2.5629     4.8433   32 C    0 0 0

   4 B    1     1.3795     2.6068   40 O    0 0 0
   4 B    1     1.3795     2.6070   41 O    0 0 0
   4 B    1     1.5513     2.9316   24 C    0 0 0
   4 B    1     2.3905     4.5174    6 B    0 0 0
   4 B    1     2.3905     4.5175    5 B    0 0 0
   4 B    1     2.5648     4.8468   23 C    0 0 0

   5 B    1     1.3795     2.6069   41 O    0 0 0
   5 B    1     1.3797     2.6072   42 O    0 0 0
   5 B    1     1.5516     2.9322   36 C    0 0 0
   5 B    1     2.3905     4.5175    4 B    0 0 0
   5 B    1     2.3911     4.5185    6 B    0 0 0
   5 B    1     2.5651     4.8473   35 C    0 0 0

   6 B    1     1.3795     2.6068   40 O    0 0 0
   6 B    1     1.3796     2.6071   42 O    0 0 0
   6 B    1     1.5516     2.9322   30 C    0 0 0
   6 B    1     2.3905     4.5174    4 B    0 0 0
   6 B    1     2.3911     4.5185    5 B    0 0 0
   6 B    1     2.5651     4.8473   29 C    0 0 1

   7 H    1     1.0913     2.0623   20 C    0 0 0
   7 H    1     2.1472     4.0576   19 C    0 0 0
   7 H    1     2.1680     4.0969   23 C    0 0 0
   7 H    1     2.5202     4.7625   10 H    0 0 0
   7 H    1     2.5676     4.8520   38 O    0 0 0
   7 H    1     2.7321     5.1630    2 B    0 0 0

   8 H    1     1.0914     2.0625   21 C    0 0 0
   8 H    1     2.1493     4.0616   24 C    0 0 0
   8 H    1     2.1666     4.0942   22 C    0 0 0
   8 H    1     2.5198     4.7618    9 H    0 1-1
   8 H    1     2.5720     4.8604   40 O    0 0 0
   8 H    1     2.7362     5.1707    4 B    0 0 0

   9 H    1     1.0914     2.0624   22 C    0-1 1
   9 H    1     2.1471     4.0575   19 C    0-1 1
   9 H    1     2.1680     4.0970   21 C    0-1 1
   9 H    1     2.5198     4.7618    8 H    0-1 1
   9 H    1     2.5665     4.8500   39 O    0 0-1
   9 H    1     2.7315     5.1618    2 B    0-1 1

  10 H    1     1.0915     2.0626   23 C    0 0 0
  10 H    1     2.1490     4.0610   24 C    0 0 0
  10 H    1     2.1669     4.0948   20 C    0 0 0
  10 H    1     2.5202     4.7625    7 H    0 0 0
  10 H    1     2.5712     4.8588   41 O    0 0 0
  10 H    1     2.7351     5.1686    4 B    0 0 0

  11 H    1     1.0913     2.0623   26 C    0 0 0
  11 H    1     2.1469     4.0571   25 C   -1-1 2
  11 H    1     2.1680     4.0968   29 C   -1-1 2
  11 H    1     2.5198     4.7617   14 H    0 0 0
  11 H    1     2.5670     4.8510   38 O    0 0 1
  11 H    1     2.7310     5.1609    1 B   -1-1 2

  12 H    1     1.0914     2.0625   27 C    0-1 2
  12 H    1     2.1493     4.0617   30 C    0-1 1
  12 H    1     2.1664     4.0939   28 C    0 0 0
  12 H    1     2.5192     4.7606   13 H    0 0 0
  12 H    1     2.5735     4.8632   40 O    0-1 1
  12 H    1     2.7371     5.1723    6 B    0-1 1

  13 H    1     1.0914     2.0624   28 C    0 0 0
  13 H    1     2.1475     4.0581   25 C    0-1 2
  13 H    1     2.1679     4.0967   27 C    0-1 2
  13 H    1     2.5192     4.7606   12 H    0 0 0
  13 H    1     2.5675     4.8519   37 O    0 0 1
  13 H    1     2.7328     5.1643    1 B    0-1 2

  14 H    1     1.0914     2.0625   29 C   -1-1 2
  14 H    1     2.1491     4.0612   30 C   -1-1 1
  14 H    1     2.1666     4.0942   26 C    0 0 0
  14 H    1     2.5198     4.7617   11 H    0 0 0
  14 H    1     2.5723     4.8609   42 O   -1-1 1
  14 H    1     2.7355     5.1693    6 B   -1-1 1

  15 H    1     1.0914     2.0624   32 C   -1-1 1
  15 H    1     2.1475     4.0582   31 C   -1-1 1
  15 H    1     2.1678     4.0966   35 C   -1-1 1
  15 H    1     2.5200     4.7621   18 H   -1-1 1
  15 H    1     2.5667     4.8503   39 O    0 0-1
  15 H    1     2.7315     5.1618    3 B   -1-1 1

  16 H    1     1.0913     2.0623   33 C    0 0 0
  16 H    1     2.1487     4.0605   36 C    0 0 0
  16 H    1     2.1667     4.0945   34 C    0 0 0
  16 H    1     2.5197     4.7616   17 H    0 0 0
  16 H    1     2.5723     4.8610   41 O    0 0 0
  16 H    1     2.7359     5.1701    5 B    0 0 0

  17 H    1     1.0915     2.0626   34 C    0 0 0
  17 H    1     2.1479     4.0589   31 C    0 0 0
  17 H    1     2.1679     4.0968   33 C    0 0 0
  17 H    1     2.5197     4.7616   16 H    0 0 0
  17 H    1     2.5677     4.8522   37 O    0 0 0
  17 H    1     2.7331     5.1648    3 B    0 0 0

  18 H    1     1.0914     2.0624   35 C    0 0 0
  18 H    1     2.1486     4.0602   36 C    0 0 0
  18 H    1     2.1668     4.0947   32 C    0 0 0
  18 H    1     2.5200     4.7621   15 H    1 1-1
  18 H    1     2.5717     4.8598   42 O    0 0 0
  18 H    1     2.7349     5.1682    5 B    0 0 0

  19 C    1     1.4020     2.6495   22 C    0 0 0
  19 C    1     1.4021     2.6495   20 C    0 0 0
  19 C    1     1.5504     2.9298    2 B    0 0 0
  19 C    1     2.1471     4.0575    9 H    0 1-1
  19 C    1     2.1472     4.0576    7 H    0 0 0
  19 C    1     2.4246     4.5817   21 C    0 0 0

  20 C    1     1.0913     2.0623    7 H    0 0 0
  20 C    1     1.3914     2.6294   23 C    0 0 0
  20 C    1     1.4021     2.6495   19 C    0 0 0
  20 C    1     2.1669     4.0948   10 H    0 0 0
  20 C    1     2.4177     4.5688   22 C    0 0 0
  20 C    1     2.4250     4.5825   24 C    0 0 0

  21 C    1     1.0914     2.0625    8 H    0 0 0
  21 C    1     1.3914     2.6293   22 C    0 0 0
  21 C    1     1.4026     2.6505   24 C    0 0 0
  21 C    1     2.1680     4.0970    9 H    0 1-1
  21 C    1     2.4182     4.5697   23 C    0 0 0
  21 C    1     2.4246     4.5817   19 C    0 0 0

  22 C    1     1.0914     2.0624    9 H    0 1-1
  22 C    1     1.3914     2.6293   21 C    0 0 0
  22 C    1     1.4020     2.6495   19 C    0 0 0
  22 C    1     2.1666     4.0942    8 H    0 0 0
  22 C    1     2.4177     4.5688   20 C    0 0 0
  22 C    1     2.4250     4.5826   24 C    0 0 0

  23 C    1     1.0915     2.0626   10 H    0 0 0
  23 C    1     1.3914     2.6294   20 C    0 0 0
  23 C    1     1.4025     2.6504   24 C    0 0 0
  23 C    1     2.1680     4.0969    7 H    0 0 0
  23 C    1     2.4182     4.5697   21 C    0 0 0
  23 C    1     2.4246     4.5818   19 C    0 0 0

  24 C    1     1.4025     2.6504   23 C    0 0 0
  24 C    1     1.4026     2.6505   21 C    0 0 0
  24 C    1     1.5513     2.9316    4 B    0 0 0
  24 C    1     2.1490     4.0610   10 H    0 0 0
  24 C    1     2.1493     4.0616    8 H    0 0 0
  24 C    1     2.4250     4.5825   20 C    0 0 0

  25 C    1     1.4020     2.6494   26 C    1 1-2
  25 C    1     1.4021     2.6495   28 C    0 1-2
  25 C    1     1.5503     2.9297    1 B    0 0 0
  25 C    1     2.1469     4.0571   11 H    1 1-2
  25 C    1     2.1475     4.0581   13 H    0 1-2
  25 C    1     2.4246     4.5818   27 C    0 0 0

  26 C    1     1.0913     2.0623   11 H    0 0 0
  26 C    1     1.3914     2.6293   29 C   -1-1 2
  26 C    1     1.4020     2.6494   25 C   -1-1 2
  26 C    1     2.1666     4.0942   14 H    0 0 0
  26 C    1     2.4175     4.5684   28 C   -1 0 0
  26 C    1     2.4251     4.5828   30 C   -1-1 1

  27 C    1     1.0914     2.0625   12 H    0 1-2
  27 C    1     1.3915     2.6295   28 C    0 1-2
  27 C    1     1.4026     2.6505   30 C    0 0-1
  27 C    1     2.1679     4.0967   13 H    0 1-2
  27 C    1     2.4179     4.5691   29 C    0 0 0
  27 C    1     2.4246     4.5818   25 C    0 0 0

  28 C    1     1.0914     2.0624   13 H    0 0 0
  28 C    1     1.3915     2.6295   27 C    0-1 2
  28 C    1     1.4021     2.6495   25 C    0-1 2
  28 C    1     2.1664     4.0939   12 H    0 0 0
  28 C    1     2.4175     4.5684   26 C    1 0 0
  28 C    1     2.4253     4.5832   30 C    0-1 1

  29 C    1     1.0914     2.0625   14 H    1 1-2
  29 C    1     1.3914     2.6293   26 C    1 1-2
  29 C    1     1.4025     2.6504   30 C    0 0-1
  29 C    1     2.1680     4.0968   11 H    1 1-2
  29 C    1     2.4179     4.5691   27 C    0 0 0
  29 C    1     2.4247     4.5819   25 C    0 0 0

  30 C    1     1.4025     2.6504   29 C    0 0 1
  30 C    1     1.4026     2.6505   27 C    0 0 1
  30 C    1     1.5516     2.9322    6 B    0 0 0
  30 C    1     2.1491     4.0612   14 H    1 1-1
  30 C    1     2.1493     4.0617   12 H    0 1-1
  30 C    1     2.4251     4.5828   26 C    1 1-1

  31 C    1     1.4021     2.6496   32 C    0 0 0
  31 C    1     1.4021     2.6497   34 C    0 0 0
  31 C    1     1.5502     2.9294    3 B    0 0 0
  31 C    1     2.1475     4.0582   15 H    1 1-1
  31 C    1     2.1479     4.0589   17 H    0 0 0
  31 C    1     2.4244     4.5814   33 C    0 0 0

  32 C    1     1.0914     2.0624   15 H    1 1-1
  32 C    1     1.3914     2.6293   35 C    0 0 0
  32 C    1     1.4021     2.6496   31 C    0 0 0
  32 C    1     2.1668     4.0947   18 H    0 0 0
  32 C    1     2.4179     4.5692   34 C    0 0 0
  32 C    1     2.4251     4.5827   36 C    0 0 0

  33 C    1     1.0913     2.0623   16 H    0 0 0
  33 C    1     1.3914     2.6294   34 C    0 0 0
  33 C    1     1.4025     2.6504   36 C    0 0 0
  33 C    1     2.1679     4.0968   17 H    0 0 0
  33 C    1     2.4178     4.5690   35 C    0 0 0
  33 C    1     2.4244     4.5814   31 C    0 0 0

  34 C    1     1.0915     2.0626   17 H    0 0 0
  34 C    1     1.3914     2.6294   33 C    0 0 0
  34 C    1     1.4021     2.6497   31 C    0 0 0
  34 C    1     2.1667     4.0945   16 H    0 0 0
  34 C    1     2.4179     4.5692   32 C    0 0 0
  34 C    1     2.4253     4.5832   36 C    0 0 0

  35 C    1     1.0914     2.0624   18 H    0 0 0
  35 C    1     1.3914     2.6293   32 C    0 0 0
  35 C    1     1.4025     2.6503   36 C    0 0 0
  35 C    1     2.1678     4.0966   15 H    1 1-1
  35 C    1     2.4178     4.5690   33 C    0 0 0
  35 C    1     2.4245     4.5817   31 C    0 0 0

  36 C    1     1.4025     2.6503   35 C    0 0 0
  36 C    1     1.4025     2.6504   33 C    0 0 0
  36 C    1     1.5516     2.9322    5 B    0 0 0
  36 C    1     2.1486     4.0602   18 H    0 0 0
  36 C    1     2.1487     4.0605   16 H    0 0 0
  36 C    1     2.4251     4.5827   32 C    0 0 0

  37 O    1     1.3791     2.6061    1 B    0-1 1
  37 O    1     1.3791     2.6061    3 B    0 0 0
  37 O    1     2.3880     4.5126   38 O    1 0 0
  37 O    1     2.3882     4.5130   39 O    1 1-2
  37 O    1     2.5383     4.7966   31 C    0 0 0
  37 O    1     2.5384     4.7968   25 C    0-1 1

  38 O    1     1.3793     2.6065    1 B   -1-1 1
  38 O    1     1.3793     2.6065    2 B    0 0 0
  38 O    1     2.3880     4.5126   37 O   -1 0 0
  38 O    1     2.3882     4.5131   39 O    0 1-2
  38 O    1     2.5391     4.7981   19 C    0 0 0
  38 O    1     2.5395     4.7990   25 C   -1-1 1

  39 O    1     1.3793     2.6064    3 B   -1-1 2
  39 O    1     1.3793     2.6065    2 B    0-1 2
  39 O    1     2.3882     4.5130   37 O   -1-1 2
  39 O    1     2.3882     4.5131   38 O    0-1 2
  39 O    1     2.5390     4.7980   19 C    0-1 2
  39 O    1     2.5391     4.7982   31 C   -1-1 2

  40 O    1     1.3795     2.6068    6 B    0 0 0
  40 O    1     1.3795     2.6068    4 B    0 0 0
  40 O    1     2.3880     4.5126   42 O    0 0 0
  40 O    1     2.3884     4.5134   41 O    0 0 0
  40 O    1     2.5400     4.7998   24 C    0 0 0
  40 O    1     2.5403     4.8005   30 C    0 0 0

  41 O    1     1.3795     2.6069    5 B    0 0 0
  41 O    1     1.3795     2.6070    4 B    0 0 0
  41 O    1     2.3881     4.5128   42 O    0 0 0
  41 O    1     2.3884     4.5134   40 O    0 0 0
  41 O    1     2.5404     4.8006   24 C    0 0 0
  41 O    1     2.5405     4.8008   36 C    0 0 0

  42 O    1     1.3796     2.6071    6 B    0 0 0
  42 O    1     1.3797     2.6072    5 B    0 0 0
  42 O    1     2.3880     4.5126   40 O    0 0 0
  42 O    1     2.3881     4.5128   41 O    0 0 0
  42 O    1     2.5409     4.8016   36 C    0 0 0
  42 O    1     2.5410     4.8019   30 C    0 0 0


 SYMMETRY ALLOWED INTERNAL DEGREE(S) OF FREEDOM: 123
 TTTTTTTTTTTTTTTTTTTTTTTTTTTTTT SYMM        TELAPSE        0.36 TCPU        0.36
 TTTTTTTTTTTTTTTTTTTTTTTTTTTTTT INT_SCREEN  TELAPSE        0.39 TCPU        0.39

 DFT PARAMETERS

     ATOM       ELECTRONS   NET CHARGE   R(ANGSTROM)
   1   5  B       5.0000      0.0000     0.89000000
   7   1  H       1.0000      0.0000     1.11000000
  19   6  C       6.0000      0.0000     0.77000000
  37   8  O       8.0000      0.0000     0.74000000

 SIZE OF GRID=    1340104
 TTTTTTTTTTTTTTTTTTTTTTTTTTTTTT MAKE_GRID2  TELAPSE        7.49 TCPU        7.48
 BECKE WEIGHT FUNCTION
 RADSAFE =     2.00
 TOLERANCES - DENSITY:10**- 6; POTENTIAL:10**- 9; GRID WGT:10**-14

 RADIAL INTEGRATION  - INTERVALS (POINTS,UPPER LIMIT):            1( 75,  4.0*R)

 ANGULAR INTEGRATION - INTERVALS (ACCURACY LEVEL [N. POINTS] UPPER LIMIT):
  1(  4[  86]   0.2)  2(  8[ 194]   0.5)  3( 12[ 350]   0.9)  4( 16[ 974]   3.5)
  5( 12[ 350]9999.0)
 TTTTTTTTTTTTTTTTTTTTTTTTTTTTTT INT_CALC    TELAPSE        7.55 TCPU        7.54
 EEEEEEEEEE INT_CALC TERMINATION  DATE 19 02 2026 TIME 19:18:53.9

 *******************************************************************************
 cof-1_z44_L060_incl                                                             
 CRYSTAL - SCF - TYPE OF CALCULATION :  RESTRICTED CLOSED SHELL
 *******************************************************************************

 CAPPA:IS1  2;IS2  2;IS3  8; K PTS MONK NET  20; SYMMOPS:K SPACE   2;G SPACE   1

 TTTTTTTTTTTTTTTTTTTTTTTTTTTTTT SDIK        TELAPSE        8.14 TCPU       14.91

 AAAAAAAAAAAAAAAAAAAAAAAAAAAAAAAAAAAAAAAAAAAAAAAAAAAAAAAAAAAAAAAAAAAAAAAAAAAAAAA
         ATOMIC WAVEFUNCTION(S)


 NUCLEAR CHARGE  5.0  SYMMETRY SPECIES            S    P
 N. ELECTRONS    5.0  NUMBER OF PRIMITIVE GTOS    8    4
                      NUMBER OF CONTRACTED GTOS   4    2
                      NUMBER OF CLOSED SHELLS     2    0
                      OPEN SHELL OCCUPATION       0    1

  ZNUC  SCFIT    TOTAL HF ENERGY   KINETIC ENERGY   VIRIAL THEOREM ACCURACY
   5.0    11    -2.451164084E+01  2.462155050E+01 -1.995536038E+00  1.5E-06

 NUCLEAR CHARGE  1.0  SYMMETRY SPECIES            S
 N. ELECTRONS    1.0  NUMBER OF PRIMITIVE GTOS    4
                      NUMBER OF CONTRACTED GTOS   2
                      NUMBER OF CLOSED SHELLS     0
                      OPEN SHELL OCCUPATION       1

  ZNUC  SCFIT    TOTAL HF ENERGY   KINETIC ENERGY   VIRIAL THEOREM ACCURACY
   1.0     1    -4.977266687E-01  5.190767460E-01 -1.958869132E+00  0.0E+00

 NUCLEAR CHARGE  6.0  SYMMETRY SPECIES            S    P
 N. ELECTRONS    6.0  NUMBER OF PRIMITIVE GTOS    8    4
                      NUMBER OF CONTRACTED GTOS   4    2
                      NUMBER OF CLOSED SHELLS     2    0
                      OPEN SHELL OCCUPATION       0    2

  ZNUC  SCFIT    TOTAL HF ENERGY   KINETIC ENERGY   VIRIAL THEOREM ACCURACY
   6.0     9    -3.766704647E+01  3.775180683E+01 -1.997754800E+00  1.1E-06

 NUCLEAR CHARGE  8.0  SYMMETRY SPECIES            S    P
 N. ELECTRONS    8.0  NUMBER OF PRIMITIVE GTOS    8    4
                      NUMBER OF CONTRACTED GTOS   4    2
                      NUMBER OF CLOSED SHELLS     2    0
                      OPEN SHELL OCCUPATION       0    4

  ZNUC  SCFIT    TOTAL HF ENERGY   KINETIC ENERGY   VIRIAL THEOREM ACCURACY
   8.0    12    -7.477373220E+01  7.477365593E+01 -2.000001020E+00  3.8E-06

 AAAAAAAAAAAAAAAAAAAAAAAAAAAAAAAAAAAAAAAAAAAAAAAAAAAAAAAAAAAAAAAAAAAAAAAAAAAAAAA

 CHARGE NORMALIZATION FACTOR   1.00000000
 TOTAL ATOMIC CHARGES:
   5.0000000   5.0000000   5.0000000   5.0000000   5.0000000   5.0000000
   1.0000000   1.0000000   1.0000000   1.0000000   1.0000000   1.0000000
   1.0000000   1.0000000   1.0000000   1.0000000   1.0000000   1.0000000
   6.0000000   6.0000000   6.0000000   6.0000000   6.0000000   6.0000000
   6.0000000   6.0000000   6.0000000   6.0000000   6.0000000   6.0000000
   6.0000000   6.0000000   6.0000000   6.0000000   6.0000000   6.0000000
   8.0000000   8.0000000   8.0000000   8.0000000   8.0000000   8.0000000
 TTTTTTTTTTTTTTTTTTTTTTTTTTTTTT MOQGAD      TELAPSE        8.18 TCPU       16.05
 TTTTTTTTTTTTTTTTTTTTTTTTTTTTTT SHELLXN     TELAPSE       12.96 TCPU      166.66
 TTTTTTTTTTTTTTTTTTTTTTTTTTTTTT MONMO3      TELAPSE       13.08 TCPU      170.41
 NUMERICALLY INTEGRATED DENSITY    197.9999468074
 TTTTTTTTTTTTTTTTTTTTTTTTTTTTTT NUMDFT      TELAPSE       13.59 TCPU      186.68
 CYC   0 ETOT(AU) -1.295954053449E+03 DETOT -1.30E+03 tst  0.00E+00 PX  1.00E+00
 TTTTTTTTTTTTTTTTTTTTTTTTTTTTTT DIIS        TELAPSE       13.62 TCPU      187.72
 TTTTTTTTTTTTTTTTTTTTTTTTTTTTTT FDIK        TELAPSE       14.10 TCPU      203.12
 INSULATING STATE
 TOP OF VALENCE BANDS -    BAND     99; K    1; EIG -3.1469413E-01 AU
 BOTTOM OF VIRTUAL BANDS - BAND    100; K   17; EIG -1.5779093E-01 AU
 INDIRECT ENERGY BAND GAP:   4.2696 eV
 BOTTOM OF VIRTUAL BANDS - BAND    100; K    1; EIG -1.5538255E-01 AU
 TTTTTTTTTTTTTTTTTTTTTTTTTTTTTT PDIG        TELAPSE       14.41 TCPU      209.29
 CHARGE NORMALIZATION FACTOR   1.00000000
 TOTAL ATOMIC CHARGES:
   4.1625899   4.1669782   4.1672187   4.1668066   4.1665685   4.1622733
   0.7850807   0.7851968   0.7850116   0.7851314   0.7851757   0.7853446
   0.7851645   0.7853048   0.7850131   0.7851977   0.7850326   0.7851908
   6.0429456   6.2651943   6.2651729   6.2650989   6.2650736   6.0422706
   6.0433577   6.2647424   6.2648409   6.2646556   6.2648476   6.0421459
   6.0433151   6.2648679   6.2654432   6.2648229   6.2654522   6.0418168
   8.6914489   8.6916024   8.6910907   8.6918986   8.6915161   8.6920997
 TTTTTTTTTTTTTTTTTTTTTTTTTTTTTT MOQGAD      TELAPSE       14.45 TCPU      209.33
 TTTTTTTTTTTTTTTTTTTTTTTTTTTTTT SHELLXN     TELAPSE       19.22 TCPU      361.21
 TTTTTTTTTTTTTTTTTTTTTTTTTTTTTT MONMO3      TELAPSE       19.33 TCPU      364.95
 NUMERICALLY INTEGRATED DENSITY    197.9999743408
 TTTTTTTTTTTTTTTTTTTTTTTTTTTTTT NUMDFT      TELAPSE       19.85 TCPU      381.40
 CYC   1 ETOT(AU) -1.288811196783E+03 DETOT  7.14E+00 tst  0.00E+00 PX  1.00E+00
 TTTTTTTTTTTTTTTTTTTTTTTTTTTTTT DIIS        TELAPSE       19.89 TCPU      382.85
 DIIS TEST: 0.11098E+01 AT SCF   CYCLE   1 - MIX   30 %
 TTTTTTTTTTTTTTTTTTTTTTTTTTTTTT FDIK        TELAPSE       20.38 TCPU      398.50
 INSULATING STATE
 TOP OF VALENCE BANDS -    BAND     99; K    1; EIG -2.2742848E-01 AU
 BOTTOM OF VIRTUAL BANDS - BAND    100; K   17; EIG -8.1793315E-02 AU
 INDIRECT ENERGY BAND GAP:   3.9629 eV
 BOTTOM OF VIRTUAL BANDS - BAND    100; K    1; EIG -7.7272012E-02 AU
 TTTTTTTTTTTTTTTTTTTTTTTTTTTTTT PDIG        TELAPSE       20.69 TCPU      404.67
 CHARGE NORMALIZATION FACTOR   1.00000000
 TOTAL ATOMIC CHARGES:
   4.7119635   4.7054145   4.7057013   4.7057424   4.7056542   4.7123257
   0.9091946   0.9092602   0.9121347   0.9121368   0.9061383   0.9061408
   0.9062119   0.9060697   0.9120909   0.9122117   0.9092138   0.9092271
   5.8665144   6.1379296   6.1385877   6.1338469   6.1340480   5.8687599
   5.8788348   6.1311453   6.1318025   6.1314781   6.1314847   5.8820905
   5.8663775   6.1337753   6.1341508   6.1383518   6.1380758   5.8687833
   8.3334465   8.3336907   8.3317655   8.3333256   8.3313694   8.3335334
 TTTTTTTTTTTTTTTTTTTTTTTTTTTTTT MOQGAD      TELAPSE       20.73 TCPU      404.71
 TTTTTTTTTTTTTTTTTTTTTTTTTTTTTT SHELLXN     TELAPSE       25.50 TCPU      556.61
 TTTTTTTTTTTTTTTTTTTTTTTTTTTTTT MONMO3      TELAPSE       25.62 TCPU      560.35
 NUMERICALLY INTEGRATED DENSITY    197.9999656303
 TTTTTTTTTTTTTTTTTTTTTTTTTTTTTT NUMDFT      TELAPSE       26.14 TCPU      576.87
 CYC   2 ETOT(AU) -1.289006666252E+03 DETOT -1.95E-01 tst  3.87E-03 PX  1.58E-01
 TTTTTTTTTTTTTTTTTTTTTTTTTTTTTT DIIS        TELAPSE       26.18 TCPU      578.29
 DIIS TEST: 0.45711E+00 AT SCF   CYCLE   2 - DIIS ACTIVE - HISTORY:     2 CYCLES
 TTTTTTTTTTTTTTTTTTTTTTTTTTTTTT FDIK        TELAPSE       26.67 TCPU      593.91
 INSULATING STATE
 TOP OF VALENCE BANDS -    BAND     99; K    1; EIG -2.4017037E-01 AU
 BOTTOM OF VIRTUAL BANDS - BAND    100; K   17; EIG -7.6956898E-02 AU
 INDIRECT ENERGY BAND GAP:   4.4413 eV
 BOTTOM OF VIRTUAL BANDS - BAND    100; K    1; EIG -7.2904760E-02 AU
 TTTTTTTTTTTTTTTTTTTTTTTTTTTTTT PDIG        TELAPSE       26.98 TCPU      600.07
 CHARGE NORMALIZATION FACTOR   1.00000000
 TOTAL ATOMIC CHARGES:
   4.5038827   4.5022422   4.5024691   4.5023661   4.5021292   4.5038838
   0.8877200   0.8879479   0.8900216   0.8900423   0.8848661   0.8851180
   0.8849854   0.8849861   0.8899426   0.8901361   0.8878012   0.8878284
   5.8918992   6.1600357   6.1598236   6.1590120   6.1587084   5.8914579
   5.8913863   6.1612693   6.1608027   6.1611053   6.1608978   5.8906453
   5.8919944   6.1590018   6.1588101   6.1597914   6.1600248   5.8912691
   8.5098966   8.5101740   8.5114528   8.5101522   8.5115757   8.5104447
 TTTTTTTTTTTTTTTTTTTTTTTTTTTTTT MOQGAD      TELAPSE       27.01 TCPU      600.11
 TTTTTTTTTTTTTTTTTTTTTTTTTTTTTT SHELLXN     TELAPSE       31.78 TCPU      752.02
 TTTTTTTTTTTTTTTTTTTTTTTTTTTTTT MONMO3      TELAPSE       31.90 TCPU      755.76
 NUMERICALLY INTEGRATED DENSITY    197.9999673717
 TTTTTTTTTTTTTTTTTTTTTTTTTTTTTT NUMDFT      TELAPSE       32.41 TCPU      772.21
 CYC   3 ETOT(AU) -1.289101146423E+03 DETOT -9.45E-02 tst  7.21E-04 PX  6.38E-02
 TTTTTTTTTTTTTTTTTTTTTTTTTTTTTT DIIS        TELAPSE       32.47 TCPU      773.97
 DIIS TEST: 0.13516E-01 AT SCF   CYCLE   3 - DIIS ACTIVE - HISTORY:     3 CYCLES
 TTTTTTTTTTTTTTTTTTTTTTTTTTTTTT FDIK        TELAPSE       32.96 TCPU      789.60
 INSULATING STATE
 TOP OF VALENCE BANDS -    BAND     99; K    1; EIG -2.5026294E-01 AU
 BOTTOM OF VIRTUAL BANDS - BAND    100; K   17; EIG -8.5525446E-02 AU
 INDIRECT ENERGY BAND GAP:   4.4827 eV
 BOTTOM OF VIRTUAL BANDS - BAND    100; K    1; EIG -8.0939337E-02 AU
 TTTTTTTTTTTTTTTTTTTTTTTTTTTTTT PDIG        TELAPSE       33.27 TCPU      795.76
 CHARGE NORMALIZATION FACTOR   1.00000000
 TOTAL ATOMIC CHARGES:
   4.5096032   4.5070534   4.5072880   4.5071569   4.5069342   4.5096328
   0.8704879   0.8705823   0.8727538   0.8727663   0.8675639   0.8675979
   0.8676258   0.8675226   0.8727308   0.8728294   0.8705108   0.8705332
   5.9375215   6.1685146   6.1690746   6.1659748   6.1663497   5.9390228
   5.9451668   6.1656126   6.1662905   6.1658323   6.1659968   5.9472095
   5.9376334   6.1657491   6.1666250   6.1686906   6.1688366   5.9388217
   8.4771313   8.4772874   8.4755381   8.4771620   8.4754601   8.4773249
 TTTTTTTTTTTTTTTTTTTTTTTTTTTTTT MOQGAD      TELAPSE       33.31 TCPU      795.80
 TTTTTTTTTTTTTTTTTTTTTTTTTTTTTT SHELLXN     TELAPSE       38.07 TCPU      947.74
 TTTTTTTTTTTTTTTTTTTTTTTTTTTTTT MONMO3      TELAPSE       38.19 TCPU      951.48
 NUMERICALLY INTEGRATED DENSITY    197.9999677195
 TTTTTTTTTTTTTTTTTTTTTTTTTTTTTT NUMDFT      TELAPSE       38.71 TCPU      967.99
 CYC   4 ETOT(AU) -1.289104001306E+03 DETOT -2.85E-03 tst  2.57E-05 PX  1.38E-02
 TTTTTTTTTTTTTTTTTTTTTTTTTTTTTT DIIS        TELAPSE       38.76 TCPU      969.74
 DIIS TEST: 0.40593E-02 AT SCF   CYCLE   4 - DIIS ACTIVE - HISTORY:     4 CYCLES
 TTTTTTTTTTTTTTTTTTTTTTTTTTTTTT FDIK        TELAPSE       39.25 TCPU      985.29
 INSULATING STATE
 TOP OF VALENCE BANDS -    BAND     99; K    1; EIG -2.4826547E-01 AU
 BOTTOM OF VIRTUAL BANDS - BAND    100; K   17; EIG -8.5157863E-02 AU
 INDIRECT ENERGY BAND GAP:   4.4384 eV
 BOTTOM OF VIRTUAL BANDS - BAND    100; K    1; EIG -8.0768119E-02 AU
 TTTTTTTTTTTTTTTTTTTTTTTTTTTTTT PDIG        TELAPSE       39.55 TCPU      991.45
 CHARGE NORMALIZATION FACTOR   1.00000000
 TOTAL ATOMIC CHARGES:
   4.5121637   4.5087401   4.5090033   4.5089445   4.5087186   4.5122656
   0.8736755   0.8738578   0.8760362   0.8761011   0.8707071   0.8709048
   0.8708099   0.8707909   0.8759729   0.8761934   0.8737346   0.8737701
   5.9209740   6.1679592   6.1679523   6.1659432   6.1656092   5.9208921
   5.9258086   6.1664379   6.1661332   6.1663447   6.1661640   5.9258874
   5.9209907   6.1658990   6.1657271   6.1678398   6.1680138   5.9207638
   8.4868017   8.4870709   8.4871284   8.4869577   8.4870739   8.4872371
 TTTTTTTTTTTTTTTTTTTTTTTTTTTTTT MOQGAD      TELAPSE       39.59 TCPU      991.49
 TTTTTTTTTTTTTTTTTTTTTTTTTTTTTT SHELLXN     TELAPSE       44.36 TCPU     1143.42
 TTTTTTTTTTTTTTTTTTTTTTTTTTTTTT MONMO3      TELAPSE       44.48 TCPU     1147.16
 NUMERICALLY INTEGRATED DENSITY    197.9999677714
 TTTTTTTTTTTTTTTTTTTTTTTTTTTTTT NUMDFT      TELAPSE       44.99 TCPU     1163.61
 CYC   5 ETOT(AU) -1.289104930335E+03 DETOT -9.29E-04 tst  7.01E-06 PX  6.48E-03
 TTTTTTTTTTTTTTTTTTTTTTTTTTTTTT DIIS        TELAPSE       45.06 TCPU     1165.73
 DIIS TEST: 0.58452E-04 AT SCF   CYCLE   5 - DIIS ACTIVE - HISTORY:     5 CYCLES
 TTTTTTTTTTTTTTTTTTTTTTTTTTTTTT FDIK        TELAPSE       45.55 TCPU     1181.37
 INSULATING STATE
 TOP OF VALENCE BANDS -    BAND     99; K    1; EIG -2.4806922E-01 AU
 BOTTOM OF VIRTUAL BANDS - BAND    100; K   17; EIG -8.4581402E-02 AU
 INDIRECT ENERGY BAND GAP:   4.4487 eV
 BOTTOM OF VIRTUAL BANDS - BAND    100; K    1; EIG -8.0287451E-02 AU
 TTTTTTTTTTTTTTTTTTTTTTTTTTTTTT PDIG        TELAPSE       45.86 TCPU     1187.53
 CHARGE NORMALIZATION FACTOR   1.00000000
 TOTAL ATOMIC CHARGES:
   4.5116853   4.5088911   4.5091327   4.5089654   4.5087499   4.5116760
   0.8745683   0.8746867   0.8769124   0.8768938   0.8717036   0.8717554
   0.8717689   0.8716801   0.8768735   0.8769604   0.8745972   0.8746279
   5.9202246   6.1672473   6.1676716   6.1650476   6.1655098   5.9215818
   5.9244725   6.1656280   6.1662237   6.1658241   6.1659565   5.9260209
   5.9203795   6.1648694   6.1657593   6.1673571   6.1675048   5.9213272
   8.4866525   8.4868153   8.4860457   8.4867409   8.4861013   8.4869099
 TTTTTTTTTTTTTTTTTTTTTTTTTTTTTT MOQGAD      TELAPSE       45.90 TCPU     1187.57
 TTTTTTTTTTTTTTTTTTTTTTTTTTTTTT SHELLXN     TELAPSE       50.66 TCPU     1339.44
 TTTTTTTTTTTTTTTTTTTTTTTTTTTTTT MONMO3      TELAPSE       50.78 TCPU     1343.18
 NUMERICALLY INTEGRATED DENSITY    197.9999677329
 TTTTTTTTTTTTTTTTTTTTTTTTTTTTTT NUMDFT      TELAPSE       51.30 TCPU     1359.61
 CYC   6 ETOT(AU) -1.289104947479E+03 DETOT -1.71E-05 tst  1.36E-07 PX  7.94E-04
 TTTTTTTTTTTTTTTTTTTTTTTTTTTTTT DIIS        TELAPSE       51.36 TCPU     1361.79
 DIIS TEST: 0.40880E-05 AT SCF   CYCLE   6 - DIIS ACTIVE - HISTORY:     6 CYCLES
 TTTTTTTTTTTTTTTTTTTTTTTTTTTTTT FDIK        TELAPSE       51.85 TCPU     1377.37
 INSULATING STATE
 TOP OF VALENCE BANDS -    BAND     99; K    1; EIG -2.4806332E-01 AU
 BOTTOM OF VIRTUAL BANDS - BAND    100; K   17; EIG -8.4674931E-02 AU
 INDIRECT ENERGY BAND GAP:   4.4460 eV
 BOTTOM OF VIRTUAL BANDS - BAND    100; K    1; EIG -8.0323057E-02 AU
 TTTTTTTTTTTTTTTTTTTTTTTTTTTTTT PDIG        TELAPSE       52.16 TCPU     1383.53
 CHARGE NORMALIZATION FACTOR   1.00000000
 TOTAL ATOMIC CHARGES:
   4.5119892   4.5088295   4.5090868   4.5090470   4.5088181   4.5120925
   0.8745213   0.8747039   0.8768636   0.8769444   0.8715628   0.8717713
   0.8716719   0.8716514   0.8768017   0.8770347   0.8745838   0.8746120
   5.9210850   6.1672994   6.1672932   6.1653708   6.1648913   5.9208428
   5.9258538   6.1658069   6.1654360   6.1656786   6.1654982   5.9258840
   5.9210774   6.1653173   6.1650171   6.1671619   6.1673741   5.9207450
   8.4864274   8.4867075   8.4866341   8.4865941   8.4865327   8.4868855
 TTTTTTTTTTTTTTTTTTTTTTTTTTTTTT MOQGAD      TELAPSE       52.20 TCPU     1383.57
 TTTTTTTTTTTTTTTTTTTTTTTTTTTTTT SHELLXN     TELAPSE       56.96 TCPU     1535.47
 TTTTTTTTTTTTTTTTTTTTTTTTTTTTTT MONMO3      TELAPSE       57.08 TCPU     1539.21
 NUMERICALLY INTEGRATED DENSITY    197.9999677327
 TTTTTTTTTTTTTTTTTTTTTTTTTTTTTT NUMDFT      TELAPSE       57.60 TCPU     1555.66
 CYC   7 ETOT(AU) -1.289104947505E+03 DETOT -2.62E-08 tst  2.04E-08 PX  2.77E-04
 TTTTTTTTTTTTTTTTTTTTTTTTTTTTTT DIIS        TELAPSE       57.67 TCPU     1558.15
 DIIS TEST: 0.13409E-05 AT SCF   CYCLE   7 - DIIS ACTIVE - HISTORY:     7 CYCLES
 TTTTTTTTTTTTTTTTTTTTTTTTTTTTTT FDIK        TELAPSE       58.16 TCPU     1573.81
 INSULATING STATE
 TOP OF VALENCE BANDS -    BAND     99; K    1; EIG -2.4807443E-01 AU
 BOTTOM OF VIRTUAL BANDS - BAND    100; K   17; EIG -8.4677130E-02 AU
 INDIRECT ENERGY BAND GAP:   4.4463 eV
 BOTTOM OF VIRTUAL BANDS - BAND    100; K    1; EIG -8.0330335E-02 AU
 TTTTTTTTTTTTTTTTTTTTTTTTTTTTTT PDIG        TELAPSE       58.47 TCPU     1579.97
 CHARGE NORMALIZATION FACTOR   1.00000000
 TOTAL ATOMIC CHARGES:
   4.5119987   4.5089102   4.5091613   4.5090473   4.5088260   4.5120473
   0.8745090   0.8746615   0.8768657   0.8768831   0.8715798   0.8717049
   0.8716639   0.8716103   0.8768137   0.8769635   0.8745535   0.8745876
   5.9205888   6.1672581   6.1674594   6.1651163   6.1652095   5.9212547
   5.9252651   6.1656453   6.1657914   6.1657016   6.1656684   5.9260764
   5.9206817   6.1650095   6.1653883   6.1672556   6.1674046   5.9210574
   8.4865600   8.4867748   8.4864304   8.4866770   8.4864384   8.4868999
 TTTTTTTTTTTTTTTTTTTTTTTTTTTTTT MOQGAD      TELAPSE       58.51 TCPU     1580.01
 TTTTTTTTTTTTTTTTTTTTTTTTTTTTTT SHELLXN     TELAPSE       63.28 TCPU     1731.90
 +++ ENERGIES IN A.U. +++
 ::: EXT EL-POLE                                  -1.2037940952939E+03
 ::: EXT EL-SPHEROPOLE                             1.2987524617293E+01
 ::: BIELET ZONE E-E                               1.9454321651738E+03
 ::: TOTAL E-E                                     7.5462559449720E+02
 ::: TOTAL E-N + N-E                              -3.3414633533832E+03
 ::: TOTAL N-N                                     1.5150351045304E+02
 ::: KINETIC ENERGY                                1.2799500583094E+03
 ::: PSEUDO TOTAL   ENERGY                        -1.1553841901235E+03
 ::: VIRIAL COEFFICIENT                            1.0511493928466E+00
 TTTTTTTTTTTTTTTTTTTTTTTTTTTTTT MONMO3      TELAPSE       63.39 TCPU     1735.64
 NUMERICALLY INTEGRATED DENSITY    197.9999677320
 EXCHANGE ENERGY: -0.126031171785E+03  CORRELATION ENERGY: -0.768958592076E+01
 TTTTTTTTTTTTTTTTTTTTTTTTTTTTTT NUMDFT      TELAPSE       63.91 TCPU     1752.06
 CYC   8 ETOT(AU) -1.289104947829E+03 DETOT -3.24E-07 tst  6.59E-09 PX  2.77E-04

 == SCF ENDED - CONVERGENCE ON ENERGY      E(AU) -1.2891049478293E+03 CYCLES   8


 ENERGY EXPRESSION=HARTREE+FOCK EXCH*0.00000+(HSESOL     EXCH)*1.00000+PBESOL     CORR


 TOTAL ENERGY(DFT)(AU)(  8) -1.2891049478293E+03 DE-3.2E-07 tester 6.6E-09
 TTTTTTTTTTTTTTTTTTTTTTTTTTTTTT EDFT        TELAPSE       63.91 TCPU     1752.07
 
 INFORMATION **** DFTD3 ENERGY **** CALCULATE DFTD3 ENERGY

           DFT-D V3(BJ)
 DF                                         hsesol3c  
 parameters
 s6       :    1.0000
 s8       :    0.0000
 a1       :    0.5196
 a2       :    4.9385
 k1 k3    :   16.0000   -4.0000
 Cutoff   :   50.2022
 CN-Cutoff:   21.1671
 ABC-Cutoff:   21.1671
 
 Edisp /kcal,au:   -21.5902 -0.03440624

 E6    /kcal :   -22.5930
 E8    /kcal :     0.0000
 E6(ABC) "   :   1.002775
 
 INFORMATION **** DFTD3 ENERGY **** NORMAL TERMINATION OF DFTD3 MODULE

 GCP ENERGY CALCULATION
  level        hsesol3c            basis:hsesol3c
  Nbf            474
  Atoms           42

  Parameters: 
  sigma     1.0000
  eta       1.4281
  alpha     0.2936
  beta      1.9467

  dmp_scal      4.0000
  dmp_exp       6.0000
 cutoffs: 
   distance [bohr] 60.0
   noise    [a.u.] 2.2E-16
 SR-damping   T
 ** gCP correction **
  Egcp:        0.0829196818 / (a.u.) ||      52.0329 / (kcal/mol)
 INFORMATION **** GCP **** NORMAL TERMINATION OF GCP MODULE

 *******************************************************************************

 DFT-D3-GCP DISPERSION AND COUNTERPOISE CORRECTION

 D3 DISPERSION ENERGY (AU)      -3.4406237244484E-02
 GCP ENERGY (AU)                 8.2919681808595E-02
 TOTAL ENERGY + DISP + GCP (AU) -1.2890564343847E+03

 *******************************************************************************

 EIGENVECTORS IN FORTRAN UNIT  8
 TTTTTTTTTTTTTTTTTTTTTTTTTTTTTT END         TELAPSE       65.09 TCPU     1759.23
 EEEEEEEEEE TERMINATION  DATE 19 02 2026 TIME 19:19:51.4
