 Default number of threads is:           32

         
 *******************************************************************************
 *                                                                             *
 *                               CRYSTAL23                                     *
 *                      public : 1.0.1 - October 2022                          *
 *                       HTTP://WWW.CRYSTAL.UNITO.IT                           *
 *                                                                             *
 *                              MAIN AUTHORS                                   *
 *                                                                             *
 *  R. DOVESI(1,11), V.R. SAUNDERS(2), C. ROETTI(1,11), R. ORLANDO(1,11),      *
 *  C.M. ZICOVICH-WILSON(1,3), F. PASCALE(4), B. CIVALLERI(1,11),              *
 *  K. DOLL(5), N.M. HARRISON(6), I.J. BUSH(7), Ph. D'ARCO(8),                 *
 *  M. LLUNELL(9), M. CAUSA'(10), Y. NOEL(8), L. MASCHIO(1,11), A. ERBA(1,11)  *
 *  M. RE'RAT(14), S. CASASSA(1,11), B.G. SEARLE(2), J.K. DESMARAIS(1)         *
 *                                                                             *
 *        CONTRIBUTIONS TO THE CODE HAVE ALSO BEEN GIVEN BY                    *
 *                                                                             *
 *  M. FERRABONE(1,11), M. DE LA PIERRE(1,11), M. FERRERO(1,11),               *
 *  J. BAIMA(1,11), E. ALBANESE(1,11), M.F. PEINTINGER(12), R. BAST(13),       *
 *  B. KIRTMAN(15), V. LACIVITA(1,11), R. DEMICHELIS(1,16)                     *
 *  G. BRANDEBURG(17), S. SALUSTRO(1,11), G. SANSONE(1,11)                     *
 *  M.T. RUGGIERO(18), L.E. DAGA(1), L. DONA'(1), A. COSSARD(1)                *
 *                                                                             *
 * (1) THEORETICAL CHEMISTRY GROUP - UNIVERSITA' DI TORINO - TORINO (ITALY)    *
 * (2) SCIENTIFIC COMPUTING DEPARTMENT - STFC DARESBURY (UK)                   *
 * (3) UNIVERSIDAD AUTONOMA DEL ESTADO DE MORELOS - CUERNAVACA (MEXICO)        *
 * (4) UNIVERSITE' DE LORRAINE - NANCY (FRANCE)                                *
 * (5) UNIVERSITAET STUTTGART- STUTTGART (GERMANY)                             *
 * (6) IMPERIAL COLLEGE - LONDON (UK)                                          *
 * (7) SCIENTIFIC COMPUTING DEPARTMENT - STFC RAL (UK)                         *
 * (8) UPMC - SORBONNE UNIVERSITES - PARIS (FRANCE)                            *
 * (9) UNIVERSIDAD DE BARCELONA - BARCELONA (SPAIN)                            *
 *(10) UNIVERSITA' DI NAPOLI "FEDERICO II" - NAPOLI (ITALY)                    *
 *(11) NIS - NANOSTRUCTURED INTERFACES AND SURFACES - TORINO (ITALY)           *
 *(12) MPI FUER CHEMISCHE ENERGIEKONVERSION - MUELHEIM AN DER RUHR (GERMANY)   *
 *(13) UNIVERSITY OF TROMSO - TROMSO (NORWAY)                                  *
 *(14) UNIVERSITE' DE PAU ET DES PAYS DE L'ADOUR - PAU (FRANCE)                *
 *(15) UNIVERSITY OF CALIFORNIA SANTA BARBARA - SANTA BARBARA (USA)            *
 *(16) CURTIN UNIVERSITY - PERTH (AUSTRALIA)                                   *
 *(17) UNIVERSITY COLLEGE LONDON - LONDON (UK)                                 *
 *(18) UNIVERSITY OF VERMONT - BURLINGTON (USA)                                *
 *                                                                             *
 *******************************************************************************
 EEEEEEEEEE STARTING  DATE 19 02 2026 TIME 18:43:06.4
 cof-1_z36_L060_incl                                                             

 CRYSTAL CALCULATION
 (INPUT ACCORDING TO THE INTERNATIONAL TABLES FOR X-RAY CRYSTALLOGRAPHY)
 CRYSTAL FAMILY                       :  TRICLINIC   
 CRYSTAL CLASS  (GROTH - 1921)        :  TRICLINIC PEDIAL                     

 SPACE GROUP (NONCENTROSYMMETRIC)     :  P 1             

 LATTICE PARAMETERS  (ANGSTROMS AND DEGREES) - CONVENTIONAL CELL
        A           B           C        ALPHA        BETA       GAMMA
    15.02361    15.02392     6.99714    42.04338    89.99997   119.99596


 NUMBER OF IRREDUCIBLE ATOMS IN THE CONVENTIONAL CELL:   42

 INPUT COORDINATES

 ATOM AT. N.              COORDINATES
   1   5     4.981059500000E-01 -3.854450000000E-03  5.013219100000E-01
   2   5     6.571616100000E-01  1.552052000000E-01  5.013219300000E-01
   3   5     4.987448300000E-01  1.564744200000E-01  4.985321800000E-01
   4   5     1.116806600000E-01  3.824605500000E-01  5.013219200000E-01
   5   5     2.707886300000E-01  3.824397800000E-01  5.013219100000E-01
   6   5     2.714120600000E-01  5.428654000000E-01  4.985321800000E-01
   7   1     7.888024000000E-01  8.042439000000E-02  4.955382200000E-01
   8   1    -1.740279000000E-02  4.629556200000E-01  4.946537900000E-01
   9   1     7.889654800000E-01  3.660373700000E-01  4.945176700000E-01
  10   1    -1.727759000000E-02  1.776342300000E-01  4.945516200000E-01
  11   1     5.747362200000E-01 -1.356118800000E-01  5.044519300000E-01
  12   1     1.924296300000E-01  6.704134400000E-01  5.053364200000E-01
  13   1     2.893385000000E-01 -1.360366900000E-01  5.054726200000E-01
  14   1     4.777886000000E-01  6.702764100000E-01  5.054384400000E-01
  15   1     5.768315100000E-01  3.655485300000E-01  4.955382700000E-01
  16   1     1.949245200000E-01  1.775115300000E-01  4.946537400000E-01
  17   1     2.918346600000E-01  8.078825000000E-02  4.945175600000E-01
  18   1     4.802770900000E-01  4.629071700000E-01  4.945517300000E-01
  19   6     7.769824000000E-01  2.161045100000E-01  4.984301000000E-01
  20   6     8.322165200000E-01  1.642172100000E-01  4.956743200000E-01
  21   6    -6.082959000000E-02  3.787266600000E-01  4.954362600000E-01
  22   6     8.320696900000E-01  3.249041000000E-01  4.961507100000E-01
  23   6    -6.053252000000E-02  2.183090800000E-01  4.943134700000E-01
  24   6    -6.354360000000E-03  3.252318700000E-01  4.961846900000E-01
  25   6     4.384099300000E-01 -1.231140400000E-01  5.015600800000E-01
  26   6     4.909130500000E-01 -1.789973000000E-01  5.043158100000E-01
  27   6     2.764789700000E-01  7.140001100000E-01  5.045539600000E-01
  28   6     3.301325800000E-01 -1.787307500000E-01  5.038395400000E-01
  29   6     4.371383300000E-01  7.134428100000E-01  5.056766400000E-01
  30   6     3.297807600000E-01  6.596741500000E-01  5.038054800000E-01
  31   6     4.391369600000E-01  2.160353700000E-01  4.984301000000E-01
  32   6     4.929376100000E-01  3.250573400000E-01  4.956743800000E-01
  33   6     2.786056700000E-01  2.177134200000E-01  4.954362000000E-01
  34   6     3.319048600000E-01  1.639019400000E-01  4.961506300000E-01
  35   6     4.397840800000E-01  3.791570700000E-01  4.943135400000E-01
  36   6     3.315697300000E-01  3.251544700000E-01  4.961846900000E-01
  37   8     4.456326900000E-01  5.013925000000E-02  4.992806300000E-01
  38   8     6.032208200000E-01  4.743290000000E-02  5.051663300000E-01
  39   8     6.052656300000E-01  2.104726200000E-01  4.962867800000E-01
  40   8     1.652205100000E-01  4.894197100000E-01  4.992806600000E-01
  41   8     1.638831000000E-01  3.277501900000E-01  5.051663200000E-01
  42   8     3.248500600000E-01  4.907845900000E-01  4.962867600000E-01

 *******************************************************************************

 << INFORMATION >>: FROM NOW ON, ALL COORDINATES REFER TO THE PRIMITIVE CELL

 *******************************************************************************

 LATTICE PARAMETERS  (ANGSTROMS AND DEGREES) - PRIMITIVE CELL
       A          B          C        ALPHA      BETA     GAMMA        VOLUME
   15.02361   15.02392    6.99714    42.04338  89.99997 119.99596    703.740497

 COORDINATES OF THE EQUIVALENT ATOMS (FRACTIONAL UNITS)

 N. ATOM EQUIV AT. N.          X                  Y                  Z

   1   1   1    5 B     4.98105950000E-01 -3.85445000000E-03 -4.98678090000E-01

   2   2   1    5 B    -3.42838390000E-01  1.55205200000E-01 -4.98678070000E-01

   3   3   1    5 B     4.98744830000E-01  1.56474420000E-01  4.98532180000E-01

   4   4   1    5 B     1.11680660000E-01  3.82460550000E-01 -4.98678080000E-01

   5   5   1    5 B     2.70788630000E-01  3.82439780000E-01 -4.98678090000E-01

   6   6   1    5 B     2.71412060000E-01 -4.57134600000E-01  4.98532180000E-01

   7   7   1    1 H    -2.11197600000E-01  8.04243900000E-02  4.95538220000E-01

   8   8   1    1 H    -1.74027900000E-02  4.62955620000E-01  4.94653790000E-01

   9   9   1    1 H    -2.11034520000E-01  3.66037370000E-01  4.94517670000E-01

  10  10   1    1 H    -1.72775900000E-02  1.77634230000E-01  4.94551620000E-01

  11  11   1    1 H    -4.25263780000E-01 -1.35611880000E-01 -4.95548070000E-01

  12  12   1    1 H     1.92429630000E-01 -3.29586560000E-01 -4.94663580000E-01

  13  13   1    1 H     2.89338500000E-01 -1.36036690000E-01 -4.94527380000E-01

  14  14   1    1 H     4.77788600000E-01 -3.29723590000E-01 -4.94561560000E-01

  15  15   1    1 H    -4.23168490000E-01  3.65548530000E-01  4.95538270000E-01

  16  16   1    1 H     1.94924520000E-01  1.77511530000E-01  4.94653740000E-01

  17  17   1    1 H     2.91834660000E-01  8.07882500000E-02  4.94517560000E-01

  18  18   1    1 H     4.80277090000E-01  4.62907170000E-01  4.94551730000E-01

  19  19   1    6 C    -2.23017600000E-01  2.16104510000E-01  4.98430100000E-01

  20  20   1    6 C    -1.67783480000E-01  1.64217210000E-01  4.95674320000E-01

  21  21   1    6 C    -6.08295900000E-02  3.78726660000E-01  4.95436260000E-01

  22  22   1    6 C    -1.67930310000E-01  3.24904100000E-01  4.96150710000E-01

  23  23   1    6 C    -6.05325200000E-02  2.18309080000E-01  4.94313470000E-01

  24  24   1    6 C    -6.35436000000E-03  3.25231870000E-01  4.96184690000E-01

  25  25   1    6 C     4.38409930000E-01 -1.23114040000E-01 -4.98439920000E-01

  26  26   1    6 C     4.90913050000E-01 -1.78997300000E-01 -4.95684190000E-01

  27  27   1    6 C     2.76478970000E-01 -2.85999890000E-01 -4.95446040000E-01

  28  28   1    6 C     3.30132580000E-01 -1.78730750000E-01 -4.96160460000E-01

  29  29   1    6 C     4.37138330000E-01 -2.86557190000E-01 -4.94323360000E-01

  30  30   1    6 C     3.29780760000E-01 -3.40325850000E-01 -4.96194520000E-01

  31  31   1    6 C     4.39136960000E-01  2.16035370000E-01  4.98430100000E-01

  32  32   1    6 C     4.92937610000E-01  3.25057340000E-01  4.95674380000E-01

  33  33   1    6 C     2.78605670000E-01  2.17713420000E-01  4.95436200000E-01

  34  34   1    6 C     3.31904860000E-01  1.63901940000E-01  4.96150630000E-01

  35  35   1    6 C     4.39784080000E-01  3.79157070000E-01  4.94313540000E-01

  36  36   1    6 C     3.31569730000E-01  3.25154470000E-01  4.96184690000E-01

  37  37   1    8 O     4.45632690000E-01  5.01392500000E-02  4.99280630000E-01

  38  38   1    8 O    -3.96779180000E-01  4.74329000000E-02 -4.94833670000E-01

  39  39   1    8 O    -3.94734370000E-01  2.10472620000E-01  4.96286780000E-01

  40  40   1    8 O     1.65220510000E-01  4.89419710000E-01  4.99280660000E-01

  41  41   1    8 O     1.63883100000E-01  3.27750190000E-01 -4.94833680000E-01

  42  42   1    8 O     3.24850060000E-01  4.90784590000E-01  4.96286760000E-01

 NUMBER OF SYMMETRY OPERATORS         :    1
 *******************************************************************************
 * GEOMETRY EDITING - INPUT COORDINATES ARE GIVEN IN ANGSTROM         
 *******************************************************************************

 GCALCO - MAX INDICES DIRECT LATTICE VECTOR     9    13    25
 NO.OF VECTORS CREATED 6999 STARS 3500 RMAX   205.14139 BOHR

 GEOMETRY FOR WAVE FUNCTION - DIMENSIONALITY OF THE SYSTEM    3
 (NON PERIODIC DIRECTION: LATTICE PARAMETER FORMALLY SET TO 500)
 *******************************************************************************
 LATTICE PARAMETERS (ANGSTROMS AND DEGREES) - BOHR = 0.5291772083 ANGSTROM
 PRIMITIVE CELL - CENTRING CODE 1/0 VOLUME=   703.740497 - DENSITY  0.921 g/cm^3
         A              B              C           ALPHA      BETA       GAMMA 
    15.02361100    15.02391600     6.99714200    42.043383  89.999971 119.995964
 *******************************************************************************
 ATOMS IN THE ASYMMETRIC UNIT   42 - ATOMS IN THE UNIT CELL:   42
     ATOM                 X/A                 Y/B                 Z/C    
 *******************************************************************************
      1 T   5 B     4.981059500000E-01 -3.854450000000E-03 -4.986780900000E-01
      2 T   5 B    -3.428383900000E-01  1.552052000000E-01 -4.986780700000E-01
      3 T   5 B     4.987448300000E-01  1.564744200000E-01  4.985321800000E-01
      4 T   5 B     1.116806600000E-01  3.824605500000E-01 -4.986780800000E-01
      5 T   5 B     2.707886300000E-01  3.824397800000E-01 -4.986780900000E-01
      6 T   5 B     2.714120600000E-01 -4.571346000000E-01  4.985321800000E-01
      7 T   1 H    -2.111976000000E-01  8.042439000000E-02  4.955382200000E-01
      8 T   1 H    -1.740279000000E-02  4.629556200000E-01  4.946537900000E-01
      9 T   1 H    -2.110345200000E-01  3.660373700000E-01  4.945176700000E-01
     10 T   1 H    -1.727759000000E-02  1.776342300000E-01  4.945516200000E-01
     11 T   1 H    -4.252637800000E-01 -1.356118800000E-01 -4.955480700000E-01
     12 T   1 H     1.924296300000E-01 -3.295865600000E-01 -4.946635800000E-01
     13 T   1 H     2.893385000000E-01 -1.360366900000E-01 -4.945273800000E-01
     14 T   1 H     4.777886000000E-01 -3.297235900000E-01 -4.945615600000E-01
     15 T   1 H    -4.231684900000E-01  3.655485300000E-01  4.955382700000E-01
     16 T   1 H     1.949245200000E-01  1.775115300000E-01  4.946537400000E-01
     17 T   1 H     2.918346600000E-01  8.078825000000E-02  4.945175600000E-01
     18 T   1 H     4.802770900000E-01  4.629071700000E-01  4.945517300000E-01
     19 T   6 C    -2.230176000000E-01  2.161045100000E-01  4.984301000000E-01
     20 T   6 C    -1.677834800000E-01  1.642172100000E-01  4.956743200000E-01
     21 T   6 C    -6.082959000000E-02  3.787266600000E-01  4.954362600000E-01
     22 T   6 C    -1.679303100000E-01  3.249041000000E-01  4.961507100000E-01
     23 T   6 C    -6.053252000000E-02  2.183090800000E-01  4.943134700000E-01
     24 T   6 C    -6.354360000000E-03  3.252318700000E-01  4.961846900000E-01
     25 T   6 C     4.384099300000E-01 -1.231140400000E-01 -4.984399200000E-01
     26 T   6 C     4.909130500000E-01 -1.789973000000E-01 -4.956841900000E-01
     27 T   6 C     2.764789700000E-01 -2.859998900000E-01 -4.954460400000E-01
     28 T   6 C     3.301325800000E-01 -1.787307500000E-01 -4.961604600000E-01
     29 T   6 C     4.371383300000E-01 -2.865571900000E-01 -4.943233600000E-01
     30 T   6 C     3.297807600000E-01 -3.403258500000E-01 -4.961945200000E-01
     31 T   6 C     4.391369600000E-01  2.160353700000E-01  4.984301000000E-01
     32 T   6 C     4.929376100000E-01  3.250573400000E-01  4.956743800000E-01
     33 T   6 C     2.786056700000E-01  2.177134200000E-01  4.954362000000E-01
     34 T   6 C     3.319048600000E-01  1.639019400000E-01  4.961506300000E-01
     35 T   6 C     4.397840800000E-01  3.791570700000E-01  4.943135400000E-01
     36 T   6 C     3.315697300000E-01  3.251544700000E-01  4.961846900000E-01
     37 T   8 O     4.456326900000E-01  5.013925000000E-02  4.992806300000E-01
     38 T   8 O    -3.967791800000E-01  4.743290000000E-02 -4.948336700000E-01
     39 T   8 O    -3.947343700000E-01  2.104726200000E-01  4.962867800000E-01
     40 T   8 O     1.652205100000E-01  4.894197100000E-01  4.992806600000E-01
     41 T   8 O     1.638831000000E-01  3.277501900000E-01 -4.948336800000E-01
     42 T   8 O     3.248500600000E-01  4.907845900000E-01  4.962867600000E-01

 T = ATOM BELONGING TO THE ASYMMETRIC UNIT

 ****    1 SYMMOPS - TRANSLATORS IN FRACTIONAL UNITS
 **** MATRICES AND TRANSLATORS IN THE CRYSTALLOGRAPHIC REFERENCE FRAME
   V INV                    ROTATION MATRICES                   TRANSLATORS
   1   1  1.00 -0.00  0.00  0.00  1.00  0.00 -0.00 -0.00  1.00  0.00  0.00  0.00

 DIRECT LATTICE VECTORS CARTESIAN COMPONENTS (ANGSTROM)
          X                    Y                    Z
   0.130113578931E+02  -0.751088897922E+01   0.000000000000E+00
   0.000000000000E+00   0.150239160000E+02   0.000000000000E+00
   0.299962624968E+01   0.519634327985E+01   0.360003542321E+01


 CARTESIAN COORDINATES - PRIMITIVE CELL
 *******************************************************************************
 *      ATOM          X(ANGSTROM)         Y(ANGSTROM)         Z(ANGSTROM)
 *******************************************************************************
    1     5 B     1.985560645524E+00  3.437142755013E+00 -5.395294211993E+00
    2     5 B    -5.956640820682E+00  2.315508534816E+00 -1.795258716779E+00
    3     5 B    -2.026973949494E+00 -1.121297902467E+00  5.394768930824E+00
    4     5 B    -4.273082191614E-02  2.315931648314E+00 -1.795258752780E+00
    5     5 B     2.027479889395E+00  1.120577251237E+00 -1.795258788780E+00
    6     5 B     2.027223412909E+00  3.511619382110E+00 -1.805301915601E+00
    7     1 H    -4.261164357004E+00  1.732144255461E-01 -1.816080277657E+00
    8     1 H    -1.742283685721E+00  4.460164387897E+00 -1.819264256986E+00
    9     1 H     1.737148766036E+00 -1.735175986415E-01  5.380316552617E+00
   10     1 H    -1.740961135527E+00  1.720485178411E-01 -1.819632072605E+00
   11     1 H    -4.020091989603E+00  3.777992941201E+00  1.816044817308E+00
   12     1 H    -1.979661323853E+00  8.601325710260E-01 -5.380841833786E+00
   13     1 H     5.280915715188E+00 -1.590383902308E+00  1.819719337464E+00
   14     1 H     1.733552384681E+00 -1.284695568136E+00 -5.380474558172E+00
   15     1 H    -1.019940820359E+00  1.417756195603E+00  5.383990748770E+00
   16     1 H     1.020382785178E+00 -1.423090755442E+00 -1.819264436988E+00
   17     1 H     2.280906811081E+00 -3.604842129934E+00 -1.819754689812E+00
   18     1 H     4.732901207278E+00  7.208878145024E-01 -1.819631676602E+00
   19     6 C    -4.406284048141E+00  2.315467060235E+00 -1.805669407217E+00
   20     6 C    -3.695879454939E+00  1.106739301499E+00 -1.815590312836E+00
   21     6 C    -2.304978205120E+00  3.524955424339E+00 -1.816447337269E+00
   22     6 C    -3.696360920669E+00  3.524463948964E+00 -1.813875291960E+00
   23     6 C    -2.304480871387E+00  1.106789515435E+00 -1.820489421041E+00
   24     6 C    -1.593936481009E+00  2.315985887495E+00 -1.813752962757E+00
   25     6 C     1.209548785497E+00  2.095004484459E+00 -5.394436791556E+00
   26     6 C     1.900951830364E+00  8.753936940965E-01 -5.384516065939E+00
   27     6 C    -8.884123679930E-01  8.796238475466E-01 -5.383658717503E+00
   28     6 C    -1.924490390138E-01  2.084527716689E+00 -5.386230654810E+00
   29     6 C     1.205351684234E+00 -3.296097665987E-01 -5.379617029734E+00
   30     6 C    -1.971288622178E-01 -3.407979982144E-01 -5.386353272017E+00
   31     6 C     4.209245912539E+00 -2.658941080560E+00 -1.805669407217E+00
   32     6 C     4.900999294519E+00 -1.439414537388E+00 -1.815590096834E+00
   33     6 C     2.111535264286E+00 -1.443554833581E+00 -1.816447553271E+00
   34     6 C     2.807173123767E+00 -2.648625864179E+00 -1.813875579963E+00
   35     6 C     4.205317681024E+00 -2.344658673507E-01 -1.820489169039E+00
   36     6 C     2.802914794667E+00 -2.232872869962E-01 -1.813752962757E+00
   37     8 O    -2.715789941234E+00 -2.316059974277E+00  5.397463377336E+00
   38     8 O    -6.646951981252E+00  1.121466659735E+00 -1.781418740598E+00
   39     8 O    -6.477290584204E-01 -1.121767253494E+00  5.386685411285E+00
   40     8 O     6.477723108960E-01  3.510138126587E+00 -1.802607361088E+00
   41     8 O     6.480255709689E-01  1.121857886165E+00 -1.781418776599E+00
   42     8 O     2.715788935225E+00  2.316126809059E+00 -1.813385507141E+00

 *******************************************************************************
 STARTING BASIS SET HANDLING 
 *******************************************************************************

 Loading internal basis set: SOLDEF2MSVP         

 Please cite in your publication:
 L. Dona', J. G. Brandenburg and B. Civalleri, J. Chem. Phys., 151, 121101 (2019
 )                                                                              
                                                                                
                    

 *******************************************************************************
 LOCAL ATOMIC FUNCTIONS BASIS SET
 *******************************************************************************
   ATOM   X(AU)   Y(AU)   Z(AU)  N. TYPE  EXPONENT  S COEF   P COEF   D/F/G COEF
 *******************************************************************************
   1 B    3.752   6.495 -10.196
                                  1 S  
                                         2.410E+03 1.755E-03 0.000E+00 0.000E+00
                                         3.619E+02 1.344E-02 0.000E+00 0.000E+00
                                         8.231E+01 6.637E-02 0.000E+00 0.000E+00
                                         2.311E+01 2.303E-01 0.000E+00 0.000E+00
                                         7.252E+00 5.150E-01 0.000E+00 0.000E+00
                                  2 S  
                                         2.367E+00 1.000E+00 0.000E+00 0.000E+00
                                  3 S  
                                         5.533E-01 1.000E+00 0.000E+00 0.000E+00
                                  4 S  
                                         1.716E-01 1.000E+00 0.000E+00 0.000E+00
                           5-     7 P  
                                         6.002E+00 0.000E+00-3.555E-02 0.000E+00
                                         1.240E+00 0.000E+00-1.983E-01 0.000E+00
                                         3.367E-01 0.000E+00-5.048E-01 0.000E+00
                           8-    10 P  
                                         1.256E-01 0.000E+00 1.000E+00 0.000E+00
                          11-    15 D  
                                         8.880E-01 0.000E+00 0.000E+00 1.000E+00
   2 B  -11.256   4.376  -3.393
   3 B   -3.830  -2.119  10.195
   4 B   -0.081   4.376  -3.393
   5 B    3.831   2.118  -3.393
   6 B    3.831   6.636  -3.412
   7 H   -8.052   0.327  -3.432
                                 91 S  
                                         1.874E+01 1.968E-02 0.000E+00 0.000E+00
                                         2.826E+00 1.380E-01 0.000E+00 0.000E+00
                                         6.401E-01 4.783E-01 0.000E+00 0.000E+00
                                 92 S  
                                         1.756E-01 1.000E+00 0.000E+00 0.000E+00
   8 H   -3.292   8.428  -3.438
   9 H    3.283  -0.328  10.167
  10 H   -3.290   0.325  -3.439
  11 H   -7.597   7.139   3.432
  12 H   -3.741   1.625 -10.168
  13 H    9.979  -3.005   3.439
  14 H    3.276  -2.428 -10.168
  15 H   -1.927   2.679  10.174
  16 H    1.928  -2.689  -3.438
  17 H    4.310  -6.812  -3.439
  18 H    8.944   1.362  -3.439
  19 C   -8.327   4.376  -3.412
                                115 S  
                                         3.624E+03 1.634E-03 0.000E+00 0.000E+00
                                         5.440E+02 1.252E-02 0.000E+00 0.000E+00
                                         1.237E+02 6.211E-02 0.000E+00 0.000E+00
                                         3.476E+01 2.182E-01 0.000E+00 0.000E+00
                                         1.093E+01 4.980E-01 0.000E+00 0.000E+00
                                116 S  
                                         3.574E+00 1.000E+00 0.000E+00 0.000E+00
                                117 S  
                                         7.742E-01 1.000E+00 0.000E+00 0.000E+00
                                118 S  
                                         2.330E-01 1.000E+00 0.000E+00 0.000E+00
                         119-   121 P  
                                         9.443E+00 0.000E+00 3.790E-02 0.000E+00
                                         2.002E+00 0.000E+00 2.082E-01 0.000E+00
                                         5.463E-01 0.000E+00 5.047E-01 0.000E+00
                         122-   124 P  
                                         1.820E-01 0.000E+00 1.000E+00 0.000E+00
                         125-   129 D  
                                         8.880E-01 0.000E+00 0.000E+00 1.000E+00
  20 C   -6.984   2.091  -3.431
  21 C   -4.356   6.661  -3.433
  22 C   -6.985   6.660  -3.428
  23 C   -4.355   2.092  -3.440
  24 C   -3.012   4.377  -3.427
  25 C    2.286   3.959 -10.194
  26 C    3.592   1.654 -10.175
  27 C   -1.679   1.662 -10.174
  28 C   -0.364   3.939 -10.179
  29 C    2.278  -0.623 -10.166
  30 C   -0.373  -0.644 -10.179
  31 C    7.954  -5.025  -3.412
  32 C    9.262  -2.720  -3.431
  33 C    3.990  -2.728  -3.433
  34 C    5.305  -5.005  -3.428
  35 C    7.947  -0.443  -3.440
  36 C    5.297  -0.422  -3.427
  37 O   -5.132  -4.377  10.200
                                385 S  
                                         6.773E+03 1.727E-03 0.000E+00 0.000E+00
                                         1.017E+03 1.325E-02 0.000E+00 0.000E+00
                                         2.313E+02 6.603E-02 0.000E+00 0.000E+00
                                         6.501E+01 2.353E-01 0.000E+00 0.000E+00
                                         2.050E+01 5.498E-01 0.000E+00 0.000E+00
                                386 S  
                                         6.716E+00 1.000E+00 0.000E+00 0.000E+00
                                387 S  
                                         1.147E+00 1.000E+00 0.000E+00 0.000E+00
                                388 S  
                                         3.342E-01 1.000E+00 0.000E+00 0.000E+00
                         389-   391 P  
                                         1.769E+01 0.000E+00 4.359E-02 0.000E+00
                                         3.854E+00 0.000E+00 2.318E-01 0.000E+00
                                         1.047E+00 0.000E+00 5.146E-01 0.000E+00
                         392-   394 P  
                                         2.759E-01 0.000E+00 1.000E+00 0.000E+00
                         395-   399 D  
                                         8.000E-01 0.000E+00 0.000E+00 1.000E+00
  38 O  -12.561   2.119  -3.366
  39 O   -1.224  -2.120  10.179
  40 O    1.224   6.633  -3.406
  41 O    1.225   2.120  -3.366
  42 O    5.132   4.377  -3.427

 *******************************************************************************
 FINISHED BASIS SET HANDLING 
 *******************************************************************************

 INFORMATION **** SET_MPP **** PCRYSTAL CALCULATION
 INFORMATION **** READM2 **** NEW DEFAULT: FOCK/KS MATRIX MIXING SET TO 30 %
 INFORMATION **** READM2 **** NEW DEFAULT: FULL DIRECT SCF MODE
 INFORMATION **** READM2 **** NEW DEFAULT: COULOMB BIPOLAR BUFFER SET TO 32 Mb
 INFORMATION **** READM2 **** NEW DEFAULT: EXCHANGE BIPOLAR BUFFER SET TO 32 Mb

 *******************************************************************************
 NEW DEFAULT: DFT INTEGRATION GRID INCREASED TO XLGRID
 NEW DEFAULT: DIIS ACCELERATOR ACTIVE
 USE KEYWORD NODIIS TO TURN IT OFF
 *******************************************************************************

 WARNING **** RDDFTP **** HSEsol-HJS ACTIVE
 RANGE SEPARATION - OMEGA:   0.110000000000000     
 WARNING **** RDDFTP **** HSEsol-3c has to be combined with sol-def2-mSVP basis set
 *******************************************************************************
 N. OF ATOMS PER CELL        42  COULOMB OVERLAP TOL         (T1) 10**   -6
 NUMBER OF SHELLS           234  COULOMB PENETRATION TOL     (T2) 10**   -6
 NUMBER OF AO               474  EXCHANGE OVERLAP TOL        (T3) 10**   -6
 N. OF ELECTRONS PER CELL   198  EXCHANGE PSEUDO OVP (F(G))  (T4) 10**   -6
 CORE ELECTRONS PER CELL     60  EXCHANGE PSEUDO OVP (P(G))  (T5) 10**  -12
 N. OF SYMMETRY OPERATORS     1  POLE ORDER IN MONO ZONE                  4
 *******************************************************************************
 TYPE OF CALCULATION :  RESTRICTED CLOSED SHELL
 KOHN-SHAM HAMILTONIAN

 (EXCHANGE)[CORRELATION] FUNCTIONAL:(HSEsol GGA)[PBEsol]

 RANGE-SEPARATED HYBRID FUNCTIONAL 
 OMEGA (SHORT-RANGE)[LONG-RANGE]:(    0.1100)[    0.0000]

 HYBRID EXCHANGE - PERCENTAGE OF FOCK EXCHANGE    25.0000

 CAPPA:IS1  2;IS2  2;IS3  8; K PTS MONK NET  20; SYMMOPS:K SPACE   2;G SPACE   1

 *******************************************************************************
 MAX NUMBER OF SCF CYCLES      50  CONVERGENCE ON DELTAP        10**-16
 WEIGHT OF F(I) IN F(I+1)      30% CONVERGENCE ON ENERGY        10**- 6
 SHRINK. FACT.(MONKH.)    2  2  8  NUMBER OF K POINTS IN THE IBZ     20
 SHRINKING FACTOR(GILAT NET)    8  NUMBER OF K POINTS(GILAT NET)   1028
 *******************************************************************************
 *** K POINTS COORDINATES (OBLIQUE COORDINATES IN UNITS OF IS =  2)
   1-R(  0  0  0)   2-R(  1  0  0)   3-R(  0  1  0)   4-R(  1  1  0)
   5-C(  0  0  1)   6-C(  1  0  1)   7-C(  0  1  1)   8-C(  1  1  1)
   9-C(  0  0  2)  10-C(  1  0  2)  11-C(  0  1  2)  12-C(  1  1  2)
  13-C(  0  0  3)  14-C(  1  0  3)  15-C(  0  1  3)  16-C(  1  1  3)
  17-R(  0  0  4)  18-R(  1  0  4)  19-R(  0  1  4)  20-R(  1  1  4)

 DIRECT LATTICE VECTORS COMPON. (A.U.)     RECIP. LATTICE VECTORS COMPON. (A.U.) 
        X            Y            Z              X            Y            Z
   24.5879030  -14.1935232    0.0000000      0.2555397    0.0000000   -0.2129211
    0.0000000   28.3910867    0.0000000      0.1277517    0.2213084   -0.4258851
    5.6684721    9.8196657    6.8030810      0.0000000    0.0000000    0.9235794

 DISK SPACE FOR EIGENVECTORS (FTN 10)     7189632 REALS

 SYMMETRY ADAPTION OF THE BLOCH FUNCTIONS DISABLED
 TTTTTTTTTTTTTTTTTTTTTTTTTTTTTT gordsh1     TELAPSE        0.04 TCPU        0.04

 MATRIX SIZE: P(G)  330208, F(G)   64770, P(G) IRR  166343, F(G) IRR   65286
 MAX G-VECTOR INDEX FOR 1- AND 2-ELECTRON INTEGRALS  63

 TTTTTTTTTTTTTTTTTTTTTTTTTTTTTT INPUT       TELAPSE        0.40 TCPU        0.40

 NEIGHBORS OF THE NON-EQUIVALENT ATOMS

 N = NUMBER OF NEIGHBORS AT DISTANCE R
    ATOM  N     R/ANG      R/AU   NEIGHBORS (ATOM LABELS AND CELL INDICES)
   1 B    1     1.3791     2.6061   37 O    1 2-3
   1 B    1     1.3793     2.6065   38 O    1 1-1
   1 B    1     1.5503     2.9297   25 C    0 0 0
   1 B    1     2.3895     4.5155    3 B    1 2-3
   1 B    1     2.3898     4.5160    2 B    1 1-1
   1 B    1     2.5632     4.8437   26 C    0 0 0

   2 B    1     1.3793     2.6065   39 O    0 1-2
   2 B    1     1.3793     2.6065   38 O    0 0 0
   2 B    1     1.5504     2.9298   19 C    0 0 0
   2 B    1     2.3895     4.5156    3 B    0 1-2
   2 B    1     2.3898     4.5160    1 B   -1-1 1
   2 B    1     2.5634     4.8440   22 C    0 0 0

   3 B    1     1.3791     2.6061   37 O    0 0 0
   3 B    1     1.3793     2.6064   39 O    0 0 0
   3 B    1     1.5502     2.9294   31 C   -1-1 2
   3 B    1     2.3895     4.5155    1 B   -1-2 3
   3 B    1     2.3895     4.5156    2 B    0-1 2
   3 B    1     2.5629     4.8433   32 C   -1-1 2

   4 B    1     1.3795     2.6068   40 O    0 0 0
   4 B    1     1.3795     2.6070   41 O    0 0 0
   4 B    1     1.5513     2.9316   24 C    0 0 0
   4 B    1     2.3905     4.5174    6 B    0 0 0
   4 B    1     2.3905     4.5175    5 B    0 0 0
   4 B    1     2.5648     4.8468   23 C    0 0 0

   5 B    1     1.3795     2.6069   41 O    0 0 0
   5 B    1     1.3797     2.6072   42 O    0 0 0
   5 B    1     1.5516     2.9322   36 C    0 0 0
   5 B    1     2.3905     4.5175    4 B    0 0 0
   5 B    1     2.3911     4.5185    6 B    0 0 0
   5 B    1     2.5651     4.8473   35 C    0 0 0

   6 B    1     1.3795     2.6068   40 O    0 0 0
   6 B    1     1.3796     2.6071   42 O    0 0 0
   6 B    1     1.5516     2.9322   30 C    0 0 1
   6 B    1     2.3905     4.5174    4 B    0 0 0
   6 B    1     2.3911     4.5185    5 B    0 0 0
   6 B    1     2.5651     4.8473   29 C    0 0 1

   7 H    1     1.0913     2.0623   20 C    0 0 0
   7 H    1     2.1472     4.0576   19 C    0 0 0
   7 H    1     2.1680     4.0969   23 C    0 0 0
   7 H    1     2.5202     4.7625   10 H    0 0 0
   7 H    1     2.5676     4.8520   38 O    0 0 0
   7 H    1     2.7321     5.1630    2 B    0 0 0

   8 H    1     1.0914     2.0625   21 C    0 0 0
   8 H    1     2.1493     4.0616   24 C    0 0 0
   8 H    1     2.1666     4.0942   22 C    0 0 0
   8 H    1     2.5198     4.7618    9 H    0 1-2
   8 H    1     2.5720     4.8604   40 O    0 0 0
   8 H    1     2.7362     5.1707    4 B    0 0 0

   9 H    1     1.0914     2.0624   22 C    0-1 2
   9 H    1     2.1471     4.0575   19 C    0-1 2
   9 H    1     2.1680     4.0970   21 C    0-1 2
   9 H    1     2.5198     4.7618    8 H    0-1 2
   9 H    1     2.5665     4.8500   39 O    0 0 0
   9 H    1     2.7315     5.1618    2 B    0-1 2

  10 H    1     1.0915     2.0626   23 C    0 0 0
  10 H    1     2.1490     4.0610   24 C    0 0 0
  10 H    1     2.1669     4.0948   20 C    0 0 0
  10 H    1     2.5202     4.7625    7 H    0 0 0
  10 H    1     2.5712     4.8588   41 O    0 0 0
  10 H    1     2.7351     5.1686    4 B    0 0 0

  11 H    1     1.0913     2.0623   26 C   -1-1 2
  11 H    1     2.1469     4.0571   25 C   -1-1 2
  11 H    1     2.1680     4.0968   29 C   -1-1 2
  11 H    1     2.5198     4.7617   14 H   -1-1 2
  11 H    1     2.5670     4.8510   38 O    0 0 1
  11 H    1     2.7310     5.1609    1 B   -1-1 2

  12 H    1     1.0914     2.0625   27 C    0 0 0
  12 H    1     2.1493     4.0617   30 C    0 0 0
  12 H    1     2.1664     4.0939   28 C    0 0 0
  12 H    1     2.5192     4.7606   13 H    0 1-2
  12 H    1     2.5735     4.8632   40 O    0 0-1
  12 H    1     2.7371     5.1723    6 B    0 0-1

  13 H    1     1.0914     2.0624   28 C    0-1 2
  13 H    1     2.1475     4.0581   25 C    0-1 2
  13 H    1     2.1679     4.0967   27 C    0-1 2
  13 H    1     2.5192     4.7606   12 H    0-1 2
  13 H    1     2.5675     4.8519   37 O    1 1-1
  13 H    1     2.7328     5.1643    1 B    0-1 2

  14 H    1     1.0914     2.0625   29 C    0 0 0
  14 H    1     2.1491     4.0612   30 C    0 0 0
  14 H    1     2.1666     4.0942   26 C    0 0 0
  14 H    1     2.5198     4.7617   11 H    1 1-2
  14 H    1     2.5723     4.8609   42 O    0 0-1
  14 H    1     2.7355     5.1693    6 B    0 0-1

  15 H    1     1.0914     2.0624   32 C   -1-1 2
  15 H    1     2.1475     4.0582   31 C   -1-1 2
  15 H    1     2.1678     4.0966   35 C   -1-1 2
  15 H    1     2.5200     4.7621   18 H   -1-1 2
  15 H    1     2.5667     4.8503   39 O    0 0 0
  15 H    1     2.7315     5.1618    3 B    0 0 0

  16 H    1     1.0913     2.0623   33 C    0 0 0
  16 H    1     2.1487     4.0605   36 C    0 0 0
  16 H    1     2.1667     4.0945   34 C    0 0 0
  16 H    1     2.5197     4.7616   17 H    0 0 0
  16 H    1     2.5723     4.8610   41 O    0 0 0
  16 H    1     2.7359     5.1701    5 B    0 0 0

  17 H    1     1.0915     2.0626   34 C    0 0 0
  17 H    1     2.1479     4.0589   31 C    0 0 0
  17 H    1     2.1679     4.0968   33 C    0 0 0
  17 H    1     2.5197     4.7616   16 H    0 0 0
  17 H    1     2.5677     4.8522   37 O    1 1-2
  17 H    1     2.7331     5.1648    3 B    1 1-2

  18 H    1     1.0914     2.0624   35 C    0 0 0
  18 H    1     2.1486     4.0602   36 C    0 0 0
  18 H    1     2.1668     4.0947   32 C    0 0 0
  18 H    1     2.5200     4.7621   15 H    1 1-2
  18 H    1     2.5717     4.8598   42 O    0 0 0
  18 H    1     2.7349     5.1682    5 B    0 0 0

  19 C    1     1.4020     2.6495   22 C    0 0 0
  19 C    1     1.4021     2.6495   20 C    0 0 0
  19 C    1     1.5504     2.9298    2 B    0 0 0
  19 C    1     2.1471     4.0575    9 H    0 1-2
  19 C    1     2.1472     4.0576    7 H    0 0 0
  19 C    1     2.4246     4.5817   21 C    0 0 0

  20 C    1     1.0913     2.0623    7 H    0 0 0
  20 C    1     1.3914     2.6294   23 C    0 0 0
  20 C    1     1.4021     2.6495   19 C    0 0 0
  20 C    1     2.1669     4.0948   10 H    0 0 0
  20 C    1     2.4177     4.5688   22 C    0 0 0
  20 C    1     2.4250     4.5825   24 C    0 0 0

  21 C    1     1.0914     2.0625    8 H    0 0 0
  21 C    1     1.3914     2.6293   22 C    0 0 0
  21 C    1     1.4026     2.6505   24 C    0 0 0
  21 C    1     2.1680     4.0970    9 H    0 1-2
  21 C    1     2.4182     4.5697   23 C    0 0 0
  21 C    1     2.4246     4.5817   19 C    0 0 0

  22 C    1     1.0914     2.0624    9 H    0 1-2
  22 C    1     1.3914     2.6293   21 C    0 0 0
  22 C    1     1.4020     2.6495   19 C    0 0 0
  22 C    1     2.1666     4.0942    8 H    0 0 0
  22 C    1     2.4177     4.5688   20 C    0 0 0
  22 C    1     2.4250     4.5826   24 C    0 0 0

  23 C    1     1.0915     2.0626   10 H    0 0 0
  23 C    1     1.3914     2.6294   20 C    0 0 0
  23 C    1     1.4025     2.6504   24 C    0 0 0
  23 C    1     2.1680     4.0969    7 H    0 0 0
  23 C    1     2.4182     4.5697   21 C    0 0 0
  23 C    1     2.4246     4.5818   19 C    0 0 0

  24 C    1     1.4025     2.6504   23 C    0 0 0
  24 C    1     1.4026     2.6505   21 C    0 0 0
  24 C    1     1.5513     2.9316    4 B    0 0 0
  24 C    1     2.1490     4.0610   10 H    0 0 0
  24 C    1     2.1493     4.0616    8 H    0 0 0
  24 C    1     2.4250     4.5825   20 C    0 0 0

  25 C    1     1.4020     2.6494   26 C    0 0 0
  25 C    1     1.4021     2.6495   28 C    0 0 0
  25 C    1     1.5503     2.9297    1 B    0 0 0
  25 C    1     2.1469     4.0571   11 H    1 1-2
  25 C    1     2.1475     4.0581   13 H    0 1-2
  25 C    1     2.4246     4.5818   27 C    0 0 0

  26 C    1     1.0913     2.0623   11 H    1 1-2
  26 C    1     1.3914     2.6293   29 C    0 0 0
  26 C    1     1.4020     2.6494   25 C    0 0 0
  26 C    1     2.1666     4.0942   14 H    0 0 0
  26 C    1     2.4175     4.5684   28 C    0 0 0
  26 C    1     2.4251     4.5828   30 C    0 0 0

  27 C    1     1.0914     2.0625   12 H    0 0 0
  27 C    1     1.3915     2.6295   28 C    0 0 0
  27 C    1     1.4026     2.6505   30 C    0 0 0
  27 C    1     2.1679     4.0967   13 H    0 1-2
  27 C    1     2.4179     4.5691   29 C    0 0 0
  27 C    1     2.4246     4.5818   25 C    0 0 0

  28 C    1     1.0914     2.0624   13 H    0 1-2
  28 C    1     1.3915     2.6295   27 C    0 0 0
  28 C    1     1.4021     2.6495   25 C    0 0 0
  28 C    1     2.1664     4.0939   12 H    0 0 0
  28 C    1     2.4175     4.5684   26 C    0 0 0
  28 C    1     2.4253     4.5832   30 C    0 0 0

  29 C    1     1.0914     2.0625   14 H    0 0 0
  29 C    1     1.3914     2.6293   26 C    0 0 0
  29 C    1     1.4025     2.6504   30 C    0 0 0
  29 C    1     2.1680     4.0968   11 H    1 1-2
  29 C    1     2.4179     4.5691   27 C    0 0 0
  29 C    1     2.4247     4.5819   25 C    0 0 0

  30 C    1     1.4025     2.6504   29 C    0 0 0
  30 C    1     1.4026     2.6505   27 C    0 0 0
  30 C    1     1.5516     2.9322    6 B    0 0-1
  30 C    1     2.1491     4.0612   14 H    0 0 0
  30 C    1     2.1493     4.0617   12 H    0 0 0
  30 C    1     2.4251     4.5828   26 C    0 0 0

  31 C    1     1.4021     2.6496   32 C    0 0 0
  31 C    1     1.4021     2.6497   34 C    0 0 0
  31 C    1     1.5502     2.9294    3 B    1 1-2
  31 C    1     2.1475     4.0582   15 H    1 1-2
  31 C    1     2.1479     4.0589   17 H    0 0 0
  31 C    1     2.4244     4.5814   33 C    0 0 0

  32 C    1     1.0914     2.0624   15 H    1 1-2
  32 C    1     1.3914     2.6293   35 C    0 0 0
  32 C    1     1.4021     2.6496   31 C    0 0 0
  32 C    1     2.1668     4.0947   18 H    0 0 0
  32 C    1     2.4179     4.5692   34 C    0 0 0
  32 C    1     2.4251     4.5827   36 C    0 0 0

  33 C    1     1.0913     2.0623   16 H    0 0 0
  33 C    1     1.3914     2.6294   34 C    0 0 0
  33 C    1     1.4025     2.6504   36 C    0 0 0
  33 C    1     2.1679     4.0968   17 H    0 0 0
  33 C    1     2.4178     4.5690   35 C    0 0 0
  33 C    1     2.4244     4.5814   31 C    0 0 0

  34 C    1     1.0915     2.0626   17 H    0 0 0
  34 C    1     1.3914     2.6294   33 C    0 0 0
  34 C    1     1.4021     2.6497   31 C    0 0 0
  34 C    1     2.1667     4.0945   16 H    0 0 0
  34 C    1     2.4179     4.5692   32 C    0 0 0
  34 C    1     2.4253     4.5832   36 C    0 0 0

  35 C    1     1.0914     2.0624   18 H    0 0 0
  35 C    1     1.3914     2.6293   32 C    0 0 0
  35 C    1     1.4025     2.6503   36 C    0 0 0
  35 C    1     2.1678     4.0966   15 H    1 1-2
  35 C    1     2.4178     4.5690   33 C    0 0 0
  35 C    1     2.4245     4.5817   31 C    0 0 0

  36 C    1     1.4025     2.6503   35 C    0 0 0
  36 C    1     1.4025     2.6504   33 C    0 0 0
  36 C    1     1.5516     2.9322    5 B    0 0 0
  36 C    1     2.1486     4.0602   18 H    0 0 0
  36 C    1     2.1487     4.0605   16 H    0 0 0
  36 C    1     2.4251     4.5827   32 C    0 0 0

  37 O    1     1.3791     2.6061    1 B   -1-2 3
  37 O    1     1.3791     2.6061    3 B    0 0 0
  37 O    1     2.3880     4.5126   38 O    0-1 2
  37 O    1     2.3882     4.5130   39 O    0 0 0
  37 O    1     2.5383     4.7966   31 C   -1-1 2
  37 O    1     2.5384     4.7968   25 C   -1-2 3

  38 O    1     1.3793     2.6065    1 B   -1-1 1
  38 O    1     1.3793     2.6065    2 B    0 0 0
  38 O    1     2.3880     4.5126   37 O    0 1-2
  38 O    1     2.3882     4.5131   39 O    0 1-2
  38 O    1     2.5391     4.7981   19 C    0 0 0
  38 O    1     2.5395     4.7990   25 C   -1-1 1

  39 O    1     1.3793     2.6064    3 B    0 0 0
  39 O    1     1.3793     2.6065    2 B    0-1 2
  39 O    1     2.3882     4.5130   37 O    0 0 0
  39 O    1     2.3882     4.5131   38 O    0-1 2
  39 O    1     2.5390     4.7980   19 C    0-1 2
  39 O    1     2.5391     4.7982   31 C   -1-1 2

  40 O    1     1.3795     2.6068    6 B    0 0 0
  40 O    1     1.3795     2.6068    4 B    0 0 0
  40 O    1     2.3880     4.5126   42 O    0 0 0
  40 O    1     2.3884     4.5134   41 O    0 0 0
  40 O    1     2.5400     4.7998   24 C    0 0 0
  40 O    1     2.5403     4.8005   30 C    0 0 1

  41 O    1     1.3795     2.6069    5 B    0 0 0
  41 O    1     1.3795     2.6070    4 B    0 0 0
  41 O    1     2.3881     4.5128   42 O    0 0 0
  41 O    1     2.3884     4.5134   40 O    0 0 0
  41 O    1     2.5404     4.8006   24 C    0 0 0
  41 O    1     2.5405     4.8008   36 C    0 0 0

  42 O    1     1.3796     2.6071    6 B    0 0 0
  42 O    1     1.3797     2.6072    5 B    0 0 0
  42 O    1     2.3880     4.5126   40 O    0 0 0
  42 O    1     2.3881     4.5128   41 O    0 0 0
  42 O    1     2.5409     4.8016   36 C    0 0 0
  42 O    1     2.5410     4.8019   30 C    0 0 1


 SYMMETRY ALLOWED INTERNAL DEGREE(S) OF FREEDOM: 123
 TTTTTTTTTTTTTTTTTTTTTTTTTTTTTT SYMM        TELAPSE        0.40 TCPU        0.40
 TTTTTTTTTTTTTTTTTTTTTTTTTTTTTT INT_SCREEN  TELAPSE        0.44 TCPU        0.43

 DFT PARAMETERS

     ATOM       ELECTRONS   NET CHARGE   R(ANGSTROM)
   1   5  B       5.0000      0.0000     0.89000000
   7   1  H       1.0000      0.0000     1.11000000
  19   6  C       6.0000      0.0000     0.77000000
  37   8  O       8.0000      0.0000     0.74000000

 SIZE OF GRID=    1295741
 TTTTTTTTTTTTTTTTTTTTTTTTTTTTTT MAKE_GRID2  TELAPSE        9.40 TCPU        9.39
 BECKE WEIGHT FUNCTION
 RADSAFE =     2.00
 TOLERANCES - DENSITY:10**- 6; POTENTIAL:10**- 9; GRID WGT:10**-14

 RADIAL INTEGRATION  - INTERVALS (POINTS,UPPER LIMIT):            1( 75,  4.0*R)

 ANGULAR INTEGRATION - INTERVALS (ACCURACY LEVEL [N. POINTS] UPPER LIMIT):
  1(  4[  86]   0.2)  2(  8[ 194]   0.5)  3( 12[ 350]   0.9)  4( 16[ 974]   3.5)
  5( 12[ 350]9999.0)
 TTTTTTTTTTTTTTTTTTTTTTTTTTTTTT INT_CALC    TELAPSE        9.48 TCPU        9.47
 EEEEEEEEEE INT_CALC TERMINATION  DATE 19 02 2026 TIME 18:43:15.8

 *******************************************************************************
 cof-1_z36_L060_incl                                                             
 CRYSTAL - SCF - TYPE OF CALCULATION :  RESTRICTED CLOSED SHELL
 *******************************************************************************

 CAPPA:IS1  2;IS2  2;IS3  8; K PTS MONK NET  20; SYMMOPS:K SPACE   2;G SPACE   1

 TTTTTTTTTTTTTTTTTTTTTTTTTTTTTT SDIK        TELAPSE       10.12 TCPU       17.55

 AAAAAAAAAAAAAAAAAAAAAAAAAAAAAAAAAAAAAAAAAAAAAAAAAAAAAAAAAAAAAAAAAAAAAAAAAAAAAAA
         ATOMIC WAVEFUNCTION(S)


 NUCLEAR CHARGE  5.0  SYMMETRY SPECIES            S    P
 N. ELECTRONS    5.0  NUMBER OF PRIMITIVE GTOS    8    4
                      NUMBER OF CONTRACTED GTOS   4    2
                      NUMBER OF CLOSED SHELLS     2    0
                      OPEN SHELL OCCUPATION       0    1

  ZNUC  SCFIT    TOTAL HF ENERGY   KINETIC ENERGY   VIRIAL THEOREM ACCURACY
   5.0    11    -2.451164084E+01  2.462155050E+01 -1.995536038E+00  1.5E-06

 NUCLEAR CHARGE  1.0  SYMMETRY SPECIES            S
 N. ELECTRONS    1.0  NUMBER OF PRIMITIVE GTOS    4
                      NUMBER OF CONTRACTED GTOS   2
                      NUMBER OF CLOSED SHELLS     0
                      OPEN SHELL OCCUPATION       1

  ZNUC  SCFIT    TOTAL HF ENERGY   KINETIC ENERGY   VIRIAL THEOREM ACCURACY
   1.0     1    -4.977266687E-01  5.190767460E-01 -1.958869132E+00  0.0E+00

 NUCLEAR CHARGE  6.0  SYMMETRY SPECIES            S    P
 N. ELECTRONS    6.0  NUMBER OF PRIMITIVE GTOS    8    4
                      NUMBER OF CONTRACTED GTOS   4    2
                      NUMBER OF CLOSED SHELLS     2    0
                      OPEN SHELL OCCUPATION       0    2

  ZNUC  SCFIT    TOTAL HF ENERGY   KINETIC ENERGY   VIRIAL THEOREM ACCURACY
   6.0     9    -3.766704647E+01  3.775180683E+01 -1.997754800E+00  1.1E-06

 NUCLEAR CHARGE  8.0  SYMMETRY SPECIES            S    P
 N. ELECTRONS    8.0  NUMBER OF PRIMITIVE GTOS    8    4
                      NUMBER OF CONTRACTED GTOS   4    2
                      NUMBER OF CLOSED SHELLS     2    0
                      OPEN SHELL OCCUPATION       0    4

  ZNUC  SCFIT    TOTAL HF ENERGY   KINETIC ENERGY   VIRIAL THEOREM ACCURACY
   8.0    12    -7.477373220E+01  7.477365593E+01 -2.000001020E+00  3.8E-06

 AAAAAAAAAAAAAAAAAAAAAAAAAAAAAAAAAAAAAAAAAAAAAAAAAAAAAAAAAAAAAAAAAAAAAAAAAAAAAAA

 CHARGE NORMALIZATION FACTOR   1.00000000
 TOTAL ATOMIC CHARGES:
   5.0000000   5.0000000   5.0000000   5.0000000   5.0000000   5.0000000
   1.0000000   1.0000000   1.0000000   1.0000000   1.0000000   1.0000000
   1.0000000   1.0000000   1.0000000   1.0000000   1.0000000   1.0000000
   6.0000000   6.0000000   6.0000000   6.0000000   6.0000000   6.0000000
   6.0000000   6.0000000   6.0000000   6.0000000   6.0000000   6.0000000
   6.0000000   6.0000000   6.0000000   6.0000000   6.0000000   6.0000000
   8.0000000   8.0000000   8.0000000   8.0000000   8.0000000   8.0000000
 TTTTTTTTTTTTTTTTTTTTTTTTTTTTTT MOQGAD      TELAPSE       10.17 TCPU       18.89
 TTTTTTTTTTTTTTTTTTTTTTTTTTTTTT SHELLXN     TELAPSE       17.51 TCPU      253.39
 TTTTTTTTTTTTTTTTTTTTTTTTTTTTTT MONMO3      TELAPSE       17.66 TCPU      258.03
 NUMERICALLY INTEGRATED DENSITY    197.9999753264
 TTTTTTTTTTTTTTTTTTTTTTTTTTTTTT NUMDFT      TELAPSE       18.28 TCPU      278.03
 CYC   0 ETOT(AU) -1.295963356566E+03 DETOT -1.30E+03 tst  0.00E+00 PX  1.00E+00
 TTTTTTTTTTTTTTTTTTTTTTTTTTTTTT DIIS        TELAPSE       18.32 TCPU      279.21
 TTTTTTTTTTTTTTTTTTTTTTTTTTTTTT FDIK        TELAPSE       18.82 TCPU      295.17
 INSULATING STATE
 TOP OF VALENCE BANDS -    BAND     99; K    1; EIG -3.0974526E-01 AU
 BOTTOM OF VIRTUAL BANDS - BAND    100; K   17; EIG -1.6329736E-01 AU
 INDIRECT ENERGY BAND GAP:   3.9851 eV
 BOTTOM OF VIRTUAL BANDS - BAND    100; K    1; EIG -1.5599256E-01 AU
 TTTTTTTTTTTTTTTTTTTTTTTTTTTTTT PDIG        TELAPSE       19.18 TCPU      301.01
 CHARGE NORMALIZATION FACTOR   1.00000000
 TOTAL ATOMIC CHARGES:
   4.1464567   4.1643127   4.1647088   4.1638615   4.1635484   4.1457176
   0.7853825   0.7855259   0.7848196   0.7849179   0.7857778   0.7860283
   0.7857648   0.7859621   0.7848058   0.7849865   0.7853277   0.7855212
   6.0447342   6.2668148   6.2668776   6.2659507   6.2661004   6.0441950
   6.0460528   6.2626936   6.2628992   6.2626352   6.2628626   6.0448690
   6.0451296   6.2657085   6.2664681   6.2664223   6.2671632   6.0437680
   8.6958443   8.6961488   8.6947869   8.6964430   8.6952881   8.6967184
 TTTTTTTTTTTTTTTTTTTTTTTTTTTTTT MOQGAD      TELAPSE       19.23 TCPU      301.05
 TTTTTTTTTTTTTTTTTTTTTTTTTTTTTT SHELLXN     TELAPSE       26.87 TCPU      544.60
 TTTTTTTTTTTTTTTTTTTTTTTTTTTTTT MONMO3      TELAPSE       27.01 TCPU      549.22
 NUMERICALLY INTEGRATED DENSITY    197.9999986799
 TTTTTTTTTTTTTTTTTTTTTTTTTTTTTT NUMDFT      TELAPSE       27.64 TCPU      569.44
 CYC   1 ETOT(AU) -1.288821295697E+03 DETOT  7.14E+00 tst  0.00E+00 PX  1.00E+00
 TTTTTTTTTTTTTTTTTTTTTTTTTTTTTT DIIS        TELAPSE       27.69 TCPU      571.02
 DIIS TEST: 0.11017E+01 AT SCF   CYCLE   1 - MIX   30 %
 TTTTTTTTTTTTTTTTTTTTTTTTTTTTTT FDIK        TELAPSE       28.19 TCPU      586.89
 INSULATING STATE
 TOP OF VALENCE BANDS -    BAND     99; K    1; EIG -2.2246520E-01 AU
 BOTTOM OF VIRTUAL BANDS - BAND    100; K   17; EIG -8.9818277E-02 AU
 INDIRECT ENERGY BAND GAP:   3.6095 eV
 BOTTOM OF VIRTUAL BANDS - BAND    100; K    1; EIG -7.7750065E-02 AU
 TTTTTTTTTTTTTTTTTTTTTTTTTTTTTT PDIG        TELAPSE       28.52 TCPU      592.73
 CHARGE NORMALIZATION FACTOR   1.00000000
 TOTAL ATOMIC CHARGES:
   4.6992465   4.6990311   4.6995611   4.6989460   4.6987929   4.6995372
   0.9080117   0.9081263   0.9125149   0.9124513   0.8990961   0.8991445
   0.8992245   0.8990191   0.9124244   0.9125398   0.9080780   0.9080764
   5.8671521   6.1456810   6.1464702   6.1338416   6.1339667   5.8695496
   5.8965719   6.1303834   6.1310989   6.1307587   6.1307344   5.8999105
   5.8670242   6.1336672   6.1341779   6.1461627   6.1458222   5.8695900
   8.3379524   8.3382705   8.3309279   8.3380079   8.3303374   8.3381186
 TTTTTTTTTTTTTTTTTTTTTTTTTTTTTT MOQGAD      TELAPSE       28.57 TCPU      592.77
 TTTTTTTTTTTTTTTTTTTTTTTTTTTTTT SHELLXN     TELAPSE       36.21 TCPU      836.31
 TTTTTTTTTTTTTTTTTTTTTTTTTTTTTT MONMO3      TELAPSE       36.35 TCPU      840.93
 NUMERICALLY INTEGRATED DENSITY    197.9999967111
 TTTTTTTTTTTTTTTTTTTTTTTTTTTTTT NUMDFT      TELAPSE       36.98 TCPU      861.13
 CYC   2 ETOT(AU) -1.289014730585E+03 DETOT -1.93E-01 tst  3.58E-03 PX  1.59E-01
 TTTTTTTTTTTTTTTTTTTTTTTTTTTTTT DIIS        TELAPSE       37.04 TCPU      862.79
 DIIS TEST: 0.45582E+00 AT SCF   CYCLE   2 - DIIS ACTIVE - HISTORY:     2 CYCLES
 TTTTTTTTTTTTTTTTTTTTTTTTTTTTTT FDIK        TELAPSE       37.53 TCPU      878.59
 INSULATING STATE
 TOP OF VALENCE BANDS -    BAND     99; K    1; EIG -2.3428636E-01 AU
 BOTTOM OF VIRTUAL BANDS - BAND    100; K   17; EIG -8.4692420E-02 AU
 INDIRECT ENERGY BAND GAP:   4.0707 eV
 BOTTOM OF VIRTUAL BANDS - BAND    100; K    1; EIG -7.3837121E-02 AU
 TTTTTTTTTTTTTTTTTTTTTTTTTTTTTT PDIG        TELAPSE       37.86 TCPU      884.43
 CHARGE NORMALIZATION FACTOR   1.00000000
 TOTAL ATOMIC CHARGES:
   4.4860241   4.4991905   4.4995178   4.4989073   4.4986090   4.4859878
   0.8871448   0.8874391   0.8904042   0.8903140   0.8793460   0.8796570
   0.8795029   0.8794793   0.8902556   0.8904381   0.8872809   0.8872845
   5.8950103   6.1627604   6.1624630   6.1591506   6.1590843   5.8950762
   5.8966440   6.1645049   6.1641261   6.1643012   6.1642336   5.8958315
   5.8950937   6.1591649   6.1591210   6.1624349   6.1626859   5.8950581
   8.5135103   8.5139823   8.5153203   8.5138822   8.5155244   8.5142531
 TTTTTTTTTTTTTTTTTTTTTTTTTTTTTT MOQGAD      TELAPSE       37.91 TCPU      884.48
 TTTTTTTTTTTTTTTTTTTTTTTTTTTTTT SHELLXN     TELAPSE       45.55 TCPU     1128.08
 TTTTTTTTTTTTTTTTTTTTTTTTTTTTTT MONMO3      TELAPSE       45.69 TCPU     1132.70
 NUMERICALLY INTEGRATED DENSITY    197.9999972128
 TTTTTTTTTTTTTTTTTTTTTTTTTTTTTT NUMDFT      TELAPSE       46.33 TCPU     1152.93
 CYC   3 ETOT(AU) -1.289108742428E+03 DETOT -9.40E-02 tst  7.25E-04 PX  6.57E-02
 TTTTTTTTTTTTTTTTTTTTTTTTTTTTTT DIIS        TELAPSE       46.39 TCPU     1154.87
 DIIS TEST: 0.14109E-01 AT SCF   CYCLE   3 - DIIS ACTIVE - HISTORY:     3 CYCLES
 TTTTTTTTTTTTTTTTTTTTTTTTTTTTTT FDIK        TELAPSE       46.89 TCPU     1170.77
 INSULATING STATE
 TOP OF VALENCE BANDS -    BAND     99; K    1; EIG -2.4478378E-01 AU
 BOTTOM OF VIRTUAL BANDS - BAND    100; K   17; EIG -9.3361200E-02 AU
 INDIRECT ENERGY BAND GAP:   4.1204 eV
 BOTTOM OF VIRTUAL BANDS - BAND    100; K    1; EIG -8.1506630E-02 AU
 TTTTTTTTTTTTTTTTTTTTTTTTTTTTTT PDIG        TELAPSE       47.22 TCPU     1176.61
 CHARGE NORMALIZATION FACTOR   1.00000000
 TOTAL ATOMIC CHARGES:
   4.4928006   4.5033093   4.5036733   4.5030388   4.5027525   4.4928338
   0.8697686   0.8699104   0.8733603   0.8733348   0.8621960   0.8622905
   0.8622895   0.8621797   0.8732903   0.8734138   0.8698262   0.8698545
   5.9380180   6.1738667   6.1744446   6.1660297   6.1663122   5.9395595
   5.9573673   6.1660978   6.1668451   6.1663987   6.1664344   5.9592252
   5.9382493   6.1657367   6.1666192   6.1741142   6.1740640   5.9393726
   8.4821711   8.4824047   8.4759700   8.4823552   8.4757735   8.4824475
 TTTTTTTTTTTTTTTTTTTTTTTTTTTTTT MOQGAD      TELAPSE       47.27 TCPU     1176.66
 TTTTTTTTTTTTTTTTTTTTTTTTTTTTTT SHELLXN     TELAPSE       54.91 TCPU     1420.23
 TTTTTTTTTTTTTTTTTTTTTTTTTTTTTT MONMO3      TELAPSE       55.06 TCPU     1424.85
 NUMERICALLY INTEGRATED DENSITY    197.9999971785
 TTTTTTTTTTTTTTTTTTTTTTTTTTTTTT NUMDFT      TELAPSE       55.69 TCPU     1445.11
 CYC   4 ETOT(AU) -1.289111744089E+03 DETOT -3.00E-03 tst  2.81E-05 PX  1.40E-02
 TTTTTTTTTTTTTTTTTTTTTTTTTTTTTT DIIS        TELAPSE       55.76 TCPU     1447.07
 DIIS TEST: 0.40560E-02 AT SCF   CYCLE   4 - DIIS ACTIVE - HISTORY:     4 CYCLES
 TTTTTTTTTTTTTTTTTTTTTTTTTTTTTT FDIK        TELAPSE       56.25 TCPU     1462.96
 INSULATING STATE
 TOP OF VALENCE BANDS -    BAND     99; K    1; EIG -2.4275549E-01 AU
 BOTTOM OF VIRTUAL BANDS - BAND    100; K   17; EIG -9.3016331E-02 AU
 INDIRECT ENERGY BAND GAP:   4.0746 eV
 BOTTOM OF VIRTUAL BANDS - BAND    100; K    1; EIG -8.1441473E-02 AU
 TTTTTTTTTTTTTTTTTTTTTTTTTTTTTT PDIG        TELAPSE       56.58 TCPU     1468.80
 CHARGE NORMALIZATION FACTOR   1.00000000
 TOTAL ATOMIC CHARGES:
   4.4960368   4.5049732   4.5053661   4.5047853   4.5045015   4.4961257
   0.8729575   0.8731923   0.8765672   0.8765439   0.8650121   0.8652662
   0.8651603   0.8651052   0.8764469   0.8766594   0.8730708   0.8730796
   5.9225646   6.1724952   6.1724474   6.1659519   6.1657952   5.9228875
   5.9355638   6.1680851   6.1678099   6.1679345   6.1678674   5.9356388
   5.9225511   6.1658829   6.1659022   6.1723167   6.1724984   5.9229178
   8.4906734   8.4911076   8.4890564   8.4909483   8.4889897   8.4912641
 TTTTTTTTTTTTTTTTTTTTTTTTTTTTTT MOQGAD      TELAPSE       56.63 TCPU     1468.84
 TTTTTTTTTTTTTTTTTTTTTTTTTTTTTT SHELLXN     TELAPSE       64.27 TCPU     1712.49
 TTTTTTTTTTTTTTTTTTTTTTTTTTTTTT MONMO3      TELAPSE       64.42 TCPU     1717.11
 NUMERICALLY INTEGRATED DENSITY    197.9999972415
 TTTTTTTTTTTTTTTTTTTTTTTTTTTTTT NUMDFT      TELAPSE       65.05 TCPU     1737.35
 CYC   5 ETOT(AU) -1.289112675703E+03 DETOT -9.32E-04 tst  6.52E-06 PX  6.74E-03
 TTTTTTTTTTTTTTTTTTTTTTTTTTTTTT DIIS        TELAPSE       65.12 TCPU     1739.64
 DIIS TEST: 0.60211E-04 AT SCF   CYCLE   5 - DIIS ACTIVE - HISTORY:     5 CYCLES
 TTTTTTTTTTTTTTTTTTTTTTTTTTTTTT FDIK        TELAPSE       65.62 TCPU     1755.60
 INSULATING STATE
 TOP OF VALENCE BANDS -    BAND     99; K    1; EIG -2.4257037E-01 AU
 BOTTOM OF VIRTUAL BANDS - BAND    100; K   17; EIG -9.2448245E-02 AU
 INDIRECT ENERGY BAND GAP:   4.0850 eV
 BOTTOM OF VIRTUAL BANDS - BAND    100; K    1; EIG -8.1038454E-02 AU
 TTTTTTTTTTTTTTTTTTTTTTTTTTTTTT PDIG        TELAPSE       65.95 TCPU     1761.44
 CHARGE NORMALIZATION FACTOR   1.00000000
 TOTAL ATOMIC CHARGES:
   4.4949744   4.5053587   4.5057276   4.5050688   4.5047903   4.4949686
   0.8738384   0.8740099   0.8773457   0.8772705   0.8660411   0.8661393
   0.8661306   0.8660382   0.8772488   0.8773610   0.8739035   0.8739427
   5.9220493   6.1717881   6.1722009   6.1651319   6.1655543   5.9235259
   5.9341898   6.1672392   6.1679835   6.1675569   6.1675610   5.9355097
   5.9223464   6.1649338   6.1657840   6.1719598   6.1719061   5.9232661
   8.4910259   8.4912759   8.4872154   8.4912590   8.4872002   8.4913790
 TTTTTTTTTTTTTTTTTTTTTTTTTTTTTT MOQGAD      TELAPSE       66.00 TCPU     1761.48
 TTTTTTTTTTTTTTTTTTTTTTTTTTTTTT SHELLXN     TELAPSE       73.64 TCPU     2005.06
 TTTTTTTTTTTTTTTTTTTTTTTTTTTTTT MONMO3      TELAPSE       73.78 TCPU     2009.68
 NUMERICALLY INTEGRATED DENSITY    197.9999972414
 TTTTTTTTTTTTTTTTTTTTTTTTTTTTTT NUMDFT      TELAPSE       74.42 TCPU     2029.96
 CYC   6 ETOT(AU) -1.289112691908E+03 DETOT -1.62E-05 tst  1.37E-07 PX  1.06E-03
 TTTTTTTTTTTTTTTTTTTTTTTTTTTTTT DIIS        TELAPSE       74.49 TCPU     2032.20
 DIIS TEST: 0.68161E-05 AT SCF   CYCLE   6 - DIIS ACTIVE - HISTORY:     6 CYCLES
 TTTTTTTTTTTTTTTTTTTTTTTTTTTTTT FDIK        TELAPSE       74.98 TCPU     2048.07
 INSULATING STATE
 TOP OF VALENCE BANDS -    BAND     99; K    1; EIG -2.4257323E-01 AU
 BOTTOM OF VIRTUAL BANDS - BAND    100; K   17; EIG -9.2552751E-02 AU
 INDIRECT ENERGY BAND GAP:   4.0823 eV
 BOTTOM OF VIRTUAL BANDS - BAND    100; K    1; EIG -8.1052221E-02 AU
 TTTTTTTTTTTTTTTTTTTTTTTTTTTTTT PDIG        TELAPSE       75.32 TCPU     2053.91
 CHARGE NORMALIZATION FACTOR   1.00000000
 TOTAL ATOMIC CHARGES:
   4.4955502   4.5051832   4.5055597   4.5049944   4.5047109   4.4956289
   0.8737974   0.8740256   0.8773464   0.8773317   0.8658712   0.8661247
   0.8660255   0.8659575   0.8772333   0.8774389   0.8739095   0.8739125
   5.9225727   6.1718322   6.1718316   6.1653855   6.1651621   5.9228707
   5.9355611   6.1674287   6.1671585   6.1672472   6.1672408   5.9357419
   5.9225363   6.1652739   6.1653093   6.1716620   6.1718769   5.9229360
   8.4904760   8.4909110   8.4883340   8.4907537   8.4882268   8.4910693
 TTTTTTTTTTTTTTTTTTTTTTTTTTTTTT MOQGAD      TELAPSE       75.36 TCPU     2053.95
 TTTTTTTTTTTTTTTTTTTTTTTTTTTTTT SHELLXN     TELAPSE       83.01 TCPU     2297.54
 TTTTTTTTTTTTTTTTTTTTTTTTTTTTTT MONMO3      TELAPSE       83.15 TCPU     2302.17
 NUMERICALLY INTEGRATED DENSITY    197.9999972359
 TTTTTTTTTTTTTTTTTTTTTTTTTTTTTT NUMDFT      TELAPSE       83.79 TCPU     2322.40
 CYC   7 ETOT(AU) -1.289112692896E+03 DETOT -9.88E-07 tst  1.70E-08 PX  4.33E-04
 TTTTTTTTTTTTTTTTTTTTTTTTTTTTTT DIIS        TELAPSE       83.87 TCPU     2325.04
 DIIS TEST: 0.11991E-05 AT SCF   CYCLE   7 - DIIS ACTIVE - HISTORY:     7 CYCLES
 TTTTTTTTTTTTTTTTTTTTTTTTTTTTTT FDIK        TELAPSE       84.36 TCPU     2340.93
 INSULATING STATE
 TOP OF VALENCE BANDS -    BAND     99; K    1; EIG -2.4258218E-01 AU
 BOTTOM OF VIRTUAL BANDS - BAND    100; K   17; EIG -9.2562037E-02 AU
 INDIRECT ENERGY BAND GAP:   4.0823 eV
 BOTTOM OF VIRTUAL BANDS - BAND    100; K    1; EIG -8.1065135E-02 AU
 TTTTTTTTTTTTTTTTTTTTTTTTTTTTTT PDIG        TELAPSE       84.69 TCPU     2346.77
 CHARGE NORMALIZATION FACTOR   1.00000000
 TOTAL ATOMIC CHARGES:
   4.4955393   4.5052697   4.5056484   4.5050265   4.5047438   4.4955831
   0.8737772   0.8739816   0.8773370   0.8772781   0.8658880   0.8660582
   0.8660026   0.8659312   0.8772264   0.8773832   0.8738656   0.8738924
   5.9222227   6.1718183   6.1720085   6.1651661   6.1653526   5.9231938
   5.9350553   6.1672403   6.1675215   6.1673611   6.1673016   5.9357810
   5.9223961   6.1650424   6.1655105   6.1718304   6.1718714   5.9230497
   8.4907132   8.4910442   8.4879953   8.4909605   8.4879640   8.4911673
 TTTTTTTTTTTTTTTTTTTTTTTTTTTTTT MOQGAD      TELAPSE       84.74 TCPU     2346.81
 TTTTTTTTTTTTTTTTTTTTTTTTTTTTTT SHELLXN     TELAPSE       92.38 TCPU     2590.38
 +++ ENERGIES IN A.U. +++
 ::: EXT EL-POLE                                  -1.4445796701473E+03
 ::: EXT EL-SPHEROPOLE                             1.5910023534188E+01
 ::: BIELET ZONE E-E                               2.1237357012880E+03
 ::: TOTAL E-E                                     6.9506605467483E+02
 ::: TOTAL E-N + N-E                              -3.2166551811473E+03
 ::: TOTAL N-N                                     8.6259949672841E+01
 ::: KINETIC ENERGY                                1.2799336077102E+03
 ::: PSEUDO TOTAL   ENERGY                        -1.1553955690895E+03
 ::: VIRIAL COEFFICIENT                            1.0511380719318E+00
 TTTTTTTTTTTTTTTTTTTTTTTTTTTTTT MONMO3      TELAPSE       92.53 TCPU     2595.00
 NUMERICALLY INTEGRATED DENSITY    197.9999972347
 EXCHANGE ENERGY: -0.126023549906E+03  CORRELATION ENERGY: -0.769357407789E+01
 TTTTTTTTTTTTTTTTTTTTTTTTTTTTTT NUMDFT      TELAPSE       93.16 TCPU     2615.31
 CYC   8 ETOT(AU) -1.289112693074E+03 DETOT -1.78E-07 tst  3.43E-09 PX  4.33E-04

 == SCF ENDED - CONVERGENCE ON ENERGY      E(AU) -1.2891126930736E+03 CYCLES   8


 ENERGY EXPRESSION=HARTREE+FOCK EXCH*0.00000+(HSESOL     EXCH)*1.00000+PBESOL     CORR


 TOTAL ENERGY(DFT)(AU)(  8) -1.2891126930736E+03 DE-1.8E-07 tester 3.4E-09
 TTTTTTTTTTTTTTTTTTTTTTTTTTTTTT EDFT        TELAPSE       93.16 TCPU     2615.32
 
 INFORMATION **** DFTD3 ENERGY **** CALCULATE DFTD3 ENERGY

           DFT-D V3(BJ)
 DF                                         hsesol3c  
 parameters
 s6       :    1.0000
 s8       :    0.0000
 a1       :    0.5196
 a2       :    4.9385
 k1 k3    :   16.0000   -4.0000
 Cutoff   :   50.2022
 CN-Cutoff:   21.1671
 ABC-Cutoff:   21.1671
 
 Edisp /kcal,au:   -25.9223 -0.04130988

 E6    /kcal :   -27.4469
 E8    /kcal :     0.0000
 E6(ABC) "   :   1.524598
 
 INFORMATION **** DFTD3 ENERGY **** NORMAL TERMINATION OF DFTD3 MODULE

 GCP ENERGY CALCULATION
  level        hsesol3c            basis:hsesol3c
  Nbf            474
  Atoms           42

  Parameters: 
  sigma     1.0000
  eta       1.4281
  alpha     0.2936
  beta      1.9467

  dmp_scal      4.0000
  dmp_exp       6.0000
 cutoffs: 
   distance [bohr] 60.0
   noise    [a.u.] 2.2E-16
 SR-damping   T
 ** gCP correction **
  Egcp:        0.0831249102 / (a.u.) ||      52.1617 / (kcal/mol)
 INFORMATION **** GCP **** NORMAL TERMINATION OF GCP MODULE

 *******************************************************************************

 DFT-D3-GCP DISPERSION AND COUNTERPOISE CORRECTION

 D3 DISPERSION ENERGY (AU)      -4.1309878671197E-02
 GCP ENERGY (AU)                 8.3124910174620E-02
 TOTAL ENERGY + DISP + GCP (AU) -1.2890708780420E+03

 *******************************************************************************

 EIGENVECTORS IN FORTRAN UNIT  8
 TTTTTTTTTTTTTTTTTTTTTTTTTTTTTT END         TELAPSE       94.79 TCPU     2622.47
 EEEEEEEEEE TERMINATION  DATE 19 02 2026 TIME 18:44:41.2
