 Default number of threads is:           32

         
 *******************************************************************************
 *                                                                             *
 *                               CRYSTAL23                                     *
 *                      public : 1.0.1 - October 2022                          *
 *                       HTTP://WWW.CRYSTAL.UNITO.IT                           *
 *                                                                             *
 *                              MAIN AUTHORS                                   *
 *                                                                             *
 *  R. DOVESI(1,11), V.R. SAUNDERS(2), C. ROETTI(1,11), R. ORLANDO(1,11),      *
 *  C.M. ZICOVICH-WILSON(1,3), F. PASCALE(4), B. CIVALLERI(1,11),              *
 *  K. DOLL(5), N.M. HARRISON(6), I.J. BUSH(7), Ph. D'ARCO(8),                 *
 *  M. LLUNELL(9), M. CAUSA'(10), Y. NOEL(8), L. MASCHIO(1,11), A. ERBA(1,11)  *
 *  M. RE'RAT(14), S. CASASSA(1,11), B.G. SEARLE(2), J.K. DESMARAIS(1)         *
 *                                                                             *
 *        CONTRIBUTIONS TO THE CODE HAVE ALSO BEEN GIVEN BY                    *
 *                                                                             *
 *  M. FERRABONE(1,11), M. DE LA PIERRE(1,11), M. FERRERO(1,11),               *
 *  J. BAIMA(1,11), E. ALBANESE(1,11), M.F. PEINTINGER(12), R. BAST(13),       *
 *  B. KIRTMAN(15), V. LACIVITA(1,11), R. DEMICHELIS(1,16)                     *
 *  G. BRANDEBURG(17), S. SALUSTRO(1,11), G. SANSONE(1,11)                     *
 *  M.T. RUGGIERO(18), L.E. DAGA(1), L. DONA'(1), A. COSSARD(1)                *
 *                                                                             *
 * (1) THEORETICAL CHEMISTRY GROUP - UNIVERSITA' DI TORINO - TORINO (ITALY)    *
 * (2) SCIENTIFIC COMPUTING DEPARTMENT - STFC DARESBURY (UK)                   *
 * (3) UNIVERSIDAD AUTONOMA DEL ESTADO DE MORELOS - CUERNAVACA (MEXICO)        *
 * (4) UNIVERSITE' DE LORRAINE - NANCY (FRANCE)                                *
 * (5) UNIVERSITAET STUTTGART- STUTTGART (GERMANY)                             *
 * (6) IMPERIAL COLLEGE - LONDON (UK)                                          *
 * (7) SCIENTIFIC COMPUTING DEPARTMENT - STFC RAL (UK)                         *
 * (8) UPMC - SORBONNE UNIVERSITES - PARIS (FRANCE)                            *
 * (9) UNIVERSIDAD DE BARCELONA - BARCELONA (SPAIN)                            *
 *(10) UNIVERSITA' DI NAPOLI "FEDERICO II" - NAPOLI (ITALY)                    *
 *(11) NIS - NANOSTRUCTURED INTERFACES AND SURFACES - TORINO (ITALY)           *
 *(12) MPI FUER CHEMISCHE ENERGIEKONVERSION - MUELHEIM AN DER RUHR (GERMANY)   *
 *(13) UNIVERSITY OF TROMSO - TROMSO (NORWAY)                                  *
 *(14) UNIVERSITE' DE PAU ET DES PAYS DE L'ADOUR - PAU (FRANCE)                *
 *(15) UNIVERSITY OF CALIFORNIA SANTA BARBARA - SANTA BARBARA (USA)            *
 *(16) CURTIN UNIVERSITY - PERTH (AUSTRALIA)                                   *
 *(17) UNIVERSITY COLLEGE LONDON - LONDON (UK)                                 *
 *(18) UNIVERSITY OF VERMONT - BURLINGTON (USA)                                *
 *                                                                             *
 *******************************************************************************
 EEEEEEEEEE STARTING  DATE 02 12 2025 TIME 07:59:18.3
 COF-5_z34_inc_L075                                                              

 CRYSTAL CALCULATION
 (INPUT ACCORDING TO THE INTERNATIONAL TABLES FOR X-RAY CRYSTALLOGRAPHY)
 CRYSTAL FAMILY                       :  TRICLINIC   
 CRYSTAL CLASS  (GROTH - 1921)        :  TRICLINIC PEDIAL                     

 SPACE GROUP (NONCENTROSYMMETRIC)     :  P 1             

 LATTICE PARAMETERS  (ANGSTROMS AND DEGREES) - CONVENTIONAL CELL
        A           B           C        ALPHA        BETA       GAMMA
    15.02070    15.04439     8.23468    37.97177    89.99971   120.05310


 NUMBER OF IRREDUCIBLE ATOMS IN THE CONVENTIONAL CELL:   42

 INPUT COORDINATES

 ATOM AT. N.              COORDINATES
   1   5     4.709944600000E-01 -6.025073000000E-02  5.006044900000E-01
   2   5     6.297709700000E-01  9.877023000000E-02  5.006144800000E-01
   3   5     4.709523400000E-01  9.928114000000E-02  4.991846400000E-01
   4   5     8.278287000000E-02  3.232717600000E-01  5.053990200000E-01
   5   5     2.401893100000E-01  3.204420600000E-01  5.094425200000E-01
   6   5     2.421851300000E-01  4.832161800000E-01  5.034774600000E-01
   7   1     7.586733400000E-01  1.897771000000E-02  5.045025100000E-01
   8   1    -4.353068000000E-02  4.075439500000E-01  4.929133100000E-01
   9   1     7.621269900000E-01  3.103241200000E-01  4.927750300000E-01
  10   1    -4.676265000000E-02  1.164399300000E-01  5.040711200000E-01
  11   1     4.487415500000E-01  6.128363900000E-01  5.041931800000E-01
  12   1     2.653891000000E-01 -1.862000200000E-01  4.945453700000E-01
  13   1     1.666713000000E-01  6.193355200000E-01  4.958520900000E-01
  14   1     5.473807900000E-01 -1.924016500000E-01  5.023320300000E-01
  15   1     4.502006100000E-01  4.038835800000E-01  4.977493800000E-01
  16   1     2.604976300000E-01  1.750017000000E-02  5.060317100000E-01
  17   1     1.632389800000E-01  1.136317700000E-01  5.056668700000E-01
  18   1     5.477223700000E-01  3.074867700000E-01  4.986827400000E-01
  19   6     7.491357000000E-01  1.583432900000E-01  5.003645100000E-01
  20   6     8.031497400000E-01  1.041497200000E-01  5.021304300000E-01
  21   6    -8.798648000000E-02  3.221677000000E-01  4.957381600000E-01
  22   6     8.049376400000E-01  2.684486200000E-01  4.960752800000E-01
  23   6    -8.963367000000E-02  1.580853800000E-01  5.014867800000E-01
  24   6    -3.450170000000E-02  2.670148200000E-01  4.993037300000E-01
  25   6     3.016195700000E-01  6.035320000000E-01  5.018458300000E-01
  26   6     4.093801300000E-01  6.577893400000E-01  5.022359600000E-01
  27   6     3.044448100000E-01 -2.316269300000E-01  4.969601200000E-01
  28   6     2.500033500000E-01  6.607736100000E-01  4.980786800000E-01
  29   6     4.638786400000E-01 -2.345163300000E-01  5.007987000000E-01
  30   6     4.116683600000E-01 -1.785876900000E-01  4.991746100000E-01
  31   6     3.017691400000E-01  2.655728700000E-01  4.999457500000E-01
  32   6     4.097776300000E-01  3.191454600000E-01  4.993943200000E-01
  33   6     3.016333700000E-01  1.025109200000E-01  5.039174000000E-01
  34   6     2.479075200000E-01  1.559066400000E-01  5.033095200000E-01
  35   6     4.633202100000E-01  2.655405300000E-01  5.003325800000E-01
  36   6     4.102068700000E-01  1.571020400000E-01  5.015743100000E-01
  37   8     4.181753000000E-01 -6.842050000000E-03  4.995744700000E-01
  38   8     5.764710200000E-01 -8.266800000000E-03  5.025642200000E-01
  39   8     5.773850500000E-01  1.530798800000E-01  4.980449500000E-01
  40   8     1.363980800000E-01  4.306816800000E-01  5.027108800000E-01
  41   8     1.339953500000E-01  2.673078600000E-01  5.101978900000E-01
  42   8     2.944925900000E-01  4.289685600000E-01  5.051823700000E-01

 *******************************************************************************

 << INFORMATION >>: FROM NOW ON, ALL COORDINATES REFER TO THE PRIMITIVE CELL

 *******************************************************************************

 LATTICE PARAMETERS  (ANGSTROMS AND DEGREES) - PRIMITIVE CELL
       A          B          C        ALPHA      BETA     GAMMA        VOLUME
   15.02070   15.04439    8.23468    37.97177  89.99971 120.05310    665.117760

 COORDINATES OF THE EQUIVALENT ATOMS (FRACTIONAL UNITS)

 N. ATOM EQUIV AT. N.          X                  Y                  Z

   1   1   1    5 B     4.70994460000E-01 -6.02507300000E-02 -4.99395510000E-01

   2   2   1    5 B    -3.70229030000E-01  9.87702300000E-02 -4.99385520000E-01

   3   3   1    5 B     4.70952340000E-01  9.92811400000E-02  4.99184640000E-01

   4   4   1    5 B     8.27828700000E-02  3.23271760000E-01 -4.94600980000E-01

   5   5   1    5 B     2.40189310000E-01  3.20442060000E-01 -4.90557480000E-01

   6   6   1    5 B     2.42185130000E-01  4.83216180000E-01 -4.96522540000E-01

   7   7   1    1 H    -2.41326660000E-01  1.89777100000E-02 -4.95497490000E-01

   8   8   1    1 H    -4.35306800000E-02  4.07543950000E-01  4.92913310000E-01

   9   9   1    1 H    -2.37873010000E-01  3.10324120000E-01  4.92775030000E-01

  10  10   1    1 H    -4.67626500000E-02  1.16439930000E-01 -4.95928880000E-01

  11  11   1    1 H     4.48741550000E-01 -3.87163610000E-01 -4.95806820000E-01

  12  12   1    1 H     2.65389100000E-01 -1.86200020000E-01  4.94545370000E-01

  13  13   1    1 H     1.66671300000E-01 -3.80664480000E-01  4.95852090000E-01

  14  14   1    1 H    -4.52619210000E-01 -1.92401650000E-01 -4.97667970000E-01

  15  15   1    1 H     4.50200610000E-01  4.03883580000E-01  4.97749380000E-01

  16  16   1    1 H     2.60497630000E-01  1.75001700000E-02 -4.93968290000E-01

  17  17   1    1 H     1.63238980000E-01  1.13631770000E-01 -4.94333130000E-01

  18  18   1    1 H    -4.52277630000E-01  3.07486770000E-01  4.98682740000E-01

  19  19   1    6 C    -2.50864300000E-01  1.58343290000E-01 -4.99635490000E-01

  20  20   1    6 C    -1.96850260000E-01  1.04149720000E-01 -4.97869570000E-01

  21  21   1    6 C    -8.79864800000E-02  3.22167700000E-01  4.95738160000E-01

  22  22   1    6 C    -1.95062360000E-01  2.68448620000E-01  4.96075280000E-01

  23  23   1    6 C    -8.96336700000E-02  1.58085380000E-01 -4.98513220000E-01

  24  24   1    6 C    -3.45017000000E-02  2.67014820000E-01  4.99303730000E-01

  25  25   1    6 C     3.01619570000E-01 -3.96468000000E-01 -4.98154170000E-01

  26  26   1    6 C     4.09380130000E-01 -3.42210660000E-01 -4.97764040000E-01

  27  27   1    6 C     3.04444810000E-01 -2.31626930000E-01  4.96960120000E-01

  28  28   1    6 C     2.50003350000E-01 -3.39226390000E-01  4.98078680000E-01

  29  29   1    6 C     4.63878640000E-01 -2.34516330000E-01 -4.99201300000E-01

  30  30   1    6 C     4.11668360000E-01 -1.78587690000E-01  4.99174610000E-01

  31  31   1    6 C     3.01769140000E-01  2.65572870000E-01  4.99945750000E-01

  32  32   1    6 C     4.09777630000E-01  3.19145460000E-01  4.99394320000E-01

  33  33   1    6 C     3.01633370000E-01  1.02510920000E-01 -4.96082600000E-01

  34  34   1    6 C     2.47907520000E-01  1.55906640000E-01 -4.96690480000E-01

  35  35   1    6 C     4.63320210000E-01  2.65540530000E-01 -4.99667420000E-01

  36  36   1    6 C     4.10206870000E-01  1.57102040000E-01 -4.98425690000E-01

  37  37   1    8 O     4.18175300000E-01 -6.84205000000E-03  4.99574470000E-01

  38  38   1    8 O    -4.23528980000E-01 -8.26680000000E-03 -4.97435780000E-01

  39  39   1    8 O    -4.22614950000E-01  1.53079880000E-01  4.98044950000E-01

  40  40   1    8 O     1.36398080000E-01  4.30681680000E-01 -4.97289120000E-01

  41  41   1    8 O     1.33995350000E-01  2.67307860000E-01 -4.89802110000E-01

  42  42   1    8 O     2.94492590000E-01  4.28968560000E-01 -4.94817630000E-01

 NUMBER OF SYMMETRY OPERATORS         :    1
 *******************************************************************************
 * GEOMETRY EDITING - INPUT COORDINATES ARE GIVEN IN ANGSTROM         
 *******************************************************************************

 GCALCO - MAX INDICES DIRECT LATTICE VECTOR     9    15    23
 NO.OF VECTORS CREATED 6999 STARS 3500 RMAX   209.42297 BOHR

 GEOMETRY FOR WAVE FUNCTION - DIMENSIONALITY OF THE SYSTEM    3
 (NON PERIODIC DIRECTION: LATTICE PARAMETER FORMALLY SET TO 500)
 *******************************************************************************
 LATTICE PARAMETERS (ANGSTROMS AND DEGREES) - BOHR = 0.5291772083 ANGSTROM
 PRIMITIVE CELL - CENTRING CODE 1/0 VOLUME=   665.117760 - DENSITY  0.974 g/cm^3
         A              B              C           ALPHA      BETA       GAMMA 
    15.02070100    15.04438700     8.23468300    37.971767  89.999705 120.053104
 *******************************************************************************
 ATOMS IN THE ASYMMETRIC UNIT   42 - ATOMS IN THE UNIT CELL:   42
     ATOM                 X/A                 Y/B                 Z/C    
 *******************************************************************************
      1 T   5 B     4.709944600000E-01 -6.025073000000E-02 -4.993955100000E-01
      2 T   5 B    -3.702290300000E-01  9.877023000000E-02 -4.993855200000E-01
      3 T   5 B     4.709523400000E-01  9.928114000000E-02  4.991846400000E-01
      4 T   5 B     8.278287000000E-02  3.232717600000E-01 -4.946009800000E-01
      5 T   5 B     2.401893100000E-01  3.204420600000E-01 -4.905574800000E-01
      6 T   5 B     2.421851300000E-01  4.832161800000E-01 -4.965225400000E-01
      7 T   1 H    -2.413266600000E-01  1.897771000000E-02 -4.954974900000E-01
      8 T   1 H    -4.353068000000E-02  4.075439500000E-01  4.929133100000E-01
      9 T   1 H    -2.378730100000E-01  3.103241200000E-01  4.927750300000E-01
     10 T   1 H    -4.676265000000E-02  1.164399300000E-01 -4.959288800000E-01
     11 T   1 H     4.487415500000E-01 -3.871636100000E-01 -4.958068200000E-01
     12 T   1 H     2.653891000000E-01 -1.862000200000E-01  4.945453700000E-01
     13 T   1 H     1.666713000000E-01 -3.806644800000E-01  4.958520900000E-01
     14 T   1 H    -4.526192100000E-01 -1.924016500000E-01 -4.976679700000E-01
     15 T   1 H     4.502006100000E-01  4.038835800000E-01  4.977493800000E-01
     16 T   1 H     2.604976300000E-01  1.750017000000E-02 -4.939682900000E-01
     17 T   1 H     1.632389800000E-01  1.136317700000E-01 -4.943331300000E-01
     18 T   1 H    -4.522776300000E-01  3.074867700000E-01  4.986827400000E-01
     19 T   6 C    -2.508643000000E-01  1.583432900000E-01 -4.996354900000E-01
     20 T   6 C    -1.968502600000E-01  1.041497200000E-01 -4.978695700000E-01
     21 T   6 C    -8.798648000000E-02  3.221677000000E-01  4.957381600000E-01
     22 T   6 C    -1.950623600000E-01  2.684486200000E-01  4.960752800000E-01
     23 T   6 C    -8.963367000000E-02  1.580853800000E-01 -4.985132200000E-01
     24 T   6 C    -3.450170000000E-02  2.670148200000E-01  4.993037300000E-01
     25 T   6 C     3.016195700000E-01 -3.964680000000E-01 -4.981541700000E-01
     26 T   6 C     4.093801300000E-01 -3.422106600000E-01 -4.977640400000E-01
     27 T   6 C     3.044448100000E-01 -2.316269300000E-01  4.969601200000E-01
     28 T   6 C     2.500033500000E-01 -3.392263900000E-01  4.980786800000E-01
     29 T   6 C     4.638786400000E-01 -2.345163300000E-01 -4.992013000000E-01
     30 T   6 C     4.116683600000E-01 -1.785876900000E-01  4.991746100000E-01
     31 T   6 C     3.017691400000E-01  2.655728700000E-01  4.999457500000E-01
     32 T   6 C     4.097776300000E-01  3.191454600000E-01  4.993943200000E-01
     33 T   6 C     3.016333700000E-01  1.025109200000E-01 -4.960826000000E-01
     34 T   6 C     2.479075200000E-01  1.559066400000E-01 -4.966904800000E-01
     35 T   6 C     4.633202100000E-01  2.655405300000E-01 -4.996674200000E-01
     36 T   6 C     4.102068700000E-01  1.571020400000E-01 -4.984256900000E-01
     37 T   8 O     4.181753000000E-01 -6.842050000000E-03  4.995744700000E-01
     38 T   8 O    -4.235289800000E-01 -8.266800000000E-03 -4.974357800000E-01
     39 T   8 O    -4.226149500000E-01  1.530798800000E-01  4.980449500000E-01
     40 T   8 O     1.363980800000E-01  4.306816800000E-01 -4.972891200000E-01
     41 T   8 O     1.339953500000E-01  2.673078600000E-01 -4.898021100000E-01
     42 T   8 O     2.944925900000E-01  4.289685600000E-01 -4.948176300000E-01

 T = ATOM BELONGING TO THE ASYMMETRIC UNIT

 ****    1 SYMMOPS - TRANSLATORS IN FRACTIONAL UNITS
 **** MATRICES AND TRANSLATORS IN THE CRYSTALLOGRAPHIC REFERENCE FRAME
   V INV                    ROTATION MATRICES                   TRANSLATORS
   1   1  1.00 -0.00  0.00  0.00  1.00  0.00 -0.00  0.00  1.00  0.00  0.00  0.00

 DIRECT LATTICE VECTORS CARTESIAN COMPONENTS (ANGSTROM)
          X                    Y                    Z
   0.130013421718E+02  -0.752240388864E+01   0.000000000000E+00
   0.000000000000E+00   0.150443870000E+02   0.000000000000E+00
   0.375595400100E+01   0.649151614595E+01   0.340044582073E+01


 CARTESIAN COORDINATES - PRIMITIVE CELL
 *******************************************************************************
 *      ATOM          X(ANGSTROM)         Y(ANGSTROM)         Z(ANGSTROM)
 *******************************************************************************
    1     5 B     4.918995706006E-01  8.615909810852E-01 -5.098613195601E+00
    2     5 B     2.556244827931E+00  2.059647658434E+00 -5.098579225147E+00
    3     5 B    -1.247461105987E+00  1.609283631418E-01  5.097896143591E+00
    4     5 B    -7.814101108992E-01  1.029989032938E+00 -1.681863835370E+00
    5     5 B     1.280272075585E+00 -1.704084397734E-01 -1.668114132694E+00
    6     5 B     1.283815923345E+00  2.224692767660E+00 -1.688397996041E+00
    7     1 H    -4.998636261883E+00 -1.115665337382E+00 -1.684912369053E+00
    8     1 H    -2.470551547810E+00  3.166942824285E+00 -1.724320815758E+00
    9     1 H     2.514125950085E+00  1.103999221657E+00  5.076100612054E+00
   10     1 H    -2.470663274557E+00 -1.115795422387E+00 -1.686379287375E+00
   11     1 H     3.972014828939E+00  2.625594660826E+00 -1.685964228958E+00
   12     1 H     5.307904158888E+00 -1.587279903871E+00  1.681674736578E+00
   13     1 H     2.733942418530E-01  4.791070112769E+00 -1.714327653589E+00
   14     1 H     1.491512944951E+00 -1.689933073829E+00 -5.092738789428E+00
   15     1 H     3.966781950856E+00 -5.707779479108E-01 -1.707876021738E+00
   16     1 H     1.531496647372E+00 -4.902892184970E+00 -1.679712407304E+00
   17     1 H     2.656333372999E-01 -2.727400709428E+00 -1.680953025957E+00
   18     1 H    -4.007186791735E+00 -3.779014973666E+00  1.695743639103E+00
   19     6 C    -5.138180520691E+00  1.025888469030E+00 -1.698983413859E+00
   20     6 C    -4.429292790281E+00 -1.842724973062E-01 -1.692978498575E+00
   21     6 C    -3.037926608471E+00  2.235261520854E+00 -1.714715066382E+00
   22     6 C    -4.428790555482E+00  2.234747328064E+00 -1.713568708087E+00
   23     6 C    -3.037750736993E+00 -1.835483130760E-01 -1.695167195528E+00
   24     6 C    -2.329160565801E+00  1.026332088138E+00 -1.702590538777E+00
   25     6 C     2.050415087346E+00  3.577088910898E+00 -1.693946265456E+00
   26     6 C     3.452912310862E+00  3.585271411057E+00 -1.692619649528E+00
   27     6 C     2.068796497281E+00  6.004053499761E+00 -1.710559857606E+00
   28     6 C     1.365185707397E+00  4.802077383237E+00 -1.706756254929E+00
   29     6 C     4.001138037743E-01 -1.705339356712E+00 -5.097952795018E+00
   30     6 C    -2.018270087490E+00 -3.573544918836E+00  5.097862037119E+00
   31     6 C     2.045223085016E+00 -1.520758556953E+00 -1.700407384551E+00
   32     6 C     3.447407275248E+00 -1.530854882332E+00 -1.702282492390E+00
   33     6 C     2.058375227498E+00 -3.947122290851E+00 -1.686902003907E+00
   34     6 C     1.357583898860E+00 -2.743614934901E+00 -1.688969066912E+00
   35     6 C     4.147056739989E+00 -2.733986376420E+00 -1.699091990094E+00
   36     6 C     3.461175913525E+00 -3.957776279977E+00 -1.694869554505E+00
   37     8 O    -1.932169278292E+00 -1.036089178226E+00  5.099221739385E+00
   38     8 O     1.870597073997E+00  8.629416756183E-01 -5.091949239912E+00
   39     8 O     1.320263517766E-01  1.622692801951E-01  5.094020689493E+00
   40     8 O    -9.443695026590E-02  2.225140068650E+00 -1.691004709798E+00
   41     8 O    -9.755479997724E-02 -1.660425533033E-01 -1.665545537934E+00
   42     8 O     1.970286672477E+00  1.026160188835E+00 -1.682600541957E+00

 *******************************************************************************
 STARTING BASIS SET HANDLING 
 *******************************************************************************

 Loading internal basis set: SOLDEF2MSVP         

 Please cite in your publication:
 L. Dona', J. G. Brandenburg and B. Civalleri, J. Chem. Phys., 151, 121101 (2019
 )                                                                              
                                                                                
                    

 *******************************************************************************
 LOCAL ATOMIC FUNCTIONS BASIS SET
 *******************************************************************************
   ATOM   X(AU)   Y(AU)   Z(AU)  N. TYPE  EXPONENT  S COEF   P COEF   D/F/G COEF
 *******************************************************************************
   1 B    0.930   1.628  -9.635
                                  1 S  
                                         2.410E+03 1.755E-03 0.000E+00 0.000E+00
                                         3.619E+02 1.344E-02 0.000E+00 0.000E+00
                                         8.231E+01 6.637E-02 0.000E+00 0.000E+00
                                         2.311E+01 2.303E-01 0.000E+00 0.000E+00
                                         7.252E+00 5.150E-01 0.000E+00 0.000E+00
                                  2 S  
                                         2.367E+00 1.000E+00 0.000E+00 0.000E+00
                                  3 S  
                                         5.533E-01 1.000E+00 0.000E+00 0.000E+00
                                  4 S  
                                         1.716E-01 1.000E+00 0.000E+00 0.000E+00
                           5-     7 P  
                                         6.002E+00 0.000E+00-3.555E-02 0.000E+00
                                         1.240E+00 0.000E+00-1.983E-01 0.000E+00
                                         3.367E-01 0.000E+00-5.048E-01 0.000E+00
                           8-    10 P  
                                         1.256E-01 0.000E+00 1.000E+00 0.000E+00
                          11-    15 D  
                                         8.880E-01 0.000E+00 0.000E+00 1.000E+00
   2 B    4.831   3.892  -9.635
   3 B   -2.357   0.304   9.634
   4 B   -1.477   1.946  -3.178
   5 B    2.419  -0.322  -3.152
   6 B    2.426   4.204  -3.191
   7 H   -9.446  -2.108  -3.184
                                 91 S  
                                         1.874E+01 1.968E-02 0.000E+00 0.000E+00
                                         2.826E+00 1.380E-01 0.000E+00 0.000E+00
                                         6.401E-01 4.783E-01 0.000E+00 0.000E+00
                                 92 S  
                                         1.756E-01 1.000E+00 0.000E+00 0.000E+00
   8 H   -4.669   5.985  -3.258
   9 H    4.751   2.086   9.592
  10 H   -4.669  -2.109  -3.187
  11 H    7.506   4.962  -3.186
  12 H   10.030  -3.000   3.178
  13 H    0.517   9.054  -3.240
  14 H    2.819  -3.194  -9.624
  15 H    7.496  -1.079  -3.227
  16 H    2.894  -9.265  -3.174
  17 H    0.502  -5.154  -3.177
  18 H   -7.572  -7.141   3.204
  19 C   -9.710   1.939  -3.211
                                115 S  
                                         3.624E+03 1.634E-03 0.000E+00 0.000E+00
                                         5.440E+02 1.252E-02 0.000E+00 0.000E+00
                                         1.237E+02 6.211E-02 0.000E+00 0.000E+00
                                         3.476E+01 2.182E-01 0.000E+00 0.000E+00
                                         1.093E+01 4.980E-01 0.000E+00 0.000E+00
                                116 S  
                                         3.574E+00 1.000E+00 0.000E+00 0.000E+00
                                117 S  
                                         7.742E-01 1.000E+00 0.000E+00 0.000E+00
                                118 S  
                                         2.330E-01 1.000E+00 0.000E+00 0.000E+00
                         119-   121 P  
                                         9.443E+00 0.000E+00 3.790E-02 0.000E+00
                                         2.002E+00 0.000E+00 2.082E-01 0.000E+00
                                         5.463E-01 0.000E+00 5.047E-01 0.000E+00
                         122-   124 P  
                                         1.820E-01 0.000E+00 1.000E+00 0.000E+00
                         125-   129 D  
                                         8.880E-01 0.000E+00 0.000E+00 1.000E+00
  20 C   -8.370  -0.348  -3.199
  21 C   -5.741   4.224  -3.240
  22 C   -8.369   4.223  -3.238
  23 C   -5.741  -0.347  -3.203
  24 C   -4.401   1.939  -3.217
  25 C    3.875   6.760  -3.201
  26 C    6.525   6.775  -3.199
  27 C    3.909  11.346  -3.232
  28 C    2.580   9.075  -3.225
  29 C    0.756  -3.223  -9.634
  30 C   -3.814  -6.753   9.634
  31 C    3.865  -2.874  -3.213
  32 C    6.515  -2.893  -3.217
  33 C    3.890  -7.459  -3.188
  34 C    2.565  -5.185  -3.192
  35 C    7.837  -5.166  -3.211
  36 C    6.541  -7.479  -3.203
  37 O   -3.651  -1.958   9.636
                                385 S  
                                         6.773E+03 1.727E-03 0.000E+00 0.000E+00
                                         1.017E+03 1.325E-02 0.000E+00 0.000E+00
                                         2.313E+02 6.603E-02 0.000E+00 0.000E+00
                                         6.501E+01 2.353E-01 0.000E+00 0.000E+00
                                         2.050E+01 5.498E-01 0.000E+00 0.000E+00
                                386 S  
                                         6.716E+00 1.000E+00 0.000E+00 0.000E+00
                                387 S  
                                         1.147E+00 1.000E+00 0.000E+00 0.000E+00
                                388 S  
                                         3.342E-01 1.000E+00 0.000E+00 0.000E+00
                         389-   391 P  
                                         1.769E+01 0.000E+00 4.359E-02 0.000E+00
                                         3.854E+00 0.000E+00 2.318E-01 0.000E+00
                                         1.047E+00 0.000E+00 5.146E-01 0.000E+00
                         392-   394 P  
                                         2.759E-01 0.000E+00 1.000E+00 0.000E+00
                         395-   399 D  
                                         8.000E-01 0.000E+00 0.000E+00 1.000E+00
  38 O    3.535   1.631  -9.622
  39 O    0.249   0.307   9.626
  40 O   -0.178   4.205  -3.196
  41 O   -0.184  -0.314  -3.147
  42 O    3.723   1.939  -3.180

 *******************************************************************************
 FINISHED BASIS SET HANDLING 
 *******************************************************************************

 INFORMATION **** SET_MPP **** PCRYSTAL CALCULATION
 INFORMATION **** READM2 **** NEW DEFAULT: FOCK/KS MATRIX MIXING SET TO 30 %
 INFORMATION **** READM2 **** NEW DEFAULT: FULL DIRECT SCF MODE
 INFORMATION **** READM2 **** NEW DEFAULT: COULOMB BIPOLAR BUFFER SET TO 32 Mb
 INFORMATION **** READM2 **** NEW DEFAULT: EXCHANGE BIPOLAR BUFFER SET TO 32 Mb

 *******************************************************************************
 NEW DEFAULT: DFT INTEGRATION GRID INCREASED TO XLGRID
 NEW DEFAULT: DIIS ACCELERATOR ACTIVE
 USE KEYWORD NODIIS TO TURN IT OFF
 *******************************************************************************

 WARNING **** RDDFTP **** HSEsol-HJS ACTIVE
 RANGE SEPARATION - OMEGA:   0.110000000000000     
 WARNING **** RDDFTP **** HSEsol-3c has to be combined with sol-def2-mSVP basis set
 *******************************************************************************
 N. OF ATOMS PER CELL        42  COULOMB OVERLAP TOL         (T1) 10**   -6
 NUMBER OF SHELLS           234  COULOMB PENETRATION TOL     (T2) 10**   -6
 NUMBER OF AO               474  EXCHANGE OVERLAP TOL        (T3) 10**   -6
 N. OF ELECTRONS PER CELL   198  EXCHANGE PSEUDO OVP (F(G))  (T4) 10**   -6
 CORE ELECTRONS PER CELL     60  EXCHANGE PSEUDO OVP (P(G))  (T5) 10**  -12
 N. OF SYMMETRY OPERATORS     1  POLE ORDER IN MONO ZONE                  4
 *******************************************************************************
 TYPE OF CALCULATION :  RESTRICTED CLOSED SHELL
 KOHN-SHAM HAMILTONIAN

 (EXCHANGE)[CORRELATION] FUNCTIONAL:(HSEsol GGA)[PBEsol]

 RANGE-SEPARATED HYBRID FUNCTIONAL 
 OMEGA (SHORT-RANGE)[LONG-RANGE]:(    0.1100)[    0.0000]

 HYBRID EXCHANGE - PERCENTAGE OF FOCK EXCHANGE    25.0000

 CAPPA:IS1  2;IS2  2;IS3  8; K PTS MONK NET  20; SYMMOPS:K SPACE   2;G SPACE   1

 *******************************************************************************
 MAX NUMBER OF SCF CYCLES      50  CONVERGENCE ON DELTAP        10**-16
 WEIGHT OF F(I) IN F(I+1)      30% CONVERGENCE ON ENERGY        10**- 6
 SHRINK. FACT.(MONKH.)    2  2  8  NUMBER OF K POINTS IN THE IBZ     20
 SHRINKING FACTOR(GILAT NET)    8  NUMBER OF K POINTS(GILAT NET)   1028
 *******************************************************************************
 *** K POINTS COORDINATES (OBLIQUE COORDINATES IN UNITS OF IS =  2)
   1-R(  0  0  0)   2-R(  1  0  0)   3-R(  0  1  0)   4-R(  1  1  0)
   5-C(  0  0  1)   6-C(  1  0  1)   7-C(  0  1  1)   8-C(  1  1  1)
   9-C(  0  0  2)  10-C(  1  0  2)  11-C(  0  1  2)  12-C(  1  1  2)
  13-C(  0  0  3)  14-C(  1  0  3)  15-C(  0  1  3)  16-C(  1  1  3)
  17-R(  0  0  4)  18-R(  1  0  4)  19-R(  0  1  4)  20-R(  1  1  4)

 DIRECT LATTICE VECTORS COMPON. (A.U.)     RECIP. LATTICE VECTORS COMPON. (A.U.) 
        X            Y            Z              X            Y            Z
   24.5689761  -14.2152832    0.0000000      0.2557366    0.0000000   -0.2824732
    0.0000000   28.4297713    0.0000000      0.1278719    0.2210072   -0.5631476
    7.0977244   12.2671877    6.4259113      0.0000000    0.0000000    0.9777890

 DISK SPACE FOR EIGENVECTORS (FTN 10)     7189632 REALS

 SYMMETRY ADAPTION OF THE BLOCH FUNCTIONS DISABLED
 TTTTTTTTTTTTTTTTTTTTTTTTTTTTTT gordsh1     TELAPSE        0.04 TCPU        0.04

 MATRIX SIZE: P(G)  343472, F(G)   65668, P(G) IRR  172957, F(G) IRR   66148
 MAX G-VECTOR INDEX FOR 1- AND 2-ELECTRON INTEGRALS  73

 TTTTTTTTTTTTTTTTTTTTTTTTTTTTTT INPUT       TELAPSE        0.42 TCPU        0.42

 NEIGHBORS OF THE NON-EQUIVALENT ATOMS

 N = NUMBER OF NEIGHBORS AT DISTANCE R
    ATOM  N     R/ANG      R/AU   NEIGHBORS (ATOM LABELS AND CELL INDICES)
   1 B    1     1.3787     2.6054   38 O    0 0 0
   1 B    1     1.3795     2.6068   37 O    1 2-3
   1 B    1     1.5517     2.9323   30 C    1 2-3
   1 B    1     2.3868     4.5104    2 B    0 0 0
   1 B    1     2.3912     4.5187    3 B    1 2-3
   1 B    1     2.5629     4.8432   27 C    0 0-1

   2 B    1     1.3792     2.6064   38 O    0 0 0
   2 B    1     1.3798     2.6075   39 O    1 2-3
   2 B    1     1.5510     2.9309   19 C    1 1-1
   2 B    1     2.3868     4.5104    1 B    0 0 0
   2 B    1     2.3894     4.5154    3 B    1 2-3
   2 B    1     2.5618     4.8411   22 C    1 1-1

   3 B    1     1.3790     2.6060   37 O    0 0 0
   3 B    1     1.3795     2.6069   39 O    0 0 0
   3 B    1     1.5529     2.9346   36 C   -1-1 2
   3 B    1     2.3894     4.5154    2 B   -1-2 3
   3 B    1     2.3912     4.5187    1 B   -1-2 3
   3 B    1     2.5679     4.8526   35 C   -1-1 2

   4 B    1     1.3778     2.6037   41 O    0 0 0
   4 B    1     1.3786     2.6051   40 O    0 0 0
   4 B    1     1.5479     2.9251   24 C    0 0 0
   4 B    1     2.3857     4.5084    5 B    0 0 0
   4 B    1     2.3859     4.5087    6 B    0 0 0
   4 B    1     2.5584     4.8348   21 C    0 0 0

   5 B    1     1.3778     2.6037   41 O    0 0 0
   5 B    1     1.3813     2.6104   42 O    0 0 0
   5 B    1     1.5523     2.9334   31 C    0 0 0
   5 B    1     2.3857     4.5084    4 B    0 0 0
   5 B    1     2.3952     4.5263    6 B    0 0 0
   5 B    1     2.5590     4.8358   32 C    0 0 0

   6 B    1     1.3783     2.6045   40 O    0 0 0
   6 B    1     1.3812     2.6101   42 O    0 0 0
   6 B    1     1.5546     2.9377   25 C    0 0 0
   6 B    1     2.3859     4.5087    4 B    0 0 0
   6 B    1     2.3952     4.5263    5 B    0 0 0
   6 B    1     2.5605     4.8386   26 C    0 0 0

   7 H    1     1.0917     2.0629   20 C    0 0 0
   7 H    1     2.1461     4.0556   19 C    0 0 0
   7 H    1     2.1712     4.1029   23 C    0 0 0
   7 H    1     2.5280     4.7772   10 H    0 0 0
   7 H    1     2.5583     4.8346   38 O   -1-1 1
   7 H    1     2.7310     5.1608    2 B   -1-1 1

   8 H    1     1.0909     2.0615   21 C    0 0 0
   8 H    1     2.1454     4.0542   24 C    0 0 0
   8 H    1     2.1688     4.0985   22 C    0 0 0
   8 H    1     2.5272     4.7758    9 H    0 1-2
   8 H    1     2.5562     4.8305   40 O    0 0 0
   8 H    1     2.7243     5.1481    4 B    0 0 0

   9 H    1     1.0908     2.0614   22 C    0-1 2
   9 H    1     2.1442     4.0520   19 C    0-1 2
   9 H    1     2.1694     4.0995   21 C    0-1 2
   9 H    1     2.5272     4.7758    8 H    0-1 2
   9 H    1     2.5616     4.8406   39 O    0 0 0
   9 H    1     2.7248     5.1492    2 B   -1-2 3

  10 H    1     1.0912     2.0621   23 C    0 0 0
  10 H    1     2.1469     4.0570   24 C    0 0 0
  10 H    1     2.1689     4.0986   20 C    0 0 0
  10 H    1     2.5280     4.7772    7 H    0 0 0
  10 H    1     2.5562     4.8305   41 O    0 0 0
  10 H    1     2.7309     5.1607    4 B    0 0 0

  11 H    1     1.0911     2.0619   26 C    0 0 0
  11 H    1     2.1443     4.0521   25 C    0 0 0
  11 H    1     2.1684     4.0978   29 C    0 0 1
  11 H    1     2.5222     4.7664   14 H    0 0 1
  11 H    1     2.5622     4.8419   42 O    0 0 0
  11 H    1     2.7179     5.1361    6 B    0 0 0

  12 H    1     1.0917     2.0630   27 C    0-1 1
  12 H    1     2.1441     4.0518   30 C    1 1-1
  12 H    1     2.1716     4.1037   28 C    0-1 1
  12 H    1     2.5226     4.7669   13 H    0-1 1
  12 H    1     2.5541     4.8265   37 O    1 1-1
  12 H    1     2.7237     5.1470    1 B    0-1 2

  13 H    1     1.0919     2.0633   28 C    0 0 0
  13 H    1     2.1522     4.0671   25 C    0 0 0
  13 H    1     2.1668     4.0946   27 C    0 0 0
  13 H    1     2.5226     4.7669   12 H    0 1-1
  13 H    1     2.5923     4.8987   40 O    0 0 0
  13 H    1     2.7582     5.2123    6 B    0 0 0

  14 H    1     1.0915     2.0627   29 C    0 0 0
  14 H    1     2.1483     4.0597   30 C    1 2-3
  14 H    1     2.1679     4.0968   26 C    0 0-1
  14 H    1     2.5222     4.7664   11 H    0 0-1
  14 H    1     2.5809     4.8771   38 O    0 0 0
  14 H    1     2.7404     5.1785    1 B    0 0 0

  15 H    1     1.0916     2.0628   32 C    0 0 0
  15 H    1     2.1436     4.0508   31 C    0 0 0
  15 H    1     2.1707     4.1021   35 C    0 0 0
  15 H    1     2.5217     4.7654   18 H    1 1-1
  15 H    1     2.5567     4.8315   42 O    0 0 0
  15 H    1     2.7165     5.1334    5 B    0 0 0

  16 H    1     1.0914     2.0624   33 C    0 0 0
  16 H    1     2.1488     4.0606   36 C    0 0 0
  16 H    1     2.1663     4.0937   34 C    0 0 0
  16 H    1     2.5170     4.7564   17 H    0 0 0
  16 H    1     2.5780     4.8716   37 O    1 1-2
  16 H    1     2.7395     5.1770    3 B    1 1-2

  17 H    1     1.0921     2.0638   34 C    0 0 0
  17 H    1     2.1502     4.0633   31 C    0 0 0
  17 H    1     2.1683     4.0976   33 C    0 0 0
  17 H    1     2.5170     4.7564   16 H    0 0 0
  17 H    1     2.5870     4.8888   41 O    0 0 0
  17 H    1     2.7510     5.1986    5 B    0 0 0

  18 H    1     1.0913     2.0622   35 C   -1-1 1
  18 H    1     2.1495     4.0619   36 C   -1-1 1
  18 H    1     2.1656     4.0923   32 C   -1-1 1
  18 H    1     2.5217     4.7654   15 H   -1-1 1
  18 H    1     2.5789     4.8734   39 O    0 0-1
  18 H    1     2.7392     5.1763    3 B    0 0-1

  19 C    1     1.4017     2.6488   22 C    0 0 0
  19 C    1     1.4025     2.6504   20 C    0 0 0
  19 C    1     1.5510     2.9309    2 B   -1-1 1
  19 C    1     2.1442     4.0520    9 H    0 1-2
  19 C    1     2.1461     4.0556    7 H    0 0 0
  19 C    1     2.4236     4.5800   21 C    0 0 0

  20 C    1     1.0917     2.0629    7 H    0 0 0
  20 C    1     1.3915     2.6296   23 C    0 0 0
  20 C    1     1.4025     2.6504   19 C    0 0 0
  20 C    1     2.1689     4.0986   10 H    0 0 0
  20 C    1     2.4191     4.5715   22 C    0 0 0
  20 C    1     2.4241     4.5809   24 C    0 0 0

  21 C    1     1.0909     2.0615    8 H    0 0 0
  21 C    1     1.3909     2.6284   22 C    0 0 0
  21 C    1     1.4014     2.6483   24 C    0 0 0
  21 C    1     2.1694     4.0995    9 H    0 1-2
  21 C    1     2.4189     4.5710   23 C    0 0 0
  21 C    1     2.4236     4.5800   19 C    0 0 0

  22 C    1     1.0908     2.0614    9 H    0 1-2
  22 C    1     1.3909     2.6284   21 C    0 0 0
  22 C    1     1.4017     2.6488   19 C    0 0 0
  22 C    1     2.1688     4.0985    8 H    0 0 0
  22 C    1     2.4191     4.5715   20 C    0 0 0
  22 C    1     2.4226     4.5780   24 C    0 0 0

  23 C    1     1.0912     2.0621   10 H    0 0 0
  23 C    1     1.3915     2.6296   20 C    0 0 0
  23 C    1     1.4021     2.6496   24 C    0 0 0
  23 C    1     2.1712     4.1029    7 H    0 0 0
  23 C    1     2.4189     4.5710   21 C    0 0 0
  23 C    1     2.4237     4.5802   19 C    0 0 0

  24 C    1     1.4014     2.6483   21 C    0 0 0
  24 C    1     1.4021     2.6496   23 C    0 0 0
  24 C    1     1.5479     2.9251    4 B    0 0 0
  24 C    1     2.1454     4.0542    8 H    0 0 0
  24 C    1     2.1469     4.0570   10 H    0 0 0
  24 C    1     2.4226     4.5780   22 C    0 0 0

  25 C    1     1.4025     2.6504   26 C    0 0 0
  25 C    1     1.4037     2.6526   28 C    0 0 0
  25 C    1     1.5546     2.9377    6 B    0 0 0
  25 C    1     2.1443     4.0521   11 H    0 0 0
  25 C    1     2.1522     4.0671   13 H    0 0 0
  25 C    1     2.4271     4.5865   27 C    0 0 0

  26 C    1     1.0911     2.0619   11 H    0 0 0
  26 C    1     1.3916     2.6298   29 C    0 0 1
  26 C    1     1.4025     2.6504   25 C    0 0 0
  26 C    1     2.1679     4.0968   14 H    0 0 1
  26 C    1     2.4165     4.5665   28 C    0 0 0
  26 C    1     2.4246     4.5819   30 C    1 2-2

  27 C    1     1.0917     2.0630   12 H    0 1-1
  27 C    1     1.3928     2.6320   28 C    0 0 0
  27 C    1     1.4024     2.6502   30 C    1 2-2
  27 C    1     2.1668     4.0946   13 H    0 0 0
  27 C    1     2.4166     4.5668   29 C    0 0 1
  27 C    1     2.4271     4.5865   25 C    0 0 0

  28 C    1     1.0919     2.0633   13 H    0 0 0
  28 C    1     1.3928     2.6320   27 C    0 0 0
  28 C    1     1.4037     2.6526   25 C    0 0 0
  28 C    1     2.1716     4.1037   12 H    0 1-1
  28 C    1     2.4165     4.5665   26 C    0 0 0
  28 C    1     2.4277     4.5877   30 C    1 2-2

  29 C    1     1.0915     2.0627   14 H    0 0 0
  29 C    1     1.3916     2.6298   26 C    0 0-1
  29 C    1     1.4023     2.6499   30 C    1 2-3
  29 C    1     2.1684     4.0978   11 H    0 0-1
  29 C    1     2.4166     4.5668   27 C    0 0-1
  29 C    1     2.4281     4.5884   25 C    0 0-1

  30 C    1     1.4023     2.6499   29 C   -1-2 3
  30 C    1     1.4024     2.6502   27 C   -1-2 2
  30 C    1     1.5517     2.9323    1 B   -1-2 3
  30 C    1     2.1441     4.0518   12 H   -1-1 1
  30 C    1     2.1483     4.0597   14 H   -1-2 3
  30 C    1     2.4246     4.5819   26 C   -1-2 2

  31 C    1     1.4022     2.6498   32 C    0 0 0
  31 C    1     1.4030     2.6513   34 C    0 0 0
  31 C    1     1.5523     2.9334    5 B    0 0 0
  31 C    1     2.1436     4.0508   15 H    0 0 0
  31 C    1     2.1502     4.0633   17 H    0 0 0
  31 C    1     2.4264     4.5853   33 C    0 0 0

  32 C    1     1.0916     2.0628   15 H    0 0 0
  32 C    1     1.3918     2.6301   35 C    0 0 0
  32 C    1     1.4022     2.6498   31 C    0 0 0
  32 C    1     2.1656     4.0923   18 H    1 1-1
  32 C    1     2.4163     4.5661   34 C    0 0 0
  32 C    1     2.4270     4.5863   36 C    0 0 0

  33 C    1     1.0914     2.0624   16 H    0 0 0
  33 C    1     1.3927     2.6318   34 C    0 0 0
  33 C    1     1.4029     2.6510   36 C    0 0 0
  33 C    1     2.1683     4.0976   17 H    0 0 0
  33 C    1     2.4155     4.5646   35 C    0 0 0
  33 C    1     2.4264     4.5853   31 C    0 0 0

  34 C    1     1.0921     2.0638   17 H    0 0 0
  34 C    1     1.3927     2.6318   33 C    0 0 0
  34 C    1     1.4030     2.6513   31 C    0 0 0
  34 C    1     2.1663     4.0937   16 H    0 0 0
  34 C    1     2.4163     4.5661   32 C    0 0 0
  34 C    1     2.4289     4.5899   36 C    0 0 0

  35 C    1     1.0913     2.0622   18 H    1 1-1
  35 C    1     1.3918     2.6301   32 C    0 0 0
  35 C    1     1.4029     2.6511   36 C    0 0 0
  35 C    1     2.1707     4.1021   15 H    0 0 0
  35 C    1     2.4155     4.5646   33 C    0 0 0
  35 C    1     2.4269     4.5861   31 C    0 0 0

  36 C    1     1.4029     2.6510   33 C    0 0 0
  36 C    1     1.4029     2.6511   35 C    0 0 0
  36 C    1     1.5529     2.9346    3 B    1 1-2
  36 C    1     2.1488     4.0606   16 H    0 0 0
  36 C    1     2.1495     4.0619   18 H    1 1-1
  36 C    1     2.4270     4.5863   32 C    0 0 0

  37 O    1     1.3790     2.6060    3 B    0 0 0
  37 O    1     1.3795     2.6068    1 B   -1-2 3
  37 O    1     2.3868     4.5105   39 O    0 0 0
  37 O    1     2.3885     4.5136   38 O   -1-2 3
  37 O    1     2.5389     4.7979   30 C    0 0 0
  37 O    1     2.5412     4.8022   36 C   -1-1 2

  38 O    1     1.3787     2.6054    1 B    0 0 0
  38 O    1     1.3792     2.6064    2 B    0 0 0
  38 O    1     2.3885     4.5136   37 O    1 2-3
  38 O    1     2.3912     4.5187   39 O    1 2-3
  38 O    1     2.5351     4.7906   19 C    1 1-1
  38 O    1     2.5405     4.8008   30 C    1 2-3

  39 O    1     1.3795     2.6069    3 B    0 0 0
  39 O    1     1.3798     2.6075    2 B   -1-2 3
  39 O    1     2.3868     4.5105   37 O    0 0 0
  39 O    1     2.3912     4.5187   38 O   -1-2 3
  39 O    1     2.5416     4.8030   19 C    0-1 2
  39 O    1     2.5427     4.8050   36 C   -1-1 2

  40 O    1     1.3783     2.6045    6 B    0 0 0
  40 O    1     1.3786     2.6051    4 B    0 0 0
  40 O    1     2.3876     4.5119   42 O    0 0 0
  40 O    1     2.3913     4.5189   41 O    0 0 0
  40 O    1     2.5354     4.7912   25 C    0 0 0
  40 O    1     2.5360     4.7923   24 C    0 0 0

  41 O    1     1.3778     2.6037    4 B    0 0 0
  41 O    1     1.3778     2.6037    5 B    0 0 0
  41 O    1     2.3870     4.5107   42 O    0 0 0
  41 O    1     2.3913     4.5189   40 O    0 0 0
  41 O    1     2.5305     4.7819   24 C    0 0 0
  41 O    1     2.5353     4.7911   31 C    0 0 0

  42 O    1     1.3812     2.6101    6 B    0 0 0
  42 O    1     1.3813     2.6104    5 B    0 0 0
  42 O    1     2.3870     4.5107   41 O    0 0 0
  42 O    1     2.3876     4.5119   40 O    0 0 0
  42 O    1     2.5481     4.8152   31 C    0 0 0
  42 O    1     2.5522     4.8230   25 C    0 0 0


 SYMMETRY ALLOWED INTERNAL DEGREE(S) OF FREEDOM: 123
 TTTTTTTTTTTTTTTTTTTTTTTTTTTTTT SYMM        TELAPSE        0.43 TCPU        0.42
 TTTTTTTTTTTTTTTTTTTTTTTTTTTTTT INT_SCREEN  TELAPSE        0.46 TCPU        0.46

 DFT PARAMETERS

     ATOM       ELECTRONS   NET CHARGE   R(ANGSTROM)
   1   5  B       5.0000      0.0000     0.89000000
   7   1  H       1.0000      0.0000     1.11000000
  19   6  C       6.0000      0.0000     0.77000000
  37   8  O       8.0000      0.0000     0.74000000

 SIZE OF GRID=    1285850
 TTTTTTTTTTTTTTTTTTTTTTTTTTTTTT MAKE_GRID2  TELAPSE        9.89 TCPU        9.88
 BECKE WEIGHT FUNCTION
 RADSAFE =     2.00
 TOLERANCES - DENSITY:10**- 6; POTENTIAL:10**- 9; GRID WGT:10**-14

 RADIAL INTEGRATION  - INTERVALS (POINTS,UPPER LIMIT):            1( 75,  4.0*R)

 ANGULAR INTEGRATION - INTERVALS (ACCURACY LEVEL [N. POINTS] UPPER LIMIT):
  1(  4[  86]   0.2)  2(  8[ 194]   0.5)  3( 12[ 350]   0.9)  4( 16[ 974]   3.5)
  5( 12[ 350]9999.0)
 TTTTTTTTTTTTTTTTTTTTTTTTTTTTTT INT_CALC    TELAPSE        9.97 TCPU        9.96
 EEEEEEEEEE INT_CALC TERMINATION  DATE 02 12 2025 TIME 07:59:28.2

 *******************************************************************************
 COF-5_z34_inc_L075                                                              
 CRYSTAL - SCF - TYPE OF CALCULATION :  RESTRICTED CLOSED SHELL
 *******************************************************************************

 CAPPA:IS1  2;IS2  2;IS3  8; K PTS MONK NET  20; SYMMOPS:K SPACE   2;G SPACE   1

 TTTTTTTTTTTTTTTTTTTTTTTTTTTTTT SDIK        TELAPSE       10.57 TCPU       16.95

 AAAAAAAAAAAAAAAAAAAAAAAAAAAAAAAAAAAAAAAAAAAAAAAAAAAAAAAAAAAAAAAAAAAAAAAAAAAAAAA
         ATOMIC WAVEFUNCTION(S)


 NUCLEAR CHARGE  5.0  SYMMETRY SPECIES            S    P
 N. ELECTRONS    5.0  NUMBER OF PRIMITIVE GTOS    8    4
                      NUMBER OF CONTRACTED GTOS   4    2
                      NUMBER OF CLOSED SHELLS     2    0
                      OPEN SHELL OCCUPATION       0    1

  ZNUC  SCFIT    TOTAL HF ENERGY   KINETIC ENERGY   VIRIAL THEOREM ACCURACY
   5.0    11    -2.451164084E+01  2.462155050E+01 -1.995536038E+00  1.5E-06

 NUCLEAR CHARGE  1.0  SYMMETRY SPECIES            S
 N. ELECTRONS    1.0  NUMBER OF PRIMITIVE GTOS    4
                      NUMBER OF CONTRACTED GTOS   2
                      NUMBER OF CLOSED SHELLS     0
                      OPEN SHELL OCCUPATION       1

  ZNUC  SCFIT    TOTAL HF ENERGY   KINETIC ENERGY   VIRIAL THEOREM ACCURACY
   1.0     1    -4.977266687E-01  5.190767460E-01 -1.958869132E+00  0.0E+00

 NUCLEAR CHARGE  6.0  SYMMETRY SPECIES            S    P
 N. ELECTRONS    6.0  NUMBER OF PRIMITIVE GTOS    8    4
                      NUMBER OF CONTRACTED GTOS   4    2
                      NUMBER OF CLOSED SHELLS     2    0
                      OPEN SHELL OCCUPATION       0    2

  ZNUC  SCFIT    TOTAL HF ENERGY   KINETIC ENERGY   VIRIAL THEOREM ACCURACY
   6.0     9    -3.766704647E+01  3.775180683E+01 -1.997754800E+00  1.1E-06

 NUCLEAR CHARGE  8.0  SYMMETRY SPECIES            S    P
 N. ELECTRONS    8.0  NUMBER OF PRIMITIVE GTOS    8    4
                      NUMBER OF CONTRACTED GTOS   4    2
                      NUMBER OF CLOSED SHELLS     2    0
                      OPEN SHELL OCCUPATION       0    4

  ZNUC  SCFIT    TOTAL HF ENERGY   KINETIC ENERGY   VIRIAL THEOREM ACCURACY
   8.0    12    -7.477373220E+01  7.477365593E+01 -2.000001020E+00  3.8E-06

 AAAAAAAAAAAAAAAAAAAAAAAAAAAAAAAAAAAAAAAAAAAAAAAAAAAAAAAAAAAAAAAAAAAAAAAAAAAAAAA

 CHARGE NORMALIZATION FACTOR   1.00000000
 TOTAL ATOMIC CHARGES:
   5.0000000   5.0000000   5.0000000   5.0000000   5.0000000   5.0000000
   1.0000000   1.0000000   1.0000000   1.0000000   1.0000000   1.0000000
   1.0000000   1.0000000   1.0000000   1.0000000   1.0000000   1.0000000
   6.0000000   6.0000000   6.0000000   6.0000000   6.0000000   6.0000000
   6.0000000   6.0000000   6.0000000   6.0000000   6.0000000   6.0000000
   6.0000000   6.0000000   6.0000000   6.0000000   6.0000000   6.0000000
   8.0000000   8.0000000   8.0000000   8.0000000   8.0000000   8.0000000
 TTTTTTTTTTTTTTTTTTTTTTTTTTTTTT MOQGAD      TELAPSE       10.62 TCPU       18.16
 TTTTTTTTTTTTTTTTTTTTTTTTTTTTTT SHELLXN     TELAPSE       18.45 TCPU      264.14
 TTTTTTTTTTTTTTTTTTTTTTTTTTTTTT MONMO3      TELAPSE       18.60 TCPU      268.95
 NUMERICALLY INTEGRATED DENSITY    197.9999766466
 TTTTTTTTTTTTTTTTTTTTTTTTTTTTTT NUMDFT      TELAPSE       19.28 TCPU      290.67
 CYC   0 ETOT(AU) -1.295960869443E+03 DETOT -1.30E+03 tst  0.00E+00 PX  1.00E+00
 TTTTTTTTTTTTTTTTTTTTTTTTTTTTTT DIIS        TELAPSE       19.32 TCPU      291.90
 TTTTTTTTTTTTTTTTTTTTTTTTTTTTTT FDIK        TELAPSE       19.80 TCPU      307.38
 INSULATING STATE
 TOP OF VALENCE BANDS -    BAND     99; K    1; EIG -3.0579952E-01 AU
 BOTTOM OF VIRTUAL BANDS - BAND    100; K    1; EIG -1.6098918E-01 AU
 DIRECT ENERGY BAND GAP:   3.9405 eV
 TTTTTTTTTTTTTTTTTTTTTTTTTTTTTT PDIG        TELAPSE       20.15 TCPU      313.58
 CHARGE NORMALIZATION FACTOR   1.00000000
 TOTAL ATOMIC CHARGES:
   4.1408107   4.1554995   4.1567398   4.1583143   4.1559277   4.1389330
   0.7854896   0.7854487   0.7856380   0.7856886   0.7858241   0.7857154
   0.7867106   0.7862725   0.7852122   0.7857916   0.7858712   0.7860976
   6.0436028   6.2672269   6.2672177   6.2667796   6.2654593   6.0460020
   6.0447057   6.2682640   6.2663558   6.2691023   6.2687967   6.0480370
   6.0428982   6.2671444   6.2681506   6.2662453   6.2678792   6.0402796
   8.6984934   8.6977485   8.6989739   8.6973776   8.6975411   8.6997333
 TTTTTTTTTTTTTTTTTTTTTTTTTTTTTT MOQGAD      TELAPSE       20.19 TCPU      313.62
 TTTTTTTTTTTTTTTTTTTTTTTTTTTTTT SHELLXN     TELAPSE       28.20 TCPU      569.12
 TTTTTTTTTTTTTTTTTTTTTTTTTTTTTT MONMO3      TELAPSE       28.35 TCPU      573.91
 NUMERICALLY INTEGRATED DENSITY    197.9999782111
 TTTTTTTTTTTTTTTTTTTTTTTTTTTTTT NUMDFT      TELAPSE       29.04 TCPU      595.91
 CYC   1 ETOT(AU) -1.288819167471E+03 DETOT  7.14E+00 tst  0.00E+00 PX  1.00E+00
 TTTTTTTTTTTTTTTTTTTTTTTTTTTTTT DIIS        TELAPSE       29.09 TCPU      597.47
 DIIS TEST: 0.11124E+01 AT SCF   CYCLE   1 - MIX   30 %
 TTTTTTTTTTTTTTTTTTTTTTTTTTTTTT FDIK        TELAPSE       29.58 TCPU      613.22
 INSULATING STATE
 TOP OF VALENCE BANDS -    BAND     99; K    1; EIG -2.1612086E-01 AU
 BOTTOM OF VIRTUAL BANDS - BAND    100; K    1; EIG -8.7947279E-02 AU
 DIRECT ENERGY BAND GAP:   3.4878 eV
 TTTTTTTTTTTTTTTTTTTTTTTTTTTTTT PDIG        TELAPSE       29.92 TCPU      619.42
 CHARGE NORMALIZATION FACTOR   1.00000000
 TOTAL ATOMIC CHARGES:
   4.7079136   4.6991469   4.6989855   4.6998859   4.6987519   4.7080242
   0.9059333   0.9063657   0.9068771   0.9068128   0.9035654   0.9032029
   0.9038006   0.9041311   0.9056896   0.9059272   0.9067583   0.9067549
   5.8717274   6.1483853   6.1468738   6.1298081   6.1307688   5.8673758
   5.8988828   6.1246008   6.1256439   6.1304476   6.1267401   5.8924238
   5.8720085   6.1437075   6.1462073   6.1314520   6.1292906   5.8741071
   8.3420185   8.3409711   8.3325240   8.3402938   8.3291179   8.3460966
 TTTTTTTTTTTTTTTTTTTTTTTTTTTTTT MOQGAD      TELAPSE       29.97 TCPU      619.47
 TTTTTTTTTTTTTTTTTTTTTTTTTTTTTT SHELLXN     TELAPSE       37.99 TCPU      875.21
 TTTTTTTTTTTTTTTTTTTTTTTTTTTTTT MONMO3      TELAPSE       38.14 TCPU      879.99
 NUMERICALLY INTEGRATED DENSITY    197.9999759792
 TTTTTTTTTTTTTTTTTTTTTTTTTTTTTT NUMDFT      TELAPSE       38.83 TCPU      902.06
 CYC   2 ETOT(AU) -1.289011633760E+03 DETOT -1.92E-01 tst  3.25E-03 PX  1.60E-01
 TTTTTTTTTTTTTTTTTTTTTTTTTTTTTT DIIS        TELAPSE       38.88 TCPU      903.73
 DIIS TEST: 0.46601E+00 AT SCF   CYCLE   2 - DIIS ACTIVE - HISTORY:     2 CYCLES
 TTTTTTTTTTTTTTTTTTTTTTTTTTTTTT FDIK        TELAPSE       39.37 TCPU      919.43
 INSULATING STATE
 TOP OF VALENCE BANDS -    BAND     99; K    1; EIG -2.2958170E-01 AU
 BOTTOM OF VIRTUAL BANDS - BAND    100; K    1; EIG -8.1657009E-02 AU
 DIRECT ENERGY BAND GAP:   4.0252 eV
 TTTTTTTTTTTTTTTTTTTTTTTTTTTTTT PDIG        TELAPSE       39.71 TCPU      925.62
 CHARGE NORMALIZATION FACTOR   1.00000000
 TOTAL ATOMIC CHARGES:
   4.4906630   4.4921666   4.4924159   4.4943368   4.4925283   4.4893289
   0.8855307   0.8852996   0.8861520   0.8861261   0.8818565   0.8815743
   0.8829311   0.8823829   0.8843557   0.8853300   0.8862626   0.8859482
   5.8910246   6.1650286   6.1656203   6.1637181   6.1639322   5.8932814
   5.8901336   6.1657298   6.1667625   6.1686184   6.1690994   5.8934945
   5.8925504   6.1646732   6.1654110   6.1651325   6.1649639   5.8913511
   8.5146318   8.5138509   8.5189788   8.5131273   8.5172389   8.5164577
 TTTTTTTTTTTTTTTTTTTTTTTTTTTTTT MOQGAD      TELAPSE       39.76 TCPU      925.67
 TTTTTTTTTTTTTTTTTTTTTTTTTTTTTT SHELLXN     TELAPSE       47.78 TCPU     1181.38
 TTTTTTTTTTTTTTTTTTTTTTTTTTTTTT MONMO3      TELAPSE       47.93 TCPU     1186.16
 NUMERICALLY INTEGRATED DENSITY    197.9999747084
 TTTTTTTTTTTTTTTTTTTTTTTTTTTTTT NUMDFT      TELAPSE       48.61 TCPU     1208.15
 CYC   3 ETOT(AU) -1.289107207938E+03 DETOT -9.56E-02 tst  7.65E-04 PX  6.57E-02
 TTTTTTTTTTTTTTTTTTTTTTTTTTTTTT DIIS        TELAPSE       48.67 TCPU     1209.99
 DIIS TEST: 0.13613E-01 AT SCF   CYCLE   3 - DIIS ACTIVE - HISTORY:     3 CYCLES
 TTTTTTTTTTTTTTTTTTTTTTTTTTTTTT FDIK        TELAPSE       49.23 TCPU     1227.46
 INSULATING STATE
 TOP OF VALENCE BANDS -    BAND     99; K    1; EIG -2.3850632E-01 AU
 BOTTOM OF VIRTUAL BANDS - BAND    100; K    1; EIG -9.0206875E-02 AU
 DIRECT ENERGY BAND GAP:   4.0354 eV
 TTTTTTTTTTTTTTTTTTTTTTTTTTTTTT PDIG        TELAPSE       49.56 TCPU     1233.65
 CHARGE NORMALIZATION FACTOR   1.00000000
 TOTAL ATOMIC CHARGES:
   4.4973821   4.4974773   4.4976076   4.4989790   4.4970077   4.4964026
   0.8681645   0.8685060   0.8696309   0.8698349   0.8661034   0.8661323
   0.8670291   0.8671710   0.8676920   0.8682766   0.8700390   0.8697866
   5.9422833   6.1766501   6.1751080   6.1648241   6.1640813   5.9391116
   5.9584423   6.1640744   6.1627464   6.1670965   6.1637687   5.9537918
   5.9409425   6.1741092   6.1757706   6.1649601   6.1646490   5.9419299
   8.4866384   8.4856668   8.4789923   8.4852994   8.4760976   8.4897433
 TTTTTTTTTTTTTTTTTTTTTTTTTTTTTT MOQGAD      TELAPSE       49.61 TCPU     1233.69
 TTTTTTTTTTTTTTTTTTTTTTTTTTTTTT SHELLXN     TELAPSE       57.63 TCPU     1489.43
 TTTTTTTTTTTTTTTTTTTTTTTTTTTTTT MONMO3      TELAPSE       57.78 TCPU     1494.21
 NUMERICALLY INTEGRATED DENSITY    197.9999755549
 TTTTTTTTTTTTTTTTTTTTTTTTTTTTTT NUMDFT      TELAPSE       58.47 TCPU     1516.26
 CYC   4 ETOT(AU) -1.289110060210E+03 DETOT -2.85E-03 tst  3.99E-05 PX  1.47E-02
 TTTTTTTTTTTTTTTTTTTTTTTTTTTTTT DIIS        TELAPSE       58.53 TCPU     1518.21
 DIIS TEST: 0.38412E-02 AT SCF   CYCLE   4 - DIIS ACTIVE - HISTORY:     4 CYCLES
 TTTTTTTTTTTTTTTTTTTTTTTTTTTTTT FDIK        TELAPSE       59.02 TCPU     1534.07
 INSULATING STATE
 TOP OF VALENCE BANDS -    BAND     99; K    1; EIG -2.3711885E-01 AU
 BOTTOM OF VIRTUAL BANDS - BAND    100; K    1; EIG -9.0057836E-02 AU
 DIRECT ENERGY BAND GAP:   4.0017 eV
 TTTTTTTTTTTTTTTTTTTTTTTTTTTTTT PDIG        TELAPSE       59.36 TCPU     1540.27
 CHARGE NORMALIZATION FACTOR   1.00000000
 TOTAL ATOMIC CHARGES:
   4.5016848   4.4996318   4.4997939   4.5014559   4.4996403   4.5006611
   0.8713657   0.8712706   0.8722406   0.8721898   0.8683349   0.8679897
   0.8692679   0.8688694   0.8705002   0.8713201   0.8723970   0.8722140
   5.9214033   6.1743127   6.1745100   6.1670224   6.1673927   5.9226033
   5.9301754   6.1668177   6.1678776   6.1699615   6.1696170   5.9317630
   5.9228646   6.1730948   6.1741229   6.1683048   6.1676176   5.9219869
   8.4935239   8.4926280   8.4928955   8.4919310   8.4909873   8.4957581
 TTTTTTTTTTTTTTTTTTTTTTTTTTTTTT MOQGAD      TELAPSE       59.41 TCPU     1540.31
 TTTTTTTTTTTTTTTTTTTTTTTTTTTTTT SHELLXN     TELAPSE       67.42 TCPU     1796.03
 TTTTTTTTTTTTTTTTTTTTTTTTTTTTTT MONMO3      TELAPSE       67.57 TCPU     1800.82
 NUMERICALLY INTEGRATED DENSITY    197.9999753898
 TTTTTTTTTTTTTTTTTTTTTTTTTTTTTT NUMDFT      TELAPSE       68.26 TCPU     1822.83
 CYC   5 ETOT(AU) -1.289110937437E+03 DETOT -8.77E-04 tst  6.95E-06 PX  7.36E-03
 TTTTTTTTTTTTTTTTTTTTTTTTTTTTTT DIIS        TELAPSE       68.33 TCPU     1825.05
 DIIS TEST: 0.84493E-04 AT SCF   CYCLE   5 - DIIS ACTIVE - HISTORY:     5 CYCLES
 TTTTTTTTTTTTTTTTTTTTTTTTTTTTTT FDIK        TELAPSE       68.83 TCPU     1840.87
 INSULATING STATE
 TOP OF VALENCE BANDS -    BAND     99; K    1; EIG -2.3693181E-01 AU
 BOTTOM OF VIRTUAL BANDS - BAND    100; K    1; EIG -8.9462172E-02 AU
 DIRECT ENERGY BAND GAP:   4.0129 eV
 TTTTTTTTTTTTTTTTTTTTTTTTTTTTTT PDIG        TELAPSE       69.16 TCPU     1847.06
 CHARGE NORMALIZATION FACTOR   1.00000000
 TOTAL ATOMIC CHARGES:
   4.5001031   4.4998182   4.4999803   4.5014697   4.4996268   4.4990704
   0.8720515   0.8722891   0.8730107   0.8731999   0.8691979   0.8692233
   0.8701134   0.8701369   0.8714368   0.8720855   0.8733678   0.8730458
   5.9235735   6.1749045   6.1736848   6.1666747   6.1658286   5.9211511
   5.9329151   6.1672194   6.1659552   6.1702811   6.1675756   5.9295762
   5.9223337   6.1728019   6.1742641   6.1669003   6.1669465   5.9232572
   8.4940698   8.4932118   8.4903506   8.4927984   8.4875439   8.4969551
 TTTTTTTTTTTTTTTTTTTTTTTTTTTTTT MOQGAD      TELAPSE       69.21 TCPU     1847.11
 TTTTTTTTTTTTTTTTTTTTTTTTTTTTTT SHELLXN     TELAPSE       77.23 TCPU     2102.94
 TTTTTTTTTTTTTTTTTTTTTTTTTTTTTT MONMO3      TELAPSE       77.38 TCPU     2107.73
 NUMERICALLY INTEGRATED DENSITY    197.9999753660
 TTTTTTTTTTTTTTTTTTTTTTTTTTTTTT NUMDFT      TELAPSE       78.07 TCPU     2129.77
 CYC   6 ETOT(AU) -1.289110955897E+03 DETOT -1.85E-05 tst  2.25E-07 PX  1.68E-03
 TTTTTTTTTTTTTTTTTTTTTTTTTTTTTT DIIS        TELAPSE       78.14 TCPU     2132.06
 DIIS TEST: 0.23283E-04 AT SCF   CYCLE   6 - DIIS ACTIVE - HISTORY:     6 CYCLES
 TTTTTTTTTTTTTTTTTTTTTTTTTTTTTT FDIK        TELAPSE       78.64 TCPU     2147.87
 INSULATING STATE
 TOP OF VALENCE BANDS -    BAND     99; K    1; EIG -2.3694791E-01 AU
 BOTTOM OF VIRTUAL BANDS - BAND    100; K    1; EIG -8.9551264E-02 AU
 DIRECT ENERGY BAND GAP:   4.0109 eV
 TTTTTTTTTTTTTTTTTTTTTTTTTTTTTT PDIG        TELAPSE       78.97 TCPU     2154.06
 CHARGE NORMALIZATION FACTOR   1.00000000
 TOTAL ATOMIC CHARGES:
   4.5007963   4.4996249   4.4997983   4.5014138   4.4995742   4.4997358
   0.8721697   0.8721599   0.8731169   0.8731124   0.8692451   0.8689817
   0.8701681   0.8698879   0.8713677   0.8721431   0.8733119   0.8731110
   5.9222962   6.1739898   6.1738224   6.1662039   6.1663963   5.9226710
   5.9315709   6.1661452   6.1667320   6.1692964   6.1683267   5.9319249
   5.9231994   6.1725327   6.1737122   6.1673201   6.1666833   5.9226552
   8.4935375   8.4926137   8.4914213   8.4919803   8.4893395   8.4959106
 TTTTTTTTTTTTTTTTTTTTTTTTTTTTTT MOQGAD      TELAPSE       79.02 TCPU     2154.10
 TTTTTTTTTTTTTTTTTTTTTTTTTTTTTT SHELLXN     TELAPSE       87.04 TCPU     2409.89
 TTTTTTTTTTTTTTTTTTTTTTTTTTTTTT MONMO3      TELAPSE       87.19 TCPU     2414.69
 NUMERICALLY INTEGRATED DENSITY    197.9999753668
 TTTTTTTTTTTTTTTTTTTTTTTTTTTTTT NUMDFT      TELAPSE       87.88 TCPU     2436.69
 CYC   7 ETOT(AU) -1.289110960683E+03 DETOT -4.79E-06 tst  8.28E-08 PX  6.74E-04
 TTTTTTTTTTTTTTTTTTTTTTTTTTTTTT DIIS        TELAPSE       87.96 TCPU     2439.25
 DIIS TEST: 0.19970E-05 AT SCF   CYCLE   7 - DIIS ACTIVE - HISTORY:     7 CYCLES
 TTTTTTTTTTTTTTTTTTTTTTTTTTTTTT FDIK        TELAPSE       88.46 TCPU     2455.15
 INSULATING STATE
 TOP OF VALENCE BANDS -    BAND     99; K    1; EIG -2.3695054E-01 AU
 BOTTOM OF VIRTUAL BANDS - BAND    100; K    1; EIG -8.9578877E-02 AU
 DIRECT ENERGY BAND GAP:   4.0102 eV
 TTTTTTTTTTTTTTTTTTTTTTTTTTTTTT PDIG        TELAPSE       88.80 TCPU     2461.34
 CHARGE NORMALIZATION FACTOR   1.00000000
 TOTAL ATOMIC CHARGES:
   4.5008852   4.4997197   4.4998848   4.5014650   4.4996239   4.4998484
   0.8720973   0.8721592   0.8730447   0.8731142   0.8691635   0.8690002
   0.8700937   0.8698984   0.8713481   0.8720900   0.8733040   0.8730488
   5.9226757   6.1742170   6.1737456   6.1663941   6.1661643   5.9221172
   5.9319815   6.1664928   6.1664353   6.1695745   6.1681094   5.9311899
   5.9228401   6.1725834   6.1738113   6.1671450   6.1668236   5.9228325
   8.4935692   8.4926943   8.4914485   8.4921349   8.4891008   8.4961300
 TTTTTTTTTTTTTTTTTTTTTTTTTTTTTT MOQGAD      TELAPSE       88.84 TCPU     2461.39
 TTTTTTTTTTTTTTTTTTTTTTTTTTTTTT SHELLXN     TELAPSE       96.87 TCPU     2717.30
 TTTTTTTTTTTTTTTTTTTTTTTTTTTTTT MONMO3      TELAPSE       97.02 TCPU     2722.09
 NUMERICALLY INTEGRATED DENSITY    197.9999753656
 TTTTTTTTTTTTTTTTTTTTTTTTTTTTTT NUMDFT      TELAPSE       97.71 TCPU     2744.11
 CYC   8 ETOT(AU) -1.289110961038E+03 DETOT -3.55E-07 tst  8.44E-09 PX  1.70E-04
 TTTTTTTTTTTTTTTTTTTTTTTTTTTTTT DIIS        TELAPSE       97.79 TCPU     2746.74
 DIIS TEST: 0.12697E-06 AT SCF   CYCLE   8 - DIIS ACTIVE - HISTORY:     8 CYCLES
 TTTTTTTTTTTTTTTTTTTTTTTTTTTTTT FDIK        TELAPSE       98.29 TCPU     2762.55
 INSULATING STATE
 TOP OF VALENCE BANDS -    BAND     99; K    1; EIG -2.3695312E-01 AU
 BOTTOM OF VIRTUAL BANDS - BAND    100; K    1; EIG -8.9571951E-02 AU
 DIRECT ENERGY BAND GAP:   4.0104 eV
 TTTTTTTTTTTTTTTTTTTTTTTTTTTTTT PDIG        TELAPSE       98.62 TCPU     2768.74
 CHARGE NORMALIZATION FACTOR   1.00000000
 TOTAL ATOMIC CHARGES:
   4.5008269   4.4997310   4.4998959   4.5014812   4.4996402   4.4997834
   0.8720962   0.8721465   0.8730475   0.8730903   0.8691747   0.8689821
   0.8700974   0.8698887   0.8713394   0.8720849   0.8732828   0.8730505
   5.9225388   6.1742183   6.1737964   6.1663331   6.1662637   5.9222382
   5.9317942   6.1664358   6.1665644   6.1695645   6.1681794   5.9312654
   5.9229169   6.1726060   6.1738469   6.1672267   6.1667701   5.9227397
   8.4936561   8.4927535   8.4912931   8.4921734   8.4890310   8.4961549
 TTTTTTTTTTTTTTTTTTTTTTTTTTTTTT MOQGAD      TELAPSE       98.67 TCPU     2768.79
 TTTTTTTTTTTTTTTTTTTTTTTTTTTTTT SHELLXN     TELAPSE      106.70 TCPU     3024.81
 +++ ENERGIES IN A.U. +++
 ::: EXT EL-POLE                                  -1.5311227828601E+03
 ::: EXT EL-SPHEROPOLE                             1.6828535945751E+01
 ::: BIELET ZONE E-E                               2.1574572913469E+03
 ::: TOTAL E-E                                     6.4316304443252E+02
 ::: TOTAL E-N + N-E                              -3.1111294556274E+03
 ::: TOTAL N-N                                     3.2638334807480E+01
 ::: KINETIC ENERGY                                1.2799343391788E+03
 ::: PSEUDO TOTAL   ENERGY                        -1.1553937372087E+03
 ::: VIRIAL COEFFICIENT                            1.0511391476071E+00
 TTTTTTTTTTTTTTTTTTTTTTTTTTTTTT MONMO3      TELAPSE      106.85 TCPU     3029.61
 NUMERICALLY INTEGRATED DENSITY    197.9999753653
 EXCHANGE ENERGY: -0.126021755153E+03  CORRELATION ENERGY: -0.769546871500E+01
 TTTTTTTTTTTTTTTTTTTTTTTTTTTTTT NUMDFT      TELAPSE      107.54 TCPU     3051.59
 CYC   9 ETOT(AU) -1.289110961077E+03 DETOT -3.90E-08 tst  5.77E-10 PX  1.70E-04

 == SCF ENDED - CONVERGENCE ON ENERGY      E(AU) -1.2891109610770E+03 CYCLES   9


 ENERGY EXPRESSION=HARTREE+FOCK EXCH*0.00000+(HSESOL     EXCH)*1.00000+PBESOL     CORR


 TOTAL ENERGY(DFT)(AU)(  9) -1.2891109610770E+03 DE-3.9E-08 tester 5.8E-10
 TTTTTTTTTTTTTTTTTTTTTTTTTTTTTT EDFT        TELAPSE      107.54 TCPU     3051.60
 
 INFORMATION **** DFTD3 ENERGY **** CALCULATE DFTD3 ENERGY

           DFT-D V3(BJ)
 DF                                         hsesol3c  
 parameters
 s6       :    1.0000
 s8       :    0.0000
 a1       :    0.5196
 a2       :    4.9385
 k1 k3    :   16.0000   -4.0000
 Cutoff   :   50.2022
 CN-Cutoff:   21.1671
 ABC-Cutoff:   21.1671
 
 Edisp /kcal,au:   -26.6268 -0.04243245

 E6    /kcal :   -28.2556
 E8    /kcal :     0.0000
 E6(ABC) "   :   1.628828
 
 INFORMATION **** DFTD3 ENERGY **** NORMAL TERMINATION OF DFTD3 MODULE

 GCP ENERGY CALCULATION
  level        hsesol3c            basis:hsesol3c
  Nbf            474
  Atoms           42

  Parameters: 
  sigma     1.0000
  eta       1.4281
  alpha     0.2936
  beta      1.9467

  dmp_scal      4.0000
  dmp_exp       6.0000
 cutoffs: 
   distance [bohr] 60.0
   noise    [a.u.] 2.2E-16
 SR-damping   T
 ** gCP correction **
  Egcp:        0.0834974782 / (a.u.) ||      52.3955 / (kcal/mol)
 INFORMATION **** GCP **** NORMAL TERMINATION OF GCP MODULE

 *******************************************************************************

 DFT-D3-GCP DISPERSION AND COUNTERPOISE CORRECTION

 D3 DISPERSION ENERGY (AU)      -4.2432447697296E-02
 GCP ENERGY (AU)                 8.3497478248132E-02
 TOTAL ENERGY + DISP + GCP (AU) -1.2890698960464E+03

 *******************************************************************************

 EIGENVECTORS IN FORTRAN UNIT 10
 TTTTTTTTTTTTTTTTTTTTTTTTTTTTTT END         TELAPSE      109.51 TCPU     3059.55
 EEEEEEEEEE TERMINATION  DATE 02 12 2025 TIME 08:01:07.8
