 Default number of threads is:           32

         
 *******************************************************************************
 *                                                                             *
 *                               CRYSTAL23                                     *
 *                      public : 1.0.1 - October 2022                          *
 *                       HTTP://WWW.CRYSTAL.UNITO.IT                           *
 *                                                                             *
 *                              MAIN AUTHORS                                   *
 *                                                                             *
 *  R. DOVESI(1,11), V.R. SAUNDERS(2), C. ROETTI(1,11), R. ORLANDO(1,11),      *
 *  C.M. ZICOVICH-WILSON(1,3), F. PASCALE(4), B. CIVALLERI(1,11),              *
 *  K. DOLL(5), N.M. HARRISON(6), I.J. BUSH(7), Ph. D'ARCO(8),                 *
 *  M. LLUNELL(9), M. CAUSA'(10), Y. NOEL(8), L. MASCHIO(1,11), A. ERBA(1,11)  *
 *  M. RE'RAT(14), S. CASASSA(1,11), B.G. SEARLE(2), J.K. DESMARAIS(1)         *
 *                                                                             *
 *        CONTRIBUTIONS TO THE CODE HAVE ALSO BEEN GIVEN BY                    *
 *                                                                             *
 *  M. FERRABONE(1,11), M. DE LA PIERRE(1,11), M. FERRERO(1,11),               *
 *  J. BAIMA(1,11), E. ALBANESE(1,11), M.F. PEINTINGER(12), R. BAST(13),       *
 *  B. KIRTMAN(15), V. LACIVITA(1,11), R. DEMICHELIS(1,16)                     *
 *  G. BRANDEBURG(17), S. SALUSTRO(1,11), G. SANSONE(1,11)                     *
 *  M.T. RUGGIERO(18), L.E. DAGA(1), L. DONA'(1), A. COSSARD(1)                *
 *                                                                             *
 * (1) THEORETICAL CHEMISTRY GROUP - UNIVERSITA' DI TORINO - TORINO (ITALY)    *
 * (2) SCIENTIFIC COMPUTING DEPARTMENT - STFC DARESBURY (UK)                   *
 * (3) UNIVERSIDAD AUTONOMA DEL ESTADO DE MORELOS - CUERNAVACA (MEXICO)        *
 * (4) UNIVERSITE' DE LORRAINE - NANCY (FRANCE)                                *
 * (5) UNIVERSITAET STUTTGART- STUTTGART (GERMANY)                             *
 * (6) IMPERIAL COLLEGE - LONDON (UK)                                          *
 * (7) SCIENTIFIC COMPUTING DEPARTMENT - STFC RAL (UK)                         *
 * (8) UPMC - SORBONNE UNIVERSITES - PARIS (FRANCE)                            *
 * (9) UNIVERSIDAD DE BARCELONA - BARCELONA (SPAIN)                            *
 *(10) UNIVERSITA' DI NAPOLI "FEDERICO II" - NAPOLI (ITALY)                    *
 *(11) NIS - NANOSTRUCTURED INTERFACES AND SURFACES - TORINO (ITALY)           *
 *(12) MPI FUER CHEMISCHE ENERGIEKONVERSION - MUELHEIM AN DER RUHR (GERMANY)   *
 *(13) UNIVERSITY OF TROMSO - TROMSO (NORWAY)                                  *
 *(14) UNIVERSITE' DE PAU ET DES PAYS DE L'ADOUR - PAU (FRANCE)                *
 *(15) UNIVERSITY OF CALIFORNIA SANTA BARBARA - SANTA BARBARA (USA)            *
 *(16) CURTIN UNIVERSITY - PERTH (AUSTRALIA)                                   *
 *(17) UNIVERSITY COLLEGE LONDON - LONDON (UK)                                 *
 *(18) UNIVERSITY OF VERMONT - BURLINGTON (USA)                                *
 *                                                                             *
 *******************************************************************************
 EEEEEEEEEE STARTING  DATE 19 02 2026 TIME 19:26:09.7
 cof-1_z30_L030_serr                                                             

 CRYSTAL CALCULATION
 (INPUT ACCORDING TO THE INTERNATIONAL TABLES FOR X-RAY CRYSTALLOGRAPHY)
 CRYSTAL FAMILY                       :  TRICLINIC   
 CRYSTAL CLASS  (GROTH - 1921)        :  TRICLINIC PEDIAL                     

 SPACE GROUP (NONCENTROSYMMETRIC)     :  P 1             

 LATTICE PARAMETERS  (ANGSTROMS AND DEGREES) - CONVENTIONAL CELL
        A           B           C        ALPHA        BETA       GAMMA
    15.02361    15.02392     6.00000    90.00032    89.99994   119.99596


 NUMBER OF IRREDUCIBLE ATOMS IN THE CONVENTIONAL CELL:   84

 INPUT COORDINATES

 ATOM AT. N.              COORDINATES
   1   5     6.136805400000E-01  2.273182200000E-01  2.507961200000E-01
   2   5     7.289503700000E-01  4.578813200000E-01  7.507961200000E-01
   3   5     7.727362000000E-01  3.863778800000E-01  2.507961300000E-01
   4   5     8.880060300000E-01  6.169409800000E-01  7.507961300000E-01
   5   5     6.136762700000E-01  3.863606700000E-01  2.491222600000E-01
   6   5     7.289461000000E-01  6.169237700000E-01  7.491222600000E-01
   7   5     2.272552500000E-01  6.136332200000E-01  2.507961300000E-01
   8   5     3.425250800000E-01  8.441963200000E-01  7.507961300000E-01
   9   5     3.863632200000E-01  6.136124500000E-01  2.507961200000E-01
  10   5     5.016330500000E-01  8.441755500000E-01  7.507961200000E-01
  11   5     3.863435000000E-01  7.727516500000E-01  2.491222700000E-01
  12   5     5.016133300000E-01  3.314750000000E-03  7.491222600000E-01
  13   1     9.030436200000E-01  3.089300500000E-01  2.473258700000E-01
  14   1     1.831345000000E-02  5.394931500000E-01  7.473258700000E-01
  15   1     9.663453000000E-02  6.910534400000E-01  2.467952100000E-01
  16   1     2.119043600000E-01  9.216165400000E-01  7.467952100000E-01
  17   1     9.029714200000E-01  5.940724300000E-01  2.467135400000E-01
  18   1     1.824125000000E-02  8.246355300000E-01  7.467135400000E-01
  19   1     9.673618000000E-02  4.056849400000E-01  2.467339100000E-01
  20   1     2.120060100000E-01  6.362480400000E-01  7.467339100000E-01
  21   1     6.910324000000E-01  9.700412000000E-02  2.526741600000E-01
  22   1     8.063022300000E-01  3.275672200000E-01  7.526741500000E-01
  23   1     3.089297200000E-01  9.034373100000E-01  2.532048500000E-01
  24   1     4.241995500000E-01  1.340004100000E-01  7.532048500000E-01
  25   1     4.058699900000E-01  9.704998000000E-02  2.532865700000E-01
  26   1     5.211398200000E-01  3.276130800000E-01  7.532865700000E-01
  27   1     5.943122100000E-01  9.033473200000E-01  2.532660600000E-01
  28   1     7.095820400000E-01  1.339104200000E-01  7.532660700000E-01
  29   1     6.910727400000E-01  5.940542100000E-01  2.473259000000E-01
  30   1     8.063425700000E-01  8.246173100000E-01  7.473259000000E-01
  31   1     3.089618300000E-01  4.056093300000E-01  2.467951800000E-01
  32   1     4.242316600000E-01  6.361724300000E-01  7.467951700000E-01
  33   1     4.058405700000E-01  3.088232500000E-01  2.467134700000E-01
  34   1     5.211104000000E-01  5.393863500000E-01  7.467134700000E-01
  35   1     5.942908800000E-01  6.909579300000E-01  2.467339700000E-01
  36   1     7.095607100000E-01  9.215210300000E-01  7.467339700000E-01
  37   6     8.918903100000E-01  4.459436900000E-01  2.490610100000E-01
  38   6     7.160140000000E-03  6.765067900000E-01  7.490610100000E-01
  39   6     9.464891100000E-01  3.927856300000E-01  2.474075400000E-01
  40   6     6.175894000000E-02  6.233487300000E-01  7.474075300000E-01
  41   6     5.338812000000E-02  6.071853000000E-01  2.472647000000E-01
  42   6     1.686579500000E-01  8.377484000000E-01  7.472647000000E-01
  43   6     9.464521100000E-01  5.536921900000E-01  2.476933600000E-01
  44   6     6.172194000000E-02  7.842552900000E-01  7.476933600000E-01
  45   6     5.342634000000E-02  4.462499700000E-01  2.465910100000E-01
  46   6     1.686961700000E-01  6.768130700000E-01  7.465910200000E-01
  47   6     1.080358900000E-01  5.540356300000E-01  2.477137600000E-01
  48   6     2.233057200000E-01  7.845987300000E-01  7.477137600000E-01
  49   6     5.540394200000E-01  1.081684600000E-01  2.509390200000E-01
  50   6     6.693092500000E-01  3.387315600000E-01  7.509390200000E-01
  51   6     6.071778500000E-01  5.355594000000E-02  2.525924800000E-01
  52   6     7.224476800000E-01  2.841190400000E-01  7.525924800000E-01
  53   6     3.927986700000E-01  9.466631600000E-01  2.527353700000E-01
  54   6     5.080685000000E-01  1.772262600000E-01  7.527353700000E-01
  55   6     4.462875800000E-01  5.360286000000E-02  2.523067200000E-01
  56   6     5.615574100000E-01  2.841659600000E-01  7.523067200000E-01
  57   6     5.537168500000E-01  9.466235600000E-01  2.534089800000E-01
  58   6     6.689866800000E-01  1.771866600000E-01  7.534089800000E-01
  59   6     4.459279100000E-01  8.919920600000E-01  2.522862800000E-01
  60   6     5.611977400000E-01  1.225551600000E-01  7.522862800000E-01
  61   6     5.540448700000E-01  4.458745500000E-01  2.490610100000E-01
  62   6     6.693147000000E-01  6.764376500000E-01  7.490610100000E-01
  63   6     6.072102200000E-01  5.536257800000E-01  2.474075700000E-01
  64   6     7.224800500000E-01  7.841888800000E-01  7.474075700000E-01
  65   6     3.928233700000E-01  4.461720300000E-01  2.472646600000E-01
  66   6     5.080932000000E-01  6.767351300000E-01  7.472646600000E-01
  67   6     4.462872600000E-01  3.926899900000E-01  2.476933200000E-01
  68   6     5.615570900000E-01  6.232530900000E-01  7.476933200000E-01
  69   6     5.537429600000E-01  6.070980000000E-01  2.465910600000E-01
  70   6     6.690127900000E-01  8.376611000000E-01  7.465910600000E-01
  71   6     4.459599800000E-01  5.539582300000E-01  2.477137600000E-01
  72   6     5.612298100000E-01  7.845213300000E-01  7.477137600000E-01
  73   8     5.607366800000E-01  2.803706300000E-01  2.495713400000E-01
  74   8     6.760065100000E-01  5.109337300000E-01  7.495713400000E-01
  75   8     7.196817000000E-01  2.803783300000E-01  2.531027900000E-01
  76   8     8.349515300000E-01  5.109414300000E-01  7.531027900000E-01
  77   8     7.196794200000E-01  4.393234600000E-01  2.477750100000E-01
  78   8     8.349492500000E-01  6.698865600000E-01  7.477750100000E-01
  79   8     2.803245100000E-01  7.196511100000E-01  2.495713600000E-01
  80   8     3.955943400000E-01  9.502142100000E-01  7.495713600000E-01
  81   8     2.803439700000E-01  5.606956100000E-01  2.531027900000E-01
  82   8     3.956138000000E-01  7.912587100000E-01  7.531027900000E-01
  83   8     4.392638400000E-01  7.196354200000E-01  2.477750000000E-01
  84   8     5.545336700000E-01  9.501985200000E-01  7.477750000000E-01

 *******************************************************************************

 << INFORMATION >>: FROM NOW ON, ALL COORDINATES REFER TO THE PRIMITIVE CELL

 *******************************************************************************

 LATTICE PARAMETERS  (ANGSTROMS AND DEGREES) - PRIMITIVE CELL
       A          B          C        ALPHA      BETA     GAMMA        VOLUME
   15.02361   15.02392    6.00000    90.00032  89.99994 119.99596   1172.889288

 COORDINATES OF THE EQUIVALENT ATOMS (FRACTIONAL UNITS)

 N. ATOM EQUIV AT. N.          X                  Y                  Z

   1   1   1    5 B    -3.86319460000E-01  2.27318220000E-01  2.50796120000E-01

   2   2   1    5 B    -2.71049630000E-01  4.57881320000E-01 -2.49203880000E-01

   3   3   1    5 B    -2.27263800000E-01  3.86377880000E-01  2.50796130000E-01

   4   4   1    5 B    -1.11993970000E-01 -3.83059020000E-01 -2.49203870000E-01

   5   5   1    5 B    -3.86323730000E-01  3.86360670000E-01  2.49122260000E-01

   6   6   1    5 B    -2.71053900000E-01 -3.83076230000E-01 -2.50877740000E-01

   7   7   1    5 B     2.27255250000E-01 -3.86366780000E-01  2.50796130000E-01

   8   8   1    5 B     3.42525080000E-01 -1.55803680000E-01 -2.49203870000E-01

   9   9   1    5 B     3.86363220000E-01 -3.86387550000E-01  2.50796120000E-01

  10  10   1    5 B    -4.98366950000E-01 -1.55824450000E-01 -2.49203880000E-01

  11  11   1    5 B     3.86343500000E-01 -2.27248350000E-01  2.49122270000E-01

  12  12   1    5 B    -4.98386670000E-01  3.31475000000E-03 -2.50877740000E-01

  13  13   1    1 H    -9.69563800000E-02  3.08930050000E-01  2.47325870000E-01

  14  14   1    1 H     1.83134500000E-02 -4.60506850000E-01 -2.52674130000E-01

  15  15   1    1 H     9.66345300000E-02 -3.08946560000E-01  2.46795210000E-01

  16  16   1    1 H     2.11904360000E-01 -7.83834600000E-02 -2.53204790000E-01

  17  17   1    1 H    -9.70285800000E-02 -4.05927570000E-01  2.46713540000E-01

  18  18   1    1 H     1.82412500000E-02 -1.75364470000E-01 -2.53286460000E-01

  19  19   1    1 H     9.67361800000E-02  4.05684940000E-01  2.46733910000E-01

  20  20   1    1 H     2.12006010000E-01 -3.63751960000E-01 -2.53266090000E-01

  21  21   1    1 H    -3.08967600000E-01  9.70041200000E-02  2.52674160000E-01

  22  22   1    1 H    -1.93697770000E-01  3.27567220000E-01 -2.47325850000E-01

  23  23   1    1 H     3.08929720000E-01 -9.65626900000E-02  2.53204850000E-01

  24  24   1    1 H     4.24199550000E-01  1.34000410000E-01 -2.46795150000E-01

  25  25   1    1 H     4.05869990000E-01  9.70499800000E-02  2.53286570000E-01

  26  26   1    1 H    -4.78860180000E-01  3.27613080000E-01 -2.46713430000E-01

  27  27   1    1 H    -4.05687790000E-01 -9.66526800000E-02  2.53266060000E-01

  28  28   1    1 H    -2.90417960000E-01  1.33910420000E-01 -2.46733930000E-01

  29  29   1    1 H    -3.08927260000E-01 -4.05945790000E-01  2.47325900000E-01

  30  30   1    1 H    -1.93657430000E-01 -1.75382690000E-01 -2.52674100000E-01

  31  31   1    1 H     3.08961830000E-01  4.05609330000E-01  2.46795180000E-01

  32  32   1    1 H     4.24231660000E-01 -3.63827570000E-01 -2.53204830000E-01

  33  33   1    1 H     4.05840570000E-01  3.08823250000E-01  2.46713470000E-01

  34  34   1    1 H    -4.78889600000E-01 -4.60613650000E-01 -2.53286530000E-01

  35  35   1    1 H    -4.05709120000E-01 -3.09042070000E-01  2.46733970000E-01

  36  36   1    1 H    -2.90439290000E-01 -7.84789700000E-02 -2.53266030000E-01

  37  37   1    6 C    -1.08109690000E-01  4.45943690000E-01  2.49061010000E-01

  38  38   1    6 C     7.16014000000E-03 -3.23493210000E-01 -2.50938990000E-01

  39  39   1    6 C    -5.35108900000E-02  3.92785630000E-01  2.47407540000E-01

  40  40   1    6 C     6.17589400000E-02 -3.76651270000E-01 -2.52592470000E-01

  41  41   1    6 C     5.33881200000E-02 -3.92814700000E-01  2.47264700000E-01

  42  42   1    6 C     1.68657950000E-01 -1.62251600000E-01 -2.52735300000E-01

  43  43   1    6 C    -5.35478900000E-02 -4.46307810000E-01  2.47693360000E-01

  44  44   1    6 C     6.17219400000E-02 -2.15744710000E-01 -2.52306640000E-01

  45  45   1    6 C     5.34263400000E-02  4.46249970000E-01  2.46591010000E-01

  46  46   1    6 C     1.68696170000E-01 -3.23186930000E-01 -2.53408980000E-01

  47  47   1    6 C     1.08035890000E-01 -4.45964370000E-01  2.47713760000E-01

  48  48   1    6 C     2.23305720000E-01 -2.15401270000E-01 -2.52286240000E-01

  49  49   1    6 C    -4.45960580000E-01  1.08168460000E-01  2.50939020000E-01

  50  50   1    6 C    -3.30690750000E-01  3.38731560000E-01 -2.49060980000E-01

  51  51   1    6 C    -3.92822150000E-01  5.35559400000E-02  2.52592480000E-01

  52  52   1    6 C    -2.77552320000E-01  2.84119040000E-01 -2.47407520000E-01

  53  53   1    6 C     3.92798670000E-01 -5.33368400000E-02  2.52735370000E-01

  54  54   1    6 C    -4.91931500000E-01  1.77226260000E-01 -2.47264630000E-01

  55  55   1    6 C     4.46287580000E-01  5.36028600000E-02  2.52306720000E-01

  56  56   1    6 C    -4.38442590000E-01  2.84165960000E-01 -2.47693280000E-01

  57  57   1    6 C    -4.46283150000E-01 -5.33764400000E-02  2.53408980000E-01

  58  58   1    6 C    -3.31013320000E-01  1.77186660000E-01 -2.46591020000E-01

  59  59   1    6 C     4.45927910000E-01 -1.08007940000E-01  2.52286280000E-01

  60  60   1    6 C    -4.38802260000E-01  1.22555160000E-01 -2.47713720000E-01

  61  61   1    6 C    -4.45955130000E-01  4.45874550000E-01  2.49061010000E-01

  62  62   1    6 C    -3.30685300000E-01 -3.23562350000E-01 -2.50938990000E-01

  63  63   1    6 C    -3.92789780000E-01 -4.46374220000E-01  2.47407570000E-01

  64  64   1    6 C    -2.77519950000E-01 -2.15811120000E-01 -2.52592430000E-01

  65  65   1    6 C     3.92823370000E-01  4.46172030000E-01  2.47264660000E-01

  66  66   1    6 C    -4.91906800000E-01 -3.23264870000E-01 -2.52735340000E-01

  67  67   1    6 C     4.46287260000E-01  3.92689990000E-01  2.47693320000E-01

  68  68   1    6 C    -4.38442910000E-01 -3.76746910000E-01 -2.52306680000E-01

  69  69   1    6 C    -4.46257040000E-01 -3.92902000000E-01  2.46591060000E-01

  70  70   1    6 C    -3.30987210000E-01 -1.62338900000E-01 -2.53408940000E-01

  71  71   1    6 C     4.45959980000E-01 -4.46041770000E-01  2.47713760000E-01

  72  72   1    6 C    -4.38770190000E-01 -2.15478670000E-01 -2.52286240000E-01

  73  73   1    8 O    -4.39263320000E-01  2.80370630000E-01  2.49571340000E-01

  74  74   1    8 O    -3.23993490000E-01 -4.89066270000E-01 -2.50428660000E-01

  75  75   1    8 O    -2.80318300000E-01  2.80378330000E-01  2.53102790000E-01

  76  76   1    8 O    -1.65048470000E-01 -4.89058570000E-01 -2.46897210000E-01

  77  77   1    8 O    -2.80320580000E-01  4.39323460000E-01  2.47775010000E-01

  78  78   1    8 O    -1.65050750000E-01 -3.30113440000E-01 -2.52224990000E-01

  79  79   1    8 O     2.80324510000E-01 -2.80348890000E-01  2.49571360000E-01

  80  80   1    8 O     3.95594340000E-01 -4.97857900000E-02 -2.50428640000E-01

  81  81   1    8 O     2.80343970000E-01 -4.39304390000E-01  2.53102790000E-01

  82  82   1    8 O     3.95613800000E-01 -2.08741290000E-01 -2.46897210000E-01

  83  83   1    8 O     4.39263840000E-01 -2.80364580000E-01  2.47775000000E-01

  84  84   1    8 O    -4.45466330000E-01 -4.98014800000E-02 -2.52225000000E-01

 NUMBER OF SYMMETRY OPERATORS         :    1
 *******************************************************************************
 * GEOMETRY EDITING - INPUT COORDINATES ARE GIVEN IN ANGSTROM         
 *******************************************************************************

 GCALCO - MAX INDICES DIRECT LATTICE VECTOR    11    11    25
 NO.OF VECTORS CREATED 6999 STARS 3500 RMAX   235.54317 BOHR

 GEOMETRY FOR WAVE FUNCTION - DIMENSIONALITY OF THE SYSTEM    3
 (NON PERIODIC DIRECTION: LATTICE PARAMETER FORMALLY SET TO 500)
 *******************************************************************************
 LATTICE PARAMETERS (ANGSTROMS AND DEGREES) - BOHR = 0.5291772083 ANGSTROM
 PRIMITIVE CELL - CENTRING CODE 1/0 VOLUME=  1172.889288 - DENSITY  1.105 g/cm^3
         A              B              C           ALPHA      BETA       GAMMA 
    15.02361100    15.02391600     6.00000000    90.000323  89.999944 119.995964
 *******************************************************************************
 ATOMS IN THE ASYMMETRIC UNIT   84 - ATOMS IN THE UNIT CELL:   84
     ATOM                 X/A                 Y/B                 Z/C    
 *******************************************************************************
      1 T   5 B    -3.863194600000E-01  2.273182200000E-01  2.507961200000E-01
      2 T   5 B    -2.710496300000E-01  4.578813200000E-01 -2.492038800000E-01
      3 T   5 B    -2.272638000000E-01  3.863778800000E-01  2.507961300000E-01
      4 T   5 B    -1.119939700000E-01 -3.830590200000E-01 -2.492038700000E-01
      5 T   5 B    -3.863237300000E-01  3.863606700000E-01  2.491222600000E-01
      6 T   5 B    -2.710539000000E-01 -3.830762300000E-01 -2.508777400000E-01
      7 T   5 B     2.272552500000E-01 -3.863667800000E-01  2.507961300000E-01
      8 T   5 B     3.425250800000E-01 -1.558036800000E-01 -2.492038700000E-01
      9 T   5 B     3.863632200000E-01 -3.863875500000E-01  2.507961200000E-01
     10 T   5 B    -4.983669500000E-01 -1.558244500000E-01 -2.492038800000E-01
     11 T   5 B     3.863435000000E-01 -2.272483500000E-01  2.491222700000E-01
     12 T   5 B    -4.983866700000E-01  3.314750000000E-03 -2.508777400000E-01
     13 T   1 H    -9.695638000000E-02  3.089300500000E-01  2.473258700000E-01
     14 T   1 H     1.831345000000E-02 -4.605068500000E-01 -2.526741300000E-01
     15 T   1 H     9.663453000000E-02 -3.089465600000E-01  2.467952100000E-01
     16 T   1 H     2.119043600000E-01 -7.838346000000E-02 -2.532047900000E-01
     17 T   1 H    -9.702858000000E-02 -4.059275700000E-01  2.467135400000E-01
     18 T   1 H     1.824125000000E-02 -1.753644700000E-01 -2.532864600000E-01
     19 T   1 H     9.673618000000E-02  4.056849400000E-01  2.467339100000E-01
     20 T   1 H     2.120060100000E-01 -3.637519600000E-01 -2.532660900000E-01
     21 T   1 H    -3.089676000000E-01  9.700412000000E-02  2.526741600000E-01
     22 T   1 H    -1.936977700000E-01  3.275672200000E-01 -2.473258500000E-01
     23 T   1 H     3.089297200000E-01 -9.656269000000E-02  2.532048500000E-01
     24 T   1 H     4.241995500000E-01  1.340004100000E-01 -2.467951500000E-01
     25 T   1 H     4.058699900000E-01  9.704998000000E-02  2.532865700000E-01
     26 T   1 H    -4.788601800000E-01  3.276130800000E-01 -2.467134300000E-01
     27 T   1 H    -4.056877900000E-01 -9.665268000000E-02  2.532660600000E-01
     28 T   1 H    -2.904179600000E-01  1.339104200000E-01 -2.467339300000E-01
     29 T   1 H    -3.089272600000E-01 -4.059457900000E-01  2.473259000000E-01
     30 T   1 H    -1.936574300000E-01 -1.753826900000E-01 -2.526741000000E-01
     31 T   1 H     3.089618300000E-01  4.056093300000E-01  2.467951800000E-01
     32 T   1 H     4.242316600000E-01 -3.638275700000E-01 -2.532048300000E-01
     33 T   1 H     4.058405700000E-01  3.088232500000E-01  2.467134700000E-01
     34 T   1 H    -4.788896000000E-01 -4.606136500000E-01 -2.532865300000E-01
     35 T   1 H    -4.057091200000E-01 -3.090420700000E-01  2.467339700000E-01
     36 T   1 H    -2.904392900000E-01 -7.847897000000E-02 -2.532660300000E-01
     37 T   6 C    -1.081096900000E-01  4.459436900000E-01  2.490610100000E-01
     38 T   6 C     7.160140000000E-03 -3.234932100000E-01 -2.509389900000E-01
     39 T   6 C    -5.351089000000E-02  3.927856300000E-01  2.474075400000E-01
     40 T   6 C     6.175894000000E-02 -3.766512700000E-01 -2.525924700000E-01
     41 T   6 C     5.338812000000E-02 -3.928147000000E-01  2.472647000000E-01
     42 T   6 C     1.686579500000E-01 -1.622516000000E-01 -2.527353000000E-01
     43 T   6 C    -5.354789000000E-02 -4.463078100000E-01  2.476933600000E-01
     44 T   6 C     6.172194000000E-02 -2.157447100000E-01 -2.523066400000E-01
     45 T   6 C     5.342634000000E-02  4.462499700000E-01  2.465910100000E-01
     46 T   6 C     1.686961700000E-01 -3.231869300000E-01 -2.534089800000E-01
     47 T   6 C     1.080358900000E-01 -4.459643700000E-01  2.477137600000E-01
     48 T   6 C     2.233057200000E-01 -2.154012700000E-01 -2.522862400000E-01
     49 T   6 C    -4.459605800000E-01  1.081684600000E-01  2.509390200000E-01
     50 T   6 C    -3.306907500000E-01  3.387315600000E-01 -2.490609800000E-01
     51 T   6 C    -3.928221500000E-01  5.355594000000E-02  2.525924800000E-01
     52 T   6 C    -2.775523200000E-01  2.841190400000E-01 -2.474075200000E-01
     53 T   6 C     3.927986700000E-01 -5.333684000000E-02  2.527353700000E-01
     54 T   6 C    -4.919315000000E-01  1.772262600000E-01 -2.472646300000E-01
     55 T   6 C     4.462875800000E-01  5.360286000000E-02  2.523067200000E-01
     56 T   6 C    -4.384425900000E-01  2.841659600000E-01 -2.476932800000E-01
     57 T   6 C    -4.462831500000E-01 -5.337644000000E-02  2.534089800000E-01
     58 T   6 C    -3.310133200000E-01  1.771866600000E-01 -2.465910200000E-01
     59 T   6 C     4.459279100000E-01 -1.080079400000E-01  2.522862800000E-01
     60 T   6 C    -4.388022600000E-01  1.225551600000E-01 -2.477137200000E-01
     61 T   6 C    -4.459551300000E-01  4.458745500000E-01  2.490610100000E-01
     62 T   6 C    -3.306853000000E-01 -3.235623500000E-01 -2.509389900000E-01
     63 T   6 C    -3.927897800000E-01 -4.463742200000E-01  2.474075700000E-01
     64 T   6 C    -2.775199500000E-01 -2.158111200000E-01 -2.525924300000E-01
     65 T   6 C     3.928233700000E-01  4.461720300000E-01  2.472646600000E-01
     66 T   6 C    -4.919068000000E-01 -3.232648700000E-01 -2.527353400000E-01
     67 T   6 C     4.462872600000E-01  3.926899900000E-01  2.476933200000E-01
     68 T   6 C    -4.384429100000E-01 -3.767469100000E-01 -2.523066800000E-01
     69 T   6 C    -4.462570400000E-01 -3.929020000000E-01  2.465910600000E-01
     70 T   6 C    -3.309872100000E-01 -1.623389000000E-01 -2.534089400000E-01
     71 T   6 C     4.459599800000E-01 -4.460417700000E-01  2.477137600000E-01
     72 T   6 C    -4.387701900000E-01 -2.154786700000E-01 -2.522862400000E-01
     73 T   8 O    -4.392633200000E-01  2.803706300000E-01  2.495713400000E-01
     74 T   8 O    -3.239934900000E-01 -4.890662700000E-01 -2.504286600000E-01
     75 T   8 O    -2.803183000000E-01  2.803783300000E-01  2.531027900000E-01
     76 T   8 O    -1.650484700000E-01 -4.890585700000E-01 -2.468972100000E-01
     77 T   8 O    -2.803205800000E-01  4.393234600000E-01  2.477750100000E-01
     78 T   8 O    -1.650507500000E-01 -3.301134400000E-01 -2.522249900000E-01
     79 T   8 O     2.803245100000E-01 -2.803488900000E-01  2.495713600000E-01
     80 T   8 O     3.955943400000E-01 -4.978579000000E-02 -2.504286400000E-01
     81 T   8 O     2.803439700000E-01 -4.393043900000E-01  2.531027900000E-01
     82 T   8 O     3.956138000000E-01 -2.087412900000E-01 -2.468972100000E-01
     83 T   8 O     4.392638400000E-01 -2.803645800000E-01  2.477750000000E-01
     84 T   8 O    -4.454663300000E-01 -4.980148000000E-02 -2.522250000000E-01

 T = ATOM BELONGING TO THE ASYMMETRIC UNIT

 ****    1 SYMMOPS - TRANSLATORS IN FRACTIONAL UNITS
 **** MATRICES AND TRANSLATORS IN THE CRYSTALLOGRAPHIC REFERENCE FRAME
   V INV                    ROTATION MATRICES                   TRANSLATORS
   1   1  1.00 -0.00  0.00  0.00  1.00  0.00  0.00  0.00  1.00  0.00  0.00  0.00

 DIRECT LATTICE VECTORS CARTESIAN COMPONENTS (ANGSTROM)
          X                    Y                    Z
   0.130113578931E+02  -0.751088897922E+01   0.000000000000E+00
   0.000000000000E+00   0.150239160000E+02   0.000000000000E+00
  -0.127541541606E-04  -0.338244809023E-04   0.599999999989E+01


 CARTESIAN COORDINATES - PRIMITIVE CELL
 *******************************************************************************
 *      ATOM          X(ANGSTROM)         Y(ANGSTROM)         Z(ANGSTROM)
 *******************************************************************************
    1     5 B    -5.026543953805E+00  6.316803934072E+00  1.504776719973E+00
    2     5 B    -3.526720564326E+00 -6.108913402371E+00 -1.495223279973E+00
    3     5 B    -2.957013836629E+00  7.511853501124E+00  1.504776779973E+00
    4     5 B    -1.457190447150E+00 -4.913863835319E+00 -1.495223219973E+00
    5     5 B    -5.026599490954E+00 -6.317639528581E+00  1.494733559973E+00
    6     5 B    -3.526776101475E+00 -3.719440865024E+00 -1.505266439973E+00
    7     5 B     2.956896192134E+00 -7.511639483653E+00  1.504776779973E+00
    8     5 B     4.456719581612E+00 -4.913440820097E+00 -1.495223219973E+00
    9     5 B     5.027106933441E+00  6.316922171233E+00  1.504776719973E+00
   10     5 B    -6.484427570136E+00  1.402093814006E+00 -1.495223279973E+00
   11     5 B     5.026850370812E+00 -6.315951684312E+00  1.494733619973E+00
   12     5 B     6.526673760291E+00 -3.717753020755E+00 -1.505266439973E+00
   13     1 H    -1.261537314627E+00  5.369559361413E+00  1.483955219973E+00
   14     1 H     2.382860748514E-01 -7.056157975030E+00 -1.516044779972E+00
   15     1 H     1.257343306993E+00 -5.367406740038E+00  1.480771259973E+00
   16     1 H     2.757166696472E+00 -2.769208076481E+00 -1.519228739972E+00
   17     1 H    -1.262476726858E+00 -5.369859166531E+00  1.480281239973E+00
   18     1 H     2.373466626213E-01 -2.771660502974E+00 -1.519718759972E+00
   19     1 H     1.258665912305E+00  5.368393407125E+00  1.480403459973E+00
   20     1 H     2.758489301784E+00 -7.057323929318E+00 -1.519596539972E+00
   21     1 H    -4.020091243604E+00  3.777994545737E+00  1.516044959972E+00
   22     1 H    -2.520267854125E+00  6.376193209294E+00 -1.483955099973E+00
   23     1 H     4.019591921308E+00 -3.771095137117E+00  1.519229099972E+00
   24     1 H     5.519415310787E+00 -1.172896473560E+00 -1.480770899973E+00
   25     1 H     5.280916467485E+00 -1.590382254851E+00  1.519719419972E+00
   26     1 H     6.780739856964E+00  1.007816408706E+00 -1.480280579973E+00
   27     1 H    -5.278552258728E+00  1.594965638826E+00  1.519596359972E+00
   28     1 H    -3.778728869249E+00  4.193164302382E+00 -1.480403579973E+00
   29     1 H    -4.019566297214E+00 -3.778585462670E+00  1.483955399973E+00
   30     1 H    -2.519742907735E+00 -1.180386799113E+00 -1.516044599972E+00
   31     1 H     4.020009797760E+00  3.773254151072E+00  1.480771079973E+00
   32     1 H    -7.491524705818E+00 -1.141574206154E+00 -1.519228979972E+00
   33     1 H     5.280533757170E+00  1.591502757360E+00  1.480280819973E+00
   34     1 H    -6.231000746407E+00 -3.323325599867E+00 -1.519719179972E+00
   35     1 H    -5.278829707680E+00 -1.595794287619E+00  1.480403819973E+00
   36     1 H    -3.779006318201E+00  1.002404375938E+00 -1.519596179972E+00
   37     6 C    -1.406657044860E+00  7.511811994098E+00  1.494366059973E+00
   38     6 C     9.316634461895E-02 -4.913905342345E+00 -1.505633939973E+00
   39     6 C    -6.962524964399E-01  6.303084296665E+00  1.484445239973E+00
   40     6 C     8.035708930391E-01 -6.122633039778E+00 -1.515554819972E+00
   41     6 C     6.946487829053E-01 -6.302615662094E+00  1.483588199973E+00
   42     6 C     2.194472172384E+00 -3.704416998538E+00 -1.516411799972E+00
   43     6 C    -6.967339203273E-01 -6.303107168822E+00  1.486160159973E+00
   44     6 C     8.030894691515E-01 -3.704908505265E+00 -1.513839839973E+00
   45     6 C     6.951460855964E-01  6.303134415164E+00  1.479546059973E+00
   46     6 C     2.194969475075E+00 -6.122582921280E+00 -1.520453879972E+00
   47     6 C     1.405690470705E+00 -7.511585188223E+00  1.486282559973E+00
   48     6 C     2.905513860184E+00 -4.913386524666E+00 -1.513717439973E+00
   49     6 C     7.208801979967E+00 -2.536223204722E+00  1.505634119973E+00
   50     6 C    -4.302732523611E+00 -7.451051561949E+00 -1.494365879973E+00
   51     6 C    -5.111152803573E+00  3.755054957279E+00  1.515554879972E+00
   52     6 C    -3.611329414095E+00  6.353253620836E+00 -1.484445119973E+00
   53     6 C     5.110840851861E+00 -3.751603954062E+00  1.516412219972E+00
   54     6 C     6.610664241340E+00 -1.153405290505E+00 -1.483587779973E+00
   55     6 C     5.806804208647E+00 -2.546700134327E+00  1.513840319973E+00
   56     6 C     7.306627598126E+00  5.149852922964E-02 -1.486159679973E+00
   57     6 C    -5.806753018308E+00  2.550051470579E+00  1.520453879972E+00
   58     6 C    -4.306929628829E+00  5.148250134136E+00 -1.479546119973E+00
   59     6 C     5.802124413815E+00 -4.972025776090E+00  1.513717679973E+00
   60     6 C     7.301947803293E+00 -2.373827112533E+00 -1.486282319973E+00
   61     6 C     7.208872915819E+00  2.537403853304E+00  1.494366059973E+00
   62     6 C    -4.302661587758E+00 -2.377424503923E+00 -1.505633939973E+00
   63     6 C    -5.110731559789E+00 -3.756096724527E+00  1.484445419973E+00
   64     6 C    -3.610908170310E+00 -1.157898060970E+00 -1.515554579972E+00
   65     6 C     5.111162302175E+00  3.752790016159E+00  1.483587959973E+00
   66     6 C    -6.400372201403E+00 -1.162038341068E+00 -1.516412039972E+00
   67     6 C     5.806800103853E+00  2.547718983004E+00  1.486159919973E+00
   68     6 C    -5.704734399725E+00 -2.367109374222E+00 -1.513840079973E+00
   69     6 C    -5.806413204796E+00 -2.551147901413E+00  1.479546359973E+00
   70     6 C    -4.306589815318E+00  4.705076214405E-02 -1.520453639972E+00
   71     6 C     5.802541746381E+00  4.973057637286E+00  1.486282559973E+00
   72     6 C    -5.708992757197E+00  5.822928005910E-02 -1.513717439973E+00
   73     8 O     7.295942444173E+00  6.254023116313E-04  1.497428039973E+00
   74     8 O    -4.215592059405E+00 -4.914202954915E+00 -1.502571959973E+00
   75     8 O    -3.647324953385E+00  6.317811547212E+00  1.518616739972E+00
   76     8 O    -2.147501563906E+00 -6.107905789231E+00 -1.481383259973E+00
   77     8 O    -3.647354551330E+00 -6.318108866022E+00  1.486650059973E+00
   78     8 O    -2.147531161851E+00 -3.719910202465E+00 -1.513349939973E+00
   79     8 O     3.647399342734E+00 -6.317432888438E+00  1.497428159973E+00
   80     8 O     5.147222732213E+00 -3.719234224881E+00 -1.502571839973E+00
   81     8 O     3.647652498718E+00  6.318202750475E+00  1.518616739972E+00
   82     8 O     5.147475888197E+00 -6.107514585968E+00 -1.481383259973E+00
   83     8 O    -7.295942021499E+00 -5.552357638786E-04  1.486649999973E+00
   84     8 O    -5.796118632020E+00  2.597643427793E+00 -1.513349999973E+00

 *******************************************************************************
 STARTING BASIS SET HANDLING 
 *******************************************************************************

 Loading internal basis set: SOLDEF2MSVP         

 Please cite in your publication:
 L. Dona', J. G. Brandenburg and B. Civalleri, J. Chem. Phys., 151, 121101 (2019
 )                                                                              
                                                                                
                    

 *******************************************************************************
 LOCAL ATOMIC FUNCTIONS BASIS SET
 *******************************************************************************
   ATOM   X(AU)   Y(AU)   Z(AU)  N. TYPE  EXPONENT  S COEF   P COEF   D/F/G COEF
 *******************************************************************************
   1 B   -9.499  11.937   2.844
                                  1 S  
                                         2.410E+03 1.755E-03 0.000E+00 0.000E+00
                                         3.619E+02 1.344E-02 0.000E+00 0.000E+00
                                         8.231E+01 6.637E-02 0.000E+00 0.000E+00
                                         2.311E+01 2.303E-01 0.000E+00 0.000E+00
                                         7.252E+00 5.150E-01 0.000E+00 0.000E+00
                                  2 S  
                                         2.367E+00 1.000E+00 0.000E+00 0.000E+00
                                  3 S  
                                         5.533E-01 1.000E+00 0.000E+00 0.000E+00
                                  4 S  
                                         1.716E-01 1.000E+00 0.000E+00 0.000E+00
                           5-     7 P  
                                         6.002E+00 0.000E+00-3.555E-02 0.000E+00
                                         1.240E+00 0.000E+00-1.983E-01 0.000E+00
                                         3.367E-01 0.000E+00-5.048E-01 0.000E+00
                           8-    10 P  
                                         1.256E-01 0.000E+00 1.000E+00 0.000E+00
                          11-    15 D  
                                         8.880E-01 0.000E+00 0.000E+00 1.000E+00
   2 B   -6.665 -11.544  -2.826
   3 B   -5.588  14.195   2.844
   4 B   -2.754  -9.286  -2.826
   5 B   -9.499 -11.939   2.825
   6 B   -6.665  -7.029  -2.845
   7 B    5.588 -14.195   2.844
   8 B    8.422  -9.285  -2.826
   9 B    9.500  11.937   2.844
  10 B  -12.254   2.650  -2.826
  11 B    9.499 -11.935   2.825
  12 B   12.334  -7.026  -2.845
  13 H   -2.384  10.147   2.804
                                181 S  
                                         1.874E+01 1.968E-02 0.000E+00 0.000E+00
                                         2.826E+00 1.380E-01 0.000E+00 0.000E+00
                                         6.401E-01 4.783E-01 0.000E+00 0.000E+00
                                182 S  
                                         1.756E-01 1.000E+00 0.000E+00 0.000E+00
  14 H    0.450 -13.334  -2.865
  15 H    2.376 -10.143   2.798
  16 H    5.210  -5.233  -2.871
  17 H   -2.386 -10.148   2.797
  18 H    0.449  -5.238  -2.872
  19 H    2.379  10.145   2.798
  20 H    5.213 -13.336  -2.872
  21 H   -7.597   7.139   2.865
  22 H   -4.763  12.049  -2.804
  23 H    7.596  -7.126   2.871
  24 H   10.430  -2.216  -2.798
  25 H    9.979  -3.005   2.872
  26 H   12.814   1.904  -2.797
  27 H   -9.975   3.014   2.872
  28 H   -7.141   7.924  -2.798
  29 H   -7.596  -7.140   2.804
  30 H   -4.762  -2.231  -2.865
  31 H    7.597   7.130   2.798
  32 H  -14.157  -2.157  -2.871
  33 H    9.979   3.008   2.797
  34 H  -11.775  -6.280  -2.872
  35 H   -9.976  -3.016   2.798
  36 H   -7.141   1.894  -2.872
  37 C   -2.658  14.195   2.824
                                229 S  
                                         3.624E+03 1.634E-03 0.000E+00 0.000E+00
                                         5.440E+02 1.252E-02 0.000E+00 0.000E+00
                                         1.237E+02 6.211E-02 0.000E+00 0.000E+00
                                         3.476E+01 2.182E-01 0.000E+00 0.000E+00
                                         1.093E+01 4.980E-01 0.000E+00 0.000E+00
                                230 S  
                                         3.574E+00 1.000E+00 0.000E+00 0.000E+00
                                231 S  
                                         7.742E-01 1.000E+00 0.000E+00 0.000E+00
                                232 S  
                                         2.330E-01 1.000E+00 0.000E+00 0.000E+00
                         233-   235 P  
                                         9.443E+00 0.000E+00 3.790E-02 0.000E+00
                                         2.002E+00 0.000E+00 2.082E-01 0.000E+00
                                         5.463E-01 0.000E+00 5.047E-01 0.000E+00
                         236-   238 P  
                                         1.820E-01 0.000E+00 1.000E+00 0.000E+00
                         239-   243 D  
                                         8.880E-01 0.000E+00 0.000E+00 1.000E+00
  38 C    0.176  -9.286  -2.845
  39 C   -1.316  11.911   2.805
  40 C    1.519 -11.570  -2.864
  41 C    1.313 -11.910   2.804
  42 C    4.147  -7.000  -2.866
  43 C   -1.317 -11.911   2.808
  44 C    1.518  -7.001  -2.861
  45 C    1.314  11.911   2.796
  46 C    4.148 -11.570  -2.873
  47 C    2.656 -14.195   2.809
  48 C    5.491  -9.285  -2.861
  49 C   13.623  -4.793   2.845
  50 C   -8.131 -14.080  -2.824
  51 C   -9.659   7.096   2.864
  52 C   -6.824  12.006  -2.805
  53 C    9.658  -7.090   2.866
  54 C   12.492  -2.180  -2.804
  55 C   10.973  -4.813   2.861
  56 C   13.808   0.097  -2.808
  57 C  -10.973   4.819   2.873
  58 C   -8.139   9.729  -2.796
  59 C   10.964  -9.396   2.861
  60 C   13.799  -4.486  -2.809
  61 C   13.623   4.795   2.824
  62 C   -8.131  -4.493  -2.845
  63 C   -9.658  -7.098   2.805
  64 C   -6.824  -2.188  -2.864
  65 C    9.659   7.092   2.804
  66 C  -12.095  -2.196  -2.866
  67 C   10.973   4.814   2.808
  68 C  -10.780  -4.473  -2.861
  69 C  -10.973  -4.821   2.796
  70 C   -8.138   0.089  -2.873
  71 C   10.965   9.398   2.809
  72 C  -10.788   0.110  -2.861
  73 O   13.787   0.001   2.830
                                769 S  
                                         6.773E+03 1.727E-03 0.000E+00 0.000E+00
                                         1.017E+03 1.325E-02 0.000E+00 0.000E+00
                                         2.313E+02 6.603E-02 0.000E+00 0.000E+00
                                         6.501E+01 2.353E-01 0.000E+00 0.000E+00
                                         2.050E+01 5.498E-01 0.000E+00 0.000E+00
                                770 S  
                                         6.716E+00 1.000E+00 0.000E+00 0.000E+00
                                771 S  
                                         1.147E+00 1.000E+00 0.000E+00 0.000E+00
                                772 S  
                                         3.342E-01 1.000E+00 0.000E+00 0.000E+00
                         773-   775 P  
                                         1.769E+01 0.000E+00 4.359E-02 0.000E+00
                                         3.854E+00 0.000E+00 2.318E-01 0.000E+00
                                         1.047E+00 0.000E+00 5.146E-01 0.000E+00
                         776-   778 P  
                                         2.759E-01 0.000E+00 1.000E+00 0.000E+00
                         779-   783 D  
                                         8.000E-01 0.000E+00 0.000E+00 1.000E+00
  74 O   -7.966  -9.286  -2.839
  75 O   -6.892  11.939   2.870
  76 O   -4.058 -11.542  -2.799
  77 O   -6.893 -11.939   2.809
  78 O   -4.058  -7.030  -2.860
  79 O    6.893 -11.938   2.830
  80 O    9.727  -7.028  -2.839
  81 O    6.893  11.940   2.870
  82 O    9.727 -11.542  -2.799
  83 O  -13.787  -0.001   2.809
  84 O  -10.953   4.909  -2.860

 *******************************************************************************
 FINISHED BASIS SET HANDLING 
 *******************************************************************************

 INFORMATION **** SET_MPP **** PCRYSTAL CALCULATION
 INFORMATION **** READM2 **** NEW DEFAULT: FOCK/KS MATRIX MIXING SET TO 30 %
 INFORMATION **** READM2 **** NEW DEFAULT: FULL DIRECT SCF MODE
 INFORMATION **** READM2 **** NEW DEFAULT: COULOMB BIPOLAR BUFFER SET TO 32 Mb
 INFORMATION **** READM2 **** NEW DEFAULT: EXCHANGE BIPOLAR BUFFER SET TO 32 Mb

 *******************************************************************************
 NEW DEFAULT: DFT INTEGRATION GRID INCREASED TO XLGRID
 NEW DEFAULT: DIIS ACCELERATOR ACTIVE
 USE KEYWORD NODIIS TO TURN IT OFF
 *******************************************************************************

 WARNING **** RDDFTP **** HSEsol-HJS ACTIVE
 RANGE SEPARATION - OMEGA:   0.110000000000000     
 WARNING **** RDDFTP **** HSEsol-3c has to be combined with sol-def2-mSVP basis set
 *******************************************************************************
 N. OF ATOMS PER CELL        84  COULOMB OVERLAP TOL         (T1) 10**   -6
 NUMBER OF SHELLS           468  COULOMB PENETRATION TOL     (T2) 10**   -6
 NUMBER OF AO               948  EXCHANGE OVERLAP TOL        (T3) 10**   -6
 N. OF ELECTRONS PER CELL   396  EXCHANGE PSEUDO OVP (F(G))  (T4) 10**   -6
 CORE ELECTRONS PER CELL    120  EXCHANGE PSEUDO OVP (P(G))  (T5) 10**  -12
 N. OF SYMMETRY OPERATORS     1  POLE ORDER IN MONO ZONE                  4
 *******************************************************************************
 TYPE OF CALCULATION :  RESTRICTED CLOSED SHELL
 KOHN-SHAM HAMILTONIAN

 (EXCHANGE)[CORRELATION] FUNCTIONAL:(HSEsol GGA)[PBEsol]

 RANGE-SEPARATED HYBRID FUNCTIONAL 
 OMEGA (SHORT-RANGE)[LONG-RANGE]:(    0.1100)[    0.0000]

 HYBRID EXCHANGE - PERCENTAGE OF FOCK EXCHANGE    25.0000

 CAPPA:IS1  2;IS2  2;IS3  8; K PTS MONK NET  20; SYMMOPS:K SPACE   2;G SPACE   1

 *******************************************************************************
 MAX NUMBER OF SCF CYCLES      50  CONVERGENCE ON DELTAP        10**-16
 WEIGHT OF F(I) IN F(I+1)      30% CONVERGENCE ON ENERGY        10**- 6
 SHRINK. FACT.(MONKH.)    2  2  8  NUMBER OF K POINTS IN THE IBZ     20
 SHRINKING FACTOR(GILAT NET)    8  NUMBER OF K POINTS(GILAT NET)   1028
 *******************************************************************************
 *** K POINTS COORDINATES (OBLIQUE COORDINATES IN UNITS OF IS =  2)
   1-R(  0  0  0)   2-R(  1  0  0)   3-R(  0  1  0)   4-R(  1  1  0)
   5-C(  0  0  1)   6-C(  1  0  1)   7-C(  0  1  1)   8-C(  1  1  1)
   9-C(  0  0  2)  10-C(  1  0  2)  11-C(  0  1  2)  12-C(  1  1  2)
  13-C(  0  0  3)  14-C(  1  0  3)  15-C(  0  1  3)  16-C(  1  1  3)
  17-R(  0  0  4)  18-R(  1  0  4)  19-R(  0  1  4)  20-R(  1  1  4)

 DIRECT LATTICE VECTORS COMPON. (A.U.)     RECIP. LATTICE VECTORS COMPON. (A.U.) 
        X            Y            Z              X            Y            Z
   24.5879030  -14.1935232    0.0000000      0.2555397    0.0000000    0.0000005
    0.0000000   28.3910867    0.0000000      0.1277517    0.2213084    0.0000015
   -0.0000241   -0.0000639   11.3383568      0.0000000    0.0000000    0.5541531

 DISK SPACE FOR EIGENVECTORS (FTN 10)    28758528 REALS

 SYMMETRY ADAPTION OF THE BLOCH FUNCTIONS DISABLED
 TTTTTTTTTTTTTTTTTTTTTTTTTTTTTT gordsh1     TELAPSE        0.05 TCPU        0.05

 MATRIX SIZE: P(G)  881482, F(G)  175985, P(G) IRR  442907, F(G) IRR  177233
 MAX G-VECTOR INDEX FOR 1- AND 2-ELECTRON INTEGRALS  67

 TTTTTTTTTTTTTTTTTTTTTTTTTTTTTT INPUT       TELAPSE        3.08 TCPU        3.08

 NEIGHBORS OF THE NON-EQUIVALENT ATOMS

 N = NUMBER OF NEIGHBORS AT DISTANCE R
    ATOM  N     R/ANG      R/AU   NEIGHBORS (ATOM LABELS AND CELL INDICES)
   1 B    1     1.3791     2.6061   73 O   -1 0 0
   1 B    1     1.3793     2.6065   75 O    0 0 0
   1 B    1     1.5503     2.9297   49 C   -1 0 0
   1 B    1     2.3895     4.5155    5 B    0 1 0
   1 B    1     2.3898     4.5160    3 B    0 0 0
   1 B    1     2.5632     4.8437   51 C    0 0 0

   2 B    1     1.3791     2.6061   74 O    0 0 0
   2 B    1     1.3793     2.6065   76 O    0 0 0
   2 B    1     1.5503     2.9297   50 C    0 0 0
   2 B    1     2.3895     4.5155    6 B    0 0 0
   2 B    1     2.3898     4.5160    4 B    0 0 0
   2 B    1     2.5632     4.8437   52 C    0-1 0

   3 B    1     1.3793     2.6065   77 O    0 1 0
   3 B    1     1.3793     2.6065   75 O    0 0 0
   3 B    1     1.5504     2.9298   37 C    0 0 0
   3 B    1     2.3895     4.5156    5 B    0 1 0
   3 B    1     2.3898     4.5160    1 B    0 0 0
   3 B    1     2.5634     4.8440   43 C    0 1 0

   4 B    1     1.3793     2.6065   78 O    0 0 0
   4 B    1     1.3793     2.6065   76 O    0 0 0
   4 B    1     1.5504     2.9298   38 C    0 0 0
   4 B    1     2.3895     4.5156    6 B    0 0 0
   4 B    1     2.3898     4.5160    2 B    0 0 0
   4 B    1     2.5634     4.8440   44 C    0 0 0

   5 B    1     1.3791     2.6061   73 O   -1-1 0
   5 B    1     1.3793     2.6064   77 O    0 0 0
   5 B    1     1.5502     2.9294   61 C   -1-1 0
   5 B    1     2.3895     4.5155    1 B    0-1 0
   5 B    1     2.3895     4.5156    3 B    0-1 0
   5 B    1     2.5629     4.8433   63 C    0 0 0

   6 B    1     1.3791     2.6061   74 O    0 0 0
   6 B    1     1.3793     2.6064   78 O    0 0 0
   6 B    1     1.5502     2.9294   62 C    0 0 0
   6 B    1     2.3895     4.5155    2 B    0 0 0
   6 B    1     2.3895     4.5156    4 B    0 0 0
   6 B    1     2.5629     4.8433   64 C    0 0 0

   7 B    1     1.3795     2.6068   79 O    0 0 0
   7 B    1     1.3795     2.6070   81 O    0-1 0
   7 B    1     1.5513     2.9316   47 C    0 0 0
   7 B    1     2.3905     4.5174   11 B    0 0 0
   7 B    1     2.3905     4.5175    9 B    0-1 0
   7 B    1     2.5648     4.8468   45 C    0-1 0

   8 B    1     1.3795     2.6068   80 O    0 0 0
   8 B    1     1.3795     2.6070   82 O    0 0 0
   8 B    1     1.5513     2.9316   48 C    0 0 0
   8 B    1     2.3905     4.5174   12 B    0 0 0
   8 B    1     2.3905     4.5175   10 B    1 0 0
   8 B    1     2.5648     4.8468   46 C    0 0 0

   9 B    1     1.3795     2.6069   81 O    0 0 0
   9 B    1     1.3797     2.6072   83 O    1 1 0
   9 B    1     1.5516     2.9322   71 C    0 0 0
   9 B    1     2.3905     4.5175    7 B    0 1 0
   9 B    1     2.3911     4.5185   11 B    0 1 0
   9 B    1     2.5651     4.8473   69 C    1 1 0

  10 B    1     1.3795     2.6069   82 O   -1 0 0
  10 B    1     1.3797     2.6072   84 O    0 0 0
  10 B    1     1.5516     2.9322   72 C    0 0 0
  10 B    1     2.3905     4.5175    8 B   -1 0 0
  10 B    1     2.3911     4.5185   12 B   -1 0 0
  10 B    1     2.5651     4.8473   70 C    0 0 0

  11 B    1     1.3795     2.6068   79 O    0 0 0
  11 B    1     1.3796     2.6071   83 O    1 0 0
  11 B    1     1.5516     2.9322   59 C    0 0 0
  11 B    1     2.3905     4.5174    7 B    0 0 0
  11 B    1     2.3911     4.5185    9 B    0-1 0
  11 B    1     2.5651     4.8473   57 C    1 0 0

  12 B    1     1.3795     2.6068   80 O    0 0 0
  12 B    1     1.3796     2.6071   84 O    1 0 0
  12 B    1     1.5516     2.9322   60 C    0 0 0
  12 B    1     2.3905     4.5174    8 B    0 0 0
  12 B    1     2.3911     4.5185   10 B    1 0 0
  12 B    1     2.5651     4.8473   58 C    1 0 0

  13 H    1     1.0913     2.0623   39 C    0 0 0
  13 H    1     2.1472     4.0576   37 C    0 0 0
  13 H    1     2.1680     4.0969   45 C    0 0 0
  13 H    1     2.5202     4.7625   19 H    0 0 0
  13 H    1     2.5676     4.8520   75 O    0 0 0
  13 H    1     2.7321     5.1630    3 B    0 0 0

  14 H    1     1.0913     2.0623   40 C    0 0 0
  14 H    1     2.1472     4.0576   38 C    0 0 0
  14 H    1     2.1680     4.0969   46 C    0 0 0
  14 H    1     2.5202     4.7625   20 H    0 0 0
  14 H    1     2.5676     4.8520   76 O    0 0 0
  14 H    1     2.7321     5.1630    4 B    0 0 0

  15 H    1     1.0914     2.0625   41 C    0 0 0
  15 H    1     2.1493     4.0616   47 C    0 0 0
  15 H    1     2.1666     4.0942   43 C    0 0 0
  15 H    1     2.5198     4.7618   17 H    0 0 0
  15 H    1     2.5720     4.8604   79 O    0 0 0
  15 H    1     2.7362     5.1707    7 B    0 0 0

  16 H    1     1.0914     2.0625   42 C    0 0 0
  16 H    1     2.1493     4.0616   48 C    0 0 0
  16 H    1     2.1666     4.0942   44 C    0 0 0
  16 H    1     2.5198     4.7618   18 H    0 0 0
  16 H    1     2.5720     4.8604   80 O    0 0 0
  16 H    1     2.7362     5.1707    8 B    0 0 0

  17 H    1     1.0914     2.0624   43 C    0 0 0
  17 H    1     2.1471     4.0575   37 C    0-1 0
  17 H    1     2.1680     4.0970   41 C    0 0 0
  17 H    1     2.5198     4.7618   15 H    0 0 0
  17 H    1     2.5665     4.8500   77 O    0 0 0
  17 H    1     2.7315     5.1618    3 B    0-1 0

  18 H    1     1.0914     2.0624   44 C    0 0 0
  18 H    1     2.1471     4.0575   38 C    0 0 0
  18 H    1     2.1680     4.0970   42 C    0 0 0
  18 H    1     2.5198     4.7618   16 H    0 0 0
  18 H    1     2.5665     4.8500   78 O    0 0 0
  18 H    1     2.7315     5.1618    4 B    0 0 0

  19 H    1     1.0915     2.0626   45 C    0 0 0
  19 H    1     2.1490     4.0610   47 C    0 1 0
  19 H    1     2.1669     4.0948   39 C    0 0 0
  19 H    1     2.5202     4.7625   13 H    0 0 0
  19 H    1     2.5712     4.8588   81 O    0 0 0
  19 H    1     2.7351     5.1686    7 B    0 1 0

  20 H    1     1.0915     2.0626   46 C    0 0 0
  20 H    1     2.1490     4.0610   48 C    0 0 0
  20 H    1     2.1669     4.0948   40 C    0 0 0
  20 H    1     2.5202     4.7625   14 H    0 0 0
  20 H    1     2.5712     4.8588   82 O    0 0 0
  20 H    1     2.7351     5.1686    8 B    0 0 0

  21 H    1     1.0913     2.0623   51 C    0 0 0
  21 H    1     2.1469     4.0571   49 C   -1 0 0
  21 H    1     2.1680     4.0968   57 C    0 0 0
  21 H    1     2.5198     4.7617   27 H    0 0 0
  21 H    1     2.5670     4.8510   75 O    0 0 0
  21 H    1     2.7310     5.1609    1 B    0 0 0

  22 H    1     1.0913     2.0623   52 C    0 0 0
  22 H    1     2.1469     4.0571   50 C    0 1 0
  22 H    1     2.1680     4.0968   58 C    0 0 0
  22 H    1     2.5198     4.7617   28 H    0 0 0
  22 H    1     2.5670     4.8510   76 O    0 1 0
  22 H    1     2.7310     5.1609    2 B    0 1 0

  23 H    1     1.0914     2.0625   53 C    0 0 0
  23 H    1     2.1493     4.0617   59 C    0 0 0
  23 H    1     2.1664     4.0939   55 C    0 0 0
  23 H    1     2.5192     4.7606   25 H    0 0 0
  23 H    1     2.5735     4.8632   79 O    0 0 0
  23 H    1     2.7371     5.1723   11 B    0 0 0

  24 H    1     1.0914     2.0625   54 C    0 0 0
  24 H    1     2.1493     4.0617   60 C    0 0 0
  24 H    1     2.1664     4.0939   56 C    0 0 0
  24 H    1     2.5192     4.7606   26 H    0 0 0
  24 H    1     2.5735     4.8632   80 O    0 0 0
  24 H    1     2.7371     5.1723   12 B    0 0 0

  25 H    1     1.0914     2.0624   55 C    0 0 0
  25 H    1     2.1475     4.0581   49 C    0 0 0
  25 H    1     2.1679     4.0967   53 C    0 0 0
  25 H    1     2.5192     4.7606   23 H    0 0 0
  25 H    1     2.5675     4.8519   73 O    0 0 0
  25 H    1     2.7328     5.1643    1 B    1 0 0

  26 H    1     1.0914     2.0624   56 C    0 0 0
  26 H    1     2.1475     4.0581   50 C    1 1 0
  26 H    1     2.1679     4.0967   54 C    0 0 0
  26 H    1     2.5192     4.7606   24 H    0 0 0
  26 H    1     2.5675     4.8519   74 O    1 1 0
  26 H    1     2.7328     5.1643    2 B    1 1 0

  27 H    1     1.0914     2.0625   57 C    0 0 0
  27 H    1     2.1491     4.0612   59 C   -1 0 0
  27 H    1     2.1666     4.0942   51 C    0 0 0
  27 H    1     2.5198     4.7617   21 H    0 0 0
  27 H    1     2.5723     4.8609   83 O    0 0 0
  27 H    1     2.7355     5.1693   11 B   -1 0 0

  28 H    1     1.0914     2.0625   58 C    0 0 0
  28 H    1     2.1491     4.0612   60 C   -1 0 0
  28 H    1     2.1666     4.0942   52 C    0 0 0
  28 H    1     2.5198     4.7617   22 H    0 0 0
  28 H    1     2.5723     4.8609   84 O    0 0 0
  28 H    1     2.7355     5.1693   12 B   -1 0 0

  29 H    1     1.0914     2.0624   63 C    0 0 0
  29 H    1     2.1475     4.0582   61 C   -1-1 0
  29 H    1     2.1678     4.0966   69 C    0 0 0
  29 H    1     2.5200     4.7621   35 H    0 0 0
  29 H    1     2.5667     4.8503   77 O    0 0 0
  29 H    1     2.7315     5.1618    5 B    0 0 0

  30 H    1     1.0914     2.0624   64 C    0 0 0
  30 H    1     2.1475     4.0582   62 C    0 0 0
  30 H    1     2.1678     4.0966   70 C    0 0 0
  30 H    1     2.5200     4.7621   36 H    0 0 0
  30 H    1     2.5667     4.8503   78 O    0 0 0
  30 H    1     2.7315     5.1618    6 B    0 0 0

  31 H    1     1.0913     2.0623   65 C    0 0 0
  31 H    1     2.1487     4.0605   71 C    0 0 0
  31 H    1     2.1667     4.0945   67 C    0 0 0
  31 H    1     2.5197     4.7616   33 H    0 0 0
  31 H    1     2.5723     4.8610   81 O    0 0 0
  31 H    1     2.7359     5.1701    9 B    0 0 0

  32 H    1     1.0913     2.0623   66 C    0 0 0
  32 H    1     2.1487     4.0605   72 C    0 0 0
  32 H    1     2.1667     4.0945   68 C    0 0 0
  32 H    1     2.5197     4.7616   34 H    0 0 0
  32 H    1     2.5723     4.8610   82 O   -1 0 0
  32 H    1     2.7359     5.1701   10 B    0 0 0

  33 H    1     1.0915     2.0626   67 C    0 0 0
  33 H    1     2.1479     4.0589   61 C    0 0 0
  33 H    1     2.1679     4.0968   65 C    0 0 0
  33 H    1     2.5197     4.7616   31 H    0 0 0
  33 H    1     2.5677     4.8522   73 O    0 0 0
  33 H    1     2.7331     5.1648    5 B    1 1 0

  34 H    1     1.0915     2.0626   68 C    0 0 0
  34 H    1     2.1479     4.0589   62 C    0 0 0
  34 H    1     2.1679     4.0968   66 C    0 0 0
  34 H    1     2.5197     4.7616   32 H    0 0 0
  34 H    1     2.5677     4.8522   74 O    0 0 0
  34 H    1     2.7331     5.1648    6 B    0 0 0

  35 H    1     1.0914     2.0624   69 C    0 0 0
  35 H    1     2.1486     4.0602   71 C   -1-1 0
  35 H    1     2.1668     4.0947   63 C    0 0 0
  35 H    1     2.5200     4.7621   29 H    0 0 0
  35 H    1     2.5717     4.8598   83 O    0 0 0
  35 H    1     2.7349     5.1682    9 B   -1-1 0

  36 H    1     1.0914     2.0624   70 C    0 0 0
  36 H    1     2.1486     4.0602   72 C    0 0 0
  36 H    1     2.1668     4.0947   64 C    0 0 0
  36 H    1     2.5200     4.7621   30 H    0 0 0
  36 H    1     2.5717     4.8598   84 O    0 0 0
  36 H    1     2.7349     5.1682   10 B    0 0 0

  37 C    1     1.4020     2.6495   43 C    0 1 0
  37 C    1     1.4021     2.6495   39 C    0 0 0
  37 C    1     1.5504     2.9298    3 B    0 0 0
  37 C    1     2.1471     4.0575   17 H    0 1 0
  37 C    1     2.1472     4.0576   13 H    0 0 0
  37 C    1     2.4246     4.5817   41 C    0 1 0

  38 C    1     1.4020     2.6495   44 C    0 0 0
  38 C    1     1.4021     2.6495   40 C    0 0 0
  38 C    1     1.5504     2.9298    4 B    0 0 0
  38 C    1     2.1471     4.0575   18 H    0 0 0
  38 C    1     2.1472     4.0576   14 H    0 0 0
  38 C    1     2.4246     4.5817   42 C    0 0 0

  39 C    1     1.0913     2.0623   13 H    0 0 0
  39 C    1     1.3914     2.6294   45 C    0 0 0
  39 C    1     1.4021     2.6495   37 C    0 0 0
  39 C    1     2.1669     4.0948   19 H    0 0 0
  39 C    1     2.4177     4.5688   43 C    0 1 0
  39 C    1     2.4250     4.5825   47 C    0 1 0

  40 C    1     1.0913     2.0623   14 H    0 0 0
  40 C    1     1.3914     2.6294   46 C    0 0 0
  40 C    1     1.4021     2.6495   38 C    0 0 0
  40 C    1     2.1669     4.0948   20 H    0 0 0
  40 C    1     2.4177     4.5688   44 C    0 0 0
  40 C    1     2.4250     4.5825   48 C    0 0 0

  41 C    1     1.0914     2.0625   15 H    0 0 0
  41 C    1     1.3914     2.6293   43 C    0 0 0
  41 C    1     1.4026     2.6505   47 C    0 0 0
  41 C    1     2.1680     4.0970   17 H    0 0 0
  41 C    1     2.4182     4.5697   45 C    0-1 0
  41 C    1     2.4246     4.5817   37 C    0-1 0

  42 C    1     1.0914     2.0625   16 H    0 0 0
  42 C    1     1.3914     2.6293   44 C    0 0 0
  42 C    1     1.4026     2.6505   48 C    0 0 0
  42 C    1     2.1680     4.0970   18 H    0 0 0
  42 C    1     2.4182     4.5697   46 C    0 0 0
  42 C    1     2.4246     4.5817   38 C    0 0 0

  43 C    1     1.0914     2.0624   17 H    0 0 0
  43 C    1     1.3914     2.6293   41 C    0 0 0
  43 C    1     1.4020     2.6495   37 C    0-1 0
  43 C    1     2.1666     4.0942   15 H    0 0 0
  43 C    1     2.4177     4.5688   39 C    0-1 0
  43 C    1     2.4250     4.5826   47 C    0 0 0

  44 C    1     1.0914     2.0624   18 H    0 0 0
  44 C    1     1.3914     2.6293   42 C    0 0 0
  44 C    1     1.4020     2.6495   38 C    0 0 0
  44 C    1     2.1666     4.0942   16 H    0 0 0
  44 C    1     2.4177     4.5688   40 C    0 0 0
  44 C    1     2.4250     4.5826   48 C    0 0 0

  45 C    1     1.0915     2.0626   19 H    0 0 0
  45 C    1     1.3914     2.6294   39 C    0 0 0
  45 C    1     1.4025     2.6504   47 C    0 1 0
  45 C    1     2.1680     4.0969   13 H    0 0 0
  45 C    1     2.4182     4.5697   41 C    0 1 0
  45 C    1     2.4246     4.5818   37 C    0 0 0

  46 C    1     1.0915     2.0626   20 H    0 0 0
  46 C    1     1.3914     2.6294   40 C    0 0 0
  46 C    1     1.4025     2.6504   48 C    0 0 0
  46 C    1     2.1680     4.0969   14 H    0 0 0
  46 C    1     2.4182     4.5697   42 C    0 0 0
  46 C    1     2.4246     4.5818   38 C    0 0 0

  47 C    1     1.4025     2.6504   45 C    0-1 0
  47 C    1     1.4026     2.6505   41 C    0 0 0
  47 C    1     1.5513     2.9316    7 B    0 0 0
  47 C    1     2.1490     4.0610   19 H    0-1 0
  47 C    1     2.1493     4.0616   15 H    0 0 0
  47 C    1     2.4250     4.5825   39 C    0-1 0

  48 C    1     1.4025     2.6504   46 C    0 0 0
  48 C    1     1.4026     2.6505   42 C    0 0 0
  48 C    1     1.5513     2.9316    8 B    0 0 0
  48 C    1     2.1490     4.0610   20 H    0 0 0
  48 C    1     2.1493     4.0616   16 H    0 0 0
  48 C    1     2.4250     4.5825   40 C    0 0 0

  49 C    1     1.4020     2.6494   51 C    1 0 0
  49 C    1     1.4021     2.6495   55 C    0 0 0
  49 C    1     1.5503     2.9297    1 B    1 0 0
  49 C    1     2.1469     4.0571   21 H    1 0 0
  49 C    1     2.1475     4.0581   25 H    0 0 0
  49 C    1     2.4246     4.5818   53 C    0 0 0

  50 C    1     1.4020     2.6494   52 C    0-1 0
  50 C    1     1.4021     2.6495   56 C   -1-1 0
  50 C    1     1.5503     2.9297    2 B    0 0 0
  50 C    1     2.1469     4.0571   22 H    0-1 0
  50 C    1     2.1475     4.0581   26 H   -1-1 0
  50 C    1     2.4246     4.5818   54 C   -1-1 0

  51 C    1     1.0913     2.0623   21 H    0 0 0
  51 C    1     1.3914     2.6293   57 C    0 0 0
  51 C    1     1.4020     2.6494   49 C   -1 0 0
  51 C    1     2.1666     4.0942   27 H    0 0 0
  51 C    1     2.4175     4.5684   55 C   -1 0 0
  51 C    1     2.4251     4.5828   59 C   -1 0 0

  52 C    1     1.0913     2.0623   22 H    0 0 0
  52 C    1     1.3914     2.6293   58 C    0 0 0
  52 C    1     1.4020     2.6494   50 C    0 1 0
  52 C    1     2.1666     4.0942   28 H    0 0 0
  52 C    1     2.4175     4.5684   56 C   -1 0 0
  52 C    1     2.4251     4.5828   60 C   -1 0 0

  53 C    1     1.0914     2.0625   23 H    0 0 0
  53 C    1     1.3915     2.6295   55 C    0 0 0
  53 C    1     1.4026     2.6505   59 C    0 0 0
  53 C    1     2.1679     4.0967   25 H    0 0 0
  53 C    1     2.4179     4.5691   57 C    1 0 0
  53 C    1     2.4246     4.5818   49 C    0 0 0

  54 C    1     1.0914     2.0625   24 H    0 0 0
  54 C    1     1.3915     2.6295   56 C    0 0 0
  54 C    1     1.4026     2.6505   60 C    0 0 0
  54 C    1     2.1679     4.0967   26 H    0 0 0
  54 C    1     2.4179     4.5691   58 C    1 0 0
  54 C    1     2.4246     4.5818   50 C    1 1 0

  55 C    1     1.0914     2.0624   25 H    0 0 0
  55 C    1     1.3915     2.6295   53 C    0 0 0
  55 C    1     1.4021     2.6495   49 C    0 0 0
  55 C    1     2.1664     4.0939   23 H    0 0 0
  55 C    1     2.4175     4.5684   51 C    1 0 0
  55 C    1     2.4253     4.5832   59 C    0 0 0

  56 C    1     1.0914     2.0624   26 H    0 0 0
  56 C    1     1.3915     2.6295   54 C    0 0 0
  56 C    1     1.4021     2.6495   50 C    1 1 0
  56 C    1     2.1664     4.0939   24 H    0 0 0
  56 C    1     2.4175     4.5684   52 C    1 0 0
  56 C    1     2.4253     4.5832   60 C    0 0 0

  57 C    1     1.0914     2.0625   27 H    0 0 0
  57 C    1     1.3914     2.6293   51 C    0 0 0
  57 C    1     1.4025     2.6504   59 C   -1 0 0
  57 C    1     2.1680     4.0968   21 H    0 0 0
  57 C    1     2.4179     4.5691   53 C   -1 0 0
  57 C    1     2.4247     4.5819   49 C   -1 0 0

  58 C    1     1.0914     2.0625   28 H    0 0 0
  58 C    1     1.3914     2.6293   52 C    0 0 0
  58 C    1     1.4025     2.6504   60 C   -1 0 0
  58 C    1     2.1680     4.0968   22 H    0 0 0
  58 C    1     2.4179     4.5691   54 C   -1 0 0
  58 C    1     2.4247     4.5819   50 C    0 1 0

  59 C    1     1.4025     2.6504   57 C    1 0 0
  59 C    1     1.4026     2.6505   53 C    0 0 0
  59 C    1     1.5516     2.9322   11 B    0 0 0
  59 C    1     2.1491     4.0612   27 H    1 0 0
  59 C    1     2.1493     4.0617   23 H    0 0 0
  59 C    1     2.4251     4.5828   51 C    1 0 0

  60 C    1     1.4025     2.6504   58 C    1 0 0
  60 C    1     1.4026     2.6505   54 C    0 0 0
  60 C    1     1.5516     2.9322   12 B    0 0 0
  60 C    1     2.1491     4.0612   28 H    1 0 0
  60 C    1     2.1493     4.0617   24 H    0 0 0
  60 C    1     2.4251     4.5828   52 C    1 0 0

  61 C    1     1.4021     2.6496   63 C    1 1 0
  61 C    1     1.4021     2.6497   67 C    0 0 0
  61 C    1     1.5502     2.9294    5 B    1 1 0
  61 C    1     2.1475     4.0582   29 H    1 1 0
  61 C    1     2.1479     4.0589   33 H    0 0 0
  61 C    1     2.4244     4.5814   65 C    0 0 0

  62 C    1     1.4021     2.6496   64 C    0 0 0
  62 C    1     1.4021     2.6497   68 C    0 0 0
  62 C    1     1.5502     2.9294    6 B    0 0 0
  62 C    1     2.1475     4.0582   30 H    0 0 0
  62 C    1     2.1479     4.0589   34 H    0 0 0
  62 C    1     2.4244     4.5814   66 C    0 0 0

  63 C    1     1.0914     2.0624   29 H    0 0 0
  63 C    1     1.3914     2.6293   69 C    0 0 0
  63 C    1     1.4021     2.6496   61 C   -1-1 0
  63 C    1     2.1668     4.0947   35 H    0 0 0
  63 C    1     2.4179     4.5692   67 C   -1-1 0
  63 C    1     2.4251     4.5827   71 C   -1-1 0

  64 C    1     1.0914     2.0624   30 H    0 0 0
  64 C    1     1.3914     2.6293   70 C    0 0 0
  64 C    1     1.4021     2.6496   62 C    0 0 0
  64 C    1     2.1668     4.0947   36 H    0 0 0
  64 C    1     2.4179     4.5692   68 C    0 0 0
  64 C    1     2.4251     4.5827   72 C    0 0 0

  65 C    1     1.0913     2.0623   31 H    0 0 0
  65 C    1     1.3914     2.6294   67 C    0 0 0
  65 C    1     1.4025     2.6504   71 C    0 0 0
  65 C    1     2.1679     4.0968   33 H    0 0 0
  65 C    1     2.4178     4.5690   69 C    1 1 0
  65 C    1     2.4244     4.5814   61 C    0 0 0

  66 C    1     1.0913     2.0623   32 H    0 0 0
  66 C    1     1.3914     2.6294   68 C    0 0 0
  66 C    1     1.4025     2.6504   72 C    0 0 0
  66 C    1     2.1679     4.0968   34 H    0 0 0
  66 C    1     2.4178     4.5690   70 C    0 0 0
  66 C    1     2.4244     4.5814   62 C    0 0 0

  67 C    1     1.0915     2.0626   33 H    0 0 0
  67 C    1     1.3914     2.6294   65 C    0 0 0
  67 C    1     1.4021     2.6497   61 C    0 0 0
  67 C    1     2.1667     4.0945   31 H    0 0 0
  67 C    1     2.4179     4.5692   63 C    1 1 0
  67 C    1     2.4253     4.5832   71 C    0 0 0

  68 C    1     1.0915     2.0626   34 H    0 0 0
  68 C    1     1.3914     2.6294   66 C    0 0 0
  68 C    1     1.4021     2.6497   62 C    0 0 0
  68 C    1     2.1667     4.0945   32 H    0 0 0
  68 C    1     2.4179     4.5692   64 C    0 0 0
  68 C    1     2.4253     4.5832   72 C    0 0 0

  69 C    1     1.0914     2.0624   35 H    0 0 0
  69 C    1     1.3914     2.6293   63 C    0 0 0
  69 C    1     1.4025     2.6503   71 C   -1-1 0
  69 C    1     2.1678     4.0966   29 H    0 0 0
  69 C    1     2.4178     4.5690   65 C   -1-1 0
  69 C    1     2.4245     4.5817   61 C   -1-1 0

  70 C    1     1.0914     2.0624   36 H    0 0 0
  70 C    1     1.3914     2.6293   64 C    0 0 0
  70 C    1     1.4025     2.6503   72 C    0 0 0
  70 C    1     2.1678     4.0966   30 H    0 0 0
  70 C    1     2.4178     4.5690   66 C    0 0 0
  70 C    1     2.4245     4.5817   62 C    0 0 0

  71 C    1     1.4025     2.6503   69 C    1 1 0
  71 C    1     1.4025     2.6504   65 C    0 0 0
  71 C    1     1.5516     2.9322    9 B    0 0 0
  71 C    1     2.1486     4.0602   35 H    1 1 0
  71 C    1     2.1487     4.0605   31 H    0 0 0
  71 C    1     2.4251     4.5827   63 C    1 1 0

  72 C    1     1.4025     2.6503   70 C    0 0 0
  72 C    1     1.4025     2.6504   66 C    0 0 0
  72 C    1     1.5516     2.9322   10 B    0 0 0
  72 C    1     2.1486     4.0602   36 H    0 0 0
  72 C    1     2.1487     4.0605   32 H    0 0 0
  72 C    1     2.4251     4.5827   64 C    0 0 0

  73 O    1     1.3791     2.6061    1 B    1 0 0
  73 O    1     1.3791     2.6061    5 B    1 1 0
  73 O    1     2.3880     4.5126   75 O    1 0 0
  73 O    1     2.3882     4.5130   77 O    1 1 0
  73 O    1     2.5383     4.7966   61 C    0 0 0
  73 O    1     2.5384     4.7968   49 C    0 0 0

  74 O    1     1.3791     2.6061    2 B    0 0 0
  74 O    1     1.3791     2.6061    6 B    0 0 0
  74 O    1     2.3880     4.5126   76 O    0 0 0
  74 O    1     2.3882     4.5130   78 O    0 0 0
  74 O    1     2.5383     4.7966   62 C    0 0 0
  74 O    1     2.5384     4.7968   50 C    0 0 0

  75 O    1     1.3793     2.6065    1 B    0 0 0
  75 O    1     1.3793     2.6065    3 B    0 0 0
  75 O    1     2.3880     4.5126   73 O   -1 0 0
  75 O    1     2.3882     4.5131   77 O    0 1 0
  75 O    1     2.5391     4.7981   37 C    0 0 0
  75 O    1     2.5395     4.7990   49 C   -1 0 0

  76 O    1     1.3793     2.6065    2 B    0 0 0
  76 O    1     1.3793     2.6065    4 B    0 0 0
  76 O    1     2.3880     4.5126   74 O    0 0 0
  76 O    1     2.3882     4.5131   78 O    0 0 0
  76 O    1     2.5391     4.7981   38 C    0 0 0
  76 O    1     2.5395     4.7990   50 C    0 0 0

  77 O    1     1.3793     2.6064    5 B    0 0 0
  77 O    1     1.3793     2.6065    3 B    0-1 0
  77 O    1     2.3882     4.5130   73 O   -1-1 0
  77 O    1     2.3882     4.5131   75 O    0-1 0
  77 O    1     2.5390     4.7980   37 C    0-1 0
  77 O    1     2.5391     4.7982   61 C   -1-1 0

  78 O    1     1.3793     2.6064    6 B    0 0 0
  78 O    1     1.3793     2.6065    4 B    0 0 0
  78 O    1     2.3882     4.5130   74 O    0 0 0
  78 O    1     2.3882     4.5131   76 O    0 0 0
  78 O    1     2.5390     4.7980   38 C    0 0 0
  78 O    1     2.5391     4.7982   62 C    0 0 0

  79 O    1     1.3795     2.6068   11 B    0 0 0
  79 O    1     1.3795     2.6068    7 B    0 0 0
  79 O    1     2.3880     4.5126   83 O    1 0 0
  79 O    1     2.3884     4.5134   81 O    0-1 0
  79 O    1     2.5400     4.7998   47 C    0 0 0
  79 O    1     2.5403     4.8005   59 C    0 0 0

  80 O    1     1.3795     2.6068   12 B    0 0 0
  80 O    1     1.3795     2.6068    8 B    0 0 0
  80 O    1     2.3880     4.5126   84 O    1 0 0
  80 O    1     2.3884     4.5134   82 O    0 0 0
  80 O    1     2.5400     4.7998   48 C    0 0 0
  80 O    1     2.5403     4.8005   60 C    0 0 0

  81 O    1     1.3795     2.6069    9 B    0 0 0
  81 O    1     1.3795     2.6070    7 B    0 1 0
  81 O    1     2.3881     4.5128   83 O    1 1 0
  81 O    1     2.3884     4.5134   79 O    0 1 0
  81 O    1     2.5404     4.8006   47 C    0 1 0
  81 O    1     2.5405     4.8008   71 C    0 0 0

  82 O    1     1.3795     2.6069   10 B    1 0 0
  82 O    1     1.3795     2.6070    8 B    0 0 0
  82 O    1     2.3881     4.5128   84 O    1 0 0
  82 O    1     2.3884     4.5134   80 O    0 0 0
  82 O    1     2.5404     4.8006   48 C    0 0 0
  82 O    1     2.5405     4.8008   72 C    1 0 0

  83 O    1     1.3796     2.6071   11 B   -1 0 0
  83 O    1     1.3797     2.6072    9 B   -1-1 0
  83 O    1     2.3880     4.5126   79 O   -1 0 0
  83 O    1     2.3881     4.5128   81 O   -1-1 0
  83 O    1     2.5409     4.8016   71 C   -1-1 0
  83 O    1     2.5410     4.8019   59 C   -1 0 0

  84 O    1     1.3796     2.6071   12 B   -1 0 0
  84 O    1     1.3797     2.6072   10 B    0 0 0
  84 O    1     2.3880     4.5126   80 O   -1 0 0
  84 O    1     2.3881     4.5128   82 O   -1 0 0
  84 O    1     2.5409     4.8016   72 C    0 0 0
  84 O    1     2.5410     4.8019   60 C   -1 0 0


 SYMMETRY ALLOWED INTERNAL DEGREE(S) OF FREEDOM: 249
 TTTTTTTTTTTTTTTTTTTTTTTTTTTTTT SYMM        TELAPSE        3.09 TCPU        3.09
 TTTTTTTTTTTTTTTTTTTTTTTTTTTTTT INT_SCREEN  TELAPSE        3.32 TCPU        3.31

 DFT PARAMETERS

     ATOM       ELECTRONS   NET CHARGE   R(ANGSTROM)
   1   5  B       5.0000      0.0000     0.89000000
  13   1  H       1.0000      0.0000     1.11000000
  37   6  C       6.0000      0.0000     0.77000000
  73   8  O       8.0000      0.0000     0.74000000

 SIZE OF GRID=    2420222
 TTTTTTTTTTTTTTTTTTTTTTTTTTTTTT MAKE_GRID2  TELAPSE       31.26 TCPU       31.23
 BECKE WEIGHT FUNCTION
 RADSAFE =     2.00
 TOLERANCES - DENSITY:10**- 6; POTENTIAL:10**- 9; GRID WGT:10**-14

 RADIAL INTEGRATION  - INTERVALS (POINTS,UPPER LIMIT):            1( 75,  4.0*R)

 ANGULAR INTEGRATION - INTERVALS (ACCURACY LEVEL [N. POINTS] UPPER LIMIT):
  1(  4[  86]   0.2)  2(  8[ 194]   0.5)  3( 12[ 350]   0.9)  4( 16[ 974]   3.5)
  5( 12[ 350]9999.0)
 TTTTTTTTTTTTTTTTTTTTTTTTTTTTTT INT_CALC    TELAPSE       31.62 TCPU       31.58
 EEEEEEEEEE INT_CALC TERMINATION  DATE 19 02 2026 TIME 19:26:41.4

 *******************************************************************************
 cof-1_z30_L030_serr                                                             
 CRYSTAL - SCF - TYPE OF CALCULATION :  RESTRICTED CLOSED SHELL
 *******************************************************************************

 CAPPA:IS1  2;IS2  2;IS3  8; K PTS MONK NET  20; SYMMOPS:K SPACE   2;G SPACE   1

 TTTTTTTTTTTTTTTTTTTTTTTTTTTTTT SDIK        TELAPSE       34.33 TCPU       69.63

 AAAAAAAAAAAAAAAAAAAAAAAAAAAAAAAAAAAAAAAAAAAAAAAAAAAAAAAAAAAAAAAAAAAAAAAAAAAAAAA
         ATOMIC WAVEFUNCTION(S)


 NUCLEAR CHARGE  5.0  SYMMETRY SPECIES            S    P
 N. ELECTRONS    5.0  NUMBER OF PRIMITIVE GTOS    8    4
                      NUMBER OF CONTRACTED GTOS   4    2
                      NUMBER OF CLOSED SHELLS     2    0
                      OPEN SHELL OCCUPATION       0    1

  ZNUC  SCFIT    TOTAL HF ENERGY   KINETIC ENERGY   VIRIAL THEOREM ACCURACY
   5.0    11    -2.451164084E+01  2.462155050E+01 -1.995536038E+00  1.5E-06

 NUCLEAR CHARGE  1.0  SYMMETRY SPECIES            S
 N. ELECTRONS    1.0  NUMBER OF PRIMITIVE GTOS    4
                      NUMBER OF CONTRACTED GTOS   2
                      NUMBER OF CLOSED SHELLS     0
                      OPEN SHELL OCCUPATION       1

  ZNUC  SCFIT    TOTAL HF ENERGY   KINETIC ENERGY   VIRIAL THEOREM ACCURACY
   1.0     1    -4.977266687E-01  5.190767460E-01 -1.958869132E+00  0.0E+00

 NUCLEAR CHARGE  6.0  SYMMETRY SPECIES            S    P
 N. ELECTRONS    6.0  NUMBER OF PRIMITIVE GTOS    8    4
                      NUMBER OF CONTRACTED GTOS   4    2
                      NUMBER OF CLOSED SHELLS     2    0
                      OPEN SHELL OCCUPATION       0    2

  ZNUC  SCFIT    TOTAL HF ENERGY   KINETIC ENERGY   VIRIAL THEOREM ACCURACY
   6.0     9    -3.766704647E+01  3.775180683E+01 -1.997754800E+00  1.1E-06

 NUCLEAR CHARGE  8.0  SYMMETRY SPECIES            S    P
 N. ELECTRONS    8.0  NUMBER OF PRIMITIVE GTOS    8    4
                      NUMBER OF CONTRACTED GTOS   4    2
                      NUMBER OF CLOSED SHELLS     2    0
                      OPEN SHELL OCCUPATION       0    4

  ZNUC  SCFIT    TOTAL HF ENERGY   KINETIC ENERGY   VIRIAL THEOREM ACCURACY
   8.0    12    -7.477373220E+01  7.477365593E+01 -2.000001020E+00  3.8E-06

 AAAAAAAAAAAAAAAAAAAAAAAAAAAAAAAAAAAAAAAAAAAAAAAAAAAAAAAAAAAAAAAAAAAAAAAAAAAAAAA

 CHARGE NORMALIZATION FACTOR   1.00000000
 TOTAL ATOMIC CHARGES:
   5.0000000   5.0000000   5.0000000   5.0000000   5.0000000   5.0000000
   5.0000000   5.0000000   5.0000000   5.0000000   5.0000000   5.0000000
   1.0000000   1.0000000   1.0000000   1.0000000   1.0000000   1.0000000
   1.0000000   1.0000000   1.0000000   1.0000000   1.0000000   1.0000000
   1.0000000   1.0000000   1.0000000   1.0000000   1.0000000   1.0000000
   1.0000000   1.0000000   1.0000000   1.0000000   1.0000000   1.0000000
   6.0000000   6.0000000   6.0000000   6.0000000   6.0000000   6.0000000
   6.0000000   6.0000000   6.0000000   6.0000000   6.0000000   6.0000000
   6.0000000   6.0000000   6.0000000   6.0000000   6.0000000   6.0000000
   6.0000000   6.0000000   6.0000000   6.0000000   6.0000000   6.0000000
   6.0000000   6.0000000   6.0000000   6.0000000   6.0000000   6.0000000
   6.0000000   6.0000000   6.0000000   6.0000000   6.0000000   6.0000000
   8.0000000   8.0000000   8.0000000   8.0000000   8.0000000   8.0000000
   8.0000000   8.0000000   8.0000000   8.0000000   8.0000000   8.0000000
 TTTTTTTTTTTTTTTTTTTTTTTTTTTTTT MOQGAD      TELAPSE       34.45 TCPU       72.57
 TTTTTTTTTTTTTTTTTTTTTTTTTTTTTT SHELLXN     TELAPSE       67.22 TCPU     1119.52
 TTTTTTTTTTTTTTTTTTTTTTTTTTTTTT MONMO3      TELAPSE       67.92 TCPU     1142.01
 NUMERICALLY INTEGRATED DENSITY    396.0000517071
 TTTTTTTTTTTTTTTTTTTTTTTTTTTTTT NUMDFT      TELAPSE       69.70 TCPU     1198.79
 CYC   0 ETOT(AU) -2.592138326197E+03 DETOT -2.59E+03 tst  0.00E+00 PX  1.00E+00
 TTTTTTTTTTTTTTTTTTTTTTTTTTTTTT DIIS        TELAPSE       69.82 TCPU     1202.48
 TTTTTTTTTTTTTTTTTTTTTTTTTTTTTT FDIK        TELAPSE       71.62 TCPU     1260.13
 INSULATING STATE
 TOP OF VALENCE BANDS -    BAND    198; K    1; EIG -2.8929183E-01 AU
 BOTTOM OF VIRTUAL BANDS - BAND    199; K    1; EIG -1.7287509E-01 AU
 DIRECT ENERGY BAND GAP:   3.1679 eV
 TTTTTTTTTTTTTTTTTTTTTTTTTTTTTT PDIG        TELAPSE       73.27 TCPU     1267.17
 CHARGE NORMALIZATION FACTOR   1.00000000
 TOTAL ATOMIC CHARGES:
   4.1273103   4.1073424   4.1311107   4.1543272   4.1312557   4.1545849
   4.1542335   4.1310033   4.1539731   4.1308471   4.1073219   4.1269288
   0.7866236   0.7860228   0.7861377   0.7867357   0.7790069   0.7862006
   0.7863180   0.7791215   0.7871295   0.7866057   0.7867754   0.7872923
   0.7871180   0.7865899   0.7867235   0.7872552   0.7790074   0.7862027
   0.7863834   0.7791909   0.7865778   0.7859719   0.7861279   0.7867292
   6.0409248   6.0545240   6.2786131   6.2654624   6.2654300   6.2785914
   6.2730233   6.2658477   6.2658064   6.2729564   6.0537616   6.0401691
   6.0443085   6.0722019   6.2735373   6.2497537   6.2498066   6.2735742
   6.2734794   6.2497145   6.2497933   6.2736129   6.0708813   6.0429639
   6.0412980   6.0549113   6.2727809   6.2656008   6.2662068   6.2733499
   6.2782211   6.2650679   6.2657262   6.2788547   6.0532681   6.0396982
   8.7148292   8.7085876   8.7149605   8.7087215   8.7104609   8.6953495
   8.7090023   8.7152322   8.6957791   8.7107646   8.7091367   8.7153673
 TTTTTTTTTTTTTTTTTTTTTTTTTTTTTT MOQGAD      TELAPSE       73.39 TCPU     1267.29
 TTTTTTTTTTTTTTTTTTTTTTTTTTTTTT SHELLXN     TELAPSE      107.46 TCPU     2354.86
 TTTTTTTTTTTTTTTTTTTTTTTTTTTTTT MONMO3      TELAPSE      108.16 TCPU     2377.33
 NUMERICALLY INTEGRATED DENSITY    396.0000380203
 TTTTTTTTTTTTTTTTTTTTTTTTTTTTTT NUMDFT      TELAPSE      109.97 TCPU     2435.09
 CYC   1 ETOT(AU) -2.577643533012E+03 DETOT  1.45E+01 tst  0.00E+00 PX  1.00E+00
 TTTTTTTTTTTTTTTTTTTTTTTTTTTTTT DIIS        TELAPSE      110.12 TCPU     2439.69
 DIIS TEST: 0.21772E+01 AT SCF   CYCLE   1 - MIX   30 %
 TTTTTTTTTTTTTTTTTTTTTTTTTTTTTT FDIK        TELAPSE      111.95 TCPU     2498.22
 INSULATING STATE
 TOP OF VALENCE BANDS -    BAND    198; K    1; EIG -1.9171181E-01 AU
 BOTTOM OF VIRTUAL BANDS - BAND    199; K    1; EIG -9.4228499E-02 AU
 DIRECT ENERGY BAND GAP:   2.6527 eV
 TTTTTTTTTTTTTTTTTTTTTTTTTTTTTT PDIG        TELAPSE      113.61 TCPU     2505.26
 CHARGE NORMALIZATION FACTOR   1.00000000
 TOTAL ATOMIC CHARGES:
   4.5890801   4.6420258   4.6640606   4.6932740   4.6638297   4.6932662
   4.6936296   4.6645494   4.6935569   4.6646361   4.6427521   4.5892368
   0.9152212   0.9014791   0.9016521   0.9152295   0.9229845   0.9181914
   0.9182554   0.9229845   0.9171772   0.8928219   0.8928656   0.9173945
   0.9171750   0.8927926   0.8928441   0.9173077   0.9229629   0.9181790
   0.9183199   0.9230356   0.9151578   0.9014073   0.9016608   0.9152053
   5.8613411   5.8737861   6.1750742   6.0640393   6.0644839   6.1755728
   6.1444109   6.1667648   6.1674728   6.1454388   5.8766124   5.8641296
   5.8439450   6.0031307   6.1340947   6.1501880   6.1509021   6.1346962
   6.1342248   6.1502602   6.1508716   6.1347401   6.0064673   5.8468074
   5.8612845   5.8737198   6.1444075   6.1668251   6.1673139   6.1454392
   6.1753613   6.0642194   6.0642780   6.1752558   5.8768769   5.8644021
   8.3376372   8.3419688   8.3380558   8.3423104   8.4070879   8.3508944
   8.3419000   8.3373944   8.3506410   8.4070248   8.3422866   8.3377577
 TTTTTTTTTTTTTTTTTTTTTTTTTTTTTT MOQGAD      TELAPSE      113.73 TCPU     2505.38
 TTTTTTTTTTTTTTTTTTTTTTTTTTTTTT SHELLXN     TELAPSE      147.78 TCPU     3592.47
 TTTTTTTTTTTTTTTTTTTTTTTTTTTTTT MONMO3      TELAPSE      148.48 TCPU     3614.95
 NUMERICALLY INTEGRATED DENSITY    396.0000496067
 TTTTTTTTTTTTTTTTTTTTTTTTTTTTTT NUMDFT      TELAPSE      150.29 TCPU     3672.72
 CYC   2 ETOT(AU) -2.578013762889E+03 DETOT -3.70E-01 tst  3.97E-03 PX  1.61E-01
 TTTTTTTTTTTTTTTTTTTTTTTTTTTTTT DIIS        TELAPSE      150.46 TCPU     3678.04
 DIIS TEST: 0.94418E+00 AT SCF   CYCLE   2 - DIIS ACTIVE - HISTORY:     2 CYCLES
 TTTTTTTTTTTTTTTTTTTTTTTTTTTTTT FDIK        TELAPSE      152.29 TCPU     3736.60
 INSULATING STATE
 TOP OF VALENCE BANDS -    BAND    198; K    1; EIG -2.0884132E-01 AU
 BOTTOM OF VIRTUAL BANDS - BAND    199; K    1; EIG -8.9864698E-02 AU
 DIRECT ENERGY BAND GAP:   3.2375 eV
 TTTTTTTTTTTTTTTTTTTTTTTTTTTTTT PDIG        TELAPSE      153.94 TCPU     3743.63
 CHARGE NORMALIZATION FACTOR   1.00000000
 TOTAL ATOMIC CHARGES:
   4.4377871   4.4059158   4.4487114   4.4909421   4.4486761   4.4910265
   4.4902801   4.4478226   4.4900882   4.4476985   4.4052532   4.4370828
   0.9006617   0.8694227   0.8693596   0.9009642   0.8891722   0.8968193
   0.8969028   0.8891192   0.8903766   0.8806725   0.8811356   0.8903278
   0.8904057   0.8806704   0.8810731   0.8902031   0.8891508   0.8968257
   0.8969489   0.8891921   0.9006654   0.8694292   0.8693009   0.9008950
   5.8760912   5.9121067   6.1615976   6.1945565   6.1940425   6.1613009
   6.1738826   6.1502926   6.1494028   6.1722242   5.9102376   5.8741990
   5.9704633   5.9234969   6.1808138   6.1382940   6.1373773   6.1804022
   6.1809624   6.1385351   6.1371952   6.1804078   5.9210039   5.9687026
   5.8764843   5.9124609   6.1738590   6.1502731   6.1494826   6.1723065
   6.1615810   6.1944789   6.1940505   6.1612940   5.9099256   5.8738323
   8.5347451   8.5284510   8.5348680   8.5285687   8.5332146   8.5056537
   8.5284460   8.5350576   8.5059398   8.5326963   8.5285237   8.5352393
 TTTTTTTTTTTTTTTTTTTTTTTTTTTTTT MOQGAD      TELAPSE      154.06 TCPU     3743.75
 TTTTTTTTTTTTTTTTTTTTTTTTTTTTTT SHELLXN     TELAPSE      188.12 TCPU     4830.95
 TTTTTTTTTTTTTTTTTTTTTTTTTTTTTT MONMO3      TELAPSE      188.82 TCPU     4853.40
 NUMERICALLY INTEGRATED DENSITY    396.0000466783
 TTTTTTTTTTTTTTTTTTTTTTTTTTTTTT NUMDFT      TELAPSE      190.63 TCPU     4911.13
 CYC   3 ETOT(AU) -2.578201205364E+03 DETOT -1.87E-01 tst  7.50E-04 PX  7.09E-02
 TTTTTTTTTTTTTTTTTTTTTTTTTTTTTT DIIS        TELAPSE      190.82 TCPU     4917.17
 DIIS TEST: 0.59358E-01 AT SCF   CYCLE   3 - DIIS ACTIVE - HISTORY:     3 CYCLES
 TTTTTTTTTTTTTTTTTTTTTTTTTTTTTT FDIK        TELAPSE      192.65 TCPU     4975.63
 INSULATING STATE
 TOP OF VALENCE BANDS -    BAND    198; K    1; EIG -2.1495117E-01 AU
 BOTTOM OF VIRTUAL BANDS - BAND    199; K    1; EIG -9.8776671E-02 AU
 DIRECT ENERGY BAND GAP:   3.1613 eV
 TTTTTTTTTTTTTTTTTTTTTTTTTTTTTT PDIG        TELAPSE      194.31 TCPU     4982.68
 CHARGE NORMALIZATION FACTOR   1.00000000
 TOTAL ATOMIC CHARGES:
   4.4277798   4.4277714   4.4642522   4.4848059   4.4641788   4.4848711
   4.4853575   4.4649249   4.4851723   4.4648531   4.4284935   4.4280008
   0.8753077   0.8695607   0.8698629   0.8752454   0.8807387   0.8767137
   0.8767785   0.8807485   0.8820002   0.8624561   0.8623178   0.8824147
   0.8820326   0.8624526   0.8622575   0.8822860   0.8807556   0.8767220
   0.8768292   0.8807704   0.8752881   0.8695194   0.8698354   0.8751887
   5.9365601   5.9326664   6.1984754   6.1203535   6.1210760   6.1988844
   6.1727680   6.1839337   6.1854578   6.1754244   5.9367774   5.9406146
   5.8918402   6.0621044   6.1493137   6.1800724   6.1814220   6.1501614
   6.1491372   6.1800049   6.1815450   6.1504487   6.0662877   5.8948278
   5.9365643   5.9326548   6.1725817   6.1838553   6.1855057   6.1756728
   6.1983979   6.1202208   6.1212084   6.1989166   5.9368798   5.9406955
   8.4922529   8.5013344   8.4925964   8.5016009   8.5449643   8.4957760
   8.5016882   8.4920981   8.4956856   8.5457174   8.5019975   8.4924337
 TTTTTTTTTTTTTTTTTTTTTTTTTTTTTT MOQGAD      TELAPSE      194.43 TCPU     4982.80
 TTTTTTTTTTTTTTTTTTTTTTTTTTTTTT SHELLXN     TELAPSE      228.49 TCPU     6070.14
 TTTTTTTTTTTTTTTTTTTTTTTTTTTTTT MONMO3      TELAPSE      229.19 TCPU     6092.61
 NUMERICALLY INTEGRATED DENSITY    396.0000470845
 TTTTTTTTTTTTTTTTTTTTTTTTTTTTTT NUMDFT      TELAPSE      231.00 TCPU     6150.24
 CYC   4 ETOT(AU) -2.578210413633E+03 DETOT -9.21E-03 tst  3.22E-04 PX  3.48E-02
 TTTTTTTTTTTTTTTTTTTTTTTTTTTTTT DIIS        TELAPSE      231.20 TCPU     6156.90
 DIIS TEST: 0.25947E-01 AT SCF   CYCLE   4 - DIIS ACTIVE - HISTORY:     4 CYCLES
 TTTTTTTTTTTTTTTTTTTTTTTTTTTTTT FDIK        TELAPSE      233.03 TCPU     6214.97
 INSULATING STATE
 TOP OF VALENCE BANDS -    BAND    198; K    1; EIG -2.1595762E-01 AU
 BOTTOM OF VIRTUAL BANDS - BAND    199; K    1; EIG -9.8445045E-02 AU
 DIRECT ENERGY BAND GAP:   3.1977 eV
 TTTTTTTTTTTTTTTTTTTTTTTTTTTTTT PDIG        TELAPSE      234.68 TCPU     6222.00
 CHARGE NORMALIZATION FACTOR   1.00000000
 TOTAL ATOMIC CHARGES:
   4.4313721   4.4265196   4.4615329   4.4940113   4.4614586   4.4940852
   4.4936095   4.4610241   4.4934241   4.4609444   4.4262041   4.4309528
   0.8798299   0.8628481   0.8628547   0.8800652   0.8792649   0.8782397
   0.8783870   0.8792850   0.8751402   0.8625313   0.8629263   0.8751698
   0.8751506   0.8625144   0.8628822   0.8750549   0.8792522   0.8782474
   0.8784352   0.8793448   0.8798050   0.8628237   0.8628148   0.8800131
   5.9153141   5.9430569   6.1876041   6.1494729   6.1490935   6.1875378
   6.1802621   6.1796309   6.1786230   6.1784031   5.9412165   5.9136221
   5.9587947   6.0027467   6.1816489   6.1585317   6.1577738   6.1813080
   6.1818101   6.1587031   6.1576275   6.1813121   6.0010555   5.9574479
   5.9155512   5.9432637   6.1801882   6.1796033   6.1786497   6.1785217
   6.1876724   6.1494522   6.1490813   6.1874488   5.9410943   5.9134573
   8.4983503   8.4981102   8.4985470   8.4982834   8.5280639   8.4915172
   8.4979917   8.4985638   8.4916187   8.5274053   8.4981715   8.4987765
 TTTTTTTTTTTTTTTTTTTTTTTTTTTTTT MOQGAD      TELAPSE      234.80 TCPU     6222.12
 TTTTTTTTTTTTTTTTTTTTTTTTTTTTTT SHELLXN     TELAPSE      268.85 TCPU     7309.05
 TTTTTTTTTTTTTTTTTTTTTTTTTTTTTT MONMO3      TELAPSE      269.55 TCPU     7331.51
 NUMERICALLY INTEGRATED DENSITY    396.0000464768
 TTTTTTTTTTTTTTTTTTTTTTTTTTTTTT NUMDFT      TELAPSE      271.36 TCPU     7389.25
 CYC   5 ETOT(AU) -2.578216120890E+03 DETOT -5.71E-03 tst  1.18E-04 PX  1.55E-02
 TTTTTTTTTTTTTTTTTTTTTTTTTTTTTT DIIS        TELAPSE      271.59 TCPU     7396.17
 DIIS TEST: 0.26322E-02 AT SCF   CYCLE   5 - DIIS ACTIVE - HISTORY:     5 CYCLES
 TTTTTTTTTTTTTTTTTTTTTTTTTTTTTT FDIK        TELAPSE      273.42 TCPU     7454.24
 INSULATING STATE
 TOP OF VALENCE BANDS -    BAND    198; K    1; EIG -2.1543020E-01 AU
 BOTTOM OF VIRTUAL BANDS - BAND    199; K    1; EIG -9.8392931E-02 AU
 DIRECT ENERGY BAND GAP:   3.1847 eV
 TTTTTTTTTTTTTTTTTTTTTTTTTTTTTT PDIG        TELAPSE      275.08 TCPU     7461.28
 CHARGE NORMALIZATION FACTOR   1.00000000
 TOTAL ATOMIC CHARGES:
   4.4293933   4.4271818   4.4631141   4.4940306   4.4630380   4.4941010
   4.4942558   4.4633101   4.4940748   4.4632352   4.4275113   4.4293277
   0.8814918   0.8633962   0.8635902   0.8815538   0.8804375   0.8807679
   0.8808205   0.8804320   0.8797893   0.8645444   0.8646070   0.8800535
   0.8798154   0.8645351   0.8645500   0.8799286   0.8804344   0.8807714
   0.8808726   0.8804806   0.8814731   0.8633665   0.8635566   0.8814975
   5.9124825   5.9309065   6.1856657   6.1532740   6.1535604   6.1858142
   6.1779396   6.1731853   6.1741172   6.1794723   5.9333305   5.9147843
   5.9327041   6.0049653   6.1704951   6.1646476   6.1652775   6.1709762
   6.1704538   6.1647047   6.1652789   6.1711541   6.0069979   5.9341537
   5.9126487   5.9310538   6.1778465   6.1731491   6.1741585   6.1796192
   6.1856356   6.1531833   6.1536182   6.1858144   5.9332639   5.9146867
   8.5034896   8.5042472   8.5037513   8.5044582   8.5325021   8.4929197
   8.5044798   8.5034639   8.4929746   8.5329156   8.5046959   8.5037436
 TTTTTTTTTTTTTTTTTTTTTTTTTTTTTT MOQGAD      TELAPSE      275.20 TCPU     7461.40
 TTTTTTTTTTTTTTTTTTTTTTTTTTTTTT SHELLXN     TELAPSE      309.26 TCPU     8548.96
 TTTTTTTTTTTTTTTTTTTTTTTTTTTTTT MONMO3      TELAPSE      309.97 TCPU     8571.43
 NUMERICALLY INTEGRATED DENSITY    396.0000466773
 TTTTTTTTTTTTTTTTTTTTTTTTTTTTTT NUMDFT      TELAPSE      311.77 TCPU     8629.06
 CYC   6 ETOT(AU) -2.578216704015E+03 DETOT -5.83E-04 tst  9.54E-06 PX  6.49E-03
 TTTTTTTTTTTTTTTTTTTTTTTTTTTTTT DIIS        TELAPSE      312.02 TCPU     8635.97
 DIIS TEST: 0.26785E-03 AT SCF   CYCLE   6 - DIIS ACTIVE - HISTORY:     6 CYCLES
 TTTTTTTTTTTTTTTTTTTTTTTTTTTTTT FDIK        TELAPSE      313.85 TCPU     8694.11
 INSULATING STATE
 TOP OF VALENCE BANDS -    BAND    198; K    1; EIG -2.1497126E-01 AU
 BOTTOM OF VIRTUAL BANDS - BAND    199; K    1; EIG -9.8001456E-02 AU
 DIRECT ENERGY BAND GAP:   3.1829 eV
 TTTTTTTTTTTTTTTTTTTTTTTTTTTTTT PDIG        TELAPSE      315.51 TCPU     8701.14
 CHARGE NORMALIZATION FACTOR   1.00000000
 TOTAL ATOMIC CHARGES:
   4.4317369   4.4267143   4.4627483   4.4934491   4.4626785   4.4935204
   4.4930644   4.4622855   4.4928823   4.4622048   4.4264165   4.4313380
   0.8816440   0.8648985   0.8649222   0.8818486   0.8811136   0.8807781
   0.8809218   0.8811264   0.8799055   0.8647034   0.8650505   0.8799658
   0.8799236   0.8646888   0.8650013   0.8798462   0.8811074   0.8807877
   0.8809683   0.8811775   0.8816247   0.8648748   0.8648813   0.8817929
   5.9150196   5.9325376   6.1884629   6.1485567   6.1483071   6.1884548
   6.1766040   6.1772484   6.1763862   6.1750234   5.9311345   5.9137979
   5.9387368   6.0057094   6.1718661   6.1633422   6.1627785   6.1716163
   6.1719495   6.1634811   6.1626830   6.1716829   6.0045629   5.9377920
   5.9152244   5.9327076   6.1764988   6.1772016   6.1764341   6.1751850
   6.1884805   6.1485007   6.1483355   6.1884053   5.9310452   5.9136609
   8.5022980   8.5032084   8.5025157   8.5033966   8.5330288   8.4945877
   8.5031703   8.5025167   8.4946660   8.5324893   8.5033680   8.5027496
 TTTTTTTTTTTTTTTTTTTTTTTTTTTTTT MOQGAD      TELAPSE      315.62 TCPU     8701.26
 TTTTTTTTTTTTTTTTTTTTTTTTTTTTTT SHELLXN     TELAPSE      349.69 TCPU     9788.80
 TTTTTTTTTTTTTTTTTTTTTTTTTTTTTT MONMO3      TELAPSE      350.39 TCPU     9811.25
 NUMERICALLY INTEGRATED DENSITY    396.0000466645
 TTTTTTTTTTTTTTTTTTTTTTTTTTTTTT NUMDFT      TELAPSE      352.20 TCPU     9868.91
 CYC   7 ETOT(AU) -2.578216745943E+03 DETOT -4.19E-05 tst  6.91E-07 PX  1.33E-03
 TTTTTTTTTTTTTTTTTTTTTTTTTTTTTT DIIS        TELAPSE      352.48 TCPU     9875.85
 DIIS TEST: 0.95427E-04 AT SCF   CYCLE   7 - DIIS ACTIVE - HISTORY:     7 CYCLES
 TTTTTTTTTTTTTTTTTTTTTTTTTTTTTT FDIK        TELAPSE      354.31 TCPU     9934.08
 INSULATING STATE
 TOP OF VALENCE BANDS -    BAND    198; K    1; EIG -2.1524399E-01 AU
 BOTTOM OF VIRTUAL BANDS - BAND    199; K    1; EIG -9.8112041E-02 AU
 DIRECT ENERGY BAND GAP:   3.1873 eV
 TTTTTTTTTTTTTTTTTTTTTTTTTTTTTT PDIG        TELAPSE      355.97 TCPU     9941.12
 CHARGE NORMALIZATION FACTOR   1.00000000
 TOTAL ATOMIC CHARGES:
   4.4314237   4.4265906   4.4626808   4.4935306   4.4626079   4.4936016
   4.4935621   4.4626680   4.4933799   4.4625897   4.4267232   4.4312561
   0.8817161   0.8643398   0.8644794   0.8818261   0.8808041   0.8807894
   0.8808705   0.8808032   0.8797216   0.8647810   0.8649339   0.8799189
   0.8797434   0.8647703   0.8648805   0.8797963   0.8807995   0.8807956
   0.8809203   0.8808534   0.8816973   0.8643133   0.8644423   0.8817699
   5.9134974   5.9326212   6.1865625   6.1503638   6.1504670   6.1866581
   6.1771148   6.1753147   6.1756718   6.1776486   5.9338209   5.9146625
   5.9375072   6.0054169   6.1715729   6.1629271   6.1631733   6.1718299
   6.1715953   6.1630186   6.1631286   6.1719536   6.0064230   5.9381793
   5.9136811   5.9327800   6.1770184   6.1752752   6.1757136   6.1777991
   6.1865573   6.1502898   6.1505096   6.1866334   5.9337430   5.9145481
   8.5019850   8.5030537   8.5022269   8.5032539   8.5325217   8.4936516
   8.5031880   8.5020312   8.4937183   8.5326268   8.5033962   8.5022891
 TTTTTTTTTTTTTTTTTTTTTTTTTTTTTT MOQGAD      TELAPSE      356.09 TCPU     9941.24
 TTTTTTTTTTTTTTTTTTTTTTTTTTTTTT SHELLXN     TELAPSE      390.14 TCPU    11028.22
 TTTTTTTTTTTTTTTTTTTTTTTTTTTTTT MONMO3      TELAPSE      390.85 TCPU    11050.69
 NUMERICALLY INTEGRATED DENSITY    396.0000466676
 TTTTTTTTTTTTTTTTTTTTTTTTTTTTTT NUMDFT      TELAPSE      392.65 TCPU    11108.49
 CYC   8 ETOT(AU) -2.578216769252E+03 DETOT -2.33E-05 tst  1.85E-07 PX  6.20E-04
 TTTTTTTTTTTTTTTTTTTTTTTTTTTTTT DIIS        TELAPSE      392.95 TCPU    11115.38
 DIIS TEST: 0.35819E-05 AT SCF   CYCLE   8 - DIIS ACTIVE - HISTORY:     8 CYCLES
 TTTTTTTTTTTTTTTTTTTTTTTTTTTTTT FDIK        TELAPSE      394.79 TCPU    11173.68
 INSULATING STATE
 TOP OF VALENCE BANDS -    BAND    198; K    1; EIG -2.1525688E-01 AU
 BOTTOM OF VIRTUAL BANDS - BAND    199; K    1; EIG -9.8137516E-02 AU
 DIRECT ENERGY BAND GAP:   3.1870 eV
 TTTTTTTTTTTTTTTTTTTTTTTTTTTTTT PDIG        TELAPSE      396.44 TCPU    11180.71
 CHARGE NORMALIZATION FACTOR   1.00000000
 TOTAL ATOMIC CHARGES:
   4.4311529   4.4268014   4.4628679   4.4937142   4.4627950   4.4937853
   4.4936044   4.4627002   4.4934223   4.4626220   4.4267875   4.4309035
   0.8816569   0.8643309   0.8644295   0.8817998   0.8807923   0.8807593
   0.8808615   0.8807964   0.8796825   0.8646973   0.8649191   0.8798329
   0.8797039   0.8646858   0.8648663   0.8797109   0.8807871   0.8807658
   0.8809109   0.8808469   0.8816376   0.8643045   0.8643919   0.8817439
   5.9139948   5.9329892   6.1866255   6.1504919   6.1504706   6.1866804
   6.1775521   6.1753389   6.1752755   6.1773578   5.9332813   5.9143248
   5.9376183   6.0056837   6.1717465   6.1632065   6.1631599   6.1718140
   6.1717765   6.1633069   6.1631083   6.1719297   6.0059305   5.9377197
   5.9141829   5.9331515   6.1774563   6.1752993   6.1753174   6.1775074
   6.1866250   6.1504221   6.1505100   6.1866516   5.9332003   5.9142057
   8.5021369   8.5031377   8.5023751   8.5033358   8.5324067   8.4934481
   8.5032130   8.5022431   8.4935171   8.5322868   8.5034187   8.5024978
 TTTTTTTTTTTTTTTTTTTTTTTTTTTTTT MOQGAD      TELAPSE      396.56 TCPU    11180.83
 TTTTTTTTTTTTTTTTTTTTTTTTTTTTTT SHELLXN     TELAPSE      430.64 TCPU    12268.18
 TTTTTTTTTTTTTTTTTTTTTTTTTTTTTT MONMO3      TELAPSE      431.35 TCPU    12290.65
 NUMERICALLY INTEGRATED DENSITY    396.0000466707
 TTTTTTTTTTTTTTTTTTTTTTTTTTTTTT NUMDFT      TELAPSE      433.15 TCPU    12348.33
 CYC   9 ETOT(AU) -2.578216769469E+03 DETOT -2.16E-07 tst  1.17E-08 PX  1.45E-04
 TTTTTTTTTTTTTTTTTTTTTTTTTTTTTT DIIS        TELAPSE      433.47 TCPU    12355.30
 DIIS TEST: 0.11115E-05 AT SCF   CYCLE   9 - DIIS ACTIVE - HISTORY:     9 CYCLES
 TTTTTTTTTTTTTTTTTTTTTTTTTTTTTT FDIK        TELAPSE      435.30 TCPU    12413.48
 INSULATING STATE
 TOP OF VALENCE BANDS -    BAND    198; K    1; EIG -2.1523942E-01 AU
 BOTTOM OF VIRTUAL BANDS - BAND    199; K    1; EIG -9.8133570E-02 AU
 DIRECT ENERGY BAND GAP:   3.1866 eV
 TTTTTTTTTTTTTTTTTTTTTTTTTTTTTT PDIG        TELAPSE      436.96 TCPU    12420.51
 CHARGE NORMALIZATION FACTOR   1.00000000
 TOTAL ATOMIC CHARGES:
   4.4311032   4.4268007   4.4628287   4.4936776   4.4627556   4.4937486
   4.4936294   4.4627286   4.4934473   4.4626506   4.4268508   4.4308887
   0.8816464   0.8643493   0.8644659   0.8817749   0.8808285   0.8807459
   0.8808395   0.8808306   0.8796541   0.8647017   0.8648936   0.8798245
   0.8796754   0.8646902   0.8648408   0.8797024   0.8808235   0.8807525
   0.8808889   0.8808810   0.8816272   0.8643230   0.8644284   0.8817190
   5.9137873   5.9327087   6.1867676   6.1503173   6.1503522   6.1868424
   6.1772584   6.1753911   6.1755082   6.1773766   5.9333906   5.9144781
   5.9376256   6.0053830   6.1717531   6.1631313   6.1632154   6.1719066
   6.1717834   6.1632312   6.1631635   6.1720222   6.0059557   5.9379734
   5.9139750   5.9328701   6.1771618   6.1753512   6.1755504   6.1775271
   6.1867667   6.1502471   6.1503918   6.1868137   5.9333104   5.9143595
   8.5021835   8.5031115   8.5024216   8.5033099   8.5323826   8.4935425
   8.5032127   8.5022642   8.4936100   8.5323593   8.5034187   8.5025186
 TTTTTTTTTTTTTTTTTTTTTTTTTTTTTT MOQGAD      TELAPSE      437.08 TCPU    12420.63
 TTTTTTTTTTTTTTTTTTTTTTTTTTTTTT SHELLXN     TELAPSE      471.17 TCPU    13507.63
 +++ ENERGIES IN A.U. +++
 ::: EXT EL-POLE                                  -3.2940628307879E+03
 ::: EXT EL-SPHEROPOLE                             3.8158193246587E+01
 ::: BIELET ZONE E-E                               5.0771956073891E+03
 ::: TOTAL E-E                                     1.8212909698478E+03
 ::: TOTAL E-N + N-E                              -7.2822132419770E+03
 ::: TOTAL N-N                                     5.9007590162203E+02
 ::: KINETIC ENERGY                                2.5601700228034E+03
 ::: PSEUDO TOTAL   ENERGY                        -2.3106763477038E+03
 ::: VIRIAL COEFFICIENT                            1.0512218321256E+00
 TTTTTTTTTTTTTTTTTTTTTTTTTTTTTT MONMO3      TELAPSE      471.87 TCPU    13530.11
 NUMERICALLY INTEGRATED DENSITY    396.0000466699
 EXCHANGE ENERGY: -0.252079081494E+03  CORRELATION ENERGY: -0.154613405566E+02
 TTTTTTTTTTTTTTTTTTTTTTTTTTTTTT NUMDFT      TELAPSE      473.67 TCPU    13587.65
 CYC  10 ETOT(AU) -2.578216769755E+03 DETOT -2.86E-07 tst  2.21E-09 PX  1.45E-04

 == SCF ENDED - CONVERGENCE ON ENERGY      E(AU) -2.5782167697548E+03 CYCLES  10


 ENERGY EXPRESSION=HARTREE+FOCK EXCH*0.00000+(HSESOL     EXCH)*1.00000+PBESOL     CORR


 TOTAL ENERGY(DFT)(AU)( 10) -2.5782167697548E+03 DE-2.9E-07 tester 2.2E-09
 TTTTTTTTTTTTTTTTTTTTTTTTTTTTTT EDFT        TELAPSE      473.67 TCPU    13587.66
 
 INFORMATION **** DFTD3 ENERGY **** CALCULATE DFTD3 ENERGY

           DFT-D V3(BJ)
 DF                                         hsesol3c  
 parameters
 s6       :    1.0000
 s8       :    0.0000
 a1       :    0.5196
 a2       :    4.9385
 k1 k3    :   16.0000   -4.0000
 Cutoff   :   50.2022
 CN-Cutoff:   21.1671
 ABC-Cutoff:   21.1671
 
 Edisp /kcal,au:   -67.8624 -0.10814556

 E6    /kcal :   -73.3809
 E8    /kcal :     0.0000
 E6(ABC) "   :   5.518511
 
 INFORMATION **** DFTD3 ENERGY **** NORMAL TERMINATION OF DFTD3 MODULE

 GCP ENERGY CALCULATION
  level        hsesol3c            basis:hsesol3c
  Nbf            948
  Atoms           84

  Parameters: 
  sigma     1.0000
  eta       1.4281
  alpha     0.2936
  beta      1.9467

  dmp_scal      4.0000
  dmp_exp       6.0000
 cutoffs: 
   distance [bohr] 60.0
   noise    [a.u.] 2.2E-16
 SR-damping   T
 ** gCP correction **
  Egcp:        0.1751548788 / (a.u.) ||     109.9114 / (kcal/mol)
 INFORMATION **** GCP **** NORMAL TERMINATION OF GCP MODULE

 *******************************************************************************

 DFT-D3-GCP DISPERSION AND COUNTERPOISE CORRECTION

 D3 DISPERSION ENERGY (AU)      -1.0814556340050E-01
 GCP ENERGY (AU)                 1.7515487882413E-01
 TOTAL ENERGY + DISP + GCP (AU) -2.5781497604394E+03

 *******************************************************************************

 EIGENVECTORS IN FORTRAN UNIT  8
 TTTTTTTTTTTTTTTTTTTTTTTTTTTTTT END         TELAPSE      478.08 TCPU    13597.97
 EEEEEEEEEE TERMINATION  DATE 19 02 2026 TIME 19:34:07.8
