 Default number of threads is:           32

         
 *******************************************************************************
 *                                                                             *
 *                               CRYSTAL23                                     *
 *                      public : 1.0.1 - October 2022                          *
 *                       HTTP://WWW.CRYSTAL.UNITO.IT                           *
 *                                                                             *
 *                              MAIN AUTHORS                                   *
 *                                                                             *
 *  R. DOVESI(1,11), V.R. SAUNDERS(2), C. ROETTI(1,11), R. ORLANDO(1,11),      *
 *  C.M. ZICOVICH-WILSON(1,3), F. PASCALE(4), B. CIVALLERI(1,11),              *
 *  K. DOLL(5), N.M. HARRISON(6), I.J. BUSH(7), Ph. D'ARCO(8),                 *
 *  M. LLUNELL(9), M. CAUSA'(10), Y. NOEL(8), L. MASCHIO(1,11), A. ERBA(1,11)  *
 *  M. RE'RAT(14), S. CASASSA(1,11), B.G. SEARLE(2), J.K. DESMARAIS(1)         *
 *                                                                             *
 *        CONTRIBUTIONS TO THE CODE HAVE ALSO BEEN GIVEN BY                    *
 *                                                                             *
 *  M. FERRABONE(1,11), M. DE LA PIERRE(1,11), M. FERRERO(1,11),               *
 *  J. BAIMA(1,11), E. ALBANESE(1,11), M.F. PEINTINGER(12), R. BAST(13),       *
 *  B. KIRTMAN(15), V. LACIVITA(1,11), R. DEMICHELIS(1,16)                     *
 *  G. BRANDEBURG(17), S. SALUSTRO(1,11), G. SANSONE(1,11)                     *
 *  M.T. RUGGIERO(18), L.E. DAGA(1), L. DONA'(1), A. COSSARD(1)                *
 *                                                                             *
 * (1) THEORETICAL CHEMISTRY GROUP - UNIVERSITA' DI TORINO - TORINO (ITALY)    *
 * (2) SCIENTIFIC COMPUTING DEPARTMENT - STFC DARESBURY (UK)                   *
 * (3) UNIVERSIDAD AUTONOMA DEL ESTADO DE MORELOS - CUERNAVACA (MEXICO)        *
 * (4) UNIVERSITE' DE LORRAINE - NANCY (FRANCE)                                *
 * (5) UNIVERSITAET STUTTGART- STUTTGART (GERMANY)                             *
 * (6) IMPERIAL COLLEGE - LONDON (UK)                                          *
 * (7) SCIENTIFIC COMPUTING DEPARTMENT - STFC RAL (UK)                         *
 * (8) UPMC - SORBONNE UNIVERSITES - PARIS (FRANCE)                            *
 * (9) UNIVERSIDAD DE BARCELONA - BARCELONA (SPAIN)                            *
 *(10) UNIVERSITA' DI NAPOLI "FEDERICO II" - NAPOLI (ITALY)                    *
 *(11) NIS - NANOSTRUCTURED INTERFACES AND SURFACES - TORINO (ITALY)           *
 *(12) MPI FUER CHEMISCHE ENERGIEKONVERSION - MUELHEIM AN DER RUHR (GERMANY)   *
 *(13) UNIVERSITY OF TROMSO - TROMSO (NORWAY)                                  *
 *(14) UNIVERSITE' DE PAU ET DES PAYS DE L'ADOUR - PAU (FRANCE)                *
 *(15) UNIVERSITY OF CALIFORNIA SANTA BARBARA - SANTA BARBARA (USA)            *
 *(16) CURTIN UNIVERSITY - PERTH (AUSTRALIA)                                   *
 *(17) UNIVERSITY COLLEGE LONDON - LONDON (UK)                                 *
 *(18) UNIVERSITY OF VERMONT - BURLINGTON (USA)                                *
 *                                                                             *
 *******************************************************************************
 EEEEEEEEEE STARTING  DATE 19 02 2026 TIME 19:10:52.0
 cof-1_z41_L060_incl                                                             

 CRYSTAL CALCULATION
 (INPUT ACCORDING TO THE INTERNATIONAL TABLES FOR X-RAY CRYSTALLOGRAPHY)
 CRYSTAL FAMILY                       :  TRICLINIC   
 CRYSTAL CLASS  (GROTH - 1921)        :  TRICLINIC PEDIAL                     

 SPACE GROUP (NONCENTROSYMMETRIC)     :  P 1             

 LATTICE PARAMETERS  (ANGSTROMS AND DEGREES) - CONVENTIONAL CELL
        A           B           C        ALPHA        BETA       GAMMA
    15.02361    15.02392     7.26705    44.35228    89.99997   119.99596


 NUMBER OF IRREDUCIBLE ATOMS IN THE CONVENTIONAL CELL:   42

 INPUT COORDINATES

 ATOM AT. N.              COORDINATES
   1   5     4.981431200000E-01 -3.780110000000E-03  5.011607100000E-01
   2   5     6.571987800000E-01  1.552795400000E-01  5.011607200000E-01
   3   5     4.987035600000E-01  1.563918800000E-01  4.987111800000E-01
   4   5     1.117178300000E-01  3.825348800000E-01  5.011607200000E-01
   5   5     2.708258000000E-01  3.825141200000E-01  5.011607100000E-01
   6   5     2.713707900000E-01  5.427828600000E-01  4.987111800000E-01
   7   1     7.886769600000E-01  8.017349000000E-02  4.960823300000E-01
   8   1    -1.755309000000E-02  4.626549800000E-01  4.953057600000E-01
   9   1     7.888113500000E-01  3.657290800000E-01  4.951862400000E-01
  10   1    -1.743076000000E-02  1.773278400000E-01  4.952160500000E-01
  11   1     5.748613800000E-01 -1.353615300000E-01  5.039090300000E-01
  12   1     1.925796600000E-01  6.707135300000E-01  5.046856500000E-01
  13   1     2.894923600000E-01 -1.357289400000E-01  5.048052400000E-01
  14   1     4.779415000000E-01  6.705822400000E-01  5.047752300000E-01
  15   1     5.767060800000E-01  3.652976300000E-01  4.960823700000E-01
  16   1     1.947742200000E-01  1.772108900000E-01  4.953057100000E-01
  17   1     2.916805200000E-01  8.047994000000E-02  4.951861500000E-01
  18   1     4.801239100000E-01  4.626007900000E-01  4.952161500000E-01
  19   6     7.769382600000E-01  2.160162300000E-01  4.986215500000E-01
  20   6     8.320949000000E-01  1.639739600000E-01  4.962018400000E-01
  21   6    -6.095790000000E-02  3.784700200000E-01  4.959928100000E-01
  22   6     8.319614700000E-01  3.246876400000E-01  4.966201300000E-01
  23   6    -6.069239000000E-02  2.179893000000E-01  4.950069400000E-01
  24   6    -6.461630000000E-03  3.250173200000E-01  4.966499700000E-01
  25   6     4.384537900000E-01 -1.230263100000E-01  5.013698400000E-01
  26   6     4.910343900000E-01 -1.787546000000E-01  5.037895000000E-01
  27   6     2.766070000000E-01  7.142562000000E-01  5.039986100000E-01
  28   6     3.302405300000E-01 -1.785148400000E-01  5.033713100000E-01
  29   6     4.372979200000E-01  7.137620300000E-01  5.049843800000E-01
  30   6     3.298877500000E-01  6.598881500000E-01  5.033414000000E-01
  31   6     4.390928200000E-01  2.159470900000E-01  4.986215500000E-01
  32   6     4.928160000000E-01  3.248140900000E-01  4.962018900000E-01
  33   6     2.784773600000E-01  2.174567700000E-01  4.959927600000E-01
  34   6     3.317966400000E-01  1.636854700000E-01  4.966200600000E-01
  35   6     4.396242100000E-01  3.788373000000E-01  4.950070100000E-01
  36   6     3.314624600000E-01  3.249399200000E-01  4.966499700000E-01
  37   8     4.456124600000E-01  5.009879000000E-02  4.993683700000E-01
  38   8     6.033660700000E-01  4.772343000000E-02  5.045362900000E-01
  39   8     6.051612400000E-01  2.102638100000E-01  4.967396100000E-01
  40   8     1.652002900000E-01  4.893792600000E-01  4.993683900000E-01
  41   8     1.640283400000E-01  3.280407100000E-01  5.045362900000E-01
  42   8     3.247456600000E-01  4.905757800000E-01  4.967395900000E-01

 *******************************************************************************

 << INFORMATION >>: FROM NOW ON, ALL COORDINATES REFER TO THE PRIMITIVE CELL

 *******************************************************************************

 LATTICE PARAMETERS  (ANGSTROMS AND DEGREES) - PRIMITIVE CELL
       A          B          C        ALPHA      BETA     GAMMA        VOLUME
   15.02361   15.02392    7.26705    44.35228  89.99997 119.99596    801.481308

 COORDINATES OF THE EQUIVALENT ATOMS (FRACTIONAL UNITS)

 N. ATOM EQUIV AT. N.          X                  Y                  Z

   1   1   1    5 B     4.98143120000E-01 -3.78011000000E-03 -4.98839290000E-01

   2   2   1    5 B    -3.42801220000E-01  1.55279540000E-01 -4.98839280000E-01

   3   3   1    5 B     4.98703560000E-01  1.56391880000E-01  4.98711180000E-01

   4   4   1    5 B     1.11717830000E-01  3.82534880000E-01 -4.98839280000E-01

   5   5   1    5 B     2.70825800000E-01  3.82514120000E-01 -4.98839290000E-01

   6   6   1    5 B     2.71370790000E-01 -4.57217140000E-01  4.98711180000E-01

   7   7   1    1 H    -2.11323040000E-01  8.01734900000E-02  4.96082330000E-01

   8   8   1    1 H    -1.75530900000E-02  4.62654980000E-01  4.95305760000E-01

   9   9   1    1 H    -2.11188650000E-01  3.65729080000E-01  4.95186240000E-01

  10  10   1    1 H    -1.74307600000E-02  1.77327840000E-01  4.95216050000E-01

  11  11   1    1 H    -4.25138620000E-01 -1.35361530000E-01 -4.96090970000E-01

  12  12   1    1 H     1.92579660000E-01 -3.29286470000E-01 -4.95314350000E-01

  13  13   1    1 H     2.89492360000E-01 -1.35728940000E-01 -4.95194760000E-01

  14  14   1    1 H     4.77941500000E-01 -3.29417760000E-01 -4.95224770000E-01

  15  15   1    1 H    -4.23293920000E-01  3.65297630000E-01  4.96082370000E-01

  16  16   1    1 H     1.94774220000E-01  1.77210890000E-01  4.95305710000E-01

  17  17   1    1 H     2.91680520000E-01  8.04799400000E-02  4.95186150000E-01

  18  18   1    1 H     4.80123910000E-01  4.62600790000E-01  4.95216150000E-01

  19  19   1    6 C    -2.23061740000E-01  2.16016230000E-01  4.98621550000E-01

  20  20   1    6 C    -1.67905100000E-01  1.63973960000E-01  4.96201840000E-01

  21  21   1    6 C    -6.09579000000E-02  3.78470020000E-01  4.95992810000E-01

  22  22   1    6 C    -1.68038530000E-01  3.24687640000E-01  4.96620130000E-01

  23  23   1    6 C    -6.06923900000E-02  2.17989300000E-01  4.95006940000E-01

  24  24   1    6 C    -6.46163000000E-03  3.25017320000E-01  4.96649970000E-01

  25  25   1    6 C     4.38453790000E-01 -1.23026310000E-01 -4.98630160000E-01

  26  26   1    6 C     4.91034390000E-01 -1.78754600000E-01 -4.96210500000E-01

  27  27   1    6 C     2.76607000000E-01 -2.85743800000E-01 -4.96001390000E-01

  28  28   1    6 C     3.30240530000E-01 -1.78514840000E-01 -4.96628690000E-01

  29  29   1    6 C     4.37297920000E-01 -2.86237970000E-01 -4.95015620000E-01

  30  30   1    6 C     3.29887750000E-01 -3.40111850000E-01 -4.96658600000E-01

  31  31   1    6 C     4.39092820000E-01  2.15947090000E-01  4.98621550000E-01

  32  32   1    6 C     4.92816000000E-01  3.24814090000E-01  4.96201890000E-01

  33  33   1    6 C     2.78477360000E-01  2.17456770000E-01  4.95992760000E-01

  34  34   1    6 C     3.31796640000E-01  1.63685470000E-01  4.96620060000E-01

  35  35   1    6 C     4.39624210000E-01  3.78837300000E-01  4.95007010000E-01

  36  36   1    6 C     3.31462460000E-01  3.24939920000E-01  4.96649970000E-01

  37  37   1    8 O     4.45612460000E-01  5.00987900000E-02  4.99368370000E-01

  38  38   1    8 O    -3.96633930000E-01  4.77234300000E-02 -4.95463710000E-01

  39  39   1    8 O    -3.94838760000E-01  2.10263810000E-01  4.96739610000E-01

  40  40   1    8 O     1.65200290000E-01  4.89379260000E-01  4.99368390000E-01

  41  41   1    8 O     1.64028340000E-01  3.28040710000E-01 -4.95463710000E-01

  42  42   1    8 O     3.24745660000E-01  4.90575780000E-01  4.96739590000E-01

 NUMBER OF SYMMETRY OPERATORS         :    1
 *******************************************************************************
 * GEOMETRY EDITING - INPUT COORDINATES ARE GIVEN IN ANGSTROM         
 *******************************************************************************

 GCALCO - MAX INDICES DIRECT LATTICE VECTOR     9    13    25
 NO.OF VECTORS CREATED 6999 STARS 3500 RMAX   211.22174 BOHR

 GEOMETRY FOR WAVE FUNCTION - DIMENSIONALITY OF THE SYSTEM    3
 (NON PERIODIC DIRECTION: LATTICE PARAMETER FORMALLY SET TO 500)
 *******************************************************************************
 LATTICE PARAMETERS (ANGSTROMS AND DEGREES) - BOHR = 0.5291772083 ANGSTROM
 PRIMITIVE CELL - CENTRING CODE 1/0 VOLUME=   801.481308 - DENSITY  0.808 g/cm^3
         A              B              C           ALPHA      BETA       GAMMA 
    15.02361100    15.02391600     7.26704900    44.352282  89.999968 119.995964
 *******************************************************************************
 ATOMS IN THE ASYMMETRIC UNIT   42 - ATOMS IN THE UNIT CELL:   42
     ATOM                 X/A                 Y/B                 Z/C    
 *******************************************************************************
      1 T   5 B     4.981431200000E-01 -3.780110000000E-03 -4.988392900000E-01
      2 T   5 B    -3.428012200000E-01  1.552795400000E-01 -4.988392800000E-01
      3 T   5 B     4.987035600000E-01  1.563918800000E-01  4.987111800000E-01
      4 T   5 B     1.117178300000E-01  3.825348800000E-01 -4.988392800000E-01
      5 T   5 B     2.708258000000E-01  3.825141200000E-01 -4.988392900000E-01
      6 T   5 B     2.713707900000E-01 -4.572171400000E-01  4.987111800000E-01
      7 T   1 H    -2.113230400000E-01  8.017349000000E-02  4.960823300000E-01
      8 T   1 H    -1.755309000000E-02  4.626549800000E-01  4.953057600000E-01
      9 T   1 H    -2.111886500000E-01  3.657290800000E-01  4.951862400000E-01
     10 T   1 H    -1.743076000000E-02  1.773278400000E-01  4.952160500000E-01
     11 T   1 H    -4.251386200000E-01 -1.353615300000E-01 -4.960909700000E-01
     12 T   1 H     1.925796600000E-01 -3.292864700000E-01 -4.953143500000E-01
     13 T   1 H     2.894923600000E-01 -1.357289400000E-01 -4.951947600000E-01
     14 T   1 H     4.779415000000E-01 -3.294177600000E-01 -4.952247700000E-01
     15 T   1 H    -4.232939200000E-01  3.652976300000E-01  4.960823700000E-01
     16 T   1 H     1.947742200000E-01  1.772108900000E-01  4.953057100000E-01
     17 T   1 H     2.916805200000E-01  8.047994000000E-02  4.951861500000E-01
     18 T   1 H     4.801239100000E-01  4.626007900000E-01  4.952161500000E-01
     19 T   6 C    -2.230617400000E-01  2.160162300000E-01  4.986215500000E-01
     20 T   6 C    -1.679051000000E-01  1.639739600000E-01  4.962018400000E-01
     21 T   6 C    -6.095790000000E-02  3.784700200000E-01  4.959928100000E-01
     22 T   6 C    -1.680385300000E-01  3.246876400000E-01  4.966201300000E-01
     23 T   6 C    -6.069239000000E-02  2.179893000000E-01  4.950069400000E-01
     24 T   6 C    -6.461630000000E-03  3.250173200000E-01  4.966499700000E-01
     25 T   6 C     4.384537900000E-01 -1.230263100000E-01 -4.986301600000E-01
     26 T   6 C     4.910343900000E-01 -1.787546000000E-01 -4.962105000000E-01
     27 T   6 C     2.766070000000E-01 -2.857438000000E-01 -4.960013900000E-01
     28 T   6 C     3.302405300000E-01 -1.785148400000E-01 -4.966286900000E-01
     29 T   6 C     4.372979200000E-01 -2.862379700000E-01 -4.950156200000E-01
     30 T   6 C     3.298877500000E-01 -3.401118500000E-01 -4.966586000000E-01
     31 T   6 C     4.390928200000E-01  2.159470900000E-01  4.986215500000E-01
     32 T   6 C     4.928160000000E-01  3.248140900000E-01  4.962018900000E-01
     33 T   6 C     2.784773600000E-01  2.174567700000E-01  4.959927600000E-01
     34 T   6 C     3.317966400000E-01  1.636854700000E-01  4.966200600000E-01
     35 T   6 C     4.396242100000E-01  3.788373000000E-01  4.950070100000E-01
     36 T   6 C     3.314624600000E-01  3.249399200000E-01  4.966499700000E-01
     37 T   8 O     4.456124600000E-01  5.009879000000E-02  4.993683700000E-01
     38 T   8 O    -3.966339300000E-01  4.772343000000E-02 -4.954637100000E-01
     39 T   8 O    -3.948387600000E-01  2.102638100000E-01  4.967396100000E-01
     40 T   8 O     1.652002900000E-01  4.893792600000E-01  4.993683900000E-01
     41 T   8 O     1.640283400000E-01  3.280407100000E-01 -4.954637100000E-01
     42 T   8 O     3.247456600000E-01  4.905757800000E-01  4.967395900000E-01

 T = ATOM BELONGING TO THE ASYMMETRIC UNIT

 ****    1 SYMMOPS - TRANSLATORS IN FRACTIONAL UNITS
 **** MATRICES AND TRANSLATORS IN THE CRYSTALLOGRAPHIC REFERENCE FRAME
   V INV                    ROTATION MATRICES                   TRANSLATORS
   1   1  1.00  0.00  0.00  0.00  1.00  0.00  0.00 -0.00  1.00  0.00  0.00  0.00

 DIRECT LATTICE VECTORS CARTESIAN COMPONENTS (ANGSTROM)
          X                    Y                    Z
   0.130113578931E+02  -0.751088897922E+01   0.000000000000E+00
   0.000000000000E+00   0.150239160000E+02   0.000000000000E+00
   0.299962536703E+01   0.519634071644E+01   0.410003560771E+01


 CARTESIAN COORDINATES - PRIMITIVE CELL
 *******************************************************************************
 *      ATOM          X(ANGSTROM)         Y(ANGSTROM)         Z(ANGSTROM)
 *******************************************************************************
    1     5 B     1.985562060901E+00  3.437146644778E+00 -6.145294459240E+00
    2     5 B    -5.956640317955E+00  2.315509809214E+00 -2.045258810526E+00
    3     5 B    -2.026975317978E+00 -1.121301698460E+00  6.144769203678E+00
    4     5 B    -4.273028919262E-02  2.315932824436E+00 -2.045258810526E+00
    5     5 B     2.027480422119E+00  1.120578577598E+00 -2.045258851527E+00
    6     5 B     2.027223809732E+00  3.511620712924E+00 -2.055302011749E+00
    7     1 H    -4.261163930315E+00  1.732157650214E-01 -2.066080390356E+00
    8     1 H    -1.742283181016E+00  4.460165638068E+00 -2.069264355008E+00
    9     1 H    -1.262477901194E+00 -5.369862098368E+00  2.030281216450E+00
   10     1 H    -1.740960597997E+00  1.720496834130E-01 -2.069632169202E+00
   11     1 H    -4.020092429917E+00  3.777991729218E+00  2.066044966048E+00
   12     1 H     4.019590757298E+00 -3.771098119032E+00  2.069229135702E+00
   13     1 H     5.280915306579E+00 -1.590385147135E+00  2.069719458960E+00
   14     1 H    -5.278553400057E+00  1.594962759309E+00  2.069596416892E+00
   15     1 H    -4.019567425887E+00 -3.778588435243E+00  2.033955381359E+00
   16     1 H     1.020383289882E+00 -1.423089505271E+00 -2.069264560010E+00
   17     1 H     2.280907206065E+00 -3.604840907854E+00 -2.069754760267E+00
   18     1 H     4.732901584697E+00  7.208891534586E-01 -2.069631759199E+00
   19     6 C    -4.406283648489E+00  2.315468404726E+00 -2.055669497940E+00
   20     6 C    -3.695879088768E+00  1.106740674695E+00 -2.065590395101E+00
   21     6 C    -2.304977805598E+00  3.524956725528E+00 -2.066447425544E+00
   22     6 C    -3.696360480957E+00  3.524465258340E+00 -2.063875391206E+00
   23     6 C    -2.304480400624E+00  1.106790736073E+00 -2.070489527648E+00
   24     6 C    -1.593936098985E+00  2.315987244268E+00 -2.063753046144E+00
   25     6 C     1.209550137527E+00  2.095008394266E+00 -6.144437018794E+00
   26     6 C     1.900953215874E+00  8.753975752001E-01 -6.134516326635E+00
   27     6 C    -8.884110458293E-01  8.796277486932E-01 -6.133658968189E+00
   28     6 C    -1.924476569241E-01  2.084531482576E+00 -6.136230920526E+00
   29     6 C     1.205352965153E+00 -3.296058831766E-01 -6.129617276088E+00
   30     6 C     2.802497844472E+00  4.855546563790E+00 -2.036317944877E+00
   31     6 C     4.209246312190E+00 -2.658939736069E+00 -2.055669497940E+00
   32     6 C     4.900999760808E+00 -1.439413291265E+00 -2.065590190099E+00
   33     6 C     2.111535693803E+00 -1.443553630668E+00 -2.066447630545E+00
   34     6 C     2.807173593476E+00 -2.648624653079E+00 -2.063875678209E+00
   35     6 C     4.205318151787E+00 -2.344644964741E-01 -2.070489240646E+00
   36     6 C     2.802915176690E+00 -2.232859302229E-01 -2.063753046144E+00
   37     8 O     4.296315861780E+00 -5.195718225062E+00 -2.052607509348E+00
   38     8 O    -6.646951528718E+00  1.121467967379E+00 -2.031418853330E+00
   39     8 O    -6.477303144182E-01 -1.121771112313E+00  6.136685696475E+00
   40     8 O     6.477728203344E-01  3.510139437877E+00 -2.052607427347E+00
   41     8 O     6.480259233859E-01  1.121859170642E+00 -2.031418853330E+00
   42     8 O     2.715789314420E+00  2.316128152155E+00 -2.063385600953E+00

 *******************************************************************************
 STARTING BASIS SET HANDLING 
 *******************************************************************************

 Loading internal basis set: SOLDEF2MSVP         

 Please cite in your publication:
 L. Dona', J. G. Brandenburg and B. Civalleri, J. Chem. Phys., 151, 121101 (2019
 )                                                                              
                                                                                
                    

 *******************************************************************************
 LOCAL ATOMIC FUNCTIONS BASIS SET
 *******************************************************************************
   ATOM   X(AU)   Y(AU)   Z(AU)  N. TYPE  EXPONENT  S COEF   P COEF   D/F/G COEF
 *******************************************************************************
   1 B    3.752   6.495 -11.613
                                  1 S  
                                         2.410E+03 1.755E-03 0.000E+00 0.000E+00
                                         3.619E+02 1.344E-02 0.000E+00 0.000E+00
                                         8.231E+01 6.637E-02 0.000E+00 0.000E+00
                                         2.311E+01 2.303E-01 0.000E+00 0.000E+00
                                         7.252E+00 5.150E-01 0.000E+00 0.000E+00
                                  2 S  
                                         2.367E+00 1.000E+00 0.000E+00 0.000E+00
                                  3 S  
                                         5.533E-01 1.000E+00 0.000E+00 0.000E+00
                                  4 S  
                                         1.716E-01 1.000E+00 0.000E+00 0.000E+00
                           5-     7 P  
                                         6.002E+00 0.000E+00-3.555E-02 0.000E+00
                                         1.240E+00 0.000E+00-1.983E-01 0.000E+00
                                         3.367E-01 0.000E+00-5.048E-01 0.000E+00
                           8-    10 P  
                                         1.256E-01 0.000E+00 1.000E+00 0.000E+00
                          11-    15 D  
                                         8.880E-01 0.000E+00 0.000E+00 1.000E+00
   2 B  -11.256   4.376  -3.865
   3 B   -3.830  -2.119  11.612
   4 B   -0.081   4.376  -3.865
   5 B    3.831   2.118  -3.865
   6 B    3.831   6.636  -3.884
   7 H   -8.052   0.327  -3.904
                                 91 S  
                                         1.874E+01 1.968E-02 0.000E+00 0.000E+00
                                         2.826E+00 1.380E-01 0.000E+00 0.000E+00
                                         6.401E-01 4.783E-01 0.000E+00 0.000E+00
                                 92 S  
                                         1.756E-01 1.000E+00 0.000E+00 0.000E+00
   8 H   -3.292   8.428  -3.910
   9 H   -2.386 -10.148   3.837
  10 H   -3.290   0.325  -3.911
  11 H   -7.597   7.139   3.904
  12 H    7.596  -7.126   3.910
  13 H    9.979  -3.005   3.911
  14 H   -9.975   3.014   3.911
  15 H   -7.596  -7.140   3.844
  16 H    1.928  -2.689  -3.910
  17 H    4.310  -6.812  -3.911
  18 H    8.944   1.362  -3.911
  19 C   -8.327   4.376  -3.885
                                115 S  
                                         3.624E+03 1.634E-03 0.000E+00 0.000E+00
                                         5.440E+02 1.252E-02 0.000E+00 0.000E+00
                                         1.237E+02 6.211E-02 0.000E+00 0.000E+00
                                         3.476E+01 2.182E-01 0.000E+00 0.000E+00
                                         1.093E+01 4.980E-01 0.000E+00 0.000E+00
                                116 S  
                                         3.574E+00 1.000E+00 0.000E+00 0.000E+00
                                117 S  
                                         7.742E-01 1.000E+00 0.000E+00 0.000E+00
                                118 S  
                                         2.330E-01 1.000E+00 0.000E+00 0.000E+00
                         119-   121 P  
                                         9.443E+00 0.000E+00 3.790E-02 0.000E+00
                                         2.002E+00 0.000E+00 2.082E-01 0.000E+00
                                         5.463E-01 0.000E+00 5.047E-01 0.000E+00
                         122-   124 P  
                                         1.820E-01 0.000E+00 1.000E+00 0.000E+00
                         125-   129 D  
                                         8.880E-01 0.000E+00 0.000E+00 1.000E+00
  20 C   -6.984   2.091  -3.903
  21 C   -4.356   6.661  -3.905
  22 C   -6.985   6.660  -3.900
  23 C   -4.355   2.092  -3.913
  24 C   -3.012   4.377  -3.900
  25 C    2.286   3.959 -11.611
  26 C    3.592   1.654 -11.593
  27 C   -1.679   1.662 -11.591
  28 C   -0.364   3.939 -11.596
  29 C    2.278  -0.623 -11.583
  30 C    5.296   9.176  -3.848
  31 C    7.954  -5.025  -3.885
  32 C    9.262  -2.720  -3.903
  33 C    3.990  -2.728  -3.905
  34 C    5.305  -5.005  -3.900
  35 C    7.947  -0.443  -3.913
  36 C    5.297  -0.422  -3.900
  37 O    8.119  -9.818  -3.879
                                385 S  
                                         6.773E+03 1.727E-03 0.000E+00 0.000E+00
                                         1.017E+03 1.325E-02 0.000E+00 0.000E+00
                                         2.313E+02 6.603E-02 0.000E+00 0.000E+00
                                         6.501E+01 2.353E-01 0.000E+00 0.000E+00
                                         2.050E+01 5.498E-01 0.000E+00 0.000E+00
                                386 S  
                                         6.716E+00 1.000E+00 0.000E+00 0.000E+00
                                387 S  
                                         1.147E+00 1.000E+00 0.000E+00 0.000E+00
                                388 S  
                                         3.342E-01 1.000E+00 0.000E+00 0.000E+00
                         389-   391 P  
                                         1.769E+01 0.000E+00 4.359E-02 0.000E+00
                                         3.854E+00 0.000E+00 2.318E-01 0.000E+00
                                         1.047E+00 0.000E+00 5.146E-01 0.000E+00
                         392-   394 P  
                                         2.759E-01 0.000E+00 1.000E+00 0.000E+00
                         395-   399 D  
                                         8.000E-01 0.000E+00 0.000E+00 1.000E+00
  38 O  -12.561   2.119  -3.839
  39 O   -1.224  -2.120  11.597
  40 O    1.224   6.633  -3.879
  41 O    1.225   2.120  -3.839
  42 O    5.132   4.377  -3.899

 *******************************************************************************
 FINISHED BASIS SET HANDLING 
 *******************************************************************************

 INFORMATION **** SET_MPP **** PCRYSTAL CALCULATION
 INFORMATION **** READM2 **** NEW DEFAULT: FOCK/KS MATRIX MIXING SET TO 30 %
 INFORMATION **** READM2 **** NEW DEFAULT: FULL DIRECT SCF MODE
 INFORMATION **** READM2 **** NEW DEFAULT: COULOMB BIPOLAR BUFFER SET TO 32 Mb
 INFORMATION **** READM2 **** NEW DEFAULT: EXCHANGE BIPOLAR BUFFER SET TO 32 Mb

 *******************************************************************************
 NEW DEFAULT: DFT INTEGRATION GRID INCREASED TO XLGRID
 NEW DEFAULT: DIIS ACCELERATOR ACTIVE
 USE KEYWORD NODIIS TO TURN IT OFF
 *******************************************************************************

 WARNING **** RDDFTP **** HSEsol-HJS ACTIVE
 RANGE SEPARATION - OMEGA:   0.110000000000000     
 WARNING **** RDDFTP **** HSEsol-3c has to be combined with sol-def2-mSVP basis set
 *******************************************************************************
 N. OF ATOMS PER CELL        42  COULOMB OVERLAP TOL         (T1) 10**   -6
 NUMBER OF SHELLS           234  COULOMB PENETRATION TOL     (T2) 10**   -6
 NUMBER OF AO               474  EXCHANGE OVERLAP TOL        (T3) 10**   -6
 N. OF ELECTRONS PER CELL   198  EXCHANGE PSEUDO OVP (F(G))  (T4) 10**   -6
 CORE ELECTRONS PER CELL     60  EXCHANGE PSEUDO OVP (P(G))  (T5) 10**  -12
 N. OF SYMMETRY OPERATORS     1  POLE ORDER IN MONO ZONE                  4
 *******************************************************************************
 TYPE OF CALCULATION :  RESTRICTED CLOSED SHELL
 KOHN-SHAM HAMILTONIAN

 (EXCHANGE)[CORRELATION] FUNCTIONAL:(HSEsol GGA)[PBEsol]

 RANGE-SEPARATED HYBRID FUNCTIONAL 
 OMEGA (SHORT-RANGE)[LONG-RANGE]:(    0.1100)[    0.0000]

 HYBRID EXCHANGE - PERCENTAGE OF FOCK EXCHANGE    25.0000

 CAPPA:IS1  2;IS2  2;IS3  8; K PTS MONK NET  20; SYMMOPS:K SPACE   2;G SPACE   1

 *******************************************************************************
 MAX NUMBER OF SCF CYCLES      50  CONVERGENCE ON DELTAP        10**-16
 WEIGHT OF F(I) IN F(I+1)      30% CONVERGENCE ON ENERGY        10**- 6
 SHRINK. FACT.(MONKH.)    2  2  8  NUMBER OF K POINTS IN THE IBZ     20
 SHRINKING FACTOR(GILAT NET)    8  NUMBER OF K POINTS(GILAT NET)   1028
 *******************************************************************************
 *** K POINTS COORDINATES (OBLIQUE COORDINATES IN UNITS OF IS =  2)
   1-R(  0  0  0)   2-R(  1  0  0)   3-R(  0  1  0)   4-R(  1  1  0)
   5-C(  0  0  1)   6-C(  1  0  1)   7-C(  0  1  1)   8-C(  1  1  1)
   9-C(  0  0  2)  10-C(  1  0  2)  11-C(  0  1  2)  12-C(  1  1  2)
  13-C(  0  0  3)  14-C(  1  0  3)  15-C(  0  1  3)  16-C(  1  1  3)
  17-R(  0  0  4)  18-R(  1  0  4)  19-R(  0  1  4)  20-R(  1  1  4)

 DIRECT LATTICE VECTORS COMPON. (A.U.)     RECIP. LATTICE VECTORS COMPON. (A.U.) 
        X            Y            Z              X            Y            Z
   24.5879030  -14.1935232    0.0000000      0.2555397    0.0000000   -0.1869553
    0.0000000   28.3910867    0.0000000      0.1277517    0.2213084   -0.3739482
    5.6684704    9.8196609    7.7479444      0.0000000    0.0000000    0.8109487

 DISK SPACE FOR EIGENVECTORS (FTN 10)     7189632 REALS

 SYMMETRY ADAPTION OF THE BLOCH FUNCTIONS DISABLED
 TTTTTTTTTTTTTTTTTTTTTTTTTTTTTT gordsh1     TELAPSE        0.05 TCPU        0.04

 MATRIX SIZE: P(G)  290164, F(G)   58779, P(G) IRR  146213, F(G) IRR   59295
 MAX G-VECTOR INDEX FOR 1- AND 2-ELECTRON INTEGRALS  71

 TTTTTTTTTTTTTTTTTTTTTTTTTTTTTT INPUT       TELAPSE        0.38 TCPU        0.38

 NEIGHBORS OF THE NON-EQUIVALENT ATOMS

 N = NUMBER OF NEIGHBORS AT DISTANCE R
    ATOM  N     R/ANG      R/AU   NEIGHBORS (ATOM LABELS AND CELL INDICES)
   1 B    1     1.3791     2.6061   37 O    0 1-1
   1 B    1     1.3793     2.6065   38 O    1 1-1
   1 B    1     1.5503     2.9297   25 C    0 0 0
   1 B    1     2.3895     4.5155    3 B    1 2-3
   1 B    1     2.3898     4.5160    2 B    1 1-1
   1 B    1     2.5632     4.8437   26 C    0 0 0

   2 B    1     1.3793     2.6065   39 O    0 1-2
   2 B    1     1.3793     2.6065   38 O    0 0 0
   2 B    1     1.5504     2.9298   19 C    0 0 0
   2 B    1     2.3895     4.5156    3 B    0 1-2
   2 B    1     2.3898     4.5160    1 B   -1-1 1
   2 B    1     2.5634     4.8440   22 C    0 0 0

   3 B    1     1.3791     2.6061   37 O   -1-1 2
   3 B    1     1.3793     2.6064   39 O    0 0 0
   3 B    1     1.5502     2.9294   31 C   -1-1 2
   3 B    1     2.3895     4.5155    1 B   -1-2 3
   3 B    1     2.3895     4.5156    2 B    0-1 2
   3 B    1     2.5629     4.8433   32 C   -1-1 2

   4 B    1     1.3795     2.6068   40 O    0 0 0
   4 B    1     1.3795     2.6070   41 O    0 0 0
   4 B    1     1.5513     2.9316   24 C    0 0 0
   4 B    1     2.3905     4.5174    6 B    0 0 0
   4 B    1     2.3905     4.5175    5 B    0 0 0
   4 B    1     2.5648     4.8468   23 C    0 0 0

   5 B    1     1.3795     2.6069   41 O    0 0 0
   5 B    1     1.3797     2.6072   42 O    0 0 0
   5 B    1     1.5516     2.9322   36 C    0 0 0
   5 B    1     2.3905     4.5175    4 B    0 0 0
   5 B    1     2.3911     4.5185    6 B    0 0 0
   5 B    1     2.5651     4.8473   35 C    0 0 0

   6 B    1     1.3795     2.6068   40 O    0 0 0
   6 B    1     1.3796     2.6071   42 O    0 0 0
   6 B    1     1.5516     2.9322   30 C    0 0 0
   6 B    1     2.3905     4.5174    4 B    0 0 0
   6 B    1     2.3911     4.5185    5 B    0 0 0
   6 B    1     2.5651     4.8473   29 C    0 0 1

   7 H    1     1.0913     2.0623   20 C    0 0 0
   7 H    1     2.1472     4.0576   19 C    0 0 0
   7 H    1     2.1680     4.0969   23 C    0 0 0
   7 H    1     2.5202     4.7625   10 H    0 0 0
   7 H    1     2.5676     4.8520   38 O    0 0 0
   7 H    1     2.7321     5.1630    2 B    0 0 0

   8 H    1     1.0914     2.0625   21 C    0 0 0
   8 H    1     2.1493     4.0616   24 C    0 0 0
   8 H    1     2.1666     4.0942   22 C    0 0 0
   8 H    1     2.5198     4.7618    9 H    0 1-1
   8 H    1     2.5720     4.8604   40 O    0 0 0
   8 H    1     2.7362     5.1707    4 B    0 0 0

   9 H    1     1.0914     2.0624   22 C    0-1 1
   9 H    1     2.1471     4.0575   19 C    0-1 1
   9 H    1     2.1680     4.0970   21 C    0-1 1
   9 H    1     2.5198     4.7618    8 H    0-1 1
   9 H    1     2.5665     4.8500   39 O    0 0-1
   9 H    1     2.7315     5.1618    2 B    0-1 1

  10 H    1     1.0915     2.0626   23 C    0 0 0
  10 H    1     2.1490     4.0610   24 C    0 0 0
  10 H    1     2.1669     4.0948   20 C    0 0 0
  10 H    1     2.5202     4.7625    7 H    0 0 0
  10 H    1     2.5712     4.8588   41 O    0 0 0
  10 H    1     2.7351     5.1686    4 B    0 0 0

  11 H    1     1.0913     2.0623   26 C   -1-1 2
  11 H    1     2.1469     4.0571   25 C   -1-1 2
  11 H    1     2.1680     4.0968   29 C   -1-1 2
  11 H    1     2.5198     4.7617   14 H    0 0 0
  11 H    1     2.5670     4.8510   38 O    0 0 1
  11 H    1     2.7310     5.1609    1 B   -1-1 2

  12 H    1     1.0914     2.0625   27 C    0-1 2
  12 H    1     2.1493     4.0617   30 C    0-1 1
  12 H    1     2.1664     4.0939   28 C    0-1 2
  12 H    1     2.5192     4.7606   13 H    0 0 0
  12 H    1     2.5735     4.8632   40 O    0-1 1
  12 H    1     2.7371     5.1723    6 B    0-1 1

  13 H    1     1.0914     2.0624   28 C    0-1 2
  13 H    1     2.1475     4.0581   25 C    0-1 2
  13 H    1     2.1679     4.0967   27 C    0-1 2
  13 H    1     2.5192     4.7606   12 H    0 0 0
  13 H    1     2.5675     4.8519   37 O    0 0 1
  13 H    1     2.7328     5.1643    1 B    0-1 2

  14 H    1     1.0914     2.0625   29 C   -1-1 2
  14 H    1     2.1491     4.0612   30 C   -1-1 1
  14 H    1     2.1666     4.0942   26 C   -1-1 2
  14 H    1     2.5198     4.7617   11 H    0 0 0
  14 H    1     2.5723     4.8609   42 O   -1-1 1
  14 H    1     2.7355     5.1693    6 B   -1-1 1

  15 H    1     1.0914     2.0624   32 C   -1-1 1
  15 H    1     2.1475     4.0582   31 C   -1-1 1
  15 H    1     2.1678     4.0966   35 C   -1-1 1
  15 H    1     2.5200     4.7621   18 H   -1-1 1
  15 H    1     2.5667     4.8503   39 O    0 0-1
  15 H    1     2.7315     5.1618    3 B    0 0-1

  16 H    1     1.0913     2.0623   33 C    0 0 0
  16 H    1     2.1487     4.0605   36 C    0 0 0
  16 H    1     2.1667     4.0945   34 C    0 0 0
  16 H    1     2.5197     4.7616   17 H    0 0 0
  16 H    1     2.5723     4.8610   41 O    0 0 0
  16 H    1     2.7359     5.1701    5 B    0 0 0

  17 H    1     1.0915     2.0626   34 C    0 0 0
  17 H    1     2.1479     4.0589   31 C    0 0 0
  17 H    1     2.1679     4.0968   33 C    0 0 0
  17 H    1     2.5197     4.7616   16 H    0 0 0
  17 H    1     2.5677     4.8522   37 O    0 0 0
  17 H    1     2.7331     5.1648    3 B    1 1-2

  18 H    1     1.0914     2.0624   35 C    0 0 0
  18 H    1     2.1486     4.0602   36 C    0 0 0
  18 H    1     2.1668     4.0947   32 C    0 0 0
  18 H    1     2.5200     4.7621   15 H    1 1-1
  18 H    1     2.5717     4.8598   42 O    0 0 0
  18 H    1     2.7349     5.1682    5 B    0 0 0

  19 C    1     1.4020     2.6495   22 C    0 0 0
  19 C    1     1.4021     2.6495   20 C    0 0 0
  19 C    1     1.5504     2.9298    2 B    0 0 0
  19 C    1     2.1471     4.0575    9 H    0 1-1
  19 C    1     2.1472     4.0576    7 H    0 0 0
  19 C    1     2.4246     4.5817   21 C    0 0 0

  20 C    1     1.0913     2.0623    7 H    0 0 0
  20 C    1     1.3914     2.6294   23 C    0 0 0
  20 C    1     1.4021     2.6495   19 C    0 0 0
  20 C    1     2.1669     4.0948   10 H    0 0 0
  20 C    1     2.4177     4.5688   22 C    0 0 0
  20 C    1     2.4250     4.5825   24 C    0 0 0

  21 C    1     1.0914     2.0625    8 H    0 0 0
  21 C    1     1.3914     2.6293   22 C    0 0 0
  21 C    1     1.4026     2.6505   24 C    0 0 0
  21 C    1     2.1680     4.0970    9 H    0 1-1
  21 C    1     2.4182     4.5697   23 C    0 0 0
  21 C    1     2.4246     4.5817   19 C    0 0 0

  22 C    1     1.0914     2.0624    9 H    0 1-1
  22 C    1     1.3914     2.6293   21 C    0 0 0
  22 C    1     1.4020     2.6495   19 C    0 0 0
  22 C    1     2.1666     4.0942    8 H    0 0 0
  22 C    1     2.4177     4.5688   20 C    0 0 0
  22 C    1     2.4250     4.5826   24 C    0 0 0

  23 C    1     1.0915     2.0626   10 H    0 0 0
  23 C    1     1.3914     2.6294   20 C    0 0 0
  23 C    1     1.4025     2.6504   24 C    0 0 0
  23 C    1     2.1680     4.0969    7 H    0 0 0
  23 C    1     2.4182     4.5697   21 C    0 0 0
  23 C    1     2.4246     4.5818   19 C    0 0 0

  24 C    1     1.4025     2.6504   23 C    0 0 0
  24 C    1     1.4026     2.6505   21 C    0 0 0
  24 C    1     1.5513     2.9316    4 B    0 0 0
  24 C    1     2.1490     4.0610   10 H    0 0 0
  24 C    1     2.1493     4.0616    8 H    0 0 0
  24 C    1     2.4250     4.5825   20 C    0 0 0

  25 C    1     1.4020     2.6494   26 C    0 0 0
  25 C    1     1.4021     2.6495   28 C    0 0 0
  25 C    1     1.5503     2.9297    1 B    0 0 0
  25 C    1     2.1469     4.0571   11 H    1 1-2
  25 C    1     2.1475     4.0581   13 H    0 1-2
  25 C    1     2.4246     4.5818   27 C    0 0 0

  26 C    1     1.0913     2.0623   11 H    1 1-2
  26 C    1     1.3914     2.6293   29 C    0 0 0
  26 C    1     1.4020     2.6494   25 C    0 0 0
  26 C    1     2.1666     4.0942   14 H    1 1-2
  26 C    1     2.4175     4.5684   28 C    0 0 0
  26 C    1     2.4251     4.5828   30 C    0 0-1

  27 C    1     1.0914     2.0625   12 H    0 1-2
  27 C    1     1.3915     2.6295   28 C    0 0 0
  27 C    1     1.4026     2.6505   30 C    0 0-1
  27 C    1     2.1679     4.0967   13 H    0 1-2
  27 C    1     2.4179     4.5691   29 C    0 0 0
  27 C    1     2.4246     4.5818   25 C    0 0 0

  28 C    1     1.0914     2.0624   13 H    0 1-2
  28 C    1     1.3915     2.6295   27 C    0 0 0
  28 C    1     1.4021     2.6495   25 C    0 0 0
  28 C    1     2.1664     4.0939   12 H    0 1-2
  28 C    1     2.4175     4.5684   26 C    0 0 0
  28 C    1     2.4253     4.5832   30 C    0 0-1

  29 C    1     1.0914     2.0625   14 H    1 1-2
  29 C    1     1.3914     2.6293   26 C    0 0 0
  29 C    1     1.4025     2.6504   30 C    0 0-1
  29 C    1     2.1680     4.0968   11 H    1 1-2
  29 C    1     2.4179     4.5691   27 C    0 0 0
  29 C    1     2.4247     4.5819   25 C    0 0 0

  30 C    1     1.4025     2.6504   29 C    0 0 1
  30 C    1     1.4026     2.6505   27 C    0 0 1
  30 C    1     1.5516     2.9322    6 B    0 0 0
  30 C    1     2.1491     4.0612   14 H    1 1-1
  30 C    1     2.1493     4.0617   12 H    0 1-1
  30 C    1     2.4251     4.5828   26 C    0 0 1

  31 C    1     1.4021     2.6496   32 C    0 0 0
  31 C    1     1.4021     2.6497   34 C    0 0 0
  31 C    1     1.5502     2.9294    3 B    1 1-2
  31 C    1     2.1475     4.0582   15 H    1 1-1
  31 C    1     2.1479     4.0589   17 H    0 0 0
  31 C    1     2.4244     4.5814   33 C    0 0 0

  32 C    1     1.0914     2.0624   15 H    1 1-1
  32 C    1     1.3914     2.6293   35 C    0 0 0
  32 C    1     1.4021     2.6496   31 C    0 0 0
  32 C    1     2.1668     4.0947   18 H    0 0 0
  32 C    1     2.4179     4.5692   34 C    0 0 0
  32 C    1     2.4251     4.5827   36 C    0 0 0

  33 C    1     1.0913     2.0623   16 H    0 0 0
  33 C    1     1.3914     2.6294   34 C    0 0 0
  33 C    1     1.4025     2.6504   36 C    0 0 0
  33 C    1     2.1679     4.0968   17 H    0 0 0
  33 C    1     2.4178     4.5690   35 C    0 0 0
  33 C    1     2.4244     4.5814   31 C    0 0 0

  34 C    1     1.0915     2.0626   17 H    0 0 0
  34 C    1     1.3914     2.6294   33 C    0 0 0
  34 C    1     1.4021     2.6497   31 C    0 0 0
  34 C    1     2.1667     4.0945   16 H    0 0 0
  34 C    1     2.4179     4.5692   32 C    0 0 0
  34 C    1     2.4253     4.5832   36 C    0 0 0

  35 C    1     1.0914     2.0624   18 H    0 0 0
  35 C    1     1.3914     2.6293   32 C    0 0 0
  35 C    1     1.4025     2.6503   36 C    0 0 0
  35 C    1     2.1678     4.0966   15 H    1 1-1
  35 C    1     2.4178     4.5690   33 C    0 0 0
  35 C    1     2.4245     4.5817   31 C    0 0 0

  36 C    1     1.4025     2.6503   35 C    0 0 0
  36 C    1     1.4025     2.6504   33 C    0 0 0
  36 C    1     1.5516     2.9322    5 B    0 0 0
  36 C    1     2.1486     4.0602   18 H    0 0 0
  36 C    1     2.1487     4.0605   16 H    0 0 0
  36 C    1     2.4251     4.5827   32 C    0 0 0

  37 O    1     1.3791     2.6061    1 B    0-1 1
  37 O    1     1.3791     2.6061    3 B    1 1-2
  37 O    1     2.3880     4.5126   38 O    1 0 0
  37 O    1     2.3882     4.5130   39 O    1 1-2
  37 O    1     2.5383     4.7966   31 C    0 0 0
  37 O    1     2.5384     4.7968   25 C    0-1 1

  38 O    1     1.3793     2.6065    1 B   -1-1 1
  38 O    1     1.3793     2.6065    2 B    0 0 0
  38 O    1     2.3880     4.5126   37 O   -1 0 0
  38 O    1     2.3882     4.5131   39 O    0 1-2
  38 O    1     2.5391     4.7981   19 C    0 0 0
  38 O    1     2.5395     4.7990   25 C   -1-1 1

  39 O    1     1.3793     2.6064    3 B    0 0 0
  39 O    1     1.3793     2.6065    2 B    0-1 2
  39 O    1     2.3882     4.5130   37 O   -1-1 2
  39 O    1     2.3882     4.5131   38 O    0-1 2
  39 O    1     2.5390     4.7980   19 C    0-1 2
  39 O    1     2.5391     4.7982   31 C   -1-1 2

  40 O    1     1.3795     2.6068    6 B    0 0 0
  40 O    1     1.3795     2.6068    4 B    0 0 0
  40 O    1     2.3880     4.5126   42 O    0 0 0
  40 O    1     2.3884     4.5134   41 O    0 0 0
  40 O    1     2.5400     4.7998   24 C    0 0 0
  40 O    1     2.5403     4.8005   30 C    0 0 0

  41 O    1     1.3795     2.6069    5 B    0 0 0
  41 O    1     1.3795     2.6070    4 B    0 0 0
  41 O    1     2.3881     4.5128   42 O    0 0 0
  41 O    1     2.3884     4.5134   40 O    0 0 0
  41 O    1     2.5404     4.8006   24 C    0 0 0
  41 O    1     2.5405     4.8008   36 C    0 0 0

  42 O    1     1.3796     2.6071    6 B    0 0 0
  42 O    1     1.3797     2.6072    5 B    0 0 0
  42 O    1     2.3880     4.5126   40 O    0 0 0
  42 O    1     2.3881     4.5128   41 O    0 0 0
  42 O    1     2.5409     4.8016   36 C    0 0 0
  42 O    1     2.5410     4.8019   30 C    0 0 0


 SYMMETRY ALLOWED INTERNAL DEGREE(S) OF FREEDOM: 123
 TTTTTTTTTTTTTTTTTTTTTTTTTTTTTT SYMM        TELAPSE        0.38 TCPU        0.38
 TTTTTTTTTTTTTTTTTTTTTTTTTTTTTT INT_SCREEN  TELAPSE        0.42 TCPU        0.41

 DFT PARAMETERS

     ATOM       ELECTRONS   NET CHARGE   R(ANGSTROM)
   1   5  B       5.0000      0.0000     0.89000000
   7   1  H       1.0000      0.0000     1.11000000
  19   6  C       6.0000      0.0000     0.77000000
  37   8  O       8.0000      0.0000     0.74000000

 SIZE OF GRID=    1328675
 TTTTTTTTTTTTTTTTTTTTTTTTTTTTTT MAKE_GRID2  TELAPSE        8.02 TCPU        8.01
 BECKE WEIGHT FUNCTION
 RADSAFE =     2.00
 TOLERANCES - DENSITY:10**- 6; POTENTIAL:10**- 9; GRID WGT:10**-14

 RADIAL INTEGRATION  - INTERVALS (POINTS,UPPER LIMIT):            1( 75,  4.0*R)

 ANGULAR INTEGRATION - INTERVALS (ACCURACY LEVEL [N. POINTS] UPPER LIMIT):
  1(  4[  86]   0.2)  2(  8[ 194]   0.5)  3( 12[ 350]   0.9)  4( 16[ 974]   3.5)
  5( 12[ 350]9999.0)
 TTTTTTTTTTTTTTTTTTTTTTTTTTTTTT INT_CALC    TELAPSE        8.09 TCPU        8.08
 EEEEEEEEEE INT_CALC TERMINATION  DATE 19 02 2026 TIME 19:11:00.1

 *******************************************************************************
 cof-1_z41_L060_incl                                                             
 CRYSTAL - SCF - TYPE OF CALCULATION :  RESTRICTED CLOSED SHELL
 *******************************************************************************

 CAPPA:IS1  2;IS2  2;IS3  8; K PTS MONK NET  20; SYMMOPS:K SPACE   2;G SPACE   1

 TTTTTTTTTTTTTTTTTTTTTTTTTTTTTT SDIK        TELAPSE        8.75 TCPU       16.41

 AAAAAAAAAAAAAAAAAAAAAAAAAAAAAAAAAAAAAAAAAAAAAAAAAAAAAAAAAAAAAAAAAAAAAAAAAAAAAAA
         ATOMIC WAVEFUNCTION(S)


 NUCLEAR CHARGE  5.0  SYMMETRY SPECIES            S    P
 N. ELECTRONS    5.0  NUMBER OF PRIMITIVE GTOS    8    4
                      NUMBER OF CONTRACTED GTOS   4    2
                      NUMBER OF CLOSED SHELLS     2    0
                      OPEN SHELL OCCUPATION       0    1

  ZNUC  SCFIT    TOTAL HF ENERGY   KINETIC ENERGY   VIRIAL THEOREM ACCURACY
   5.0    11    -2.451164084E+01  2.462155050E+01 -1.995536038E+00  1.5E-06

 NUCLEAR CHARGE  1.0  SYMMETRY SPECIES            S
 N. ELECTRONS    1.0  NUMBER OF PRIMITIVE GTOS    4
                      NUMBER OF CONTRACTED GTOS   2
                      NUMBER OF CLOSED SHELLS     0
                      OPEN SHELL OCCUPATION       1

  ZNUC  SCFIT    TOTAL HF ENERGY   KINETIC ENERGY   VIRIAL THEOREM ACCURACY
   1.0     1    -4.977266687E-01  5.190767460E-01 -1.958869132E+00  0.0E+00

 NUCLEAR CHARGE  6.0  SYMMETRY SPECIES            S    P
 N. ELECTRONS    6.0  NUMBER OF PRIMITIVE GTOS    8    4
                      NUMBER OF CONTRACTED GTOS   4    2
                      NUMBER OF CLOSED SHELLS     2    0
                      OPEN SHELL OCCUPATION       0    2

  ZNUC  SCFIT    TOTAL HF ENERGY   KINETIC ENERGY   VIRIAL THEOREM ACCURACY
   6.0     9    -3.766704647E+01  3.775180683E+01 -1.997754800E+00  1.1E-06

 NUCLEAR CHARGE  8.0  SYMMETRY SPECIES            S    P
 N. ELECTRONS    8.0  NUMBER OF PRIMITIVE GTOS    8    4
                      NUMBER OF CONTRACTED GTOS   4    2
                      NUMBER OF CLOSED SHELLS     2    0
                      OPEN SHELL OCCUPATION       0    4

  ZNUC  SCFIT    TOTAL HF ENERGY   KINETIC ENERGY   VIRIAL THEOREM ACCURACY
   8.0    12    -7.477373220E+01  7.477365593E+01 -2.000001020E+00  3.8E-06

 AAAAAAAAAAAAAAAAAAAAAAAAAAAAAAAAAAAAAAAAAAAAAAAAAAAAAAAAAAAAAAAAAAAAAAAAAAAAAAA

 CHARGE NORMALIZATION FACTOR   1.00000000
 TOTAL ATOMIC CHARGES:
   5.0000000   5.0000000   5.0000000   5.0000000   5.0000000   5.0000000
   1.0000000   1.0000000   1.0000000   1.0000000   1.0000000   1.0000000
   1.0000000   1.0000000   1.0000000   1.0000000   1.0000000   1.0000000
   6.0000000   6.0000000   6.0000000   6.0000000   6.0000000   6.0000000
   6.0000000   6.0000000   6.0000000   6.0000000   6.0000000   6.0000000
   6.0000000   6.0000000   6.0000000   6.0000000   6.0000000   6.0000000
   8.0000000   8.0000000   8.0000000   8.0000000   8.0000000   8.0000000
 TTTTTTTTTTTTTTTTTTTTTTTTTTTTTT MOQGAD      TELAPSE        8.79 TCPU       17.59
 TTTTTTTTTTTTTTTTTTTTTTTTTTTTTT SHELLXN     TELAPSE       14.56 TCPU      196.20
 TTTTTTTTTTTTTTTTTTTTTTTTTTTTTT MONMO3      TELAPSE       14.69 TCPU      200.43
 NUMERICALLY INTEGRATED DENSITY    197.9999532469
 TTTTTTTTTTTTTTTTTTTTTTTTTTTTTT NUMDFT      TELAPSE       15.29 TCPU      219.45
 CYC   0 ETOT(AU) -1.295955098355E+03 DETOT -1.30E+03 tst  0.00E+00 PX  1.00E+00
 TTTTTTTTTTTTTTTTTTTTTTTTTTTTTT DIIS        TELAPSE       15.34 TCPU      221.08
 TTTTTTTTTTTTTTTTTTTTTTTTTTTTTT FDIK        TELAPSE       15.91 TCPU      239.27
 INSULATING STATE
 TOP OF VALENCE BANDS -    BAND     99; K    1; EIG -3.1371854E-01 AU
 BOTTOM OF VIRTUAL BANDS - BAND    100; K   17; EIG -1.5913354E-01 AU
 INDIRECT ENERGY BAND GAP:   4.2065 eV
 BOTTOM OF VIRTUAL BANDS - BAND    100; K    1; EIG -1.5540393E-01 AU
 TTTTTTTTTTTTTTTTTTTTTTTTTTTTTT PDIG        TELAPSE       16.24 TCPU      245.21
 CHARGE NORMALIZATION FACTOR   1.00000000
 TOTAL ATOMIC CHARGES:
   4.1580283   4.1669350   4.1672028   4.1666838   4.1664293   4.1576693
   0.7851457   0.7852668   0.7850050   0.7851217   0.7853408   0.7855194
   0.7853286   0.7854745   0.7850035   0.7851884   0.7850971   0.7852619
   6.0432241   6.2654300   6.2654326   6.2651909   6.2652040   6.0426029
   6.0441277   6.2644173   6.2645599   6.2643343   6.2645516   6.0429064
   6.0436045   6.2649551   6.2655706   6.2650503   6.2657090   6.0421557
   8.6924783   8.6926843   8.6917438   8.6929695   8.6921998   8.6931956
 TTTTTTTTTTTTTTTTTTTTTTTTTTTTTT MOQGAD      TELAPSE       16.28 TCPU      245.26
 TTTTTTTTTTTTTTTTTTTTTTTTTTTTTT SHELLXN     TELAPSE       22.12 TCPU      430.98
 TTTTTTTTTTTTTTTTTTTTTTTTTTTTTT MONMO3      TELAPSE       22.25 TCPU      435.14
 NUMERICALLY INTEGRATED DENSITY    197.9999671327
 TTTTTTTTTTTTTTTTTTTTTTTTTTTTTT NUMDFT      TELAPSE       22.83 TCPU      453.80
 CYC   1 ETOT(AU) -1.288814061580E+03 DETOT  7.14E+00 tst  0.00E+00 PX  1.00E+00
 TTTTTTTTTTTTTTTTTTTTTTTTTTTTTT DIIS        TELAPSE       22.88 TCPU      455.38
 DIIS TEST: 0.11076E+01 AT SCF   CYCLE   1 - MIX   30 %
 TTTTTTTTTTTTTTTTTTTTTTTTTTTTTT FDIK        TELAPSE       23.41 TCPU      472.28
 INSULATING STATE
 TOP OF VALENCE BANDS -    BAND     99; K    1; EIG -2.2656061E-01 AU
 BOTTOM OF VIRTUAL BANDS - BAND    100; K   17; EIG -8.4000221E-02 AU
 INDIRECT ENERGY BAND GAP:   3.8793 eV
 BOTTOM OF VIRTUAL BANDS - BAND    100; K    1; EIG -7.7229941E-02 AU
 TTTTTTTTTTTTTTTTTTTTTTTTTTTTTT PDIG        TELAPSE       23.73 TCPU      478.22
 CHARGE NORMALIZATION FACTOR   1.00000000
 TOTAL ATOMIC CHARGES:
   4.7089556   4.7042333   4.7045949   4.7044061   4.7042955   4.7093845
   0.9087994   0.9088850   0.9122839   0.9123298   0.9041107   0.9041170
   0.9042089   0.9040397   0.9122421   0.9124092   0.9088335   0.9088369
   5.8664038   6.1399664   6.1405641   6.1338257   6.1338384   5.8688306
   5.8839484   6.1307472   6.1314761   6.1310866   6.1311567   5.8871103
   5.8662419   6.1337101   6.1339725   6.1404304   6.1400129   5.8688487
   8.3345480   8.3348321   8.3313479   8.3345104   8.3309368   8.3346881
 TTTTTTTTTTTTTTTTTTTTTTTTTTTTTT MOQGAD      TELAPSE       23.77 TCPU      478.26
 TTTTTTTTTTTTTTTTTTTTTTTTTTTTTT SHELLXN     TELAPSE       29.61 TCPU      663.98
 TTTTTTTTTTTTTTTTTTTTTTTTTTTTTT MONMO3      TELAPSE       29.74 TCPU      668.21
 NUMERICALLY INTEGRATED DENSITY    197.9999594632
 TTTTTTTTTTTTTTTTTTTTTTTTTTTTTT NUMDFT      TELAPSE       30.35 TCPU      687.66
 CYC   2 ETOT(AU) -1.289009048005E+03 DETOT -1.95E-01 tst  3.58E-03 PX  1.58E-01
 TTTTTTTTTTTTTTTTTTTTTTTTTTTTTT DIIS        TELAPSE       30.42 TCPU      689.83
 DIIS TEST: 0.45670E+00 AT SCF   CYCLE   2 - DIIS ACTIVE - HISTORY:     2 CYCLES
 TTTTTTTTTTTTTTTTTTTTTTTTTTTTTT FDIK        TELAPSE       30.98 TCPU      707.56
 INSULATING STATE
 TOP OF VALENCE BANDS -    BAND     99; K    1; EIG -2.3905249E-01 AU
 BOTTOM OF VIRTUAL BANDS - BAND    100; K   17; EIG -7.9099664E-02 AU
 INDIRECT ENERGY BAND GAP:   4.3525 eV
 BOTTOM OF VIRTUAL BANDS - BAND    100; K    1; EIG -7.2962009E-02 AU
 TTTTTTTTTTTTTTTTTTTTTTTTTTTTTT PDIG        TELAPSE       31.30 TCPU      713.49
 CHARGE NORMALIZATION FACTOR   1.00000000
 TOTAL ATOMIC CHARGES:
   4.4995597   4.5019064   4.5021735   4.5018572   4.5016053   4.4996285
   0.8875426   0.8877979   0.8901879   0.8902673   0.8831465   0.8834050
   0.8832873   0.8832720   0.8901102   0.8903743   0.8876413   0.8876528
   5.8923706   6.1606809   6.1602792   6.1590708   6.1585788   5.8922997
   5.8930418   6.1621635   6.1618220   6.1619851   6.1619608   5.8921145
   5.8924212   6.1590529   6.1586469   6.1604367   6.1605046   5.8921448
   8.5107183   8.5110706   8.5123175   8.5110493   8.5124945   8.5113595
 TTTTTTTTTTTTTTTTTTTTTTTTTTTTTT MOQGAD      TELAPSE       31.34 TCPU      713.53
 TTTTTTTTTTTTTTTTTTTTTTTTTTTTTT SHELLXN     TELAPSE       37.18 TCPU      899.43
 TTTTTTTTTTTTTTTTTTTTTTTTTTTTTT MONMO3      TELAPSE       37.31 TCPU      903.65
 NUMERICALLY INTEGRATED DENSITY    197.9999603762
 TTTTTTTTTTTTTTTTTTTTTTTTTTTTTT NUMDFT      TELAPSE       37.92 TCPU      922.94
 CYC   3 ETOT(AU) -1.289103395828E+03 DETOT -9.43E-02 tst  7.14E-04 PX  6.43E-02
 TTTTTTTTTTTTTTTTTTTTTTTTTTTTTT DIIS        TELAPSE       37.98 TCPU      924.97
 DIIS TEST: 0.13664E-01 AT SCF   CYCLE   3 - DIIS ACTIVE - HISTORY:     3 CYCLES
 TTTTTTTTTTTTTTTTTTTTTTTTTTTTTT FDIK        TELAPSE       38.56 TCPU      943.46
 INSULATING STATE
 TOP OF VALENCE BANDS -    BAND     99; K    1; EIG -2.4926935E-01 AU
 BOTTOM OF VIRTUAL BANDS - BAND    100; K   17; EIG -8.7671150E-02 AU
 INDIRECT ENERGY BAND GAP:   4.3973 eV
 BOTTOM OF VIRTUAL BANDS - BAND    100; K    1; EIG -8.0885814E-02 AU
 TTTTTTTTTTTTTTTTTTTTTTTTTTTTTT PDIG        TELAPSE       38.88 TCPU      949.39
 CHARGE NORMALIZATION FACTOR   1.00000000
 TOTAL ATOMIC CHARGES:
   4.5054889   4.5064523   4.5067366   4.5063866   4.5061497   4.5055901
   0.8702692   0.8703849   0.8729696   0.8730662   0.8659166   0.8659555
   0.8659976   0.8658832   0.8729557   0.8731370   0.8703015   0.8703197
   5.9372719   6.1699533   6.1703475   6.1660238   6.1661019   5.9390124
   5.9488183   6.1657048   6.1665003   6.1659489   6.1662085   5.9506299
   5.9373795   6.1657552   6.1663812   6.1701865   6.1700751   5.9387952
   8.4783840   8.4785804   8.4754574   8.4785031   8.4753830   8.4786372
 TTTTTTTTTTTTTTTTTTTTTTTTTTTTTT MOQGAD      TELAPSE       38.92 TCPU      949.44
 TTTTTTTTTTTTTTTTTTTTTTTTTTTTTT SHELLXN     TELAPSE       44.75 TCPU     1135.22
 TTTTTTTTTTTTTTTTTTTTTTTTTTTTTT MONMO3      TELAPSE       44.88 TCPU     1139.45
 NUMERICALLY INTEGRATED DENSITY    197.9999609406
 TTTTTTTTTTTTTTTTTTTTTTTTTTTTTT NUMDFT      TELAPSE       45.49 TCPU     1158.80
 CYC   4 ETOT(AU) -1.289106291539E+03 DETOT -2.90E-03 tst  2.66E-05 PX  1.39E-02
 TTTTTTTTTTTTTTTTTTTTTTTTTTTTTT DIIS        TELAPSE       45.56 TCPU     1161.22
 DIIS TEST: 0.40540E-02 AT SCF   CYCLE   4 - DIIS ACTIVE - HISTORY:     4 CYCLES
 TTTTTTTTTTTTTTTTTTTTTTTTTTTTTT FDIK        TELAPSE       46.14 TCPU     1179.76
 INSULATING STATE
 TOP OF VALENCE BANDS -    BAND     99; K    1; EIG -2.4725620E-01 AU
 BOTTOM OF VIRTUAL BANDS - BAND    100; K   17; EIG -8.7309654E-02 AU
 INDIRECT ENERGY BAND GAP:   4.3524 eV
 BOTTOM OF VIRTUAL BANDS - BAND    100; K    1; EIG -8.0747734E-02 AU
 TTTTTTTTTTTTTTTTTTTTTTTTTTTTTT PDIG        TELAPSE       46.47 TCPU     1185.70
 CHARGE NORMALIZATION FACTOR   1.00000000
 TOTAL ATOMIC CHARGES:
   4.5082541   4.5081011   4.5084157   4.5081353   4.5078952   4.5084251
   0.8734536   0.8736599   0.8762343   0.8763683   0.8689690   0.8691698
   0.8690952   0.8690556   0.8761757   0.8764718   0.8735289   0.8735494
   5.9210356   6.1691648   6.1689736   6.1659740   6.1654197   5.9213037
   5.9288033   6.1668391   6.1666471   6.1667282   6.1667261   5.9287154
   5.9210023   6.1659064   6.1655213   6.1690556   6.1690487   5.9212034
   8.4877297   8.4880663   8.4874953   8.4879641   8.4874696   8.4882487
 TTTTTTTTTTTTTTTTTTTTTTTTTTTTTT MOQGAD      TELAPSE       46.51 TCPU     1185.74
 TTTTTTTTTTTTTTTTTTTTTTTTTTTTTT SHELLXN     TELAPSE       52.34 TCPU     1371.41
 TTTTTTTTTTTTTTTTTTTTTTTTTTTTTT MONMO3      TELAPSE       52.47 TCPU     1375.60
 NUMERICALLY INTEGRATED DENSITY    197.9999609251
 TTTTTTTTTTTTTTTTTTTTTTTTTTTTTT NUMDFT      TELAPSE       53.06 TCPU     1394.58
 CYC   5 ETOT(AU) -1.289107220204E+03 DETOT -9.29E-04 tst  7.01E-06 PX  6.55E-03
 TTTTTTTTTTTTTTTTTTTTTTTTTTTTTT DIIS        TELAPSE       53.13 TCPU     1396.66
 DIIS TEST: 0.58718E-04 AT SCF   CYCLE   5 - DIIS ACTIVE - HISTORY:     5 CYCLES
 TTTTTTTTTTTTTTTTTTTTTTTTTTTTTT FDIK        TELAPSE       53.64 TCPU     1413.10
 INSULATING STATE
 TOP OF VALENCE BANDS -    BAND     99; K    1; EIG -2.4706146E-01 AU
 BOTTOM OF VIRTUAL BANDS - BAND    100; K   17; EIG -8.6733753E-02 AU
 INDIRECT ENERGY BAND GAP:   4.3627 eV
 BOTTOM OF VIRTUAL BANDS - BAND    100; K    1; EIG -8.0290565E-02 AU
 TTTTTTTTTTTTTTTTTTTTTTTTTTTTTT PDIG        TELAPSE       53.96 TCPU     1419.04
 CHARGE NORMALIZATION FACTOR   1.00000000
 TOTAL ATOMIC CHARGES:
   4.5076128   4.5083183   4.5086089   4.5082273   4.5079982   4.5076763
   0.8743407   0.8744840   0.8770817   0.8771417   0.8699723   0.8700249
   0.8700549   0.8699555   0.8770484   0.8772184   0.8743795   0.8744083
   5.9203717   6.1684485   6.1686930   6.1650996   6.1652801   5.9219927
   5.9274328   6.1660363   6.1667720   6.1662665   6.1665004   5.9287351
   5.9205268   6.1648925   6.1655179   6.1686116   6.1684974   5.9217187
   8.4877217   8.4879279   8.4861984   8.4878946   8.4862700   8.4880420
 TTTTTTTTTTTTTTTTTTTTTTTTTTTTTT MOQGAD      TELAPSE       54.00 TCPU     1419.08
 TTTTTTTTTTTTTTTTTTTTTTTTTTTTTT SHELLXN     TELAPSE       59.92 TCPU     1607.63
 TTTTTTTTTTTTTTTTTTTTTTTTTTTTTT MONMO3      TELAPSE       60.05 TCPU     1611.80
 NUMERICALLY INTEGRATED DENSITY    197.9999608820
 TTTTTTTTTTTTTTTTTTTTTTTTTTTTTT NUMDFT      TELAPSE       60.64 TCPU     1630.74
 CYC   6 ETOT(AU) -1.289107237072E+03 DETOT -1.69E-05 tst  1.38E-07 PX  8.70E-04
 TTTTTTTTTTTTTTTTTTTTTTTTTTTTTT DIIS        TELAPSE       60.73 TCPU     1633.42
 DIIS TEST: 0.45729E-05 AT SCF   CYCLE   6 - DIIS ACTIVE - HISTORY:     6 CYCLES
 TTTTTTTTTTTTTTTTTTTTTTTTTTTTTT FDIK        TELAPSE       61.26 TCPU     1650.47
 INSULATING STATE
 TOP OF VALENCE BANDS -    BAND     99; K    1; EIG -2.4705852E-01 AU
 BOTTOM OF VIRTUAL BANDS - BAND    100; K   17; EIG -8.6832153E-02 AU
 INDIRECT ENERGY BAND GAP:   4.3600 eV
 BOTTOM OF VIRTUAL BANDS - BAND    100; K    1; EIG -8.0318729E-02 AU
 TTTTTTTTTTTTTTTTTTTTTTTTTTTTTT PDIG        TELAPSE       61.58 TCPU     1656.41
 CHARGE NORMALIZATION FACTOR   1.00000000
 TOTAL ATOMIC CHARGES:
   4.5080020   4.5082182   4.5085241   4.5082615   4.5080192   4.5081707
   0.8742957   0.8745010   0.8770486   0.8771962   0.8698232   0.8700325
   0.8699564   0.8699116   0.8769928   0.8772961   0.8743739   0.8743867
   5.9211203   6.1685039   6.1683241   6.1654038   6.1647265   5.9212684
   5.9288293   6.1662058   6.1659619   6.1660564   6.1660752   5.9287368
   5.9210593   6.1653187   6.1648440   6.1683799   6.1684156   5.9212038
   8.4873969   8.4877437   8.4869552   8.4876400   8.4868846   8.4879354
 TTTTTTTTTTTTTTTTTTTTTTTTTTTTTT MOQGAD      TELAPSE       61.62 TCPU     1656.45
 TTTTTTTTTTTTTTTTTTTTTTTTTTTTTT SHELLXN     TELAPSE       67.47 TCPU     1842.86
 TTTTTTTTTTTTTTTTTTTTTTTTTTTTTT MONMO3      TELAPSE       67.60 TCPU     1847.07
 NUMERICALLY INTEGRATED DENSITY    197.9999608834
 TTTTTTTTTTTTTTTTTTTTTTTTTTTTTT NUMDFT      TELAPSE       68.21 TCPU     1866.43
 CYC   7 ETOT(AU) -1.289107237296E+03 DETOT -2.24E-07 tst  1.68E-08 PX  3.09E-04
 TTTTTTTTTTTTTTTTTTTTTTTTTTTTTT DIIS        TELAPSE       68.30 TCPU     1869.34
 DIIS TEST: 0.12742E-05 AT SCF   CYCLE   7 - DIIS ACTIVE - HISTORY:     7 CYCLES
 TTTTTTTTTTTTTTTTTTTTTTTTTTTTTT FDIK        TELAPSE       68.86 TCPU     1887.27
 INSULATING STATE
 TOP OF VALENCE BANDS -    BAND     99; K    1; EIG -2.4706919E-01 AU
 BOTTOM OF VIRTUAL BANDS - BAND    100; K   17; EIG -8.6835296E-02 AU
 INDIRECT ENERGY BAND GAP:   4.3602 eV
 BOTTOM OF VIRTUAL BANDS - BAND    100; K    1; EIG -8.0327673E-02 AU
 TTTTTTTTTTTTTTTTTTTTTTTTTTTTTT PDIG        TELAPSE       69.18 TCPU     1893.20
 CHARGE NORMALIZATION FACTOR   1.00000000
 TOTAL ATOMIC CHARGES:
   4.5079979   4.5083050   4.5086057   4.5082726   4.5080373   4.5081167
   0.8742815   0.8744582   0.8770468   0.8771363   0.8698409   0.8699655
   0.8699442   0.8698749   0.8769999   0.8772274   0.8743387   0.8743650
   5.9206676   6.1684688   6.1684932   6.1651564   6.1650111   5.9216621
   5.9282519   6.1660399   6.1663283   6.1661131   6.1662184   5.9288741
   5.9207419   6.1650236   6.1651756   6.1685025   6.1684263   5.9214633
   8.4875674   8.4878348   8.4866957   8.4877648   8.4867281   8.4879768
 TTTTTTTTTTTTTTTTTTTTTTTTTTTTTT MOQGAD      TELAPSE       69.22 TCPU     1893.24
 TTTTTTTTTTTTTTTTTTTTTTTTTTTTTT SHELLXN     TELAPSE       75.04 TCPU     2078.58
 +++ ENERGIES IN A.U. +++
 ::: EXT EL-POLE                                  -1.2859416182691E+03
 ::: EXT EL-SPHEROPOLE                             1.3948030649784E+01
 ::: BIELET ZONE E-E                               2.0052754266088E+03
 ::: TOTAL E-E                                     7.3328183898950E+02
 ::: TOTAL E-N + N-E                              -3.2969004368786E+03
 ::: TOTAL N-N                                     1.2828806250471E+02
 ::: KINETIC ENERGY                                1.2799418893956E+03
 ::: PSEUDO TOTAL   ENERGY                        -1.1553886459888E+03
 ::: VIRIAL COEFFICIENT                            1.0511442868215E+00
 TTTTTTTTTTTTTTTTTTTTTTTTTTTTTT MONMO3      TELAPSE       75.17 TCPU     2082.82
 NUMERICALLY INTEGRATED DENSITY    197.9999608825
 EXCHANGE ENERGY: -0.126028815456E+03  CORRELATION ENERGY: -0.768977613526E+01
 TTTTTTTTTTTTTTTTTTTTTTTTTTTTTT NUMDFT      TELAPSE       75.77 TCPU     2102.03
 CYC   8 ETOT(AU) -1.289107237580E+03 DETOT -2.84E-07 tst  5.59E-09 PX  3.09E-04

 == SCF ENDED - CONVERGENCE ON ENERGY      E(AU) -1.2891072375798E+03 CYCLES   8


 ENERGY EXPRESSION=HARTREE+FOCK EXCH*0.00000+(HSESOL     EXCH)*1.00000+PBESOL     CORR


 TOTAL ENERGY(DFT)(AU)(  8) -1.2891072375798E+03 DE-2.8E-07 tester 5.6E-09
 TTTTTTTTTTTTTTTTTTTTTTTTTTTTTT EDFT        TELAPSE       75.77 TCPU     2102.04
 
 INFORMATION **** DFTD3 ENERGY **** CALCULATE DFTD3 ENERGY

           DFT-D V3(BJ)
 DF                                         hsesol3c  
 parameters
 s6       :    1.0000
 s8       :    0.0000
 a1       :    0.5196
 a2       :    4.9385
 k1 k3    :   16.0000   -4.0000
 Cutoff   :   50.2022
 CN-Cutoff:   21.1671
 ABC-Cutoff:   21.1671
 
 Edisp /kcal,au:   -22.9696 -0.03660439

 E6    /kcal :   -24.1434
 E8    /kcal :     0.0000
 E6(ABC) "   :   1.173844
 
 INFORMATION **** DFTD3 ENERGY **** NORMAL TERMINATION OF DFTD3 MODULE

 GCP ENERGY CALCULATION
  level        hsesol3c            basis:hsesol3c
  Nbf            474
  Atoms           42

  Parameters: 
  sigma     1.0000
  eta       1.4281
  alpha     0.2936
  beta      1.9467

  dmp_scal      4.0000
  dmp_exp       6.0000
 cutoffs: 
   distance [bohr] 60.0
   noise    [a.u.] 2.2E-16
 SR-damping   T
 ** gCP correction **
  Egcp:        0.0829321613 / (a.u.) ||      52.0407 / (kcal/mol)
 INFORMATION **** GCP **** NORMAL TERMINATION OF GCP MODULE

 *******************************************************************************

 DFT-D3-GCP DISPERSION AND COUNTERPOISE CORRECTION

 D3 DISPERSION ENERGY (AU)      -3.6604391671833E-02
 GCP ENERGY (AU)                 8.2932161253744E-02
 TOTAL ENERGY + DISP + GCP (AU) -1.2890609098103E+03

 *******************************************************************************

 EIGENVECTORS IN FORTRAN UNIT  8
 TTTTTTTTTTTTTTTTTTTTTTTTTTTTTT END         TELAPSE       77.08 TCPU     2109.05
 EEEEEEEEEE TERMINATION  DATE 19 02 2026 TIME 19:12:09.1
