 Default number of threads is:           32

         
 *******************************************************************************
 *                                                                             *
 *                               CRYSTAL23                                     *
 *                      public : 1.0.1 - October 2022                          *
 *                       HTTP://WWW.CRYSTAL.UNITO.IT                           *
 *                                                                             *
 *                              MAIN AUTHORS                                   *
 *                                                                             *
 *  R. DOVESI(1,11), V.R. SAUNDERS(2), C. ROETTI(1,11), R. ORLANDO(1,11),      *
 *  C.M. ZICOVICH-WILSON(1,3), F. PASCALE(4), B. CIVALLERI(1,11),              *
 *  K. DOLL(5), N.M. HARRISON(6), I.J. BUSH(7), Ph. D'ARCO(8),                 *
 *  M. LLUNELL(9), M. CAUSA'(10), Y. NOEL(8), L. MASCHIO(1,11), A. ERBA(1,11)  *
 *  M. RE'RAT(14), S. CASASSA(1,11), B.G. SEARLE(2), J.K. DESMARAIS(1)         *
 *                                                                             *
 *        CONTRIBUTIONS TO THE CODE HAVE ALSO BEEN GIVEN BY                    *
 *                                                                             *
 *  M. FERRABONE(1,11), M. DE LA PIERRE(1,11), M. FERRERO(1,11),               *
 *  J. BAIMA(1,11), E. ALBANESE(1,11), M.F. PEINTINGER(12), R. BAST(13),       *
 *  B. KIRTMAN(15), V. LACIVITA(1,11), R. DEMICHELIS(1,16)                     *
 *  G. BRANDEBURG(17), S. SALUSTRO(1,11), G. SANSONE(1,11)                     *
 *  M.T. RUGGIERO(18), L.E. DAGA(1), L. DONA'(1), A. COSSARD(1)                *
 *                                                                             *
 * (1) THEORETICAL CHEMISTRY GROUP - UNIVERSITA' DI TORINO - TORINO (ITALY)    *
 * (2) SCIENTIFIC COMPUTING DEPARTMENT - STFC DARESBURY (UK)                   *
 * (3) UNIVERSIDAD AUTONOMA DEL ESTADO DE MORELOS - CUERNAVACA (MEXICO)        *
 * (4) UNIVERSITE' DE LORRAINE - NANCY (FRANCE)                                *
 * (5) UNIVERSITAET STUTTGART- STUTTGART (GERMANY)                             *
 * (6) IMPERIAL COLLEGE - LONDON (UK)                                          *
 * (7) SCIENTIFIC COMPUTING DEPARTMENT - STFC RAL (UK)                         *
 * (8) UPMC - SORBONNE UNIVERSITES - PARIS (FRANCE)                            *
 * (9) UNIVERSIDAD DE BARCELONA - BARCELONA (SPAIN)                            *
 *(10) UNIVERSITA' DI NAPOLI "FEDERICO II" - NAPOLI (ITALY)                    *
 *(11) NIS - NANOSTRUCTURED INTERFACES AND SURFACES - TORINO (ITALY)           *
 *(12) MPI FUER CHEMISCHE ENERGIEKONVERSION - MUELHEIM AN DER RUHR (GERMANY)   *
 *(13) UNIVERSITY OF TROMSO - TROMSO (NORWAY)                                  *
 *(14) UNIVERSITE' DE PAU ET DES PAYS DE L'ADOUR - PAU (FRANCE)                *
 *(15) UNIVERSITY OF CALIFORNIA SANTA BARBARA - SANTA BARBARA (USA)            *
 *(16) CURTIN UNIVERSITY - PERTH (AUSTRALIA)                                   *
 *(17) UNIVERSITY COLLEGE LONDON - LONDON (UK)                                 *
 *(18) UNIVERSITY OF VERMONT - BURLINGTON (USA)                                *
 *                                                                             *
 *******************************************************************************
 EEEEEEEEEE STARTING  DATE 19 02 2026 TIME 20:21:07.6
 cof-1_z39_L030_serr                                                             

 CRYSTAL CALCULATION
 (INPUT ACCORDING TO THE INTERNATIONAL TABLES FOR X-RAY CRYSTALLOGRAPHY)
 CRYSTAL FAMILY                       :  TRICLINIC   
 CRYSTAL CLASS  (GROTH - 1921)        :  TRICLINIC PEDIAL                     

 SPACE GROUP (NONCENTROSYMMETRIC)     :  P 1             

 LATTICE PARAMETERS  (ANGSTROMS AND DEGREES) - CONVENTIONAL CELL
        A           B           C        ALPHA        BETA       GAMMA
    15.02361    15.02392     7.80000    90.00032    89.99994   119.99596


 NUMBER OF IRREDUCIBLE ATOMS IN THE CONVENTIONAL CELL:   84

 INPUT COORDINATES

 ATOM AT. N.              COORDINATES
   1   5     6.136805400000E-01  2.273182200000E-01  2.506124000000E-01
   2   5     7.289503700000E-01  4.578813200000E-01  7.506124000000E-01
   3   5     7.727362000000E-01  3.863778800000E-01  2.506124100000E-01
   4   5     8.880060300000E-01  6.169409800000E-01  7.506124100000E-01
   5   5     6.136762700000E-01  3.863606700000E-01  2.493248200000E-01
   6   5     7.289461000000E-01  6.169237700000E-01  7.493248200000E-01
   7   5     2.272552500000E-01  6.136332200000E-01  2.506124100000E-01
   8   5     3.425250800000E-01  8.441963200000E-01  7.506124100000E-01
   9   5     3.863632200000E-01  6.136124500000E-01  2.506124100000E-01
  10   5     5.016330500000E-01  8.441755500000E-01  7.506124100000E-01
  11   5     3.863435000000E-01  7.727516500000E-01  2.493248200000E-01
  12   5     5.016133300000E-01  3.314750000000E-03  7.493248200000E-01
  13   1     9.030436200000E-01  3.089300500000E-01  2.479429800000E-01
  14   1     1.831345000000E-02  5.394931500000E-01  7.479429800000E-01
  15   1     9.663453000000E-02  6.910534400000E-01  2.475347800000E-01
  16   1     2.119043600000E-01  9.216165400000E-01  7.475347800000E-01
  17   1     9.029714200000E-01  5.940724300000E-01  2.474719500000E-01
  18   1     1.824125000000E-02  8.246355300000E-01  7.474719500000E-01
  19   1     9.673618000000E-02  4.056849400000E-01  2.474876200000E-01
  20   1     2.120060100000E-01  6.362480400000E-01  7.474876200000E-01
  21   1     6.910324000000E-01  9.700412000000E-02  2.520570400000E-01
  22   1     8.063022300000E-01  3.275672200000E-01  7.520570400000E-01
  23   1     3.089297200000E-01  9.034373100000E-01  2.524652700000E-01
  24   1     4.241995500000E-01  1.340004100000E-01  7.524652700000E-01
  25   1     4.058699900000E-01  9.704998000000E-02  2.525281300000E-01
  26   1     5.211398200000E-01  3.276130800000E-01  7.525281300000E-01
  27   1     5.943122100000E-01  9.033473200000E-01  2.525123600000E-01
  28   1     7.095820400000E-01  1.339104200000E-01  7.525123600000E-01
  29   1     6.910727400000E-01  5.940542100000E-01  2.479430000000E-01
  30   1     8.063425700000E-01  8.246173100000E-01  7.479430000000E-01
  31   1     3.089618300000E-01  4.056093300000E-01  2.475347500000E-01
  32   1     4.242316600000E-01  6.361724300000E-01  7.475347500000E-01
  33   1     4.058405700000E-01  3.088232500000E-01  2.474719000000E-01
  34   1     5.211104000000E-01  5.393863500000E-01  7.474719000000E-01
  35   1     5.942908800000E-01  6.909579300000E-01  2.474876700000E-01
  36   1     7.095607100000E-01  9.215210300000E-01  7.474876700000E-01
  37   6     8.918903100000E-01  4.459436900000E-01  2.492777100000E-01
  38   6     7.160140000000E-03  6.765067900000E-01  7.492777100000E-01
  39   6     9.464891100000E-01  3.927856300000E-01  2.480058000000E-01
  40   6     6.175894000000E-02  6.233487300000E-01  7.480058000000E-01
  41   6     5.338812000000E-02  6.071853000000E-01  2.478959200000E-01
  42   6     1.686579500000E-01  8.377484000000E-01  7.478959200000E-01
  43   6     9.464521100000E-01  5.536921900000E-01  2.482256700000E-01
  44   6     6.172194000000E-02  7.842552900000E-01  7.482256700000E-01
  45   6     5.342634000000E-02  4.462499700000E-01  2.473777100000E-01
  46   6     1.686961700000E-01  6.768130700000E-01  7.473777100000E-01
  47   6     1.080358900000E-01  5.540356300000E-01  2.482413600000E-01
  48   6     2.233057200000E-01  7.845987300000E-01  7.482413600000E-01
  49   6     5.540394200000E-01  1.081684600000E-01  2.507223300000E-01
  50   6     6.693092500000E-01  3.387315600000E-01  7.507223300000E-01
  51   6     6.071778500000E-01  5.355594000000E-02  2.519942200000E-01
  52   6     7.224476800000E-01  2.841190400000E-01  7.519942200000E-01
  53   6     3.927986700000E-01  9.466631600000E-01  2.521041300000E-01
  54   6     5.080685000000E-01  1.772262600000E-01  7.521041300000E-01
  55   6     4.462875800000E-01  5.360286000000E-02  2.517744000000E-01
  56   6     5.615574100000E-01  2.841659600000E-01  7.517744000000E-01
  57   6     5.537168500000E-01  9.466235600000E-01  2.526223000000E-01
  58   6     6.689866800000E-01  1.771866600000E-01  7.526223000000E-01
  59   6     4.459279100000E-01  8.919920600000E-01  2.517586700000E-01
  60   6     5.611977400000E-01  1.225551600000E-01  7.517586800000E-01
  61   6     5.540448700000E-01  4.458745500000E-01  2.492777100000E-01
  62   6     6.693147000000E-01  6.764376500000E-01  7.492777100000E-01
  63   6     6.072102200000E-01  5.536257800000E-01  2.480058200000E-01
  64   6     7.224800500000E-01  7.841888800000E-01  7.480058200000E-01
  65   6     3.928233700000E-01  4.461720300000E-01  2.478959000000E-01
  66   6     5.080932000000E-01  6.767351300000E-01  7.478959000000E-01
  67   6     4.462872600000E-01  3.926899900000E-01  2.482256300000E-01
  68   6     5.615570900000E-01  6.232530900000E-01  7.482256300000E-01
  69   6     5.537429600000E-01  6.070980000000E-01  2.473777400000E-01
  70   6     6.690127900000E-01  8.376611000000E-01  7.473777400000E-01
  71   6     4.459599800000E-01  5.539582300000E-01  2.482413600000E-01
  72   6     5.612298100000E-01  7.845213300000E-01  7.482413600000E-01
  73   8     5.607366800000E-01  2.803706300000E-01  2.496702700000E-01
  74   8     6.760065100000E-01  5.109337300000E-01  7.496702700000E-01
  75   8     7.196817000000E-01  2.803783300000E-01  2.523867700000E-01
  76   8     8.349515300000E-01  5.109414300000E-01  7.523867700000E-01
  77   8     7.196794200000E-01  4.393234600000E-01  2.482884700000E-01
  78   8     8.349492500000E-01  6.698865600000E-01  7.482884700000E-01
  79   8     2.803245100000E-01  7.196511100000E-01  2.496702800000E-01
  80   8     3.955943400000E-01  9.502142100000E-01  7.496702800000E-01
  81   8     2.803439700000E-01  5.606956100000E-01  2.523867600000E-01
  82   8     3.956138000000E-01  7.912587100000E-01  7.523867600000E-01
  83   8     4.392638400000E-01  7.196354200000E-01  2.482884600000E-01
  84   8     5.545336700000E-01  9.501985200000E-01  7.482884600000E-01

 *******************************************************************************

 << INFORMATION >>: FROM NOW ON, ALL COORDINATES REFER TO THE PRIMITIVE CELL

 *******************************************************************************

 LATTICE PARAMETERS  (ANGSTROMS AND DEGREES) - PRIMITIVE CELL
       A          B          C        ALPHA      BETA     GAMMA        VOLUME
   15.02361   15.02392    7.80000    90.00032  89.99994 119.99596   1524.756075

 COORDINATES OF THE EQUIVALENT ATOMS (FRACTIONAL UNITS)

 N. ATOM EQUIV AT. N.          X                  Y                  Z

   1   1   1    5 B    -3.86319460000E-01  2.27318220000E-01  2.50612400000E-01

   2   2   1    5 B    -2.71049630000E-01  4.57881320000E-01 -2.49387600000E-01

   3   3   1    5 B    -2.27263800000E-01  3.86377880000E-01  2.50612410000E-01

   4   4   1    5 B    -1.11993970000E-01 -3.83059020000E-01 -2.49387590000E-01

   5   5   1    5 B    -3.86323730000E-01  3.86360670000E-01  2.49324820000E-01

   6   6   1    5 B    -2.71053900000E-01 -3.83076230000E-01 -2.50675180000E-01

   7   7   1    5 B     2.27255250000E-01 -3.86366780000E-01  2.50612410000E-01

   8   8   1    5 B     3.42525080000E-01 -1.55803680000E-01 -2.49387590000E-01

   9   9   1    5 B     3.86363220000E-01 -3.86387550000E-01  2.50612410000E-01

  10  10   1    5 B    -4.98366950000E-01 -1.55824450000E-01 -2.49387590000E-01

  11  11   1    5 B     3.86343500000E-01 -2.27248350000E-01  2.49324820000E-01

  12  12   1    5 B    -4.98386670000E-01  3.31475000000E-03 -2.50675180000E-01

  13  13   1    1 H    -9.69563800000E-02  3.08930050000E-01  2.47942980000E-01

  14  14   1    1 H     1.83134500000E-02 -4.60506850000E-01 -2.52057020000E-01

  15  15   1    1 H     9.66345300000E-02 -3.08946560000E-01  2.47534780000E-01

  16  16   1    1 H     2.11904360000E-01 -7.83834600000E-02 -2.52465220000E-01

  17  17   1    1 H    -9.70285800000E-02 -4.05927570000E-01  2.47471950000E-01

  18  18   1    1 H     1.82412500000E-02 -1.75364470000E-01 -2.52528050000E-01

  19  19   1    1 H     9.67361800000E-02  4.05684940000E-01  2.47487620000E-01

  20  20   1    1 H     2.12006010000E-01 -3.63751960000E-01 -2.52512380000E-01

  21  21   1    1 H    -3.08967600000E-01  9.70041200000E-02  2.52057040000E-01

  22  22   1    1 H    -1.93697770000E-01  3.27567220000E-01 -2.47942960000E-01

  23  23   1    1 H     3.08929720000E-01 -9.65626900000E-02  2.52465270000E-01

  24  24   1    1 H     4.24199550000E-01  1.34000410000E-01 -2.47534730000E-01

  25  25   1    1 H     4.05869990000E-01  9.70499800000E-02  2.52528130000E-01

  26  26   1    1 H    -4.78860180000E-01  3.27613080000E-01 -2.47471870000E-01

  27  27   1    1 H    -4.05687790000E-01 -9.66526800000E-02  2.52512360000E-01

  28  28   1    1 H    -2.90417960000E-01  1.33910420000E-01 -2.47487640000E-01

  29  29   1    1 H    -3.08927260000E-01 -4.05945790000E-01  2.47943000000E-01

  30  30   1    1 H    -1.93657430000E-01 -1.75382690000E-01 -2.52057000000E-01

  31  31   1    1 H     3.08961830000E-01  4.05609330000E-01  2.47534750000E-01

  32  32   1    1 H     4.24231660000E-01 -3.63827570000E-01 -2.52465250000E-01

  33  33   1    1 H     4.05840570000E-01  3.08823250000E-01  2.47471900000E-01

  34  34   1    1 H    -4.78889600000E-01 -4.60613650000E-01 -2.52528100000E-01

  35  35   1    1 H    -4.05709120000E-01 -3.09042070000E-01  2.47487670000E-01

  36  36   1    1 H    -2.90439290000E-01 -7.84789700000E-02 -2.52512330000E-01

  37  37   1    6 C    -1.08109690000E-01  4.45943690000E-01  2.49277710000E-01

  38  38   1    6 C     7.16014000000E-03 -3.23493210000E-01 -2.50722290000E-01

  39  39   1    6 C    -5.35108900000E-02  3.92785630000E-01  2.48005800000E-01

  40  40   1    6 C     6.17589400000E-02 -3.76651270000E-01 -2.51994200000E-01

  41  41   1    6 C     5.33881200000E-02 -3.92814700000E-01  2.47895920000E-01

  42  42   1    6 C     1.68657950000E-01 -1.62251600000E-01 -2.52104080000E-01

  43  43   1    6 C    -5.35478900000E-02 -4.46307810000E-01  2.48225670000E-01

  44  44   1    6 C     6.17219400000E-02 -2.15744710000E-01 -2.51774330000E-01

  45  45   1    6 C     5.34263400000E-02  4.46249970000E-01  2.47377710000E-01

  46  46   1    6 C     1.68696170000E-01 -3.23186930000E-01 -2.52622290000E-01

  47  47   1    6 C     1.08035890000E-01 -4.45964370000E-01  2.48241360000E-01

  48  48   1    6 C     2.23305720000E-01 -2.15401270000E-01 -2.51758640000E-01

  49  49   1    6 C    -4.45960580000E-01  1.08168460000E-01  2.50722330000E-01

  50  50   1    6 C    -3.30690750000E-01  3.38731560000E-01 -2.49277670000E-01

  51  51   1    6 C    -3.92822150000E-01  5.35559400000E-02  2.51994220000E-01

  52  52   1    6 C    -2.77552320000E-01  2.84119040000E-01 -2.48005780000E-01

  53  53   1    6 C     3.92798670000E-01 -5.33368400000E-02  2.52104130000E-01

  54  54   1    6 C    -4.91931500000E-01  1.77226260000E-01 -2.47895870000E-01

  55  55   1    6 C     4.46287580000E-01  5.36028600000E-02  2.51774400000E-01

  56  56   1    6 C    -4.38442590000E-01  2.84165960000E-01 -2.48225600000E-01

  57  57   1    6 C    -4.46283150000E-01 -5.33764400000E-02  2.52622300000E-01

  58  58   1    6 C    -3.31013320000E-01  1.77186660000E-01 -2.47377700000E-01

  59  59   1    6 C     4.45927910000E-01 -1.08007940000E-01  2.51758670000E-01

  60  60   1    6 C    -4.38802260000E-01  1.22555160000E-01 -2.48241320000E-01

  61  61   1    6 C    -4.45955130000E-01  4.45874550000E-01  2.49277710000E-01

  62  62   1    6 C    -3.30685300000E-01 -3.23562350000E-01 -2.50722290000E-01

  63  63   1    6 C    -3.92789780000E-01 -4.46374220000E-01  2.48005820000E-01

  64  64   1    6 C    -2.77519950000E-01 -2.15811120000E-01 -2.51994180000E-01

  65  65   1    6 C     3.92823370000E-01  4.46172030000E-01  2.47895900000E-01

  66  66   1    6 C    -4.91906800000E-01 -3.23264870000E-01 -2.52104100000E-01

  67  67   1    6 C     4.46287260000E-01  3.92689990000E-01  2.48225630000E-01

  68  68   1    6 C    -4.38442910000E-01 -3.76746910000E-01 -2.51774370000E-01

  69  69   1    6 C    -4.46257040000E-01 -3.92902000000E-01  2.47377740000E-01

  70  70   1    6 C    -3.30987210000E-01 -1.62338900000E-01 -2.52622260000E-01

  71  71   1    6 C     4.45959980000E-01 -4.46041770000E-01  2.48241360000E-01

  72  72   1    6 C    -4.38770190000E-01 -2.15478670000E-01 -2.51758640000E-01

  73  73   1    8 O    -4.39263320000E-01  2.80370630000E-01  2.49670270000E-01

  74  74   1    8 O    -3.23993490000E-01 -4.89066270000E-01 -2.50329730000E-01

  75  75   1    8 O    -2.80318300000E-01  2.80378330000E-01  2.52386770000E-01

  76  76   1    8 O    -1.65048470000E-01 -4.89058570000E-01 -2.47613230000E-01

  77  77   1    8 O    -2.80320580000E-01  4.39323460000E-01  2.48288470000E-01

  78  78   1    8 O    -1.65050750000E-01 -3.30113440000E-01 -2.51711530000E-01

  79  79   1    8 O     2.80324510000E-01 -2.80348890000E-01  2.49670280000E-01

  80  80   1    8 O     3.95594340000E-01 -4.97857900000E-02 -2.50329720000E-01

  81  81   1    8 O     2.80343970000E-01 -4.39304390000E-01  2.52386760000E-01

  82  82   1    8 O     3.95613800000E-01 -2.08741290000E-01 -2.47613240000E-01

  83  83   1    8 O     4.39263840000E-01 -2.80364580000E-01  2.48288460000E-01

  84  84   1    8 O    -4.45466330000E-01 -4.98014800000E-02 -2.51711540000E-01

 NUMBER OF SYMMETRY OPERATORS         :    1
 *******************************************************************************
 * GEOMETRY EDITING - INPUT COORDINATES ARE GIVEN IN ANGSTROM         
 *******************************************************************************

 GCALCO - MAX INDICES DIRECT LATTICE VECTOR    12    12    21
 NO.OF VECTORS CREATED 6999 STARS 3500 RMAX   257.20960 BOHR

 GEOMETRY FOR WAVE FUNCTION - DIMENSIONALITY OF THE SYSTEM    3
 (NON PERIODIC DIRECTION: LATTICE PARAMETER FORMALLY SET TO 500)
 *******************************************************************************
 LATTICE PARAMETERS (ANGSTROMS AND DEGREES) - BOHR = 0.5291772083 ANGSTROM
 PRIMITIVE CELL - CENTRING CODE 1/0 VOLUME=  1524.756075 - DENSITY  0.850 g/cm^3
         A              B              C           ALPHA      BETA       GAMMA 
    15.02361100    15.02391600     7.80000000    90.000323  89.999944 119.995964
 *******************************************************************************
 ATOMS IN THE ASYMMETRIC UNIT   84 - ATOMS IN THE UNIT CELL:   84
     ATOM                 X/A                 Y/B                 Z/C    
 *******************************************************************************
      1 T   5 B    -3.863194600000E-01  2.273182200000E-01  2.506124000000E-01
      2 T   5 B    -2.710496300000E-01  4.578813200000E-01 -2.493876000000E-01
      3 T   5 B    -2.272638000000E-01  3.863778800000E-01  2.506124100000E-01
      4 T   5 B    -1.119939700000E-01 -3.830590200000E-01 -2.493875900000E-01
      5 T   5 B    -3.863237300000E-01  3.863606700000E-01  2.493248200000E-01
      6 T   5 B    -2.710539000000E-01 -3.830762300000E-01 -2.506751800000E-01
      7 T   5 B     2.272552500000E-01 -3.863667800000E-01  2.506124100000E-01
      8 T   5 B     3.425250800000E-01 -1.558036800000E-01 -2.493875900000E-01
      9 T   5 B     3.863632200000E-01 -3.863875500000E-01  2.506124100000E-01
     10 T   5 B    -4.983669500000E-01 -1.558244500000E-01 -2.493875900000E-01
     11 T   5 B     3.863435000000E-01 -2.272483500000E-01  2.493248200000E-01
     12 T   5 B    -4.983866700000E-01  3.314750000000E-03 -2.506751800000E-01
     13 T   1 H    -9.695638000000E-02  3.089300500000E-01  2.479429800000E-01
     14 T   1 H     1.831345000000E-02 -4.605068500000E-01 -2.520570200000E-01
     15 T   1 H     9.663453000000E-02 -3.089465600000E-01  2.475347800000E-01
     16 T   1 H     2.119043600000E-01 -7.838346000000E-02 -2.524652200000E-01
     17 T   1 H    -9.702858000000E-02 -4.059275700000E-01  2.474719500000E-01
     18 T   1 H     1.824125000000E-02 -1.753644700000E-01 -2.525280500000E-01
     19 T   1 H     9.673618000000E-02  4.056849400000E-01  2.474876200000E-01
     20 T   1 H     2.120060100000E-01 -3.637519600000E-01 -2.525123800000E-01
     21 T   1 H    -3.089676000000E-01  9.700412000000E-02  2.520570400000E-01
     22 T   1 H    -1.936977700000E-01  3.275672200000E-01 -2.479429600000E-01
     23 T   1 H     3.089297200000E-01 -9.656269000000E-02  2.524652700000E-01
     24 T   1 H     4.241995500000E-01  1.340004100000E-01 -2.475347300000E-01
     25 T   1 H     4.058699900000E-01  9.704998000000E-02  2.525281300000E-01
     26 T   1 H    -4.788601800000E-01  3.276130800000E-01 -2.474718700000E-01
     27 T   1 H    -4.056877900000E-01 -9.665268000000E-02  2.525123600000E-01
     28 T   1 H    -2.904179600000E-01  1.339104200000E-01 -2.474876400000E-01
     29 T   1 H    -3.089272600000E-01 -4.059457900000E-01  2.479430000000E-01
     30 T   1 H    -1.936574300000E-01 -1.753826900000E-01 -2.520570000000E-01
     31 T   1 H     3.089618300000E-01  4.056093300000E-01  2.475347500000E-01
     32 T   1 H     4.242316600000E-01 -3.638275700000E-01 -2.524652500000E-01
     33 T   1 H     4.058405700000E-01  3.088232500000E-01  2.474719000000E-01
     34 T   1 H    -4.788896000000E-01 -4.606136500000E-01 -2.525281000000E-01
     35 T   1 H    -4.057091200000E-01 -3.090420700000E-01  2.474876700000E-01
     36 T   1 H    -2.904392900000E-01 -7.847897000000E-02 -2.525123300000E-01
     37 T   6 C    -1.081096900000E-01  4.459436900000E-01  2.492777100000E-01
     38 T   6 C     7.160140000000E-03 -3.234932100000E-01 -2.507222900000E-01
     39 T   6 C    -5.351089000000E-02  3.927856300000E-01  2.480058000000E-01
     40 T   6 C     6.175894000000E-02 -3.766512700000E-01 -2.519942000000E-01
     41 T   6 C     5.338812000000E-02 -3.928147000000E-01  2.478959200000E-01
     42 T   6 C     1.686579500000E-01 -1.622516000000E-01 -2.521040800000E-01
     43 T   6 C    -5.354789000000E-02 -4.463078100000E-01  2.482256700000E-01
     44 T   6 C     6.172194000000E-02 -2.157447100000E-01 -2.517743300000E-01
     45 T   6 C     5.342634000000E-02  4.462499700000E-01  2.473777100000E-01
     46 T   6 C     1.686961700000E-01 -3.231869300000E-01 -2.526222900000E-01
     47 T   6 C     1.080358900000E-01 -4.459643700000E-01  2.482413600000E-01
     48 T   6 C     2.233057200000E-01 -2.154012700000E-01 -2.517586400000E-01
     49 T   6 C    -4.459605800000E-01  1.081684600000E-01  2.507223300000E-01
     50 T   6 C    -3.306907500000E-01  3.387315600000E-01 -2.492776700000E-01
     51 T   6 C    -3.928221500000E-01  5.355594000000E-02  2.519942200000E-01
     52 T   6 C    -2.775523200000E-01  2.841190400000E-01 -2.480057800000E-01
     53 T   6 C     3.927986700000E-01 -5.333684000000E-02  2.521041300000E-01
     54 T   6 C    -4.919315000000E-01  1.772262600000E-01 -2.478958700000E-01
     55 T   6 C     4.462875800000E-01  5.360286000000E-02  2.517744000000E-01
     56 T   6 C    -4.384425900000E-01  2.841659600000E-01 -2.482256000000E-01
     57 T   6 C    -4.462831500000E-01 -5.337644000000E-02  2.526223000000E-01
     58 T   6 C    -3.310133200000E-01  1.771866600000E-01 -2.473777000000E-01
     59 T   6 C     4.459279100000E-01 -1.080079400000E-01  2.517586700000E-01
     60 T   6 C    -4.388022600000E-01  1.225551600000E-01 -2.482413200000E-01
     61 T   6 C    -4.459551300000E-01  4.458745500000E-01  2.492777100000E-01
     62 T   6 C    -3.306853000000E-01 -3.235623500000E-01 -2.507222900000E-01
     63 T   6 C    -3.927897800000E-01 -4.463742200000E-01  2.480058200000E-01
     64 T   6 C    -2.775199500000E-01 -2.158111200000E-01 -2.519941800000E-01
     65 T   6 C     3.928233700000E-01  4.461720300000E-01  2.478959000000E-01
     66 T   6 C    -4.919068000000E-01 -3.232648700000E-01 -2.521041000000E-01
     67 T   6 C     4.462872600000E-01  3.926899900000E-01  2.482256300000E-01
     68 T   6 C    -4.384429100000E-01 -3.767469100000E-01 -2.517743700000E-01
     69 T   6 C    -4.462570400000E-01 -3.929020000000E-01  2.473777400000E-01
     70 T   6 C    -3.309872100000E-01 -1.623389000000E-01 -2.526222600000E-01
     71 T   6 C     4.459599800000E-01 -4.460417700000E-01  2.482413600000E-01
     72 T   6 C    -4.387701900000E-01 -2.154786700000E-01 -2.517586400000E-01
     73 T   8 O    -4.392633200000E-01  2.803706300000E-01  2.496702700000E-01
     74 T   8 O    -3.239934900000E-01 -4.890662700000E-01 -2.503297300000E-01
     75 T   8 O    -2.803183000000E-01  2.803783300000E-01  2.523867700000E-01
     76 T   8 O    -1.650484700000E-01 -4.890585700000E-01 -2.476132300000E-01
     77 T   8 O    -2.803205800000E-01  4.393234600000E-01  2.482884700000E-01
     78 T   8 O    -1.650507500000E-01 -3.301134400000E-01 -2.517115300000E-01
     79 T   8 O     2.803245100000E-01 -2.803488900000E-01  2.496702800000E-01
     80 T   8 O     3.955943400000E-01 -4.978579000000E-02 -2.503297200000E-01
     81 T   8 O     2.803439700000E-01 -4.393043900000E-01  2.523867600000E-01
     82 T   8 O     3.956138000000E-01 -2.087412900000E-01 -2.476132400000E-01
     83 T   8 O     4.392638400000E-01 -2.803645800000E-01  2.482884600000E-01
     84 T   8 O    -4.454663300000E-01 -4.980148000000E-02 -2.517115400000E-01

 T = ATOM BELONGING TO THE ASYMMETRIC UNIT

 ****    1 SYMMOPS - TRANSLATORS IN FRACTIONAL UNITS
 **** MATRICES AND TRANSLATORS IN THE CRYSTALLOGRAPHIC REFERENCE FRAME
   V INV                    ROTATION MATRICES                   TRANSLATORS
   1   1  1.00 -0.00  0.00  0.00  1.00  0.00 -0.00 -0.00  1.00  0.00  0.00  0.00

 DIRECT LATTICE VECTORS CARTESIAN COMPONENTS (ANGSTROM)
          X                    Y                    Z
   0.130113578931E+02  -0.751088897922E+01   0.000000000000E+00
   0.000000000000E+00   0.150239160000E+02   0.000000000000E+00
  -0.165804004088E-04  -0.439718251730E-04   0.779999999986E+01


 CARTESIAN COORDINATES - PRIMITIVE CELL
 *******************************************************************************
 *      ATOM          X(ANGSTROM)         Y(ANGSTROM)         Z(ANGSTROM)
 *******************************************************************************
    1     5 B    -5.026544910366E+00  6.316801397236E+00  1.954776719965E+00
    2     5 B    -3.526719607764E+00 -6.108910865535E+00 -1.945223279965E+00
    3     5 B    -2.957014793190E+00  7.511850964288E+00  1.954776797965E+00
    4     5 B    -1.457189490588E+00 -4.913861298483E+00 -1.945223201965E+00
    5     5 B    -5.026600447516E+00 -6.317642065417E+00  1.944733595965E+00
    6     5 B    -3.526775144914E+00 -3.719438328188E+00 -1.955266403965E+00
    7     5 B     2.956895235572E+00 -7.511642020490E+00  1.954776797965E+00
    8     5 B     4.456720538174E+00 -4.913438283261E+00 -1.945223201965E+00
    9     5 B     5.027105976880E+00  6.316919634397E+00  1.954776797965E+00
   10     5 B    -6.484426613575E+00  1.402096350842E+00 -1.945223201965E+00
   11     5 B     5.026849414251E+00 -6.315954221148E+00  1.944733595965E+00
   12     5 B     6.526674716853E+00 -3.717750483919E+00 -1.955266403965E+00
   13     1 H    -1.261538271189E+00  5.369556824577E+00  1.933955243965E+00
   14     1 H     2.382870314129E-01 -7.056155438194E+00 -1.966044755964E+00
   15     1 H     1.257342350432E+00 -5.367409276874E+00  1.930771283965E+00
   16     1 H     2.757167653034E+00 -2.769205539645E+00 -1.969228715964E+00
   17     1 H    -1.262477683419E+00 -5.369861703366E+00  1.930281209965E+00
   18     1 H     2.373476191829E-01 -2.771657966137E+00 -1.969718789964E+00
   19     1 H     1.258664955743E+00  5.368390870289E+00  1.930403435965E+00
   20     1 H     2.758490258345E+00 -7.057321392482E+00 -1.969596563964E+00
   21     1 H    -4.020092200165E+00  3.777992008901E+00  1.966044911964E+00
   22     1 H    -2.520266897563E+00  6.376195746130E+00 -1.933955087965E+00
   23     1 H     4.019590964746E+00 -3.771097673953E+00  1.969229105964E+00
   24     1 H     5.519416267348E+00 -1.172893936724E+00 -1.930770893965E+00
   25     1 H     5.280915510924E+00 -1.590384791687E+00  1.969719413964E+00
   26     1 H     6.780740813526E+00  1.007818945542E+00 -1.930280585965E+00
   27     1 H    -5.278553215289E+00  1.594963101989E+00  1.969596407964E+00
   28     1 H    -3.778727912687E+00  4.193166839218E+00 -1.930403591965E+00
   29     1 H    -4.019567253776E+00 -3.778587999506E+00  1.933955399965E+00
   30     1 H    -2.519741951174E+00 -1.180384262277E+00 -1.966044599964E+00
   31     1 H     4.020008841198E+00  3.773251614236E+00  1.930771049965E+00
   32     1 H    -7.491523749256E+00 -1.141571669319E+00 -1.969228949964E+00
   33     1 H     5.280532800609E+00  1.591500220524E+00  1.930280819965E+00
   34     1 H    -6.230999789846E+00 -3.323323063031E+00 -1.969719179964E+00
   35     1 H    -5.278830664242E+00 -1.595796824455E+00  1.930403825965E+00
   36     1 H    -3.779005361640E+00  1.002406912774E+00 -1.969596173964E+00
   37     6 C    -1.406658001422E+00  7.511809457262E+00  1.944366137965E+00
   38     6 C     9.316730118035E-02 -4.913902805509E+00 -1.955633861965E+00
   39     6 C    -6.962534530014E-01  6.303081759828E+00  1.934445239965E+00
   40     6 C     8.035718496005E-01 -6.122630502943E+00 -1.965554759964E+00
   41     6 C     6.946478263438E-01 -6.302618198930E+00  1.933588175965E+00
   42     6 C     2.194473128946E+00 -3.704414461701E+00 -1.966411823964E+00
   43     6 C    -6.967348768890E-01 -6.303109705658E+00  1.936160225965E+00
   44     6 C     8.030904257130E-01 -3.704905968429E+00 -1.963839773964E+00
   45     6 C     6.951451290346E-01  6.303131878327E+00  1.929546137965E+00
   46     6 C     2.194970431637E+00 -6.122580384444E+00 -1.970453861964E+00
   47     6 C     1.405689514144E+00 -7.511587725059E+00  1.936282607965E+00
   48     6 C     2.905514816746E+00 -4.913383987830E+00 -1.963717391964E+00
   49     6 C     7.208801023405E+00 -2.536225741559E+00  1.955634173965E+00
   50     6 C    -4.302731567050E+00 -7.451049025113E+00 -1.944365825965E+00
   51     6 C    -5.111153760135E+00  3.755052420442E+00  1.965554915964E+00
   52     6 C    -3.611328457533E+00  6.353256157671E+00 -1.934445083965E+00
   53     6 C     5.110839895299E+00 -3.751606490898E+00  1.966412213964E+00
   54     6 C     6.610665197901E+00 -1.153402753669E+00 -1.933587785965E+00
   55     6 C     5.806803252086E+00 -2.546702671163E+00  1.963840319964E+00
   56     6 C     7.306628554688E+00  5.150106606571E-02 -1.936159679965E+00
   57     6 C    -5.806753974870E+00  2.550048933742E+00  1.970453939964E+00
   58     6 C    -4.306928672268E+00  5.148252670971E+00 -1.929546059965E+00
   59     6 C     5.802123457253E+00 -4.972028312925E+00  1.963717625964E+00
   60     6 C     7.301948759855E+00 -2.373824575697E+00 -1.936282295965E+00
   61     6 C     7.208871959258E+00  2.537401316468E+00  1.944366137965E+00
   62     6 C    -4.302660631197E+00 -2.377421967087E+00 -1.955633861965E+00
   63     6 C    -5.110732516351E+00 -3.756099261363E+00  1.934445395965E+00
   64     6 C    -3.610907213749E+00 -1.157895524134E+00 -1.965554603964E+00
   65     6 C     5.111161345613E+00  3.752787479323E+00  1.933588019965E+00
   66     6 C    -6.400371244841E+00 -1.162035804232E+00 -1.966411979964E+00
   67     6 C     5.806799147291E+00  2.547716446168E+00  1.936159913965E+00
   68     6 C    -5.704733443163E+00 -2.367106837386E+00 -1.963840085964E+00
   69     6 C    -5.806414161358E+00 -2.551150438249E+00  1.929546371965E+00
   70     6 C    -4.306588858756E+00  4.705329898006E-02 -1.970453627964E+00
   71     6 C     5.802540789819E+00  4.973055100449E+00  1.936282607965E+00
   72     6 C    -5.708991800635E+00  5.823181689489E-02 -1.963717391964E+00
   73     8 O     7.295941487611E+00  6.228654751916E-04  1.947428105965E+00
   74     8 O    -4.215591102843E+00 -4.914200418079E+00 -1.952571893965E+00
   75     8 O    -3.647325909947E+00  6.317809010376E+00  1.968616805964E+00
   76     8 O    -2.147500607345E+00 -6.107903252395E+00 -1.931383193965E+00
   77     8 O    -3.647355507891E+00 -6.318111402858E+00  1.936650065965E+00
   78     8 O    -2.147530205289E+00 -3.719907665629E+00 -1.963349933964E+00
   79     8 O     3.647398386173E+00 -6.317435425274E+00  1.947428183965E+00
   80     8 O     5.147223688774E+00 -3.719231688045E+00 -1.952571815965E+00
   81     8 O     3.647651542157E+00  6.318200213639E+00  1.968616727964E+00
   82     8 O     5.147476844759E+00 -6.107512049131E+00 -1.931383271965E+00
   83     8 O    -7.295942978060E+00 -5.577725998786E-04  1.936649987965E+00
   84     8 O    -5.796117675458E+00  2.597645964629E+00 -1.963350011964E+00

 *******************************************************************************
 STARTING BASIS SET HANDLING 
 *******************************************************************************

 Loading internal basis set: SOLDEF2MSVP         

 Please cite in your publication:
 L. Dona', J. G. Brandenburg and B. Civalleri, J. Chem. Phys., 151, 121101 (2019
 )                                                                              
                                                                                
                    

 *******************************************************************************
 LOCAL ATOMIC FUNCTIONS BASIS SET
 *******************************************************************************
   ATOM   X(AU)   Y(AU)   Z(AU)  N. TYPE  EXPONENT  S COEF   P COEF   D/F/G COEF
 *******************************************************************************
   1 B   -9.499  11.937   3.694
                                  1 S  
                                         2.410E+03 1.755E-03 0.000E+00 0.000E+00
                                         3.619E+02 1.344E-02 0.000E+00 0.000E+00
                                         8.231E+01 6.637E-02 0.000E+00 0.000E+00
                                         2.311E+01 2.303E-01 0.000E+00 0.000E+00
                                         7.252E+00 5.150E-01 0.000E+00 0.000E+00
                                  2 S  
                                         2.367E+00 1.000E+00 0.000E+00 0.000E+00
                                  3 S  
                                         5.533E-01 1.000E+00 0.000E+00 0.000E+00
                                  4 S  
                                         1.716E-01 1.000E+00 0.000E+00 0.000E+00
                           5-     7 P  
                                         6.002E+00 0.000E+00-3.555E-02 0.000E+00
                                         1.240E+00 0.000E+00-1.983E-01 0.000E+00
                                         3.367E-01 0.000E+00-5.048E-01 0.000E+00
                           8-    10 P  
                                         1.256E-01 0.000E+00 1.000E+00 0.000E+00
                          11-    15 D  
                                         8.880E-01 0.000E+00 0.000E+00 1.000E+00
   2 B   -6.665 -11.544  -3.676
   3 B   -5.588  14.195   3.694
   4 B   -2.754  -9.286  -3.676
   5 B   -9.499 -11.939   3.675
   6 B   -6.665  -7.029  -3.695
   7 B    5.588 -14.195   3.694
   8 B    8.422  -9.285  -3.676
   9 B    9.500  11.937   3.694
  10 B  -12.254   2.650  -3.676
  11 B    9.499 -11.935   3.675
  12 B   12.334  -7.026  -3.695
  13 H   -2.384  10.147   3.655
                                181 S  
                                         1.874E+01 1.968E-02 0.000E+00 0.000E+00
                                         2.826E+00 1.380E-01 0.000E+00 0.000E+00
                                         6.401E-01 4.783E-01 0.000E+00 0.000E+00
                                182 S  
                                         1.756E-01 1.000E+00 0.000E+00 0.000E+00
  14 H    0.450 -13.334  -3.715
  15 H    2.376 -10.143   3.649
  16 H    5.210  -5.233  -3.721
  17 H   -2.386 -10.148   3.648
  18 H    0.449  -5.238  -3.722
  19 H    2.379  10.145   3.648
  20 H    5.213 -13.336  -3.722
  21 H   -7.597   7.139   3.715
  22 H   -4.763  12.049  -3.655
  23 H    7.596  -7.126   3.721
  24 H   10.430  -2.216  -3.649
  25 H    9.979  -3.005   3.722
  26 H   12.814   1.905  -3.648
  27 H   -9.975   3.014   3.722
  28 H   -7.141   7.924  -3.648
  29 H   -7.596  -7.140   3.655
  30 H   -4.762  -2.231  -3.715
  31 H    7.597   7.130   3.649
  32 H  -14.157  -2.157  -3.721
  33 H    9.979   3.007   3.648
  34 H  -11.775  -6.280  -3.722
  35 H   -9.976  -3.016   3.648
  36 H   -7.141   1.894  -3.722
  37 C   -2.658  14.195   3.674
                                229 S  
                                         3.624E+03 1.634E-03 0.000E+00 0.000E+00
                                         5.440E+02 1.252E-02 0.000E+00 0.000E+00
                                         1.237E+02 6.211E-02 0.000E+00 0.000E+00
                                         3.476E+01 2.182E-01 0.000E+00 0.000E+00
                                         1.093E+01 4.980E-01 0.000E+00 0.000E+00
                                230 S  
                                         3.574E+00 1.000E+00 0.000E+00 0.000E+00
                                231 S  
                                         7.742E-01 1.000E+00 0.000E+00 0.000E+00
                                232 S  
                                         2.330E-01 1.000E+00 0.000E+00 0.000E+00
                         233-   235 P  
                                         9.443E+00 0.000E+00 3.790E-02 0.000E+00
                                         2.002E+00 0.000E+00 2.082E-01 0.000E+00
                                         5.463E-01 0.000E+00 5.047E-01 0.000E+00
                         236-   238 P  
                                         1.820E-01 0.000E+00 1.000E+00 0.000E+00
                         239-   243 D  
                                         8.880E-01 0.000E+00 0.000E+00 1.000E+00
  38 C    0.176  -9.286  -3.696
  39 C   -1.316  11.911   3.656
  40 C    1.519 -11.570  -3.714
  41 C    1.313 -11.910   3.654
  42 C    4.147  -7.000  -3.716
  43 C   -1.317 -11.911   3.659
  44 C    1.518  -7.001  -3.711
  45 C    1.314  11.911   3.646
  46 C    4.148 -11.570  -3.724
  47 C    2.656 -14.195   3.659
  48 C    5.491  -9.285  -3.711
  49 C   13.623  -4.793   3.696
  50 C   -8.131 -14.080  -3.674
  51 C   -9.659   7.096   3.714
  52 C   -6.824  12.006  -3.656
  53 C    9.658  -7.090   3.716
  54 C   12.492  -2.180  -3.654
  55 C   10.973  -4.813   3.711
  56 C   13.808   0.097  -3.659
  57 C  -10.973   4.819   3.724
  58 C   -8.139   9.729  -3.646
  59 C   10.964  -9.396   3.711
  60 C   13.799  -4.486  -3.659
  61 C   13.623   4.795   3.674
  62 C   -8.131  -4.493  -3.696
  63 C   -9.658  -7.098   3.656
  64 C   -6.824  -2.188  -3.714
  65 C    9.659   7.092   3.654
  66 C  -12.095  -2.196  -3.716
  67 C   10.973   4.814   3.659
  68 C  -10.780  -4.473  -3.711
  69 C  -10.973  -4.821   3.646
  70 C   -8.138   0.089  -3.724
  71 C   10.965   9.398   3.659
  72 C  -10.788   0.110  -3.711
  73 O   13.787   0.001   3.680
                                769 S  
                                         6.773E+03 1.727E-03 0.000E+00 0.000E+00
                                         1.017E+03 1.325E-02 0.000E+00 0.000E+00
                                         2.313E+02 6.603E-02 0.000E+00 0.000E+00
                                         6.501E+01 2.353E-01 0.000E+00 0.000E+00
                                         2.050E+01 5.498E-01 0.000E+00 0.000E+00
                                770 S  
                                         6.716E+00 1.000E+00 0.000E+00 0.000E+00
                                771 S  
                                         1.147E+00 1.000E+00 0.000E+00 0.000E+00
                                772 S  
                                         3.342E-01 1.000E+00 0.000E+00 0.000E+00
                         773-   775 P  
                                         1.769E+01 0.000E+00 4.359E-02 0.000E+00
                                         3.854E+00 0.000E+00 2.318E-01 0.000E+00
                                         1.047E+00 0.000E+00 5.146E-01 0.000E+00
                         776-   778 P  
                                         2.759E-01 0.000E+00 1.000E+00 0.000E+00
                         779-   783 D  
                                         8.000E-01 0.000E+00 0.000E+00 1.000E+00
  74 O   -7.966  -9.286  -3.690
  75 O   -6.892  11.939   3.720
  76 O   -4.058 -11.542  -3.650
  77 O   -6.893 -11.940   3.660
  78 O   -4.058  -7.030  -3.710
  79 O    6.893 -11.938   3.680
  80 O    9.727  -7.028  -3.690
  81 O    6.893  11.940   3.720
  82 O    9.727 -11.542  -3.650
  83 O  -13.787  -0.001   3.660
  84 O  -10.953   4.909  -3.710

 *******************************************************************************
 FINISHED BASIS SET HANDLING 
 *******************************************************************************

 INFORMATION **** SET_MPP **** PCRYSTAL CALCULATION
 INFORMATION **** READM2 **** NEW DEFAULT: FOCK/KS MATRIX MIXING SET TO 30 %
 INFORMATION **** READM2 **** NEW DEFAULT: FULL DIRECT SCF MODE
 INFORMATION **** READM2 **** NEW DEFAULT: COULOMB BIPOLAR BUFFER SET TO 32 Mb
 INFORMATION **** READM2 **** NEW DEFAULT: EXCHANGE BIPOLAR BUFFER SET TO 32 Mb

 *******************************************************************************
 NEW DEFAULT: DFT INTEGRATION GRID INCREASED TO XLGRID
 NEW DEFAULT: DIIS ACCELERATOR ACTIVE
 USE KEYWORD NODIIS TO TURN IT OFF
 *******************************************************************************

 WARNING **** RDDFTP **** HSEsol-HJS ACTIVE
 RANGE SEPARATION - OMEGA:   0.110000000000000     
 WARNING **** RDDFTP **** HSEsol-3c has to be combined with sol-def2-mSVP basis set
 *******************************************************************************
 N. OF ATOMS PER CELL        84  COULOMB OVERLAP TOL         (T1) 10**   -6
 NUMBER OF SHELLS           468  COULOMB PENETRATION TOL     (T2) 10**   -6
 NUMBER OF AO               948  EXCHANGE OVERLAP TOL        (T3) 10**   -6
 N. OF ELECTRONS PER CELL   396  EXCHANGE PSEUDO OVP (F(G))  (T4) 10**   -6
 CORE ELECTRONS PER CELL    120  EXCHANGE PSEUDO OVP (P(G))  (T5) 10**  -12
 N. OF SYMMETRY OPERATORS     1  POLE ORDER IN MONO ZONE                  4
 *******************************************************************************
 TYPE OF CALCULATION :  RESTRICTED CLOSED SHELL
 KOHN-SHAM HAMILTONIAN

 (EXCHANGE)[CORRELATION] FUNCTIONAL:(HSEsol GGA)[PBEsol]

 RANGE-SEPARATED HYBRID FUNCTIONAL 
 OMEGA (SHORT-RANGE)[LONG-RANGE]:(    0.1100)[    0.0000]

 HYBRID EXCHANGE - PERCENTAGE OF FOCK EXCHANGE    25.0000

 CAPPA:IS1  2;IS2  2;IS3  8; K PTS MONK NET  20; SYMMOPS:K SPACE   2;G SPACE   1

 *******************************************************************************
 MAX NUMBER OF SCF CYCLES      50  CONVERGENCE ON DELTAP        10**-16
 WEIGHT OF F(I) IN F(I+1)      30% CONVERGENCE ON ENERGY        10**- 6
 SHRINK. FACT.(MONKH.)    2  2  8  NUMBER OF K POINTS IN THE IBZ     20
 SHRINKING FACTOR(GILAT NET)    8  NUMBER OF K POINTS(GILAT NET)   1028
 *******************************************************************************
 *** K POINTS COORDINATES (OBLIQUE COORDINATES IN UNITS OF IS =  2)
   1-R(  0  0  0)   2-R(  1  0  0)   3-R(  0  1  0)   4-R(  1  1  0)
   5-C(  0  0  1)   6-C(  1  0  1)   7-C(  0  1  1)   8-C(  1  1  1)
   9-C(  0  0  2)  10-C(  1  0  2)  11-C(  0  1  2)  12-C(  1  1  2)
  13-C(  0  0  3)  14-C(  1  0  3)  15-C(  0  1  3)  16-C(  1  1  3)
  17-R(  0  0  4)  18-R(  1  0  4)  19-R(  0  1  4)  20-R(  1  1  4)

 DIRECT LATTICE VECTORS COMPON. (A.U.)     RECIP. LATTICE VECTORS COMPON. (A.U.) 
        X            Y            Z              X            Y            Z
   24.5879030  -14.1935232    0.0000000      0.2555397    0.0000000    0.0000005
    0.0000000   28.3910867    0.0000000      0.1277517    0.2213084    0.0000015
   -0.0000313   -0.0000831   14.7398638      0.0000000    0.0000000    0.4262716

 DISK SPACE FOR EIGENVECTORS (FTN 10)    28758528 REALS

 SYMMETRY ADAPTION OF THE BLOCH FUNCTIONS DISABLED
 TTTTTTTTTTTTTTTTTTTTTTTTTTTTTT gordsh1     TELAPSE        0.05 TCPU        0.05

 MATRIX SIZE: P(G)  666496, F(G)  136762, P(G) IRR  335186, F(G) IRR  137794
 MAX G-VECTOR INDEX FOR 1- AND 2-ELECTRON INTEGRALS  43

 TTTTTTTTTTTTTTTTTTTTTTTTTTTTTT INPUT       TELAPSE        2.65 TCPU        2.64

 NEIGHBORS OF THE NON-EQUIVALENT ATOMS

 N = NUMBER OF NEIGHBORS AT DISTANCE R
    ATOM  N     R/ANG      R/AU   NEIGHBORS (ATOM LABELS AND CELL INDICES)
   1 B    1     1.3791     2.6061   73 O   -1 0 0
   1 B    1     1.3793     2.6065   75 O    0 0 0
   1 B    1     1.5503     2.9297   49 C   -1 0 0
   1 B    1     2.3895     4.5155    5 B    0 1 0
   1 B    1     2.3898     4.5160    3 B    0 0 0
   1 B    1     2.5632     4.8437   51 C    0 0 0

   2 B    1     1.3791     2.6061   74 O    0 0 0
   2 B    1     1.3793     2.6065   76 O    0 0 0
   2 B    1     1.5503     2.9297   50 C    0 0 0
   2 B    1     2.3895     4.5155    6 B    0 0 0
   2 B    1     2.3898     4.5160    4 B    0 0 0
   2 B    1     2.5632     4.8437   52 C    0-1 0

   3 B    1     1.3793     2.6065   77 O    0 1 0
   3 B    1     1.3793     2.6065   75 O    0 0 0
   3 B    1     1.5504     2.9298   37 C    0 0 0
   3 B    1     2.3895     4.5156    5 B    0 1 0
   3 B    1     2.3898     4.5160    1 B    0 0 0
   3 B    1     2.5634     4.8440   43 C    0 1 0

   4 B    1     1.3793     2.6065   78 O    0 0 0
   4 B    1     1.3793     2.6065   76 O    0 0 0
   4 B    1     1.5504     2.9298   38 C    0 0 0
   4 B    1     2.3895     4.5156    6 B    0 0 0
   4 B    1     2.3898     4.5160    2 B    0 0 0
   4 B    1     2.5634     4.8440   44 C    0 0 0

   5 B    1     1.3791     2.6061   73 O   -1-1 0
   5 B    1     1.3793     2.6064   77 O    0 0 0
   5 B    1     1.5502     2.9294   61 C   -1-1 0
   5 B    1     2.3895     4.5155    1 B    0-1 0
   5 B    1     2.3895     4.5156    3 B    0-1 0
   5 B    1     2.5629     4.8433   63 C    0 0 0

   6 B    1     1.3791     2.6061   74 O    0 0 0
   6 B    1     1.3793     2.6064   78 O    0 0 0
   6 B    1     1.5502     2.9294   62 C    0 0 0
   6 B    1     2.3895     4.5155    2 B    0 0 0
   6 B    1     2.3895     4.5156    4 B    0 0 0
   6 B    1     2.5629     4.8433   64 C    0 0 0

   7 B    1     1.3795     2.6068   79 O    0 0 0
   7 B    1     1.3795     2.6070   81 O    0-1 0
   7 B    1     1.5513     2.9316   47 C    0 0 0
   7 B    1     2.3905     4.5174   11 B    0 0 0
   7 B    1     2.3905     4.5175    9 B    0-1 0
   7 B    1     2.5648     4.8468   45 C    0-1 0

   8 B    1     1.3795     2.6068   80 O    0 0 0
   8 B    1     1.3795     2.6070   82 O    0 0 0
   8 B    1     1.5513     2.9316   48 C    0 0 0
   8 B    1     2.3905     4.5174   12 B    0 0 0
   8 B    1     2.3905     4.5175   10 B    1 0 0
   8 B    1     2.5648     4.8468   46 C    0 0 0

   9 B    1     1.3795     2.6069   81 O    0 0 0
   9 B    1     1.3797     2.6072   83 O    1 1 0
   9 B    1     1.5516     2.9322   71 C    0 0 0
   9 B    1     2.3905     4.5175    7 B    0 1 0
   9 B    1     2.3911     4.5185   11 B    0 1 0
   9 B    1     2.5651     4.8473   69 C    1 1 0

  10 B    1     1.3795     2.6069   82 O   -1 0 0
  10 B    1     1.3797     2.6072   84 O    0 0 0
  10 B    1     1.5516     2.9322   72 C    0 0 0
  10 B    1     2.3905     4.5175    8 B   -1 0 0
  10 B    1     2.3911     4.5185   12 B   -1 0 0
  10 B    1     2.5651     4.8473   70 C    0 0 0

  11 B    1     1.3795     2.6068   79 O    0 0 0
  11 B    1     1.3796     2.6071   83 O    1 0 0
  11 B    1     1.5516     2.9322   59 C    0 0 0
  11 B    1     2.3905     4.5174    7 B    0 0 0
  11 B    1     2.3911     4.5185    9 B    0-1 0
  11 B    1     2.5651     4.8473   57 C    1 0 0

  12 B    1     1.3795     2.6068   80 O    0 0 0
  12 B    1     1.3796     2.6071   84 O    1 0 0
  12 B    1     1.5516     2.9322   60 C    0 0 0
  12 B    1     2.3905     4.5174    8 B    0 0 0
  12 B    1     2.3911     4.5185   10 B    1 0 0
  12 B    1     2.5651     4.8473   58 C    1 0 0

  13 H    1     1.0913     2.0623   39 C    0 0 0
  13 H    1     2.1472     4.0576   37 C    0 0 0
  13 H    1     2.1680     4.0969   45 C    0 0 0
  13 H    1     2.5202     4.7625   19 H    0 0 0
  13 H    1     2.5676     4.8520   75 O    0 0 0
  13 H    1     2.7321     5.1630    3 B    0 0 0

  14 H    1     1.0913     2.0623   40 C    0 0 0
  14 H    1     2.1472     4.0576   38 C    0 0 0
  14 H    1     2.1680     4.0969   46 C    0 0 0
  14 H    1     2.5202     4.7625   20 H    0 0 0
  14 H    1     2.5676     4.8520   76 O    0 0 0
  14 H    1     2.7321     5.1630    4 B    0 0 0

  15 H    1     1.0914     2.0625   41 C    0 0 0
  15 H    1     2.1493     4.0616   47 C    0 0 0
  15 H    1     2.1666     4.0942   43 C    0 0 0
  15 H    1     2.5198     4.7618   17 H    0 0 0
  15 H    1     2.5720     4.8604   79 O    0 0 0
  15 H    1     2.7362     5.1707    7 B    0 0 0

  16 H    1     1.0914     2.0625   42 C    0 0 0
  16 H    1     2.1493     4.0616   48 C    0 0 0
  16 H    1     2.1666     4.0942   44 C    0 0 0
  16 H    1     2.5198     4.7618   18 H    0 0 0
  16 H    1     2.5720     4.8604   80 O    0 0 0
  16 H    1     2.7362     5.1707    8 B    0 0 0

  17 H    1     1.0914     2.0624   43 C    0 0 0
  17 H    1     2.1471     4.0575   37 C    0-1 0
  17 H    1     2.1680     4.0970   41 C    0 0 0
  17 H    1     2.5198     4.7618   15 H    0 0 0
  17 H    1     2.5665     4.8500   77 O    0 0 0
  17 H    1     2.7315     5.1618    3 B    0-1 0

  18 H    1     1.0914     2.0624   44 C    0 0 0
  18 H    1     2.1471     4.0575   38 C    0 0 0
  18 H    1     2.1680     4.0970   42 C    0 0 0
  18 H    1     2.5198     4.7618   16 H    0 0 0
  18 H    1     2.5665     4.8500   78 O    0 0 0
  18 H    1     2.7315     5.1618    4 B    0 0 0

  19 H    1     1.0915     2.0626   45 C    0 0 0
  19 H    1     2.1490     4.0610   47 C    0 1 0
  19 H    1     2.1669     4.0948   39 C    0 0 0
  19 H    1     2.5202     4.7625   13 H    0 0 0
  19 H    1     2.5712     4.8588   81 O    0 0 0
  19 H    1     2.7351     5.1686    7 B    0 1 0

  20 H    1     1.0915     2.0626   46 C    0 0 0
  20 H    1     2.1490     4.0610   48 C    0 0 0
  20 H    1     2.1669     4.0948   40 C    0 0 0
  20 H    1     2.5202     4.7625   14 H    0 0 0
  20 H    1     2.5712     4.8588   82 O    0 0 0
  20 H    1     2.7351     5.1686    8 B    0 0 0

  21 H    1     1.0913     2.0623   51 C    0 0 0
  21 H    1     2.1469     4.0571   49 C   -1 0 0
  21 H    1     2.1680     4.0968   57 C    0 0 0
  21 H    1     2.5198     4.7617   27 H    0 0 0
  21 H    1     2.5670     4.8510   75 O    0 0 0
  21 H    1     2.7310     5.1609    1 B    0 0 0

  22 H    1     1.0913     2.0623   52 C    0 0 0
  22 H    1     2.1469     4.0571   50 C    0 1 0
  22 H    1     2.1680     4.0968   58 C    0 0 0
  22 H    1     2.5198     4.7617   28 H    0 0 0
  22 H    1     2.5670     4.8510   76 O    0 1 0
  22 H    1     2.7310     5.1609    2 B    0 1 0

  23 H    1     1.0914     2.0625   53 C    0 0 0
  23 H    1     2.1493     4.0617   59 C    0 0 0
  23 H    1     2.1664     4.0939   55 C    0 0 0
  23 H    1     2.5192     4.7606   25 H    0 0 0
  23 H    1     2.5735     4.8632   79 O    0 0 0
  23 H    1     2.7371     5.1723   11 B    0 0 0

  24 H    1     1.0914     2.0625   54 C    0 0 0
  24 H    1     2.1493     4.0617   60 C    0 0 0
  24 H    1     2.1664     4.0939   56 C    0 0 0
  24 H    1     2.5192     4.7606   26 H    0 0 0
  24 H    1     2.5735     4.8632   80 O    0 0 0
  24 H    1     2.7371     5.1723   12 B    0 0 0

  25 H    1     1.0914     2.0624   55 C    0 0 0
  25 H    1     2.1475     4.0581   49 C    0 0 0
  25 H    1     2.1679     4.0967   53 C    0 0 0
  25 H    1     2.5192     4.7606   23 H    0 0 0
  25 H    1     2.5675     4.8519   73 O    0 0 0
  25 H    1     2.7328     5.1643    1 B    1 0 0

  26 H    1     1.0914     2.0624   56 C    0 0 0
  26 H    1     2.1475     4.0581   50 C    1 1 0
  26 H    1     2.1679     4.0967   54 C    0 0 0
  26 H    1     2.5192     4.7606   24 H    0 0 0
  26 H    1     2.5675     4.8519   74 O    1 1 0
  26 H    1     2.7328     5.1643    2 B    1 1 0

  27 H    1     1.0914     2.0625   57 C    0 0 0
  27 H    1     2.1491     4.0612   59 C   -1 0 0
  27 H    1     2.1666     4.0942   51 C    0 0 0
  27 H    1     2.5198     4.7617   21 H    0 0 0
  27 H    1     2.5723     4.8609   83 O    0 0 0
  27 H    1     2.7355     5.1693   11 B   -1 0 0

  28 H    1     1.0914     2.0625   58 C    0 0 0
  28 H    1     2.1491     4.0612   60 C   -1 0 0
  28 H    1     2.1666     4.0942   52 C    0 0 0
  28 H    1     2.5198     4.7617   22 H    0 0 0
  28 H    1     2.5723     4.8609   84 O    0 0 0
  28 H    1     2.7355     5.1693   12 B   -1 0 0

  29 H    1     1.0914     2.0624   63 C    0 0 0
  29 H    1     2.1475     4.0582   61 C   -1-1 0
  29 H    1     2.1678     4.0966   69 C    0 0 0
  29 H    1     2.5200     4.7621   35 H    0 0 0
  29 H    1     2.5667     4.8503   77 O    0 0 0
  29 H    1     2.7315     5.1618    5 B    0 0 0

  30 H    1     1.0914     2.0624   64 C    0 0 0
  30 H    1     2.1475     4.0582   62 C    0 0 0
  30 H    1     2.1678     4.0966   70 C    0 0 0
  30 H    1     2.5200     4.7621   36 H    0 0 0
  30 H    1     2.5667     4.8503   78 O    0 0 0
  30 H    1     2.7315     5.1618    6 B    0 0 0

  31 H    1     1.0913     2.0623   65 C    0 0 0
  31 H    1     2.1487     4.0605   71 C    0 0 0
  31 H    1     2.1667     4.0945   67 C    0 0 0
  31 H    1     2.5197     4.7616   33 H    0 0 0
  31 H    1     2.5723     4.8610   81 O    0 0 0
  31 H    1     2.7359     5.1701    9 B    0 0 0

  32 H    1     1.0913     2.0623   66 C    0 0 0
  32 H    1     2.1487     4.0605   72 C    0 0 0
  32 H    1     2.1667     4.0945   68 C    0 0 0
  32 H    1     2.5197     4.7616   34 H    0 0 0
  32 H    1     2.5723     4.8610   82 O   -1 0 0
  32 H    1     2.7359     5.1701   10 B    0 0 0

  33 H    1     1.0915     2.0626   67 C    0 0 0
  33 H    1     2.1479     4.0589   61 C    0 0 0
  33 H    1     2.1679     4.0968   65 C    0 0 0
  33 H    1     2.5197     4.7616   31 H    0 0 0
  33 H    1     2.5677     4.8522   73 O    0 0 0
  33 H    1     2.7331     5.1648    5 B    1 1 0

  34 H    1     1.0915     2.0626   68 C    0 0 0
  34 H    1     2.1479     4.0589   62 C    0 0 0
  34 H    1     2.1679     4.0968   66 C    0 0 0
  34 H    1     2.5197     4.7616   32 H    0 0 0
  34 H    1     2.5677     4.8522   74 O    0 0 0
  34 H    1     2.7331     5.1648    6 B    0 0 0

  35 H    1     1.0914     2.0624   69 C    0 0 0
  35 H    1     2.1486     4.0602   71 C   -1-1 0
  35 H    1     2.1668     4.0947   63 C    0 0 0
  35 H    1     2.5200     4.7621   29 H    0 0 0
  35 H    1     2.5717     4.8598   83 O    0 0 0
  35 H    1     2.7349     5.1682    9 B   -1-1 0

  36 H    1     1.0914     2.0624   70 C    0 0 0
  36 H    1     2.1486     4.0602   72 C    0 0 0
  36 H    1     2.1668     4.0947   64 C    0 0 0
  36 H    1     2.5200     4.7621   30 H    0 0 0
  36 H    1     2.5717     4.8598   84 O    0 0 0
  36 H    1     2.7349     5.1682   10 B    0 0 0

  37 C    1     1.4020     2.6495   43 C    0 1 0
  37 C    1     1.4021     2.6495   39 C    0 0 0
  37 C    1     1.5504     2.9298    3 B    0 0 0
  37 C    1     2.1471     4.0575   17 H    0 1 0
  37 C    1     2.1472     4.0576   13 H    0 0 0
  37 C    1     2.4246     4.5817   41 C    0 1 0

  38 C    1     1.4020     2.6495   44 C    0 0 0
  38 C    1     1.4021     2.6495   40 C    0 0 0
  38 C    1     1.5504     2.9298    4 B    0 0 0
  38 C    1     2.1471     4.0575   18 H    0 0 0
  38 C    1     2.1472     4.0576   14 H    0 0 0
  38 C    1     2.4246     4.5817   42 C    0 0 0

  39 C    1     1.0913     2.0623   13 H    0 0 0
  39 C    1     1.3914     2.6294   45 C    0 0 0
  39 C    1     1.4021     2.6495   37 C    0 0 0
  39 C    1     2.1669     4.0948   19 H    0 0 0
  39 C    1     2.4177     4.5688   43 C    0 1 0
  39 C    1     2.4250     4.5825   47 C    0 1 0

  40 C    1     1.0913     2.0623   14 H    0 0 0
  40 C    1     1.3914     2.6294   46 C    0 0 0
  40 C    1     1.4021     2.6495   38 C    0 0 0
  40 C    1     2.1669     4.0948   20 H    0 0 0
  40 C    1     2.4177     4.5688   44 C    0 0 0
  40 C    1     2.4250     4.5825   48 C    0 0 0

  41 C    1     1.0914     2.0625   15 H    0 0 0
  41 C    1     1.3914     2.6293   43 C    0 0 0
  41 C    1     1.4026     2.6505   47 C    0 0 0
  41 C    1     2.1680     4.0970   17 H    0 0 0
  41 C    1     2.4182     4.5697   45 C    0-1 0
  41 C    1     2.4246     4.5817   37 C    0-1 0

  42 C    1     1.0914     2.0625   16 H    0 0 0
  42 C    1     1.3914     2.6293   44 C    0 0 0
  42 C    1     1.4026     2.6505   48 C    0 0 0
  42 C    1     2.1680     4.0970   18 H    0 0 0
  42 C    1     2.4182     4.5697   46 C    0 0 0
  42 C    1     2.4246     4.5817   38 C    0 0 0

  43 C    1     1.0914     2.0624   17 H    0 0 0
  43 C    1     1.3914     2.6293   41 C    0 0 0
  43 C    1     1.4020     2.6495   37 C    0-1 0
  43 C    1     2.1666     4.0942   15 H    0 0 0
  43 C    1     2.4177     4.5688   39 C    0-1 0
  43 C    1     2.4250     4.5826   47 C    0 0 0

  44 C    1     1.0914     2.0624   18 H    0 0 0
  44 C    1     1.3914     2.6293   42 C    0 0 0
  44 C    1     1.4020     2.6495   38 C    0 0 0
  44 C    1     2.1666     4.0942   16 H    0 0 0
  44 C    1     2.4177     4.5688   40 C    0 0 0
  44 C    1     2.4250     4.5826   48 C    0 0 0

  45 C    1     1.0915     2.0626   19 H    0 0 0
  45 C    1     1.3914     2.6294   39 C    0 0 0
  45 C    1     1.4025     2.6504   47 C    0 1 0
  45 C    1     2.1680     4.0969   13 H    0 0 0
  45 C    1     2.4182     4.5697   41 C    0 1 0
  45 C    1     2.4246     4.5818   37 C    0 0 0

  46 C    1     1.0915     2.0626   20 H    0 0 0
  46 C    1     1.3914     2.6294   40 C    0 0 0
  46 C    1     1.4025     2.6504   48 C    0 0 0
  46 C    1     2.1680     4.0969   14 H    0 0 0
  46 C    1     2.4182     4.5697   42 C    0 0 0
  46 C    1     2.4246     4.5818   38 C    0 0 0

  47 C    1     1.4025     2.6504   45 C    0-1 0
  47 C    1     1.4026     2.6505   41 C    0 0 0
  47 C    1     1.5513     2.9316    7 B    0 0 0
  47 C    1     2.1490     4.0610   19 H    0-1 0
  47 C    1     2.1493     4.0616   15 H    0 0 0
  47 C    1     2.4250     4.5825   39 C    0-1 0

  48 C    1     1.4025     2.6504   46 C    0 0 0
  48 C    1     1.4026     2.6505   42 C    0 0 0
  48 C    1     1.5513     2.9316    8 B    0 0 0
  48 C    1     2.1490     4.0610   20 H    0 0 0
  48 C    1     2.1493     4.0616   16 H    0 0 0
  48 C    1     2.4250     4.5825   40 C    0 0 0

  49 C    1     1.4020     2.6494   51 C    1 0 0
  49 C    1     1.4021     2.6495   55 C    0 0 0
  49 C    1     1.5503     2.9297    1 B    1 0 0
  49 C    1     2.1469     4.0571   21 H    1 0 0
  49 C    1     2.1475     4.0581   25 H    0 0 0
  49 C    1     2.4246     4.5818   53 C    0 0 0

  50 C    1     1.4020     2.6494   52 C    0-1 0
  50 C    1     1.4021     2.6495   56 C   -1-1 0
  50 C    1     1.5503     2.9297    2 B    0 0 0
  50 C    1     2.1469     4.0571   22 H    0-1 0
  50 C    1     2.1475     4.0581   26 H   -1-1 0
  50 C    1     2.4246     4.5818   54 C   -1-1 0

  51 C    1     1.0913     2.0623   21 H    0 0 0
  51 C    1     1.3914     2.6293   57 C    0 0 0
  51 C    1     1.4020     2.6494   49 C   -1 0 0
  51 C    1     2.1666     4.0942   27 H    0 0 0
  51 C    1     2.4175     4.5684   55 C   -1 0 0
  51 C    1     2.4251     4.5828   59 C   -1 0 0

  52 C    1     1.0913     2.0623   22 H    0 0 0
  52 C    1     1.3914     2.6293   58 C    0 0 0
  52 C    1     1.4020     2.6494   50 C    0 1 0
  52 C    1     2.1666     4.0942   28 H    0 0 0
  52 C    1     2.4175     4.5684   56 C   -1 0 0
  52 C    1     2.4251     4.5828   60 C   -1 0 0

  53 C    1     1.0914     2.0625   23 H    0 0 0
  53 C    1     1.3915     2.6295   55 C    0 0 0
  53 C    1     1.4026     2.6505   59 C    0 0 0
  53 C    1     2.1679     4.0967   25 H    0 0 0
  53 C    1     2.4179     4.5691   57 C    1 0 0
  53 C    1     2.4246     4.5818   49 C    0 0 0

  54 C    1     1.0914     2.0625   24 H    0 0 0
  54 C    1     1.3915     2.6295   56 C    0 0 0
  54 C    1     1.4026     2.6505   60 C    0 0 0
  54 C    1     2.1679     4.0967   26 H    0 0 0
  54 C    1     2.4179     4.5691   58 C    1 0 0
  54 C    1     2.4246     4.5818   50 C    1 1 0

  55 C    1     1.0914     2.0624   25 H    0 0 0
  55 C    1     1.3915     2.6295   53 C    0 0 0
  55 C    1     1.4021     2.6495   49 C    0 0 0
  55 C    1     2.1664     4.0939   23 H    0 0 0
  55 C    1     2.4175     4.5684   51 C    1 0 0
  55 C    1     2.4253     4.5832   59 C    0 0 0

  56 C    1     1.0914     2.0624   26 H    0 0 0
  56 C    1     1.3915     2.6295   54 C    0 0 0
  56 C    1     1.4021     2.6495   50 C    1 1 0
  56 C    1     2.1664     4.0939   24 H    0 0 0
  56 C    1     2.4175     4.5684   52 C    1 0 0
  56 C    1     2.4253     4.5832   60 C    0 0 0

  57 C    1     1.0914     2.0625   27 H    0 0 0
  57 C    1     1.3914     2.6293   51 C    0 0 0
  57 C    1     1.4025     2.6504   59 C   -1 0 0
  57 C    1     2.1680     4.0968   21 H    0 0 0
  57 C    1     2.4179     4.5691   53 C   -1 0 0
  57 C    1     2.4247     4.5819   49 C   -1 0 0

  58 C    1     1.0914     2.0625   28 H    0 0 0
  58 C    1     1.3914     2.6293   52 C    0 0 0
  58 C    1     1.4025     2.6504   60 C   -1 0 0
  58 C    1     2.1680     4.0968   22 H    0 0 0
  58 C    1     2.4179     4.5691   54 C   -1 0 0
  58 C    1     2.4247     4.5819   50 C    0 1 0

  59 C    1     1.4025     2.6504   57 C    1 0 0
  59 C    1     1.4026     2.6505   53 C    0 0 0
  59 C    1     1.5516     2.9322   11 B    0 0 0
  59 C    1     2.1491     4.0612   27 H    1 0 0
  59 C    1     2.1493     4.0617   23 H    0 0 0
  59 C    1     2.4251     4.5828   51 C    1 0 0

  60 C    1     1.4025     2.6504   58 C    1 0 0
  60 C    1     1.4026     2.6505   54 C    0 0 0
  60 C    1     1.5516     2.9322   12 B    0 0 0
  60 C    1     2.1491     4.0612   28 H    1 0 0
  60 C    1     2.1493     4.0617   24 H    0 0 0
  60 C    1     2.4251     4.5828   52 C    1 0 0

  61 C    1     1.4021     2.6496   63 C    1 1 0
  61 C    1     1.4021     2.6497   67 C    0 0 0
  61 C    1     1.5502     2.9294    5 B    1 1 0
  61 C    1     2.1475     4.0582   29 H    1 1 0
  61 C    1     2.1479     4.0589   33 H    0 0 0
  61 C    1     2.4244     4.5814   65 C    0 0 0

  62 C    1     1.4021     2.6496   64 C    0 0 0
  62 C    1     1.4021     2.6497   68 C    0 0 0
  62 C    1     1.5502     2.9294    6 B    0 0 0
  62 C    1     2.1475     4.0582   30 H    0 0 0
  62 C    1     2.1479     4.0589   34 H    0 0 0
  62 C    1     2.4244     4.5814   66 C    0 0 0

  63 C    1     1.0914     2.0624   29 H    0 0 0
  63 C    1     1.3914     2.6293   69 C    0 0 0
  63 C    1     1.4021     2.6496   61 C   -1-1 0
  63 C    1     2.1668     4.0947   35 H    0 0 0
  63 C    1     2.4179     4.5692   67 C   -1-1 0
  63 C    1     2.4251     4.5827   71 C   -1-1 0

  64 C    1     1.0914     2.0624   30 H    0 0 0
  64 C    1     1.3914     2.6293   70 C    0 0 0
  64 C    1     1.4021     2.6496   62 C    0 0 0
  64 C    1     2.1668     4.0947   36 H    0 0 0
  64 C    1     2.4179     4.5692   68 C    0 0 0
  64 C    1     2.4251     4.5827   72 C    0 0 0

  65 C    1     1.0913     2.0623   31 H    0 0 0
  65 C    1     1.3914     2.6294   67 C    0 0 0
  65 C    1     1.4025     2.6504   71 C    0 0 0
  65 C    1     2.1679     4.0968   33 H    0 0 0
  65 C    1     2.4178     4.5690   69 C    1 1 0
  65 C    1     2.4244     4.5814   61 C    0 0 0

  66 C    1     1.0913     2.0623   32 H    0 0 0
  66 C    1     1.3914     2.6294   68 C    0 0 0
  66 C    1     1.4025     2.6504   72 C    0 0 0
  66 C    1     2.1679     4.0968   34 H    0 0 0
  66 C    1     2.4178     4.5690   70 C    0 0 0
  66 C    1     2.4244     4.5814   62 C    0 0 0

  67 C    1     1.0915     2.0626   33 H    0 0 0
  67 C    1     1.3914     2.6294   65 C    0 0 0
  67 C    1     1.4021     2.6497   61 C    0 0 0
  67 C    1     2.1667     4.0945   31 H    0 0 0
  67 C    1     2.4179     4.5692   63 C    1 1 0
  67 C    1     2.4253     4.5832   71 C    0 0 0

  68 C    1     1.0915     2.0626   34 H    0 0 0
  68 C    1     1.3914     2.6294   66 C    0 0 0
  68 C    1     1.4021     2.6497   62 C    0 0 0
  68 C    1     2.1667     4.0945   32 H    0 0 0
  68 C    1     2.4179     4.5692   64 C    0 0 0
  68 C    1     2.4253     4.5832   72 C    0 0 0

  69 C    1     1.0914     2.0624   35 H    0 0 0
  69 C    1     1.3914     2.6293   63 C    0 0 0
  69 C    1     1.4025     2.6503   71 C   -1-1 0
  69 C    1     2.1678     4.0966   29 H    0 0 0
  69 C    1     2.4178     4.5690   65 C   -1-1 0
  69 C    1     2.4245     4.5817   61 C   -1-1 0

  70 C    1     1.0914     2.0624   36 H    0 0 0
  70 C    1     1.3914     2.6293   64 C    0 0 0
  70 C    1     1.4025     2.6503   72 C    0 0 0
  70 C    1     2.1678     4.0966   30 H    0 0 0
  70 C    1     2.4178     4.5690   66 C    0 0 0
  70 C    1     2.4245     4.5817   62 C    0 0 0

  71 C    1     1.4025     2.6503   69 C    1 1 0
  71 C    1     1.4025     2.6504   65 C    0 0 0
  71 C    1     1.5516     2.9322    9 B    0 0 0
  71 C    1     2.1486     4.0602   35 H    1 1 0
  71 C    1     2.1487     4.0605   31 H    0 0 0
  71 C    1     2.4251     4.5827   63 C    1 1 0

  72 C    1     1.4025     2.6503   70 C    0 0 0
  72 C    1     1.4025     2.6504   66 C    0 0 0
  72 C    1     1.5516     2.9322   10 B    0 0 0
  72 C    1     2.1486     4.0602   36 H    0 0 0
  72 C    1     2.1487     4.0605   32 H    0 0 0
  72 C    1     2.4251     4.5827   64 C    0 0 0

  73 O    1     1.3791     2.6061    1 B    1 0 0
  73 O    1     1.3791     2.6061    5 B    1 1 0
  73 O    1     2.3880     4.5126   75 O    1 0 0
  73 O    1     2.3882     4.5130   77 O    1 1 0
  73 O    1     2.5383     4.7966   61 C    0 0 0
  73 O    1     2.5384     4.7968   49 C    0 0 0

  74 O    1     1.3791     2.6061    2 B    0 0 0
  74 O    1     1.3791     2.6061    6 B    0 0 0
  74 O    1     2.3880     4.5126   76 O    0 0 0
  74 O    1     2.3882     4.5130   78 O    0 0 0
  74 O    1     2.5383     4.7966   62 C    0 0 0
  74 O    1     2.5384     4.7968   50 C    0 0 0

  75 O    1     1.3793     2.6065    1 B    0 0 0
  75 O    1     1.3793     2.6065    3 B    0 0 0
  75 O    1     2.3880     4.5126   73 O   -1 0 0
  75 O    1     2.3882     4.5131   77 O    0 1 0
  75 O    1     2.5391     4.7981   37 C    0 0 0
  75 O    1     2.5395     4.7990   49 C   -1 0 0

  76 O    1     1.3793     2.6065    2 B    0 0 0
  76 O    1     1.3793     2.6065    4 B    0 0 0
  76 O    1     2.3880     4.5126   74 O    0 0 0
  76 O    1     2.3882     4.5131   78 O    0 0 0
  76 O    1     2.5391     4.7981   38 C    0 0 0
  76 O    1     2.5395     4.7990   50 C    0 0 0

  77 O    1     1.3793     2.6064    5 B    0 0 0
  77 O    1     1.3793     2.6065    3 B    0-1 0
  77 O    1     2.3882     4.5130   73 O   -1-1 0
  77 O    1     2.3882     4.5131   75 O    0-1 0
  77 O    1     2.5390     4.7980   37 C    0-1 0
  77 O    1     2.5391     4.7982   61 C   -1-1 0

  78 O    1     1.3793     2.6064    6 B    0 0 0
  78 O    1     1.3793     2.6065    4 B    0 0 0
  78 O    1     2.3882     4.5130   74 O    0 0 0
  78 O    1     2.3882     4.5131   76 O    0 0 0
  78 O    1     2.5390     4.7980   38 C    0 0 0
  78 O    1     2.5391     4.7982   62 C    0 0 0

  79 O    1     1.3795     2.6068   11 B    0 0 0
  79 O    1     1.3795     2.6068    7 B    0 0 0
  79 O    1     2.3880     4.5126   83 O    1 0 0
  79 O    1     2.3884     4.5134   81 O    0-1 0
  79 O    1     2.5400     4.7998   47 C    0 0 0
  79 O    1     2.5403     4.8005   59 C    0 0 0

  80 O    1     1.3795     2.6068   12 B    0 0 0
  80 O    1     1.3795     2.6068    8 B    0 0 0
  80 O    1     2.3880     4.5126   84 O    1 0 0
  80 O    1     2.3884     4.5134   82 O    0 0 0
  80 O    1     2.5400     4.7998   48 C    0 0 0
  80 O    1     2.5403     4.8005   60 C    0 0 0

  81 O    1     1.3795     2.6069    9 B    0 0 0
  81 O    1     1.3795     2.6070    7 B    0 1 0
  81 O    1     2.3881     4.5128   83 O    1 1 0
  81 O    1     2.3884     4.5134   79 O    0 1 0
  81 O    1     2.5404     4.8006   47 C    0 1 0
  81 O    1     2.5405     4.8008   71 C    0 0 0

  82 O    1     1.3795     2.6069   10 B    1 0 0
  82 O    1     1.3795     2.6070    8 B    0 0 0
  82 O    1     2.3881     4.5128   84 O    1 0 0
  82 O    1     2.3884     4.5134   80 O    0 0 0
  82 O    1     2.5404     4.8006   48 C    0 0 0
  82 O    1     2.5405     4.8008   72 C    1 0 0

  83 O    1     1.3796     2.6071   11 B   -1 0 0
  83 O    1     1.3797     2.6072    9 B   -1-1 0
  83 O    1     2.3880     4.5126   79 O   -1 0 0
  83 O    1     2.3881     4.5128   81 O   -1-1 0
  83 O    1     2.5409     4.8016   71 C   -1-1 0
  83 O    1     2.5410     4.8019   59 C   -1 0 0

  84 O    1     1.3796     2.6071   12 B   -1 0 0
  84 O    1     1.3797     2.6072   10 B    0 0 0
  84 O    1     2.3880     4.5126   80 O   -1 0 0
  84 O    1     2.3881     4.5128   82 O   -1 0 0
  84 O    1     2.5409     4.8016   72 C    0 0 0
  84 O    1     2.5410     4.8019   60 C   -1 0 0


 SYMMETRY ALLOWED INTERNAL DEGREE(S) OF FREEDOM: 249
 TTTTTTTTTTTTTTTTTTTTTTTTTTTTTT SYMM        TELAPSE        2.65 TCPU        2.65
 TTTTTTTTTTTTTTTTTTTTTTTTTTTTTT INT_SCREEN  TELAPSE        2.86 TCPU        2.85

 DFT PARAMETERS

     ATOM       ELECTRONS   NET CHARGE   R(ANGSTROM)
   1   5  B       5.0000      0.0000     0.89000000
  13   1  H       1.0000      0.0000     1.11000000
  37   6  C       6.0000      0.0000     0.77000000
  73   8  O       8.0000      0.0000     0.74000000

 SIZE OF GRID=    2610364
 TTTTTTTTTTTTTTTTTTTTTTTTTTTTTT MAKE_GRID2  TELAPSE       22.48 TCPU       22.45
 BECKE WEIGHT FUNCTION
 RADSAFE =     2.00
 TOLERANCES - DENSITY:10**- 6; POTENTIAL:10**- 9; GRID WGT:10**-14

 RADIAL INTEGRATION  - INTERVALS (POINTS,UPPER LIMIT):            1( 75,  4.0*R)

 ANGULAR INTEGRATION - INTERVALS (ACCURACY LEVEL [N. POINTS] UPPER LIMIT):
  1(  4[  86]   0.2)  2(  8[ 194]   0.5)  3( 12[ 350]   0.9)  4( 16[ 974]   3.5)
  5( 12[ 350]9999.0)
 TTTTTTTTTTTTTTTTTTTTTTTTTTTTTT INT_CALC    TELAPSE       22.73 TCPU       22.70
 EEEEEEEEEE INT_CALC TERMINATION  DATE 19 02 2026 TIME 20:21:30.3

 *******************************************************************************
 cof-1_z39_L030_serr                                                             
 CRYSTAL - SCF - TYPE OF CALCULATION :  RESTRICTED CLOSED SHELL
 *******************************************************************************

 CAPPA:IS1  2;IS2  2;IS3  8; K PTS MONK NET  20; SYMMOPS:K SPACE   2;G SPACE   1

 TTTTTTTTTTTTTTTTTTTTTTTTTTTTTT SDIK        TELAPSE       25.23 TCPU       50.59

 AAAAAAAAAAAAAAAAAAAAAAAAAAAAAAAAAAAAAAAAAAAAAAAAAAAAAAAAAAAAAAAAAAAAAAAAAAAAAAA
         ATOMIC WAVEFUNCTION(S)


 NUCLEAR CHARGE  5.0  SYMMETRY SPECIES            S    P
 N. ELECTRONS    5.0  NUMBER OF PRIMITIVE GTOS    8    4
                      NUMBER OF CONTRACTED GTOS   4    2
                      NUMBER OF CLOSED SHELLS     2    0
                      OPEN SHELL OCCUPATION       0    1

  ZNUC  SCFIT    TOTAL HF ENERGY   KINETIC ENERGY   VIRIAL THEOREM ACCURACY
   5.0    11    -2.451164084E+01  2.462155050E+01 -1.995536038E+00  1.5E-06

 NUCLEAR CHARGE  1.0  SYMMETRY SPECIES            S
 N. ELECTRONS    1.0  NUMBER OF PRIMITIVE GTOS    4
                      NUMBER OF CONTRACTED GTOS   2
                      NUMBER OF CLOSED SHELLS     0
                      OPEN SHELL OCCUPATION       1

  ZNUC  SCFIT    TOTAL HF ENERGY   KINETIC ENERGY   VIRIAL THEOREM ACCURACY
   1.0     1    -4.977266687E-01  5.190767460E-01 -1.958869132E+00  0.0E+00

 NUCLEAR CHARGE  6.0  SYMMETRY SPECIES            S    P
 N. ELECTRONS    6.0  NUMBER OF PRIMITIVE GTOS    8    4
                      NUMBER OF CONTRACTED GTOS   4    2
                      NUMBER OF CLOSED SHELLS     2    0
                      OPEN SHELL OCCUPATION       0    2

  ZNUC  SCFIT    TOTAL HF ENERGY   KINETIC ENERGY   VIRIAL THEOREM ACCURACY
   6.0     9    -3.766704647E+01  3.775180683E+01 -1.997754800E+00  1.1E-06

 NUCLEAR CHARGE  8.0  SYMMETRY SPECIES            S    P
 N. ELECTRONS    8.0  NUMBER OF PRIMITIVE GTOS    8    4
                      NUMBER OF CONTRACTED GTOS   4    2
                      NUMBER OF CLOSED SHELLS     2    0
                      OPEN SHELL OCCUPATION       0    4

  ZNUC  SCFIT    TOTAL HF ENERGY   KINETIC ENERGY   VIRIAL THEOREM ACCURACY
   8.0    12    -7.477373220E+01  7.477365593E+01 -2.000001020E+00  3.8E-06

 AAAAAAAAAAAAAAAAAAAAAAAAAAAAAAAAAAAAAAAAAAAAAAAAAAAAAAAAAAAAAAAAAAAAAAAAAAAAAAA

 CHARGE NORMALIZATION FACTOR   1.00000000
 TOTAL ATOMIC CHARGES:
   5.0000000   5.0000000   5.0000000   5.0000000   5.0000000   5.0000000
   5.0000000   5.0000000   5.0000000   5.0000000   5.0000000   5.0000000
   1.0000000   1.0000000   1.0000000   1.0000000   1.0000000   1.0000000
   1.0000000   1.0000000   1.0000000   1.0000000   1.0000000   1.0000000
   1.0000000   1.0000000   1.0000000   1.0000000   1.0000000   1.0000000
   1.0000000   1.0000000   1.0000000   1.0000000   1.0000000   1.0000000
   6.0000000   6.0000000   6.0000000   6.0000000   6.0000000   6.0000000
   6.0000000   6.0000000   6.0000000   6.0000000   6.0000000   6.0000000
   6.0000000   6.0000000   6.0000000   6.0000000   6.0000000   6.0000000
   6.0000000   6.0000000   6.0000000   6.0000000   6.0000000   6.0000000
   6.0000000   6.0000000   6.0000000   6.0000000   6.0000000   6.0000000
   6.0000000   6.0000000   6.0000000   6.0000000   6.0000000   6.0000000
   8.0000000   8.0000000   8.0000000   8.0000000   8.0000000   8.0000000
   8.0000000   8.0000000   8.0000000   8.0000000   8.0000000   8.0000000
 TTTTTTTTTTTTTTTTTTTTTTTTTTTTTT MOQGAD      TELAPSE       25.33 TCPU       52.60
 TTTTTTTTTTTTTTTTTTTTTTTTTTTTTT SHELLXN     TELAPSE       42.15 TCPU      582.94
 TTTTTTTTTTTTTTTTTTTTTTTTTTTTTT MONMO3      TELAPSE       42.72 TCPU      601.40
 NUMERICALLY INTEGRATED DENSITY    395.9999873367
 TTTTTTTTTTTTTTTTTTTTTTTTTTTTTT NUMDFT      TELAPSE       44.24 TCPU      649.76
 CYC   0 ETOT(AU) -2.591915838717E+03 DETOT -2.59E+03 tst  0.00E+00 PX  1.00E+00
 TTTTTTTTTTTTTTTTTTTTTTTTTTTTTT DIIS        TELAPSE       44.37 TCPU      654.02
 TTTTTTTTTTTTTTTTTTTTTTTTTTTTTT FDIK        TELAPSE       46.37 TCPU      717.75
 INSULATING STATE
 TOP OF VALENCE BANDS -    BAND    198; K    3; EIG -3.1137895E-01 AU
 TOP OF VALENCE BANDS -    BAND    198; K    1; EIG -3.1140443E-01 AU
 BOTTOM OF VIRTUAL BANDS - BAND    199; K    1; EIG -1.5935974E-01 AU
 INDIRECT ENERGY BAND GAP:   4.1367 eV
 TTTTTTTTTTTTTTTTTTTTTTTTTTTTTT PDIG        TELAPSE       47.93 TCPU      724.55
 CHARGE NORMALIZATION FACTOR   1.00000000
 TOTAL ATOMIC CHARGES:
   4.1613344   4.1414231   4.1585549   4.1654674   4.1587999   4.1657323
   4.1653192   4.1584232   4.1651047   4.1582042   4.1411205   4.1609647
   0.7852803   0.7853479   0.7854630   0.7853955   0.7848321   0.7851144
   0.7852330   0.7849555   0.7855879   0.7859052   0.7860681   0.7857530
   0.7855779   0.7858951   0.7860316   0.7857155   0.7848375   0.7851164
   0.7852979   0.7850210   0.7852330   0.7853001   0.7854568   0.7853893
   6.0438297   6.0439467   6.2665132   6.2661367   6.2661042   6.2664791
   6.2652938   6.2648067   6.2647493   6.2652427   6.0432176   6.0430908
   6.0444604   6.0509190   6.2657529   6.2653353   6.2654142   6.2658240
   6.2656645   6.2652502   6.2654236   6.2658346   6.0496595   6.0432161
   6.0441813   6.0443117   6.2650696   6.2645731   6.2651236   6.2656140
   6.2661406   6.2657615   6.2663804   6.2667553   6.0427542   6.0426168
   8.6943487   8.6948614   8.6944553   8.6949789   8.6981771   8.6910144
   8.6952860   8.6947731   8.6914311   8.6985627   8.6954545   8.6949532
 TTTTTTTTTTTTTTTTTTTTTTTTTTTTTT MOQGAD      TELAPSE       48.02 TCPU      724.64
 TTTTTTTTTTTTTTTTTTTTTTTTTTTTTT SHELLXN     TELAPSE       65.21 TCPU     1272.50
 TTTTTTTTTTTTTTTTTTTTTTTTTTTTTT MONMO3      TELAPSE       65.79 TCPU     1291.03
 NUMERICALLY INTEGRATED DENSITY    396.0000022442
 TTTTTTTTTTTTTTTTTTTTTTTTTTTTTT NUMDFT      TELAPSE       67.35 TCPU     1340.91
 CYC   1 ETOT(AU) -2.577640867208E+03 DETOT  1.43E+01 tst  0.00E+00 PX  1.00E+00
 TTTTTTTTTTTTTTTTTTTTTTTTTTTTTT DIIS        TELAPSE       67.49 TCPU     1345.47
 DIIS TEST: 0.22086E+01 AT SCF   CYCLE   1 - MIX   30 %
 TTTTTTTTTTTTTTTTTTTTTTTTTTTTTT FDIK        TELAPSE       69.56 TCPU     1411.72
 INSULATING STATE
 TOP OF VALENCE BANDS -    BAND    198; K    1; EIG -2.1982499E-01 AU
 BOTTOM OF VIRTUAL BANDS - BAND    199; K    1; EIG -8.0926744E-02 AU
 DIRECT ENERGY BAND GAP:   3.7796 eV
 TTTTTTTTTTTTTTTTTTTTTTTTTTTTTT PDIG        TELAPSE       71.11 TCPU     1418.52
 CHARGE NORMALIZATION FACTOR   1.00000000
 TOTAL ATOMIC CHARGES:
   4.6672163   4.6930348   4.6988901   4.7049729   4.6988878   4.7049819
   4.7052047   4.6992597   4.7051544   4.6992431   4.6933657   4.6673154
   0.9125577   0.9068641   0.9069710   0.9125746   0.9182608   0.9157661
   0.9158119   0.9182933   0.9123107   0.9023533   0.9023542   0.9124607
   0.9123062   0.9023199   0.9023416   0.9124116   0.9182502   0.9157554
   0.9158838   0.9183619   0.9124971   0.9068043   0.9069831   0.9125631
   5.8676282   5.8649865   6.1464989   6.0998880   6.1003430   6.1469441
   6.1383342   6.1478718   6.1484964   6.1391740   5.8677340   5.8703622
   5.8472182   5.9181845   6.1308491   6.1480479   6.1488266   6.1315116
   6.1310358   6.1482122   6.1487515   6.1314351   5.9214626   5.8503050
   5.8675374   5.8649675   6.1384383   6.1479281   6.1483653   6.1390686
   6.1467209   6.1000831   6.1000576   6.1466589   5.8679615   5.8705825
   8.3330661   8.3315227   8.3334371   8.3318634   8.3580268   8.3410446
   8.3314070   8.3328787   8.3407819   8.3578640   8.3318049   8.3332482
 TTTTTTTTTTTTTTTTTTTTTTTTTTTTTT MOQGAD      TELAPSE       71.20 TCPU     1418.61
 TTTTTTTTTTTTTTTTTTTTTTTTTTTTTT SHELLXN     TELAPSE       88.54 TCPU     1971.54
 TTTTTTTTTTTTTTTTTTTTTTTTTTTTTT MONMO3      TELAPSE       89.12 TCPU     1989.99
 NUMERICALLY INTEGRATED DENSITY    396.0000082994
 TTTTTTTTTTTTTTTTTTTTTTTTTTTTTT NUMDFT      TELAPSE       90.64 TCPU     2038.51
 CYC   2 ETOT(AU) -2.578028517933E+03 DETOT -3.88E-01 tst  4.37E-03 PX  1.59E-01
 TTTTTTTTTTTTTTTTTTTTTTTTTTTTTT DIIS        TELAPSE       90.83 TCPU     2044.46
 DIIS TEST: 0.91897E+00 AT SCF   CYCLE   2 - DIIS ACTIVE - HISTORY:     2 CYCLES
 TTTTTTTTTTTTTTTTTTTTTTTTTTTTTT FDIK        TELAPSE       92.76 TCPU     2106.10
 INSULATING STATE
 TOP OF VALENCE BANDS -    BAND    198; K    1; EIG -2.3381974E-01 AU
 BOTTOM OF VIRTUAL BANDS - BAND    199; K    1; EIG -7.7348016E-02 AU
 DIRECT ENERGY BAND GAP:   4.2578 eV
 TTTTTTTTTTTTTTTTTTTTTTTTTTTTTT PDIG        TELAPSE       94.31 TCPU     2112.90
 CHARGE NORMALIZATION FACTOR   1.00000000
 TOTAL ATOMIC CHARGES:
   4.4823693   4.4762059   4.4913465   4.5021394   4.4914793   4.5022400
   4.5017636   4.4909304   4.5015724   4.4907558   4.4756318   4.4818714
   0.8937294   0.8803189   0.8803535   0.8939813   0.8917856   0.8938034
   0.8939219   0.8918488   0.8876490   0.8847325   0.8850944   0.8877520
   0.8876926   0.8847431   0.8850343   0.8876598   0.8917834   0.8938069
   0.8939738   0.8919156   0.8937261   0.8803269   0.8803092   0.8939238
   5.8856715   5.8964903   6.1555316   6.1696856   6.1692303   6.1551230
   6.1637285   6.1538549   6.1531088   6.1627099   5.8953393   5.8843860
   5.9193710   5.8974632   6.1668394   6.1555090   6.1548361   6.1664359
   6.1669124   6.1555820   6.1547671   6.1663794   5.8957462   5.9180918
   5.8859419   5.8968493   6.1637327   6.1537745   6.1532666   6.1628162
   6.1554361   6.1695606   6.1692033   6.1551526   5.8950628   5.8840798
   8.5165376   8.5143829   8.5166877   8.5145531   8.5169139   8.5075684
   8.5145039   8.5168254   8.5077577   8.5167069   8.5146942   8.5170266
 TTTTTTTTTTTTTTTTTTTTTTTTTTTTTT MOQGAD      TELAPSE       94.40 TCPU     2112.99
 TTTTTTTTTTTTTTTTTTTTTTTTTTTTTT SHELLXN     TELAPSE      111.69 TCPU     2664.38
 TTTTTTTTTTTTTTTTTTTTTTTTTTTTTT MONMO3      TELAPSE      112.27 TCPU     2682.83
 NUMERICALLY INTEGRATED DENSITY    396.0000073088
 TTTTTTTTTTTTTTTTTTTTTTTTTTTTTT NUMDFT      TELAPSE      113.84 TCPU     2732.79
 CYC   3 ETOT(AU) -2.578217698399E+03 DETOT -1.89E-01 tst  6.41E-04 PX  6.58E-02
 TTTTTTTTTTTTTTTTTTTTTTTTTTTTTT DIIS        TELAPSE      114.07 TCPU     2739.83
 DIIS TEST: 0.31394E-01 AT SCF   CYCLE   3 - DIIS ACTIVE - HISTORY:     3 CYCLES
 TTTTTTTTTTTTTTTTTTTTTTTTTTTTTT FDIK        TELAPSE      116.08 TCPU     2803.84
 INSULATING STATE
 TOP OF VALENCE BANDS -    BAND    198; K    1; EIG -2.4328987E-01 AU
 BOTTOM OF VIRTUAL BANDS - BAND    199; K    1; EIG -8.5470660E-02 AU
 DIRECT ENERGY BAND GAP:   4.2945 eV
 TTTTTTTTTTTTTTTTTTTTTTTTTTTTTT PDIG        TELAPSE      117.62 TCPU     2810.63
 CHARGE NORMALIZATION FACTOR   1.00000000
 TOTAL ATOMIC CHARGES:
   4.4833833   4.4876801   4.4994250   4.5031726   4.4995505   4.5032650
   4.5033767   4.4997114   4.5031858   4.4995526   4.4877866   4.4833082
   0.8720392   0.8700548   0.8702206   0.8720190   0.8773910   0.8739037
   0.8739357   0.8773945   0.8730473   0.8649354   0.8648530   0.8732950
   0.8730836   0.8649347   0.8647999   0.8732095   0.8774074   0.8739110
   0.8739922   0.8774413   0.8720206   0.8700359   0.8701949   0.8719729
   5.9406623   5.9316651   6.1763647   6.1425429   6.1431836   6.1768244
   6.1688466   6.1743768   6.1755380   6.1705982   5.9350233   5.9440145
   5.9125201   5.9886285   6.1573674   6.1809571   6.1820931   6.1582433
   6.1573245   6.1809383   6.1821496   6.1582991   5.9921073   5.9155216
   5.9406327   5.9317417   6.1687938   6.1742698   6.1756420   6.1707328
   6.1762707   6.1424275   6.1431885   6.1768479   5.9350758   5.9440518
   8.4774074   8.4796598   8.4776944   8.4799285   8.4995530   8.4829884
   8.4798155   8.4773214   8.4829157   8.4999584   8.4801630   8.4776382
 TTTTTTTTTTTTTTTTTTTTTTTTTTTTTT MOQGAD      TELAPSE      117.72 TCPU     2810.73
 TTTTTTTTTTTTTTTTTTTTTTTTTTTTTT SHELLXN     TELAPSE      134.92 TCPU     3359.15
 TTTTTTTTTTTTTTTTTTTTTTTTTTTTTT MONMO3      TELAPSE      135.50 TCPU     3377.68
 NUMERICALLY INTEGRATED DENSITY    396.0000071235
 TTTTTTTTTTTTTTTTTTTTTTTTTTTTTT NUMDFT      TELAPSE      137.07 TCPU     3427.67
 CYC   4 ETOT(AU) -2.578223715336E+03 DETOT -6.02E-03 tst  6.05E-05 PX  2.22E-02
 TTTTTTTTTTTTTTTTTTTTTTTTTTTTTT DIIS        TELAPSE      137.30 TCPU     3434.47
 DIIS TEST: 0.11201E-01 AT SCF   CYCLE   4 - DIIS ACTIVE - HISTORY:     4 CYCLES
 TTTTTTTTTTTTTTTTTTTTTTTTTTTTTT FDIK        TELAPSE      139.36 TCPU     3499.81
 INSULATING STATE
 TOP OF VALENCE BANDS -    BAND    198; K    1; EIG -2.4206913E-01 AU
 BOTTOM OF VIRTUAL BANDS - BAND    199; K    1; EIG -8.5293079E-02 AU
 DIRECT ENERGY BAND GAP:   4.2661 eV
 TTTTTTTTTTTTTTTTTTTTTTTTTTTTTT PDIG        TELAPSE      140.91 TCPU     3506.60
 CHARGE NORMALIZATION FACTOR   1.00000000
 TOTAL ATOMIC CHARGES:
   4.4832897   4.4884153   4.4999067   4.5077506   4.5000231   4.5078426
   4.5075718   4.4997557   4.5073917   4.4996033   4.4880961   4.4829942
   0.8772320   0.8687399   0.8688080   0.8774523   0.8790618   0.8777356
   0.8779067   0.8791858   0.8729094   0.8688635   0.8691935   0.8730440
   0.8729341   0.8688560   0.8691496   0.8729661   0.8790605   0.8777367
   0.8779655   0.8792538   0.8772067   0.8687240   0.8687827   0.8774123
   5.9188276   5.9269700   6.1690132   6.1589217   6.1585263   6.1687343
   6.1712692   6.1700849   6.1691647   6.1700124   5.9256993   5.9174866
   5.9357213   5.9426385   6.1728923   6.1679234   6.1673466   6.1725177
   6.1730096   6.1680164   6.1672671   6.1724355   5.9412614   5.9347003
   5.9190029   5.9272448   6.1712791   6.1700222   6.1692591   6.1700830
   6.1690011   6.1588707   6.1584432   6.1686890   5.9255413   5.9173028
   8.4896618   8.4876371   8.4898546   8.4878404   8.4982608   8.4876869
   8.4876395   8.4898701   8.4877221   8.4978399   8.4878838   8.4901027
 TTTTTTTTTTTTTTTTTTTTTTTTTTTTTT MOQGAD      TELAPSE      141.01 TCPU     3506.70
 TTTTTTTTTTTTTTTTTTTTTTTTTTTTTT SHELLXN     TELAPSE      158.29 TCPU     4057.51
 TTTTTTTTTTTTTTTTTTTTTTTTTTTTTT MONMO3      TELAPSE      158.87 TCPU     4076.17
 NUMERICALLY INTEGRATED DENSITY    396.0000071822
 TTTTTTTTTTTTTTTTTTTTTTTTTTTTTT NUMDFT      TELAPSE      160.42 TCPU     4125.65
 CYC   5 ETOT(AU) -2.578226218712E+03 DETOT -2.50E-03 tst  3.38E-05 PX  1.20E-02
 TTTTTTTTTTTTTTTTTTTTTTTTTTTTTT DIIS        TELAPSE      160.69 TCPU     4132.63
 DIIS TEST: 0.85516E-03 AT SCF   CYCLE   5 - DIIS ACTIVE - HISTORY:     5 CYCLES
 TTTTTTTTTTTTTTTTTTTTTTTTTTTTTT FDIK        TELAPSE      162.68 TCPU     4195.87
 INSULATING STATE
 TOP OF VALENCE BANDS -    BAND    198; K    1; EIG -2.4152761E-01 AU
 BOTTOM OF VIRTUAL BANDS - BAND    199; K    1; EIG -8.4731683E-02 AU
 DIRECT ENERGY BAND GAP:   4.2666 eV
 TTTTTTTTTTTTTTTTTTTTTTTTTTTTTT PDIG        TELAPSE      164.23 TCPU     4202.67
 CHARGE NORMALIZATION FACTOR   1.00000000
 TOTAL ATOMIC CHARGES:
   4.4839499   4.4883191   4.5002717   4.5070820   4.5003923   4.5071738
   4.5071546   4.5003665   4.5069715   4.5002119   4.4882674   4.4837734
   0.8777768   0.8704765   0.8706167   0.8778253   0.8802886   0.8791466
   0.8791724   0.8802918   0.8760729   0.8696407   0.8696660   0.8762894
   0.8761113   0.8696419   0.8696111   0.8762023   0.8802970   0.8791504
   0.8792294   0.8803473   0.8777606   0.8704631   0.8705888   0.8777778
   5.9188555   5.9182375   6.1703321   6.1554615   6.1558278   6.1705585
   6.1690643   6.1679721   6.1689067   6.1704511   5.9208088   5.9213483
   5.9151254   5.9526727   6.1633891   6.1733054   6.1740340   6.1639917
   6.1633688   6.1733083   6.1740619   6.1640246   5.9549455   5.9171290
   5.9189324   5.9184178   6.1690398   6.1678811   6.1690260   6.1705680
   6.1702337   6.1553398   6.1558200   6.1705883   5.9207436   5.9212641
   8.4901002   8.4900421   8.4903441   8.4902799   8.5028632   8.4892317
   8.4902175   8.4900980   8.4892787   8.5032446   8.4905086   8.4903776
 TTTTTTTTTTTTTTTTTTTTTTTTTTTTTT MOQGAD      TELAPSE      164.33 TCPU     4202.77
 TTTTTTTTTTTTTTTTTTTTTTTTTTTTTT SHELLXN     TELAPSE      181.69 TCPU     4756.49
 TTTTTTTTTTTTTTTTTTTTTTTTTTTTTT MONMO3      TELAPSE      182.27 TCPU     4774.84
 NUMERICALLY INTEGRATED DENSITY    396.0000072049
 TTTTTTTTTTTTTTTTTTTTTTTTTTTTTT NUMDFT      TELAPSE      183.82 TCPU     4824.29
 CYC   6 ETOT(AU) -2.578226357182E+03 DETOT -1.38E-04 tst  8.47E-06 PX  4.73E-03
 TTTTTTTTTTTTTTTTTTTTTTTTTTTTTT DIIS        TELAPSE      184.07 TCPU     4831.10
 DIIS TEST: 0.34180E-03 AT SCF   CYCLE   6 - DIIS ACTIVE - HISTORY:     6 CYCLES
 TTTTTTTTTTTTTTTTTTTTTTTTTTTTTT FDIK        TELAPSE      186.13 TCPU     4896.78
 INSULATING STATE
 TOP OF VALENCE BANDS -    BAND    198; K    1; EIG -2.4156555E-01 AU
 BOTTOM OF VIRTUAL BANDS - BAND    199; K    1; EIG -8.4615486E-02 AU
 DIRECT ENERGY BAND GAP:   4.2708 eV
 TTTTTTTTTTTTTTTTTTTTTTTTTTTTTT PDIG        TELAPSE      187.69 TCPU     4903.57
 CHARGE NORMALIZATION FACTOR   1.00000000
 TOTAL ATOMIC CHARGES:
   4.4843833   4.4881693   4.5000128   4.5072047   4.5001334   4.5072963
   4.5070888   4.4999344   4.5069063   4.4997795   4.4879091   4.4841132
   0.8780479   0.8705607   0.8706476   0.8782021   0.8803339   0.8790720
   0.8792044   0.8804210   0.8754921   0.8698096   0.8700297   0.8756509
   0.8755234   0.8698058   0.8699814   0.8755690   0.8803386   0.8790765
   0.8792605   0.8804810   0.8780283   0.8705478   0.8706193   0.8781576
   5.9197150   5.9217309   6.1701124   6.1556393   6.1555435   6.1700415
   6.1693238   6.1693508   6.1689610   6.1688379   5.9216887   5.9196324
   5.9233512   5.9496128   6.1665454   6.1710219   6.1709120   6.1665190
   6.1666067   6.1710811   6.1708744   6.1664816   5.9495597   5.9234233
   5.9198385   5.9219536   6.1693069   6.1692663   6.1690741   6.1689433
   6.1700591   6.1555536   6.1554990   6.1700299   5.9215815   5.9195008
   8.4895331   8.4887860   8.4897488   8.4890051   8.5012993   8.4889642
   8.4888572   8.4896870   8.4889750   8.5011114   8.4891273   8.4899406
 TTTTTTTTTTTTTTTTTTTTTTTTTTTTTT MOQGAD      TELAPSE      187.78 TCPU     4903.67
 TTTTTTTTTTTTTTTTTTTTTTTTTTTTTT SHELLXN     TELAPSE      204.99 TCPU     5452.41
 TTTTTTTTTTTTTTTTTTTTTTTTTTTTTT MONMO3      TELAPSE      205.57 TCPU     5470.81
 NUMERICALLY INTEGRATED DENSITY    396.0000072090
 TTTTTTTTTTTTTTTTTTTTTTTTTTTTTT NUMDFT      TELAPSE      207.06 TCPU     5518.40
 CYC   7 ETOT(AU) -2.578226444874E+03 DETOT -8.77E-05 tst  1.34E-06 PX  1.83E-03
 TTTTTTTTTTTTTTTTTTTTTTTTTTTTTT DIIS        TELAPSE      207.34 TCPU     5525.29
 DIIS TEST: 0.73263E-05 AT SCF   CYCLE   7 - DIIS ACTIVE - HISTORY:     7 CYCLES
 TTTTTTTTTTTTTTTTTTTTTTTTTTTTTT FDIK        TELAPSE      209.36 TCPU     5589.43
 INSULATING STATE
 TOP OF VALENCE BANDS -    BAND    198; K    1; EIG -2.4160862E-01 AU
 BOTTOM OF VIRTUAL BANDS - BAND    199; K    1; EIG -8.4645433E-02 AU
 DIRECT ENERGY BAND GAP:   4.2712 eV
 TTTTTTTTTTTTTTTTTTTTTTTTTTTTTT PDIG        TELAPSE      210.90 TCPU     5596.18
 CHARGE NORMALIZATION FACTOR   1.00000000
 TOTAL ATOMIC CHARGES:
   4.4841781   4.4882228   4.5001194   4.5073014   4.5002394   4.5073931
   4.5072786   4.5001205   4.5070961   4.4999659   4.4880697   4.4839551
   0.8780856   0.8703815   0.8704948   0.8781973   0.8802550   0.8790961
   0.8791722   0.8802987   0.8753975   0.8698276   0.8699622   0.8755831
   0.8754311   0.8698262   0.8699112   0.8754991   0.8802599   0.8790991
   0.8792297   0.8803588   0.8780667   0.8703681   0.8704671   0.8781521
   5.9189479   5.9214769   6.1694286   6.1561436   6.1562255   6.1694656
   6.1694122   6.1684836   6.1687523   6.1698464   5.9226662   5.9200593
   5.9228006   5.9491695   6.1664600   6.1708282   6.1710806   6.1667096
   6.1664941   6.1708654   6.1710667   6.1666974   5.9501263   5.9237100
   5.9190615   5.9216928   6.1694004   6.1684031   6.1688618   6.1699459
   6.1693637   6.1560485   6.1561893   6.1694663   5.9225664   5.9199381
   8.4895954   8.4888962   8.4898204   8.4891212   8.5010848   8.4885839
   8.4890038   8.4896665   8.4886297   8.5011759   8.4892782   8.4899288
 TTTTTTTTTTTTTTTTTTTTTTTTTTTTTT MOQGAD      TELAPSE      210.99 TCPU     5596.28
 TTTTTTTTTTTTTTTTTTTTTTTTTTTTTT SHELLXN     TELAPSE      228.23 TCPU     6145.80
 TTTTTTTTTTTTTTTTTTTTTTTTTTTTTT MONMO3      TELAPSE      228.81 TCPU     6164.26
 NUMERICALLY INTEGRATED DENSITY    396.0000072102
 TTTTTTTTTTTTTTTTTTTTTTTTTTTTTT NUMDFT      TELAPSE      230.38 TCPU     6214.42
 CYC   8 ETOT(AU) -2.578226446032E+03 DETOT -1.16E-06 tst  2.50E-08 PX  2.41E-04
 TTTTTTTTTTTTTTTTTTTTTTTTTTTTTT DIIS        TELAPSE      230.69 TCPU     6221.25
 DIIS TEST: 0.19054E-05 AT SCF   CYCLE   8 - DIIS ACTIVE - HISTORY:     8 CYCLES
 TTTTTTTTTTTTTTTTTTTTTTTTTTTTTT FDIK        TELAPSE      232.77 TCPU     6287.26
 INSULATING STATE
 TOP OF VALENCE BANDS -    BAND    198; K    1; EIG -2.4160132E-01 AU
 BOTTOM OF VIRTUAL BANDS - BAND    199; K    1; EIG -8.4657177E-02 AU
 DIRECT ENERGY BAND GAP:   4.2707 eV
 TTTTTTTTTTTTTTTTTTTTTTTTTTTTTT PDIG        TELAPSE      234.32 TCPU     6294.04
 CHARGE NORMALIZATION FACTOR   1.00000000
 TOTAL ATOMIC CHARGES:
   4.4841323   4.4883225   4.5001741   4.5073363   4.5002939   4.5074278
   4.5072719   4.5001404   4.5070896   4.4999862   4.4881214   4.4838885
   0.8780267   0.8704172   0.8705181   0.8781576   0.8802689   0.8790459
   0.8791497   0.8803340   0.8753848   0.8697809   0.8699560   0.8755586
   0.8754176   0.8697784   0.8699060   0.8754754   0.8802737   0.8790494
   0.8792067   0.8803940   0.8780074   0.8704037   0.8704903   0.8781127
   5.9192669   5.9216298   6.1696623   6.1559925   6.1559948   6.1696515
   6.1695004   6.1687658   6.1687192   6.1694970   5.9222319   5.9198100
   5.9229442   5.9493843   6.1665200   6.1709707   6.1710514   6.1666363
   6.1665633   6.1710162   6.1710295   6.1666154   5.9498607   5.9234564
   5.9193840   5.9218482   6.1694870   6.1686839   6.1688299   6.1695983
   6.1696019   6.1559015   6.1559553   6.1696477   5.9221295   5.9196851
   8.4896319   8.4889107   8.4898535   8.4891335   8.5011540   8.4886662
   8.4890034   8.4897430   8.4886925   8.5011120   8.4892759   8.4900021
 TTTTTTTTTTTTTTTTTTTTTTTTTTTTTT MOQGAD      TELAPSE      234.42 TCPU     6294.14
 TTTTTTTTTTTTTTTTTTTTTTTTTTTTTT SHELLXN     TELAPSE      251.55 TCPU     6840.32
 TTTTTTTTTTTTTTTTTTTTTTTTTTTTTT MONMO3      TELAPSE      252.13 TCPU     6858.77
 NUMERICALLY INTEGRATED DENSITY    396.0000072097
 TTTTTTTTTTTTTTTTTTTTTTTTTTTTTT NUMDFT      TELAPSE      253.71 TCPU     6909.12
 CYC   9 ETOT(AU) -2.578226446178E+03 DETOT -1.46E-07 tst  4.58E-09 PX  1.08E-04
 TTTTTTTTTTTTTTTTTTTTTTTTTTTTTT DIIS        TELAPSE      254.04 TCPU     6916.28
 DIIS TEST: 0.11435E-06 AT SCF   CYCLE   9 - DIIS ACTIVE - HISTORY:     9 CYCLES
 TTTTTTTTTTTTTTTTTTTTTTTTTTTTTT FDIK        TELAPSE      256.11 TCPU     6982.15
 INSULATING STATE
 TOP OF VALENCE BANDS -    BAND    198; K    1; EIG -2.4159922E-01 AU
 BOTTOM OF VIRTUAL BANDS - BAND    199; K    1; EIG -8.4654570E-02 AU
 DIRECT ENERGY BAND GAP:   4.2707 eV
 TTTTTTTTTTTTTTTTTTTTTTTTTTTTTT PDIG        TELAPSE      257.66 TCPU     6988.92
 CHARGE NORMALIZATION FACTOR   1.00000000
 TOTAL ATOMIC CHARGES:
   4.4841705   4.4882962   4.5001391   4.5073106   4.5002591   4.5074022
   4.5072573   4.5001145   4.5070750   4.4999602   4.4881082   4.4839324
   0.8780248   0.8704212   0.8705257   0.8781509   0.8802784   0.8790436
   0.8791396   0.8803377   0.8753871   0.8697876   0.8699515   0.8755637
   0.8754198   0.8697852   0.8699016   0.8754805   0.8802833   0.8790471
   0.8791966   0.8803977   0.8780055   0.8704079   0.8704978   0.8781060
   5.9191889   5.9215284   6.1697086   6.1559557   6.1559779   6.1697099
   6.1693825   6.1687951   6.1688359   6.1694986   5.9222909   5.9198870
   5.9229553   5.9492924   6.1664993   6.1709394   6.1710685   6.1666545
   6.1665428   6.1709846   6.1710462   6.1666334   5.9498997   5.9235756
   5.9193059   5.9217465   6.1693687   6.1687130   6.1689468   6.1696003
   6.1696478   6.1558642   6.1559386   6.1697063   5.9221887   5.9197623
   8.4896205   8.4888861   8.4898421   8.4891090   8.5011668   8.4887196
   8.4889815   8.4897203   8.4887526   8.5011614   8.4892543   8.4899794
 TTTTTTTTTTTTTTTTTTTTTTTTTTTTTT MOQGAD      TELAPSE      257.75 TCPU     6989.01
 TTTTTTTTTTTTTTTTTTTTTTTTTTTTTT SHELLXN     TELAPSE      275.04 TCPU     7540.07
 +++ ENERGIES IN A.U. +++
 ::: EXT EL-POLE                                  -2.5628612148424E+03
 ::: EXT EL-SPHEROPOLE                             2.9371534663021E+01
 ::: BIELET ZONE E-E                               4.2724198296585E+03
 ::: TOTAL E-E                                     1.7389301494791E+03
 ::: TOTAL E-N + N-E                              -7.1352288362750E+03
 ::: TOTAL N-N                                     5.2566259911682E+02
 ::: KINETIC ENERGY                                2.5598365409410E+03
 ::: PSEUDO TOTAL   ENERGY                        -2.3107995467380E+03
 ::: VIRIAL COEFFICIENT                            1.0511302814910E+00
 TTTTTTTTTTTTTTTTTTTTTTTTTTTTTT MONMO3      TELAPSE      275.61 TCPU     7558.45
 NUMERICALLY INTEGRATED DENSITY    396.0000072094
 EXCHANGE ENERGY: -0.252045847031E+03  CORRELATION ENERGY: -0.153810524823E+02
 TTTTTTTTTTTTTTTTTTTTTTTTTTTTTT NUMDFT      TELAPSE      277.13 TCPU     7607.03
 CYC  10 ETOT(AU) -2.578226446251E+03 DETOT -7.29E-08 tst  3.39E-10 PX  1.08E-04

 == SCF ENDED - CONVERGENCE ON ENERGY      E(AU) -2.5782264462510E+03 CYCLES  10


 ENERGY EXPRESSION=HARTREE+FOCK EXCH*0.00000+(HSESOL     EXCH)*1.00000+PBESOL     CORR


 TOTAL ENERGY(DFT)(AU)( 10) -2.5782264462510E+03 DE-7.3E-08 tester 3.4E-10
 TTTTTTTTTTTTTTTTTTTTTTTTTTTTTT EDFT        TELAPSE      277.13 TCPU     7607.04
 
 INFORMATION **** DFTD3 ENERGY **** CALCULATE DFTD3 ENERGY

           DFT-D V3(BJ)
 DF                                         hsesol3c  
 parameters
 s6       :    1.0000
 s8       :    0.0000
 a1       :    0.5196
 a2       :    4.9385
 k1 k3    :   16.0000   -4.0000
 Cutoff   :   50.2022
 CN-Cutoff:   21.1671
 ABC-Cutoff:   21.1671
 
 Edisp /kcal,au:   -51.4243 -0.08194980

 E6    /kcal :   -54.8628
 E8    /kcal :     0.0000
 E6(ABC) "   :   3.438494
 
 INFORMATION **** DFTD3 ENERGY **** NORMAL TERMINATION OF DFTD3 MODULE

 GCP ENERGY CALCULATION
  level        hsesol3c            basis:hsesol3c
  Nbf            948
  Atoms           84

  Parameters: 
  sigma     1.0000
  eta       1.4281
  alpha     0.2936
  beta      1.9467

  dmp_scal      4.0000
  dmp_exp       6.0000
 cutoffs: 
   distance [bohr] 60.0
   noise    [a.u.] 2.2E-16
 SR-damping   T
 ** gCP correction **
  Egcp:        0.1659811070 / (a.u.) ||     104.1547 / (kcal/mol)
 INFORMATION **** GCP **** NORMAL TERMINATION OF GCP MODULE

 *******************************************************************************

 DFT-D3-GCP DISPERSION AND COUNTERPOISE CORRECTION

 D3 DISPERSION ENERGY (AU)      -8.1949797095006E-02
 GCP ENERGY (AU)                 1.6598110697832E-01
 TOTAL ENERGY + DISP + GCP (AU) -2.5781424149411E+03

 *******************************************************************************

 EIGENVECTORS IN FORTRAN UNIT  8
 TTTTTTTTTTTTTTTTTTTTTTTTTTTTTT END         TELAPSE      280.06 TCPU     7615.74
 EEEEEEEEEE TERMINATION  DATE 19 02 2026 TIME 20:25:47.6
