 Default number of threads is:           32

         
 *******************************************************************************
 *                                                                             *
 *                               CRYSTAL23                                     *
 *                      public : 1.0.1 - October 2022                          *
 *                       HTTP://WWW.CRYSTAL.UNITO.IT                           *
 *                                                                             *
 *                              MAIN AUTHORS                                   *
 *                                                                             *
 *  R. DOVESI(1,11), V.R. SAUNDERS(2), C. ROETTI(1,11), R. ORLANDO(1,11),      *
 *  C.M. ZICOVICH-WILSON(1,3), F. PASCALE(4), B. CIVALLERI(1,11),              *
 *  K. DOLL(5), N.M. HARRISON(6), I.J. BUSH(7), Ph. D'ARCO(8),                 *
 *  M. LLUNELL(9), M. CAUSA'(10), Y. NOEL(8), L. MASCHIO(1,11), A. ERBA(1,11)  *
 *  M. RE'RAT(14), S. CASASSA(1,11), B.G. SEARLE(2), J.K. DESMARAIS(1)         *
 *                                                                             *
 *        CONTRIBUTIONS TO THE CODE HAVE ALSO BEEN GIVEN BY                    *
 *                                                                             *
 *  M. FERRABONE(1,11), M. DE LA PIERRE(1,11), M. FERRERO(1,11),               *
 *  J. BAIMA(1,11), E. ALBANESE(1,11), M.F. PEINTINGER(12), R. BAST(13),       *
 *  B. KIRTMAN(15), V. LACIVITA(1,11), R. DEMICHELIS(1,16)                     *
 *  G. BRANDEBURG(17), S. SALUSTRO(1,11), G. SANSONE(1,11)                     *
 *  M.T. RUGGIERO(18), L.E. DAGA(1), L. DONA'(1), A. COSSARD(1)                *
 *                                                                             *
 * (1) THEORETICAL CHEMISTRY GROUP - UNIVERSITA' DI TORINO - TORINO (ITALY)    *
 * (2) SCIENTIFIC COMPUTING DEPARTMENT - STFC DARESBURY (UK)                   *
 * (3) UNIVERSIDAD AUTONOMA DEL ESTADO DE MORELOS - CUERNAVACA (MEXICO)        *
 * (4) UNIVERSITE' DE LORRAINE - NANCY (FRANCE)                                *
 * (5) UNIVERSITAET STUTTGART- STUTTGART (GERMANY)                             *
 * (6) IMPERIAL COLLEGE - LONDON (UK)                                          *
 * (7) SCIENTIFIC COMPUTING DEPARTMENT - STFC RAL (UK)                         *
 * (8) UPMC - SORBONNE UNIVERSITES - PARIS (FRANCE)                            *
 * (9) UNIVERSIDAD DE BARCELONA - BARCELONA (SPAIN)                            *
 *(10) UNIVERSITA' DI NAPOLI "FEDERICO II" - NAPOLI (ITALY)                    *
 *(11) NIS - NANOSTRUCTURED INTERFACES AND SURFACES - TORINO (ITALY)           *
 *(12) MPI FUER CHEMISCHE ENERGIEKONVERSION - MUELHEIM AN DER RUHR (GERMANY)   *
 *(13) UNIVERSITY OF TROMSO - TROMSO (NORWAY)                                  *
 *(14) UNIVERSITE' DE PAU ET DES PAYS DE L'ADOUR - PAU (FRANCE)                *
 *(15) UNIVERSITY OF CALIFORNIA SANTA BARBARA - SANTA BARBARA (USA)            *
 *(16) CURTIN UNIVERSITY - PERTH (AUSTRALIA)                                   *
 *(17) UNIVERSITY COLLEGE LONDON - LONDON (UK)                                 *
 *(18) UNIVERSITY OF VERMONT - BURLINGTON (USA)                                *
 *                                                                             *
 *******************************************************************************
 EEEEEEEEEE STARTING  DATE 19 02 2026 TIME 19:14:06.0
 cof-1_z42_L070_incl                                                             

 CRYSTAL CALCULATION
 (INPUT ACCORDING TO THE INTERNATIONAL TABLES FOR X-RAY CRYSTALLOGRAPHY)
 CRYSTAL FAMILY                       :  TRICLINIC   
 CRYSTAL CLASS  (GROTH - 1921)        :  TRICLINIC PEDIAL                     

 SPACE GROUP (NONCENTROSYMMETRIC)     :  P 1             

 LATTICE PARAMETERS  (ANGSTROMS AND DEGREES) - CONVENTIONAL CELL
        A           B           C        ALPHA        BETA       GAMMA
    15.02361    15.02392     8.16333    42.04338    89.99997   119.99596


 NUMBER OF IRREDUCIBLE ATOMS IN THE CONVENTIONAL CELL:   42

 INPUT COORDINATES

 ATOM AT. N.              COORDINATES
   1   5     4.788945000000E-01 -4.228126000000E-02  5.011323700000E-01
   2   5     6.379501600000E-01  1.167784000000E-01  5.011323800000E-01
   3   5     4.795333800000E-01  1.180476200000E-01  4.987411600000E-01
   4   5     9.246921000000E-02  3.440337400000E-01  5.011323800000E-01
   5   5     2.515771800000E-01  3.440129700000E-01  5.011323700000E-01
   6   5     2.522006100000E-01  5.044386000000E-01  4.987411600000E-01
   7   1     7.695909600000E-01  4.199759000000E-02  4.961749100000E-01
   8   1    -3.661424000000E-02  4.245288100000E-01  4.954168300000E-01
   9   1     7.697540300000E-01  3.276105700000E-01  4.953001500000E-01
  10   1    -3.648903000000E-02  1.392074300000E-01  4.953292500000E-01
  11   1     5.555247700000E-01 -1.740386900000E-01  5.038152400000E-01
  12   1     1.732181800000E-01  6.319866400000E-01  5.045733700000E-01
  13   1     2.701270500000E-01 -1.744634900000E-01  5.046901100000E-01
  14   1     4.585771500000E-01  6.318496000000E-01  5.046608200000E-01
  15   1     5.576200600000E-01  3.271217300000E-01  4.961749600000E-01
  16   1     1.757130700000E-01  1.390847300000E-01  4.954167800000E-01
  17   1     2.726232100000E-01  4.236144000000E-02  4.953000600000E-01
  18   1     4.610656400000E-01  4.244803600000E-01  4.953293500000E-01
  19   6     7.577709500000E-01  1.776777100000E-01  4.986536700000E-01
  20   6     8.130050700000E-01  1.257904100000E-01  4.962915700000E-01
  21   6    -8.004104000000E-02  3.402998600000E-01  4.960875200000E-01
  22   6     8.128582400000E-01  2.864773000000E-01  4.966999000000E-01
  23   6    -7.974397000000E-02  1.798822700000E-01  4.951251300000E-01
  24   6    -2.556581000000E-02  2.868050600000E-01  4.967290300000E-01
  25   6     4.191984800000E-01 -1.615408400000E-01  5.013365100000E-01
  26   6     4.717016000000E-01 -2.174241000000E-01  5.036985600000E-01
  27   6     2.572675200000E-01  6.755733100000E-01  5.039026900000E-01
  28   6     3.109211300000E-01 -2.171575600000E-01  5.032903300000E-01
  29   6     4.179268800000E-01  6.750160100000E-01  5.048649900000E-01
  30   6     3.105693100000E-01  6.212473500000E-01  5.032611300000E-01
  31   6     4.199255100000E-01  1.776085700000E-01  4.986536600000E-01
  32   6     4.737261600000E-01  2.866305300000E-01  4.962916200000E-01
  33   6     2.593942300000E-01  1.792866100000E-01  4.960874700000E-01
  34   6     3.126934100000E-01  1.254751300000E-01  4.966998300000E-01
  35   6     4.205726300000E-01  3.407302700000E-01  4.951252000000E-01
  36   6     3.123582800000E-01  2.867276600000E-01  4.967290300000E-01
  37   8     4.264212400000E-01  1.171244000000E-02  4.993826900000E-01
  38   8     5.840093800000E-01  9.006100000000E-03  5.044275700000E-01
  39   8     5.860541800000E-01  1.720458200000E-01  4.968165400000E-01
  40   8     1.460090600000E-01  4.509929100000E-01  4.993827200000E-01
  41   8     1.446716500000E-01  2.893233800000E-01  5.044275600000E-01
  42   8     3.056386100000E-01  4.523577900000E-01  4.968165200000E-01

 *******************************************************************************

 << INFORMATION >>: FROM NOW ON, ALL COORDINATES REFER TO THE PRIMITIVE CELL

 *******************************************************************************

 LATTICE PARAMETERS  (ANGSTROMS AND DEGREES) - PRIMITIVE CELL
       A          B          C        ALPHA      BETA     GAMMA        VOLUME
   15.02361   15.02392    8.16333    42.04338  89.99997 119.99596    821.030647

 COORDINATES OF THE EQUIVALENT ATOMS (FRACTIONAL UNITS)

 N. ATOM EQUIV AT. N.          X                  Y                  Z

   1   1   1    5 B     4.78894500000E-01 -4.22812600000E-02 -4.98867630000E-01

   2   2   1    5 B    -3.62049840000E-01  1.16778400000E-01 -4.98867620000E-01

   3   3   1    5 B     4.79533380000E-01  1.18047620000E-01  4.98741160000E-01

   4   4   1    5 B     9.24692100000E-02  3.44033740000E-01 -4.98867620000E-01

   5   5   1    5 B     2.51577180000E-01  3.44012970000E-01 -4.98867630000E-01

   6   6   1    5 B     2.52200610000E-01 -4.95561400000E-01  4.98741160000E-01

   7   7   1    1 H    -2.30409040000E-01  4.19975900000E-02  4.96174910000E-01

   8   8   1    1 H    -3.66142400000E-02  4.24528810000E-01  4.95416830000E-01

   9   9   1    1 H    -2.30245970000E-01  3.27610570000E-01  4.95300150000E-01

  10  10   1    1 H    -3.64890300000E-02  1.39207430000E-01  4.95329250000E-01

  11  11   1    1 H    -4.44475230000E-01 -1.74038690000E-01 -4.96184760000E-01

  12  12   1    1 H     1.73218180000E-01 -3.68013360000E-01 -4.95426630000E-01

  13  13   1    1 H     2.70127050000E-01 -1.74463490000E-01 -4.95309890000E-01

  14  14   1    1 H     4.58577150000E-01 -3.68150400000E-01 -4.95339180000E-01

  15  15   1    1 H    -4.42379940000E-01  3.27121730000E-01  4.96174960000E-01

  16  16   1    1 H     1.75713070000E-01  1.39084730000E-01  4.95416780000E-01

  17  17   1    1 H     2.72623210000E-01  4.23614400000E-02  4.95300060000E-01

  18  18   1    1 H     4.61065640000E-01  4.24480360000E-01  4.95329350000E-01

  19  19   1    6 C    -2.42229050000E-01  1.77677710000E-01  4.98653670000E-01

  20  20   1    6 C    -1.86994930000E-01  1.25790410000E-01  4.96291570000E-01

  21  21   1    6 C    -8.00410400000E-02  3.40299860000E-01  4.96087520000E-01

  22  22   1    6 C    -1.87141760000E-01  2.86477300000E-01  4.96699900000E-01

  23  23   1    6 C    -7.97439700000E-02  1.79882270000E-01  4.95125130000E-01

  24  24   1    6 C    -2.55658100000E-02  2.86805060000E-01  4.96729030000E-01

  25  25   1    6 C     4.19198480000E-01 -1.61540840000E-01 -4.98663490000E-01

  26  26   1    6 C     4.71701600000E-01 -2.17424100000E-01 -4.96301440000E-01

  27  27   1    6 C     2.57267520000E-01 -3.24426690000E-01 -4.96097310000E-01

  28  28   1    6 C     3.10921130000E-01 -2.17157560000E-01 -4.96709670000E-01

  29  29   1    6 C     4.17926880000E-01 -3.24983990000E-01 -4.95135010000E-01

  30  30   1    6 C     3.10569310000E-01 -3.78752650000E-01 -4.96738870000E-01

  31  31   1    6 C     4.19925510000E-01  1.77608570000E-01  4.98653660000E-01

  32  32   1    6 C     4.73726160000E-01  2.86630530000E-01  4.96291620000E-01

  33  33   1    6 C     2.59394230000E-01  1.79286610000E-01  4.96087470000E-01

  34  34   1    6 C     3.12693410000E-01  1.25475130000E-01  4.96699830000E-01

  35  35   1    6 C     4.20572630000E-01  3.40730270000E-01  4.95125200000E-01

  36  36   1    6 C     3.12358280000E-01  2.86727660000E-01  4.96729030000E-01

  37  37   1    8 O     4.26421240000E-01  1.17124400000E-02  4.99382690000E-01

  38  38   1    8 O    -4.15990620000E-01  9.00610000000E-03 -4.95572430000E-01

  39  39   1    8 O    -4.13945820000E-01  1.72045820000E-01  4.96816540000E-01

  40  40   1    8 O     1.46009060000E-01  4.50992910000E-01  4.99382720000E-01

  41  41   1    8 O     1.44671650000E-01  2.89323380000E-01 -4.95572440000E-01

  42  42   1    8 O     3.05638610000E-01  4.52357790000E-01  4.96816520000E-01

 NUMBER OF SYMMETRY OPERATORS         :    1
 *******************************************************************************
 * GEOMETRY EDITING - INPUT COORDINATES ARE GIVEN IN ANGSTROM         
 *******************************************************************************

 GCALCO - MAX INDICES DIRECT LATTICE VECTOR     9    14    23
 NO.OF VECTORS CREATED 6999 STARS 3500 RMAX   216.30833 BOHR

 GEOMETRY FOR WAVE FUNCTION - DIMENSIONALITY OF THE SYSTEM    3
 (NON PERIODIC DIRECTION: LATTICE PARAMETER FORMALLY SET TO 500)
 *******************************************************************************
 LATTICE PARAMETERS (ANGSTROMS AND DEGREES) - BOHR = 0.5291772083 ANGSTROM
 PRIMITIVE CELL - CENTRING CODE 1/0 VOLUME=   821.030647 - DENSITY  0.789 g/cm^3
         A              B              C           ALPHA      BETA       GAMMA 
    15.02361100    15.02391600     8.16333300    42.043383  89.999971 119.995964
 *******************************************************************************
 ATOMS IN THE ASYMMETRIC UNIT   42 - ATOMS IN THE UNIT CELL:   42
     ATOM                 X/A                 Y/B                 Z/C    
 *******************************************************************************
      1 T   5 B     4.788945000000E-01 -4.228126000000E-02 -4.988676300000E-01
      2 T   5 B    -3.620498400000E-01  1.167784000000E-01 -4.988676200000E-01
      3 T   5 B     4.795333800000E-01  1.180476200000E-01  4.987411600000E-01
      4 T   5 B     9.246921000000E-02  3.440337400000E-01 -4.988676200000E-01
      5 T   5 B     2.515771800000E-01  3.440129700000E-01 -4.988676300000E-01
      6 T   5 B     2.522006100000E-01 -4.955614000000E-01  4.987411600000E-01
      7 T   1 H    -2.304090400000E-01  4.199759000000E-02  4.961749100000E-01
      8 T   1 H    -3.661424000000E-02  4.245288100000E-01  4.954168300000E-01
      9 T   1 H    -2.302459700000E-01  3.276105700000E-01  4.953001500000E-01
     10 T   1 H    -3.648903000000E-02  1.392074300000E-01  4.953292500000E-01
     11 T   1 H    -4.444752300000E-01 -1.740386900000E-01 -4.961847600000E-01
     12 T   1 H     1.732181800000E-01 -3.680133600000E-01 -4.954266300000E-01
     13 T   1 H     2.701270500000E-01 -1.744634900000E-01 -4.953098900000E-01
     14 T   1 H     4.585771500000E-01 -3.681504000000E-01 -4.953391800000E-01
     15 T   1 H    -4.423799400000E-01  3.271217300000E-01  4.961749600000E-01
     16 T   1 H     1.757130700000E-01  1.390847300000E-01  4.954167800000E-01
     17 T   1 H     2.726232100000E-01  4.236144000000E-02  4.953000600000E-01
     18 T   1 H     4.610656400000E-01  4.244803600000E-01  4.953293500000E-01
     19 T   6 C    -2.422290500000E-01  1.776777100000E-01  4.986536700000E-01
     20 T   6 C    -1.869949300000E-01  1.257904100000E-01  4.962915700000E-01
     21 T   6 C    -8.004104000000E-02  3.402998600000E-01  4.960875200000E-01
     22 T   6 C    -1.871417600000E-01  2.864773000000E-01  4.966999000000E-01
     23 T   6 C    -7.974397000000E-02  1.798822700000E-01  4.951251300000E-01
     24 T   6 C    -2.556581000000E-02  2.868050600000E-01  4.967290300000E-01
     25 T   6 C     4.191984800000E-01 -1.615408400000E-01 -4.986634900000E-01
     26 T   6 C     4.717016000000E-01 -2.174241000000E-01 -4.963014400000E-01
     27 T   6 C     2.572675200000E-01 -3.244266900000E-01 -4.960973100000E-01
     28 T   6 C     3.109211300000E-01 -2.171575600000E-01 -4.967096700000E-01
     29 T   6 C     4.179268800000E-01 -3.249839900000E-01 -4.951350100000E-01
     30 T   6 C     3.105693100000E-01 -3.787526500000E-01 -4.967388700000E-01
     31 T   6 C     4.199255100000E-01  1.776085700000E-01  4.986536600000E-01
     32 T   6 C     4.737261600000E-01  2.866305300000E-01  4.962916200000E-01
     33 T   6 C     2.593942300000E-01  1.792866100000E-01  4.960874700000E-01
     34 T   6 C     3.126934100000E-01  1.254751300000E-01  4.966998300000E-01
     35 T   6 C     4.205726300000E-01  3.407302700000E-01  4.951252000000E-01
     36 T   6 C     3.123582800000E-01  2.867276600000E-01  4.967290300000E-01
     37 T   8 O     4.264212400000E-01  1.171244000000E-02  4.993826900000E-01
     38 T   8 O    -4.159906200000E-01  9.006100000000E-03 -4.955724300000E-01
     39 T   8 O    -4.139458200000E-01  1.720458200000E-01  4.968165400000E-01
     40 T   8 O     1.460090600000E-01  4.509929100000E-01  4.993827200000E-01
     41 T   8 O     1.446716500000E-01  2.893233800000E-01 -4.955724400000E-01
     42 T   8 O     3.056386100000E-01  4.523577900000E-01  4.968165200000E-01

 T = ATOM BELONGING TO THE ASYMMETRIC UNIT

 ****    1 SYMMOPS - TRANSLATORS IN FRACTIONAL UNITS
 **** MATRICES AND TRANSLATORS IN THE CRYSTALLOGRAPHIC REFERENCE FRAME
   V INV                    ROTATION MATRICES                   TRANSLATORS
   1   1  1.00  0.00  0.00  0.00  1.00  0.00  0.00 -0.00  1.00  0.00  0.00  0.00

 DIRECT LATTICE VECTORS CARTESIAN COMPONENTS (ANGSTROM)
          X                    Y                    Z
   0.130113578931E+02  -0.751088897922E+01   0.000000000000E+00
   0.000000000000E+00   0.150239160000E+02   0.000000000000E+00
   0.349956424376E+01   0.606240098825E+01   0.420004167008E+01


 CARTESIAN COORDINATES - PRIMITIVE CELL
 *******************************************************************************
 *      ATOM          X(ANGSTROM)         Y(ANGSTROM)         Z(ANGSTROM)
 *******************************************************************************
    1     5 B     9.856841684429E-01  1.705025877767E+00 -6.295306503937E+00
    2     5 B    -6.456579328684E+00  1.449449472906E+00 -2.095264791855E+00
    3     5 B    -1.527036490026E+00 -2.552415834039E-01  6.294775324667E+00
    4     5 B    -5.426692999222E-01  1.449872488128E+00 -2.095264791855E+00
    5     5 B     1.527541406390E+00  2.545180823905E-01 -2.095264833855E+00
    6     5 B     1.527284884226E+00  2.645560284374E+00 -2.105308015497E+00
    7     1 H    -4.761102751307E+00 -6.928447399086E-01 -2.116086372433E+00
    8     1 H    -2.242222200356E+00  3.594105164258E+00 -2.119270340022E+00
    9     1 H    -1.262478024236E+00 -5.369862278188E+00  2.080281269198E+00
   10     1 H    -2.240899540071E+00 -6.940106653534E-01 -2.119638179671E+00
   11     1 H    -4.020092492765E+00  3.777991456101E+00  2.116045002022E+00
   12     1 H     5.200264138106E-01  5.190416782005E+00 -2.080812490468E+00
   13     1 H     5.280915187280E+00 -1.590385280038E+00  2.119719492478E+00
   14     1 H     4.233240137368E+00  3.045588518629E+00 -2.080445196824E+00
   15     1 H    -4.019567575385E+00 -3.778588422886E+00  2.083955507651E+00
   16     1 H     5.204442455457E-01 -2.289149872145E+00 -2.119270550024E+00
   17     1 H     1.780968291413E+00 -4.470901362292E+00 -2.119760778888E+00
   18     1 H     4.232962692617E+00 -1.451714091801E-01 -2.119637759667E+00
   19     6 C    -4.906222551852E+00  1.449408005758E+00 -2.105675477143E+00
   20     6 C    -4.195817969324E+00  2.406802285324E-01 -2.115596395572E+00
   21     6 C    -2.804916714564E+00  2.658896359932E+00 -2.116453414074E+00
   22     6 C    -4.196299449936E+00  2.658404850218E+00 -2.113881392556E+00
   23     6 C    -2.804419376107E+00  2.407303089730E-01 -2.120495492177E+00
   24     6 C    -2.093874995269E+00  1.449926664505E+00 -2.113759045343E+00
   25     6 C     2.096722884766E-01  3.628877229109E-01 -6.294449107430E+00
   26     6 C     9.010753190206E-01 -8.567230922634E-01 -6.284528399004E+00
   27     6 C     1.611275369479E+00  5.209908058194E+00 -2.083629374416E+00
   28     6 C    -1.192325545474E+00  3.524107885480E-01 -6.286242982014E+00
   29     6 C     3.705039431980E+00  4.000674461846E+00 -2.079587674316E+00
   30     6 C     2.302558855073E+00  3.989486177473E+00 -2.086323953149E+00
   31     6 C     3.709307373832E+00 -3.525000195660E+00 -2.105675519143E+00
   32     6 C     4.401060775134E+00 -2.305473769255E+00 -2.115596185569E+00
   33     6 C     1.611596889954E+00 -2.309614114676E+00 -2.116453624076E+00
   34     6 C     2.307234589501E+00 -3.514685121826E+00 -2.113881686559E+00
   35     6 C     3.705379211300E+00 -1.100524862950E+00 -2.120495198174E+00
   36     6 C     2.302976280406E+00 -1.089346509986E+00 -2.113759045343E+00
   37     8 O    -2.215852476583E+00 -1.450003796474E+00  6.297469777399E+00
   38     8 O     2.364903256105E+00  1.706033496262E+00 -6.281466526626E+00
   39     8 O    -1.477915695060E-01 -2.557108834201E-01  6.286691840468E+00
   40     8 O     1.478338023937E-01  2.644079063811E+00 -2.102613436763E+00
   41     8 O     1.480870239134E-01  2.557986063628E-01 -2.081424898544E+00
   42     8 O     2.215850425989E+00  1.450067745013E+00 -2.113391583697E+00

 *******************************************************************************
 STARTING BASIS SET HANDLING 
 *******************************************************************************

 Loading internal basis set: SOLDEF2MSVP         

 Please cite in your publication:
 L. Dona', J. G. Brandenburg and B. Civalleri, J. Chem. Phys., 151, 121101 (2019
 )                                                                              
                                                                                
                    

 *******************************************************************************
 LOCAL ATOMIC FUNCTIONS BASIS SET
 *******************************************************************************
   ATOM   X(AU)   Y(AU)   Z(AU)  N. TYPE  EXPONENT  S COEF   P COEF   D/F/G COEF
 *******************************************************************************
   1 B    1.863   3.222 -11.896
                                  1 S  
                                         2.410E+03 1.755E-03 0.000E+00 0.000E+00
                                         3.619E+02 1.344E-02 0.000E+00 0.000E+00
                                         8.231E+01 6.637E-02 0.000E+00 0.000E+00
                                         2.311E+01 2.303E-01 0.000E+00 0.000E+00
                                         7.252E+00 5.150E-01 0.000E+00 0.000E+00
                                  2 S  
                                         2.367E+00 1.000E+00 0.000E+00 0.000E+00
                                  3 S  
                                         5.533E-01 1.000E+00 0.000E+00 0.000E+00
                                  4 S  
                                         1.716E-01 1.000E+00 0.000E+00 0.000E+00
                           5-     7 P  
                                         6.002E+00 0.000E+00-3.555E-02 0.000E+00
                                         1.240E+00 0.000E+00-1.983E-01 0.000E+00
                                         3.367E-01 0.000E+00-5.048E-01 0.000E+00
                           8-    10 P  
                                         1.256E-01 0.000E+00 1.000E+00 0.000E+00
                          11-    15 D  
                                         8.880E-01 0.000E+00 0.000E+00 1.000E+00
   2 B  -12.201   2.739  -3.959
   3 B   -2.886  -0.482  11.895
   4 B   -1.025   2.740  -3.959
   5 B    2.887   0.481  -3.959
   6 B    2.886   4.999  -3.978
   7 H   -8.997  -1.309  -3.999
                                 91 S  
                                         1.874E+01 1.968E-02 0.000E+00 0.000E+00
                                         2.826E+00 1.380E-01 0.000E+00 0.000E+00
                                         6.401E-01 4.783E-01 0.000E+00 0.000E+00
                                 92 S  
                                         1.756E-01 1.000E+00 0.000E+00 0.000E+00
   8 H   -4.237   6.792  -4.005
   9 H   -2.386 -10.148   3.931
  10 H   -4.235  -1.311  -4.006
  11 H   -7.597   7.139   3.999
  12 H    0.983   9.808  -3.932
  13 H    9.979  -3.005   4.006
  14 H    8.000   5.755  -3.931
  15 H   -7.596  -7.140   3.938
  16 H    0.983  -4.326  -4.005
  17 H    3.366  -8.449  -4.006
  18 H    7.999  -0.274  -4.006
  19 C   -9.271   2.739  -3.979
                                115 S  
                                         3.624E+03 1.634E-03 0.000E+00 0.000E+00
                                         5.440E+02 1.252E-02 0.000E+00 0.000E+00
                                         1.237E+02 6.211E-02 0.000E+00 0.000E+00
                                         3.476E+01 2.182E-01 0.000E+00 0.000E+00
                                         1.093E+01 4.980E-01 0.000E+00 0.000E+00
                                116 S  
                                         3.574E+00 1.000E+00 0.000E+00 0.000E+00
                                117 S  
                                         7.742E-01 1.000E+00 0.000E+00 0.000E+00
                                118 S  
                                         2.330E-01 1.000E+00 0.000E+00 0.000E+00
                         119-   121 P  
                                         9.443E+00 0.000E+00 3.790E-02 0.000E+00
                                         2.002E+00 0.000E+00 2.082E-01 0.000E+00
                                         5.463E-01 0.000E+00 5.047E-01 0.000E+00
                         122-   124 P  
                                         1.820E-01 0.000E+00 1.000E+00 0.000E+00
                         125-   129 D  
                                         8.880E-01 0.000E+00 0.000E+00 1.000E+00
  20 C   -7.929   0.455  -3.998
  21 C   -5.301   5.025  -4.000
  22 C   -7.930   5.024  -3.995
  23 C   -5.300   0.455  -4.007
  24 C   -3.957   2.740  -3.994
  25 C    0.396   0.686 -11.895
  26 C    1.703  -1.619 -11.876
  27 C    3.045   9.845  -3.937
  28 C   -2.253   0.666 -11.879
  29 C    7.002   7.560  -3.930
  30 C    4.351   7.539  -3.943
  31 C    7.010  -6.661  -3.979
  32 C    8.317  -4.357  -3.998
  33 C    3.045  -4.365  -4.000
  34 C    4.360  -6.642  -3.995
  35 C    7.002  -2.080  -4.007
  36 C    4.352  -2.059  -3.994
  37 O   -4.187  -2.740  11.900
                                385 S  
                                         6.773E+03 1.727E-03 0.000E+00 0.000E+00
                                         1.017E+03 1.325E-02 0.000E+00 0.000E+00
                                         2.313E+02 6.603E-02 0.000E+00 0.000E+00
                                         6.501E+01 2.353E-01 0.000E+00 0.000E+00
                                         2.050E+01 5.498E-01 0.000E+00 0.000E+00
                                386 S  
                                         6.716E+00 1.000E+00 0.000E+00 0.000E+00
                                387 S  
                                         1.147E+00 1.000E+00 0.000E+00 0.000E+00
                                388 S  
                                         3.342E-01 1.000E+00 0.000E+00 0.000E+00
                         389-   391 P  
                                         1.769E+01 0.000E+00 4.359E-02 0.000E+00
                                         3.854E+00 0.000E+00 2.318E-01 0.000E+00
                                         1.047E+00 0.000E+00 5.146E-01 0.000E+00
                         392-   394 P  
                                         2.759E-01 0.000E+00 1.000E+00 0.000E+00
                         395-   399 D  
                                         8.000E-01 0.000E+00 0.000E+00 1.000E+00
  38 O    4.469   3.224 -11.870
  39 O   -0.279  -0.483  11.880
  40 O    0.279   4.997  -3.973
  41 O    0.280   0.483  -3.933
  42 O    4.187   2.740  -3.994

 *******************************************************************************
 FINISHED BASIS SET HANDLING 
 *******************************************************************************

 INFORMATION **** SET_MPP **** PCRYSTAL CALCULATION
 INFORMATION **** READM2 **** NEW DEFAULT: FOCK/KS MATRIX MIXING SET TO 30 %
 INFORMATION **** READM2 **** NEW DEFAULT: FULL DIRECT SCF MODE
 INFORMATION **** READM2 **** NEW DEFAULT: COULOMB BIPOLAR BUFFER SET TO 32 Mb
 INFORMATION **** READM2 **** NEW DEFAULT: EXCHANGE BIPOLAR BUFFER SET TO 32 Mb

 *******************************************************************************
 NEW DEFAULT: DFT INTEGRATION GRID INCREASED TO XLGRID
 NEW DEFAULT: DIIS ACCELERATOR ACTIVE
 USE KEYWORD NODIIS TO TURN IT OFF
 *******************************************************************************

 WARNING **** RDDFTP **** HSEsol-HJS ACTIVE
 RANGE SEPARATION - OMEGA:   0.110000000000000     
 WARNING **** RDDFTP **** HSEsol-3c has to be combined with sol-def2-mSVP basis set
 *******************************************************************************
 N. OF ATOMS PER CELL        42  COULOMB OVERLAP TOL         (T1) 10**   -6
 NUMBER OF SHELLS           234  COULOMB PENETRATION TOL     (T2) 10**   -6
 NUMBER OF AO               474  EXCHANGE OVERLAP TOL        (T3) 10**   -6
 N. OF ELECTRONS PER CELL   198  EXCHANGE PSEUDO OVP (F(G))  (T4) 10**   -6
 CORE ELECTRONS PER CELL     60  EXCHANGE PSEUDO OVP (P(G))  (T5) 10**  -12
 N. OF SYMMETRY OPERATORS     1  POLE ORDER IN MONO ZONE                  4
 *******************************************************************************
 TYPE OF CALCULATION :  RESTRICTED CLOSED SHELL
 KOHN-SHAM HAMILTONIAN

 (EXCHANGE)[CORRELATION] FUNCTIONAL:(HSEsol GGA)[PBEsol]

 RANGE-SEPARATED HYBRID FUNCTIONAL 
 OMEGA (SHORT-RANGE)[LONG-RANGE]:(    0.1100)[    0.0000]

 HYBRID EXCHANGE - PERCENTAGE OF FOCK EXCHANGE    25.0000

 CAPPA:IS1  2;IS2  2;IS3  8; K PTS MONK NET  20; SYMMOPS:K SPACE   2;G SPACE   1

 *******************************************************************************
 MAX NUMBER OF SCF CYCLES      50  CONVERGENCE ON DELTAP        10**-16
 WEIGHT OF F(I) IN F(I+1)      30% CONVERGENCE ON ENERGY        10**- 6
 SHRINK. FACT.(MONKH.)    2  2  8  NUMBER OF K POINTS IN THE IBZ     20
 SHRINKING FACTOR(GILAT NET)    8  NUMBER OF K POINTS(GILAT NET)   1028
 *******************************************************************************
 *** K POINTS COORDINATES (OBLIQUE COORDINATES IN UNITS OF IS =  2)
   1-R(  0  0  0)   2-R(  1  0  0)   3-R(  0  1  0)   4-R(  1  1  0)
   5-C(  0  0  1)   6-C(  1  0  1)   7-C(  0  1  1)   8-C(  1  1  1)
   9-C(  0  0  2)  10-C(  1  0  2)  11-C(  0  1  2)  12-C(  1  1  2)
  13-C(  0  0  3)  14-C(  1  0  3)  15-C(  0  1  3)  16-C(  1  1  3)
  17-R(  0  0  4)  18-R(  1  0  4)  19-R(  0  1  4)  20-R(  1  1  4)

 DIRECT LATTICE VECTORS COMPON. (A.U.)     RECIP. LATTICE VECTORS COMPON. (A.U.) 
        X            Y            Z              X            Y            Z
   24.5879030  -14.1935232    0.0000000      0.2555397    0.0000000   -0.2129211
    0.0000000   28.3910867    0.0000000      0.1277517    0.2213084   -0.4258851
    6.6132180   11.4562776    7.9369285      0.0000000    0.0000000    0.7916394

 DISK SPACE FOR EIGENVECTORS (FTN 10)     7189632 REALS

 SYMMETRY ADAPTION OF THE BLOCH FUNCTIONS DISABLED
 TTTTTTTTTTTTTTTTTTTTTTTTTTTTTT gordsh1     TELAPSE        0.04 TCPU        0.04

 MATRIX SIZE: P(G)  281420, F(G)   56264, P(G) IRR  141769, F(G) IRR   56744
 MAX G-VECTOR INDEX FOR 1- AND 2-ELECTRON INTEGRALS  63

 TTTTTTTTTTTTTTTTTTTTTTTTTTTTTT INPUT       TELAPSE        0.38 TCPU        0.38

 NEIGHBORS OF THE NON-EQUIVALENT ATOMS

 N = NUMBER OF NEIGHBORS AT DISTANCE R
    ATOM  N     R/ANG      R/AU   NEIGHBORS (ATOM LABELS AND CELL INDICES)
   1 B    1     1.3791     2.6061   37 O    1 2-3
   1 B    1     1.3793     2.6065   38 O    0 0 0
   1 B    1     1.5503     2.9297   25 C    0 0 0
   1 B    1     2.3895     4.5155    3 B    1 2-3
   1 B    1     2.3898     4.5160    2 B    1 1-1
   1 B    1     2.5632     4.8437   26 C    0 0 0

   2 B    1     1.3793     2.6065   39 O    0 1-2
   2 B    1     1.3793     2.6065   38 O   -1-1 1
   2 B    1     1.5504     2.9298   19 C    0 0 0
   2 B    1     2.3895     4.5156    3 B    0 1-2
   2 B    1     2.3898     4.5160    1 B   -1-1 1
   2 B    1     2.5634     4.8440   22 C    0 0 0

   3 B    1     1.3791     2.6061   37 O    0 0 0
   3 B    1     1.3793     2.6064   39 O    0 0 0
   3 B    1     1.5502     2.9294   31 C   -1-1 2
   3 B    1     2.3895     4.5155    1 B   -1-2 3
   3 B    1     2.3895     4.5156    2 B    0-1 2
   3 B    1     2.5629     4.8433   32 C   -1-1 2

   4 B    1     1.3795     2.6068   40 O    0 0 0
   4 B    1     1.3795     2.6070   41 O    0 0 0
   4 B    1     1.5513     2.9316   24 C    0 0 0
   4 B    1     2.3905     4.5174    6 B    0 0 0
   4 B    1     2.3905     4.5175    5 B    0 0 0
   4 B    1     2.5648     4.8468   23 C    0 0 0

   5 B    1     1.3795     2.6069   41 O    0 0 0
   5 B    1     1.3797     2.6072   42 O    0 0 0
   5 B    1     1.5516     2.9322   36 C    0 0 0
   5 B    1     2.3905     4.5175    4 B    0 0 0
   5 B    1     2.3911     4.5185    6 B    0 0 0
   5 B    1     2.5651     4.8473   35 C    0 0 0

   6 B    1     1.3795     2.6068   40 O    0 0 0
   6 B    1     1.3796     2.6071   42 O    0 0 0
   6 B    1     1.5516     2.9322   30 C    0 0 0
   6 B    1     2.3905     4.5174    4 B    0 0 0
   6 B    1     2.3911     4.5185    5 B    0 0 0
   6 B    1     2.5651     4.8473   29 C    0 0 0

   7 H    1     1.0913     2.0623   20 C    0 0 0
   7 H    1     2.1472     4.0576   19 C    0 0 0
   7 H    1     2.1680     4.0969   23 C    0 0 0
   7 H    1     2.5202     4.7625   10 H    0 0 0
   7 H    1     2.5676     4.8520   38 O   -1-1 1
   7 H    1     2.7321     5.1630    2 B    0 0 0

   8 H    1     1.0914     2.0625   21 C    0 0 0
   8 H    1     2.1493     4.0616   24 C    0 0 0
   8 H    1     2.1666     4.0942   22 C    0 0 0
   8 H    1     2.5198     4.7618    9 H    0 1-1
   8 H    1     2.5720     4.8604   40 O    0 0 0
   8 H    1     2.7362     5.1707    4 B    0 0 0

   9 H    1     1.0914     2.0624   22 C    0-1 1
   9 H    1     2.1471     4.0575   19 C    0-1 1
   9 H    1     2.1680     4.0970   21 C    0-1 1
   9 H    1     2.5198     4.7618    8 H    0-1 1
   9 H    1     2.5665     4.8500   39 O    0 0-1
   9 H    1     2.7315     5.1618    2 B    0-1 1

  10 H    1     1.0915     2.0626   23 C    0 0 0
  10 H    1     2.1490     4.0610   24 C    0 0 0
  10 H    1     2.1669     4.0948   20 C    0 0 0
  10 H    1     2.5202     4.7625    7 H    0 0 0
  10 H    1     2.5712     4.8588   41 O    0 0 0
  10 H    1     2.7351     5.1686    4 B    0 0 0

  11 H    1     1.0913     2.0623   26 C   -1-1 2
  11 H    1     2.1469     4.0571   25 C   -1-1 2
  11 H    1     2.1680     4.0968   29 C   -1-1 1
  11 H    1     2.5198     4.7617   14 H   -1-1 1
  11 H    1     2.5670     4.8510   38 O   -1-1 2
  11 H    1     2.7310     5.1609    1 B   -1-1 2

  12 H    1     1.0914     2.0625   27 C    0 0 0
  12 H    1     2.1493     4.0617   30 C    0 0 0
  12 H    1     2.1664     4.0939   28 C    0 0 1
  12 H    1     2.5192     4.7606   13 H    0 1-1
  12 H    1     2.5735     4.8632   40 O    0 0 0
  12 H    1     2.7371     5.1723    6 B    0 0 0

  13 H    1     1.0914     2.0624   28 C    0-1 2
  13 H    1     2.1475     4.0581   25 C    0-1 2
  13 H    1     2.1679     4.0967   27 C    0-1 1
  13 H    1     2.5192     4.7606   12 H    0-1 1
  13 H    1     2.5675     4.8519   37 O    1 1-1
  13 H    1     2.7328     5.1643    1 B    0-1 2

  14 H    1     1.0914     2.0625   29 C    0 0 0
  14 H    1     2.1491     4.0612   30 C    0 0 0
  14 H    1     2.1666     4.0942   26 C    0 0 1
  14 H    1     2.5198     4.7617   11 H    1 1-1
  14 H    1     2.5723     4.8609   42 O    0 0 0
  14 H    1     2.7355     5.1693    6 B    0 0 0

  15 H    1     1.0914     2.0624   32 C   -1-1 1
  15 H    1     2.1475     4.0582   31 C   -1-1 1
  15 H    1     2.1678     4.0966   35 C   -1-1 1
  15 H    1     2.5200     4.7621   18 H   -1-1 1
  15 H    1     2.5667     4.8503   39 O    0 0-1
  15 H    1     2.7315     5.1618    3 B    0 0-1

  16 H    1     1.0913     2.0623   33 C    0 0 0
  16 H    1     2.1487     4.0605   36 C    0 0 0
  16 H    1     2.1667     4.0945   34 C    0 0 0
  16 H    1     2.5197     4.7616   17 H    0 0 0
  16 H    1     2.5723     4.8610   41 O    0 0 0
  16 H    1     2.7359     5.1701    5 B    0 0 0

  17 H    1     1.0915     2.0626   34 C    0 0 0
  17 H    1     2.1479     4.0589   31 C    0 0 0
  17 H    1     2.1679     4.0968   33 C    0 0 0
  17 H    1     2.5197     4.7616   16 H    0 0 0
  17 H    1     2.5677     4.8522   37 O    1 1-2
  17 H    1     2.7331     5.1648    3 B    1 1-2

  18 H    1     1.0914     2.0624   35 C    0 0 0
  18 H    1     2.1486     4.0602   36 C    0 0 0
  18 H    1     2.1668     4.0947   32 C    0 0 0
  18 H    1     2.5200     4.7621   15 H    1 1-1
  18 H    1     2.5717     4.8598   42 O    0 0 0
  18 H    1     2.7349     5.1682    5 B    0 0 0

  19 C    1     1.4020     2.6495   22 C    0 0 0
  19 C    1     1.4021     2.6495   20 C    0 0 0
  19 C    1     1.5504     2.9298    2 B    0 0 0
  19 C    1     2.1471     4.0575    9 H    0 1-1
  19 C    1     2.1472     4.0576    7 H    0 0 0
  19 C    1     2.4246     4.5817   21 C    0 0 0

  20 C    1     1.0913     2.0623    7 H    0 0 0
  20 C    1     1.3914     2.6294   23 C    0 0 0
  20 C    1     1.4021     2.6495   19 C    0 0 0
  20 C    1     2.1669     4.0948   10 H    0 0 0
  20 C    1     2.4177     4.5688   22 C    0 0 0
  20 C    1     2.4250     4.5825   24 C    0 0 0

  21 C    1     1.0914     2.0625    8 H    0 0 0
  21 C    1     1.3914     2.6293   22 C    0 0 0
  21 C    1     1.4026     2.6505   24 C    0 0 0
  21 C    1     2.1680     4.0970    9 H    0 1-1
  21 C    1     2.4182     4.5697   23 C    0 0 0
  21 C    1     2.4246     4.5817   19 C    0 0 0

  22 C    1     1.0914     2.0624    9 H    0 1-1
  22 C    1     1.3914     2.6293   21 C    0 0 0
  22 C    1     1.4020     2.6495   19 C    0 0 0
  22 C    1     2.1666     4.0942    8 H    0 0 0
  22 C    1     2.4177     4.5688   20 C    0 0 0
  22 C    1     2.4250     4.5826   24 C    0 0 0

  23 C    1     1.0915     2.0626   10 H    0 0 0
  23 C    1     1.3914     2.6294   20 C    0 0 0
  23 C    1     1.4025     2.6504   24 C    0 0 0
  23 C    1     2.1680     4.0969    7 H    0 0 0
  23 C    1     2.4182     4.5697   21 C    0 0 0
  23 C    1     2.4246     4.5818   19 C    0 0 0

  24 C    1     1.4025     2.6504   23 C    0 0 0
  24 C    1     1.4026     2.6505   21 C    0 0 0
  24 C    1     1.5513     2.9316    4 B    0 0 0
  24 C    1     2.1490     4.0610   10 H    0 0 0
  24 C    1     2.1493     4.0616    8 H    0 0 0
  24 C    1     2.4250     4.5825   20 C    0 0 0

  25 C    1     1.4020     2.6494   26 C    0 0 0
  25 C    1     1.4021     2.6495   28 C    0 0 0
  25 C    1     1.5503     2.9297    1 B    0 0 0
  25 C    1     2.1469     4.0571   11 H    1 1-2
  25 C    1     2.1475     4.0581   13 H    0 1-2
  25 C    1     2.4246     4.5818   27 C    0 0-1

  26 C    1     1.0913     2.0623   11 H    1 1-2
  26 C    1     1.3914     2.6293   29 C    0 0-1
  26 C    1     1.4020     2.6494   25 C    0 0 0
  26 C    1     2.1666     4.0942   14 H    0 0-1
  26 C    1     2.4175     4.5684   28 C    0 0 0
  26 C    1     2.4251     4.5828   30 C    0 0-1

  27 C    1     1.0914     2.0625   12 H    0 0 0
  27 C    1     1.3915     2.6295   28 C    0 0 1
  27 C    1     1.4026     2.6505   30 C    0 0 0
  27 C    1     2.1679     4.0967   13 H    0 1-1
  27 C    1     2.4179     4.5691   29 C    0 0 0
  27 C    1     2.4246     4.5818   25 C    0 0 1

  28 C    1     1.0914     2.0624   13 H    0 1-2
  28 C    1     1.3915     2.6295   27 C    0 0-1
  28 C    1     1.4021     2.6495   25 C    0 0 0
  28 C    1     2.1664     4.0939   12 H    0 0-1
  28 C    1     2.4175     4.5684   26 C    0 0 0
  28 C    1     2.4253     4.5832   30 C    0 0-1

  29 C    1     1.0914     2.0625   14 H    0 0 0
  29 C    1     1.3914     2.6293   26 C    0 0 1
  29 C    1     1.4025     2.6504   30 C    0 0 0
  29 C    1     2.1680     4.0968   11 H    1 1-1
  29 C    1     2.4179     4.5691   27 C    0 0 0
  29 C    1     2.4247     4.5819   25 C    0 0 1

  30 C    1     1.4025     2.6504   29 C    0 0 0
  30 C    1     1.4026     2.6505   27 C    0 0 0
  30 C    1     1.5516     2.9322    6 B    0 0 0
  30 C    1     2.1491     4.0612   14 H    0 0 0
  30 C    1     2.1493     4.0617   12 H    0 0 0
  30 C    1     2.4251     4.5828   26 C    0 0 1

  31 C    1     1.4021     2.6496   32 C    0 0 0
  31 C    1     1.4021     2.6497   34 C    0 0 0
  31 C    1     1.5502     2.9294    3 B    1 1-2
  31 C    1     2.1475     4.0582   15 H    1 1-1
  31 C    1     2.1479     4.0589   17 H    0 0 0
  31 C    1     2.4244     4.5814   33 C    0 0 0

  32 C    1     1.0914     2.0624   15 H    1 1-1
  32 C    1     1.3914     2.6293   35 C    0 0 0
  32 C    1     1.4021     2.6496   31 C    0 0 0
  32 C    1     2.1668     4.0947   18 H    0 0 0
  32 C    1     2.4179     4.5692   34 C    0 0 0
  32 C    1     2.4251     4.5827   36 C    0 0 0

  33 C    1     1.0913     2.0623   16 H    0 0 0
  33 C    1     1.3914     2.6294   34 C    0 0 0
  33 C    1     1.4025     2.6504   36 C    0 0 0
  33 C    1     2.1679     4.0968   17 H    0 0 0
  33 C    1     2.4178     4.5690   35 C    0 0 0
  33 C    1     2.4244     4.5814   31 C    0 0 0

  34 C    1     1.0915     2.0626   17 H    0 0 0
  34 C    1     1.3914     2.6294   33 C    0 0 0
  34 C    1     1.4021     2.6497   31 C    0 0 0
  34 C    1     2.1667     4.0945   16 H    0 0 0
  34 C    1     2.4179     4.5692   32 C    0 0 0
  34 C    1     2.4253     4.5832   36 C    0 0 0

  35 C    1     1.0914     2.0624   18 H    0 0 0
  35 C    1     1.3914     2.6293   32 C    0 0 0
  35 C    1     1.4025     2.6503   36 C    0 0 0
  35 C    1     2.1678     4.0966   15 H    1 1-1
  35 C    1     2.4178     4.5690   33 C    0 0 0
  35 C    1     2.4245     4.5817   31 C    0 0 0

  36 C    1     1.4025     2.6503   35 C    0 0 0
  36 C    1     1.4025     2.6504   33 C    0 0 0
  36 C    1     1.5516     2.9322    5 B    0 0 0
  36 C    1     2.1486     4.0602   18 H    0 0 0
  36 C    1     2.1487     4.0605   16 H    0 0 0
  36 C    1     2.4251     4.5827   32 C    0 0 0

  37 O    1     1.3791     2.6061    1 B   -1-2 3
  37 O    1     1.3791     2.6061    3 B    0 0 0
  37 O    1     2.3880     4.5126   38 O   -1-2 3
  37 O    1     2.3882     4.5130   39 O    0 0 0
  37 O    1     2.5383     4.7966   31 C   -1-1 2
  37 O    1     2.5384     4.7968   25 C   -1-2 3

  38 O    1     1.3793     2.6065    1 B    0 0 0
  38 O    1     1.3793     2.6065    2 B    1 1-1
  38 O    1     2.3880     4.5126   37 O    1 2-3
  38 O    1     2.3882     4.5131   39 O    1 2-3
  38 O    1     2.5391     4.7981   19 C    1 1-1
  38 O    1     2.5395     4.7990   25 C    0 0 0

  39 O    1     1.3793     2.6064    3 B    0 0 0
  39 O    1     1.3793     2.6065    2 B    0-1 2
  39 O    1     2.3882     4.5130   37 O    0 0 0
  39 O    1     2.3882     4.5131   38 O   -1-2 3
  39 O    1     2.5390     4.7980   19 C    0-1 2
  39 O    1     2.5391     4.7982   31 C   -1-1 2

  40 O    1     1.3795     2.6068    6 B    0 0 0
  40 O    1     1.3795     2.6068    4 B    0 0 0
  40 O    1     2.3880     4.5126   42 O    0 0 0
  40 O    1     2.3884     4.5134   41 O    0 0 0
  40 O    1     2.5400     4.7998   24 C    0 0 0
  40 O    1     2.5403     4.8005   30 C    0 0 0

  41 O    1     1.3795     2.6069    5 B    0 0 0
  41 O    1     1.3795     2.6070    4 B    0 0 0
  41 O    1     2.3881     4.5128   42 O    0 0 0
  41 O    1     2.3884     4.5134   40 O    0 0 0
  41 O    1     2.5404     4.8006   24 C    0 0 0
  41 O    1     2.5405     4.8008   36 C    0 0 0

  42 O    1     1.3796     2.6071    6 B    0 0 0
  42 O    1     1.3797     2.6072    5 B    0 0 0
  42 O    1     2.3880     4.5126   40 O    0 0 0
  42 O    1     2.3881     4.5128   41 O    0 0 0
  42 O    1     2.5409     4.8016   36 C    0 0 0
  42 O    1     2.5410     4.8019   30 C    0 0 0


 SYMMETRY ALLOWED INTERNAL DEGREE(S) OF FREEDOM: 123
 TTTTTTTTTTTTTTTTTTTTTTTTTTTTTT SYMM        TELAPSE        0.39 TCPU        0.39
 TTTTTTTTTTTTTTTTTTTTTTTTTTTTTT INT_SCREEN  TELAPSE        0.42 TCPU        0.42

 DFT PARAMETERS

     ATOM       ELECTRONS   NET CHARGE   R(ANGSTROM)
   1   5  B       5.0000      0.0000     0.89000000
   7   1  H       1.0000      0.0000     1.11000000
  19   6  C       6.0000      0.0000     0.77000000
  37   8  O       8.0000      0.0000     0.74000000

 SIZE OF GRID=    1334414
 TTTTTTTTTTTTTTTTTTTTTTTTTTTTTT MAKE_GRID2  TELAPSE        7.77 TCPU        7.77
 BECKE WEIGHT FUNCTION
 RADSAFE =     2.00
 TOLERANCES - DENSITY:10**- 6; POTENTIAL:10**- 9; GRID WGT:10**-14

 RADIAL INTEGRATION  - INTERVALS (POINTS,UPPER LIMIT):            1( 75,  4.0*R)

 ANGULAR INTEGRATION - INTERVALS (ACCURACY LEVEL [N. POINTS] UPPER LIMIT):
  1(  4[  86]   0.2)  2(  8[ 194]   0.5)  3( 12[ 350]   0.9)  4( 16[ 974]   3.5)
  5( 12[ 350]9999.0)
 TTTTTTTTTTTTTTTTTTTTTTTTTTTTTT INT_CALC    TELAPSE        7.84 TCPU        7.83
 EEEEEEEEEE INT_CALC TERMINATION  DATE 19 02 2026 TIME 19:14:13.9

 *******************************************************************************
 cof-1_z42_L070_incl                                                             
 CRYSTAL - SCF - TYPE OF CALCULATION :  RESTRICTED CLOSED SHELL
 *******************************************************************************

 CAPPA:IS1  2;IS2  2;IS3  8; K PTS MONK NET  20; SYMMOPS:K SPACE   2;G SPACE   1

 TTTTTTTTTTTTTTTTTTTTTTTTTTTTTT SDIK        TELAPSE        8.43 TCPU       15.77

 AAAAAAAAAAAAAAAAAAAAAAAAAAAAAAAAAAAAAAAAAAAAAAAAAAAAAAAAAAAAAAAAAAAAAAAAAAAAAAA
         ATOMIC WAVEFUNCTION(S)


 NUCLEAR CHARGE  5.0  SYMMETRY SPECIES            S    P
 N. ELECTRONS    5.0  NUMBER OF PRIMITIVE GTOS    8    4
                      NUMBER OF CONTRACTED GTOS   4    2
                      NUMBER OF CLOSED SHELLS     2    0
                      OPEN SHELL OCCUPATION       0    1

  ZNUC  SCFIT    TOTAL HF ENERGY   KINETIC ENERGY   VIRIAL THEOREM ACCURACY
   5.0    11    -2.451164084E+01  2.462155050E+01 -1.995536038E+00  1.5E-06

 NUCLEAR CHARGE  1.0  SYMMETRY SPECIES            S
 N. ELECTRONS    1.0  NUMBER OF PRIMITIVE GTOS    4
                      NUMBER OF CONTRACTED GTOS   2
                      NUMBER OF CLOSED SHELLS     0
                      OPEN SHELL OCCUPATION       1

  ZNUC  SCFIT    TOTAL HF ENERGY   KINETIC ENERGY   VIRIAL THEOREM ACCURACY
   1.0     1    -4.977266687E-01  5.190767460E-01 -1.958869132E+00  0.0E+00

 NUCLEAR CHARGE  6.0  SYMMETRY SPECIES            S    P
 N. ELECTRONS    6.0  NUMBER OF PRIMITIVE GTOS    8    4
                      NUMBER OF CONTRACTED GTOS   4    2
                      NUMBER OF CLOSED SHELLS     2    0
                      OPEN SHELL OCCUPATION       0    2

  ZNUC  SCFIT    TOTAL HF ENERGY   KINETIC ENERGY   VIRIAL THEOREM ACCURACY
   6.0     9    -3.766704647E+01  3.775180683E+01 -1.997754800E+00  1.1E-06

 NUCLEAR CHARGE  8.0  SYMMETRY SPECIES            S    P
 N. ELECTRONS    8.0  NUMBER OF PRIMITIVE GTOS    8    4
                      NUMBER OF CONTRACTED GTOS   4    2
                      NUMBER OF CLOSED SHELLS     2    0
                      OPEN SHELL OCCUPATION       0    4

  ZNUC  SCFIT    TOTAL HF ENERGY   KINETIC ENERGY   VIRIAL THEOREM ACCURACY
   8.0    12    -7.477373220E+01  7.477365593E+01 -2.000001020E+00  3.8E-06

 AAAAAAAAAAAAAAAAAAAAAAAAAAAAAAAAAAAAAAAAAAAAAAAAAAAAAAAAAAAAAAAAAAAAAAAAAAAAAAA

 CHARGE NORMALIZATION FACTOR   1.00000000
 TOTAL ATOMIC CHARGES:
   5.0000000   5.0000000   5.0000000   5.0000000   5.0000000   5.0000000
   1.0000000   1.0000000   1.0000000   1.0000000   1.0000000   1.0000000
   1.0000000   1.0000000   1.0000000   1.0000000   1.0000000   1.0000000
   6.0000000   6.0000000   6.0000000   6.0000000   6.0000000   6.0000000
   6.0000000   6.0000000   6.0000000   6.0000000   6.0000000   6.0000000
   6.0000000   6.0000000   6.0000000   6.0000000   6.0000000   6.0000000
   8.0000000   8.0000000   8.0000000   8.0000000   8.0000000   8.0000000
 TTTTTTTTTTTTTTTTTTTTTTTTTTTTTT MOQGAD      TELAPSE        8.47 TCPU       17.02
 TTTTTTTTTTTTTTTTTTTTTTTTTTTTTT SHELLXN     TELAPSE       13.46 TCPU      175.94
 TTTTTTTTTTTTTTTTTTTTTTTTTTTTTT MONMO3      TELAPSE       13.58 TCPU      180.01
 NUMERICALLY INTEGRATED DENSITY    198.0000018203
 TTTTTTTTTTTTTTTTTTTTTTTTTTTTTT NUMDFT      TELAPSE       14.12 TCPU      197.35
 CYC   0 ETOT(AU) -1.295954489819E+03 DETOT -1.30E+03 tst  0.00E+00 PX  1.00E+00
 TTTTTTTTTTTTTTTTTTTTTTTTTTTTTT DIIS        TELAPSE       14.16 TCPU      198.43
 TTTTTTTTTTTTTTTTTTTTTTTTTTTTTT FDIK        TELAPSE       14.64 TCPU      213.67
 INSULATING STATE
 TOP OF VALENCE BANDS -    BAND     99; K    1; EIG -3.1338233E-01 AU
 BOTTOM OF VIRTUAL BANDS - BAND    100; K    1; EIG -1.5638457E-01 AU
 DIRECT ENERGY BAND GAP:   4.2721 eV
 TTTTTTTTTTTTTTTTTTTTTTTTTTTTTT PDIG        TELAPSE       14.96 TCPU      219.72
 CHARGE NORMALIZATION FACTOR   1.00000000
 TOTAL ATOMIC CHARGES:
   4.1589905   4.1657526   4.1660457   4.1655837   4.1653250   4.1584845
   0.7851171   0.7852365   0.7850714   0.7852035   0.7853277   0.7854984
   0.7853143   0.7854576   0.7850741   0.7852708   0.7850673   0.7852297
   6.0430057   6.2653327   6.2653112   6.2651553   6.2651374   6.0423794
   6.0446717   6.2652122   6.2653457   6.2651303   6.2653462   6.0434275
   6.0433973   6.2649140   6.2655008   6.2649541   6.2655895   6.0419305
   8.6923264   8.6925134   8.6920713   8.6927828   8.6924993   8.6930144
 TTTTTTTTTTTTTTTTTTTTTTTTTTTTTT MOQGAD      TELAPSE       15.00 TCPU      219.76
 TTTTTTTTTTTTTTTTTTTTTTTTTTTTTT SHELLXN     TELAPSE       20.17 TCPU      384.62
 TTTTTTTTTTTTTTTTTTTTTTTTTTTTTT MONMO3      TELAPSE       20.30 TCPU      388.67
 NUMERICALLY INTEGRATED DENSITY    198.0000132154
 TTTTTTTTTTTTTTTTTTTTTTTTTTTTTT NUMDFT      TELAPSE       20.85 TCPU      406.20
 CYC   1 ETOT(AU) -1.288811022985E+03 DETOT  7.14E+00 tst  0.00E+00 PX  1.00E+00
 TTTTTTTTTTTTTTTTTTTTTTTTTTTTTT DIIS        TELAPSE       20.89 TCPU      407.69
 DIIS TEST: 0.11143E+01 AT SCF   CYCLE   1 - MIX   30 %
 TTTTTTTTTTTTTTTTTTTTTTTTTTTTTT FDIK        TELAPSE       21.38 TCPU      423.28
 INSULATING STATE
 TOP OF VALENCE BANDS -    BAND     99; K    1; EIG -2.2508627E-01 AU
 BOTTOM OF VIRTUAL BANDS - BAND    100; K    1; EIG -8.0873416E-02 AU
 DIRECT ENERGY BAND GAP:   3.9242 eV
 TTTTTTTTTTTTTTTTTTTTTTTTTTTTTT PDIG        TELAPSE       21.70 TCPU      429.34
 CHARGE NORMALIZATION FACTOR   1.00000000
 TOTAL ATOMIC CHARGES:
   4.7161305   4.7079482   4.7083613   4.7082036   4.7079065   4.7165507
   0.9088985   0.9089849   0.9100041   0.9098683   0.9068285   0.9070017
   0.9068931   0.9069190   0.9099428   0.9099388   0.9089490   0.9089658
   5.8677682   6.1389666   6.1395383   6.1309951   6.1311674   5.8702874
   5.8813875   6.1268521   6.1280509   6.1272435   6.1279224   5.8847710
   5.8677363   6.1310299   6.1312091   6.1393630   6.1389688   5.8702437
   8.3346183   8.3349424   8.3298144   8.3345934   8.3293331   8.3349019
 TTTTTTTTTTTTTTTTTTTTTTTTTTTTTT MOQGAD      TELAPSE       21.74 TCPU      429.38
 TTTTTTTTTTTTTTTTTTTTTTTTTTTTTT SHELLXN     TELAPSE       26.92 TCPU      594.35
 TTTTTTTTTTTTTTTTTTTTTTTTTTTTTT MONMO3      TELAPSE       27.05 TCPU      598.41
 NUMERICALLY INTEGRATED DENSITY    198.0000142137
 TTTTTTTTTTTTTTTTTTTTTTTTTTTTTT NUMDFT      TELAPSE       27.60 TCPU      616.01
 CYC   2 ETOT(AU) -1.289006157323E+03 DETOT -1.95E-01 tst  3.61E-03 PX  1.59E-01
 TTTTTTTTTTTTTTTTTTTTTTTTTTTTTT DIIS        TELAPSE       27.65 TCPU      617.48
 DIIS TEST: 0.46186E+00 AT SCF   CYCLE   2 - DIIS ACTIVE - HISTORY:     2 CYCLES
 TTTTTTTTTTTTTTTTTTTTTTTTTTTTTT FDIK        TELAPSE       28.13 TCPU      633.03
 INSULATING STATE
 TOP OF VALENCE BANDS -    BAND     99; K    1; EIG -2.3838286E-01 AU
 BOTTOM OF VIRTUAL BANDS - BAND    100; K    1; EIG -7.5310503E-02 AU
 DIRECT ENERGY BAND GAP:   4.4374 eV
 TTTTTTTTTTTTTTTTTTTTTTTTTTTTTT PDIG        TELAPSE       28.45 TCPU      639.09
 CHARGE NORMALIZATION FACTOR   1.00000000
 TOTAL ATOMIC CHARGES:
   4.5055058   4.5029209   4.5032777   4.5030795   4.5027277   4.5054918
   0.8874281   0.8876582   0.8882852   0.8882134   0.8847773   0.8852236
   0.8848877   0.8851097   0.8882190   0.8882949   0.8875465   0.8875458
   5.8910801   6.1606121   6.1602528   6.1602141   6.1601530   5.8908920
   5.8906815   6.1613854   6.1609953   6.1612684   6.1610726   5.8895273
   5.8911173   6.1602192   6.1602424   6.1603279   6.1604033   5.8908059
   8.5093953   8.5097255   8.5118206   8.5096211   8.5120535   8.5099405
 TTTTTTTTTTTTTTTTTTTTTTTTTTTTTT MOQGAD      TELAPSE       28.49 TCPU      639.13
 TTTTTTTTTTTTTTTTTTTTTTTTTTTTTT SHELLXN     TELAPSE       33.67 TCPU      804.13
 TTTTTTTTTTTTTTTTTTTTTTTTTTTTTT MONMO3      TELAPSE       33.80 TCPU      808.18
 NUMERICALLY INTEGRATED DENSITY    198.0000146743
 TTTTTTTTTTTTTTTTTTTTTTTTTTTTTT NUMDFT      TELAPSE       34.35 TCPU      825.73
 CYC   3 ETOT(AU) -1.289101463967E+03 DETOT -9.53E-02 tst  6.70E-04 PX  6.43E-02
 TTTTTTTTTTTTTTTTTTTTTTTTTTTTTT DIIS        TELAPSE       34.40 TCPU      827.55
 DIIS TEST: 0.13348E-01 AT SCF   CYCLE   3 - DIIS ACTIVE - HISTORY:     3 CYCLES
 TTTTTTTTTTTTTTTTTTTTTTTTTTTTTT FDIK        TELAPSE       34.89 TCPU      843.12
 INSULATING STATE
 TOP OF VALENCE BANDS -    BAND     99; K    1; EIG -2.4790775E-01 AU
 BOTTOM OF VIRTUAL BANDS - BAND    100; K    1; EIG -8.3964163E-02 AU
 DIRECT ENERGY BAND GAP:   4.4611 eV
 TTTTTTTTTTTTTTTTTTTTTTTTTTTTTT PDIG        TELAPSE       35.21 TCPU      849.18
 CHARGE NORMALIZATION FACTOR   1.00000000
 TOTAL ATOMIC CHARGES:
   4.5112780   4.5077751   4.5081489   4.5078356   4.5074573   4.5112565
   0.8702671   0.8703488   0.8713469   0.8712914   0.8682755   0.8684400
   0.8683414   0.8683678   0.8713196   0.8713589   0.8703173   0.8703139
   5.9383969   6.1694813   6.1700364   6.1644383   6.1646860   5.9399840
   5.9466898   6.1628360   6.1638755   6.1630520   6.1636957   5.9488740
   5.9385957   6.1643108   6.1648684   6.1696474   6.1697318   5.9397305
   8.4784556   8.4786883   8.4745005   8.4785785   8.4742879   8.4788187
 TTTTTTTTTTTTTTTTTTTTTTTTTTTTTT MOQGAD      TELAPSE       35.25 TCPU      849.22
 TTTTTTTTTTTTTTTTTTTTTTTTTTTTTT SHELLXN     TELAPSE       40.43 TCPU     1014.23
 TTTTTTTTTTTTTTTTTTTTTTTTTTTTTT MONMO3      TELAPSE       40.56 TCPU     1018.29
 NUMERICALLY INTEGRATED DENSITY    198.0000144805
 TTTTTTTTTTTTTTTTTTTTTTTTTTTTTT NUMDFT      TELAPSE       41.11 TCPU     1035.91
 CYC   4 ETOT(AU) -1.289104268747E+03 DETOT -2.80E-03 tst  2.93E-05 PX  1.35E-02
 TTTTTTTTTTTTTTTTTTTTTTTTTTTTTT DIIS        TELAPSE       41.16 TCPU     1037.73
 DIIS TEST: 0.39784E-02 AT SCF   CYCLE   4 - DIIS ACTIVE - HISTORY:     4 CYCLES
 TTTTTTTTTTTTTTTTTTTTTTTTTTTTTT FDIK        TELAPSE       41.65 TCPU     1053.29
 INSULATING STATE
 TOP OF VALENCE BANDS -    BAND     99; K    1; EIG -2.4612479E-01 AU
 BOTTOM OF VIRTUAL BANDS - BAND    100; K    1; EIG -8.3636018E-02 AU
 DIRECT ENERGY BAND GAP:   4.4215 eV
 TTTTTTTTTTTTTTTTTTTTTTTTTTTTTT PDIG        TELAPSE       41.97 TCPU     1059.34
 CHARGE NORMALIZATION FACTOR   1.00000000
 TOTAL ATOMIC CHARGES:
   4.5143758   4.5096488   4.5100442   4.5098460   4.5094769   4.5144768
   0.8734229   0.8736136   0.8743663   0.8743206   0.8710331   0.8714052
   0.8711284   0.8713061   0.8743100   0.8744036   0.8735178   0.8735337
   5.9209197   6.1687302   6.1685910   6.1654255   6.1653182   5.9211986
   5.9260957   6.1648894   6.1648305   6.1648558   6.1648824   5.9259160
   5.9209198   6.1654148   6.1654092   6.1685752   6.1686043   5.9211292
   8.4872165   8.4875491   8.4870978   8.4873738   8.4871247   8.4877029
 TTTTTTTTTTTTTTTTTTTTTTTTTTTTTT MOQGAD      TELAPSE       42.01 TCPU     1059.38
 TTTTTTTTTTTTTTTTTTTTTTTTTTTTTT SHELLXN     TELAPSE       47.19 TCPU     1224.47
 TTTTTTTTTTTTTTTTTTTTTTTTTTTTTT MONMO3      TELAPSE       47.32 TCPU     1228.53
 NUMERICALLY INTEGRATED DENSITY    198.0000144769
 TTTTTTTTTTTTTTTTTTTTTTTTTTTTTT NUMDFT      TELAPSE       47.86 TCPU     1246.04
 CYC   5 ETOT(AU) -1.289105180565E+03 DETOT -9.12E-04 tst  6.97E-06 PX  6.64E-03
 TTTTTTTTTTTTTTTTTTTTTTTTTTTTTT DIIS        TELAPSE       47.93 TCPU     1248.20
 DIIS TEST: 0.64671E-04 AT SCF   CYCLE   5 - DIIS ACTIVE - HISTORY:     5 CYCLES
 TTTTTTTTTTTTTTTTTTTTTTTTTTTTTT FDIK        TELAPSE       48.42 TCPU     1263.82
 INSULATING STATE
 TOP OF VALENCE BANDS -    BAND     99; K    1; EIG -2.4596322E-01 AU
 BOTTOM OF VIRTUAL BANDS - BAND    100; K    1; EIG -8.3057401E-02 AU
 DIRECT ENERGY BAND GAP:   4.4329 eV
 TTTTTTTTTTTTTTTTTTTTTTTTTTTTTT PDIG        TELAPSE       48.74 TCPU     1269.87
 CHARGE NORMALIZATION FACTOR   1.00000000
 TOTAL ATOMIC CHARGES:
   4.5136011   4.5098035   4.5101803   4.5098687   4.5095102   4.5135542
   0.8743080   0.8744178   0.8752422   0.8751574   0.8720277   0.8722447
   0.8720951   0.8721739   0.8752003   0.8752255   0.8743677   0.8743724
   5.9204307   6.1681439   6.1685228   6.1646623   6.1649681   5.9217216
   5.9249437   6.1640228   6.1648639   6.1642053   6.1646918   5.9264317
   5.9206369   6.1645712   6.1651342   6.1682320   6.1682954   5.9214546
   8.4873027   8.4875363   8.4853880   8.4874655   8.4853247   8.4876991
 TTTTTTTTTTTTTTTTTTTTTTTTTTTTTT MOQGAD      TELAPSE       48.78 TCPU     1269.91
 TTTTTTTTTTTTTTTTTTTTTTTTTTTTTT SHELLXN     TELAPSE       53.98 TCPU     1434.92
 TTTTTTTTTTTTTTTTTTTTTTTTTTTTTT MONMO3      TELAPSE       54.10 TCPU     1438.97
 NUMERICALLY INTEGRATED DENSITY    198.0000144975
 TTTTTTTTTTTTTTTTTTTTTTTTTTTTTT NUMDFT      TELAPSE       54.66 TCPU     1456.60
 CYC   6 ETOT(AU) -1.289105199322E+03 DETOT -1.88E-05 tst  1.76E-07 PX  1.07E-03
 TTTTTTTTTTTTTTTTTTTTTTTTTTTTTT DIIS        TELAPSE       54.72 TCPU     1458.76
 DIIS TEST: 0.58654E-05 AT SCF   CYCLE   6 - DIIS ACTIVE - HISTORY:     6 CYCLES
 TTTTTTTTTTTTTTTTTTTTTTTTTTTTTT FDIK        TELAPSE       55.21 TCPU     1474.47
 INSULATING STATE
 TOP OF VALENCE BANDS -    BAND     99; K    1; EIG -2.4594619E-01 AU
 BOTTOM OF VIRTUAL BANDS - BAND    100; K    1; EIG -8.3148121E-02 AU
 DIRECT ENERGY BAND GAP:   4.4300 eV
 TTTTTTTTTTTTTTTTTTTTTTTTTTTTTT PDIG        TELAPSE       55.54 TCPU     1480.53
 CHARGE NORMALIZATION FACTOR   1.00000000
 TOTAL ATOMIC CHARGES:
   4.5140536   4.5096877   4.5100776   4.5098832   4.5095132   4.5141372
   0.8742649   0.8744466   0.8752258   0.8751851   0.8718978   0.8722660
   0.8719957   0.8721638   0.8751719   0.8752655   0.8743606   0.8743657
   5.9210749   6.1680858   6.1679906   6.1647495   6.1646119   5.9213772
   5.9262888   6.1641763   6.1641347   6.1641321   6.1641951   5.9262322
   5.9210680   6.1647239   6.1647149   6.1679329   6.1680033   5.9213199
   8.4868801   8.4872161   8.4863603   8.4870392   8.4863568   8.4873735
 TTTTTTTTTTTTTTTTTTTTTTTTTTTTTT MOQGAD      TELAPSE       55.57 TCPU     1480.57
 TTTTTTTTTTTTTTTTTTTTTTTTTTTTTT SHELLXN     TELAPSE       60.75 TCPU     1645.42
 TTTTTTTTTTTTTTTTTTTTTTTTTTTTTT MONMO3      TELAPSE       60.88 TCPU     1649.48
 NUMERICALLY INTEGRATED DENSITY    198.0000144960
 TTTTTTTTTTTTTTTTTTTTTTTTTTTTTT NUMDFT      TELAPSE       61.42 TCPU     1667.00
 CYC   7 ETOT(AU) -1.289105199767E+03 DETOT -4.45E-07 tst  1.38E-08 PX  4.08E-04
 TTTTTTTTTTTTTTTTTTTTTTTTTTTTTT DIIS        TELAPSE       61.50 TCPU     1669.52
 DIIS TEST: 0.11884E-05 AT SCF   CYCLE   7 - DIIS ACTIVE - HISTORY:     7 CYCLES
 TTTTTTTTTTTTTTTTTTTTTTTTTTTTTT FDIK        TELAPSE       62.00 TCPU     1685.27
 INSULATING STATE
 TOP OF VALENCE BANDS -    BAND     99; K    1; EIG -2.4595601E-01 AU
 BOTTOM OF VIRTUAL BANDS - BAND    100; K    1; EIG -8.3152526E-02 AU
 DIRECT ENERGY BAND GAP:   4.4301 eV
 TTTTTTTTTTTTTTTTTTTTTTTTTTTTTT PDIG        TELAPSE       62.32 TCPU     1691.33
 CHARGE NORMALIZATION FACTOR   1.00000000
 TOTAL ATOMIC CHARGES:
   4.5140372   4.5097960   4.5101804   4.5099214   4.5095574   4.5140609
   0.8742479   0.8743966   0.8752038   0.8751341   0.8719139   0.8722031
   0.8719938   0.8721193   0.8751545   0.8752101   0.8743244   0.8743350
   5.9207310   6.1680880   6.1682199   6.1646352   6.1647625   5.9215637
   5.9256947   6.1640286   6.1644519   6.1641178   6.1643779   5.9263991
   5.9208493   6.1645852   6.1648892   6.1680668   6.1681007   5.9213818
   8.4870826   8.4873603   8.4860431   8.4872396   8.4860261   8.4875153
 TTTTTTTTTTTTTTTTTTTTTTTTTTTTTT MOQGAD      TELAPSE       62.36 TCPU     1691.37
 TTTTTTTTTTTTTTTTTTTTTTTTTTTTTT SHELLXN     TELAPSE       67.54 TCPU     1856.35
 +++ ENERGIES IN A.U. +++
 ::: EXT EL-POLE                                  -1.2615230207378E+03
 ::: EXT EL-SPHEROPOLE                             1.3607473714769E+01
 ::: BIELET ZONE E-E                               1.9696636629704E+03
 ::: TOTAL E-E                                     7.2174811594732E+02
 ::: TOTAL E-N + N-E                              -3.2745270511830E+03
 ::: TOTAL N-N                                     1.1744311672320E+02
 ::: KINETIC ENERGY                                1.2799509760015E+03
 ::: PSEUDO TOTAL   ENERGY                        -1.1553848425110E+03
 ::: VIRIAL COEFFICIENT                            1.0511494688099E+00
 TTTTTTTTTTTTTTTTTTTTTTTTTTTTTT MONMO3      TELAPSE       67.67 TCPU     1860.41
 NUMERICALLY INTEGRATED DENSITY    198.0000144960
 EXCHANGE ENERGY: -0.126030621257E+03  CORRELATION ENERGY: -0.768973621592E+01
 TTTTTTTTTTTTTTTTTTTTTTTTTTTTTT NUMDFT      TELAPSE       68.22 TCPU     1878.06
 CYC   8 ETOT(AU) -1.289105199984E+03 DETOT -2.17E-07 tst  3.38E-09 PX  4.08E-04

 == SCF ENDED - CONVERGENCE ON ENERGY      E(AU) -1.2891051999837E+03 CYCLES   8


 ENERGY EXPRESSION=HARTREE+FOCK EXCH*0.00000+(HSESOL     EXCH)*1.00000+PBESOL     CORR


 TOTAL ENERGY(DFT)(AU)(  8) -1.2891051999837E+03 DE-2.2E-07 tester 3.4E-09
 TTTTTTTTTTTTTTTTTTTTTTTTTTTTTT EDFT        TELAPSE       68.22 TCPU     1878.07
 
 INFORMATION **** DFTD3 ENERGY **** CALCULATE DFTD3 ENERGY

           DFT-D V3(BJ)
 DF                                         hsesol3c  
 parameters
 s6       :    1.0000
 s8       :    0.0000
 a1       :    0.5196
 a2       :    4.9385
 k1 k3    :   16.0000   -4.0000
 Cutoff   :   50.2022
 CN-Cutoff:   21.1671
 ABC-Cutoff:   21.1671
 
 Edisp /kcal,au:   -22.2188 -0.03540787

 E6    /kcal :   -23.2801
 E8    /kcal :     0.0000
 E6(ABC) "   :   1.061367
 
 INFORMATION **** DFTD3 ENERGY **** NORMAL TERMINATION OF DFTD3 MODULE

 GCP ENERGY CALCULATION
  level        hsesol3c            basis:hsesol3c
  Nbf            474
  Atoms           42

  Parameters: 
  sigma     1.0000
  eta       1.4281
  alpha     0.2936
  beta      1.9467

  dmp_scal      4.0000
  dmp_exp       6.0000
 cutoffs: 
   distance [bohr] 60.0
   noise    [a.u.] 2.2E-16
 SR-damping   T
 ** gCP correction **
  Egcp:        0.0829285744 / (a.u.) ||      52.0385 / (kcal/mol)
 INFORMATION **** GCP **** NORMAL TERMINATION OF GCP MODULE

 *******************************************************************************

 DFT-D3-GCP DISPERSION AND COUNTERPOISE CORRECTION

 D3 DISPERSION ENERGY (AU)      -3.5407866663441E-02
 GCP ENERGY (AU)                 8.2928574423410E-02
 TOTAL ENERGY + DISP + GCP (AU) -1.2890576792759E+03

 *******************************************************************************

 EIGENVECTORS IN FORTRAN UNIT  8
 TTTTTTTTTTTTTTTTTTTTTTTTTTTTTT END         TELAPSE       69.48 TCPU     1885.07
 EEEEEEEEEE TERMINATION  DATE 19 02 2026 TIME 19:15:15.5
