 Default number of threads is:           32

         
 *******************************************************************************
 *                                                                             *
 *                               CRYSTAL23                                     *
 *                      public : 1.0.1 - October 2022                          *
 *                       HTTP://WWW.CRYSTAL.UNITO.IT                           *
 *                                                                             *
 *                              MAIN AUTHORS                                   *
 *                                                                             *
 *  R. DOVESI(1,11), V.R. SAUNDERS(2), C. ROETTI(1,11), R. ORLANDO(1,11),      *
 *  C.M. ZICOVICH-WILSON(1,3), F. PASCALE(4), B. CIVALLERI(1,11),              *
 *  K. DOLL(5), N.M. HARRISON(6), I.J. BUSH(7), Ph. D'ARCO(8),                 *
 *  M. LLUNELL(9), M. CAUSA'(10), Y. NOEL(8), L. MASCHIO(1,11), A. ERBA(1,11)  *
 *  M. RE'RAT(14), S. CASASSA(1,11), B.G. SEARLE(2), J.K. DESMARAIS(1)         *
 *                                                                             *
 *        CONTRIBUTIONS TO THE CODE HAVE ALSO BEEN GIVEN BY                    *
 *                                                                             *
 *  M. FERRABONE(1,11), M. DE LA PIERRE(1,11), M. FERRERO(1,11),               *
 *  J. BAIMA(1,11), E. ALBANESE(1,11), M.F. PEINTINGER(12), R. BAST(13),       *
 *  B. KIRTMAN(15), V. LACIVITA(1,11), R. DEMICHELIS(1,16)                     *
 *  G. BRANDEBURG(17), S. SALUSTRO(1,11), G. SANSONE(1,11)                     *
 *  M.T. RUGGIERO(18), L.E. DAGA(1), L. DONA'(1), A. COSSARD(1)                *
 *                                                                             *
 * (1) THEORETICAL CHEMISTRY GROUP - UNIVERSITA' DI TORINO - TORINO (ITALY)    *
 * (2) SCIENTIFIC COMPUTING DEPARTMENT - STFC DARESBURY (UK)                   *
 * (3) UNIVERSIDAD AUTONOMA DEL ESTADO DE MORELOS - CUERNAVACA (MEXICO)        *
 * (4) UNIVERSITE' DE LORRAINE - NANCY (FRANCE)                                *
 * (5) UNIVERSITAET STUTTGART- STUTTGART (GERMANY)                             *
 * (6) IMPERIAL COLLEGE - LONDON (UK)                                          *
 * (7) SCIENTIFIC COMPUTING DEPARTMENT - STFC RAL (UK)                         *
 * (8) UPMC - SORBONNE UNIVERSITES - PARIS (FRANCE)                            *
 * (9) UNIVERSIDAD DE BARCELONA - BARCELONA (SPAIN)                            *
 *(10) UNIVERSITA' DI NAPOLI "FEDERICO II" - NAPOLI (ITALY)                    *
 *(11) NIS - NANOSTRUCTURED INTERFACES AND SURFACES - TORINO (ITALY)           *
 *(12) MPI FUER CHEMISCHE ENERGIEKONVERSION - MUELHEIM AN DER RUHR (GERMANY)   *
 *(13) UNIVERSITY OF TROMSO - TROMSO (NORWAY)                                  *
 *(14) UNIVERSITE' DE PAU ET DES PAYS DE L'ADOUR - PAU (FRANCE)                *
 *(15) UNIVERSITY OF CALIFORNIA SANTA BARBARA - SANTA BARBARA (USA)            *
 *(16) CURTIN UNIVERSITY - PERTH (AUSTRALIA)                                   *
 *(17) UNIVERSITY COLLEGE LONDON - LONDON (UK)                                 *
 *(18) UNIVERSITY OF VERMONT - BURLINGTON (USA)                                *
 *                                                                             *
 *******************************************************************************
 EEEEEEEEEE STARTING  DATE 19 02 2026 TIME 17:57:32.8
 cof-1_z32_L000_incl                                                             

 CRYSTAL CALCULATION
 (INPUT ACCORDING TO THE INTERNATIONAL TABLES FOR X-RAY CRYSTALLOGRAPHY)
 CRYSTAL FAMILY                       :  TRICLINIC   
 CRYSTAL CLASS  (GROTH - 1921)        :  TRICLINIC PEDIAL                     

 SPACE GROUP (NONCENTROSYMMETRIC)     :  P 1             

 LATTICE PARAMETERS  (ANGSTROMS AND DEGREES) - CONVENTIONAL CELL
        A           B           C        ALPHA        BETA       GAMMA
    15.02361    15.02392     3.20000    90.00032    89.99994   119.99596


 NUMBER OF IRREDUCIBLE ATOMS IN THE CONVENTIONAL CELL:   42

 INPUT COORDINATES

 ATOM AT. N.              COORDINATES
   1   5     6.136805400000E-01  2.273182200000E-01  5.014927300000E-01
   2   5     7.727362000000E-01  3.863778800000E-01  5.014927500000E-01
   3   5     6.136762700000E-01  3.863606700000E-01  4.983542500000E-01
   4   5     2.272552500000E-01  6.136332200000E-01  5.014927400000E-01
   5   5     3.863632200000E-01  6.136124500000E-01  5.014927300000E-01
   6   5     3.863435000000E-01  7.727516500000E-01  4.983542500000E-01
   7   1     9.030436200000E-01  3.089300500000E-01  4.949860100000E-01
   8   1     9.663453000000E-02  6.910534400000E-01  4.939910200000E-01
   9   1     9.029714200000E-01  5.940724300000E-01  4.938378800000E-01
  10   1     9.673618000000E-02  4.056849400000E-01  4.938760800000E-01
  11   1     6.910324000000E-01  9.700412000000E-02  5.050140400000E-01
  12   1     3.089297200000E-01  9.034373100000E-01  5.060090900000E-01
  13   1     4.058699900000E-01  9.704998000000E-02  5.061623200000E-01
  14   1     5.943122100000E-01  9.033473200000E-01  5.061238700000E-01
  15   1     6.910727400000E-01  5.940542100000E-01  4.949860600000E-01
  16   1     3.089618300000E-01  4.056093300000E-01  4.939909500000E-01
  17   1     4.058405700000E-01  3.088232500000E-01  4.938377600000E-01
  18   1     5.942908800000E-01  6.909579300000E-01  4.938762000000E-01
  19   6     8.918903100000E-01  4.459436900000E-01  4.982394100000E-01
  20   6     9.464891100000E-01  3.927856300000E-01  4.951391300000E-01
  21   6     5.338812000000E-02  6.071853000000E-01  4.948713000000E-01
  22   6     9.464521100000E-01  5.536921900000E-01  4.956750600000E-01
  23   6     5.342634000000E-02  4.462499700000E-01  4.936081600000E-01
  24   6     1.080358900000E-01  5.540356300000E-01  4.957133000000E-01
  25   6     5.540394200000E-01  1.081684600000E-01  5.017606700000E-01
  26   6     6.071778500000E-01  5.355594000000E-02  5.048609000000E-01
  27   6     3.927986700000E-01  9.466631600000E-01  5.051288200000E-01
  28   6     4.462875800000E-01  5.360286000000E-02  5.043250900000E-01
  29   6     5.537168500000E-01  9.466235600000E-01  5.063918400000E-01
  30   6     4.459279100000E-01  8.919920600000E-01  5.042867700000E-01
  31   6     5.540448700000E-01  4.458745500000E-01  4.982394000000E-01
  32   6     6.072102200000E-01  5.536257800000E-01  4.951391900000E-01
  33   6     3.928233700000E-01  4.461720300000E-01  4.948712400000E-01
  34   6     4.462872600000E-01  3.926899900000E-01  4.956749800000E-01
  35   6     5.537429600000E-01  6.070980000000E-01  4.936082400000E-01
  36   6     4.459599800000E-01  5.539582300000E-01  4.957133000000E-01
  37   8     5.607366800000E-01  2.803706300000E-01  4.991962700000E-01
  38   8     7.196817000000E-01  2.803783300000E-01  5.058177300000E-01
  39   8     7.196794200000E-01  4.393234600000E-01  4.958281500000E-01
  40   8     2.803245100000E-01  7.196511100000E-01  4.991963000000E-01
  41   8     2.803439700000E-01  5.606956100000E-01  5.058177300000E-01
  42   8     4.392638400000E-01  7.196354200000E-01  4.958281300000E-01

 *******************************************************************************

 << INFORMATION >>: FROM NOW ON, ALL COORDINATES REFER TO THE PRIMITIVE CELL

 *******************************************************************************

 LATTICE PARAMETERS  (ANGSTROMS AND DEGREES) - PRIMITIVE CELL
       A          B          C        ALPHA      BETA     GAMMA        VOLUME
   15.02361   15.02392    3.20000    90.00032  89.99994 119.99596    625.540954

 COORDINATES OF THE EQUIVALENT ATOMS (FRACTIONAL UNITS)

 N. ATOM EQUIV AT. N.          X                  Y                  Z

   1   1   1    5 B    -3.86319460000E-01  2.27318220000E-01 -4.98507270000E-01

   2   2   1    5 B    -2.27263800000E-01  3.86377880000E-01 -4.98507250000E-01

   3   3   1    5 B    -3.86323730000E-01  3.86360670000E-01  4.98354250000E-01

   4   4   1    5 B     2.27255250000E-01 -3.86366780000E-01 -4.98507260000E-01

   5   5   1    5 B     3.86363220000E-01 -3.86387550000E-01 -4.98507270000E-01

   6   6   1    5 B     3.86343500000E-01 -2.27248350000E-01  4.98354250000E-01

   7   7   1    1 H    -9.69563800000E-02  3.08930050000E-01  4.94986010000E-01

   8   8   1    1 H     9.66345300000E-02 -3.08946560000E-01  4.93991020000E-01

   9   9   1    1 H    -9.70285800000E-02 -4.05927570000E-01  4.93837880000E-01

  10  10   1    1 H     9.67361800000E-02  4.05684940000E-01  4.93876080000E-01

  11  11   1    1 H    -3.08967600000E-01  9.70041200000E-02 -4.94985960000E-01

  12  12   1    1 H     3.08929720000E-01 -9.65626900000E-02 -4.93990910000E-01

  13  13   1    1 H     4.05869990000E-01  9.70499800000E-02 -4.93837680000E-01

  14  14   1    1 H    -4.05687790000E-01 -9.66526800000E-02 -4.93876130000E-01

  15  15   1    1 H    -3.08927260000E-01 -4.05945790000E-01  4.94986060000E-01

  16  16   1    1 H     3.08961830000E-01  4.05609330000E-01  4.93990950000E-01

  17  17   1    1 H     4.05840570000E-01  3.08823250000E-01  4.93837760000E-01

  18  18   1    1 H    -4.05709120000E-01 -3.09042070000E-01  4.93876200000E-01

  19  19   1    6 C    -1.08109690000E-01  4.45943690000E-01  4.98239410000E-01

  20  20   1    6 C    -5.35108900000E-02  3.92785630000E-01  4.95139130000E-01

  21  21   1    6 C     5.33881200000E-02 -3.92814700000E-01  4.94871300000E-01

  22  22   1    6 C    -5.35478900000E-02 -4.46307810000E-01  4.95675060000E-01

  23  23   1    6 C     5.34263400000E-02  4.46249970000E-01  4.93608160000E-01

  24  24   1    6 C     1.08035890000E-01 -4.45964370000E-01  4.95713300000E-01

  25  25   1    6 C    -4.45960580000E-01  1.08168460000E-01 -4.98239330000E-01

  26  26   1    6 C    -3.92822150000E-01  5.35559400000E-02 -4.95139100000E-01

  27  27   1    6 C     3.92798670000E-01 -5.33368400000E-02 -4.94871180000E-01

  28  28   1    6 C     4.46287580000E-01  5.36028600000E-02 -4.95674910000E-01

  29  29   1    6 C    -4.46283150000E-01 -5.33764400000E-02 -4.93608160000E-01

  30  30   1    6 C     4.45927910000E-01 -1.08007940000E-01 -4.95713230000E-01

  31  31   1    6 C    -4.45955130000E-01  4.45874550000E-01  4.98239400000E-01

  32  32   1    6 C    -3.92789780000E-01 -4.46374220000E-01  4.95139190000E-01

  33  33   1    6 C     3.92823370000E-01  4.46172030000E-01  4.94871240000E-01

  34  34   1    6 C     4.46287260000E-01  3.92689990000E-01  4.95674980000E-01

  35  35   1    6 C    -4.46257040000E-01 -3.92902000000E-01  4.93608240000E-01

  36  36   1    6 C     4.45959980000E-01 -4.46041770000E-01  4.95713300000E-01

  37  37   1    8 O    -4.39263320000E-01  2.80370630000E-01  4.99196270000E-01

  38  38   1    8 O    -2.80318300000E-01  2.80378330000E-01 -4.94182270000E-01

  39  39   1    8 O    -2.80320580000E-01  4.39323460000E-01  4.95828150000E-01

  40  40   1    8 O     2.80324510000E-01 -2.80348890000E-01  4.99196300000E-01

  41  41   1    8 O     2.80343970000E-01 -4.39304390000E-01 -4.94182270000E-01

  42  42   1    8 O     4.39263840000E-01 -2.80364580000E-01  4.95828130000E-01

 NUMBER OF SYMMETRY OPERATORS         :    1
 *******************************************************************************
 * GEOMETRY EDITING - INPUT COORDINATES ARE GIVEN IN ANGSTROM         
 *******************************************************************************

 GCALCO - MAX INDICES DIRECT LATTICE VECTOR     9     9    38
 NO.OF VECTORS CREATED 6999 STARS 3500 RMAX   191.57360 BOHR

 GEOMETRY FOR WAVE FUNCTION - DIMENSIONALITY OF THE SYSTEM    3
 (NON PERIODIC DIRECTION: LATTICE PARAMETER FORMALLY SET TO 500)
 *******************************************************************************
 LATTICE PARAMETERS (ANGSTROMS AND DEGREES) - BOHR = 0.5291772083 ANGSTROM
 PRIMITIVE CELL - CENTRING CODE 1/0 VOLUME=   625.540954 - DENSITY  1.036 g/cm^3
         A              B              C           ALPHA      BETA       GAMMA 
    15.02361100    15.02391600     3.20000000    90.000323  89.999944 119.995964
 *******************************************************************************
 ATOMS IN THE ASYMMETRIC UNIT   42 - ATOMS IN THE UNIT CELL:   42
     ATOM                 X/A                 Y/B                 Z/C    
 *******************************************************************************
      1 T   5 B    -3.863194600000E-01  2.273182200000E-01 -4.985072700000E-01
      2 T   5 B    -2.272638000000E-01  3.863778800000E-01 -4.985072500000E-01
      3 T   5 B    -3.863237300000E-01  3.863606700000E-01  4.983542500000E-01
      4 T   5 B     2.272552500000E-01 -3.863667800000E-01 -4.985072600000E-01
      5 T   5 B     3.863632200000E-01 -3.863875500000E-01 -4.985072700000E-01
      6 T   5 B     3.863435000000E-01 -2.272483500000E-01  4.983542500000E-01
      7 T   1 H    -9.695638000000E-02  3.089300500000E-01  4.949860100000E-01
      8 T   1 H     9.663453000000E-02 -3.089465600000E-01  4.939910200000E-01
      9 T   1 H    -9.702858000000E-02 -4.059275700000E-01  4.938378800000E-01
     10 T   1 H     9.673618000000E-02  4.056849400000E-01  4.938760800000E-01
     11 T   1 H    -3.089676000000E-01  9.700412000000E-02 -4.949859600000E-01
     12 T   1 H     3.089297200000E-01 -9.656269000000E-02 -4.939909100000E-01
     13 T   1 H     4.058699900000E-01  9.704998000000E-02 -4.938376800000E-01
     14 T   1 H    -4.056877900000E-01 -9.665268000000E-02 -4.938761300000E-01
     15 T   1 H    -3.089272600000E-01 -4.059457900000E-01  4.949860600000E-01
     16 T   1 H     3.089618300000E-01  4.056093300000E-01  4.939909500000E-01
     17 T   1 H     4.058405700000E-01  3.088232500000E-01  4.938377600000E-01
     18 T   1 H    -4.057091200000E-01 -3.090420700000E-01  4.938762000000E-01
     19 T   6 C    -1.081096900000E-01  4.459436900000E-01  4.982394100000E-01
     20 T   6 C    -5.351089000000E-02  3.927856300000E-01  4.951391300000E-01
     21 T   6 C     5.338812000000E-02 -3.928147000000E-01  4.948713000000E-01
     22 T   6 C    -5.354789000000E-02 -4.463078100000E-01  4.956750600000E-01
     23 T   6 C     5.342634000000E-02  4.462499700000E-01  4.936081600000E-01
     24 T   6 C     1.080358900000E-01 -4.459643700000E-01  4.957133000000E-01
     25 T   6 C    -4.459605800000E-01  1.081684600000E-01 -4.982393300000E-01
     26 T   6 C    -3.928221500000E-01  5.355594000000E-02 -4.951391000000E-01
     27 T   6 C     3.927986700000E-01 -5.333684000000E-02 -4.948711800000E-01
     28 T   6 C     4.462875800000E-01  5.360286000000E-02 -4.956749100000E-01
     29 T   6 C    -4.462831500000E-01 -5.337644000000E-02 -4.936081600000E-01
     30 T   6 C     4.459279100000E-01 -1.080079400000E-01 -4.957132300000E-01
     31 T   6 C    -4.459551300000E-01  4.458745500000E-01  4.982394000000E-01
     32 T   6 C    -3.927897800000E-01 -4.463742200000E-01  4.951391900000E-01
     33 T   6 C     3.928233700000E-01  4.461720300000E-01  4.948712400000E-01
     34 T   6 C     4.462872600000E-01  3.926899900000E-01  4.956749800000E-01
     35 T   6 C    -4.462570400000E-01 -3.929020000000E-01  4.936082400000E-01
     36 T   6 C     4.459599800000E-01 -4.460417700000E-01  4.957133000000E-01
     37 T   8 O    -4.392633200000E-01  2.803706300000E-01  4.991962700000E-01
     38 T   8 O    -2.803183000000E-01  2.803783300000E-01 -4.941822700000E-01
     39 T   8 O    -2.803205800000E-01  4.393234600000E-01  4.958281500000E-01
     40 T   8 O     2.803245100000E-01 -2.803488900000E-01  4.991963000000E-01
     41 T   8 O     2.803439700000E-01 -4.393043900000E-01 -4.941822700000E-01
     42 T   8 O     4.392638400000E-01 -2.803645800000E-01  4.958281300000E-01

 T = ATOM BELONGING TO THE ASYMMETRIC UNIT

 ****    1 SYMMOPS - TRANSLATORS IN FRACTIONAL UNITS
 **** MATRICES AND TRANSLATORS IN THE CRYSTALLOGRAPHIC REFERENCE FRAME
   V INV                    ROTATION MATRICES                   TRANSLATORS
   1   1  1.00 -0.00  0.00  0.00  1.00  0.00  0.00  0.00  1.00  0.00  0.00  0.00

 DIRECT LATTICE VECTORS CARTESIAN COMPONENTS (ANGSTROM)
          X                    Y                    Z
   0.130113578931E+02  -0.751088897922E+01   0.000000000000E+00
   0.000000000000E+00   0.150239160000E+02   0.000000000000E+00
  -0.680221555232E-05  -0.180397231479E-04   0.319999999994E+01


 CARTESIAN COORDINATES - PRIMITIVE CELL
 *******************************************************************************
 *      ATOM          X(ANGSTROM)         Y(ANGSTROM)         Z(ANGSTROM)
 *******************************************************************************
    1     5 B    -5.026537364158E+00  6.316821410054E+00 -1.595223263971E+00
    2     5 B    -2.957007246982E+00  7.511870977106E+00 -1.595223199971E+00
    3     5 B    -5.026599703524E+00 -6.317640092322E+00  1.594733599971E+00
    4     5 B     2.956902781780E+00 -7.511622007672E+00 -1.595223231971E+00
    5     5 B     5.027113523088E+00  6.316939647215E+00 -1.595223263971E+00
    6     5 B     5.026850158243E+00 -6.315952248053E+00  1.594733599971E+00
    7     1 H    -1.261537527197E+00  5.369558797672E+00  1.583955231971E+00
    8     1 H     1.257343094424E+00 -5.367407303779E+00  1.580771263971E+00
    9     1 H    -1.262476939427E+00 -5.369859730272E+00  1.580281215971E+00
   10     1 H     1.258665699736E+00  5.368392843384E+00  1.580403455971E+00
   11     1 H    -4.020084653958E+00  3.778012021719E+00 -1.583955071971E+00
   12     1 H     4.019598510954E+00 -3.771077661135E+00 -1.580770911971E+00
   13     1 H     5.280923057132E+00 -1.590364778869E+00 -1.580280575971E+00
   14     1 H    -5.278545669081E+00  1.594983114807E+00 -1.580403615971E+00
   15     1 H    -4.019566509783E+00 -3.778586026412E+00  1.583955391971E+00
   16     1 H     4.020009585191E+00  3.773253587331E+00  1.580771039971E+00
   17     1 H     5.280533544601E+00  1.591502193619E+00  1.580280831971E+00
   18     1 H    -5.278829920249E+00 -1.595794851360E+00  1.580403839971E+00
   19     6 C    -1.406657257429E+00  7.511811430357E+00  1.594366111971E+00
   20     6 C    -6.962527090091E-01  6.303083732923E+00  1.584445215971E+00
   21     6 C     6.946485703362E-01 -6.302616225836E+00  1.583588159971E+00
   22     6 C    -6.967341328966E-01 -6.303107732564E+00  1.586160191971E+00
   23     6 C     6.951458730270E-01  6.303133851422E+00  1.579546111971E+00
   24     6 C     1.405690258136E+00 -7.511585751964E+00  1.586282559971E+00
   25     6 C     7.208808569613E+00 -2.536205728741E+00 -1.594365855971E+00
   26     6 C    -5.111146213927E+00  3.755072433260E+00 -1.584445119971E+00
   27     6 C     5.110847441507E+00 -3.751586478080E+00 -1.583587775971E+00
   28     6 C     5.806810798294E+00 -2.546682658345E+00 -1.586159711971E+00
   29     6 C    -5.806746428662E+00  2.550068946561E+00 -1.579546111971E+00
   30     6 C     5.802131003461E+00 -4.972008300108E+00 -1.586282335971E+00
   31     6 C     7.208872703250E+00  2.537403289563E+00  1.594366079971E+00
   32     6 C    -5.110731772358E+00 -3.756097288269E+00  1.584445407971E+00
   33     6 C     5.111162089606E+00  3.752789452418E+00  1.583587967971E+00
   34     6 C     5.806799891284E+00  2.547718419263E+00  1.586159935971E+00
   35     6 C    -5.806413417366E+00 -2.551148465154E+00  1.579546367971E+00
   36     6 C     5.802541533812E+00  4.973057073544E+00  1.586282559971E+00
   37     8 O     7.295942231604E+00  6.248385701477E-04  1.597428063971E+00
   38     8 O    -3.647318363739E+00  6.317829023194E+00 -1.581383263971E+00
   39     8 O    -3.647354763899E+00 -6.318109429764E+00  1.586650079971E+00
   40     8 O     3.647399130165E+00 -6.317433452180E+00  1.597428159971E+00
   41     8 O     3.647659088365E+00  6.318220226457E+00 -1.581383263971E+00
   42     8 O    -7.295942234068E+00 -5.557995053172E-04  1.586650015971E+00

 *******************************************************************************
 STARTING BASIS SET HANDLING 
 *******************************************************************************

 Loading internal basis set: SOLDEF2MSVP         

 Please cite in your publication:
 L. Dona', J. G. Brandenburg and B. Civalleri, J. Chem. Phys., 151, 121101 (2019
 )                                                                              
                                                                                
                    

 *******************************************************************************
 LOCAL ATOMIC FUNCTIONS BASIS SET
 *******************************************************************************
   ATOM   X(AU)   Y(AU)   Z(AU)  N. TYPE  EXPONENT  S COEF   P COEF   D/F/G COEF
 *******************************************************************************
   1 B   -9.499  11.937  -3.015
                                  1 S  
                                         2.410E+03 1.755E-03 0.000E+00 0.000E+00
                                         3.619E+02 1.344E-02 0.000E+00 0.000E+00
                                         8.231E+01 6.637E-02 0.000E+00 0.000E+00
                                         2.311E+01 2.303E-01 0.000E+00 0.000E+00
                                         7.252E+00 5.150E-01 0.000E+00 0.000E+00
                                  2 S  
                                         2.367E+00 1.000E+00 0.000E+00 0.000E+00
                                  3 S  
                                         5.533E-01 1.000E+00 0.000E+00 0.000E+00
                                  4 S  
                                         1.716E-01 1.000E+00 0.000E+00 0.000E+00
                           5-     7 P  
                                         6.002E+00 0.000E+00-3.555E-02 0.000E+00
                                         1.240E+00 0.000E+00-1.983E-01 0.000E+00
                                         3.367E-01 0.000E+00-5.048E-01 0.000E+00
                           8-    10 P  
                                         1.256E-01 0.000E+00 1.000E+00 0.000E+00
                          11-    15 D  
                                         8.880E-01 0.000E+00 0.000E+00 1.000E+00
   2 B   -5.588  14.195  -3.015
   3 B   -9.499 -11.939   3.014
   4 B    5.588 -14.195  -3.015
   5 B    9.500  11.937  -3.015
   6 B    9.499 -11.935   3.014
   7 H   -2.384  10.147   2.993
                                 91 S  
                                         1.874E+01 1.968E-02 0.000E+00 0.000E+00
                                         2.826E+00 1.380E-01 0.000E+00 0.000E+00
                                         6.401E-01 4.783E-01 0.000E+00 0.000E+00
                                 92 S  
                                         1.756E-01 1.000E+00 0.000E+00 0.000E+00
   8 H    2.376 -10.143   2.987
   9 H   -2.386 -10.148   2.986
  10 H    2.379  10.145   2.987
  11 H   -7.597   7.139  -2.993
  12 H    7.596  -7.126  -2.987
  13 H    9.979  -3.005  -2.986
  14 H   -9.975   3.014  -2.987
  15 H   -7.596  -7.140   2.993
  16 H    7.597   7.130   2.987
  17 H    9.979   3.008   2.986
  18 H   -9.976  -3.016   2.987
  19 C   -2.658  14.195   3.013
                                115 S  
                                         3.624E+03 1.634E-03 0.000E+00 0.000E+00
                                         5.440E+02 1.252E-02 0.000E+00 0.000E+00
                                         1.237E+02 6.211E-02 0.000E+00 0.000E+00
                                         3.476E+01 2.182E-01 0.000E+00 0.000E+00
                                         1.093E+01 4.980E-01 0.000E+00 0.000E+00
                                116 S  
                                         3.574E+00 1.000E+00 0.000E+00 0.000E+00
                                117 S  
                                         7.742E-01 1.000E+00 0.000E+00 0.000E+00
                                118 S  
                                         2.330E-01 1.000E+00 0.000E+00 0.000E+00
                         119-   121 P  
                                         9.443E+00 0.000E+00 3.790E-02 0.000E+00
                                         2.002E+00 0.000E+00 2.082E-01 0.000E+00
                                         5.463E-01 0.000E+00 5.047E-01 0.000E+00
                         122-   124 P  
                                         1.820E-01 0.000E+00 1.000E+00 0.000E+00
                         125-   129 D  
                                         8.880E-01 0.000E+00 0.000E+00 1.000E+00
  20 C   -1.316  11.911   2.994
  21 C    1.313 -11.910   2.993
  22 C   -1.317 -11.911   2.997
  23 C    1.314  11.911   2.985
  24 C    2.656 -14.195   2.998
  25 C   13.623  -4.793  -3.013
  26 C   -9.659   7.096  -2.994
  27 C    9.658  -7.089  -2.993
  28 C   10.973  -4.813  -2.997
  29 C  -10.973   4.819  -2.985
  30 C   10.964  -9.396  -2.998
  31 C   13.623   4.795   3.013
  32 C   -9.658  -7.098   2.994
  33 C    9.659   7.092   2.993
  34 C   10.973   4.814   2.997
  35 C  -10.973  -4.821   2.985
  36 C   10.965   9.398   2.998
  37 O   13.787   0.001   3.019
                                385 S  
                                         6.773E+03 1.727E-03 0.000E+00 0.000E+00
                                         1.017E+03 1.325E-02 0.000E+00 0.000E+00
                                         2.313E+02 6.603E-02 0.000E+00 0.000E+00
                                         6.501E+01 2.353E-01 0.000E+00 0.000E+00
                                         2.050E+01 5.498E-01 0.000E+00 0.000E+00
                                386 S  
                                         6.716E+00 1.000E+00 0.000E+00 0.000E+00
                                387 S  
                                         1.147E+00 1.000E+00 0.000E+00 0.000E+00
                                388 S  
                                         3.342E-01 1.000E+00 0.000E+00 0.000E+00
                         389-   391 P  
                                         1.769E+01 0.000E+00 4.359E-02 0.000E+00
                                         3.854E+00 0.000E+00 2.318E-01 0.000E+00
                                         1.047E+00 0.000E+00 5.146E-01 0.000E+00
                         392-   394 P  
                                         2.759E-01 0.000E+00 1.000E+00 0.000E+00
                         395-   399 D  
                                         8.000E-01 0.000E+00 0.000E+00 1.000E+00
  38 O   -6.892  11.939  -2.988
  39 O   -6.893 -11.939   2.998
  40 O    6.893 -11.938   3.019
  41 O    6.893  11.940  -2.988
  42 O  -13.787  -0.001   2.998

 *******************************************************************************
 FINISHED BASIS SET HANDLING 
 *******************************************************************************

 INFORMATION **** SET_MPP **** PCRYSTAL CALCULATION
 INFORMATION **** READM2 **** NEW DEFAULT: FOCK/KS MATRIX MIXING SET TO 30 %
 INFORMATION **** READM2 **** NEW DEFAULT: FULL DIRECT SCF MODE
 INFORMATION **** READM2 **** NEW DEFAULT: COULOMB BIPOLAR BUFFER SET TO 32 Mb
 INFORMATION **** READM2 **** NEW DEFAULT: EXCHANGE BIPOLAR BUFFER SET TO 32 Mb

 *******************************************************************************
 NEW DEFAULT: DFT INTEGRATION GRID INCREASED TO XLGRID
 NEW DEFAULT: DIIS ACCELERATOR ACTIVE
 USE KEYWORD NODIIS TO TURN IT OFF
 *******************************************************************************

 WARNING **** RDDFTP **** HSEsol-HJS ACTIVE
 RANGE SEPARATION - OMEGA:   0.110000000000000     
 WARNING **** RDDFTP **** HSEsol-3c has to be combined with sol-def2-mSVP basis set
 *******************************************************************************
 N. OF ATOMS PER CELL        42  COULOMB OVERLAP TOL         (T1) 10**   -6
 NUMBER OF SHELLS           234  COULOMB PENETRATION TOL     (T2) 10**   -6
 NUMBER OF AO               474  EXCHANGE OVERLAP TOL        (T3) 10**   -6
 N. OF ELECTRONS PER CELL   198  EXCHANGE PSEUDO OVP (F(G))  (T4) 10**   -6
 CORE ELECTRONS PER CELL     60  EXCHANGE PSEUDO OVP (P(G))  (T5) 10**  -12
 N. OF SYMMETRY OPERATORS     1  POLE ORDER IN MONO ZONE                  4
 *******************************************************************************
 TYPE OF CALCULATION :  RESTRICTED CLOSED SHELL
 KOHN-SHAM HAMILTONIAN

 (EXCHANGE)[CORRELATION] FUNCTIONAL:(HSEsol GGA)[PBEsol]

 RANGE-SEPARATED HYBRID FUNCTIONAL 
 OMEGA (SHORT-RANGE)[LONG-RANGE]:(    0.1100)[    0.0000]

 HYBRID EXCHANGE - PERCENTAGE OF FOCK EXCHANGE    25.0000

 CAPPA:IS1  2;IS2  2;IS3  8; K PTS MONK NET  20; SYMMOPS:K SPACE   2;G SPACE   1

 *******************************************************************************
 MAX NUMBER OF SCF CYCLES      50  CONVERGENCE ON DELTAP        10**-16
 WEIGHT OF F(I) IN F(I+1)      30% CONVERGENCE ON ENERGY        10**- 6
 SHRINK. FACT.(MONKH.)    2  2  8  NUMBER OF K POINTS IN THE IBZ     20
 SHRINKING FACTOR(GILAT NET)    8  NUMBER OF K POINTS(GILAT NET)   1028
 *******************************************************************************
 *** K POINTS COORDINATES (OBLIQUE COORDINATES IN UNITS OF IS =  2)
   1-R(  0  0  0)   2-R(  1  0  0)   3-R(  0  1  0)   4-R(  1  1  0)
   5-C(  0  0  1)   6-C(  1  0  1)   7-C(  0  1  1)   8-C(  1  1  1)
   9-C(  0  0  2)  10-C(  1  0  2)  11-C(  0  1  2)  12-C(  1  1  2)
  13-C(  0  0  3)  14-C(  1  0  3)  15-C(  0  1  3)  16-C(  1  1  3)
  17-R(  0  0  4)  18-R(  1  0  4)  19-R(  0  1  4)  20-R(  1  1  4)

 DIRECT LATTICE VECTORS COMPON. (A.U.)     RECIP. LATTICE VECTORS COMPON. (A.U.) 
        X            Y            Z              X            Y            Z
   24.5879030  -14.1935232    0.0000000      0.2555397    0.0000000    0.0000005
    0.0000000   28.3910867    0.0000000      0.1277517    0.2213084    0.0000015
   -0.0000129   -0.0000341    6.0471236      0.0000000    0.0000000    1.0390370

 DISK SPACE FOR EIGENVECTORS (FTN 10)     7189632 REALS

 SYMMETRY ADAPTION OF THE BLOCH FUNCTIONS DISABLED
 TTTTTTTTTTTTTTTTTTTTTTTTTTTTTT gordsh1     TELAPSE        0.04 TCPU        0.04

 MATRIX SIZE: P(G)  428858, F(G)   86852, P(G) IRR  216940, F(G) IRR   87800
 MAX G-VECTOR INDEX FOR 1- AND 2-ELECTRON INTEGRALS 125

 TTTTTTTTTTTTTTTTTTTTTTTTTTTTTT INPUT       TELAPSE        0.29 TCPU        0.29

 NEIGHBORS OF THE NON-EQUIVALENT ATOMS

 N = NUMBER OF NEIGHBORS AT DISTANCE R
    ATOM  N     R/ANG      R/AU   NEIGHBORS (ATOM LABELS AND CELL INDICES)
   1 B    1     1.3791     2.6061   37 O   -1 0-1
   1 B    1     1.3793     2.6065   38 O    0 0 0
   1 B    1     1.5503     2.9297   25 C   -1 0 0
   1 B    1     2.3895     4.5155    3 B    0 1-1
   1 B    1     2.3898     4.5160    2 B    0 0 0
   1 B    1     2.5632     4.8437   26 C    0 0 0

   2 B    1     1.3793     2.6065   39 O    0 1-1
   2 B    1     1.3793     2.6065   38 O    0 0 0
   2 B    1     1.5504     2.9298   19 C    0 0-1
   2 B    1     2.3895     4.5156    3 B    0 1-1
   2 B    1     2.3898     4.5160    1 B    0 0 0
   2 B    1     2.5634     4.8440   22 C    0 1-1

   3 B    1     1.3791     2.6061   37 O   -1-1 0
   3 B    1     1.3793     2.6064   39 O    0 0 0
   3 B    1     1.5502     2.9294   31 C   -1-1 0
   3 B    1     2.3895     4.5155    1 B    0-1 1
   3 B    1     2.3895     4.5156    2 B    0-1 1
   3 B    1     2.5629     4.8433   32 C    0 0 0

   4 B    1     1.3795     2.6068   40 O    0 0-1
   4 B    1     1.3795     2.6070   41 O    0-1 0
   4 B    1     1.5513     2.9316   24 C    0 0-1
   4 B    1     2.3905     4.5174    6 B    0 0-1
   4 B    1     2.3905     4.5175    5 B    0-1 0
   4 B    1     2.5648     4.8468   23 C    0-1-1

   5 B    1     1.3795     2.6069   41 O    0 0 0
   5 B    1     1.3797     2.6072   42 O    1 1-1
   5 B    1     1.5516     2.9322   36 C    0 0-1
   5 B    1     2.3905     4.5175    4 B    0 1 0
   5 B    1     2.3911     4.5185    6 B    0 1-1
   5 B    1     2.5651     4.8473   35 C    1 1-1

   6 B    1     1.3795     2.6068   40 O    0 0 0
   6 B    1     1.3796     2.6071   42 O    1 0 0
   6 B    1     1.5516     2.9322   30 C    0 0 1
   6 B    1     2.3905     4.5174    4 B    0 0 1
   6 B    1     2.3911     4.5185    5 B    0-1 1
   6 B    1     2.5651     4.8473   29 C    1 0 1

   7 H    1     1.0913     2.0623   20 C    0 0 0
   7 H    1     2.1472     4.0576   19 C    0 0 0
   7 H    1     2.1680     4.0969   23 C    0 0 0
   7 H    1     2.5202     4.7625   10 H    0 0 0
   7 H    1     2.5676     4.8520   38 O    0 0 1
   7 H    1     2.7321     5.1630    2 B    0 0 1

   8 H    1     1.0914     2.0625   21 C    0 0 0
   8 H    1     2.1493     4.0616   24 C    0 0 0
   8 H    1     2.1666     4.0942   22 C    0 0 0
   8 H    1     2.5198     4.7618    9 H    0 0 0
   8 H    1     2.5720     4.8604   40 O    0 0 0
   8 H    1     2.7362     5.1707    4 B    0 0 1

   9 H    1     1.0914     2.0624   22 C    0 0 0
   9 H    1     2.1471     4.0575   19 C    0-1 0
   9 H    1     2.1680     4.0970   21 C    0 0 0
   9 H    1     2.5198     4.7618    8 H    0 0 0
   9 H    1     2.5665     4.8500   39 O    0 0 0
   9 H    1     2.7315     5.1618    2 B    0-1 1

  10 H    1     1.0915     2.0626   23 C    0 0 0
  10 H    1     2.1490     4.0610   24 C    0 1 0
  10 H    1     2.1669     4.0948   20 C    0 0 0
  10 H    1     2.5202     4.7625    7 H    0 0 0
  10 H    1     2.5712     4.8588   41 O    0 0 1
  10 H    1     2.7351     5.1686    4 B    0 1 1

  11 H    1     1.0913     2.0623   26 C    0 0 0
  11 H    1     2.1469     4.0571   25 C   -1 0 0
  11 H    1     2.1680     4.0968   29 C    0 0 0
  11 H    1     2.5198     4.7617   14 H    0 0 0
  11 H    1     2.5670     4.8510   38 O    0 0 0
  11 H    1     2.7310     5.1609    1 B    0 0 0

  12 H    1     1.0914     2.0625   27 C    0 0 0
  12 H    1     2.1493     4.0617   30 C    0 0 0
  12 H    1     2.1664     4.0939   28 C    0 0 0
  12 H    1     2.5192     4.7606   13 H    0 0 0
  12 H    1     2.5735     4.8632   40 O    0 0-1
  12 H    1     2.7371     5.1723    6 B    0 0-1

  13 H    1     1.0914     2.0624   28 C    0 0 0
  13 H    1     2.1475     4.0581   25 C    0 0 0
  13 H    1     2.1679     4.0967   27 C    0 0 0
  13 H    1     2.5192     4.7606   12 H    0 0 0
  13 H    1     2.5675     4.8519   37 O    0 0-1
  13 H    1     2.7328     5.1643    1 B    1 0 0

  14 H    1     1.0914     2.0625   29 C    0 0 0
  14 H    1     2.1491     4.0612   30 C   -1 0 0
  14 H    1     2.1666     4.0942   26 C    0 0 0
  14 H    1     2.5198     4.7617   11 H    0 0 0
  14 H    1     2.5723     4.8609   42 O    0 0-1
  14 H    1     2.7355     5.1693    6 B   -1 0-1

  15 H    1     1.0914     2.0624   32 C    0 0 0
  15 H    1     2.1475     4.0582   31 C   -1-1 0
  15 H    1     2.1678     4.0966   35 C    0 0 0
  15 H    1     2.5200     4.7621   18 H    0 0 0
  15 H    1     2.5667     4.8503   39 O    0 0 0
  15 H    1     2.7315     5.1618    3 B    0 0 0

  16 H    1     1.0913     2.0623   33 C    0 0 0
  16 H    1     2.1487     4.0605   36 C    0 0 0
  16 H    1     2.1667     4.0945   34 C    0 0 0
  16 H    1     2.5197     4.7616   17 H    0 0 0
  16 H    1     2.5723     4.8610   41 O    0 0 1
  16 H    1     2.7359     5.1701    5 B    0 0 1

  17 H    1     1.0915     2.0626   34 C    0 0 0
  17 H    1     2.1479     4.0589   31 C    0 0 0
  17 H    1     2.1679     4.0968   33 C    0 0 0
  17 H    1     2.5197     4.7616   16 H    0 0 0
  17 H    1     2.5677     4.8522   37 O    0 0 0
  17 H    1     2.7331     5.1648    3 B    1 1 0

  18 H    1     1.0914     2.0624   35 C    0 0 0
  18 H    1     2.1486     4.0602   36 C   -1-1 0
  18 H    1     2.1668     4.0947   32 C    0 0 0
  18 H    1     2.5200     4.7621   15 H    0 0 0
  18 H    1     2.5717     4.8598   42 O    0 0 0
  18 H    1     2.7349     5.1682    5 B   -1-1 1

  19 C    1     1.4020     2.6495   22 C    0 1 0
  19 C    1     1.4021     2.6495   20 C    0 0 0
  19 C    1     1.5504     2.9298    2 B    0 0 1
  19 C    1     2.1471     4.0575    9 H    0 1 0
  19 C    1     2.1472     4.0576    7 H    0 0 0
  19 C    1     2.4246     4.5817   21 C    0 1 0

  20 C    1     1.0913     2.0623    7 H    0 0 0
  20 C    1     1.3914     2.6294   23 C    0 0 0
  20 C    1     1.4021     2.6495   19 C    0 0 0
  20 C    1     2.1669     4.0948   10 H    0 0 0
  20 C    1     2.4177     4.5688   22 C    0 1 0
  20 C    1     2.4250     4.5825   24 C    0 1 0

  21 C    1     1.0914     2.0625    8 H    0 0 0
  21 C    1     1.3914     2.6293   22 C    0 0 0
  21 C    1     1.4026     2.6505   24 C    0 0 0
  21 C    1     2.1680     4.0970    9 H    0 0 0
  21 C    1     2.4182     4.5697   23 C    0-1 0
  21 C    1     2.4246     4.5817   19 C    0-1 0

  22 C    1     1.0914     2.0624    9 H    0 0 0
  22 C    1     1.3914     2.6293   21 C    0 0 0
  22 C    1     1.4020     2.6495   19 C    0-1 0
  22 C    1     2.1666     4.0942    8 H    0 0 0
  22 C    1     2.4177     4.5688   20 C    0-1 0
  22 C    1     2.4250     4.5826   24 C    0 0 0

  23 C    1     1.0915     2.0626   10 H    0 0 0
  23 C    1     1.3914     2.6294   20 C    0 0 0
  23 C    1     1.4025     2.6504   24 C    0 1 0
  23 C    1     2.1680     4.0969    7 H    0 0 0
  23 C    1     2.4182     4.5697   21 C    0 1 0
  23 C    1     2.4246     4.5818   19 C    0 0 0

  24 C    1     1.4025     2.6504   23 C    0-1 0
  24 C    1     1.4026     2.6505   21 C    0 0 0
  24 C    1     1.5513     2.9316    4 B    0 0 1
  24 C    1     2.1490     4.0610   10 H    0-1 0
  24 C    1     2.1493     4.0616    8 H    0 0 0
  24 C    1     2.4250     4.5825   20 C    0-1 0

  25 C    1     1.4020     2.6494   26 C    1 0 0
  25 C    1     1.4021     2.6495   28 C    0 0 0
  25 C    1     1.5503     2.9297    1 B    1 0 0
  25 C    1     2.1469     4.0571   11 H    1 0 0
  25 C    1     2.1475     4.0581   13 H    0 0 0
  25 C    1     2.4246     4.5818   27 C    0 0 0

  26 C    1     1.0913     2.0623   11 H    0 0 0
  26 C    1     1.3914     2.6293   29 C    0 0 0
  26 C    1     1.4020     2.6494   25 C   -1 0 0
  26 C    1     2.1666     4.0942   14 H    0 0 0
  26 C    1     2.4175     4.5684   28 C   -1 0 0
  26 C    1     2.4251     4.5828   30 C   -1 0 0

  27 C    1     1.0914     2.0625   12 H    0 0 0
  27 C    1     1.3915     2.6295   28 C    0 0 0
  27 C    1     1.4026     2.6505   30 C    0 0 0
  27 C    1     2.1679     4.0967   13 H    0 0 0
  27 C    1     2.4179     4.5691   29 C    1 0 0
  27 C    1     2.4246     4.5818   25 C    0 0 0

  28 C    1     1.0914     2.0624   13 H    0 0 0
  28 C    1     1.3915     2.6295   27 C    0 0 0
  28 C    1     1.4021     2.6495   25 C    0 0 0
  28 C    1     2.1664     4.0939   12 H    0 0 0
  28 C    1     2.4175     4.5684   26 C    1 0 0
  28 C    1     2.4253     4.5832   30 C    0 0 0

  29 C    1     1.0914     2.0625   14 H    0 0 0
  29 C    1     1.3914     2.6293   26 C    0 0 0
  29 C    1     1.4025     2.6504   30 C   -1 0 0
  29 C    1     2.1680     4.0968   11 H    0 0 0
  29 C    1     2.4179     4.5691   27 C   -1 0 0
  29 C    1     2.4247     4.5819   25 C   -1 0 0

  30 C    1     1.4025     2.6504   29 C    1 0 0
  30 C    1     1.4026     2.6505   27 C    0 0 0
  30 C    1     1.5516     2.9322    6 B    0 0-1
  30 C    1     2.1491     4.0612   14 H    1 0 0
  30 C    1     2.1493     4.0617   12 H    0 0 0
  30 C    1     2.4251     4.5828   26 C    1 0 0

  31 C    1     1.4021     2.6496   32 C    1 1 0
  31 C    1     1.4021     2.6497   34 C    0 0 0
  31 C    1     1.5502     2.9294    3 B    1 1 0
  31 C    1     2.1475     4.0582   15 H    1 1 0
  31 C    1     2.1479     4.0589   17 H    0 0 0
  31 C    1     2.4244     4.5814   33 C    0 0 0

  32 C    1     1.0914     2.0624   15 H    0 0 0
  32 C    1     1.3914     2.6293   35 C    0 0 0
  32 C    1     1.4021     2.6496   31 C   -1-1 0
  32 C    1     2.1668     4.0947   18 H    0 0 0
  32 C    1     2.4179     4.5692   34 C   -1-1 0
  32 C    1     2.4251     4.5827   36 C   -1-1 0

  33 C    1     1.0913     2.0623   16 H    0 0 0
  33 C    1     1.3914     2.6294   34 C    0 0 0
  33 C    1     1.4025     2.6504   36 C    0 0 0
  33 C    1     2.1679     4.0968   17 H    0 0 0
  33 C    1     2.4178     4.5690   35 C    1 1 0
  33 C    1     2.4244     4.5814   31 C    0 0 0

  34 C    1     1.0915     2.0626   17 H    0 0 0
  34 C    1     1.3914     2.6294   33 C    0 0 0
  34 C    1     1.4021     2.6497   31 C    0 0 0
  34 C    1     2.1667     4.0945   16 H    0 0 0
  34 C    1     2.4179     4.5692   32 C    1 1 0
  34 C    1     2.4253     4.5832   36 C    0 0 0

  35 C    1     1.0914     2.0624   18 H    0 0 0
  35 C    1     1.3914     2.6293   32 C    0 0 0
  35 C    1     1.4025     2.6503   36 C   -1-1 0
  35 C    1     2.1678     4.0966   15 H    0 0 0
  35 C    1     2.4178     4.5690   33 C   -1-1 0
  35 C    1     2.4245     4.5817   31 C   -1-1 0

  36 C    1     1.4025     2.6503   35 C    1 1 0
  36 C    1     1.4025     2.6504   33 C    0 0 0
  36 C    1     1.5516     2.9322    5 B    0 0 1
  36 C    1     2.1486     4.0602   18 H    1 1 0
  36 C    1     2.1487     4.0605   16 H    0 0 0
  36 C    1     2.4251     4.5827   32 C    1 1 0

  37 O    1     1.3791     2.6061    1 B    1 0 1
  37 O    1     1.3791     2.6061    3 B    1 1 0
  37 O    1     2.3880     4.5126   38 O    1 0 1
  37 O    1     2.3882     4.5130   39 O    1 1 0
  37 O    1     2.5383     4.7966   31 C    0 0 0
  37 O    1     2.5384     4.7968   25 C    0 0 1

  38 O    1     1.3793     2.6065    1 B    0 0 0
  38 O    1     1.3793     2.6065    2 B    0 0 0
  38 O    1     2.3880     4.5126   37 O   -1 0-1
  38 O    1     2.3882     4.5131   39 O    0 1-1
  38 O    1     2.5391     4.7981   19 C    0 0-1
  38 O    1     2.5395     4.7990   25 C   -1 0 0

  39 O    1     1.3793     2.6064    3 B    0 0 0
  39 O    1     1.3793     2.6065    2 B    0-1 1
  39 O    1     2.3882     4.5130   37 O   -1-1 0
  39 O    1     2.3882     4.5131   38 O    0-1 1
  39 O    1     2.5390     4.7980   19 C    0-1 0
  39 O    1     2.5391     4.7982   31 C   -1-1 0

  40 O    1     1.3795     2.6068    6 B    0 0 0
  40 O    1     1.3795     2.6068    4 B    0 0 1
  40 O    1     2.3880     4.5126   42 O    1 0 0
  40 O    1     2.3884     4.5134   41 O    0-1 1
  40 O    1     2.5400     4.7998   24 C    0 0 0
  40 O    1     2.5403     4.8005   30 C    0 0 1

  41 O    1     1.3795     2.6069    5 B    0 0 0
  41 O    1     1.3795     2.6070    4 B    0 1 0
  41 O    1     2.3881     4.5128   42 O    1 1-1
  41 O    1     2.3884     4.5134   40 O    0 1-1
  41 O    1     2.5404     4.8006   24 C    0 1-1
  41 O    1     2.5405     4.8008   36 C    0 0-1

  42 O    1     1.3796     2.6071    6 B   -1 0 0
  42 O    1     1.3797     2.6072    5 B   -1-1 1
  42 O    1     2.3880     4.5126   40 O   -1 0 0
  42 O    1     2.3881     4.5128   41 O   -1-1 1
  42 O    1     2.5409     4.8016   36 C   -1-1 0
  42 O    1     2.5410     4.8019   30 C   -1 0 1


 SYMMETRY ALLOWED INTERNAL DEGREE(S) OF FREEDOM: 123
 TTTTTTTTTTTTTTTTTTTTTTTTTTTTTT SYMM        TELAPSE        0.30 TCPU        0.29
 TTTTTTTTTTTTTTTTTTTTTTTTTTTTTT INT_SCREEN  TELAPSE        0.32 TCPU        0.32

 DFT PARAMETERS

     ATOM       ELECTRONS   NET CHARGE   R(ANGSTROM)
   1   5  B       5.0000      0.0000     0.89000000
   7   1  H       1.0000      0.0000     1.11000000
  19   6  C       6.0000      0.0000     0.77000000
  37   8  O       8.0000      0.0000     0.74000000

 SIZE OF GRID=    1222322
 TTTTTTTTTTTTTTTTTTTTTTTTTTTTTT MAKE_GRID2  TELAPSE       13.58 TCPU       13.56
 BECKE WEIGHT FUNCTION
 RADSAFE =     2.00
 TOLERANCES - DENSITY:10**- 6; POTENTIAL:10**- 9; GRID WGT:10**-14

 RADIAL INTEGRATION  - INTERVALS (POINTS,UPPER LIMIT):            1( 75,  4.0*R)

 ANGULAR INTEGRATION - INTERVALS (ACCURACY LEVEL [N. POINTS] UPPER LIMIT):
  1(  4[  86]   0.2)  2(  8[ 194]   0.5)  3( 12[ 350]   0.9)  4( 16[ 974]   3.5)
  5( 12[ 350]9999.0)
 TTTTTTTTTTTTTTTTTTTTTTTTTTTTTT INT_CALC    TELAPSE       13.70 TCPU       13.68
 EEEEEEEEEE INT_CALC TERMINATION  DATE 19 02 2026 TIME 17:57:46.5

 *******************************************************************************
 cof-1_z32_L000_incl                                                             
 CRYSTAL - SCF - TYPE OF CALCULATION :  RESTRICTED CLOSED SHELL
 *******************************************************************************

 CAPPA:IS1  2;IS2  2;IS3  8; K PTS MONK NET  20; SYMMOPS:K SPACE   2;G SPACE   1

 TTTTTTTTTTTTTTTTTTTTTTTTTTTTTT SDIK        TELAPSE       14.35 TCPU       21.99

 AAAAAAAAAAAAAAAAAAAAAAAAAAAAAAAAAAAAAAAAAAAAAAAAAAAAAAAAAAAAAAAAAAAAAAAAAAAAAAA
         ATOMIC WAVEFUNCTION(S)


 NUCLEAR CHARGE  5.0  SYMMETRY SPECIES            S    P
 N. ELECTRONS    5.0  NUMBER OF PRIMITIVE GTOS    8    4
                      NUMBER OF CONTRACTED GTOS   4    2
                      NUMBER OF CLOSED SHELLS     2    0
                      OPEN SHELL OCCUPATION       0    1

  ZNUC  SCFIT    TOTAL HF ENERGY   KINETIC ENERGY   VIRIAL THEOREM ACCURACY
   5.0    11    -2.451164084E+01  2.462155050E+01 -1.995536038E+00  1.5E-06

 NUCLEAR CHARGE  1.0  SYMMETRY SPECIES            S
 N. ELECTRONS    1.0  NUMBER OF PRIMITIVE GTOS    4
                      NUMBER OF CONTRACTED GTOS   2
                      NUMBER OF CLOSED SHELLS     0
                      OPEN SHELL OCCUPATION       1

  ZNUC  SCFIT    TOTAL HF ENERGY   KINETIC ENERGY   VIRIAL THEOREM ACCURACY
   1.0     1    -4.977266687E-01  5.190767460E-01 -1.958869132E+00  0.0E+00

 NUCLEAR CHARGE  6.0  SYMMETRY SPECIES            S    P
 N. ELECTRONS    6.0  NUMBER OF PRIMITIVE GTOS    8    4
                      NUMBER OF CONTRACTED GTOS   4    2
                      NUMBER OF CLOSED SHELLS     2    0
                      OPEN SHELL OCCUPATION       0    2

  ZNUC  SCFIT    TOTAL HF ENERGY   KINETIC ENERGY   VIRIAL THEOREM ACCURACY
   6.0     9    -3.766704647E+01  3.775180683E+01 -1.997754800E+00  1.1E-06

 NUCLEAR CHARGE  8.0  SYMMETRY SPECIES            S    P
 N. ELECTRONS    8.0  NUMBER OF PRIMITIVE GTOS    8    4
                      NUMBER OF CONTRACTED GTOS   4    2
                      NUMBER OF CLOSED SHELLS     2    0
                      OPEN SHELL OCCUPATION       0    4

  ZNUC  SCFIT    TOTAL HF ENERGY   KINETIC ENERGY   VIRIAL THEOREM ACCURACY
   8.0    12    -7.477373220E+01  7.477365593E+01 -2.000001020E+00  3.8E-06

 AAAAAAAAAAAAAAAAAAAAAAAAAAAAAAAAAAAAAAAAAAAAAAAAAAAAAAAAAAAAAAAAAAAAAAAAAAAAAAA

 CHARGE NORMALIZATION FACTOR   1.00000000
 TOTAL ATOMIC CHARGES:
   5.0000000   5.0000000   5.0000000   5.0000000   5.0000000   5.0000000
   1.0000000   1.0000000   1.0000000   1.0000000   1.0000000   1.0000000
   1.0000000   1.0000000   1.0000000   1.0000000   1.0000000   1.0000000
   6.0000000   6.0000000   6.0000000   6.0000000   6.0000000   6.0000000
   6.0000000   6.0000000   6.0000000   6.0000000   6.0000000   6.0000000
   6.0000000   6.0000000   6.0000000   6.0000000   6.0000000   6.0000000
   8.0000000   8.0000000   8.0000000   8.0000000   8.0000000   8.0000000
 TTTTTTTTTTTTTTTTTTTTTTTTTTTTTT MOQGAD      TELAPSE       14.41 TCPU       23.87
 TTTTTTTTTTTTTTTTTTTTTTTTTTTTTT SHELLXN     TELAPSE       28.75 TCPU      481.93
 TTTTTTTTTTTTTTTTTTTTTTTTTTTTTT MONMO3      TELAPSE       28.96 TCPU      488.68
 NUMERICALLY INTEGRATED DENSITY    197.9998348234
 TTTTTTTTTTTTTTTTTTTTTTTTTTTTTT NUMDFT      TELAPSE       29.65 TCPU      510.70
 CYC   0 ETOT(AU) -1.296051718265E+03 DETOT -1.30E+03 tst  0.00E+00 PX  1.00E+00
 TTTTTTTTTTTTTTTTTTTTTTTTTTTTTT DIIS        TELAPSE       29.69 TCPU      511.94
 TTTTTTTTTTTTTTTTTTTTTTTTTTTTTT FDIK        TELAPSE       30.23 TCPU      529.08
 INSULATING STATE
 TOP OF VALENCE BANDS -    BAND     99; K    1; EIG -2.7459152E-01 AU
 BOTTOM OF VIRTUAL BANDS - BAND    100; K   17; EIG -1.9755141E-01 AU
 INDIRECT ENERGY BAND GAP:   2.0964 eV
 BOTTOM OF VIRTUAL BANDS - BAND    100; K    1; EIG -1.0862586E-01 AU
 TTTTTTTTTTTTTTTTTTTTTTTTTTTTTT PDIG        TELAPSE       30.51 TCPU      535.22
 CHARGE NORMALIZATION FACTOR   1.00000000
 TOTAL ATOMIC CHARGES:
   4.1014610   4.1013056   4.1014902   4.1014215   4.1012887   4.1014568
   0.7865559   0.7866632   0.7865126   0.7866210   0.7865340   0.7866928
   0.7865242   0.7866517   0.7865140   0.7866900   0.7865049   0.7866563
   6.0634208   6.2757091   6.2756468   6.2756590   6.2755555   6.0625839
   6.0634661   6.2756867   6.2757456   6.2756041   6.2757497   6.0620691
   6.0638216   6.2754085   6.2759621   6.2753170   6.2759273   6.0620473
   8.7109343   8.7110482   8.7109917   8.7113038   8.7113291   8.7114685
 TTTTTTTTTTTTTTTTTTTTTTTTTTTTTT MOQGAD      TELAPSE       30.57 TCPU      535.28
 TTTTTTTTTTTTTTTTTTTTTTTTTTTTTT SHELLXN     TELAPSE       45.47 TCPU     1010.65
 TTTTTTTTTTTTTTTTTTTTTTTTTTTTTT MONMO3      TELAPSE       45.69 TCPU     1017.41
 NUMERICALLY INTEGRATED DENSITY    197.9998803689
 TTTTTTTTTTTTTTTTTTTTTTTTTTTTTT NUMDFT      TELAPSE       46.39 TCPU     1039.90
 CYC   1 ETOT(AU) -1.288771057121E+03 DETOT  7.28E+00 tst  0.00E+00 PX  1.00E+00
 TTTTTTTTTTTTTTTTTTTTTTTTTTTTTT DIIS        TELAPSE       46.44 TCPU     1041.53
 DIIS TEST: 0.11429E+01 AT SCF   CYCLE   1 - MIX   30 %
 TTTTTTTTTTTTTTTTTTTTTTTTTTTTTT FDIK        TELAPSE       46.99 TCPU     1059.03
 INSULATING STATE
 TOP OF VALENCE BANDS -    BAND     99; K    1; EIG -1.6543198E-01 AU
 BOTTOM OF VIRTUAL BANDS - BAND    100; K   17; EIG -1.2170993E-01 AU
 INDIRECT ENERGY BAND GAP:   1.1897 eV
 BOTTOM OF VIRTUAL BANDS - BAND    100; K    1; EIG -2.0166327E-02 AU
 TTTTTTTTTTTTTTTTTTTTTTTTTTTTTT PDIG        TELAPSE       47.28 TCPU     1065.17
 CHARGE NORMALIZATION FACTOR   1.00000000
 TOTAL ATOMIC CHARGES:
   4.6849114   4.6847748   4.6847761   4.6856433   4.6857223   4.6858502
   0.9304457   0.9305347   0.9304230   0.9304649   0.9304526   0.9305396
   0.9304371   0.9305114   0.9304013   0.9305440   0.9303921   0.9305317
   5.8636591   6.1172435   6.1178103   6.1170858   6.1177848   5.8667234
   5.8634264   6.1169098   6.1178041   6.1171776   6.1176335   5.8671773
   5.8635794   6.1171684   6.1176572   6.1174426   6.1175439   5.8668893
   8.3534826   8.3539265   8.3538864   8.3533079   8.3535407   8.3537835
 TTTTTTTTTTTTTTTTTTTTTTTTTTTTTT MOQGAD      TELAPSE       47.34 TCPU     1065.23
 TTTTTTTTTTTTTTTTTTTTTTTTTTTTTT SHELLXN     TELAPSE       62.15 TCPU     1537.98
 TTTTTTTTTTTTTTTTTTTTTTTTTTTTTT MONMO3      TELAPSE       62.36 TCPU     1544.66
 NUMERICALLY INTEGRATED DENSITY    197.9998500123
 TTTTTTTTTTTTTTTTTTTTTTTTTTTTTT NUMDFT      TELAPSE       63.07 TCPU     1567.21
 CYC   2 ETOT(AU) -1.288961493653E+03 DETOT -1.90E-01 tst  4.83E-03 PX  1.53E-01
 TTTTTTTTTTTTTTTTTTTTTTTTTTTTTT DIIS        TELAPSE       63.12 TCPU     1568.86
 DIIS TEST: 0.53274E+00 AT SCF   CYCLE   2 - DIIS ACTIVE - HISTORY:     2 CYCLES
 TTTTTTTTTTTTTTTTTTTTTTTTTTTTTT FDIK        TELAPSE       63.67 TCPU     1586.37
 INSULATING STATE
 TOP OF VALENCE BANDS -    BAND     99; K    1; EIG -1.8689185E-01 AU
 BOTTOM OF VIRTUAL BANDS - BAND    100; K   17; EIG -1.1460926E-01 AU
 INDIRECT ENERGY BAND GAP:   1.9669 eV
 BOTTOM OF VIRTUAL BANDS - BAND    100; K    1; EIG -1.0826495E-02 AU
 TTTTTTTTTTTTTTTTTTTTTTTTTTTTTT PDIG        TELAPSE       63.96 TCPU     1592.51
 CHARGE NORMALIZATION FACTOR   1.00000000
 TOTAL ATOMIC CHARGES:
   4.4483750   4.4480761   4.4482728   4.4474103   4.4472653   4.4473779
   0.8962940   0.8964212   0.8962609   0.8963588   0.8962466   0.8964809
   0.8963032   0.8963816   0.8962479   0.8964287   0.8963136   0.8963659
   5.9037562   6.1720683   6.1708887   6.1719528   6.1707720   5.9011677
   5.9039532   6.1720638   6.1708002   6.1720753   6.1707111   5.9007036
   5.9041268   6.1719108   6.1709765   6.1719320   6.1708723   5.9006712
   8.5141554   8.5143421   8.5143208   8.5141983   8.5143182   8.5143821
 TTTTTTTTTTTTTTTTTTTTTTTTTTTTTT MOQGAD      TELAPSE       64.02 TCPU     1592.57
 TTTTTTTTTTTTTTTTTTTTTTTTTTTTTT SHELLXN     TELAPSE       78.92 TCPU     2068.11
 TTTTTTTTTTTTTTTTTTTTTTTTTTTTTT MONMO3      TELAPSE       79.13 TCPU     2074.78
 NUMERICALLY INTEGRATED DENSITY    197.9998546846
 TTTTTTTTTTTTTTTTTTTTTTTTTTTTTT NUMDFT      TELAPSE       79.84 TCPU     2097.55
 CYC   3 ETOT(AU) -1.289073722760E+03 DETOT -1.12E-01 tst  6.87E-04 PX  5.39E-02
 TTTTTTTTTTTTTTTTTTTTTTTTTTTTTT DIIS        TELAPSE       79.91 TCPU     2099.59
 DIIS TEST: 0.10790E-01 AT SCF   CYCLE   3 - DIIS ACTIVE - HISTORY:     3 CYCLES
 TTTTTTTTTTTTTTTTTTTTTTTTTTTTTT FDIK        TELAPSE       80.46 TCPU     2117.12
 INSULATING STATE
 TOP OF VALENCE BANDS -    BAND     99; K    1; EIG -1.9356672E-01 AU
 BOTTOM OF VIRTUAL BANDS - BAND    100; K   17; EIG -1.2655175E-01 AU
 INDIRECT ENERGY BAND GAP:   1.8236 eV
 BOTTOM OF VIRTUAL BANDS - BAND    100; K    1; EIG -2.4049748E-02 AU
 TTTTTTTTTTTTTTTTTTTTTTTTTTTTTT PDIG        TELAPSE       80.77 TCPU     2123.29
 CHARGE NORMALIZATION FACTOR   1.00000000
 TOTAL ATOMIC CHARGES:
   4.4605527   4.4603858   4.4604949   4.4622175   4.4621699   4.4623496
   0.8832921   0.8833656   0.8832682   0.8832891   0.8833123   0.8833644
   0.8833205   0.8833088   0.8832692   0.8833492   0.8832899   0.8833216
   5.9576197   6.1547524   6.1572084   6.1546140   6.1572093   5.9652710
   5.9571426   6.1544276   6.1573485   6.1544350   6.1573389   5.9656934
   5.9574687   6.1545164   6.1573387   6.1545178   6.1573507   5.9653853
   8.4984023   8.4987929   8.4987538   8.4986221   8.4987929   8.4990764
 TTTTTTTTTTTTTTTTTTTTTTTTTTTTTT MOQGAD      TELAPSE       80.83 TCPU     2123.35
 TTTTTTTTTTTTTTTTTTTTTTTTTTTTTT SHELLXN     TELAPSE       95.64 TCPU     2595.76
 TTTTTTTTTTTTTTTTTTTTTTTTTTTTTT MONMO3      TELAPSE       95.85 TCPU     2602.44
 NUMERICALLY INTEGRATED DENSITY    197.9998560180
 TTTTTTTTTTTTTTTTTTTTTTTTTTTTTT NUMDFT      TELAPSE       96.56 TCPU     2625.05
 CYC   4 ETOT(AU) -1.289075683829E+03 DETOT -1.96E-03 tst  6.14E-05 PX  1.41E-02
 TTTTTTTTTTTTTTTTTTTTTTTTTTTTTT DIIS        TELAPSE       96.62 TCPU     2627.11
 DIIS TEST: 0.40348E-02 AT SCF   CYCLE   4 - DIIS ACTIVE - HISTORY:     4 CYCLES
 TTTTTTTTTTTTTTTTTTTTTTTTTTTTTT FDIK        TELAPSE       97.17 TCPU     2644.77
 INSULATING STATE
 TOP OF VALENCE BANDS -    BAND     99; K    1; EIG -1.9414897E-01 AU
 BOTTOM OF VIRTUAL BANDS - BAND    100; K   17; EIG -1.2430131E-01 AU
 INDIRECT ENERGY BAND GAP:   1.9007 eV
 BOTTOM OF VIRTUAL BANDS - BAND    100; K    1; EIG -2.1561332E-02 AU
 TTTTTTTTTTTTTTTTTTTTTTTTTTTTTT PDIG        TELAPSE       97.46 TCPU     2650.91
 CHARGE NORMALIZATION FACTOR   1.00000000
 TOTAL ATOMIC CHARGES:
   4.4623815   4.4620934   4.4622793   4.4605710   4.4604541   4.4605783
   0.8843414   0.8845630   0.8843040   0.8845042   0.8843009   0.8846194
   0.8843273   0.8845462   0.8842846   0.8845805   0.8843247   0.8845355
   5.9330175   6.1711121   6.1678736   6.1709988   6.1677900   5.9249886
   5.9332990   6.1710682   6.1677771   6.1712281   6.1675752   5.9245463
   5.9334050   6.1709755   6.1679193   6.1711586   6.1677068   5.9245154
   8.5019111   8.5021152   8.5020722   8.5016613   8.5018186   8.5018774
 TTTTTTTTTTTTTTTTTTTTTTTTTTTTTT MOQGAD      TELAPSE       97.52 TCPU     2650.97
 TTTTTTTTTTTTTTTTTTTTTTTTTTTTTT SHELLXN     TELAPSE      112.61 TCPU     3132.30
 TTTTTTTTTTTTTTTTTTTTTTTTTTTTTT MONMO3      TELAPSE      112.82 TCPU     3139.07
 NUMERICALLY INTEGRATED DENSITY    197.9998560271
 TTTTTTTTTTTTTTTTTTTTTTTTTTTTTT NUMDFT      TELAPSE      113.53 TCPU     3161.77
 CYC   5 ETOT(AU) -1.289076512091E+03 DETOT -8.28E-04 tst  1.44E-05 PX  8.35E-03
 TTTTTTTTTTTTTTTTTTTTTTTTTTTTTT DIIS        TELAPSE      113.61 TCPU     3164.19
 DIIS TEST: 0.46516E-03 AT SCF   CYCLE   5 - DIIS ACTIVE - HISTORY:     5 CYCLES
 TTTTTTTTTTTTTTTTTTTTTTTTTTTTTT FDIK        TELAPSE      114.16 TCPU     3181.87
 INSULATING STATE
 TOP OF VALENCE BANDS -    BAND     99; K    1; EIG -1.9349733E-01 AU
 BOTTOM OF VIRTUAL BANDS - BAND    100; K   17; EIG -1.2387237E-01 AU
 INDIRECT ENERGY BAND GAP:   1.8946 eV
 BOTTOM OF VIRTUAL BANDS - BAND    100; K    1; EIG -2.1079624E-02 AU
 TTTTTTTTTTTTTTTTTTTTTTTTTTTTTT PDIG        TELAPSE      114.45 TCPU     3188.01
 CHARGE NORMALIZATION FACTOR   1.00000000
 TOTAL ATOMIC CHARGES:
   4.4595762   4.4593769   4.4595027   4.4620215   4.4619601   4.4621178
   0.8859088   0.8858967   0.8858820   0.8858276   0.8859040   0.8859184
   0.8859354   0.8858419   0.8858767   0.8858923   0.8859199   0.8858453
   5.9250468   6.1648129   6.1691216   6.1646934   6.1690488   5.9374549
   5.9247010   6.1646179   6.1691710   6.1645098   6.1692346   5.9376522
   5.9250080   6.1646325   6.1692080   6.1645036   6.1693028   5.9374176
   8.5020161   8.5023641   8.5023456   8.5024735   8.5026093   8.5028497
 TTTTTTTTTTTTTTTTTTTTTTTTTTTTTT MOQGAD      TELAPSE      114.51 TCPU     3188.07
 TTTTTTTTTTTTTTTTTTTTTTTTTTTTTT SHELLXN     TELAPSE      129.37 TCPU     3662.18
 TTTTTTTTTTTTTTTTTTTTTTTTTTTTTT MONMO3      TELAPSE      129.58 TCPU     3669.02
 NUMERICALLY INTEGRATED DENSITY    197.9998559514
 TTTTTTTTTTTTTTTTTTTTTTTTTTTTTT NUMDFT      TELAPSE      130.29 TCPU     3691.76
 CYC   6 ETOT(AU) -1.289076470034E+03 DETOT  4.21E-05 tst  8.30E-06 PX  3.20E-03
 TTTTTTTTTTTTTTTTTTTTTTTTTTTTTT DIIS        TELAPSE      130.37 TCPU     3694.24
 DIIS TEST: 0.60512E-03 AT SCF   CYCLE   6 - DIIS ACTIVE - HISTORY:     6 CYCLES
 TTTTTTTTTTTTTTTTTTTTTTTTTTTTTT FDIK        TELAPSE      130.93 TCPU     3712.03
 INSULATING STATE
 TOP OF VALENCE BANDS -    BAND     99; K    1; EIG -1.9339034E-01 AU
 BOTTOM OF VIRTUAL BANDS - BAND    100; K   17; EIG -1.2388907E-01 AU
 INDIRECT ENERGY BAND GAP:   1.8912 eV
 BOTTOM OF VIRTUAL BANDS - BAND    100; K    1; EIG -2.1097859E-02 AU
 TTTTTTTTTTTTTTTTTTTTTTTTTTTTTT PDIG        TELAPSE      131.22 TCPU     3718.17
 CHARGE NORMALIZATION FACTOR   1.00000000
 TOTAL ATOMIC CHARGES:
   4.4609173   4.4606884   4.4608358   4.4607830   4.4607009   4.4608500
   0.8860431   0.8861867   0.8860148   0.8861183   0.8860328   0.8862141
   0.8860572   0.8861437   0.8860077   0.8861839   0.8860437   0.8861436
   5.9332053   6.1660971   6.1657328   6.1659634   6.1656802   5.9331201
   5.9330728   6.1659140   6.1657659   6.1659603   6.1656857   5.9331092
   5.9333171   6.1658930   6.1658422   6.1659455   6.1657650   5.9329333
   8.5019864   8.5022763   8.5022430   8.5020176   8.5021695   8.5023392
 TTTTTTTTTTTTTTTTTTTTTTTTTTTTTT MOQGAD      TELAPSE      131.28 TCPU     3718.23
 TTTTTTTTTTTTTTTTTTTTTTTTTTTTTT SHELLXN     TELAPSE      146.18 TCPU     4193.71
 TTTTTTTTTTTTTTTTTTTTTTTTTTTTTT MONMO3      TELAPSE      146.39 TCPU     4200.40
 NUMERICALLY INTEGRATED DENSITY    197.9998559118
 TTTTTTTTTTTTTTTTTTTTTTTTTTTTTT NUMDFT      TELAPSE      147.10 TCPU     4223.06
 CYC   7 ETOT(AU) -1.289076629404E+03 DETOT -1.59E-04 tst  3.00E-06 PX  1.98E-03
 TTTTTTTTTTTTTTTTTTTTTTTTTTTTTT DIIS        TELAPSE      147.18 TCPU     4225.72
 DIIS TEST: 0.55561E-05 AT SCF   CYCLE   7 - DIIS ACTIVE - HISTORY:     7 CYCLES
 TTTTTTTTTTTTTTTTTTTTTTTTTTTTTT FDIK        TELAPSE      147.73 TCPU     4243.22
 INSULATING STATE
 TOP OF VALENCE BANDS -    BAND     99; K    1; EIG -1.9355016E-01 AU
 BOTTOM OF VIRTUAL BANDS - BAND    100; K   17; EIG -1.2398889E-01 AU
 INDIRECT ENERGY BAND GAP:   1.8929 eV
 BOTTOM OF VIRTUAL BANDS - BAND    100; K    1; EIG -2.1202569E-02 AU
 TTTTTTTTTTTTTTTTTTTTTTTTTTTTTT PDIG        TELAPSE      148.02 TCPU     4249.36
 CHARGE NORMALIZATION FACTOR   1.00000000
 TOTAL ATOMIC CHARGES:
   4.4611543   4.4609002   4.4610633   4.4611653   4.4610686   4.4612072
   0.8857721   0.8858920   0.8857391   0.8858284   0.8857471   0.8859338
   0.8857742   0.8858605   0.8857257   0.8859001   0.8857658   0.8858556
   5.9324388   6.1663792   6.1663642   6.1662621   6.1662929   5.9331806
   5.9324778   6.1662681   6.1663289   6.1663409   6.1662172   5.9329956
   5.9326609   6.1662214   6.1664292   6.1663022   6.1663208   5.9328812
   8.5017057   8.5019683   8.5019313   8.5017465   8.5019007   8.5020320
 TTTTTTTTTTTTTTTTTTTTTTTTTTTTTT MOQGAD      TELAPSE      148.08 TCPU     4249.42
 TTTTTTTTTTTTTTTTTTTTTTTTTTTTTT SHELLXN     TELAPSE      162.89 TCPU     4721.88
 TTTTTTTTTTTTTTTTTTTTTTTTTTTTTT MONMO3      TELAPSE      163.10 TCPU     4728.62
 NUMERICALLY INTEGRATED DENSITY    197.9998559026
 TTTTTTTTTTTTTTTTTTTTTTTTTTTTTT NUMDFT      TELAPSE      163.82 TCPU     4751.32
 CYC   8 ETOT(AU) -1.289076630932E+03 DETOT -1.53E-06 tst  1.02E-08 PX  1.99E-04
 TTTTTTTTTTTTTTTTTTTTTTTTTTTTTT DIIS        TELAPSE      163.90 TCPU     4754.16
 DIIS TEST: 0.30816E-06 AT SCF   CYCLE   8 - DIIS ACTIVE - HISTORY:     8 CYCLES
 TTTTTTTTTTTTTTTTTTTTTTTTTTTTTT FDIK        TELAPSE      164.45 TCPU     4771.64
 INSULATING STATE
 TOP OF VALENCE BANDS -    BAND     99; K    1; EIG -1.9352229E-01 AU
 BOTTOM OF VIRTUAL BANDS - BAND    100; K   17; EIG -1.2399842E-01 AU
 INDIRECT ENERGY BAND GAP:   1.8918 eV
 BOTTOM OF VIRTUAL BANDS - BAND    100; K    1; EIG -2.1204882E-02 AU
 TTTTTTTTTTTTTTTTTTTTTTTTTTTTTT PDIG        TELAPSE      164.74 TCPU     4777.78
 CHARGE NORMALIZATION FACTOR   1.00000000
 TOTAL ATOMIC CHARGES:
   4.4611272   4.4609024   4.4610464   4.4611271   4.4610490   4.4611981
   0.8857938   0.8859294   0.8857648   0.8858618   0.8857819   0.8859582
   0.8858083   0.8858857   0.8857567   0.8859284   0.8857951   0.8858855
   5.9325403   6.1663597   6.1662271   6.1662339   6.1661652   5.9330385
   5.9323854   6.1661882   6.1662502   6.1661988   6.1662036   5.9330487
   5.9326323   6.1661729   6.1663198   6.1661828   6.1662841   5.9328706
   8.5018142   8.5021138   8.5020843   8.5018700   8.5020175   8.5021980
 TTTTTTTTTTTTTTTTTTTTTTTTTTTTTT MOQGAD      TELAPSE      164.80 TCPU     4777.84
 TTTTTTTTTTTTTTTTTTTTTTTTTTTTTT SHELLXN     TELAPSE      179.62 TCPU     5250.63
 TTTTTTTTTTTTTTTTTTTTTTTTTTTTTT MONMO3      TELAPSE      179.83 TCPU     5257.37
 NUMERICALLY INTEGRATED DENSITY    197.9998559033
 TTTTTTTTTTTTTTTTTTTTTTTTTTTTTT NUMDFT      TELAPSE      180.54 TCPU     5280.13
 CYC   9 ETOT(AU) -1.289076630875E+03 DETOT  5.66E-08 tst  1.18E-09 PX  6.02E-05
 TTTTTTTTTTTTTTTTTTTTTTTTTTTTTT DIIS        TELAPSE      180.64 TCPU     5283.21
 DIIS TEST: 0.64616E-07 AT SCF   CYCLE   9 - DIIS ACTIVE - HISTORY:     9 CYCLES
 TTTTTTTTTTTTTTTTTTTTTTTTTTTTTT FDIK        TELAPSE      181.19 TCPU     5300.83
 INSULATING STATE
 TOP OF VALENCE BANDS -    BAND     99; K    1; EIG -1.9352882E-01 AU
 BOTTOM OF VIRTUAL BANDS - BAND    100; K   17; EIG -1.2399381E-01 AU
 INDIRECT ENERGY BAND GAP:   1.8921 eV
 BOTTOM OF VIRTUAL BANDS - BAND    100; K    1; EIG -2.1201448E-02 AU
 TTTTTTTTTTTTTTTTTTTTTTTTTTTTTT PDIG        TELAPSE      181.49 TCPU     5306.97
 CHARGE NORMALIZATION FACTOR   1.00000000
 TOTAL ATOMIC CHARGES:
   4.4611118   4.4608619   4.4610230   4.4611152   4.4610202   4.4611612
   0.8857925   0.8859171   0.8857611   0.8858519   0.8857723   0.8859543
   0.8857969   0.8858835   0.8857501   0.8859213   0.8857871   0.8858799
   5.9324724   6.1663322   6.1662850   6.1662048   6.1662245   5.9331655
   5.9324852   6.1661951   6.1662746   6.1662862   6.1661462   5.9330073
   5.9326810   6.1661505   6.1663733   6.1662545   6.1662425   5.9328803
   8.5018223   8.5020838   8.5020456   8.5018607   8.5020166   8.5021483
 TTTTTTTTTTTTTTTTTTTTTTTTTTTTTT MOQGAD      TELAPSE      181.54 TCPU     5307.03
 TTTTTTTTTTTTTTTTTTTTTTTTTTTTTT SHELLXN     TELAPSE      196.45 TCPU     5782.26
 +++ ENERGIES IN A.U. +++
 ::: EXT EL-POLE                                  -1.5874870075394E+03
 ::: EXT EL-SPHEROPOLE                             1.7831579479473E+01
 ::: BIELET ZONE E-E                               2.5837795469858E+03
 ::: TOTAL E-E                                     1.0141241189259E+03
 ::: TOTAL E-N + N-E                              -3.8500230692262E+03
 ::: TOTAL N-N                                     4.0042844478263E+02
 ::: KINETIC ENERGY                                1.2801670573538E+03
 ::: PSEUDO TOTAL   ENERGY                        -1.1553034481638E+03
 ::: VIRIAL COEFFICIENT                            1.0512687831395E+00
 TTTTTTTTTTTTTTTTTTTTTTTTTTTTTT MONMO3      TELAPSE      196.66 TCPU     5788.96
 NUMERICALLY INTEGRATED DENSITY    197.9998559021
 EXCHANGE ENERGY: -0.126045432570E+03  CORRELATION ENERGY: -0.772775019870E+01
 TTTTTTTTTTTTTTTTTTTTTTTTTTTTTT NUMDFT      TELAPSE      197.37 TCPU     5811.83
 CYC  10 ETOT(AU) -1.289076630933E+03 DETOT -5.75E-08 tst  3.45E-10 PX  6.02E-05

 == SCF ENDED - CONVERGENCE ON ENERGY      E(AU) -1.2890766309327E+03 CYCLES  10


 ENERGY EXPRESSION=HARTREE+FOCK EXCH*0.00000+(HSESOL     EXCH)*1.00000+PBESOL     CORR


 TOTAL ENERGY(DFT)(AU)( 10) -1.2890766309327E+03 DE-5.8E-08 tester 3.5E-10
 TTTTTTTTTTTTTTTTTTTTTTTTTTTTTT EDFT        TELAPSE      197.37 TCPU     5811.84
 
 INFORMATION **** DFTD3 ENERGY **** CALCULATE DFTD3 ENERGY

           DFT-D V3(BJ)
 DF                                         hsesol3c  
 parameters
 s6       :    1.0000
 s8       :    0.0000
 a1       :    0.5196
 a2       :    4.9385
 k1 k3    :   16.0000   -4.0000
 Cutoff   :   50.2022
 CN-Cutoff:   21.1671
 ABC-Cutoff:   21.1671
 
 Edisp /kcal,au:   -33.8809 -0.05399268

 E6    /kcal :   -36.3978
 E8    /kcal :     0.0000
 E6(ABC) "   :   2.516849
 
 INFORMATION **** DFTD3 ENERGY **** NORMAL TERMINATION OF DFTD3 MODULE

 GCP ENERGY CALCULATION
  level        hsesol3c            basis:hsesol3c
  Nbf            474
  Atoms           42

  Parameters: 
  sigma     1.0000
  eta       1.4281
  alpha     0.2936
  beta      1.9467

  dmp_scal      4.0000
  dmp_exp       6.0000
 cutoffs: 
   distance [bohr] 60.0
   noise    [a.u.] 2.2E-16
 SR-damping   T
 ** gCP correction **
  Egcp:        0.0858950073 / (a.u.) ||      53.8999 / (kcal/mol)
 INFORMATION **** GCP **** NORMAL TERMINATION OF GCP MODULE

 *******************************************************************************

 DFT-D3-GCP DISPERSION AND COUNTERPOISE CORRECTION

 D3 DISPERSION ENERGY (AU)      -5.3992682576469E-02
 GCP ENERGY (AU)                 8.5895007349901E-02
 TOTAL ENERGY + DISP + GCP (AU) -1.2890447286079E+03

 *******************************************************************************

 EIGENVECTORS IN FORTRAN UNIT  8
 TTTTTTTTTTTTTTTTTTTTTTTTTTTTTT END         TELAPSE      199.01 TCPU     5819.35
 EEEEEEEEEE TERMINATION  DATE 19 02 2026 TIME 18:00:51.8
