 Default number of threads is:           96

         
 *******************************************************************************
 *                                                                             *
 *                               CRYSTAL23                                     *
 *                      public : 1.0.1 - October 2022                          *
 *                       HTTP://WWW.CRYSTAL.UNITO.IT                           *
 *                                                                             *
 *                              MAIN AUTHORS                                   *
 *                                                                             *
 *  R. DOVESI(1,11), V.R. SAUNDERS(2), C. ROETTI(1,11), R. ORLANDO(1,11),      *
 *  C.M. ZICOVICH-WILSON(1,3), F. PASCALE(4), B. CIVALLERI(1,11),              *
 *  K. DOLL(5), N.M. HARRISON(6), I.J. BUSH(7), Ph. D'ARCO(8),                 *
 *  M. LLUNELL(9), M. CAUSA'(10), Y. NOEL(8), L. MASCHIO(1,11), A. ERBA(1,11)  *
 *  M. RE'RAT(14), S. CASASSA(1,11), B.G. SEARLE(2), J.K. DESMARAIS(1)         *
 *                                                                             *
 *        CONTRIBUTIONS TO THE CODE HAVE ALSO BEEN GIVEN BY                    *
 *                                                                             *
 *  M. FERRABONE(1,11), M. DE LA PIERRE(1,11), M. FERRERO(1,11),               *
 *  J. BAIMA(1,11), E. ALBANESE(1,11), M.F. PEINTINGER(12), R. BAST(13),       *
 *  B. KIRTMAN(15), V. LACIVITA(1,11), R. DEMICHELIS(1,16)                     *
 *  G. BRANDEBURG(17), S. SALUSTRO(1,11), G. SANSONE(1,11)                     *
 *  M.T. RUGGIERO(18), L.E. DAGA(1), L. DONA'(1), A. COSSARD(1)                *
 *                                                                             *
 * (1) THEORETICAL CHEMISTRY GROUP - UNIVERSITA' DI TORINO - TORINO (ITALY)    *
 * (2) SCIENTIFIC COMPUTING DEPARTMENT - STFC DARESBURY (UK)                   *
 * (3) UNIVERSIDAD AUTONOMA DEL ESTADO DE MORELOS - CUERNAVACA (MEXICO)        *
 * (4) UNIVERSITE' DE LORRAINE - NANCY (FRANCE)                                *
 * (5) UNIVERSITAET STUTTGART- STUTTGART (GERMANY)                             *
 * (6) IMPERIAL COLLEGE - LONDON (UK)                                          *
 * (7) SCIENTIFIC COMPUTING DEPARTMENT - STFC RAL (UK)                         *
 * (8) UPMC - SORBONNE UNIVERSITES - PARIS (FRANCE)                            *
 * (9) UNIVERSIDAD DE BARCELONA - BARCELONA (SPAIN)                            *
 *(10) UNIVERSITA' DI NAPOLI "FEDERICO II" - NAPOLI (ITALY)                    *
 *(11) NIS - NANOSTRUCTURED INTERFACES AND SURFACES - TORINO (ITALY)           *
 *(12) MPI FUER CHEMISCHE ENERGIEKONVERSION - MUELHEIM AN DER RUHR (GERMANY)   *
 *(13) UNIVERSITY OF TROMSO - TROMSO (NORWAY)                                  *
 *(14) UNIVERSITE' DE PAU ET DES PAYS DE L'ADOUR - PAU (FRANCE)                *
 *(15) UNIVERSITY OF CALIFORNIA SANTA BARBARA - SANTA BARBARA (USA)            *
 *(16) CURTIN UNIVERSITY - PERTH (AUSTRALIA)                                   *
 *(17) UNIVERSITY COLLEGE LONDON - LONDON (UK)                                 *
 *(18) UNIVERSITY OF VERMONT - BURLINGTON (USA)                                *
 *                                                                             *
 *******************************************************************************
 EEEEEEEEEE STARTING  DATE 14 01 2026 TIME 12:58:13.4
 COF-1_z33_ser_L020                                                              

 CRYSTAL CALCULATION
 (INPUT ACCORDING TO THE INTERNATIONAL TABLES FOR X-RAY CRYSTALLOGRAPHY)
 CRYSTAL FAMILY                       :  TRICLINIC   
 CRYSTAL CLASS  (GROTH - 1921)        :  TRICLINIC PEDIAL                     

 SPACE GROUP (NONCENTROSYMMETRIC)     :  P 1             

 LATTICE PARAMETERS  (ANGSTROMS AND DEGREES) - CONVENTIONAL CELL
        A           B           C        ALPHA        BETA       GAMMA
    15.02070    15.04439     6.60000    90.00330    89.99929   120.05310


 NUMBER OF IRREDUCIBLE ATOMS IN THE CONVENTIONAL CELL:   84

 INPUT COORDINATES

 ATOM AT. N.              COORDINATES
   1   5     6.156164300000E-01  2.280750700000E-01  2.503350600000E-01
   2   5     6.926550100000E-01  3.816631500000E-01  7.503350600000E-01
   3   5     7.743958300000E-01  3.871017900000E-01  2.503400600000E-01
   4   5     8.514344100000E-01  5.406898700000E-01  7.503400600000E-01
   5   5     6.151641200000E-01  3.867891800000E-01  2.496250400000E-01
   6   5     6.922027000000E-01  5.403772600000E-01  7.496250400000E-01
   7   5     2.287899500000E-01  6.143590000000E-01  2.527326400000E-01
   8   5     3.058285300000E-01  7.679470800000E-01  7.527326400000E-01
   9   5     3.873645400000E-01  6.138581800000E-01  2.547546500000E-01
  10   5     4.644031200000E-01  7.674462600000E-01  7.547546600000E-01
  11   5     3.876370900000E-01  7.731966900000E-01  2.517717300000E-01
  12   5     4.646756700000E-01  9.267847700000E-01  7.517717300000E-01
  13   1     9.044214300000E-01  3.095486000000E-01  2.522843200000E-01
  14   1     9.814600100000E-01  4.631366800000E-01  7.522843200000E-01
  15   1     9.886935000000E-02  6.914399800000E-01  2.464889700000E-01
  16   1     1.759079300000E-01  8.450280600000E-01  7.464889700000E-01
  17   1     9.044870700000E-01  5.941405000000E-01  2.464198100000E-01
  18   1     9.815256500000E-01  7.477285800000E-01  7.464198100000E-01
  19   1     9.886081000000E-02  4.067623600000E-01  2.520686100000E-01
  20   1     1.758993900000E-01  5.603504400000E-01  7.520686100000E-01
  21   1     5.944002700000E-01  9.032291200000E-01  2.521296400000E-01
  22   1     6.714388500000E-01  5.681720000000E-02  7.521296400000E-01
  23   1     4.082606200000E-01  9.863600000000E-02  2.473051000000E-01
  24   1     4.852992000000E-01  2.522240800000E-01  7.473051100000E-01
  25   1     3.099203300000E-01  9.049241600000E-01  2.479585500000E-01
  26   1     3.869589100000E-01  5.851224000000E-02  7.479585500000E-01
  27   1     6.925018400000E-01  9.691914000000E-02  2.511989500000E-01
  28   1     7.695404200000E-01  2.505072200000E-01  7.511989500000E-01
  29   1     5.939977500000E-01  6.905649700000E-01  2.489073200000E-01
  30   1     6.710363300000E-01  8.441530500000E-01  7.489073200000E-01
  31   1     4.066874900000E-01  3.089518100000E-01  2.530490200000E-01
  32   1     4.837260700000E-01  4.625398900000E-01  7.530490200000E-01
  33   1     3.093234400000E-01  4.048732800000E-01  2.528665800000E-01
  34   1     3.863620200000E-01  5.584613600000E-01  7.528665800000E-01
  35   1     6.917891600000E-01  5.947057300000E-01  2.493740600000E-01
  36   1     7.688277400000E-01  7.482938100000E-01  7.493740600000E-01
  37   6     8.936883400000E-01  4.465308800000E-01  2.502150600000E-01
  38   6     9.707269200000E-01  6.001189600000E-01  7.502150500000E-01
  39   6     9.482125500000E-01  3.933544000000E-01  2.510981300000E-01
  40   6     2.525113000000E-02  5.469424800000E-01  7.510981300000E-01
  41   6     5.522963000000E-02  6.076907100000E-01  2.479015700000E-01
  42   6     1.322682100000E-01  7.612787900000E-01  7.479015700000E-01
  43   6     9.482511500000E-01  5.541658000000E-01  2.480701600000E-01
  44   6     2.528973000000E-02  7.077538800000E-01  7.480701600000E-01
  45   6     5.524319000000E-02  4.469193500000E-01  2.507762600000E-01
  46   6     1.322817700000E-01  6.005074300000E-01  7.507762600000E-01
  47   6     1.097444900000E-01  5.545914500000E-01  2.496846000000E-01
  48   6     1.867830700000E-01  7.081795300000E-01  7.496846000000E-01
  49   6     4.466001600000E-01  8.925727600000E-01  2.509558100000E-01
  50   6     5.236387400000E-01  4.616084000000E-02  7.509558100000E-01
  51   6     5.544734200000E-01  9.470548000000E-01  2.511509000000E-01
  52   6     6.315120000000E-01  1.006428800000E-01  7.511509100000E-01
  53   6     4.480139400000E-01  5.459988000000E-02  2.485126400000E-01
  54   6     5.250525200000E-01  2.081879600000E-01  7.485126300000E-01
  55   6     3.938956300000E-01  9.476446600000E-01  2.490719900000E-01
  56   6     4.709342100000E-01  1.012327400000E-01  7.490719900000E-01
  57   6     6.085567200000E-01  5.392133000000E-02  2.504321800000E-01
  58   6     6.855953000000E-01  2.075094100000E-01  7.504321800000E-01
  59   6     5.558772400000E-01  1.089145700000E-01  2.496200200000E-01
  60   6     6.329158200000E-01  2.625026500000E-01  7.496200300000E-01
  61   6     4.462008000000E-01  5.535192700000E-01  2.500056400000E-01
  62   6     5.232393800000E-01  7.071073500000E-01  7.500056400000E-01
  63   6     5.540499900000E-01  6.067742600000E-01  2.497299000000E-01
  64   6     6.310885700000E-01  7.603623400000E-01  7.497299000000E-01
  65   6     4.472124200000E-01  3.927448200000E-01  2.519917300000E-01
  66   6     5.242510000000E-01  5.463329000000E-01  7.519917300000E-01
  67   6     3.933109600000E-01  4.457904200000E-01  2.516877600000E-01
  68   6     4.703495400000E-01  5.993785000000E-01  7.516877500000E-01
  69   6     6.078636300000E-01  5.537097300000E-01  2.501990900000E-01
  70   6     6.849022100000E-01  7.072978100000E-01  7.501990900000E-01
  71   6     5.551090200000E-01  4.459864200000E-01  2.508200300000E-01
  72   6     6.321476000000E-01  5.995745000000E-01  7.508200400000E-01
  73   8     5.624997000000E-01  2.808905100000E-01  2.498199800000E-01
  74   8     6.395382800000E-01  4.344785900000E-01  7.498199800000E-01
  75   8     7.216591500000E-01  2.811877200000E-01  2.513150600000E-01
  76   8     7.986977300000E-01  4.347758000000E-01  7.513150500000E-01
  77   8     7.212675800000E-01  4.399315100000E-01  2.490551200000E-01
  78   8     7.983061600000E-01  5.935195900000E-01  7.490551300000E-01
  79   8     2.816285800000E-01  7.202206700000E-01  2.513883900000E-01
  80   8     3.586671600000E-01  8.738087500000E-01  7.513883900000E-01
  81   8     2.813888000000E-01  5.611590400000E-01  2.551323900000E-01
  82   8     3.584273800000E-01  7.147471200000E-01  7.551323900000E-01
  83   8     4.404370800000E-01  7.199310200000E-01  2.526243000000E-01
  84   8     5.174756600000E-01  8.735191000000E-01  7.526243000000E-01

 *******************************************************************************

 << INFORMATION >>: FROM NOW ON, ALL COORDINATES REFER TO THE PRIMITIVE CELL

 *******************************************************************************

 LATTICE PARAMETERS  (ANGSTROMS AND DEGREES) - PRIMITIVE CELL
       A          B          C        ALPHA      BETA     GAMMA        VOLUME
   15.02070   15.04439    6.60000    90.00330  89.99929 120.05310   1290.941670

 COORDINATES OF THE EQUIVALENT ATOMS (FRACTIONAL UNITS)

 N. ATOM EQUIV AT. N.          X                  Y                  Z

   1   1   1    5 B    -3.84383570000E-01  2.28075070000E-01  2.50335060000E-01

   2   2   1    5 B    -3.07344990000E-01  3.81663150000E-01 -2.49664940000E-01

   3   3   1    5 B    -2.25604170000E-01  3.87101790000E-01  2.50340060000E-01

   4   4   1    5 B    -1.48565590000E-01 -4.59310130000E-01 -2.49659940000E-01

   5   5   1    5 B    -3.84835880000E-01  3.86789180000E-01  2.49625040000E-01

   6   6   1    5 B    -3.07797300000E-01 -4.59622740000E-01 -2.50374960000E-01

   7   7   1    5 B     2.28789950000E-01 -3.85641000000E-01  2.52732640000E-01

   8   8   1    5 B     3.05828530000E-01 -2.32052920000E-01 -2.47267360000E-01

   9   9   1    5 B     3.87364540000E-01 -3.86141820000E-01  2.54754650000E-01

  10  10   1    5 B     4.64403120000E-01 -2.32553740000E-01 -2.45245340000E-01

  11  11   1    5 B     3.87637090000E-01 -2.26803310000E-01  2.51771730000E-01

  12  12   1    5 B     4.64675670000E-01 -7.32152300000E-02 -2.48228270000E-01

  13  13   1    1 H    -9.55785700000E-02  3.09548600000E-01  2.52284320000E-01

  14  14   1    1 H    -1.85399900000E-02  4.63136680000E-01 -2.47715680000E-01

  15  15   1    1 H     9.88693500000E-02 -3.08560020000E-01  2.46488970000E-01

  16  16   1    1 H     1.75907930000E-01 -1.54971940000E-01 -2.53511030000E-01

  17  17   1    1 H    -9.55129300000E-02 -4.05859500000E-01  2.46419810000E-01

  18  18   1    1 H    -1.84743500000E-02 -2.52271420000E-01 -2.53580190000E-01

  19  19   1    1 H     9.88608100000E-02  4.06762360000E-01  2.52068610000E-01

  20  20   1    1 H     1.75899390000E-01 -4.39649560000E-01 -2.47931390000E-01

  21  21   1    1 H    -4.05599730000E-01 -9.67708800000E-02  2.52129640000E-01

  22  22   1    1 H    -3.28561150000E-01  5.68172000000E-02 -2.47870360000E-01

  23  23   1    1 H     4.08260620000E-01  9.86360000000E-02  2.47305100000E-01

  24  24   1    1 H     4.85299200000E-01  2.52224080000E-01 -2.52694890000E-01

  25  25   1    1 H     3.09920330000E-01 -9.50758400000E-02  2.47958550000E-01

  26  26   1    1 H     3.86958910000E-01  5.85122400000E-02 -2.52041450000E-01

  27  27   1    1 H    -3.07498160000E-01  9.69191400000E-02  2.51198950000E-01

  28  28   1    1 H    -2.30459580000E-01  2.50507220000E-01 -2.48801050000E-01

  29  29   1    1 H    -4.06002250000E-01 -3.09435030000E-01  2.48907320000E-01

  30  30   1    1 H    -3.28963670000E-01 -1.55846950000E-01 -2.51092680000E-01

  31  31   1    1 H     4.06687490000E-01  3.08951810000E-01  2.53049020000E-01

  32  32   1    1 H     4.83726070000E-01  4.62539890000E-01 -2.46950980000E-01

  33  33   1    1 H     3.09323440000E-01  4.04873280000E-01  2.52866580000E-01

  34  34   1    1 H     3.86362020000E-01 -4.41538640000E-01 -2.47133420000E-01

  35  35   1    1 H    -3.08210840000E-01 -4.05294270000E-01  2.49374060000E-01

  36  36   1    1 H    -2.31172260000E-01 -2.51706190000E-01 -2.50625940000E-01

  37  37   1    6 C    -1.06311660000E-01  4.46530880000E-01  2.50215060000E-01

  38  38   1    6 C    -2.92730800000E-02 -3.99881040000E-01 -2.49784950000E-01

  39  39   1    6 C    -5.17874500000E-02  3.93354400000E-01  2.51098130000E-01

  40  40   1    6 C     2.52511300000E-02 -4.53057520000E-01 -2.48901870000E-01

  41  41   1    6 C     5.52296300000E-02 -3.92309290000E-01  2.47901570000E-01

  42  42   1    6 C     1.32268210000E-01 -2.38721210000E-01 -2.52098430000E-01

  43  43   1    6 C    -5.17488500000E-02 -4.45834200000E-01  2.48070160000E-01

  44  44   1    6 C     2.52897300000E-02 -2.92246120000E-01 -2.51929840000E-01

  45  45   1    6 C     5.52431900000E-02  4.46919350000E-01  2.50776260000E-01

  46  46   1    6 C     1.32281770000E-01 -3.99492570000E-01 -2.49223740000E-01

  47  47   1    6 C     1.09744490000E-01 -4.45408550000E-01  2.49684600000E-01

  48  48   1    6 C     1.86783070000E-01 -2.91820470000E-01 -2.50315400000E-01

  49  49   1    6 C     4.46600160000E-01 -1.07427240000E-01  2.50955810000E-01

  50  50   1    6 C    -4.76361260000E-01  4.61608400000E-02 -2.49044190000E-01

  51  51   1    6 C    -4.45526580000E-01 -5.29452000000E-02  2.51150900000E-01

  52  52   1    6 C    -3.68488000000E-01  1.00642880000E-01 -2.48849090000E-01

  53  53   1    6 C     4.48013940000E-01  5.45998800000E-02  2.48512640000E-01

  54  54   1    6 C    -4.74947480000E-01  2.08187960000E-01 -2.51487370000E-01

  55  55   1    6 C     3.93895630000E-01 -5.23553400000E-02  2.49071990000E-01

  56  56   1    6 C     4.70934210000E-01  1.01232740000E-01 -2.50928010000E-01

  57  57   1    6 C    -3.91443280000E-01  5.39213300000E-02  2.50432180000E-01

  58  58   1    6 C    -3.14404700000E-01  2.07509410000E-01 -2.49567820000E-01

  59  59   1    6 C    -4.44122760000E-01  1.08914570000E-01  2.49620020000E-01

  60  60   1    6 C    -3.67084180000E-01  2.62502650000E-01 -2.50379970000E-01

  61  61   1    6 C     4.46200800000E-01 -4.46480730000E-01  2.50005640000E-01

  62  62   1    6 C    -4.76760620000E-01 -2.92892650000E-01 -2.49994360000E-01

  63  63   1    6 C    -4.45950010000E-01 -3.93225740000E-01  2.49729900000E-01

  64  64   1    6 C    -3.68911430000E-01 -2.39637660000E-01 -2.50270100000E-01

  65  65   1    6 C     4.47212420000E-01  3.92744820000E-01  2.51991730000E-01

  66  66   1    6 C    -4.75749000000E-01 -4.53667100000E-01 -2.48008270000E-01

  67  67   1    6 C     3.93310960000E-01  4.45790420000E-01  2.51687760000E-01

  68  68   1    6 C     4.70349540000E-01 -4.00621500000E-01 -2.48312250000E-01

  69  69   1    6 C    -3.92136370000E-01 -4.46290270000E-01  2.50199090000E-01

  70  70   1    6 C    -3.15097790000E-01 -2.92702190000E-01 -2.49800910000E-01

  71  71   1    6 C    -4.44890980000E-01  4.45986420000E-01  2.50820030000E-01

  72  72   1    6 C    -3.67852400000E-01 -4.00425500000E-01 -2.49179960000E-01

  73  73   1    8 O    -4.37500300000E-01  2.80890510000E-01  2.49819980000E-01

  74  74   1    8 O    -3.60461720000E-01  4.34478590000E-01 -2.50180020000E-01

  75  75   1    8 O    -2.78340850000E-01  2.81187720000E-01  2.51315060000E-01

  76  76   1    8 O    -2.01302270000E-01  4.34775800000E-01 -2.48684950000E-01

  77  77   1    8 O    -2.78732420000E-01  4.39931510000E-01  2.49055120000E-01

  78  78   1    8 O    -2.01693840000E-01 -4.06480410000E-01 -2.50944870000E-01

  79  79   1    8 O     2.81628580000E-01 -2.79779330000E-01  2.51388390000E-01

  80  80   1    8 O     3.58667160000E-01 -1.26191250000E-01 -2.48611610000E-01

  81  81   1    8 O     2.81388800000E-01 -4.38840960000E-01  2.55132390000E-01

  82  82   1    8 O     3.58427380000E-01 -2.85252880000E-01 -2.44867610000E-01

  83  83   1    8 O     4.40437080000E-01 -2.80068980000E-01  2.52624300000E-01

  84  84   1    8 O    -4.82524340000E-01 -1.26480900000E-01 -2.47375700000E-01

 NUMBER OF SYMMETRY OPERATORS         :    1
 *******************************************************************************
 * GEOMETRY EDITING - INPUT COORDINATES ARE GIVEN IN ANGSTROM         
 *******************************************************************************
 INFORMATION **** NEW DEFAULT **** FINALRUN 4 FOR GEOMETRY OPTIMIZATIONS
 INFORMATION **** NEW DEFAULT **** OPTGEOM OPTIMIZES BOTH ATOMIC COORDINATES AND CELL PARAMETERS
 INFORMATION **** NEW DEFAULT **** TOL. ON ATOMIC DISP TO REDEFINE REF. GEOMETRY: 0.8 Angs
 INFORMATION **** NEW DEFAULT **** N POINTS TO REDEFINE REF. GEOMETRY: N OF OPT DEGS OF FREEDOM
 INFORMATION **** NEW DEFAULT **** TOL. ON ENERGY TO REDEFINE REF. GEOMETRY: 10**-3*(5*N. ATOMS)
 INFORMATION **** MAXTRADIUS **** MAX ALLOWED TRUST RADIUS  3.000000E-01

 IMPORTANT INFORMATION:
 THE COORDINATE SYSTEM ADOPTED IN THE OPTIMIZATION IS NOT IN
 GENERAL HOMOGENEOUS UNITS. FOR THIS REASON THE GRADIENT AND 
 HESSIAN MATRIX IN TERMS OF THIS SYSTEM ARE GIVEN WITHOUT
 UNITS. FOR MORE DETAILS SEE THE MANUAL.

 *******************************************************************************
 COMBINED CELL/ATOM OPTIMIZATION CONTROL

 INITIAL TRUST RADIUS         0.50000 MAXIMUM TRUST RADIUS               0.30000
 MAXIMUM GRADIENT COMPONENT   0.00045 MAXIMUM DISPLACEMENT COMPONENT     0.00180
 R.M.S. OF GRADIENT COMPONENT 0.00030 R.M.S. OF DISPLACEMENT COMPONENTS  0.00120
 THRESHOLD ON ENERGY CHANGE 0.100E-06 EXTRAPOLATING POLYNOMIAL ORDER           2
 MAXIMUM ALLOWED NUMBER OF STEPS   -1 SORTING OF ENERGY POINTS:               NO
 ANALYTICAL  GRADIENT                 HESSIAN UPDATING                      BFGS
 STEP SIZE NUMERICAL GRADIENT 0.00100
 INITIAL HESSIAN MATRIX: SCHLEGEL MODEL 2
 *******************************************************************************


 GCALCO - MAX INDICES DIRECT LATTICE VECTOR    12    11    23
 NO.OF VECTORS CREATED 6999 STARS 3500 RMAX   244.93791 BOHR

 GEOMETRY FOR WAVE FUNCTION - DIMENSIONALITY OF THE SYSTEM    3
 (NON PERIODIC DIRECTION: LATTICE PARAMETER FORMALLY SET TO 500)
 *******************************************************************************
 LATTICE PARAMETERS (ANGSTROMS AND DEGREES) - BOHR = 0.5291772083 ANGSTROM
 PRIMITIVE CELL - CENTRING CODE 1/0 VOLUME=  1290.941670 - DENSITY  1.004 g/cm^3
         A              B              C           ALPHA      BETA       GAMMA 
    15.02070100    15.04438700     6.60000000    90.003305  89.999286 120.053104
 *******************************************************************************
 ATOMS IN THE ASYMMETRIC UNIT   84 - ATOMS IN THE UNIT CELL:   84
     ATOM                 X/A                 Y/B                 Z/C    
 *******************************************************************************
      1 T   5 B    -3.843835700000E-01  2.280750700000E-01  2.503350600000E-01
      2 T   5 B    -3.073449900000E-01  3.816631500000E-01 -2.496649400000E-01
      3 T   5 B    -2.256041700000E-01  3.871017900000E-01  2.503400600000E-01
      4 T   5 B    -1.485655900000E-01 -4.593101300000E-01 -2.496599400000E-01
      5 T   5 B    -3.848358800000E-01  3.867891800000E-01  2.496250400000E-01
      6 T   5 B    -3.077973000000E-01 -4.596227400000E-01 -2.503749600000E-01
      7 T   5 B     2.287899500000E-01 -3.856410000000E-01  2.527326400000E-01
      8 T   5 B     3.058285300000E-01 -2.320529200000E-01 -2.472673600000E-01
      9 T   5 B     3.873645400000E-01 -3.861418200000E-01  2.547546500000E-01
     10 T   5 B     4.644031200000E-01 -2.325537400000E-01 -2.452453400000E-01
     11 T   5 B     3.876370900000E-01 -2.268033100000E-01  2.517717300000E-01
     12 T   5 B     4.646756700000E-01 -7.321523000000E-02 -2.482282700000E-01
     13 T   1 H    -9.557857000000E-02  3.095486000000E-01  2.522843200000E-01
     14 T   1 H    -1.853999000000E-02  4.631366800000E-01 -2.477156800000E-01
     15 T   1 H     9.886935000000E-02 -3.085600200000E-01  2.464889700000E-01
     16 T   1 H     1.759079300000E-01 -1.549719400000E-01 -2.535110300000E-01
     17 T   1 H    -9.551293000000E-02 -4.058595000000E-01  2.464198100000E-01
     18 T   1 H    -1.847435000000E-02 -2.522714200000E-01 -2.535801900000E-01
     19 T   1 H     9.886081000000E-02  4.067623600000E-01  2.520686100000E-01
     20 T   1 H     1.758993900000E-01 -4.396495600000E-01 -2.479313900000E-01
     21 T   1 H    -4.055997300000E-01 -9.677088000000E-02  2.521296400000E-01
     22 T   1 H    -3.285611500000E-01  5.681720000000E-02 -2.478703600000E-01
     23 T   1 H     4.082606200000E-01  9.863600000000E-02  2.473051000000E-01
     24 T   1 H     4.852992000000E-01  2.522240800000E-01 -2.526948900000E-01
     25 T   1 H     3.099203300000E-01 -9.507584000000E-02  2.479585500000E-01
     26 T   1 H     3.869589100000E-01  5.851224000000E-02 -2.520414500000E-01
     27 T   1 H    -3.074981600000E-01  9.691914000000E-02  2.511989500000E-01
     28 T   1 H    -2.304595800000E-01  2.505072200000E-01 -2.488010500000E-01
     29 T   1 H    -4.060022500000E-01 -3.094350300000E-01  2.489073200000E-01
     30 T   1 H    -3.289636700000E-01 -1.558469500000E-01 -2.510926800000E-01
     31 T   1 H     4.066874900000E-01  3.089518100000E-01  2.530490200000E-01
     32 T   1 H     4.837260700000E-01  4.625398900000E-01 -2.469509800000E-01
     33 T   1 H     3.093234400000E-01  4.048732800000E-01  2.528665800000E-01
     34 T   1 H     3.863620200000E-01 -4.415386400000E-01 -2.471334200000E-01
     35 T   1 H    -3.082108400000E-01 -4.052942700000E-01  2.493740600000E-01
     36 T   1 H    -2.311722600000E-01 -2.517061900000E-01 -2.506259400000E-01
     37 T   6 C    -1.063116600000E-01  4.465308800000E-01  2.502150600000E-01
     38 T   6 C    -2.927308000000E-02 -3.998810400000E-01 -2.497849500000E-01
     39 T   6 C    -5.178745000000E-02  3.933544000000E-01  2.510981300000E-01
     40 T   6 C     2.525113000000E-02 -4.530575200000E-01 -2.489018700000E-01
     41 T   6 C     5.522963000000E-02 -3.923092900000E-01  2.479015700000E-01
     42 T   6 C     1.322682100000E-01 -2.387212100000E-01 -2.520984300000E-01
     43 T   6 C    -5.174885000000E-02 -4.458342000000E-01  2.480701600000E-01
     44 T   6 C     2.528973000000E-02 -2.922461200000E-01 -2.519298400000E-01
     45 T   6 C     5.524319000000E-02  4.469193500000E-01  2.507762600000E-01
     46 T   6 C     1.322817700000E-01 -3.994925700000E-01 -2.492237400000E-01
     47 T   6 C     1.097444900000E-01 -4.454085500000E-01  2.496846000000E-01
     48 T   6 C     1.867830700000E-01 -2.918204700000E-01 -2.503154000000E-01
     49 T   6 C     4.466001600000E-01 -1.074272400000E-01  2.509558100000E-01
     50 T   6 C    -4.763612600000E-01  4.616084000000E-02 -2.490441900000E-01
     51 T   6 C    -4.455265800000E-01 -5.294520000000E-02  2.511509000000E-01
     52 T   6 C    -3.684880000000E-01  1.006428800000E-01 -2.488490900000E-01
     53 T   6 C     4.480139400000E-01  5.459988000000E-02  2.485126400000E-01
     54 T   6 C    -4.749474800000E-01  2.081879600000E-01 -2.514873700000E-01
     55 T   6 C     3.938956300000E-01 -5.235534000000E-02  2.490719900000E-01
     56 T   6 C     4.709342100000E-01  1.012327400000E-01 -2.509280100000E-01
     57 T   6 C    -3.914432800000E-01  5.392133000000E-02  2.504321800000E-01
     58 T   6 C    -3.144047000000E-01  2.075094100000E-01 -2.495678200000E-01
     59 T   6 C    -4.441227600000E-01  1.089145700000E-01  2.496200200000E-01
     60 T   6 C    -3.670841800000E-01  2.625026500000E-01 -2.503799700000E-01
     61 T   6 C     4.462008000000E-01 -4.464807300000E-01  2.500056400000E-01
     62 T   6 C    -4.767606200000E-01 -2.928926500000E-01 -2.499943600000E-01
     63 T   6 C    -4.459500100000E-01 -3.932257400000E-01  2.497299000000E-01
     64 T   6 C    -3.689114300000E-01 -2.396376600000E-01 -2.502701000000E-01
     65 T   6 C     4.472124200000E-01  3.927448200000E-01  2.519917300000E-01
     66 T   6 C    -4.757490000000E-01 -4.536671000000E-01 -2.480082700000E-01
     67 T   6 C     3.933109600000E-01  4.457904200000E-01  2.516877600000E-01
     68 T   6 C     4.703495400000E-01 -4.006215000000E-01 -2.483122500000E-01
     69 T   6 C    -3.921363700000E-01 -4.462902700000E-01  2.501990900000E-01
     70 T   6 C    -3.150977900000E-01 -2.927021900000E-01 -2.498009100000E-01
     71 T   6 C    -4.448909800000E-01  4.459864200000E-01  2.508200300000E-01
     72 T   6 C    -3.678524000000E-01 -4.004255000000E-01 -2.491799600000E-01
     73 T   8 O    -4.375003000000E-01  2.808905100000E-01  2.498199800000E-01
     74 T   8 O    -3.604617200000E-01  4.344785900000E-01 -2.501800200000E-01
     75 T   8 O    -2.783408500000E-01  2.811877200000E-01  2.513150600000E-01
     76 T   8 O    -2.013022700000E-01  4.347758000000E-01 -2.486849500000E-01
     77 T   8 O    -2.787324200000E-01  4.399315100000E-01  2.490551200000E-01
     78 T   8 O    -2.016938400000E-01 -4.064804100000E-01 -2.509448700000E-01
     79 T   8 O     2.816285800000E-01 -2.797793300000E-01  2.513883900000E-01
     80 T   8 O     3.586671600000E-01 -1.261912500000E-01 -2.486116100000E-01
     81 T   8 O     2.813888000000E-01 -4.388409600000E-01  2.551323900000E-01
     82 T   8 O     3.584273800000E-01 -2.852528800000E-01 -2.448676100000E-01
     83 T   8 O     4.404370800000E-01 -2.800689800000E-01  2.526243000000E-01
     84 T   8 O    -4.825243400000E-01 -1.264809000000E-01 -2.473757000000E-01

 T = ATOM BELONGING TO THE ASYMMETRIC UNIT

 ****    1 SYMMOPS - TRANSLATORS IN FRACTIONAL UNITS
 **** MATRICES AND TRANSLATORS IN THE CRYSTALLOGRAPHIC REFERENCE FRAME
   V INV                    ROTATION MATRICES                   TRANSLATORS
   1   1  1.00 -0.00  0.00  0.00  1.00  0.00  0.00  0.00  1.00  0.00  0.00  0.00

 DIRECT LATTICE VECTORS CARTESIAN COMPONENTS (ANGSTROM)
          X                    Y                    Z
   0.130013421718E+02  -0.752240388864E+01   0.000000000000E+00
   0.000000000000E+00   0.150443870000E+02   0.000000000000E+00
  -0.125251556843E-03  -0.380708669526E-03   0.659999998783E+01


 CARTESIAN COORDINATES - PRIMITIVE CELL
 *******************************************************************************
 *      ATOM          X(ANGSTROM)         Y(ANGSTROM)         Z(ANGSTROM)
 *******************************************************************************
    1     5 B    -4.997533673634E+00  6.322642775103E+00  1.652211392954E+00
    2     5 B    -3.995866108848E+00 -6.990430670223E+00 -1.647788600962E+00
    3     5 B    -2.933188365031E+00  7.520699516223E+00  1.652244392954E+00
    4     5 B    -1.931520800245E+00 -5.792373929102E+00 -1.647755600962E+00
    5     5 B    -5.003414221781E+00 -6.330585002883E+00  1.647525260962E+00
    6     5 B    -4.001746656995E+00 -4.599271448209E+00 -1.652474732953E+00
    7     5 B     2.974544770256E+00  7.521507925864E+00  1.668035420925E+00
    8     5 B     3.976212335042E+00 -5.791565519462E+00 -1.631964572991E+00
    9     5 B    -7.965115150439E+00 -1.200872597644E+00  1.681380686900E+00
   10     5 B    -6.963447585654E+00  5.304409570263E-01 -1.618619241016E+00
   11     5 B    -7.961571261014E+00  1.194228515243E+00  1.661693414936E+00
   12     5 B    -6.959903696228E+00  2.925542069917E+00 -1.638306578979E+00
   13     1 H    -1.242681291863E+00  5.375853493519E+00  1.665076508930E+00
   14     1 H    -2.410137270767E-01  7.107167048193E+00 -1.634923484986E+00
   15     1 H     1.285403376524E+00 -5.385925377003E+00  1.626827199001E+00
   16     1 H     2.287070941310E+00 -3.654611822329E+00 -1.673172794915E+00
   17     1 H    -1.241827149224E+00 -5.387514363737E+00  1.626370743001E+00
   18     1 H    -2.401595844375E-01 -3.656200809063E+00 -1.673629250914E+00
   19     1 H     1.285291646203E+00  5.375723454590E+00  1.663652822933E+00
   20     1 H     2.286959210989E+00  7.107037009264E+00 -1.636347170983E+00
   21     1 H    -5.273372454139E+00  1.595130429194E+00  1.664055620932E+00
   22     1 H    -4.271704889353E+00  3.326443983868E+00 -1.635944372984E+00
   23     1 H     5.307905040532E+00 -1.587277270531E+00  1.632213656991E+00
   24     1 H     6.309572605316E+00  1.440362841394E-01 -1.667786270925E+00
   25     1 H     4.029349199125E+00 -3.761798026841E+00  1.636526426983E+00
   26     1 H     5.031016763911E+00 -2.030484472167E+00 -1.663473566933E+00
   27     1 H    -3.997920258410E+00  3.771118770783E+00  1.657913066943E+00
   28     1 H    -2.996252693624E+00  5.502432325458E+00 -1.642086926972E+00
   29     1 H    -5.278605350789E+00 -1.601242199654E+00  1.642788308971E+00
   30     1 H    -4.276937786003E+00  1.300713550204E-01 -1.657211684945E+00
   31     1 H     5.287451519686E+00  1.588626699797E+00  1.670123528921E+00
   32     1 H     6.289119084472E+00  3.319940254471E+00 -1.629876464995E+00
   33     1 H     4.021588213257E+00  3.764118193876E+00  1.668919424923E+00
   34     1 H     5.023255778043E+00  5.495431748550E+00 -1.631080568993E+00
   35     1 H    -4.007185826379E+00 -3.779012364291E+00  1.645868792965E+00
   36     1 H    -3.005518261593E+00 -2.047698809617E+00 -1.654131200950E+00
   37     6 C    -1.382225608335E+00  7.517407351720E+00  1.651419392955E+00
   38     6 C    -3.805580435478E-01 -5.795666093602E+00 -1.648580666960E+00
   39     6 C    -6.733378080853E-01  6.307246341781E+00  1.657247654944E+00
   40     6 C     3.283297567007E-01 -7.005827103545E+00 -1.642752338971E+00
   41     6 C     7.180282675929E-01 -6.317606744212E+00  1.636150358983E+00
   42     6 C     1.719695832379E+00 -4.586293189538E+00 -1.663849634932E+00
   43     6 C    -6.728355770195E-01 -6.318120934623E+00  1.637263052981E+00
   44     6 C     3.288319877664E-01 -4.586807379949E+00 -1.662736940934E+00
   45     6 C     7.182042057333E-01  6.307970599215E+00  1.655123312948E+00
   46     6 C     1.719871770519E+00 -7.005102846111E+00 -1.644876680967E+00
   47     6 C     1.426794392572E+00  7.517850965266E+00  1.647918356962E+00
   48     6 C     2.428461957358E+00 -5.795222480059E+00 -1.652081636954E+00
   49     6 C    -7.194972110251E+00  2.546624594435E+00  1.656308342946E+00
   50     6 C    -6.193304545465E+00  4.277938149110E+00 -1.643691650969E+00
   51     6 C    -5.792474970241E+00  2.554807183968E+00  1.657595936944E+00
   52     6 C    -4.790807405457E+00  4.286120738638E+00 -1.642403990972E+00
   53     6 C     5.824751405069E+00 -2.548814690465E+00  1.640183420976E+00
   54     6 C     6.826418969857E+00 -8.175011357868E-01 -1.659816638940E+00
   55     6 C     5.121140668942E+00 -3.750790839174E+00  1.643875130969E+00
   56     6 C     6.122808233728E+00 -2.019477284499E+00 -1.656124862947E+00
   57     6 C    -5.089319391142E+00  3.755712466027E+00  1.652852384953E+00
   58     6 C    -4.087651826356E+00  5.487026020702E+00 -1.647147608963E+00
   59     6 C    -5.774223234329E+00  4.979328685371E+00  1.647492128962E+00
   60     6 C    -4.772555669544E+00  6.710642240042E+00 -1.652507798953E+00
   61     6 C    -7.200164207250E+00 -2.551222813870E+00  1.650037220958E+00
   62     6 C    -6.198496642464E+00 -8.199092591960E-01 -1.649962772958E+00
   63     6 C    -5.797979950575E+00 -2.561319195895E+00  1.648217336961E+00
   64     6 C    -4.796312385789E+00 -8.300056412211E-01 -1.651782656955E+00
   65     6 C     5.814330133531E+00  2.544396681632E+00  1.663145414934E+00
   66     6 C    -6.185344473457E+00 -3.246272875052E+00 -1.636854578982E+00
   67     6 C     5.113538846585E+00  3.747903884711E+00  1.661139212937E+00
   68     6 C    -6.886135760401E+00 -2.042765671969E+00 -1.638860846978E+00
   69     6 C    -5.098330462193E+00 -3.764450634611E+00  1.651313990955E+00
   70     6 C    -4.096662897407E+00 -2.033137079937E+00 -1.648686002960E+00
   71     6 C    -5.784211275715E+00 -4.988240552162E+00  1.655412194948E+00
   72     6 C    -4.782543710930E+00 -3.256926997491E+00 -1.644587732968E+00
   73     8 O     7.313219780879E+00 -5.619502204837E-03  1.648811864960E+00
   74     8 O    -4.686454826109E+00 -5.796289058889E+00 -1.651188128956E+00
   75     8 O    -3.618836108835E+00  6.323993493913E+00  1.658679392942E+00
   76     8 O    -2.617168544048E+00 -6.989079951408E+00 -1.641320666974E+00
   77     8 O    -3.623926761328E+00 -6.329244087410E+00  1.643763788969E+00
   78     8 O    -2.622259196543E+00 -4.597930532740E+00 -1.656236138946E+00
   79     8 O     3.661518047144E+00 -6.327728146205E+00  1.659163370941E+00
   80     8 O     4.663185611930E+00 -4.596414591531E+00 -1.640836622975E+00
   81     8 O     3.658400116376E+00  6.325476431855E+00  1.683873770895E+00
   82     8 O    -8.341274490612E+00  5.348068751717E-01 -1.616126223020E+00
   83     8 O    -7.275100631144E+00 -4.304012728490E-03  1.667320376926E+00
   84     8 O    -6.273433066358E+00  1.727009541946E+00 -1.632679616990E+00

 *******************************************************************************
 STARTING BASIS SET HANDLING 
 *******************************************************************************

 Loading internal basis set: SOLDEF2MSVP         

 Please cite in your publication:
 L. Dona', J. G. Brandenburg and B. Civalleri, J. Chem. Phys., 151, 121101 (2019
 )                                                                              
                                                                                
                    

 *******************************************************************************
 LOCAL ATOMIC FUNCTIONS BASIS SET
 *******************************************************************************
   ATOM   X(AU)   Y(AU)   Z(AU)  N. TYPE  EXPONENT  S COEF   P COEF   D/F/G COEF
 *******************************************************************************
   1 B   -9.444  11.948   3.122
                                  1 S  
                                         2.410E+03 1.755E-03 0.000E+00 0.000E+00
                                         3.619E+02 1.344E-02 0.000E+00 0.000E+00
                                         8.231E+01 6.637E-02 0.000E+00 0.000E+00
                                         2.311E+01 2.303E-01 0.000E+00 0.000E+00
                                         7.252E+00 5.150E-01 0.000E+00 0.000E+00
                                  2 S  
                                         2.367E+00 1.000E+00 0.000E+00 0.000E+00
                                  3 S  
                                         5.533E-01 1.000E+00 0.000E+00 0.000E+00
                                  4 S  
                                         1.716E-01 1.000E+00 0.000E+00 0.000E+00
                           5-     7 P  
                                         6.002E+00 0.000E+00-3.555E-02 0.000E+00
                                         1.240E+00 0.000E+00-1.983E-01 0.000E+00
                                         3.367E-01 0.000E+00-5.048E-01 0.000E+00
                           8-    10 P  
                                         1.256E-01 0.000E+00 1.000E+00 0.000E+00
                          11-    15 D  
                                         8.880E-01 0.000E+00 0.000E+00 1.000E+00
   2 B   -7.551 -13.210  -3.114
   3 B   -5.543  14.212   3.122
   4 B   -3.650 -10.946  -3.114
   5 B   -9.455 -11.963   3.113
   6 B   -7.562  -8.691  -3.123
   7 B    5.621  14.214   3.152
   8 B    7.514 -10.944  -3.084
   9 B  -15.052  -2.269   3.177
  10 B  -13.159   1.002  -3.059
  11 B  -15.045   2.257   3.140
  12 B  -13.152   5.528  -3.096
  13 H   -2.348  10.159   3.147
                                181 S  
                                         1.874E+01 1.968E-02 0.000E+00 0.000E+00
                                         2.826E+00 1.380E-01 0.000E+00 0.000E+00
                                         6.401E-01 4.783E-01 0.000E+00 0.000E+00
                                182 S  
                                         1.756E-01 1.000E+00 0.000E+00 0.000E+00
  14 H   -0.455  13.431  -3.090
  15 H    2.429 -10.178   3.074
  16 H    4.322  -6.906  -3.162
  17 H   -2.347 -10.181   3.073
  18 H   -0.454  -6.909  -3.163
  19 H    2.429  10.159   3.144
  20 H    4.322  13.430  -3.092
  21 H   -9.965   3.014   3.145
  22 H   -8.072   6.286  -3.091
  23 H   10.030  -3.000   3.084
  24 H   11.923   0.272  -3.152
  25 H    7.614  -7.109   3.093
  26 H    9.507  -3.837  -3.144
  27 H   -7.555   7.126   3.133
  28 H   -5.662  10.398  -3.103
  29 H   -9.975  -3.026   3.104
  30 H   -8.082   0.246  -3.132
  31 H    9.992   3.002   3.156
  32 H   11.885   6.274  -3.080
  33 H    7.600   7.113   3.154
  34 H    9.493  10.385  -3.082
  35 H   -7.572  -7.141   3.110
  36 H   -5.680  -3.870  -3.126
  37 C   -2.612  14.206   3.121
                                229 S  
                                         3.624E+03 1.634E-03 0.000E+00 0.000E+00
                                         5.440E+02 1.252E-02 0.000E+00 0.000E+00
                                         1.237E+02 6.211E-02 0.000E+00 0.000E+00
                                         3.476E+01 2.182E-01 0.000E+00 0.000E+00
                                         1.093E+01 4.980E-01 0.000E+00 0.000E+00
                                230 S  
                                         3.574E+00 1.000E+00 0.000E+00 0.000E+00
                                231 S  
                                         7.742E-01 1.000E+00 0.000E+00 0.000E+00
                                232 S  
                                         2.330E-01 1.000E+00 0.000E+00 0.000E+00
                         233-   235 P  
                                         9.443E+00 0.000E+00 3.790E-02 0.000E+00
                                         2.002E+00 0.000E+00 2.082E-01 0.000E+00
                                         5.463E-01 0.000E+00 5.047E-01 0.000E+00
                         236-   238 P  
                                         1.820E-01 0.000E+00 1.000E+00 0.000E+00
                         239-   243 D  
                                         8.880E-01 0.000E+00 0.000E+00 1.000E+00
  38 C   -0.719 -10.952  -3.115
  39 C   -1.272  11.919   3.132
  40 C    0.620 -13.239  -3.104
  41 C    1.357 -11.939   3.092
  42 C    3.250  -8.667  -3.144
  43 C   -1.271 -11.940   3.094
  44 C    0.621  -8.668  -3.142
  45 C    1.357  11.920   3.128
  46 C    3.250 -13.238  -3.108
  47 C    2.696  14.207   3.114
  48 C    4.589 -10.951  -3.122
  49 C  -13.597   4.812   3.130
  50 C  -11.704   8.084  -3.106
  51 C  -10.946   4.828   3.132
  52 C   -9.053   8.100  -3.104
  53 C   11.007  -4.817   3.099
  54 C   12.900  -1.545  -3.137
  55 C    9.678  -7.088   3.106
  56 C   11.570  -3.816  -3.130
  57 C   -9.617   7.097   3.123
  58 C   -7.725  10.369  -3.113
  59 C  -10.912   9.410   3.113
  60 C   -9.019  12.681  -3.123
  61 C  -13.606  -4.821   3.118
  62 C  -11.713  -1.549  -3.118
  63 C  -10.957  -4.840   3.115
  64 C   -9.064  -1.568  -3.121
  65 C   10.987   4.808   3.143
  66 C  -11.689  -6.135  -3.093
  67 C    9.663   7.083   3.139
  68 C  -13.013  -3.860  -3.097
  69 C   -9.634  -7.114   3.121
  70 C   -7.742  -3.842  -3.116
  71 C  -10.931  -9.426   3.128
  72 C   -9.038  -6.155  -3.108
  73 O   13.820  -0.011   3.116
                                769 S  
                                         6.773E+03 1.727E-03 0.000E+00 0.000E+00
                                         1.017E+03 1.325E-02 0.000E+00 0.000E+00
                                         2.313E+02 6.603E-02 0.000E+00 0.000E+00
                                         6.501E+01 2.353E-01 0.000E+00 0.000E+00
                                         2.050E+01 5.498E-01 0.000E+00 0.000E+00
                                770 S  
                                         6.716E+00 1.000E+00 0.000E+00 0.000E+00
                                771 S  
                                         1.147E+00 1.000E+00 0.000E+00 0.000E+00
                                772 S  
                                         3.342E-01 1.000E+00 0.000E+00 0.000E+00
                         773-   775 P  
                                         1.769E+01 0.000E+00 4.359E-02 0.000E+00
                                         3.854E+00 0.000E+00 2.318E-01 0.000E+00
                                         1.047E+00 0.000E+00 5.146E-01 0.000E+00
                         776-   778 P  
                                         2.759E-01 0.000E+00 1.000E+00 0.000E+00
                         779-   783 D  
                                         8.000E-01 0.000E+00 0.000E+00 1.000E+00
  74 O   -8.856 -10.953  -3.120
  75 O   -6.839  11.951   3.134
  76 O   -4.946 -13.207  -3.102
  77 O   -6.848 -11.961   3.106
  78 O   -4.955  -8.689  -3.130
  79 O    6.919 -11.958   3.135
  80 O    8.812  -8.686  -3.101
  81 O    6.913  11.953   3.182
  82 O  -15.763   1.011  -3.054
  83 O  -13.748  -0.008   3.151
  84 O  -11.855   3.264  -3.085

 *******************************************************************************
 FINISHED BASIS SET HANDLING 
 *******************************************************************************

 INFORMATION **** SET_MPP **** PCRYSTAL CALCULATION
 INFORMATION **** READM2 **** NEW DEFAULT: FOCK/KS MATRIX MIXING SET TO 30 %
 INFORMATION **** READM2 **** NEW DEFAULT: FULL DIRECT SCF MODE
 INFORMATION **** READM2 **** NEW DEFAULT: COULOMB BIPOLAR BUFFER SET TO 32 Mb
 INFORMATION **** READM2 **** NEW DEFAULT: EXCHANGE BIPOLAR BUFFER SET TO 32 Mb

 *******************************************************************************
 NEW DEFAULT: DFT INTEGRATION GRID INCREASED TO XLGRID
 NEW DEFAULT: DIIS ACCELERATOR ACTIVE
 USE KEYWORD NODIIS TO TURN IT OFF
 *******************************************************************************

 WARNING **** RDDFTP **** HSEsol-HJS ACTIVE
 RANGE SEPARATION - OMEGA:   0.110000000000000     
 WARNING **** RDDFTP **** HSEsol-3c has to be combined with sol-def2-mSVP basis set
 *******************************************************************************
 N. OF ATOMS PER CELL        84  COULOMB OVERLAP TOL         (T1) 10**   -6
 NUMBER OF SHELLS           468  COULOMB PENETRATION TOL     (T2) 10**   -6
 NUMBER OF AO               948  EXCHANGE OVERLAP TOL        (T3) 10**   -6
 N. OF ELECTRONS PER CELL   396  EXCHANGE PSEUDO OVP (F(G))  (T4) 10**   -6
 CORE ELECTRONS PER CELL    120  EXCHANGE PSEUDO OVP (P(G))  (T5) 10**  -12
 N. OF SYMMETRY OPERATORS     1  POLE ORDER IN MONO ZONE                  4
 *******************************************************************************
 TYPE OF CALCULATION :  RESTRICTED CLOSED SHELL
 KOHN-SHAM HAMILTONIAN

 (EXCHANGE)[CORRELATION] FUNCTIONAL:(HSEsol GGA)[PBEsol]

 RANGE-SEPARATED HYBRID FUNCTIONAL 
 OMEGA (SHORT-RANGE)[LONG-RANGE]:(    0.1100)[    0.0000]

 HYBRID EXCHANGE - PERCENTAGE OF FOCK EXCHANGE    25.0000

 CAPPA:IS1  2;IS2  2;IS3  8; K PTS MONK NET  20; SYMMOPS:K SPACE   2;G SPACE   1

 *******************************************************************************
 MAX NUMBER OF SCF CYCLES      50  CONVERGENCE ON DELTAP        10**-16
 WEIGHT OF F(I) IN F(I+1)      30% CONVERGENCE ON ENERGY        10**- 7
 SHRINK. FACT.(MONKH.)    2  2  8  NUMBER OF K POINTS IN THE IBZ     20
 SHRINKING FACTOR(GILAT NET)    8  NUMBER OF K POINTS(GILAT NET)   1028
 *******************************************************************************
 *** K POINTS COORDINATES (OBLIQUE COORDINATES IN UNITS OF IS =  2)
   1-R(  0  0  0)   2-R(  1  0  0)   3-R(  0  1  0)   4-R(  1  1  0)
   5-C(  0  0  1)   6-C(  1  0  1)   7-C(  0  1  1)   8-C(  1  1  1)
   9-C(  0  0  2)  10-C(  1  0  2)  11-C(  0  1  2)  12-C(  1  1  2)
  13-C(  0  0  3)  14-C(  1  0  3)  15-C(  0  1  3)  16-C(  1  1  3)
  17-R(  0  0  4)  18-R(  1  0  4)  19-R(  0  1  4)  20-R(  1  1  4)

 DIRECT LATTICE VECTORS COMPON. (A.U.)     RECIP. LATTICE VECTORS COMPON. (A.U.) 
        X            Y            Z              X            Y            Z
   24.5689761  -14.2152832    0.0000000      0.2557366    0.0000000    0.0000049
    0.0000000   28.4297713    0.0000000      0.1278719    0.2210072    0.0000152
   -0.0002367   -0.0007194   12.4721925      0.0000000    0.0000000    0.5037755

 DISK SPACE FOR EIGENVECTORS (FTN 10)    28758528 REALS

 SYMMETRY ADAPTION OF THE BLOCH FUNCTIONS DISABLED
 TTTTTTTTTTTTTTTTTTTTTTTTTTTTTT gordsh1     TELAPSE        0.05 TCPU        0.05

 MATRIX SIZE: P(G)  817600, F(G)  162946, P(G) IRR  410966, F(G) IRR  163978
 MAX G-VECTOR INDEX FOR 1- AND 2-ELECTRON INTEGRALS  63

 TTTTTTTTTTTTTTTTTTTTTTTTTTTTTT INPUT       TELAPSE        3.03 TCPU        3.02

 NEIGHBORS OF THE NON-EQUIVALENT ATOMS

 N = NUMBER OF NEIGHBORS AT DISTANCE R
    ATOM  N     R/ANG      R/AU   NEIGHBORS (ATOM LABELS AND CELL INDICES)
   1 B    1     1.3787     2.6054   75 O    0 0 0
   1 B    1     1.3795     2.6068   73 O   -1 0 0
   1 B    1     1.5517     2.9323   59 C    0 0 0
   1 B    1     2.3868     4.5104    3 B    0 0 0
   1 B    1     2.3912     4.5187    5 B    0 1 0
   1 B    1     2.5629     4.8432   53 C   -1 0 0

   2 B    1     1.3787     2.6054   76 O    0 0 0
   2 B    1     1.3795     2.6068   74 O    0 0 0
   2 B    1     1.5517     2.9323   60 C    0-1 0
   2 B    1     2.3868     4.5104    4 B    0 0 0
   2 B    1     2.3912     4.5187    6 B    0 0 0
   2 B    1     2.5629     4.8432   54 C   -1-1 0

   3 B    1     1.3792     2.6064   75 O    0 0 0
   3 B    1     1.3798     2.6075   77 O    0 1 0
   3 B    1     1.5510     2.9309   37 C    0 0 0
   3 B    1     2.3868     4.5104    1 B    0 0 0
   3 B    1     2.3894     4.5154    5 B    0 1 0
   3 B    1     2.5618     4.8411   43 C    0 1 0

   4 B    1     1.3792     2.6064   76 O    0 0 0
   4 B    1     1.3798     2.6075   78 O    0 0 0
   4 B    1     1.5510     2.9309   38 C    0 0 0
   4 B    1     2.3868     4.5104    2 B    0 0 0
   4 B    1     2.3894     4.5154    6 B    0 0 0
   4 B    1     2.5618     4.8411   44 C    0 0 0

   5 B    1     1.3790     2.6060   73 O   -1-1 0
   5 B    1     1.3795     2.6069   77 O    0 0 0
   5 B    1     1.5529     2.9346   71 C    0 0 0
   5 B    1     2.3894     4.5154    3 B    0-1 0
   5 B    1     2.3912     4.5187    1 B    0-1 0
   5 B    1     2.5679     4.8526   69 C    0 0 0

   6 B    1     1.3790     2.6060   74 O    0 0 0
   6 B    1     1.3795     2.6069   78 O    0 0 0
   6 B    1     1.5529     2.9346   72 C    0 0 0
   6 B    1     2.3894     4.5154    4 B    0 0 0
   6 B    1     2.3912     4.5187    2 B    0 0 0
   6 B    1     2.5679     4.8526   70 C    0 0 0

   7 B    1     1.3778     2.6037   81 O    0 0 0
   7 B    1     1.3785     2.6051   79 O    0 1 0
   7 B    1     1.5479     2.9251   47 C    0 0 0
   7 B    1     2.3857     4.5084    9 B    1 1 0
   7 B    1     2.3859     4.5087   11 B    1 1 0
   7 B    1     2.5584     4.8347   41 C    0 1 0

   8 B    1     1.3778     2.6037   82 O    1 0 0
   8 B    1     1.3785     2.6051   80 O    0 0 0
   8 B    1     1.5479     2.9251   48 C    0 0 0
   8 B    1     2.3857     4.5084   10 B    1 0 0
   8 B    1     2.3859     4.5087   12 B    1 0 0
   8 B    1     2.5584     4.8347   42 C    0 0 0

   9 B    1     1.3778     2.6037   81 O   -1-1 0
   9 B    1     1.3813     2.6104   83 O    0 0 0
   9 B    1     1.5523     2.9334   61 C    0 0 0
   9 B    1     2.3857     4.5084    7 B   -1-1 0
   9 B    1     2.3952     4.5262   11 B    0 0 0
   9 B    1     2.5590     4.8358   63 C    0 0 0

  10 B    1     1.3778     2.6037   82 O    0 0 0
  10 B    1     1.3813     2.6104   84 O    0 0 0
  10 B    1     1.5523     2.9334   62 C    0 0 0
  10 B    1     2.3857     4.5084    8 B   -1 0 0
  10 B    1     2.3952     4.5262   12 B    0 0 0
  10 B    1     2.5590     4.8358   64 C    0 0 0

  11 B    1     1.3783     2.6045   79 O   -1 0 0
  11 B    1     1.3812     2.6101   83 O    0 0 0
  11 B    1     1.5546     2.9377   49 C    0 0 0
  11 B    1     2.3859     4.5087    7 B   -1-1 0
  11 B    1     2.3952     4.5262    9 B    0 0 0
  11 B    1     2.5605     4.8386   51 C    0 0 0

  12 B    1     1.3783     2.6045   80 O   -1 0 0
  12 B    1     1.3812     2.6101   84 O    0 0 0
  12 B    1     1.5546     2.9377   50 C    0 0 0
  12 B    1     2.3859     4.5087    8 B   -1 0 0
  12 B    1     2.3952     4.5262   10 B    0 0 0
  12 B    1     2.5605     4.8386   52 C    0 0 0

  13 H    1     1.0917     2.0629   39 C    0 0 0
  13 H    1     2.1461     4.0556   37 C    0 0 0
  13 H    1     2.1712     4.1029   45 C    0 0 0
  13 H    1     2.5280     4.7772   19 H    0 0 0
  13 H    1     2.5583     4.8346   75 O    0 0 0
  13 H    1     2.7310     5.1608    3 B    0 0 0

  14 H    1     1.0917     2.0629   40 C    0 1 0
  14 H    1     2.1461     4.0556   38 C    0 1 0
  14 H    1     2.1712     4.1029   46 C    0 1 0
  14 H    1     2.5280     4.7772   20 H    0 0 0
  14 H    1     2.5583     4.8346   76 O    0 1 0
  14 H    1     2.7310     5.1608    4 B    0 1 0

  15 H    1     1.0909     2.0615   41 C    0 0 0
  15 H    1     2.1454     4.0542   47 C    0-1 0
  15 H    1     2.1688     4.0985   43 C    0 0 0
  15 H    1     2.5272     4.7758   17 H    0 0 0
  15 H    1     2.5562     4.8304   79 O    0 0 0
  15 H    1     2.7242     5.1481    7 B    0-1 0

  16 H    1     1.0909     2.0615   42 C    0 0 0
  16 H    1     2.1454     4.0542   48 C    0 0 0
  16 H    1     2.1688     4.0985   44 C    0 0 0
  16 H    1     2.5272     4.7758   18 H    0 0 0
  16 H    1     2.5562     4.8304   80 O    0 0 0
  16 H    1     2.7242     5.1481    8 B    0 0 0

  17 H    1     1.0908     2.0614   43 C    0 0 0
  17 H    1     2.1442     4.0520   37 C    0-1 0
  17 H    1     2.1694     4.0995   41 C    0 0 0
  17 H    1     2.5272     4.7758   15 H    0 0 0
  17 H    1     2.5616     4.8406   77 O    0 0 0
  17 H    1     2.7248     5.1492    3 B    0-1 0

  18 H    1     1.0908     2.0614   44 C    0 0 0
  18 H    1     2.1442     4.0520   38 C    0 0 0
  18 H    1     2.1694     4.0995   42 C    0 0 0
  18 H    1     2.5272     4.7758   16 H    0 0 0
  18 H    1     2.5616     4.8406   78 O    0 0 0
  18 H    1     2.7248     5.1492    4 B    0 0 0

  19 H    1     1.0912     2.0621   45 C    0 0 0
  19 H    1     2.1469     4.0570   47 C    0 0 0
  19 H    1     2.1689     4.0986   39 C    0 0 0
  19 H    1     2.5280     4.7772   13 H    0 0 0
  19 H    1     2.5562     4.8305   81 O    0 0 0
  19 H    1     2.7309     5.1607    7 B    0 0 0

  20 H    1     1.0912     2.0621   46 C    0 1 0
  20 H    1     2.1469     4.0570   48 C    0 1 0
  20 H    1     2.1689     4.0986   40 C    0 1 0
  20 H    1     2.5280     4.7772   14 H    0 0 0
  20 H    1     2.5562     4.8305   82 O    1 1 0
  20 H    1     2.7309     5.1607    8 B    0 1 0

  21 H    1     1.0911     2.0619   51 C    0 0 0
  21 H    1     2.1443     4.0521   49 C    0 0 0
  21 H    1     2.1684     4.0978   57 C    0 0 0
  21 H    1     2.5222     4.7664   27 H    0 0 0
  21 H    1     2.5622     4.8419   83 O    0 0 0
  21 H    1     2.7179     5.1361   11 B    0 0 0

  22 H    1     1.0911     2.0619   52 C    0 0 0
  22 H    1     2.1443     4.0521   50 C    0 0 0
  22 H    1     2.1684     4.0978   58 C    0 0 0
  22 H    1     2.5222     4.7664   28 H    0 0 0
  22 H    1     2.5622     4.8419   84 O    0 0 0
  22 H    1     2.7179     5.1361   12 B    0 0 0

  23 H    1     1.0917     2.0630   53 C    0 0 0
  23 H    1     2.1441     4.0518   59 C    1 0 0
  23 H    1     2.1716     4.1037   55 C    0 0 0
  23 H    1     2.5226     4.7669   25 H    0 0 0
  23 H    1     2.5541     4.8265   73 O    0 0 0
  23 H    1     2.7237     5.1470    1 B    1 0 0

  24 H    1     1.0917     2.0630   54 C    0 0 0
  24 H    1     2.1441     4.0518   60 C    1 0 0
  24 H    1     2.1716     4.1037   56 C    0 0 0
  24 H    1     2.5226     4.7669   26 H    0 0 0
  24 H    1     2.5541     4.8265   74 O    1 1 0
  24 H    1     2.7237     5.1470    2 B    1 1 0

  25 H    1     1.0919     2.0633   55 C    0 0 0
  25 H    1     2.1522     4.0671   49 C    1 0 0
  25 H    1     2.1668     4.0946   53 C    0 0 0
  25 H    1     2.5226     4.7669   23 H    0 0 0
  25 H    1     2.5923     4.8987   79 O    0 0 0
  25 H    1     2.7582     5.2123   11 B    1 0 0

  26 H    1     1.0919     2.0633   56 C    0 0 0
  26 H    1     2.1522     4.0671   50 C    1 0 0
  26 H    1     2.1668     4.0946   54 C    0 0 0
  26 H    1     2.5226     4.7669   24 H    0 0 0
  26 H    1     2.5923     4.8987   80 O    0 0 0
  26 H    1     2.7582     5.2123   12 B    1 0 0

  27 H    1     1.0915     2.0627   57 C    0 0 0
  27 H    1     2.1483     4.0597   59 C    0 0 0
  27 H    1     2.1679     4.0968   51 C    0 0 0
  27 H    1     2.5222     4.7664   21 H    0 0 0
  27 H    1     2.5809     4.8771   75 O    0 0 0
  27 H    1     2.7404     5.1785    1 B    0 0 0

  28 H    1     1.0915     2.0627   58 C    0 0 0
  28 H    1     2.1483     4.0597   60 C    0 0 0
  28 H    1     2.1679     4.0968   52 C    0 0 0
  28 H    1     2.5222     4.7664   22 H    0 0 0
  28 H    1     2.5809     4.8771   76 O    0 1 0
  28 H    1     2.7404     5.1785    2 B    0 1 0

  29 H    1     1.0916     2.0628   63 C    0 0 0
  29 H    1     2.1436     4.0508   61 C    0 0 0
  29 H    1     2.1707     4.1021   69 C    0 0 0
  29 H    1     2.5217     4.7654   35 H    0 0 0
  29 H    1     2.5567     4.8315   83 O    0 0 0
  29 H    1     2.7165     5.1334    9 B    0 0 0

  30 H    1     1.0916     2.0628   64 C    0 0 0
  30 H    1     2.1436     4.0508   62 C    0 0 0
  30 H    1     2.1707     4.1021   70 C    0 0 0
  30 H    1     2.5217     4.7654   36 H    0 0 0
  30 H    1     2.5567     4.8315   84 O    0 0 0
  30 H    1     2.7165     5.1334   10 B    0 0 0

  31 H    1     1.0914     2.0624   65 C    0 0 0
  31 H    1     2.1487     4.0605   71 C    1 1 0
  31 H    1     2.1663     4.0937   67 C    0 0 0
  31 H    1     2.5170     4.7564   33 H    0 0 0
  31 H    1     2.5779     4.8716   73 O    0 0 0
  31 H    1     2.7395     5.1769    5 B    1 1 0

  32 H    1     1.0914     2.0624   66 C    1 1 0
  32 H    1     2.1487     4.0605   72 C    1 1 0
  32 H    1     2.1663     4.0937   68 C    1 1 0
  32 H    1     2.5170     4.7564   34 H    0 0 0
  32 H    1     2.5779     4.8716   74 O    1 1 0
  32 H    1     2.7395     5.1769    6 B    1 1 0

  33 H    1     1.0921     2.0638   67 C    0 0 0
  33 H    1     2.1502     4.0633   61 C    1 1 0
  33 H    1     2.1683     4.0976   65 C    0 0 0
  33 H    1     2.5170     4.7564   31 H    0 0 0
  33 H    1     2.5870     4.8888   81 O    0 0 0
  33 H    1     2.7510     5.1986    9 B    1 1 0

  34 H    1     1.0921     2.0638   68 C    1 1 0
  34 H    1     2.1502     4.0633   62 C    1 1 0
  34 H    1     2.1683     4.0976   66 C    1 1 0
  34 H    1     2.5170     4.7564   32 H    0 0 0
  34 H    1     2.5870     4.8888   82 O    1 1 0
  34 H    1     2.7510     5.1986   10 B    1 1 0

  35 H    1     1.0913     2.0622   69 C    0 0 0
  35 H    1     2.1495     4.0619   71 C    0 0 0
  35 H    1     2.1656     4.0923   63 C    0 0 0
  35 H    1     2.5217     4.7654   29 H    0 0 0
  35 H    1     2.5789     4.8734   77 O    0 0 0
  35 H    1     2.7392     5.1763    5 B    0 0 0

  36 H    1     1.0913     2.0622   70 C    0 0 0
  36 H    1     2.1495     4.0619   72 C    0 0 0
  36 H    1     2.1656     4.0923   64 C    0 0 0
  36 H    1     2.5217     4.7654   30 H    0 0 0
  36 H    1     2.5789     4.8734   78 O    0 0 0
  36 H    1     2.7392     5.1763    6 B    0 0 0

  37 C    1     1.4017     2.6488   43 C    0 1 0
  37 C    1     1.4025     2.6504   39 C    0 0 0
  37 C    1     1.5510     2.9309    3 B    0 0 0
  37 C    1     2.1442     4.0520   17 H    0 1 0
  37 C    1     2.1461     4.0556   13 H    0 0 0
  37 C    1     2.4236     4.5800   41 C    0 1 0

  38 C    1     1.4017     2.6488   44 C    0 0 0
  38 C    1     1.4025     2.6504   40 C    0 0 0
  38 C    1     1.5510     2.9309    4 B    0 0 0
  38 C    1     2.1442     4.0520   18 H    0 0 0
  38 C    1     2.1461     4.0556   14 H    0-1 0
  38 C    1     2.4236     4.5800   42 C    0 0 0

  39 C    1     1.0917     2.0629   13 H    0 0 0
  39 C    1     1.3915     2.6296   45 C    0 0 0
  39 C    1     1.4025     2.6504   37 C    0 0 0
  39 C    1     2.1689     4.0986   19 H    0 0 0
  39 C    1     2.4191     4.5714   43 C    0 1 0
  39 C    1     2.4241     4.5809   47 C    0 0 0

  40 C    1     1.0917     2.0629   14 H    0-1 0
  40 C    1     1.3915     2.6296   46 C    0 0 0
  40 C    1     1.4025     2.6504   38 C    0 0 0
  40 C    1     2.1689     4.0986   20 H    0-1 0
  40 C    1     2.4191     4.5714   44 C    0 0 0
  40 C    1     2.4241     4.5809   48 C    0 0 0

  41 C    1     1.0909     2.0615   15 H    0 0 0
  41 C    1     1.3909     2.6284   43 C    0 0 0
  41 C    1     1.4014     2.6483   47 C    0-1 0
  41 C    1     2.1694     4.0995   17 H    0 0 0
  41 C    1     2.4189     4.5710   45 C    0-1 0
  41 C    1     2.4236     4.5800   37 C    0-1 0

  42 C    1     1.0909     2.0615   16 H    0 0 0
  42 C    1     1.3909     2.6284   44 C    0 0 0
  42 C    1     1.4014     2.6483   48 C    0 0 0
  42 C    1     2.1694     4.0995   18 H    0 0 0
  42 C    1     2.4189     4.5710   46 C    0 0 0
  42 C    1     2.4236     4.5800   38 C    0 0 0

  43 C    1     1.0908     2.0614   17 H    0 0 0
  43 C    1     1.3909     2.6284   41 C    0 0 0
  43 C    1     1.4017     2.6488   37 C    0-1 0
  43 C    1     2.1688     4.0985   15 H    0 0 0
  43 C    1     2.4191     4.5714   39 C    0-1 0
  43 C    1     2.4226     4.5780   47 C    0-1 0

  44 C    1     1.0908     2.0614   18 H    0 0 0
  44 C    1     1.3909     2.6284   42 C    0 0 0
  44 C    1     1.4017     2.6488   38 C    0 0 0
  44 C    1     2.1688     4.0985   16 H    0 0 0
  44 C    1     2.4191     4.5714   40 C    0 0 0
  44 C    1     2.4226     4.5780   48 C    0 0 0

  45 C    1     1.0912     2.0621   19 H    0 0 0
  45 C    1     1.3915     2.6296   39 C    0 0 0
  45 C    1     1.4021     2.6496   47 C    0 0 0
  45 C    1     2.1712     4.1029   13 H    0 0 0
  45 C    1     2.4189     4.5710   41 C    0 1 0
  45 C    1     2.4237     4.5802   37 C    0 0 0

  46 C    1     1.0912     2.0621   20 H    0-1 0
  46 C    1     1.3915     2.6296   40 C    0 0 0
  46 C    1     1.4021     2.6496   48 C    0 0 0
  46 C    1     2.1712     4.1029   14 H    0-1 0
  46 C    1     2.4189     4.5710   42 C    0 0 0
  46 C    1     2.4237     4.5802   38 C    0 0 0

  47 C    1     1.4014     2.6483   41 C    0 1 0
  47 C    1     1.4021     2.6496   45 C    0 0 0
  47 C    1     1.5479     2.9251    7 B    0 0 0
  47 C    1     2.1454     4.0542   15 H    0 1 0
  47 C    1     2.1469     4.0570   19 H    0 0 0
  47 C    1     2.4226     4.5780   43 C    0 1 0

  48 C    1     1.4014     2.6483   42 C    0 0 0
  48 C    1     1.4021     2.6496   46 C    0 0 0
  48 C    1     1.5479     2.9251    8 B    0 0 0
  48 C    1     2.1454     4.0542   16 H    0 0 0
  48 C    1     2.1469     4.0570   20 H    0-1 0
  48 C    1     2.4226     4.5780   44 C    0 0 0

  49 C    1     1.4025     2.6504   51 C    0 0 0
  49 C    1     1.4037     2.6526   55 C   -1 0 0
  49 C    1     1.5546     2.9377   11 B    0 0 0
  49 C    1     2.1443     4.0521   21 H    0 0 0
  49 C    1     2.1522     4.0671   25 H   -1 0 0
  49 C    1     2.4271     4.5865   53 C   -1 0 0

  50 C    1     1.4025     2.6504   52 C    0 0 0
  50 C    1     1.4037     2.6526   56 C   -1 0 0
  50 C    1     1.5546     2.9377   12 B    0 0 0
  50 C    1     2.1443     4.0521   22 H    0 0 0
  50 C    1     2.1522     4.0671   26 H   -1 0 0
  50 C    1     2.4271     4.5865   54 C   -1 0 0

  51 C    1     1.0911     2.0619   21 H    0 0 0
  51 C    1     1.3916     2.6298   57 C    0 0 0
  51 C    1     1.4025     2.6504   49 C    0 0 0
  51 C    1     2.1679     4.0968   27 H    0 0 0
  51 C    1     2.4165     4.5665   55 C   -1 0 0
  51 C    1     2.4246     4.5819   59 C    0 0 0

  52 C    1     1.0911     2.0619   22 H    0 0 0
  52 C    1     1.3916     2.6298   58 C    0 0 0
  52 C    1     1.4025     2.6504   50 C    0 0 0
  52 C    1     2.1679     4.0968   28 H    0 0 0
  52 C    1     2.4165     4.5665   56 C   -1 0 0
  52 C    1     2.4246     4.5819   60 C    0 0 0

  53 C    1     1.0917     2.0630   23 H    0 0 0
  53 C    1     1.3928     2.6320   55 C    0 0 0
  53 C    1     1.4024     2.6501   59 C    1 0 0
  53 C    1     2.1668     4.0946   25 H    0 0 0
  53 C    1     2.4166     4.5668   57 C    1 0 0
  53 C    1     2.4271     4.5865   49 C    1 0 0

  54 C    1     1.0917     2.0630   24 H    0 0 0
  54 C    1     1.3928     2.6320   56 C    0 0 0
  54 C    1     1.4024     2.6501   60 C    1 0 0
  54 C    1     2.1668     4.0946   26 H    0 0 0
  54 C    1     2.4166     4.5668   58 C    1 0 0
  54 C    1     2.4271     4.5865   50 C    1 0 0

  55 C    1     1.0919     2.0633   25 H    0 0 0
  55 C    1     1.3928     2.6320   53 C    0 0 0
  55 C    1     1.4037     2.6526   49 C    1 0 0
  55 C    1     2.1716     4.1037   23 H    0 0 0
  55 C    1     2.4165     4.5665   51 C    1 0 0
  55 C    1     2.4277     4.5877   59 C    1 0 0

  56 C    1     1.0919     2.0633   26 H    0 0 0
  56 C    1     1.3928     2.6320   54 C    0 0 0
  56 C    1     1.4037     2.6526   50 C    1 0 0
  56 C    1     2.1716     4.1037   24 H    0 0 0
  56 C    1     2.4165     4.5665   52 C    1 0 0
  56 C    1     2.4277     4.5877   60 C    1 0 0

  57 C    1     1.0915     2.0627   27 H    0 0 0
  57 C    1     1.3916     2.6298   51 C    0 0 0
  57 C    1     1.4023     2.6499   59 C    0 0 0
  57 C    1     2.1684     4.0978   21 H    0 0 0
  57 C    1     2.4166     4.5668   53 C   -1 0 0
  57 C    1     2.4281     4.5884   49 C    0 0 0

  58 C    1     1.0915     2.0627   28 H    0 0 0
  58 C    1     1.3916     2.6298   52 C    0 0 0
  58 C    1     1.4023     2.6499   60 C    0 0 0
  58 C    1     2.1684     4.0978   22 H    0 0 0
  58 C    1     2.4166     4.5668   54 C   -1 0 0
  58 C    1     2.4281     4.5884   50 C    0 0 0

  59 C    1     1.4023     2.6499   57 C    0 0 0
  59 C    1     1.4024     2.6501   53 C   -1 0 0
  59 C    1     1.5517     2.9323    1 B    0 0 0
  59 C    1     2.1441     4.0518   23 H   -1 0 0
  59 C    1     2.1483     4.0597   27 H    0 0 0
  59 C    1     2.4246     4.5819   51 C    0 0 0

  60 C    1     1.4023     2.6499   58 C    0 0 0
  60 C    1     1.4024     2.6501   54 C   -1 0 0
  60 C    1     1.5517     2.9323    2 B    0 1 0
  60 C    1     2.1441     4.0518   24 H   -1 0 0
  60 C    1     2.1483     4.0597   28 H    0 0 0
  60 C    1     2.4246     4.5819   52 C    0 0 0

  61 C    1     1.4022     2.6498   63 C    0 0 0
  61 C    1     1.4030     2.6512   67 C   -1-1 0
  61 C    1     1.5523     2.9334    9 B    0 0 0
  61 C    1     2.1436     4.0508   29 H    0 0 0
  61 C    1     2.1502     4.0633   33 H   -1-1 0
  61 C    1     2.4264     4.5853   65 C   -1-1 0

  62 C    1     1.4022     2.6498   64 C    0 0 0
  62 C    1     1.4030     2.6512   68 C    0 0 0
  62 C    1     1.5523     2.9334   10 B    0 0 0
  62 C    1     2.1436     4.0508   30 H    0 0 0
  62 C    1     2.1502     4.0633   34 H   -1-1 0
  62 C    1     2.4264     4.5853   66 C    0 0 0

  63 C    1     1.0916     2.0628   29 H    0 0 0
  63 C    1     1.3918     2.6301   69 C    0 0 0
  63 C    1     1.4022     2.6498   61 C    0 0 0
  63 C    1     2.1656     4.0923   35 H    0 0 0
  63 C    1     2.4163     4.5661   67 C   -1-1 0
  63 C    1     2.4270     4.5863   71 C    0 0 0

  64 C    1     1.0916     2.0628   30 H    0 0 0
  64 C    1     1.3918     2.6301   70 C    0 0 0
  64 C    1     1.4022     2.6498   62 C    0 0 0
  64 C    1     2.1656     4.0923   36 H    0 0 0
  64 C    1     2.4163     4.5661   68 C    0 0 0
  64 C    1     2.4270     4.5863   72 C    0 0 0

  65 C    1     1.0914     2.0624   31 H    0 0 0
  65 C    1     1.3927     2.6318   67 C    0 0 0
  65 C    1     1.4029     2.6510   71 C    1 1 0
  65 C    1     2.1683     4.0976   33 H    0 0 0
  65 C    1     2.4155     4.5646   69 C    1 1 0
  65 C    1     2.4264     4.5853   61 C    1 1 0

  66 C    1     1.0914     2.0624   32 H   -1-1 0
  66 C    1     1.3927     2.6318   68 C    0 0 0
  66 C    1     1.4029     2.6510   72 C    0 0 0
  66 C    1     2.1683     4.0976   34 H   -1-1 0
  66 C    1     2.4155     4.5646   70 C    0 0 0
  66 C    1     2.4264     4.5853   62 C    0 0 0

  67 C    1     1.0921     2.0638   33 H    0 0 0
  67 C    1     1.3927     2.6318   65 C    0 0 0
  67 C    1     1.4030     2.6512   61 C    1 1 0
  67 C    1     2.1663     4.0937   31 H    0 0 0
  67 C    1     2.4163     4.5661   63 C    1 1 0
  67 C    1     2.4289     4.5899   71 C    1 1 0

  68 C    1     1.0921     2.0638   34 H   -1-1 0
  68 C    1     1.3927     2.6318   66 C    0 0 0
  68 C    1     1.4030     2.6512   62 C    0 0 0
  68 C    1     2.1663     4.0937   32 H   -1-1 0
  68 C    1     2.4163     4.5661   64 C    0 0 0
  68 C    1     2.4289     4.5899   72 C    0 0 0

  69 C    1     1.0913     2.0622   35 H    0 0 0
  69 C    1     1.3918     2.6301   63 C    0 0 0
  69 C    1     1.4029     2.6511   71 C    0 0 0
  69 C    1     2.1707     4.1021   29 H    0 0 0
  69 C    1     2.4155     4.5646   65 C   -1-1 0
  69 C    1     2.4269     4.5861   61 C    0 0 0

  70 C    1     1.0913     2.0622   36 H    0 0 0
  70 C    1     1.3918     2.6301   64 C    0 0 0
  70 C    1     1.4029     2.6511   72 C    0 0 0
  70 C    1     2.1707     4.1021   30 H    0 0 0
  70 C    1     2.4155     4.5646   66 C    0 0 0
  70 C    1     2.4269     4.5861   62 C    0 0 0

  71 C    1     1.4029     2.6510   65 C   -1-1 0
  71 C    1     1.4029     2.6511   69 C    0 0 0
  71 C    1     1.5529     2.9346    5 B    0 0 0
  71 C    1     2.1487     4.0605   31 H   -1-1 0
  71 C    1     2.1495     4.0619   35 H    0 0 0
  71 C    1     2.4270     4.5863   63 C    0 0 0

  72 C    1     1.4029     2.6510   66 C    0 0 0
  72 C    1     1.4029     2.6511   70 C    0 0 0
  72 C    1     1.5529     2.9346    6 B    0 0 0
  72 C    1     2.1487     4.0605   32 H   -1-1 0
  72 C    1     2.1495     4.0619   36 H    0 0 0
  72 C    1     2.4270     4.5863   64 C    0 0 0

  73 O    1     1.3790     2.6060    5 B    1 1 0
  73 O    1     1.3795     2.6068    1 B    1 0 0
  73 O    1     2.3868     4.5105   77 O    1 1 0
  73 O    1     2.3885     4.5136   75 O    1 0 0
  73 O    1     2.5389     4.7979   59 C    1 0 0
  73 O    1     2.5412     4.8021   71 C    1 1 0

  74 O    1     1.3790     2.6060    6 B    0 0 0
  74 O    1     1.3795     2.6068    2 B    0 0 0
  74 O    1     2.3868     4.5105   78 O    0 0 0
  74 O    1     2.3885     4.5136   76 O    0 0 0
  74 O    1     2.5389     4.7979   60 C    0-1 0
  74 O    1     2.5412     4.8021   72 C    0 0 0

  75 O    1     1.3787     2.6054    1 B    0 0 0
  75 O    1     1.3792     2.6064    3 B    0 0 0
  75 O    1     2.3885     4.5136   73 O   -1 0 0
  75 O    1     2.3912     4.5187   77 O    0 1 0
  75 O    1     2.5351     4.7906   37 C    0 0 0
  75 O    1     2.5405     4.8008   59 C    0 0 0

  76 O    1     1.3787     2.6054    2 B    0 0 0
  76 O    1     1.3792     2.6064    4 B    0 0 0
  76 O    1     2.3885     4.5136   74 O    0 0 0
  76 O    1     2.3912     4.5187   78 O    0 0 0
  76 O    1     2.5351     4.7906   38 C    0 0 0
  76 O    1     2.5405     4.8008   60 C    0-1 0

  77 O    1     1.3795     2.6069    5 B    0 0 0
  77 O    1     1.3798     2.6075    3 B    0-1 0
  77 O    1     2.3868     4.5105   73 O   -1-1 0
  77 O    1     2.3912     4.5187   75 O    0-1 0
  77 O    1     2.5416     4.8030   37 C    0-1 0
  77 O    1     2.5427     4.8050   71 C    0 0 0

  78 O    1     1.3795     2.6069    6 B    0 0 0
  78 O    1     1.3798     2.6075    4 B    0 0 0
  78 O    1     2.3868     4.5105   74 O    0 0 0
  78 O    1     2.3912     4.5187   76 O    0 0 0
  78 O    1     2.5416     4.8030   38 C    0 0 0
  78 O    1     2.5427     4.8050   72 C    0 0 0

  79 O    1     1.3783     2.6045   11 B    1 0 0
  79 O    1     1.3785     2.6051    7 B    0-1 0
  79 O    1     2.3876     4.5119   83 O    1 0 0
  79 O    1     2.3913     4.5189   81 O    0-1 0
  79 O    1     2.5354     4.7912   49 C    1 0 0
  79 O    1     2.5360     4.7923   47 C    0-1 0

  80 O    1     1.3783     2.6045   12 B    1 0 0
  80 O    1     1.3785     2.6051    8 B    0 0 0
  80 O    1     2.3876     4.5119   84 O    1 0 0
  80 O    1     2.3913     4.5189   82 O    1 0 0
  80 O    1     2.5354     4.7912   50 C    1 0 0
  80 O    1     2.5360     4.7923   48 C    0 0 0

  81 O    1     1.3778     2.6037    7 B    0 0 0
  81 O    1     1.3778     2.6037    9 B    1 1 0
  81 O    1     2.3870     4.5107   83 O    1 1 0
  81 O    1     2.3913     4.5189   79 O    0 1 0
  81 O    1     2.5304     4.7818   47 C    0 0 0
  81 O    1     2.5353     4.7911   61 C    1 1 0

  82 O    1     1.3778     2.6037    8 B   -1 0 0
  82 O    1     1.3778     2.6037   10 B    0 0 0
  82 O    1     2.3870     4.5107   84 O    0 0 0
  82 O    1     2.3913     4.5189   80 O   -1 0 0
  82 O    1     2.5304     4.7818   48 C   -1 0 0
  82 O    1     2.5353     4.7911   62 C    0 0 0

  83 O    1     1.3812     2.6101   11 B    0 0 0
  83 O    1     1.3813     2.6104    9 B    0 0 0
  83 O    1     2.3870     4.5107   81 O   -1-1 0
  83 O    1     2.3876     4.5119   79 O   -1 0 0
  83 O    1     2.5481     4.8152   61 C    0 0 0
  83 O    1     2.5522     4.8230   49 C    0 0 0

  84 O    1     1.3812     2.6101   12 B    0 0 0
  84 O    1     1.3813     2.6104   10 B    0 0 0
  84 O    1     2.3870     4.5107   82 O    0 0 0
  84 O    1     2.3876     4.5119   80 O   -1 0 0
  84 O    1     2.5481     4.8152   62 C    0 0 0
  84 O    1     2.5522     4.8230   50 C    0 0 0


 SYMMETRY ALLOWED ELASTIC DISTORTION 1
  0.5773503  0.0000000  0.0000000
  0.0000000  0.5773503  0.0000000
  0.0000000  0.0000000  0.5773503

 SYMMETRY ALLOWED ELASTIC DISTORTION 2
  0.8164966  0.0000000  0.0000000
  0.0000000 -0.4082483  0.0000000
  0.0000000  0.0000000 -0.4082483

 SYMMETRY ALLOWED ELASTIC DISTORTION 3
  0.0000000  0.7071068  0.0000000
  0.7071068  0.0000000  0.0000000
  0.0000000  0.0000000  0.0000000

 SYMMETRY ALLOWED ELASTIC DISTORTION 4
  0.0000000  0.0000000  0.0000000
  0.0000000  0.7071068  0.0000000
  0.0000000  0.0000000 -0.7071068

 SYMMETRY ALLOWED ELASTIC DISTORTION 5
  0.0000000  0.0000000  0.7071068
  0.0000000  0.0000000  0.0000000
  0.7071068  0.0000000  0.0000000

 SYMMETRY ALLOWED ELASTIC DISTORTION 6
  0.0000000  0.0000000  0.0000000
  0.0000000  0.0000000  0.7071068
  0.0000000  0.7071068  0.0000000

 SYMMETRY ALLOWED INTERNAL DEGREE(S) OF FREEDOM: 249
 TTTTTTTTTTTTTTTTTTTTTTTTTTTTTT SYMM        TELAPSE        3.03 TCPU        3.03
 TTTTTTTTTTTTTTTTTTTTTTTTTTTTTT INT_SCREEN  TELAPSE        3.25 TCPU        3.24

 *******************************************************************************
 *                             OPTIMIZATION STARTS                             *
 *******************************************************************************
 RECLASIFICATION OF INDICES FOR INTEGRAL CALC ACCORDING TO DIFFERENT CRITERIA:
           FIXDELTE                  FIXDELTX              FIXDELTN
           1.0000000               0.80000000                255
 DEFAULT MAX NUM OF POINTS  510
 *******************************************************************************

 *******************************************************************************
 COORDINATE AND CELL OPTIMIZATION - POINT    1

 DFT PARAMETERS

     ATOM       ELECTRONS   NET CHARGE   R(ANGSTROM)
   1   5  B       5.0000      0.0000     0.89000000
  13   1  H       1.0000      0.0000     1.11000000
  37   6  C       6.0000      0.0000     0.77000000
  73   8  O       8.0000      0.0000     0.74000000

 SIZE OF GRID=    2482604
 TTTTTTTTTTTTTTTTTTTTTTTTTTTTTT MAKE_GRID2  TELAPSE       40.68 TCPU       40.64
 BECKE WEIGHT FUNCTION
 RADSAFE =     2.00
 TOLERANCES - DENSITY:10**- 6; POTENTIAL:10**- 9; GRID WGT:10**-14

 RADIAL INTEGRATION  - INTERVALS (POINTS,UPPER LIMIT):            1( 75,  4.0*R)

 ANGULAR INTEGRATION - INTERVALS (ACCURACY LEVEL [N. POINTS] UPPER LIMIT):
  1(  4[  86]   0.2)  2(  8[ 194]   0.5)  3( 12[ 350]   0.9)  4( 16[ 974]   3.5)
  5( 12[ 350]9999.0)
 TTTTTTTTTTTTTTTTTTTTTTTTTTTTTT INT_CALC    TELAPSE       41.00 TCPU       40.96

 *******************************************************************************
 COF-1_z33_ser_L020                                                              
 CRYSTAL - SCF - TYPE OF CALCULATION :  RESTRICTED CLOSED SHELL
 *******************************************************************************

 CAPPA:IS1  2;IS2  2;IS3  8; K PTS MONK NET  20; SYMMOPS:K SPACE   2;G SPACE   1

 TTTTTTTTTTTTTTTTTTTTTTTTTTTTTT SDIK        TELAPSE       43.18 TCPU      124.31

 AAAAAAAAAAAAAAAAAAAAAAAAAAAAAAAAAAAAAAAAAAAAAAAAAAAAAAAAAAAAAAAAAAAAAAAAAAAAAAA
         ATOMIC WAVEFUNCTION(S)


 NUCLEAR CHARGE  5.0  SYMMETRY SPECIES            S    P
 N. ELECTRONS    5.0  NUMBER OF PRIMITIVE GTOS    8    4
                      NUMBER OF CONTRACTED GTOS   4    2
                      NUMBER OF CLOSED SHELLS     2    0
                      OPEN SHELL OCCUPATION       0    1

  ZNUC  SCFIT    TOTAL HF ENERGY   KINETIC ENERGY   VIRIAL THEOREM ACCURACY
   5.0    11    -2.451164084E+01  2.462155050E+01 -1.995536038E+00  1.5E-06

 NUCLEAR CHARGE  1.0  SYMMETRY SPECIES            S
 N. ELECTRONS    1.0  NUMBER OF PRIMITIVE GTOS    4
                      NUMBER OF CONTRACTED GTOS   2
                      NUMBER OF CLOSED SHELLS     0
                      OPEN SHELL OCCUPATION       1

  ZNUC  SCFIT    TOTAL HF ENERGY   KINETIC ENERGY   VIRIAL THEOREM ACCURACY
   1.0     1    -4.977266687E-01  5.190767460E-01 -1.958869132E+00  0.0E+00

 NUCLEAR CHARGE  6.0  SYMMETRY SPECIES            S    P
 N. ELECTRONS    6.0  NUMBER OF PRIMITIVE GTOS    8    4
                      NUMBER OF CONTRACTED GTOS   4    2
                      NUMBER OF CLOSED SHELLS     2    0
                      OPEN SHELL OCCUPATION       0    2

  ZNUC  SCFIT    TOTAL HF ENERGY   KINETIC ENERGY   VIRIAL THEOREM ACCURACY
   6.0     9    -3.766704647E+01  3.775180683E+01 -1.997754800E+00  1.1E-06

 NUCLEAR CHARGE  8.0  SYMMETRY SPECIES            S    P
 N. ELECTRONS    8.0  NUMBER OF PRIMITIVE GTOS    8    4
                      NUMBER OF CONTRACTED GTOS   4    2
                      NUMBER OF CLOSED SHELLS     2    0
                      OPEN SHELL OCCUPATION       0    4

  ZNUC  SCFIT    TOTAL HF ENERGY   KINETIC ENERGY   VIRIAL THEOREM ACCURACY
   8.0    12    -7.477373220E+01  7.477365593E+01 -2.000001020E+00  3.8E-06

 AAAAAAAAAAAAAAAAAAAAAAAAAAAAAAAAAAAAAAAAAAAAAAAAAAAAAAAAAAAAAAAAAAAAAAAAAAAAAAA

 CHARGE NORMALIZATION FACTOR   1.00000000
 TOTAL ATOMIC CHARGES:
   5.0000000   5.0000000   5.0000000   5.0000000   5.0000000   5.0000000
   5.0000000   5.0000000   5.0000000   5.0000000   5.0000000   5.0000000
   1.0000000   1.0000000   1.0000000   1.0000000   1.0000000   1.0000000
   1.0000000   1.0000000   1.0000000   1.0000000   1.0000000   1.0000000
   1.0000000   1.0000000   1.0000000   1.0000000   1.0000000   1.0000000
   1.0000000   1.0000000   1.0000000   1.0000000   1.0000000   1.0000000
   6.0000000   6.0000000   6.0000000   6.0000000   6.0000000   6.0000000
   6.0000000   6.0000000   6.0000000   6.0000000   6.0000000   6.0000000
   6.0000000   6.0000000   6.0000000   6.0000000   6.0000000   6.0000000
   6.0000000   6.0000000   6.0000000   6.0000000   6.0000000   6.0000000
   6.0000000   6.0000000   6.0000000   6.0000000   6.0000000   6.0000000
   6.0000000   6.0000000   6.0000000   6.0000000   6.0000000   6.0000000
   8.0000000   8.0000000   8.0000000   8.0000000   8.0000000   8.0000000
   8.0000000   8.0000000   8.0000000   8.0000000   8.0000000   8.0000000
 TTTTTTTTTTTTTTTTTTTTTTTTTTTTTT MOQGAD      TELAPSE       43.29 TCPU      134.82
 TTTTTTTTTTTTTTTTTTTTTTTTTTTTTT SHELLXN     TELAPSE       52.68 TCPU     1033.35
 TTTTTTTTTTTTTTTTTTTTTTTTTTTTTT MONMO3      TELAPSE       52.90 TCPU     1055.00
 NUMERICALLY INTEGRATED DENSITY    396.0000060834
 TTTTTTTTTTTTTTTTTTTTTTTTTTTTTT NUMDFT      TELAPSE       53.50 TCPU     1112.56
 CYC   0 ETOT(AU) -2.591991169498E+03 DETOT -2.59E+03 tst  0.00E+00 PX  1.00E+00
 TTTTTTTTTTTTTTTTTTTTTTTTTTTTTT DIIS        TELAPSE       53.62 TCPU     1123.69
 TTTTTTTTTTTTTTTTTTTTTTTTTTTTTT FDIK        TELAPSE       55.46 TCPU     1298.64
 INSULATING STATE
 TOP OF VALENCE BANDS -    BAND    198; K    3; EIG -3.0047393E-01 AU
 TOP OF VALENCE BANDS -    BAND    198; K    1; EIG -3.0049534E-01 AU
 BOTTOM OF VIRTUAL BANDS - BAND    199; K    1; EIG -1.6017580E-01 AU
 INDIRECT ENERGY BAND GAP:   3.8177 eV
 TTTTTTTTTTTTTTTTTTTTTTTTTTTTTT PDIG        TELAPSE       57.14 TCPU     1316.79
 CHARGE NORMALIZATION FACTOR   1.00000000
 TOTAL ATOMIC CHARGES:
   4.1510491   4.1038164   4.1280193   4.1457679   4.1291328   4.1469108
   4.1485330   4.1306665   4.1459051   4.1280246   4.1029765   4.1499269
   0.7861177   0.7867631   0.7867224   0.7860992   0.7838875   0.7862185
   0.7862661   0.7839421   0.7864459   0.7861595   0.7860547   0.7863716
   0.7873831   0.7870182   0.7865807   0.7869354   0.7864934   0.7858487
   0.7864144   0.7870951   0.7864336   0.7842043   0.7843921   0.7866610
   6.0524826   6.0502563   6.2705552   6.2719694   6.2720835   6.2705840
   6.2664230   6.2704082   6.2691498   6.2650750   6.0524586   6.0549520
   6.0481921   6.0415249   6.2665447   6.2680255   6.2661875   6.2647051
   6.2674614   6.2689021   6.2686935   6.2672442   6.0450227   6.0519220
   6.0487609   6.0515858   6.2721593   6.2705929   6.2715228   6.2729131
   6.2701997   6.2660164   6.2675844   6.2716574   6.0490150   6.0466352
   8.7099047   8.7077459   8.7091493   8.7071050   8.7094317   8.6934955
   8.7068360   8.7088569   8.6923921   8.7082963   8.7090392   8.7110440
 TTTTTTTTTTTTTTTTTTTTTTTTTTTTTT MOQGAD      TELAPSE       57.25 TCPU     1316.90
 TTTTTTTTTTTTTTTTTTTTTTTTTTTTTT SHELLXN     TELAPSE       67.03 TCPU     2249.16
 TTTTTTTTTTTTTTTTTTTTTTTTTTTTTT MONMO3      TELAPSE       67.26 TCPU     2271.18
 NUMERICALLY INTEGRATED DENSITY    395.9999913250
[...]
  68 C    1     2.1434     4.0505   32 H   -1-1 0
  68 C    1     2.4043     4.5434   64 C    0 0 0
  68 C    1     2.4196     4.5724   72 C    0 0 0

  69 C    1     1.0910     2.0617   35 H    0 0 0
  69 C    1     1.3859     2.6190   63 C    0 0 0
  69 C    1     1.4006     2.6467   71 C    0 0 0
  69 C    1     2.1435     4.0506   29 H    0 0 0
  69 C    1     2.4043     4.5434   65 C   -1-1 0
  69 C    1     2.4197     4.5725   61 C    0 0 0

  70 C    1     1.0910     2.0617   36 H    0 0 0
  70 C    1     1.3843     2.6160   64 C    0 0 0
  70 C    1     1.4014     2.6482   72 C    0 0 0
  70 C    1     2.1449     4.0533   30 H    0 0 0
  70 C    1     2.4048     4.5444   66 C    0 0 0
  70 C    1     2.4216     4.5762   62 C    0 0 0

  71 C    1     1.4006     2.6467   69 C    0 0 0
  71 C    1     1.4008     2.6471   65 C   -1-1 0
  71 C    1     1.5479     2.9250    5 B    0 0 0
  71 C    1     2.1585     4.0791   31 H   -1-1 0
  71 C    1     2.1606     4.0830   35 H    0 0 0
  71 C    1     2.4216     4.5762   67 C   -1-1 0

  72 C    1     1.3983     2.6424   66 C    0 0 0
  72 C    1     1.4014     2.6482   70 C    0 0 0
  72 C    1     1.5481     2.9256    6 B    0 0 0
  72 C    1     2.1581     4.0782   32 H   -1-1 0
  72 C    1     2.1599     4.0816   36 H    0 0 0
  72 C    1     2.4196     4.5724   68 C    0 0 0

  73 O    1     1.3731     2.5948    5 B    1 1 0
  73 O    1     1.3787     2.6054    1 B    1 0 0
  73 O    1     2.3717     4.4819   77 O    1 1 0
  73 O    1     2.3755     4.4890   75 O    1 0 0
  73 O    1     2.5443     4.8080   71 C    1 1 0
  73 O    1     2.5443     4.8081   59 C    1 0 0

  74 O    1     1.3755     2.5993    2 B    0 0 0
  74 O    1     1.3802     2.6082    6 B    0 0 0
  74 O    1     2.3730     4.4844   78 O    0 0 0
  74 O    1     2.3740     4.4862   76 O    0 0 0
  74 O    1     2.5386     4.7973   60 C    0-1 0
  74 O    1     2.5446     4.8086   72 C    0 0 0

  75 O    1     1.3732     2.5949    3 B    0 0 0
  75 O    1     1.3787     2.6054    1 B    0 0 0
  75 O    1     2.3718     4.4821   77 O    0 1 0
  75 O    1     2.3755     4.4890   73 O   -1 0 0
  75 O    1     2.5443     4.8080   37 C    0 0 0
  75 O    1     2.5449     4.8092   59 C    0 0 0

  76 O    1     1.3754     2.5992    2 B    0 0 0
  76 O    1     1.3802     2.6081    4 B    0 0 0
  76 O    1     2.3731     4.4845   78 O    0 0 0
  76 O    1     2.3740     4.4862   74 O    0 0 0
  76 O    1     2.5388     4.7977   60 C    0-1 0
  76 O    1     2.5451     4.8095   38 C    0 0 0

  77 O    1     1.3812     2.6100    3 B    0-1 0
  77 O    1     1.3812     2.6101    5 B    0 0 0
  77 O    1     2.3717     4.4819   73 O   -1-1 0
  77 O    1     2.3718     4.4821   75 O    0-1 0
  77 O    1     2.5388     4.7977   37 C    0-1 0
  77 O    1     2.5390     4.7981   71 C    0 0 0

  78 O    1     1.3766     2.6014    6 B    0 0 0
  78 O    1     1.3767     2.6016    4 B    0 0 0
  78 O    1     2.3730     4.4844   74 O    0 0 0
  78 O    1     2.3731     4.4845   76 O    0 0 0
  78 O    1     2.5418     4.8032   38 C    0 0 0
  78 O    1     2.5421     4.8040   72 C    0 0 0

  79 O    1     1.3754     2.5992   11 B    1 0 0
  79 O    1     1.3802     2.6081    7 B    0-1 0
  79 O    1     2.3730     4.4844   81 O    0-1 0
  79 O    1     2.3740     4.4862   83 O    1 0 0
  79 O    1     2.5389     4.7978   49 C    1 0 0
  79 O    1     2.5451     4.8096   47 C    0-1 0

  80 O    1     1.3732     2.5949    8 B    0 0 0
  80 O    1     1.3787     2.6054   12 B    1 0 0
  80 O    1     2.3718     4.4821   82 O    1 0 0
  80 O    1     2.3755     4.4890   84 O    1 0 0
  80 O    1     2.5443     4.8080   48 C    0 0 0
  80 O    1     2.5450     4.8093   50 C    1 0 0

  81 O    1     1.3766     2.6014    9 B    1 1 0
  81 O    1     1.3767     2.6015    7 B    0 0 0
  81 O    1     2.3730     4.4843   83 O    1 1 0
  81 O    1     2.3730     4.4844   79 O    0 1 0
  81 O    1     2.5418     4.8033   47 C    0 0 0
  81 O    1     2.5422     4.8040   61 C    1 1 0

  82 O    1     1.3812     2.6100    8 B   -1 0 0
  82 O    1     1.3812     2.6101   10 B    0 0 0
  82 O    1     2.3717     4.4819   84 O    0 0 0
  82 O    1     2.3718     4.4821   80 O   -1 0 0
  82 O    1     2.5388     4.7977   48 C   -1 0 0
  82 O    1     2.5390     4.7981   62 C    0 0 0

  83 O    1     1.3755     2.5992   11 B    0 0 0
  83 O    1     1.3802     2.6082    9 B    0 0 0
  83 O    1     2.3730     4.4843   81 O   -1-1 0
  83 O    1     2.3740     4.4862   79 O   -1 0 0
  83 O    1     2.5386     4.7973   49 C    0 0 0
  83 O    1     2.5446     4.8086   61 C    0 0 0

  84 O    1     1.3731     2.5948   10 B    0 0 0
  84 O    1     1.3787     2.6055   12 B    0 0 0
  84 O    1     2.3717     4.4819   82 O    0 0 0
  84 O    1     2.3755     4.4890   80 O   -1 0 0
  84 O    1     2.5443     4.8081   62 C    0 0 0
  84 O    1     2.5444     4.8081   50 C    0 0 0


 FINAL OPTIMIZED GEOMETRY - DIMENSIONALITY OF THE SYSTEM      3
 (NON PERIODIC DIRECTION: LATTICE PARAMETER FORMALLY SET TO 500)
 *******************************************************************************
 LATTICE PARAMETERS (ANGSTROMS AND DEGREES) - BOHR = 0.5291772083 ANGSTROM
 PRIMITIVE CELL - CENTRING CODE 1/0 VOLUME=  1292.223490 - DENSITY  1.003 g/cm^3
         A              B              C           ALPHA      BETA       GAMMA 
    15.02315899    15.05877632     6.58919324    89.926880  90.164643 119.902554
 *******************************************************************************
 ATOMS IN THE ASYMMETRIC UNIT   84 - ATOMS IN THE UNIT CELL:   84
     ATOM                 X/A                 Y/B                 Z/C    
 *******************************************************************************
      1 T   5 B    -3.814879985314E-01  2.351639090990E-01  2.504394037601E-01
      2 T   5 B    -3.119895592109E-01  3.729401474650E-01 -2.493063457360E-01
      3 T   5 B    -2.221212271194E-01  3.939966528033E-01  2.506208309467E-01
      4 T   5 B    -1.526350108894E-01 -4.681559970323E-01 -2.492012957669E-01
      5 T   5 B    -3.821960456290E-01  3.939604323209E-01  2.502998290477E-01
      6 T   5 B    -3.123290662119E-01 -4.680531903469E-01 -2.491346722165E-01
      7 T   5 B     2.321941779391E-01 -3.774002044884E-01  2.502796567453E-01
      8 T   5 B     3.016747800795E-01 -2.395613405817E-01 -2.497784458314E-01
      9 T   5 B     3.918892039477E-01 -3.775064340393E-01  2.503442759364E-01
     10 T   5 B     4.617496527706E-01 -2.395240688912E-01 -2.492697404767E-01
     11 T   5 B     3.915536614691E-01 -2.184984097185E-01  2.502976760117E-01
     12 T   5 B     4.610383006262E-01 -8.072675399051E-02 -2.495966096248E-01
     13 T   1 H    -8.834514753310E-02  3.187451411432E-01  2.506454698332E-01
     14 T   1 H    -1.877620457511E-02  4.559237675546E-01 -2.492733927713E-01
     15 T   1 H     9.832649026450E-02 -3.014840902231E-01  2.504678292990E-01
     16 T   1 H     1.679039529555E-01 -1.643055890765E-01 -2.499303345496E-01
     17 T   1 H    -9.021696207206E-02 -3.963795354733E-01  2.505896783442E-01
     18 T   1 H    -2.105122759617E-02 -2.594560261790E-01 -2.496829447229E-01
     19 T   1 H     1.006083771251E-01  4.138974552937E-01  2.505064531590E-01
     20 T   1 H     1.697688323174E-01 -4.491845622253E-01 -2.495668125919E-01
     21 T   1 H    -3.989582620736E-01 -8.610999227337E-02  2.512268199541E-01
     22 T   1 H    -3.297798913495E-01  5.160007722248E-02 -2.489180557314E-01
     23 T   1 H     4.093335291305E-01  1.028334608608E-01  2.495802736894E-01
     24 T   1 H     4.785276021228E-01  2.405584312967E-01 -2.500856675128E-01
     25 T   1 H     3.146791742985E-01 -8.582431126266E-02  2.495035640343E-01
     26 T   1 H     3.843215237767E-01  5.190333270818E-02 -2.502312674930E-01
     27 T   1 H    -3.047600525914E-01  1.025456891303E-01  2.512760665247E-01
     28 T   1 H    -2.351164397732E-01  2.402591663605E-01 -2.487829333064E-01
     29 T   1 H    -3.984638001476E-01 -3.016127245764E-01  2.509254050937E-01
     30 T   1 H    -3.292555555211E-01 -1.641858724421E-01 -2.488154386647E-01
     31 T   1 H     4.088112622466E-01  3.186240386953E-01  2.498848043416E-01
     32 T   1 H     4.780220272688E-01  4.560513578275E-01 -2.496514193067E-01
     33 T   1 H     3.148652708672E-01  4.137369082853E-01  2.498160838190E-01
     34 T   1 H     3.842433389111E-01 -4.491215163111E-01 -2.497338482440E-01
     35 T   1 H    -3.046849586444E-01 -3.964427388127E-01  2.508778247883E-01
     36 T   1 H    -2.353084790765E-01 -2.592987630217E-01 -2.487416764789E-01
     37 T   6 C    -1.032768177587E-01  4.540894884580E-01  2.506324980554E-01
     38 T   6 C    -3.376116022019E-02 -4.087897375270E-01 -2.494263937072E-01
     39 T   6 C    -4.749072391156E-02  4.023053405476E-01  2.506082232540E-01
     40 T   6 C     2.179085013918E-02 -4.606157382246E-01 -2.494203318889E-01
     41 T   6 C     5.776244958336E-02 -3.849448864838E-01  2.505040452170E-01
     42 T   6 C     1.270477595040E-01 -2.478653941475E-01 -2.497882947955E-01
     43 T   6 C    -4.866210399411E-02 -4.386256978912E-01  2.505700445016E-01
     44 T   6 C     2.076088610136E-02 -3.014400774479E-01 -2.496455197358E-01
     45 T   6 C     5.879631177118E-02  4.558819854465E-01  2.505110007172E-01
     46 T   6 C     1.282148710356E-01 -4.069372954206E-01 -2.495779234124E-01
     47 T   6 C     1.133181177594E-01 -4.367680151331E-01  2.504541714250E-01
     48 T   6 C     1.828305649766E-01 -2.996527561880E-01 -2.497463732360E-01
     49 T   6 C     4.509350050946E-01 -9.981791417770E-02  2.503443073900E-01
     50 T   6 C    -4.795860218266E-01  3.803764732451E-02 -2.495880394033E-01
     51 T   6 C    -4.414221246596E-01 -4.482105661407E-02  2.508580192895E-01
     52 T   6 C    -3.721608118697E-01  9.296235480687E-02 -2.491852655016E-01
     53 T   6 C     4.517188081895E-01  6.147575048073E-02  2.499325176864E-01
     54 T   6 C    -4.790111024328E-01  1.992667233597E-01 -2.498364311210E-01
     55 T   6 C     3.984068837750E-01 -4.467179834966E-02  2.498891855167E-01
     56 T   6 C     4.680394333135E-01  9.311085930899E-02 -2.499288802789E-01
     57 T   6 C    -3.884774535717E-01  6.133477975718E-02  2.508823432576E-01
     58 T   6 C    -3.188438303729E-01  1.991105442682E-01 -2.491177198476E-01
     59 T   6 C    -4.408574595116E-01  1.164025333713E-01  2.504203911323E-01
     60 T   6 C    -3.713681313921E-01  2.542604262646E-01 -2.494178916898E-01
     61 T   6 C     4.513828033489E-01 -4.369228951802E-01  2.503270040125E-01
     62 T   6 C    -4.794068150817E-01 -2.995655923394E-01 -2.492310175622E-01
     63 T   6 C    -4.412619975051E-01 -3.850714198957E-01  2.506530188947E-01
     64 T   6 C    -3.718629074057E-01 -2.477480438507E-01 -2.489669317129E-01
     65 T   6 C     4.514192585902E-01  4.021863376768E-01  2.500835249513E-01
     66 T   6 C    -4.791791963277E-01 -4.604901363841E-01 -2.494307543287E-01
     67 T   6 C     3.986386763310E-01  4.557302085870E-01  2.500484205691E-01
     68 T   6 C     4.680154306001E-01 -4.068503830317E-01 -2.494855948958E-01
     69 T   6 C    -3.884568822736E-01 -4.387119469382E-01  2.506612848350E-01
     70 T   6 C    -3.190816233106E-01 -3.012913437003E-01 -2.489347302543E-01
     71 T   6 C    -4.410376149604E-01  4.540025986075E-01  2.503438603530E-01
     72 T   6 C    -3.718255251512E-01 -4.086390852236E-01 -2.491448076164E-01
     73 T   8 O    -4.337667335062E-01  2.887789046026E-01  2.502002682070E-01
     74 T   8 O    -3.643512591856E-01  4.262231159426E-01 -2.492550637525E-01
     75 T   8 O    -2.756273399334E-01  2.888115964882E-01  2.507080462317E-01
     76 T   8 O    -2.063778670217E-01  4.261227274533E-01 -2.492579511307E-01
     77 T   8 O    -2.761406813332E-01  4.460593765727E-01  2.504244337137E-01
     78 T   8 O    -2.066316538851E-01 -4.164166018329E-01 -2.490882429832E-01
     79 T   8 O     2.859412929451E-01 -2.716785369835E-01  2.501813732993E-01
     80 T   8 O     3.551792204801E-01 -1.343752393272E-01 -2.500068492025E-01
     81 T   8 O     2.861915124169E-01 -4.291379419322E-01  2.503228541395E-01
     82 T   8 O     3.556943217869E-01 -2.916236364199E-01 -2.494562147187E-01
     83 T   8 O     4.439132023697E-01 -2.717828658534E-01  2.504274581493E-01
     84 T   8 O    -4.866833512806E-01 -1.343426699276E-01 -2.491944563257E-01

 T = ATOM BELONGING TO THE ASYMMETRIC UNIT
 INFORMATION **** fort.34 **** GEOMETRY OUTPUT FILE

 DIRECT LATTICE VECTORS CARTESIAN COMPONENTS (ANGSTROM)
          X                    Y                    Z
   0.130116242205E+02  -0.750949210448E+01  -0.216652842089E-01
   0.232101448137E-01   0.150587550819E+02   0.100534471800E-01
  -0.856814776035E-02   0.402323025597E-02   0.658918644308E+01


 CARTESIAN COORDINATES - PRIMITIVE CELL
 *******************************************************************************
 *      ATOM          X(ANGSTROM)         Y(ANGSTROM)         Z(ANGSTROM)
 *******************************************************************************
    1     5 B    -4.960466094948E+00  6.407064399532E+00  1.660821177918E+00
    2     5 B    -4.071908961544E+00 -7.100860626262E+00 -1.642270764133E+00
    3     5 B    -2.883160575616E+00  7.602125004246E+00  1.660160725680E+00
    4     5 B    -1.994760179545E+00 -5.904637684474E+00 -1.643433500363E+00
    5     5 B    -4.989202196330E+00 -6.255096218746E+00  1.651459839436E+00
    6     5 B    -4.072637402331E+00 -4.703868028158E+00 -1.639533654711E+00
    7     5 B     3.033529587863E+00  7.632924421385E+00  1.650368042507E+00
    8     5 B     3.921858760418E+00 -5.873924850235E+00 -1.654781036179E+00
    9     5 B    -7.923416128404E+00 -1.117166517759E+00  1.658944761335E+00
   10     5 B    -7.006934863053E+00  4.340495735444E-01 -1.633231490446E+00
   11     5 B    -7.924091082499E+00  1.279815942651E+00  1.660243554140E+00
   12     5 B    -7.012502200507E+00  2.830680024537E+00 -1.633773420141E+00
   13     1 H    -1.144263307941E+00  5.464340606321E+00  1.656668242015E+00
   14     1 H    -2.315910502874E-01  7.005641227365E+00 -1.637518462946E+00
   15     1 H     1.270243807478E+00 -5.277349388307E+00  1.645217999512E+00
   16     1 H     2.183031024512E+00 -3.736116560802E+00 -1.652127096551E+00
   17     1 H    -1.185216324606E+00 -5.290490599815E+00  1.649151706722E+00
   18     1 H    -2.777933544381E-01 -3.750005257302E+00 -1.647359821063E+00
   19     1 H     1.316538640155E+00  5.478270439757E+00  1.652615112180E+00
   20     1 H     2.223891081868E+00  7.018713002141E+00 -1.642582754266E+00
   21     1 H    -5.195246159666E+00  1.700275378656E+00  1.663158198057E+00
   22     1 H    -4.287641609767E+00  3.252510960753E+00 -1.632503944540E+00
   23     1 H     5.326342400748E+00 -1.524338884872E+00  1.636696459377E+00
   24     1 H     6.234147504932E+00  2.800509763487E-02 -1.655810085003E+00
   25     1 H     4.090357387889E+00 -3.654484247927E+00  1.636345057709E+00
   26     1 H     5.003995949571E+00 -2.105466611205E+00 -1.656625103026E+00
   27     1 H    -3.965196151907E+00  3.833814567486E+00  1.663338501839E+00
   28     1 H    -3.051538703411E+00  5.382608079485E+00 -1.631767834084E+00
   29     1 H    -5.193811673952E+00 -1.548641857161E+00  1.658994861350E+00
   30     1 H    -4.285828451382E+00 -8.938882683482E-04 -1.634008534087E+00
   31     1 H     5.324552781609E+00  1.729121759953E+00  1.640883822858E+00
   32     1 H     6.232567056245E+00  3.276858657595E+00 -1.650771342433E+00
   33     1 H     4.104371017044E+00  3.866889572275E+00  1.643422589337E+00
   34     1 H     5.014555661030E+00  5.409067109220E+00 -1.648329400633E+00
   35     1 H    -3.975797239168E+00 -3.680895477219E+00  1.655696232054E+00
   36     1 H    -3.065632612040E+00 -2.138670144673E+00 -1.636514103826E+00
   37     6 C    -1.335407116856E+00  7.614587191729E+00  1.658266944678E+00
   38     6 C    -4.466384768426E-01 -5.903338871106E+00 -1.646895312865E+00
   39     6 C    -6.107411365696E-01  6.415857062275E+00  1.656377762712E+00
   40     6 C     2.749804657265E-01 -7.100941281278E+00 -1.648579950467E+00
   41     6 C     7.405023057990E-01 -6.229549589209E+00  1.645496395711E+00
   42     6 C     1.649484936047E+00 -4.687613366453E+00 -1.651146073173E+00
   43     6 C    -6.455004980824E-01 -6.238721170447E+00  1.647697318300E+00
   44     6 C     2.652753802858E-01 -4.696220389819E+00 -1.648441176613E+00
   45     6 C     7.734701859477E-01  6.424492589498E+00  1.653973036425E+00
   46     6 C     1.660977068363E+00 -7.091801736593E+00 -1.651384403667E+00
   47     6 C     1.485379533243E+00  7.631618638582E+00  1.653496584750E+00
   48     6 C     2.374107487458E+00 -5.886366936359E+00 -1.652599036045E+00
   49     6 C    -7.148689161594E+00  2.621072914496E+00  1.660457451393E+00
   50     6 C    -6.237171730903E+00  4.173242909126E+00 -1.633809348648E+00
   51     6 C    -5.746808500471E+00  2.640915905386E+00  1.662063189503E+00
   52     6 C    -4.838123907749E+00  4.193633481506E+00 -1.632930611374E+00
   53     6 C     5.876880787818E+00 -2.465425017514E+00  1.637683384073E+00
   54     6 C     6.785677403155E+00 -9.126583792503E-01 -1.655502879988E+00
   55     6 C     5.180742732163E+00 -3.663529656763E+00  1.637485729546E+00
   56     6 C     6.094255770751E+00 -2.113610324690E+00 -1.656032111906E+00
   57     6 C    -5.055448651875E+00  3.841903154165E+00  1.662143635410E+00
   58     6 C    -4.141920243834E+00  5.391709889155E+00 -1.632573512808E+00
   59     6 C    -5.735715517222E+00  5.064500351248E+00  1.660788195197E+00
   60     6 C    -4.824064102475E+00  6.616628071070E+00 -1.632859000706E+00
   61     6 C    -7.150686686151E+00 -2.458671238372E+00  1.656944667415E+00
   62     6 C    -6.242678839179E+00 -9.119859070755E-01 -1.634854824075E+00
   63     6 C    -5.752620489840E+00 -2.484034280159E+00  1.657288245425E+00
   64     6 C    -4.842157495219E+00 -9.392771985408E-01 -1.634923737515E+00
   65     6 C     5.880889809212E+00  2.667502341762E+00  1.642110204815E+00
   66     6 C    -6.243450520084E+00 -3.337019307331E+00 -1.637793704698E+00
   67     6 C     5.195371768495E+00  3.870161604447E+00  1.643560702289E+00
   68     6 C    -6.929288734997E+00 -2.132730087421E+00 -1.636471751576E+00
   69     6 C    -5.066785248753E+00 -3.688333402006E+00  1.655659401212E+00
   70     6 C    -4.156630284349E+00 -2.141933143874E+00 -1.636393372359E+00
   71     6 C    -5.753433374906E+00 -4.909065464594E+00  1.653628419987E+00
   72     6 C    -4.845403871672E+00 -3.362377422825E+00 -1.637714114491E+00
   73     8 O     7.372173332085E+00  9.753316648241E-02  1.639251834142E+00
   74     8 O    -4.751983459139E+00 -5.905275475065E+00 -1.640262748962E+00
   75     8 O    -3.581804116712E+00  6.419973085529E+00  1.660837156187E+00
   76     8 O    -2.696495348757E+00 -7.093087153528E+00 -1.643705322124E+00
   77     8 O    -3.608041493136E+00 -6.266972396739E+00  1.650506937187E+00
   78     8 O    -2.696144297171E+00 -4.720018984999E+00 -1.640998562599E+00
   79     8 O     3.712111363763E+00 -6.237407893883E+00  1.639565408055E+00
   80     8 O     4.620481774674E+00 -4.691745205089E+00 -1.656387734570E+00
   81     8 O     3.734921402497E+00  6.448326121595E+00  1.648962667982E+00
   82     8 O    -8.388094617161E+00  4.459158666901E-01 -1.632686265356E+00
   83     8 O    -7.244046263879E+00  8.422533120064E-02  1.659428636042E+00
   84     8 O    -6.333523859133E+00  1.630708853664E+00 -1.632795207123E+00

 ****    1 SYMMOPS - TRANSLATORS IN FRACTIONAL UNITS
 **** MATRICES AND TRANSLATORS IN THE CRYSTALLOGRAPHIC REFERENCE FRAME
   V INV                    ROTATION MATRICES                   TRANSLATORS
   1   1  1.00 -0.00  0.00  0.00  1.00  0.00  0.00  0.00  1.00  0.00  0.00  0.00
 TTTTTTTTTTTTTTTTTTTTTTTTTTTTTT END         TELAPSE     6216.10 TCPU   451994.85
 EEEEEEEEEE TERMINATION  DATE 14 01 2026 TIME 14:41:49.5
