 Default number of threads is:           32

         
 *******************************************************************************
 *                                                                             *
 *                               CRYSTAL23                                     *
 *                      public : 1.0.1 - October 2022                          *
 *                       HTTP://WWW.CRYSTAL.UNITO.IT                           *
 *                                                                             *
 *                              MAIN AUTHORS                                   *
 *                                                                             *
 *  R. DOVESI(1,11), V.R. SAUNDERS(2), C. ROETTI(1,11), R. ORLANDO(1,11),      *
 *  C.M. ZICOVICH-WILSON(1,3), F. PASCALE(4), B. CIVALLERI(1,11),              *
 *  K. DOLL(5), N.M. HARRISON(6), I.J. BUSH(7), Ph. D'ARCO(8),                 *
 *  M. LLUNELL(9), M. CAUSA'(10), Y. NOEL(8), L. MASCHIO(1,11), A. ERBA(1,11)  *
 *  M. RE'RAT(14), S. CASASSA(1,11), B.G. SEARLE(2), J.K. DESMARAIS(1)         *
 *                                                                             *
 *        CONTRIBUTIONS TO THE CODE HAVE ALSO BEEN GIVEN BY                    *
 *                                                                             *
 *  M. FERRABONE(1,11), M. DE LA PIERRE(1,11), M. FERRERO(1,11),               *
 *  J. BAIMA(1,11), E. ALBANESE(1,11), M.F. PEINTINGER(12), R. BAST(13),       *
 *  B. KIRTMAN(15), V. LACIVITA(1,11), R. DEMICHELIS(1,16)                     *
 *  G. BRANDEBURG(17), S. SALUSTRO(1,11), G. SANSONE(1,11)                     *
 *  M.T. RUGGIERO(18), L.E. DAGA(1), L. DONA'(1), A. COSSARD(1)                *
 *                                                                             *
 * (1) THEORETICAL CHEMISTRY GROUP - UNIVERSITA' DI TORINO - TORINO (ITALY)    *
 * (2) SCIENTIFIC COMPUTING DEPARTMENT - STFC DARESBURY (UK)                   *
 * (3) UNIVERSIDAD AUTONOMA DEL ESTADO DE MORELOS - CUERNAVACA (MEXICO)        *
 * (4) UNIVERSITE' DE LORRAINE - NANCY (FRANCE)                                *
 * (5) UNIVERSITAET STUTTGART- STUTTGART (GERMANY)                             *
 * (6) IMPERIAL COLLEGE - LONDON (UK)                                          *
 * (7) SCIENTIFIC COMPUTING DEPARTMENT - STFC RAL (UK)                         *
 * (8) UPMC - SORBONNE UNIVERSITES - PARIS (FRANCE)                            *
 * (9) UNIVERSIDAD DE BARCELONA - BARCELONA (SPAIN)                            *
 *(10) UNIVERSITA' DI NAPOLI "FEDERICO II" - NAPOLI (ITALY)                    *
 *(11) NIS - NANOSTRUCTURED INTERFACES AND SURFACES - TORINO (ITALY)           *
 *(12) MPI FUER CHEMISCHE ENERGIEKONVERSION - MUELHEIM AN DER RUHR (GERMANY)   *
 *(13) UNIVERSITY OF TROMSO - TROMSO (NORWAY)                                  *
 *(14) UNIVERSITE' DE PAU ET DES PAYS DE L'ADOUR - PAU (FRANCE)                *
 *(15) UNIVERSITY OF CALIFORNIA SANTA BARBARA - SANTA BARBARA (USA)            *
 *(16) CURTIN UNIVERSITY - PERTH (AUSTRALIA)                                   *
 *(17) UNIVERSITY COLLEGE LONDON - LONDON (UK)                                 *
 *(18) UNIVERSITY OF VERMONT - BURLINGTON (USA)                                *
 *                                                                             *
 *******************************************************************************
 EEEEEEEEEE STARTING  DATE 02 12 2025 TIME 08:06:28.8
 COF-5_z45_inc_L000                                                              

 CRYSTAL CALCULATION
 (INPUT ACCORDING TO THE INTERNATIONAL TABLES FOR X-RAY CRYSTALLOGRAPHY)
 CRYSTAL FAMILY                       :  TRICLINIC   
 CRYSTAL CLASS  (GROTH - 1921)        :  TRICLINIC PEDIAL                     

 SPACE GROUP (NONCENTROSYMMETRIC)     :  P 1             

 LATTICE PARAMETERS  (ANGSTROMS AND DEGREES) - CONVENTIONAL CELL
        A           B           C        ALPHA        BETA       GAMMA
    15.02070    15.04439     4.50000    90.00330    89.99929   120.05310


 NUMBER OF IRREDUCIBLE ATOMS IN THE CONVENTIONAL CELL:   42

 INPUT COORDINATES

 ATOM AT. N.              COORDINATES
   1   5     6.156164300000E-01  2.280750700000E-01  5.006701200000E-01
   2   5     7.743958300000E-01  3.871017900000E-01  5.006801100000E-01
   3   5     6.151641200000E-01  3.867891800000E-01  4.992500900000E-01
   4   5     2.287899500000E-01  6.143590000000E-01  5.054652800000E-01
   5   5     3.873645400000E-01  6.138581800000E-01  5.095093100000E-01
   6   5     3.876370900000E-01  7.731966900000E-01  5.035434700000E-01
   7   1     9.044214300000E-01  3.095486000000E-01  5.045686500000E-01
   8   1     9.886935000000E-02  6.914399800000E-01  4.929779300000E-01
   9   1     9.044870700000E-01  5.941405000000E-01  4.928396300000E-01
  10   1     9.886081000000E-02  4.067623600000E-01  5.041372100000E-01
  11   1     5.944002700000E-01  9.032291200000E-01  5.042592800000E-01
  12   1     4.082606200000E-01  9.863600000000E-02  4.946102100000E-01
  13   1     3.099203300000E-01  9.049241600000E-01  4.959171000000E-01
  14   1     6.925018400000E-01  9.691914000000E-02  5.023978900000E-01
  15   1     5.939977500000E-01  6.905649700000E-01  4.978146400000E-01
  16   1     4.066874900000E-01  3.089518100000E-01  5.060980500000E-01
  17   1     3.093234400000E-01  4.048732800000E-01  5.057331600000E-01
  18   1     6.917891600000E-01  5.947057300000E-01  4.987481200000E-01
  19   6     8.936883400000E-01  4.465308800000E-01  5.004301100000E-01
  20   6     9.482125500000E-01  3.933544000000E-01  5.021962600000E-01
  21   6     5.522963000000E-02  6.076907100000E-01  4.958031500000E-01
  22   6     9.482511500000E-01  5.541658000000E-01  4.961403200000E-01
  23   6     5.524319000000E-02  4.469193500000E-01  5.015525300000E-01
  24   6     1.097444900000E-01  5.545914500000E-01  4.993691900000E-01
  25   6     4.466001600000E-01  8.925727600000E-01  5.019116200000E-01
  26   6     5.544734200000E-01  9.470548000000E-01  5.023018100000E-01
  27   6     4.480139400000E-01  5.459988000000E-02  4.970252700000E-01
  28   6     3.938956300000E-01  9.476446600000E-01  4.981439800000E-01
  29   6     6.085567200000E-01  5.392133000000E-02  5.008643600000E-01
  30   6     5.558772400000E-01  1.089145700000E-01  4.992400500000E-01
  31   6     4.462008000000E-01  5.535192700000E-01  5.000112900000E-01
  32   6     5.540499900000E-01  6.067742600000E-01  4.994597900000E-01
  33   6     4.472124200000E-01  3.927448200000E-01  5.039834700000E-01
  34   6     3.933109600000E-01  4.457904200000E-01  5.033755100000E-01
  35   6     6.078636300000E-01  5.537097300000E-01  5.003981800000E-01
  36   6     5.551090200000E-01  4.459864200000E-01  5.016400700000E-01
  37   8     5.624997000000E-01  2.808905100000E-01  4.996399700000E-01
  38   8     7.216591500000E-01  2.811877200000E-01  5.026301100000E-01
  39   8     7.212675800000E-01  4.399315100000E-01  4.981102500000E-01
  40   8     2.816285800000E-01  7.202206700000E-01  5.027767900000E-01
  41   8     2.813888000000E-01  5.611590400000E-01  5.102647800000E-01
  42   8     4.404370800000E-01  7.199310200000E-01  5.052486000000E-01

 *******************************************************************************

 << INFORMATION >>: FROM NOW ON, ALL COORDINATES REFER TO THE PRIMITIVE CELL

 *******************************************************************************

 LATTICE PARAMETERS  (ANGSTROMS AND DEGREES) - PRIMITIVE CELL
       A          B          C        ALPHA      BETA     GAMMA        VOLUME
   15.02070   15.04439    4.50000    90.00330  89.99929 120.05310    880.187503

 COORDINATES OF THE EQUIVALENT ATOMS (FRACTIONAL UNITS)

 N. ATOM EQUIV AT. N.          X                  Y                  Z

   1   1   1    5 B    -3.84383570000E-01  2.28075070000E-01 -4.99329880000E-01

   2   2   1    5 B    -2.25604170000E-01  3.87101790000E-01 -4.99319890000E-01

   3   3   1    5 B    -3.84835880000E-01  3.86789180000E-01  4.99250090000E-01

   4   4   1    5 B     2.28789950000E-01 -3.85641000000E-01 -4.94534720000E-01

   5   5   1    5 B     3.87364540000E-01 -3.86141820000E-01 -4.90490690000E-01

   6   6   1    5 B     3.87637090000E-01 -2.26803310000E-01 -4.96456530000E-01

   7   7   1    1 H    -9.55785700000E-02  3.09548600000E-01 -4.95431350000E-01

   8   8   1    1 H     9.88693500000E-02 -3.08560020000E-01  4.92977930000E-01

   9   9   1    1 H    -9.55129300000E-02 -4.05859500000E-01  4.92839630000E-01

  10  10   1    1 H     9.88608100000E-02  4.06762360000E-01 -4.95862790000E-01

  11  11   1    1 H    -4.05599730000E-01 -9.67708800000E-02 -4.95740720000E-01

  12  12   1    1 H     4.08260620000E-01  9.86360000000E-02  4.94610210000E-01

  13  13   1    1 H     3.09920330000E-01 -9.50758400000E-02  4.95917100000E-01

  14  14   1    1 H    -3.07498160000E-01  9.69191400000E-02 -4.97602110000E-01

  15  15   1    1 H    -4.06002250000E-01 -3.09435030000E-01  4.97814640000E-01

  16  16   1    1 H     4.06687490000E-01  3.08951810000E-01 -4.93901950000E-01

  17  17   1    1 H     3.09323440000E-01  4.04873280000E-01 -4.94266840000E-01

  18  18   1    1 H    -3.08210840000E-01 -4.05294270000E-01  4.98748120000E-01

  19  19   1    6 C    -1.06311660000E-01  4.46530880000E-01 -4.99569890000E-01

  20  20   1    6 C    -5.17874500000E-02  3.93354400000E-01 -4.97803740000E-01

  21  21   1    6 C     5.52296300000E-02 -3.92309290000E-01  4.95803150000E-01

  22  22   1    6 C    -5.17488500000E-02 -4.45834200000E-01  4.96140320000E-01

  23  23   1    6 C     5.52431900000E-02  4.46919350000E-01 -4.98447470000E-01

  24  24   1    6 C     1.09744490000E-01 -4.45408550000E-01  4.99369190000E-01

  25  25   1    6 C     4.46600160000E-01 -1.07427240000E-01 -4.98088380000E-01

  26  26   1    6 C    -4.45526580000E-01 -5.29452000000E-02 -4.97698190000E-01

  27  27   1    6 C     4.48013940000E-01  5.45998800000E-02  4.97025270000E-01

  28  28   1    6 C     3.93895630000E-01 -5.23553400000E-02  4.98143980000E-01

  29  29   1    6 C    -3.91443280000E-01  5.39213300000E-02 -4.99135640000E-01

  30  30   1    6 C    -4.44122760000E-01  1.08914570000E-01  4.99240050000E-01

  31  31   1    6 C     4.46200800000E-01 -4.46480730000E-01 -4.99988710000E-01

  32  32   1    6 C    -4.45950010000E-01 -3.93225740000E-01  4.99459790000E-01

  33  33   1    6 C     4.47212420000E-01  3.92744820000E-01 -4.96016530000E-01

  34  34   1    6 C     3.93310960000E-01  4.45790420000E-01 -4.96624490000E-01

  35  35   1    6 C    -3.92136370000E-01 -4.46290270000E-01 -4.99601820000E-01

  36  36   1    6 C    -4.44890980000E-01  4.45986420000E-01 -4.98359930000E-01

  37  37   1    8 O    -4.37500300000E-01  2.80890510000E-01  4.99639970000E-01

  38  38   1    8 O    -2.78340850000E-01  2.81187720000E-01 -4.97369890000E-01

  39  39   1    8 O    -2.78732420000E-01  4.39931510000E-01  4.98110250000E-01

  40  40   1    8 O     2.81628580000E-01 -2.79779330000E-01 -4.97223210000E-01

  41  41   1    8 O     2.81388800000E-01 -4.38840960000E-01 -4.89735220000E-01

  42  42   1    8 O     4.40437080000E-01 -2.80068980000E-01 -4.94751400000E-01

 NUMBER OF SYMMETRY OPERATORS         :    1
 *******************************************************************************
 * GEOMETRY EDITING - INPUT COORDINATES ARE GIVEN IN ANGSTROM         
 *******************************************************************************

 GCALCO - MAX INDICES DIRECT LATTICE VECTOR    10    10    31
 NO.OF VECTORS CREATED 6999 STARS 3500 RMAX   214.58698 BOHR

 GEOMETRY FOR WAVE FUNCTION - DIMENSIONALITY OF THE SYSTEM    3
 (NON PERIODIC DIRECTION: LATTICE PARAMETER FORMALLY SET TO 500)
 *******************************************************************************
 LATTICE PARAMETERS (ANGSTROMS AND DEGREES) - BOHR = 0.5291772083 ANGSTROM
 PRIMITIVE CELL - CENTRING CODE 1/0 VOLUME=   880.187503 - DENSITY  0.736 g/cm^3
         A              B              C           ALPHA      BETA       GAMMA 
    15.02070100    15.04438700     4.50000000    90.003305  89.999286 120.053104
 *******************************************************************************
 ATOMS IN THE ASYMMETRIC UNIT   42 - ATOMS IN THE UNIT CELL:   42
     ATOM                 X/A                 Y/B                 Z/C    
 *******************************************************************************
      1 T   5 B    -3.843835700000E-01  2.280750700000E-01 -4.993298800000E-01
      2 T   5 B    -2.256041700000E-01  3.871017900000E-01 -4.993198900000E-01
      3 T   5 B    -3.848358800000E-01  3.867891800000E-01  4.992500900000E-01
      4 T   5 B     2.287899500000E-01 -3.856410000000E-01 -4.945347200000E-01
      5 T   5 B     3.873645400000E-01 -3.861418200000E-01 -4.904906900000E-01
      6 T   5 B     3.876370900000E-01 -2.268033100000E-01 -4.964565300000E-01
      7 T   1 H    -9.557857000000E-02  3.095486000000E-01 -4.954313500000E-01
      8 T   1 H     9.886935000000E-02 -3.085600200000E-01  4.929779300000E-01
      9 T   1 H    -9.551293000000E-02 -4.058595000000E-01  4.928396300000E-01
     10 T   1 H     9.886081000000E-02  4.067623600000E-01 -4.958627900000E-01
     11 T   1 H    -4.055997300000E-01 -9.677088000000E-02 -4.957407200000E-01
     12 T   1 H     4.082606200000E-01  9.863600000000E-02  4.946102100000E-01
     13 T   1 H     3.099203300000E-01 -9.507584000000E-02  4.959171000000E-01
     14 T   1 H    -3.074981600000E-01  9.691914000000E-02 -4.976021100000E-01
     15 T   1 H    -4.060022500000E-01 -3.094350300000E-01  4.978146400000E-01
     16 T   1 H     4.066874900000E-01  3.089518100000E-01 -4.939019500000E-01
     17 T   1 H     3.093234400000E-01  4.048732800000E-01 -4.942668400000E-01
     18 T   1 H    -3.082108400000E-01 -4.052942700000E-01  4.987481200000E-01
     19 T   6 C    -1.063116600000E-01  4.465308800000E-01 -4.995698900000E-01
     20 T   6 C    -5.178745000000E-02  3.933544000000E-01 -4.978037400000E-01
     21 T   6 C     5.522963000000E-02 -3.923092900000E-01  4.958031500000E-01
     22 T   6 C    -5.174885000000E-02 -4.458342000000E-01  4.961403200000E-01
     23 T   6 C     5.524319000000E-02  4.469193500000E-01 -4.984474700000E-01
     24 T   6 C     1.097444900000E-01 -4.454085500000E-01  4.993691900000E-01
     25 T   6 C     4.466001600000E-01 -1.074272400000E-01 -4.980883800000E-01
     26 T   6 C    -4.455265800000E-01 -5.294520000000E-02 -4.976981900000E-01
     27 T   6 C     4.480139400000E-01  5.459988000000E-02  4.970252700000E-01
     28 T   6 C     3.938956300000E-01 -5.235534000000E-02  4.981439800000E-01
     29 T   6 C    -3.914432800000E-01  5.392133000000E-02 -4.991356400000E-01
     30 T   6 C    -4.441227600000E-01  1.089145700000E-01  4.992400500000E-01
     31 T   6 C     4.462008000000E-01 -4.464807300000E-01 -4.999887100000E-01
     32 T   6 C    -4.459500100000E-01 -3.932257400000E-01  4.994597900000E-01
     33 T   6 C     4.472124200000E-01  3.927448200000E-01 -4.960165300000E-01
     34 T   6 C     3.933109600000E-01  4.457904200000E-01 -4.966244900000E-01
     35 T   6 C    -3.921363700000E-01 -4.462902700000E-01 -4.996018200000E-01
     36 T   6 C    -4.448909800000E-01  4.459864200000E-01 -4.983599300000E-01
     37 T   8 O    -4.375003000000E-01  2.808905100000E-01  4.996399700000E-01
     38 T   8 O    -2.783408500000E-01  2.811877200000E-01 -4.973698900000E-01
     39 T   8 O    -2.787324200000E-01  4.399315100000E-01  4.981102500000E-01
     40 T   8 O     2.816285800000E-01 -2.797793300000E-01 -4.972232100000E-01
     41 T   8 O     2.813888000000E-01 -4.388409600000E-01 -4.897352200000E-01
     42 T   8 O     4.404370800000E-01 -2.800689800000E-01 -4.947514000000E-01

 T = ATOM BELONGING TO THE ASYMMETRIC UNIT

 ****    1 SYMMOPS - TRANSLATORS IN FRACTIONAL UNITS
 **** MATRICES AND TRANSLATORS IN THE CRYSTALLOGRAPHIC REFERENCE FRAME
   V INV                    ROTATION MATRICES                   TRANSLATORS
   1   1  1.00  0.00  0.00  0.00  1.00  0.00 -0.00 -0.00  1.00  0.00  0.00  0.00

 DIRECT LATTICE VECTORS CARTESIAN COMPONENTS (ANGSTROM)
          X                    Y                    Z
   0.130013421718E+02  -0.752240388864E+01   0.000000000000E+00
   0.000000000000E+00   0.150443870000E+02   0.000000000000E+00
  -0.853987887564E-04  -0.259574092859E-03   0.449999999170E+01


 CARTESIAN COORDINATES - PRIMITIVE CELL
 *******************************************************************************
 *      ATOM          X(ANGSTROM)         Y(ANGSTROM)         Z(ANGSTROM)
 *******************************************************************************
    1     5 B    -4.997459676611E+00  6.322867692931E+00 -2.246984455857E+00
    2     5 B    -2.933114368235E+00  7.520924433362E+00 -2.246939500857E+00
    3     5 B    -5.003425591209E+00 -6.330619560856E+00  2.246625400858E+00
    4     5 B     2.974618658079E+00  7.521732511772E+00 -2.225406235897E+00
    5     5 B    -7.965041354711E+00 -1.200648291664E+00 -2.207208100930E+00
    6     5 B    -7.961497329427E+00  1.194453234177E+00 -2.234054380881E+00
    7     1 H    -1.242607383622E+00  5.376078141490E+00 -2.229441070889E+00
    8     1 H     1.285392149933E+00 -5.385959500814E+00  2.218400680910E+00
    9     1 H    -1.241838372666E+00 -5.387548477979E+00  2.217778330911E+00
   10     1 H     1.285365564270E+00  5.375948132429E+00 -2.231382550886E+00
   11     1 H    -5.273298538852E+00  1.595355098581E+00 -2.230833235887E+00
   12     1 H     5.307893776768E+00 -1.587311507332E+00  2.225745940896E+00
   13     1 H     4.029337905599E+00 -3.761832354103E+00  2.231626945885E+00
   14     1 H    -3.997846300733E+00  3.771343569018E+00 -2.239209490871E+00
   15     1 H    -5.278616687527E+00 -1.601276658263E+00  2.240165875870E+00
   16     1 H     5.287525393098E+00  1.588851241903E+00 -2.222558770902E+00
   17     1 H     4.021662094980E+00  3.764342761242E+00 -2.224200775899E+00
   18     1 H    -4.007197184375E+00 -3.779046887516E+00  2.244366535862E+00
   19     6 C    -1.382151605846E+00  7.517632286164E+00 -2.248064500855E+00
   20     6 C    -6.732638458172E-01  6.307471153970E+00 -2.240116825870E+00
   21     6 C     7.180169766620E-01 -6.317641063588E+00  2.231114170886E+00
   22     6 C    -6.728468756282E-01 -6.318155277336E+00  2.232631435884E+00
   23     6 C     7.182781826605E-01  6.308195455961E+00 -2.243013610864E+00
   24     6 C     1.426783020433E+00  7.517816399054E+00  2.247161350857E+00
   25     6 C    -7.194898141501E+00  2.546849426327E+00 -2.241397705867E+00
   26     6 C    -5.792401010378E+00  2.555031988849E+00 -2.239641850871E+00
   27     6 C     5.824740086308E+00 -2.548849094432E+00  2.236613710876E+00
   28     6 C     5.121129324704E+00 -3.750825320579E+00  2.241647905867E+00
   29     6 C    -5.089245398542E+00  3.755937370410E+00 -2.246110375859E+00
   30     6 C    -5.774234603528E+00  4.979294128094E+00  2.246580220858E+00
   31     6 C    -7.200090195224E+00 -2.550997850440E+00 -2.249949190852E+00
   32     6 C    -5.797991324777E+00 -2.561353768379E+00  2.247569050856E+00
   33     6 C     5.814404055098E+00  2.544621370109E+00 -2.232074380885E+00
   34     6 C     5.113612781999E+00  3.748128615274E+00 -2.234810200880E+00
   35     6 C    -5.098256458977E+00 -3.764225697959E+00 -2.248208185855E+00
   36     6 C    -5.784137300781E+00 -4.988015701475E+00 -2.242619680865E+00
   37     8 O     7.313208402572E+00 -5.654087164598E-03  2.248379860855E+00
   38     8 O    -3.618762156446E+00  6.324218276074E+00 -2.238164500873E+00
   39     8 O    -3.623938104799E+00 -6.329278566483E+00  2.241496120867E+00
   40     8 O     3.661591996191E+00 -6.327503374202E+00 -2.237504440875E+00
   41     8 O     3.658473894899E+00  6.325700685544E+00 -2.203808485937E+00
   42     8 O    -7.275026738387E+00 -4.079411821501E-03 -2.226381295895E+00

 *******************************************************************************
 STARTING BASIS SET HANDLING 
 *******************************************************************************

 Loading internal basis set: SOLDEF2MSVP         

 Please cite in your publication:
 L. Dona', J. G. Brandenburg and B. Civalleri, J. Chem. Phys., 151, 121101 (2019
 )                                                                              
                                                                                
                    

 *******************************************************************************
 LOCAL ATOMIC FUNCTIONS BASIS SET
 *******************************************************************************
   ATOM   X(AU)   Y(AU)   Z(AU)  N. TYPE  EXPONENT  S COEF   P COEF   D/F/G COEF
 *******************************************************************************
   1 B   -9.444  11.948  -4.246
                                  1 S  
                                         2.410E+03 1.755E-03 0.000E+00 0.000E+00
                                         3.619E+02 1.344E-02 0.000E+00 0.000E+00
                                         8.231E+01 6.637E-02 0.000E+00 0.000E+00
                                         2.311E+01 2.303E-01 0.000E+00 0.000E+00
                                         7.252E+00 5.150E-01 0.000E+00 0.000E+00
                                  2 S  
                                         2.367E+00 1.000E+00 0.000E+00 0.000E+00
                                  3 S  
                                         5.533E-01 1.000E+00 0.000E+00 0.000E+00
                                  4 S  
                                         1.716E-01 1.000E+00 0.000E+00 0.000E+00
                           5-     7 P  
                                         6.002E+00 0.000E+00-3.555E-02 0.000E+00
                                         1.240E+00 0.000E+00-1.983E-01 0.000E+00
                                         3.367E-01 0.000E+00-5.048E-01 0.000E+00
                           8-    10 P  
                                         1.256E-01 0.000E+00 1.000E+00 0.000E+00
                          11-    15 D  
                                         8.880E-01 0.000E+00 0.000E+00 1.000E+00
   2 B   -5.543  14.212  -4.246
   3 B   -9.455 -11.963   4.246
   4 B    5.621  14.214  -4.205
   5 B  -15.052  -2.269  -4.171
   6 B  -15.045   2.257  -4.222
   7 H   -2.348  10.159  -4.213
                                 91 S  
                                         1.874E+01 1.968E-02 0.000E+00 0.000E+00
                                         2.826E+00 1.380E-01 0.000E+00 0.000E+00
                                         6.401E-01 4.783E-01 0.000E+00 0.000E+00
                                 92 S  
                                         1.756E-01 1.000E+00 0.000E+00 0.000E+00
   8 H    2.429 -10.178   4.192
   9 H   -2.347 -10.181   4.191
  10 H    2.429  10.159  -4.217
  11 H   -9.965   3.015  -4.216
  12 H   10.030  -3.000   4.206
  13 H    7.614  -7.109   4.217
  14 H   -7.555   7.127  -4.231
  15 H   -9.975  -3.026   4.233
  16 H    9.992   3.002  -4.200
  17 H    7.600   7.114  -4.203
  18 H   -7.573  -7.141   4.241
  19 C   -2.612  14.206  -4.248
                                115 S  
                                         3.624E+03 1.634E-03 0.000E+00 0.000E+00
                                         5.440E+02 1.252E-02 0.000E+00 0.000E+00
                                         1.237E+02 6.211E-02 0.000E+00 0.000E+00
                                         3.476E+01 2.182E-01 0.000E+00 0.000E+00
                                         1.093E+01 4.980E-01 0.000E+00 0.000E+00
                                116 S  
                                         3.574E+00 1.000E+00 0.000E+00 0.000E+00
                                117 S  
                                         7.742E-01 1.000E+00 0.000E+00 0.000E+00
                                118 S  
                                         2.330E-01 1.000E+00 0.000E+00 0.000E+00
                         119-   121 P  
                                         9.443E+00 0.000E+00 3.790E-02 0.000E+00
                                         2.002E+00 0.000E+00 2.082E-01 0.000E+00
                                         5.463E-01 0.000E+00 5.047E-01 0.000E+00
                         122-   124 P  
                                         1.820E-01 0.000E+00 1.000E+00 0.000E+00
                         125-   129 D  
                                         8.880E-01 0.000E+00 0.000E+00 1.000E+00
  20 C   -1.272  11.919  -4.233
  21 C    1.357 -11.939   4.216
  22 C   -1.271 -11.940   4.219
  23 C    1.357  11.921  -4.239
  24 C    2.696  14.207   4.247
  25 C  -13.596   4.813  -4.236
  26 C  -10.946   4.828  -4.232
  27 C   11.007  -4.817   4.227
  28 C    9.678  -7.088   4.236
  29 C   -9.617   7.098  -4.245
  30 C  -10.912   9.410   4.245
  31 C  -13.606  -4.821  -4.252
  32 C  -10.957  -4.840   4.247
  33 C   10.988   4.809  -4.218
  34 C    9.663   7.083  -4.223
  35 C   -9.634  -7.113  -4.248
  36 C  -10.930  -9.426  -4.238
  37 O   13.820  -0.011   4.249
                                385 S  
                                         6.773E+03 1.727E-03 0.000E+00 0.000E+00
                                         1.017E+03 1.325E-02 0.000E+00 0.000E+00
                                         2.313E+02 6.603E-02 0.000E+00 0.000E+00
                                         6.501E+01 2.353E-01 0.000E+00 0.000E+00
                                         2.050E+01 5.498E-01 0.000E+00 0.000E+00
                                386 S  
                                         6.716E+00 1.000E+00 0.000E+00 0.000E+00
                                387 S  
                                         1.147E+00 1.000E+00 0.000E+00 0.000E+00
                                388 S  
                                         3.342E-01 1.000E+00 0.000E+00 0.000E+00
                         389-   391 P  
                                         1.769E+01 0.000E+00 4.359E-02 0.000E+00
                                         3.854E+00 0.000E+00 2.318E-01 0.000E+00
                                         1.047E+00 0.000E+00 5.146E-01 0.000E+00
                         392-   394 P  
                                         2.759E-01 0.000E+00 1.000E+00 0.000E+00
                         395-   399 D  
                                         8.000E-01 0.000E+00 0.000E+00 1.000E+00
  38 O   -6.838  11.951  -4.230
  39 O   -6.848 -11.961   4.236
  40 O    6.919 -11.957  -4.228
  41 O    6.914  11.954  -4.165
  42 O  -13.748  -0.008  -4.207

 *******************************************************************************
 FINISHED BASIS SET HANDLING 
 *******************************************************************************

 INFORMATION **** SET_MPP **** PCRYSTAL CALCULATION
 INFORMATION **** READM2 **** NEW DEFAULT: FOCK/KS MATRIX MIXING SET TO 30 %
 INFORMATION **** READM2 **** NEW DEFAULT: FULL DIRECT SCF MODE
 INFORMATION **** READM2 **** NEW DEFAULT: COULOMB BIPOLAR BUFFER SET TO 32 Mb
 INFORMATION **** READM2 **** NEW DEFAULT: EXCHANGE BIPOLAR BUFFER SET TO 32 Mb

 *******************************************************************************
 NEW DEFAULT: DFT INTEGRATION GRID INCREASED TO XLGRID
 NEW DEFAULT: DIIS ACCELERATOR ACTIVE
 USE KEYWORD NODIIS TO TURN IT OFF
 *******************************************************************************

 WARNING **** RDDFTP **** HSEsol-HJS ACTIVE
 RANGE SEPARATION - OMEGA:   0.110000000000000     
 WARNING **** RDDFTP **** HSEsol-3c has to be combined with sol-def2-mSVP basis set
 *******************************************************************************
 N. OF ATOMS PER CELL        42  COULOMB OVERLAP TOL         (T1) 10**   -6
 NUMBER OF SHELLS           234  COULOMB PENETRATION TOL     (T2) 10**   -6
 NUMBER OF AO               474  EXCHANGE OVERLAP TOL        (T3) 10**   -6
 N. OF ELECTRONS PER CELL   198  EXCHANGE PSEUDO OVP (F(G))  (T4) 10**   -6
 CORE ELECTRONS PER CELL     60  EXCHANGE PSEUDO OVP (P(G))  (T5) 10**  -12
 N. OF SYMMETRY OPERATORS     1  POLE ORDER IN MONO ZONE                  4
 *******************************************************************************
 TYPE OF CALCULATION :  RESTRICTED CLOSED SHELL
 KOHN-SHAM HAMILTONIAN

 (EXCHANGE)[CORRELATION] FUNCTIONAL:(HSEsol GGA)[PBEsol]

 RANGE-SEPARATED HYBRID FUNCTIONAL 
 OMEGA (SHORT-RANGE)[LONG-RANGE]:(    0.1100)[    0.0000]

 HYBRID EXCHANGE - PERCENTAGE OF FOCK EXCHANGE    25.0000

 CAPPA:IS1  2;IS2  2;IS3  8; K PTS MONK NET  20; SYMMOPS:K SPACE   2;G SPACE   1

 *******************************************************************************
 MAX NUMBER OF SCF CYCLES      50  CONVERGENCE ON DELTAP        10**-16
 WEIGHT OF F(I) IN F(I+1)      30% CONVERGENCE ON ENERGY        10**- 6
 SHRINK. FACT.(MONKH.)    2  2  8  NUMBER OF K POINTS IN THE IBZ     20
 SHRINKING FACTOR(GILAT NET)    8  NUMBER OF K POINTS(GILAT NET)   1028
 *******************************************************************************
 *** K POINTS COORDINATES (OBLIQUE COORDINATES IN UNITS OF IS =  2)
   1-R(  0  0  0)   2-R(  1  0  0)   3-R(  0  1  0)   4-R(  1  1  0)
   5-C(  0  0  1)   6-C(  1  0  1)   7-C(  0  1  1)   8-C(  1  1  1)
   9-C(  0  0  2)  10-C(  1  0  2)  11-C(  0  1  2)  12-C(  1  1  2)
  13-C(  0  0  3)  14-C(  1  0  3)  15-C(  0  1  3)  16-C(  1  1  3)
  17-R(  0  0  4)  18-R(  1  0  4)  19-R(  0  1  4)  20-R(  1  1  4)

 DIRECT LATTICE VECTORS COMPON. (A.U.)     RECIP. LATTICE VECTORS COMPON. (A.U.) 
        X            Y            Z              X            Y            Z
   24.5689761  -14.2152832    0.0000000      0.2557366    0.0000000    0.0000049
    0.0000000   28.4297713    0.0000000      0.1278719    0.2210072    0.0000152
   -0.0001614   -0.0004905    8.5037676      0.0000000    0.0000000    0.7388708

 DISK SPACE FOR EIGENVECTORS (FTN 10)     7189632 REALS

 SYMMETRY ADAPTION OF THE BLOCH FUNCTIONS DISABLED
 TTTTTTTTTTTTTTTTTTTTTTTTTTTTTT gordsh1     TELAPSE        0.04 TCPU        0.04

 MATRIX SIZE: P(G)  299084, F(G)   61034, P(G) IRR  151039, F(G) IRR   61730
 MAX G-VECTOR INDEX FOR 1- AND 2-ELECTRON INTEGRALS 107

 TTTTTTTTTTTTTTTTTTTTTTTTTTTTTT INPUT       TELAPSE        0.29 TCPU        0.29

 NEIGHBORS OF THE NON-EQUIVALENT ATOMS

 N = NUMBER OF NEIGHBORS AT DISTANCE R
    ATOM  N     R/ANG      R/AU   NEIGHBORS (ATOM LABELS AND CELL INDICES)
   1 B    1     1.3787     2.6054   38 O    0 0 0
   1 B    1     1.3795     2.6068   37 O   -1 0-1
   1 B    1     1.5517     2.9323   30 C    0 0-1
   1 B    1     2.3868     4.5104    2 B    0 0 0
   1 B    1     2.3912     4.5187    3 B    0 1-1
   1 B    1     2.5629     4.8432   27 C   -1 0-1

   2 B    1     1.3792     2.6064   38 O    0 0 0
   2 B    1     1.3798     2.6075   39 O    0 1-1
   2 B    1     1.5510     2.9309   19 C    0 0 0
   2 B    1     2.3868     4.5104    1 B    0 0 0
   2 B    1     2.3894     4.5154    3 B    0 1-1
   2 B    1     2.5618     4.8412   22 C    0 1-1

   3 B    1     1.3790     2.6060   37 O   -1-1 0
   3 B    1     1.3795     2.6069   39 O    0 0 0
   3 B    1     1.5529     2.9346   36 C    0 0 1
   3 B    1     2.3894     4.5154    2 B    0-1 1
   3 B    1     2.3912     4.5187    1 B    0-1 1
   3 B    1     2.5679     4.8526   35 C    0 0 1

   4 B    1     1.3779     2.6039   41 O    0 0 0
   4 B    1     1.3786     2.6051   40 O    0 1 0
   4 B    1     1.5480     2.9253   24 C    0 0-1
   4 B    1     2.3858     4.5084    5 B    1 1 0
   4 B    1     2.3859     4.5087    6 B    1 1 0
   4 B    1     2.5586     4.8351   21 C    0 1-1

   5 B    1     1.3778     2.6037   41 O   -1-1 0
   5 B    1     1.3814     2.6105   42 O    0 0 0
   5 B    1     1.5526     2.9339   31 C    0 0 0
   5 B    1     2.3858     4.5084    4 B   -1-1 0
   5 B    1     2.3953     4.5264    6 B    0 0 0
   5 B    1     2.5592     4.8361   32 C    0 0-1

   6 B    1     1.3783     2.6045   40 O   -1 0 0
   6 B    1     1.3812     2.6101   42 O    0 0 0
   6 B    1     1.5546     2.9377   25 C    0 0 0
   6 B    1     2.3859     4.5087    4 B   -1-1 0
   6 B    1     2.3953     4.5264    5 B    0 0 0
   6 B    1     2.5605     4.8387   26 C    0 0 0

   7 H    1     1.0917     2.0630   20 C    0 0 0
   7 H    1     2.1462     4.0557   19 C    0 0 0
   7 H    1     2.1712     4.1030   23 C    0 0 0
   7 H    1     2.5280     4.7772   10 H    0 0 0
   7 H    1     2.5584     4.8346   38 O    0 0 0
   7 H    1     2.7310     5.1609    2 B    0 0 0

   8 H    1     1.0909     2.0615   21 C    0 0 0
   8 H    1     2.1455     4.0543   24 C    0-1 0
   8 H    1     2.1688     4.0985   22 C    0 0 0
   8 H    1     2.5272     4.7758    9 H    0 0 0
   8 H    1     2.5563     4.8308   40 O    0 0 1
   8 H    1     2.7245     5.1486    4 B    0-1 1

   9 H    1     1.0909     2.0614   22 C    0 0 0
   9 H    1     2.1443     4.0522   19 C    0-1 1
   9 H    1     2.1694     4.0996   21 C    0 0 0
   9 H    1     2.5272     4.7758    8 H    0 0 0
   9 H    1     2.5616     4.8407   39 O    0 0 0
   9 H    1     2.7249     5.1494    2 B    0-1 1

  10 H    1     1.0912     2.0621   23 C    0 0 0
  10 H    1     2.1469     4.0571   24 C    0 0-1
  10 H    1     2.1689     4.0986   20 C    0 0 0
  10 H    1     2.5280     4.7772    7 H    0 0 0
  10 H    1     2.5563     4.8306   41 O    0 0 0
  10 H    1     2.7309     5.1607    4 B    0 0 0

  11 H    1     1.0911     2.0619   26 C    0 0 0
  11 H    1     2.1443     4.0521   25 C    0 0 0
  11 H    1     2.1685     4.0978   29 C    0 0 0
  11 H    1     2.5223     4.7664   14 H    0 0 0
  11 H    1     2.5623     4.8420   42 O    0 0 0
  11 H    1     2.7179     5.1361    6 B    0 0 0

  12 H    1     1.0917     2.0630   27 C    0 0 0
  12 H    1     2.1441     4.0519   30 C    1 0 0
  12 H    1     2.1716     4.1038   28 C    0 0 0
  12 H    1     2.5226     4.7669   13 H    0 0 0
  12 H    1     2.5541     4.8266   37 O    0 0 0
  12 H    1     2.7237     5.1471    1 B    1 0 1

  13 H    1     1.0919     2.0634   28 C    0 0 0
  13 H    1     2.1523     4.0672   25 C    1 0 1
  13 H    1     2.1668     4.0946   27 C    0 0 0
  13 H    1     2.5226     4.7669   12 H    0 0 0
  13 H    1     2.5923     4.8988   40 O    0 0 1
  13 H    1     2.7583     5.2125    6 B    1 0 1

  14 H    1     1.0915     2.0627   29 C    0 0 0
  14 H    1     2.1483     4.0597   30 C    0 0-1
  14 H    1     2.1679     4.0968   26 C    0 0 0
  14 H    1     2.5223     4.7664   11 H    0 0 0
  14 H    1     2.5809     4.8771   38 O    0 0 0
  14 H    1     2.7404     5.1785    1 B    0 0 0

  15 H    1     1.0916     2.0628   32 C    0 0 0
  15 H    1     2.1436     4.0508   31 C    0 0 1
  15 H    1     2.1707     4.1021   35 C    0 0 1
  15 H    1     2.5217     4.7654   18 H    0 0 0
  15 H    1     2.5568     4.8317   42 O    0 0 1
  15 H    1     2.7167     5.1338    5 B    0 0 1

  16 H    1     1.0914     2.0625   33 C    0 0 0
  16 H    1     2.1488     4.0606   36 C    1 1 0
  16 H    1     2.1663     4.0937   34 C    0 0 0
  16 H    1     2.5170     4.7564   17 H    0 0 0
  16 H    1     2.5780     4.8718   37 O    0 0-1
  16 H    1     2.7396     5.1771    3 B    1 1-1

  17 H    1     1.0921     2.0638   34 C    0 0 0
  17 H    1     2.1503     4.0634   31 C    1 1 0
  17 H    1     2.1683     4.0976   33 C    0 0 0
  17 H    1     2.5170     4.7564   16 H    0 0 0
  17 H    1     2.5871     4.8888   41 O    0 0 0
  17 H    1     2.7510     5.1986    5 B    1 1 0

  18 H    1     1.0913     2.0622   35 C    0 0 1
  18 H    1     2.1495     4.0619   36 C    0 0 1
  18 H    1     2.1656     4.0924   32 C    0 0 0
  18 H    1     2.5217     4.7654   15 H    0 0 0
  18 H    1     2.5789     4.8734   39 O    0 0 0
  18 H    1     2.7392     5.1763    3 B    0 0 0

  19 C    1     1.4018     2.6490   22 C    0 1-1
  19 C    1     1.4025     2.6504   20 C    0 0 0
  19 C    1     1.5510     2.9309    2 B    0 0 0
  19 C    1     2.1443     4.0522    9 H    0 1-1
  19 C    1     2.1462     4.0557    7 H    0 0 0
  19 C    1     2.4237     4.5800   21 C    0 1-1

  20 C    1     1.0917     2.0630    7 H    0 0 0
  20 C    1     1.3915     2.6296   23 C    0 0 0
  20 C    1     1.4025     2.6504   19 C    0 0 0
  20 C    1     2.1689     4.0986   10 H    0 0 0
  20 C    1     2.4192     4.5716   22 C    0 1-1
  20 C    1     2.4241     4.5809   24 C    0 0-1

  21 C    1     1.0909     2.0615    8 H    0 0 0
  21 C    1     1.3909     2.6284   22 C    0 0 0
  21 C    1     1.4015     2.6484   24 C    0-1 0
  21 C    1     2.1694     4.0996    9 H    0 0 0
  21 C    1     2.4189     4.5712   23 C    0-1 1
  21 C    1     2.4237     4.5800   19 C    0-1 1

  22 C    1     1.0909     2.0614    9 H    0 0 0
  22 C    1     1.3909     2.6284   21 C    0 0 0
  22 C    1     1.4018     2.6490   19 C    0-1 1
  22 C    1     2.1688     4.0985    8 H    0 0 0
  22 C    1     2.4192     4.5716   20 C    0-1 1
  22 C    1     2.4226     4.5780   24 C    0-1 0

  23 C    1     1.0912     2.0621   10 H    0 0 0
  23 C    1     1.3915     2.6296   20 C    0 0 0
  23 C    1     1.4021     2.6497   24 C    0 0-1
  23 C    1     2.1712     4.1030    7 H    0 0 0
  23 C    1     2.4189     4.5712   21 C    0 1-1
  23 C    1     2.4238     4.5802   19 C    0 0 0

  24 C    1     1.4015     2.6484   21 C    0 1 0
  24 C    1     1.4021     2.6497   23 C    0 0 1
  24 C    1     1.5480     2.9253    4 B    0 0 1
  24 C    1     2.1455     4.0543    8 H    0 1 0
  24 C    1     2.1469     4.0571   10 H    0 0 1
  24 C    1     2.4226     4.5780   22 C    0 1 0

  25 C    1     1.4025     2.6504   26 C    0 0 0
  25 C    1     1.4037     2.6526   28 C   -1 0-1
  25 C    1     1.5546     2.9377    6 B    0 0 0
  25 C    1     2.1443     4.0521   11 H    0 0 0
  25 C    1     2.1523     4.0672   13 H   -1 0-1
  25 C    1     2.4271     4.5866   27 C   -1 0-1

  26 C    1     1.0911     2.0619   11 H    0 0 0
  26 C    1     1.3916     2.6298   29 C    0 0 0
  26 C    1     1.4025     2.6504   25 C    0 0 0
  26 C    1     2.1679     4.0968   14 H    0 0 0
  26 C    1     2.4165     4.5666   28 C   -1 0-1
  26 C    1     2.4246     4.5819   30 C    0 0-1

  27 C    1     1.0917     2.0630   12 H    0 0 0
  27 C    1     1.3928     2.6320   28 C    0 0 0
  27 C    1     1.4024     2.6502   30 C    1 0 0
  27 C    1     2.1668     4.0946   13 H    0 0 0
  27 C    1     2.4167     4.5668   29 C    1 0 1
  27 C    1     2.4271     4.5866   25 C    1 0 1

  28 C    1     1.0919     2.0634   13 H    0 0 0
  28 C    1     1.3928     2.6320   27 C    0 0 0
  28 C    1     1.4037     2.6526   25 C    1 0 1
  28 C    1     2.1716     4.1038   12 H    0 0 0
  28 C    1     2.4165     4.5666   26 C    1 0 1
  28 C    1     2.4277     4.5877   30 C    1 0 0

  29 C    1     1.0915     2.0627   14 H    0 0 0
  29 C    1     1.3916     2.6298   26 C    0 0 0
  29 C    1     1.4023     2.6499   30 C    0 0-1
  29 C    1     2.1685     4.0978   11 H    0 0 0
  29 C    1     2.4167     4.5668   27 C   -1 0-1
  29 C    1     2.4281     4.5885   25 C    0 0 0

  30 C    1     1.4023     2.6499   29 C    0 0 1
  30 C    1     1.4024     2.6502   27 C   -1 0 0
  30 C    1     1.5517     2.9323    1 B    0 0 1
  30 C    1     2.1441     4.0519   12 H   -1 0 0
  30 C    1     2.1483     4.0597   14 H    0 0 1
  30 C    1     2.4246     4.5819   26 C    0 0 1

  31 C    1     1.4022     2.6498   32 C    0 0-1
  31 C    1     1.4030     2.6513   34 C   -1-1 0
  31 C    1     1.5526     2.9339    5 B    0 0 0
  31 C    1     2.1436     4.0508   15 H    0 0-1
  31 C    1     2.1503     4.0634   17 H   -1-1 0
  31 C    1     2.4265     4.5854   33 C   -1-1 0

  32 C    1     1.0916     2.0628   15 H    0 0 0
  32 C    1     1.3918     2.6301   35 C    0 0 1
  32 C    1     1.4022     2.6498   31 C    0 0 1
  32 C    1     2.1656     4.0924   18 H    0 0 0
  32 C    1     2.4163     4.5661   34 C   -1-1 1
  32 C    1     2.4270     4.5863   36 C    0 0 1

  33 C    1     1.0914     2.0625   16 H    0 0 0
  33 C    1     1.3927     2.6318   34 C    0 0 0
  33 C    1     1.4029     2.6511   36 C    1 1 0
  33 C    1     2.1683     4.0976   17 H    0 0 0
  33 C    1     2.4155     4.5646   35 C    1 1 0
  33 C    1     2.4265     4.5854   31 C    1 1 0

  34 C    1     1.0921     2.0638   17 H    0 0 0
  34 C    1     1.3927     2.6318   33 C    0 0 0
  34 C    1     1.4030     2.6513   31 C    1 1 0
  34 C    1     2.1663     4.0937   16 H    0 0 0
  34 C    1     2.4163     4.5661   32 C    1 1-1
  34 C    1     2.4289     4.5899   36 C    1 1 0

  35 C    1     1.0913     2.0622   18 H    0 0-1
  35 C    1     1.3918     2.6301   32 C    0 0-1
  35 C    1     1.4029     2.6511   36 C    0 0 0
  35 C    1     2.1707     4.1021   15 H    0 0-1
  35 C    1     2.4155     4.5646   33 C   -1-1 0
  35 C    1     2.4269     4.5861   31 C    0 0 0

  36 C    1     1.4029     2.6511   33 C   -1-1 0
  36 C    1     1.4029     2.6511   35 C    0 0 0
  36 C    1     1.5529     2.9346    3 B    0 0-1
  36 C    1     2.1488     4.0606   16 H   -1-1 0
  36 C    1     2.1495     4.0619   18 H    0 0-1
  36 C    1     2.4270     4.5863   32 C    0 0-1

  37 O    1     1.3790     2.6060    3 B    1 1 0
  37 O    1     1.3795     2.6068    1 B    1 0 1
  37 O    1     2.3868     4.5105   39 O    1 1 0
  37 O    1     2.3885     4.5136   38 O    1 0 1
  37 O    1     2.5389     4.7979   30 C    1 0 0
  37 O    1     2.5412     4.8022   36 C    1 1 1

  38 O    1     1.3787     2.6054    1 B    0 0 0
  38 O    1     1.3792     2.6064    2 B    0 0 0
  38 O    1     2.3885     4.5136   37 O   -1 0-1
  38 O    1     2.3912     4.5188   39 O    0 1-1
  38 O    1     2.5351     4.7907   19 C    0 0 0
  38 O    1     2.5405     4.8008   30 C    0 0-1

  39 O    1     1.3795     2.6069    3 B    0 0 0
  39 O    1     1.3798     2.6075    2 B    0-1 1
  39 O    1     2.3868     4.5105   37 O   -1-1 0
  39 O    1     2.3912     4.5188   38 O    0-1 1
  39 O    1     2.5416     4.8030   19 C    0-1 1
  39 O    1     2.5427     4.8050   36 C    0 0 1

  40 O    1     1.3783     2.6045    6 B    1 0 0
  40 O    1     1.3786     2.6051    4 B    0-1 0
  40 O    1     2.3876     4.5120   42 O    1 0 0
  40 O    1     2.3914     4.5191   41 O    0-1 0
  40 O    1     2.5354     4.7912   25 C    1 0 0
  40 O    1     2.5360     4.7924   24 C    0-1-1

  41 O    1     1.3778     2.6037    5 B    1 1 0
  41 O    1     1.3779     2.6039    4 B    0 0 0
  41 O    1     2.3870     4.5108   42 O    1 1 0
  41 O    1     2.3914     4.5191   40 O    0 1 0
  41 O    1     2.5307     4.7822   24 C    0 0-1
  41 O    1     2.5355     4.7914   31 C    1 1 0

  42 O    1     1.3812     2.6101    6 B    0 0 0
  42 O    1     1.3814     2.6105    5 B    0 0 0
  42 O    1     2.3870     4.5108   41 O   -1-1 0
  42 O    1     2.3876     4.5120   40 O   -1 0 0
  42 O    1     2.5481     4.8153   31 C    0 0 0
  42 O    1     2.5522     4.8230   25 C    0 0 0


 SYMMETRY ALLOWED INTERNAL DEGREE(S) OF FREEDOM: 123
 TTTTTTTTTTTTTTTTTTTTTTTTTTTTTT SYMM        TELAPSE        0.30 TCPU        0.29
 TTTTTTTTTTTTTTTTTTTTTTTTTTTTTT INT_SCREEN  TELAPSE        0.33 TCPU        0.33

 DFT PARAMETERS

     ATOM       ELECTRONS   NET CHARGE   R(ANGSTROM)
   1   5  B       5.0000      0.0000     0.89000000
   7   1  H       1.0000      0.0000     1.11000000
  19   6  C       6.0000      0.0000     0.77000000
  37   8  O       8.0000      0.0000     0.74000000

 SIZE OF GRID=    1335434
 TTTTTTTTTTTTTTTTTTTTTTTTTTTTTT MAKE_GRID2  TELAPSE        8.59 TCPU        8.58
 BECKE WEIGHT FUNCTION
 RADSAFE =     2.00
 TOLERANCES - DENSITY:10**- 6; POTENTIAL:10**- 9; GRID WGT:10**-14

 RADIAL INTEGRATION  - INTERVALS (POINTS,UPPER LIMIT):            1( 75,  4.0*R)

 ANGULAR INTEGRATION - INTERVALS (ACCURACY LEVEL [N. POINTS] UPPER LIMIT):
  1(  4[  86]   0.2)  2(  8[ 194]   0.5)  3( 12[ 350]   0.9)  4( 16[ 974]   3.5)
  5( 12[ 350]9999.0)
 TTTTTTTTTTTTTTTTTTTTTTTTTTTTTT INT_CALC    TELAPSE        8.67 TCPU        8.66
 EEEEEEEEEE INT_CALC TERMINATION  DATE 02 12 2025 TIME 08:06:37.5

 *******************************************************************************
 COF-5_z45_inc_L000                                                              
 CRYSTAL - SCF - TYPE OF CALCULATION :  RESTRICTED CLOSED SHELL
 *******************************************************************************

 CAPPA:IS1  2;IS2  2;IS3  8; K PTS MONK NET  20; SYMMOPS:K SPACE   2;G SPACE   1

 TTTTTTTTTTTTTTTTTTTTTTTTTTTTTT SDIK        TELAPSE        9.37 TCPU       16.21

 AAAAAAAAAAAAAAAAAAAAAAAAAAAAAAAAAAAAAAAAAAAAAAAAAAAAAAAAAAAAAAAAAAAAAAAAAAAAAAA
         ATOMIC WAVEFUNCTION(S)


 NUCLEAR CHARGE  5.0  SYMMETRY SPECIES            S    P
 N. ELECTRONS    5.0  NUMBER OF PRIMITIVE GTOS    8    4
                      NUMBER OF CONTRACTED GTOS   4    2
                      NUMBER OF CLOSED SHELLS     2    0
                      OPEN SHELL OCCUPATION       0    1

  ZNUC  SCFIT    TOTAL HF ENERGY   KINETIC ENERGY   VIRIAL THEOREM ACCURACY
   5.0    11    -2.451164084E+01  2.462155050E+01 -1.995536038E+00  1.5E-06

 NUCLEAR CHARGE  1.0  SYMMETRY SPECIES            S
 N. ELECTRONS    1.0  NUMBER OF PRIMITIVE GTOS    4
                      NUMBER OF CONTRACTED GTOS   2
                      NUMBER OF CLOSED SHELLS     0
                      OPEN SHELL OCCUPATION       1

  ZNUC  SCFIT    TOTAL HF ENERGY   KINETIC ENERGY   VIRIAL THEOREM ACCURACY
   1.0     1    -4.977266687E-01  5.190767460E-01 -1.958869132E+00  0.0E+00

 NUCLEAR CHARGE  6.0  SYMMETRY SPECIES            S    P
 N. ELECTRONS    6.0  NUMBER OF PRIMITIVE GTOS    8    4
                      NUMBER OF CONTRACTED GTOS   4    2
                      NUMBER OF CLOSED SHELLS     2    0
                      OPEN SHELL OCCUPATION       0    2

  ZNUC  SCFIT    TOTAL HF ENERGY   KINETIC ENERGY   VIRIAL THEOREM ACCURACY
   6.0     9    -3.766704647E+01  3.775180683E+01 -1.997754800E+00  1.1E-06

 NUCLEAR CHARGE  8.0  SYMMETRY SPECIES            S    P
 N. ELECTRONS    8.0  NUMBER OF PRIMITIVE GTOS    8    4
                      NUMBER OF CONTRACTED GTOS   4    2
                      NUMBER OF CLOSED SHELLS     2    0
                      OPEN SHELL OCCUPATION       0    4

  ZNUC  SCFIT    TOTAL HF ENERGY   KINETIC ENERGY   VIRIAL THEOREM ACCURACY
   8.0    12    -7.477373220E+01  7.477365593E+01 -2.000001020E+00  3.8E-06

 AAAAAAAAAAAAAAAAAAAAAAAAAAAAAAAAAAAAAAAAAAAAAAAAAAAAAAAAAAAAAAAAAAAAAAAAAAAAAAA

 CHARGE NORMALIZATION FACTOR   1.00000000
 TOTAL ATOMIC CHARGES:
   5.0000000   5.0000000   5.0000000   5.0000000   5.0000000   5.0000000
   1.0000000   1.0000000   1.0000000   1.0000000   1.0000000   1.0000000
   1.0000000   1.0000000   1.0000000   1.0000000   1.0000000   1.0000000
   6.0000000   6.0000000   6.0000000   6.0000000   6.0000000   6.0000000
   6.0000000   6.0000000   6.0000000   6.0000000   6.0000000   6.0000000
   6.0000000   6.0000000   6.0000000   6.0000000   6.0000000   6.0000000
   8.0000000   8.0000000   8.0000000   8.0000000   8.0000000   8.0000000
 TTTTTTTTTTTTTTTTTTTTTTTTTTTTTT MOQGAD      TELAPSE        9.41 TCPU       17.40
 TTTTTTTTTTTTTTTTTTTTTTTTTTTTTT SHELLXN     TELAPSE       14.85 TCPU      188.56
 TTTTTTTTTTTTTTTTTTTTTTTTTTTTTT MONMO3      TELAPSE       14.98 TCPU      192.83
 NUMERICALLY INTEGRATED DENSITY    197.9999678712
 TTTTTTTTTTTTTTTTTTTTTTTTTTTTTT NUMDFT      TELAPSE       15.47 TCPU      208.53
 CYC   0 ETOT(AU) -1.295945583720E+03 DETOT -1.30E+03 tst  0.00E+00 PX  1.00E+00
 TTTTTTTTTTTTTTTTTTTTTTTTTTTTTT DIIS        TELAPSE       15.51 TCPU      209.60
 TTTTTTTTTTTTTTTTTTTTTTTTTTTTTT FDIK        TELAPSE       16.00 TCPU      225.45
 INSULATING STATE
 TOP OF VALENCE BANDS -    BAND     99; K    1; EIG -3.1148106E-01 AU
 BOTTOM OF VIRTUAL BANDS - BAND    100; K   17; EIG -1.6098032E-01 AU
 INDIRECT ENERGY BAND GAP:   4.0953 eV
 BOTTOM OF VIRTUAL BANDS - BAND    100; K    1; EIG -1.5013978E-01 AU
 TTTTTTTTTTTTTTTTTTTTTTTTTTTTTT PDIG        TELAPSE       16.28 TCPU      231.59
 CHARGE NORMALIZATION FACTOR   1.00000000
 TOTAL ATOMIC CHARGES:
   4.1613487   4.1605248   4.1616348   4.1633949   4.1605371   4.1602510
   0.7852001   0.7851641   0.7852971   0.7853317   0.7851410   0.7850438
   0.7860067   0.7855771   0.7849125   0.7854988   0.7854929   0.7857402
   6.0447348   6.2653660   6.2654376   6.2663929   6.2651026   6.0468969
   6.0411711   6.2667173   6.2648851   6.2673254   6.2671420   6.0445686
   6.0438412   6.2654519   6.2663306   6.2658962   6.2675304   6.0414262
   8.6923358   8.6915333   8.6920566   8.6911759   8.6908554   8.6937291
 TTTTTTTTTTTTTTTTTTTTTTTTTTTTTT MOQGAD      TELAPSE       16.32 TCPU      231.63
 TTTTTTTTTTTTTTTTTTTTTTTTTTTTTT SHELLXN     TELAPSE       21.92 TCPU      409.90
 TTTTTTTTTTTTTTTTTTTTTTTTTTTTTT MONMO3      TELAPSE       22.05 TCPU      414.24
 NUMERICALLY INTEGRATED DENSITY    197.9999811539
 TTTTTTTTTTTTTTTTTTTTTTTTTTTTTT NUMDFT      TELAPSE       22.55 TCPU      430.27
 CYC   1 ETOT(AU) -1.288804112458E+03 DETOT  7.14E+00 tst  0.00E+00 PX  1.00E+00
 TTTTTTTTTTTTTTTTTTTTTTTTTTTTTT DIIS        TELAPSE       22.60 TCPU      431.86
 DIIS TEST: 0.11228E+01 AT SCF   CYCLE   1 - MIX   30 %
 TTTTTTTTTTTTTTTTTTTTTTTTTTTTTT FDIK        TELAPSE       23.10 TCPU      447.78
 INSULATING STATE
 TOP OF VALENCE BANDS -    BAND     99; K    1; EIG -2.1805755E-01 AU
 BOTTOM OF VIRTUAL BANDS - BAND    100; K   17; EIG -8.3914527E-02 AU
 INDIRECT ENERGY BAND GAP:   3.6502 eV
 BOTTOM OF VIRTUAL BANDS - BAND    100; K    1; EIG -6.9218068E-02 AU
 TTTTTTTTTTTTTTTTTTTTTTTTTTTTTT PDIG        TELAPSE       23.38 TCPU      453.92
 CHARGE NORMALIZATION FACTOR   1.00000000
 TOTAL ATOMIC CHARGES:
   4.7174552   4.7172519   4.7177473   4.7179328   4.7169767   4.7174943
   0.9164517   0.9168427   0.9169235   0.9167662   0.9164943   0.9160029
   0.9170190   0.9172828   0.9161488   0.9165369   0.9166790   0.9169538
   5.8627999   6.1280233   6.1262154   6.1261163   6.1275934   5.8584555
   5.8668665   6.1229712   6.1247342   6.1288789   6.1259094   5.8611931
   5.8638947   6.1230737   6.1255688   6.1273626   6.1254090   5.8652494
   8.3344446   8.3332552   8.3347939   8.3321379   8.3314555   8.3386379
 TTTTTTTTTTTTTTTTTTTTTTTTTTTTTT MOQGAD      TELAPSE       23.42 TCPU      453.96
 TTTTTTTTTTTTTTTTTTTTTTTTTTTTTT SHELLXN     TELAPSE       29.01 TCPU      632.00
 TTTTTTTTTTTTTTTTTTTTTTTTTTTTTT MONMO3      TELAPSE       29.15 TCPU      636.26
 NUMERICALLY INTEGRATED DENSITY    197.9999725861
 TTTTTTTTTTTTTTTTTTTTTTTTTTTTTT NUMDFT      TELAPSE       29.64 TCPU      652.12
 CYC   2 ETOT(AU) -1.288999672824E+03 DETOT -1.96E-01 tst  4.53E-03 PX  1.58E-01
 TTTTTTTTTTTTTTTTTTTTTTTTTTTTTT DIIS        TELAPSE       29.69 TCPU      653.58
 DIIS TEST: 0.47587E+00 AT SCF   CYCLE   2 - DIIS ACTIVE - HISTORY:     2 CYCLES
 TTTTTTTTTTTTTTTTTTTTTTTTTTTTTT FDIK        TELAPSE       30.19 TCPU      669.59
 INSULATING STATE
 TOP OF VALENCE BANDS -    BAND     99; K    1; EIG -2.3299262E-01 AU
 BOTTOM OF VIRTUAL BANDS - BAND    100; K   17; EIG -7.9448811E-02 AU
 INDIRECT ENERGY BAND GAP:   4.1781 eV
 BOTTOM OF VIRTUAL BANDS - BAND    100; K    1; EIG -6.3746430E-02 AU
 TTTTTTTTTTTTTTTTTTTTTTTTTTTTTT PDIG        TELAPSE       30.46 TCPU      675.72
 CHARGE NORMALIZATION FACTOR   1.00000000
 TOTAL ATOMIC CHARGES:
   4.5062551   4.5054792   4.5061446   4.5074961   4.5053384   4.5051558
   0.8910964   0.8908684   0.8910310   0.8911775   0.8903868   0.8901573
   0.8918943   0.8912430   0.8899218   0.8910157   0.8913755   0.8910826
   5.8865802   6.1582317   6.1591012   6.1585344   6.1590039   5.8891255
   5.8860295   6.1575617   6.1582989   6.1603608   6.1608793   5.8884340
   5.8881468   6.1578101   6.1587046   6.1600283   6.1599168   5.8866382
   8.5068325   8.5062230   8.5067955   8.5055701   8.5052560   8.5088173
 TTTTTTTTTTTTTTTTTTTTTTTTTTTTTT MOQGAD      TELAPSE       30.51 TCPU      675.76
 TTTTTTTTTTTTTTTTTTTTTTTTTTTTTT SHELLXN     TELAPSE       36.10 TCPU      854.04
 TTTTTTTTTTTTTTTTTTTTTTTTTTTTTT MONMO3      TELAPSE       36.23 TCPU      858.31
 NUMERICALLY INTEGRATED DENSITY    197.9999737627
 TTTTTTTTTTTTTTTTTTTTTTTTTTTTTT NUMDFT      TELAPSE       36.73 TCPU      874.29
 CYC   3 ETOT(AU) -1.289098931359E+03 DETOT -9.93E-02 tst  7.35E-04 PX  6.11E-02
 TTTTTTTTTTTTTTTTTTTTTTTTTTTTTT DIIS        TELAPSE       36.80 TCPU      876.50
 DIIS TEST: 0.11112E-01 AT SCF   CYCLE   3 - DIIS ACTIVE - HISTORY:     3 CYCLES
 TTTTTTTTTTTTTTTTTTTTTTTTTTTTTT FDIK        TELAPSE       37.31 TCPU      892.76
 INSULATING STATE
 TOP OF VALENCE BANDS -    BAND     99; K    1; EIG -2.4304751E-01 AU
 BOTTOM OF VIRTUAL BANDS - BAND    100; K   17; EIG -8.8617242E-02 AU
 INDIRECT ENERGY BAND GAP:   4.2023 eV
 BOTTOM OF VIRTUAL BANDS - BAND    100; K    1; EIG -7.3650732E-02 AU
 TTTTTTTTTTTTTTTTTTTTTTTTTTTTTT PDIG        TELAPSE       37.59 TCPU      898.89
 CHARGE NORMALIZATION FACTOR   1.00000000
 TOTAL ATOMIC CHARGES:
   4.5125141   4.5121644   4.5127045   4.5136941   4.5116742   4.5119377
   0.8738270   0.8742386   0.8740942   0.8742534   0.8735848   0.8734679
   0.8747399   0.8747723   0.8733528   0.8740823   0.8744523   0.8744127
   5.9409420   6.1628783   6.1609306   6.1623680   6.1615348   5.9371281
   5.9418931   6.1609598   6.1603917   6.1637439   6.1612021   5.9377878
   5.9399958   6.1602146   6.1615051   6.1617150   6.1619016   5.9402956
   8.4767788   8.4756261   8.4770275   8.4748950   8.4741767   8.4801409
 TTTTTTTTTTTTTTTTTTTTTTTTTTTTTT MOQGAD      TELAPSE       37.64 TCPU      898.94
 TTTTTTTTTTTTTTTTTTTTTTTTTTTTTT SHELLXN     TELAPSE       43.24 TCPU     1077.56
 TTTTTTTTTTTTTTTTTTTTTTTTTTTTTT MONMO3      TELAPSE       43.37 TCPU     1081.85
 NUMERICALLY INTEGRATED DENSITY    197.9999742576
 TTTTTTTTTTTTTTTTTTTTTTTTTTTTTT NUMDFT      TELAPSE       43.87 TCPU     1097.75
 CYC   4 ETOT(AU) -1.289101206722E+03 DETOT -2.28E-03 tst  2.86E-05 PX  1.19E-02
 TTTTTTTTTTTTTTTTTTTTTTTTTTTTTT DIIS        TELAPSE       43.93 TCPU     1099.77
 DIIS TEST: 0.39150E-02 AT SCF   CYCLE   4 - DIIS ACTIVE - HISTORY:     4 CYCLES
 TTTTTTTTTTTTTTTTTTTTTTTTTTTTTT FDIK        TELAPSE       44.43 TCPU     1115.63
 INSULATING STATE
 TOP OF VALENCE BANDS -    BAND     99; K    1; EIG -2.4120717E-01 AU
 BOTTOM OF VIRTUAL BANDS - BAND    100; K   17; EIG -8.7787373E-02 AU
 INDIRECT ENERGY BAND GAP:   4.1748 eV
 BOTTOM OF VIRTUAL BANDS - BAND    100; K    1; EIG -7.2643861E-02 AU
 TTTTTTTTTTTTTTTTTTTTTTTTTTTTTT PDIG        TELAPSE       44.71 TCPU     1121.76
 CHARGE NORMALIZATION FACTOR   1.00000000
 TOTAL ATOMIC CHARGES:
   4.5141827   4.5135363   4.5142080   4.5152753   4.5133255   4.5133798
   0.8775995   0.8775062   0.8776885   0.8776934   0.8771687   0.8768352
   0.8784328   0.8779530   0.8767391   0.8776350   0.8779050   0.8778324
   5.9163377   6.1633030   6.1635844   6.1629917   6.1639803   5.9179087
   5.9167562   6.1617477   6.1628007   6.1647942   6.1646848   5.9178470
   5.9181688   6.1618684   6.1632300   6.1644745   6.1636132   5.9169662
   8.4870516   8.4861863   8.4868751   8.4854119   8.4851469   8.4893744
 TTTTTTTTTTTTTTTTTTTTTTTTTTTTTT MOQGAD      TELAPSE       44.75 TCPU     1121.80
 TTTTTTTTTTTTTTTTTTTTTTTTTTTTTT SHELLXN     TELAPSE       50.35 TCPU     1300.21
 TTTTTTTTTTTTTTTTTTTTTTTTTTTTTT MONMO3      TELAPSE       50.48 TCPU     1304.46
 NUMERICALLY INTEGRATED DENSITY    197.9999743029
 TTTTTTTTTTTTTTTTTTTTTTTTTTTTTT NUMDFT      TELAPSE       50.97 TCPU     1320.27
 CYC   5 ETOT(AU) -1.289102091373E+03 DETOT -8.85E-04 tst  5.78E-06 PX  7.02E-03
 TTTTTTTTTTTTTTTTTTTTTTTTTTTTTT DIIS        TELAPSE       51.04 TCPU     1322.40
 DIIS TEST: 0.80036E-04 AT SCF   CYCLE   5 - DIIS ACTIVE - HISTORY:     5 CYCLES
 TTTTTTTTTTTTTTTTTTTTTTTTTTTTTT FDIK        TELAPSE       51.53 TCPU     1338.12
 INSULATING STATE
 TOP OF VALENCE BANDS -    BAND     99; K    1; EIG -2.4099358E-01 AU
 BOTTOM OF VIRTUAL BANDS - BAND    100; K   17; EIG -8.7170397E-02 AU
 INDIRECT ENERGY BAND GAP:   4.1857 eV
 BOTTOM OF VIRTUAL BANDS - BAND    100; K    1; EIG -7.2023023E-02 AU
 TTTTTTTTTTTTTTTTTTTTTTTTTTTTTT PDIG        TELAPSE       51.81 TCPU     1344.25
 CHARGE NORMALIZATION FACTOR   1.00000000
 TOTAL ATOMIC CHARGES:
   4.5137714   4.5133084   4.5138795   4.5149129   4.5129131   4.5130466
   0.8783884   0.8786497   0.8785419   0.8787685   0.8780153   0.8779103
   0.8792347   0.8791215   0.8777301   0.8785790   0.8789397   0.8787704
   5.9192760   6.1633828   6.1620812   6.1634715   6.1621289   5.9162430
   5.9195031   6.1620076   6.1612601   6.1648159   6.1629007   5.9165605
   5.9181671   6.1614944   6.1622769   6.1627068   6.1636467   5.9184031
   8.4860369   8.4851694   8.4865128   8.4845297   8.4837221   8.4892212
 TTTTTTTTTTTTTTTTTTTTTTTTTTTTTT MOQGAD      TELAPSE       51.85 TCPU     1344.29
 TTTTTTTTTTTTTTTTTTTTTTTTTTTTTT SHELLXN     TELAPSE       57.45 TCPU     1522.64
 TTTTTTTTTTTTTTTTTTTTTTTTTTTTTT MONMO3      TELAPSE       57.58 TCPU     1526.88
 NUMERICALLY INTEGRATED DENSITY    197.9999742518
 TTTTTTTTTTTTTTTTTTTTTTTTTTTTTT NUMDFT      TELAPSE       58.07 TCPU     1542.47
 CYC   6 ETOT(AU) -1.289102107591E+03 DETOT -1.62E-05 tst  2.08E-07 PX  9.24E-04
 TTTTTTTTTTTTTTTTTTTTTTTTTTTTTT DIIS        TELAPSE       58.14 TCPU     1544.60
 DIIS TEST: 0.15193E-04 AT SCF   CYCLE   6 - DIIS ACTIVE - HISTORY:     6 CYCLES
 TTTTTTTTTTTTTTTTTTTTTTTTTTTTTT FDIK        TELAPSE       58.63 TCPU     1560.43
 INSULATING STATE
 TOP OF VALENCE BANDS -    BAND     99; K    1; EIG -2.4098370E-01 AU
 BOTTOM OF VIRTUAL BANDS - BAND    100; K   17; EIG -8.7247091E-02 AU
 INDIRECT ENERGY BAND GAP:   4.1834 eV
 BOTTOM OF VIRTUAL BANDS - BAND    100; K    1; EIG -7.2097605E-02 AU
 TTTTTTTTTTTTTTTTTTTTTTTTTTTTTT PDIG        TELAPSE       58.91 TCPU     1566.57
 CHARGE NORMALIZATION FACTOR   1.00000000
 TOTAL ATOMIC CHARGES:
   4.5140010   4.5133899   4.5140418   4.5151385   4.5131472   4.5132112
   0.8784786   0.8784803   0.8786070   0.8786258   0.8780710   0.8777750
   0.8793273   0.8789392   0.8776824   0.8785427   0.8788356   0.8787814
   5.9174547   6.1626432   6.1624785   6.1621280   6.1631041   5.9184151
   5.9180383   6.1609740   6.1618681   6.1640556   6.1634691   5.9183187
   5.9190131   6.1608956   6.1624613   6.1635810   6.1625725   5.9178713
   8.4863563   8.4853906   8.4861310   8.4846096   8.4843398   8.4887546
 TTTTTTTTTTTTTTTTTTTTTTTTTTTTTT MOQGAD      TELAPSE       58.95 TCPU     1566.61
 TTTTTTTTTTTTTTTTTTTTTTTTTTTTTT SHELLXN     TELAPSE       64.54 TCPU     1744.75
 TTTTTTTTTTTTTTTTTTTTTTTTTTTTTT MONMO3      TELAPSE       64.67 TCPU     1749.04
 NUMERICALLY INTEGRATED DENSITY    197.9999742503
 TTTTTTTTTTTTTTTTTTTTTTTTTTTTTT NUMDFT      TELAPSE       65.18 TCPU     1765.16
 CYC   7 ETOT(AU) -1.289102110225E+03 DETOT -2.63E-06 tst  1.14E-07 PX  4.92E-04
 TTTTTTTTTTTTTTTTTTTTTTTTTTTTTT DIIS        TELAPSE       65.27 TCPU     1768.00
 DIIS TEST: 0.33575E-05 AT SCF   CYCLE   7 - DIIS ACTIVE - HISTORY:     7 CYCLES
 TTTTTTTTTTTTTTTTTTTTTTTTTTTTTT FDIK        TELAPSE       65.76 TCPU     1783.88
 INSULATING STATE
 TOP OF VALENCE BANDS -    BAND     99; K    1; EIG -2.4099314E-01 AU
 BOTTOM OF VIRTUAL BANDS - BAND    100; K   17; EIG -8.7279327E-02 AU
 INDIRECT ENERGY BAND GAP:   4.1828 eV
 BOTTOM OF VIRTUAL BANDS - BAND    100; K    1; EIG -7.2128624E-02 AU
 TTTTTTTTTTTTTTTTTTTTTTTTTTTTTT PDIG        TELAPSE       66.04 TCPU     1790.01
 CHARGE NORMALIZATION FACTOR   1.00000000
 TOTAL ATOMIC CHARGES:
   4.5140772   4.5135027   4.5141360   4.5151929   4.5132107   4.5132956
   0.8784112   0.8784602   0.8785201   0.8786254   0.8779972   0.8777616
   0.8792563   0.8789212   0.8776246   0.8785126   0.8788277   0.8787008
   5.9180576   6.1627626   6.1624184   6.1626613   6.1626243   5.9176457
   5.9183713   6.1612988   6.1616040   6.1641959   6.1633845   5.9178139
   5.9186288   6.1611768   6.1622476   6.1631184   6.1630877   5.9180810
   8.4862496   8.4853865   8.4863634   8.4846672   8.4841640   8.4889568
 TTTTTTTTTTTTTTTTTTTTTTTTTTTTTT MOQGAD      TELAPSE       66.08 TCPU     1790.06
 TTTTTTTTTTTTTTTTTTTTTTTTTTTTTT SHELLXN     TELAPSE       71.67 TCPU     1968.13
 TTTTTTTTTTTTTTTTTTTTTTTTTTTTTT MONMO3      TELAPSE       71.80 TCPU     1972.37
 NUMERICALLY INTEGRATED DENSITY    197.9999742506
 TTTTTTTTTTTTTTTTTTTTTTTTTTTTTT NUMDFT      TELAPSE       72.29 TCPU     1987.91
 CYC   8 ETOT(AU) -1.289102110972E+03 DETOT -7.47E-07 tst  1.52E-08 PX  1.89E-04
 TTTTTTTTTTTTTTTTTTTTTTTTTTTTTT DIIS        TELAPSE       72.37 TCPU     1990.44
 DIIS TEST: 0.10665E-06 AT SCF   CYCLE   8 - DIIS ACTIVE - HISTORY:     8 CYCLES
 TTTTTTTTTTTTTTTTTTTTTTTTTTTTTT FDIK        TELAPSE       72.85 TCPU     2005.98
 INSULATING STATE
 TOP OF VALENCE BANDS -    BAND     99; K    1; EIG -2.4100050E-01 AU
 BOTTOM OF VIRTUAL BANDS - BAND    100; K   17; EIG -8.7272549E-02 AU
 INDIRECT ENERGY BAND GAP:   4.1832 eV
 BOTTOM OF VIRTUAL BANDS - BAND    100; K    1; EIG -7.2121847E-02 AU
 TTTTTTTTTTTTTTTTTTTTTTTTTTTTTT PDIG        TELAPSE       73.13 TCPU     2012.11
 CHARGE NORMALIZATION FACTOR   1.00000000
 TOTAL ATOMIC CHARGES:
   4.5140450   4.5134881   4.5141103   4.5151812   4.5131939   4.5132867
   0.8783811   0.8784686   0.8785184   0.8786050   0.8779847   0.8777526
   0.8792267   0.8789312   0.8776303   0.8784865   0.8787999   0.8787094
   5.9179798   6.1629033   6.1623704   6.1625946   6.1627938   5.9176362
   5.9184632   6.1613443   6.1616707   6.1643426   6.1633035   5.9176453
   5.9186688   6.1611226   6.1624076   6.1633177   6.1629575   5.9179629
   8.4862852   8.4853646   8.4863060   8.4846332   8.4841800   8.4889464
 TTTTTTTTTTTTTTTTTTTTTTTTTTTTTT MOQGAD      TELAPSE       73.17 TCPU     2012.16
 TTTTTTTTTTTTTTTTTTTTTTTTTTTTTT SHELLXN     TELAPSE       78.69 TCPU     2188.31
 +++ ENERGIES IN A.U. +++
 ::: EXT EL-POLE                                  -1.1043781584545E+03
 ::: EXT EL-SPHEROPOLE                             1.2688765704481E+01
 ::: BIELET ZONE E-E                               2.0166008509378E+03
 ::: TOTAL E-E                                     9.2491145818774E+02
 ::: TOTAL E-N + N-E                              -3.6823246788352E+03
 ::: TOTAL N-N                                     3.2209642212847E+02
 ::: KINETIC ENERGY                                1.2799289068548E+03
 ::: PSEUDO TOTAL   ENERGY                        -1.1553878916642E+03
 ::: VIRIAL COEFFICIENT                            1.0511395541091E+00
 TTTTTTTTTTTTTTTTTTTTTTTTTTTTTT MONMO3      TELAPSE       78.83 TCPU     2192.55
 NUMERICALLY INTEGRATED DENSITY    197.9999742499
 EXCHANGE ENERGY: -0.126025406635E+03  CORRELATION ENERGY: -0.768881273916E+01
 TTTTTTTTTTTTTTTTTTTTTTTTTTTTTT NUMDFT      TELAPSE       79.31 TCPU     2208.07
 CYC   9 ETOT(AU) -1.289102111038E+03 DETOT -6.64E-08 tst  8.54E-10 PX  1.89E-04

 == SCF ENDED - CONVERGENCE ON ENERGY      E(AU) -1.2891021110381E+03 CYCLES   9


 ENERGY EXPRESSION=HARTREE+FOCK EXCH*0.00000+(HSESOL     EXCH)*1.00000+PBESOL     CORR


 TOTAL ENERGY(DFT)(AU)(  9) -1.2891021110381E+03 DE-6.6E-08 tester 8.5E-10
 TTTTTTTTTTTTTTTTTTTTTTTTTTTTTT EDFT        TELAPSE       79.31 TCPU     2208.08
 
 INFORMATION **** DFTD3 ENERGY **** CALCULATE DFTD3 ENERGY

           DFT-D V3(BJ)
 DF                                         hsesol3c  
 parameters
 s6       :    1.0000
 s8       :    0.0000
 a1       :    0.5196
 a2       :    4.9385
 k1 k3    :   16.0000   -4.0000
 Cutoff   :   50.2022
 CN-Cutoff:   21.1671
 ABC-Cutoff:   21.1671
 
 Edisp /kcal,au:   -22.8699 -0.03644544

 E6    /kcal :   -24.2684
 E8    /kcal :     0.0000
 E6(ABC) "   :   1.398518
 
 INFORMATION **** DFTD3 ENERGY **** NORMAL TERMINATION OF DFTD3 MODULE

 GCP ENERGY CALCULATION
  level        hsesol3c            basis:hsesol3c
  Nbf            474
  Atoms           42

  Parameters: 
  sigma     1.0000
  eta       1.4281
  alpha     0.2936
  beta      1.9467

  dmp_scal      4.0000
  dmp_exp       6.0000
 cutoffs: 
   distance [bohr] 60.0
   noise    [a.u.] 2.2E-16
 SR-damping   T
 ** gCP correction **
  Egcp:        0.0829434336 / (a.u.) ||      52.0478 / (kcal/mol)
 INFORMATION **** GCP **** NORMAL TERMINATION OF GCP MODULE

 *******************************************************************************

 DFT-D3-GCP DISPERSION AND COUNTERPOISE CORRECTION

 D3 DISPERSION ENERGY (AU)      -3.6445441128468E-02
 GCP ENERGY (AU)                 8.2943433583805E-02
 TOTAL ENERGY + DISP + GCP (AU) -1.2890556130456E+03

 *******************************************************************************

 EIGENVECTORS IN FORTRAN UNIT 10
 TTTTTTTTTTTTTTTTTTTTTTTTTTTTTT END         TELAPSE       80.28 TCPU     2215.03
 EEEEEEEEEE TERMINATION  DATE 02 12 2025 TIME 08:07:49.1
