 Default number of threads is:           32

         
 *******************************************************************************
 *                                                                             *
 *                               CRYSTAL23                                     *
 *                      public : 1.0.1 - October 2022                          *
 *                       HTTP://WWW.CRYSTAL.UNITO.IT                           *
 *                                                                             *
 *                              MAIN AUTHORS                                   *
 *                                                                             *
 *  R. DOVESI(1,11), V.R. SAUNDERS(2), C. ROETTI(1,11), R. ORLANDO(1,11),      *
 *  C.M. ZICOVICH-WILSON(1,3), F. PASCALE(4), B. CIVALLERI(1,11),              *
 *  K. DOLL(5), N.M. HARRISON(6), I.J. BUSH(7), Ph. D'ARCO(8),                 *
 *  M. LLUNELL(9), M. CAUSA'(10), Y. NOEL(8), L. MASCHIO(1,11), A. ERBA(1,11)  *
 *  M. RE'RAT(14), S. CASASSA(1,11), B.G. SEARLE(2), J.K. DESMARAIS(1)         *
 *                                                                             *
 *        CONTRIBUTIONS TO THE CODE HAVE ALSO BEEN GIVEN BY                    *
 *                                                                             *
 *  M. FERRABONE(1,11), M. DE LA PIERRE(1,11), M. FERRERO(1,11),               *
 *  J. BAIMA(1,11), E. ALBANESE(1,11), M.F. PEINTINGER(12), R. BAST(13),       *
 *  B. KIRTMAN(15), V. LACIVITA(1,11), R. DEMICHELIS(1,16)                     *
 *  G. BRANDEBURG(17), S. SALUSTRO(1,11), G. SANSONE(1,11)                     *
 *  M.T. RUGGIERO(18), L.E. DAGA(1), L. DONA'(1), A. COSSARD(1)                *
 *                                                                             *
 * (1) THEORETICAL CHEMISTRY GROUP - UNIVERSITA' DI TORINO - TORINO (ITALY)    *
 * (2) SCIENTIFIC COMPUTING DEPARTMENT - STFC DARESBURY (UK)                   *
 * (3) UNIVERSIDAD AUTONOMA DEL ESTADO DE MORELOS - CUERNAVACA (MEXICO)        *
 * (4) UNIVERSITE' DE LORRAINE - NANCY (FRANCE)                                *
 * (5) UNIVERSITAET STUTTGART- STUTTGART (GERMANY)                             *
 * (6) IMPERIAL COLLEGE - LONDON (UK)                                          *
 * (7) SCIENTIFIC COMPUTING DEPARTMENT - STFC RAL (UK)                         *
 * (8) UPMC - SORBONNE UNIVERSITES - PARIS (FRANCE)                            *
 * (9) UNIVERSIDAD DE BARCELONA - BARCELONA (SPAIN)                            *
 *(10) UNIVERSITA' DI NAPOLI "FEDERICO II" - NAPOLI (ITALY)                    *
 *(11) NIS - NANOSTRUCTURED INTERFACES AND SURFACES - TORINO (ITALY)           *
 *(12) MPI FUER CHEMISCHE ENERGIEKONVERSION - MUELHEIM AN DER RUHR (GERMANY)   *
 *(13) UNIVERSITY OF TROMSO - TROMSO (NORWAY)                                  *
 *(14) UNIVERSITE' DE PAU ET DES PAYS DE L'ADOUR - PAU (FRANCE)                *
 *(15) UNIVERSITY OF CALIFORNIA SANTA BARBARA - SANTA BARBARA (USA)            *
 *(16) CURTIN UNIVERSITY - PERTH (AUSTRALIA)                                   *
 *(17) UNIVERSITY COLLEGE LONDON - LONDON (UK)                                 *
 *(18) UNIVERSITY OF VERMONT - BURLINGTON (USA)                                *
 *                                                                             *
 *******************************************************************************
 EEEEEEEEEE STARTING  DATE 19 02 2026 TIME 20:28:18.1
 cof-1_z44_L020_serr                                                             

 CRYSTAL CALCULATION
 (INPUT ACCORDING TO THE INTERNATIONAL TABLES FOR X-RAY CRYSTALLOGRAPHY)
 CRYSTAL FAMILY                       :  TRICLINIC   
 CRYSTAL CLASS  (GROTH - 1921)        :  TRICLINIC PEDIAL                     

 SPACE GROUP (NONCENTROSYMMETRIC)     :  P 1             

 LATTICE PARAMETERS  (ANGSTROMS AND DEGREES) - CONVENTIONAL CELL
        A           B           C        ALPHA        BETA       GAMMA
    15.02361    15.02392     8.80000    90.00032    89.99994   119.99596


 NUMBER OF IRREDUCIBLE ATOMS IN THE CONVENTIONAL CELL:   84

 INPUT COORDINATES

 ATOM AT. N.              COORDINATES
   1   5     6.136805400000E-01  2.273182200000E-01  2.505428100000E-01
   2   5     6.905271000000E-01  3.810269500000E-01  7.505428100000E-01
   3   5     7.727362000000E-01  3.863778800000E-01  2.505428100000E-01
   4   5     8.495827600000E-01  5.400866100000E-01  7.505428200000E-01
   5   5     6.136762700000E-01  3.863606700000E-01  2.494015500000E-01
   6   5     6.905228300000E-01  5.400694000000E-01  7.494015500000E-01
   7   5     2.272552500000E-01  6.136332200000E-01  2.505428100000E-01
   8   5     3.041018100000E-01  7.673419500000E-01  7.505428100000E-01
   9   5     3.863632200000E-01  6.136124500000E-01  2.505428100000E-01
  10   5     4.632097800000E-01  7.673211800000E-01  7.505428100000E-01
  11   5     3.863435000000E-01  7.727516500000E-01  2.494015500000E-01
  12   5     4.631900600000E-01  9.264603800000E-01  7.494015500000E-01
  13   1     9.030436200000E-01  3.089300500000E-01  2.481767300000E-01
  14   1     9.798901800000E-01  4.626387800000E-01  7.481767300000E-01
  15   1     9.663453000000E-02  6.910534400000E-01  2.478149100000E-01
  16   1     1.734810900000E-01  8.447621700000E-01  7.478149100000E-01
  17   1     9.029714200000E-01  5.940724300000E-01  2.477592300000E-01
  18   1     9.798179800000E-01  7.477811600000E-01  7.477592300000E-01
  19   1     9.673618000000E-02  4.056849400000E-01  2.477731200000E-01
  20   1     1.735827400000E-01  5.593936700000E-01  7.477731200000E-01
  21   1     6.910324000000E-01  9.700412000000E-02  2.518232900000E-01
  22   1     7.678789600000E-01  2.507128500000E-01  7.518232900000E-01
  23   1     3.089297200000E-01  9.034373100000E-01  2.521851300000E-01
  24   1     3.857762800000E-01  5.714604000000E-02  7.521851300000E-01
  25   1     4.058699900000E-01  9.704998000000E-02  2.522408400000E-01
  26   1     4.827165500000E-01  2.507587100000E-01  7.522408400000E-01
  27   1     5.943122100000E-01  9.033473200000E-01  2.522268600000E-01
  28   1     6.711587700000E-01  5.705605000000E-02  7.522268600000E-01
  29   1     6.910727400000E-01  5.940542100000E-01  2.481767500000E-01
  30   1     7.679193000000E-01  7.477629400000E-01  7.481767500000E-01
  31   1     3.089618300000E-01  4.056093300000E-01  2.478148900000E-01
  32   1     3.858083900000E-01  5.593180600000E-01  7.478148900000E-01
  33   1     4.058405700000E-01  3.088232500000E-01  2.477591800000E-01
  34   1     4.826871300000E-01  4.625319800000E-01  7.477591900000E-01
  35   1     5.942908800000E-01  6.909579300000E-01  2.477731700000E-01
  36   1     6.711374400000E-01  8.446666600000E-01  7.477731700000E-01
  37   6     8.918903100000E-01  4.459436900000E-01  2.493597900000E-01
  38   6     9.687368700000E-01  5.996524200000E-01  7.493597900000E-01
  39   6     9.464891100000E-01  3.927856300000E-01  2.482324100000E-01
  40   6     2.333567000000E-02  5.464943600000E-01  7.482324100000E-01
  41   6     5.338812000000E-02  6.071853000000E-01  2.481350200000E-01
  42   6     1.302346800000E-01  7.608940300000E-01  7.481350200000E-01
  43   6     9.464521100000E-01  5.536921900000E-01  2.484272900000E-01
  44   6     2.329867000000E-02  7.074009200000E-01  7.484273000000E-01
  45   6     5.342634000000E-02  4.462499700000E-01  2.476757000000E-01
  46   6     1.302729000000E-01  5.999587000000E-01  7.476757000000E-01
  47   6     1.080358900000E-01  5.540356300000E-01  2.484412000000E-01
  48   6     1.848824500000E-01  7.077443600000E-01  7.484412000000E-01
  49   6     5.540394200000E-01  1.081684600000E-01  2.506402400000E-01
  50   6     6.308859800000E-01  2.618771900000E-01  7.506402500000E-01
  51   6     6.071778500000E-01  5.355594000000E-02  2.517676000000E-01
  52   6     6.840244100000E-01  2.072646700000E-01  7.517676000000E-01
  53   6     3.927986700000E-01  9.466631600000E-01  2.518650300000E-01
  54   6     4.696452300000E-01  1.003718900000E-01  7.518650200000E-01
  55   6     4.462875800000E-01  5.360286000000E-02  2.515727600000E-01
  56   6     5.231341400000E-01  2.073115900000E-01  7.515727600000E-01
  57   6     5.537168500000E-01  9.466235600000E-01  2.523243100000E-01
  58   6     6.305634100000E-01  1.003322900000E-01  7.523243100000E-01
  59   6     4.459279100000E-01  8.919920600000E-01  2.515588200000E-01
  60   6     5.227744700000E-01  4.570079000000E-02  7.515588300000E-01
  61   6     5.540448700000E-01  4.458745500000E-01  2.493597900000E-01
  62   6     6.308914300000E-01  5.995832800000E-01  7.493597900000E-01
  63   6     6.072102200000E-01  5.536257800000E-01  2.482324400000E-01
  64   6     6.840567800000E-01  7.073345100000E-01  7.482324400000E-01
  65   6     3.928233700000E-01  4.461720300000E-01  2.481349900000E-01
  66   6     4.696699300000E-01  5.998807600000E-01  7.481349900000E-01
  67   6     4.462872600000E-01  3.926899900000E-01  2.484272700000E-01
  68   6     5.231338200000E-01  5.463987200000E-01  7.484272700000E-01
  69   6     5.537429600000E-01  6.070980000000E-01  2.476757300000E-01
  70   6     6.305895200000E-01  7.608067300000E-01  7.476757300000E-01
  71   6     4.459599800000E-01  5.539582300000E-01  2.484412000000E-01
  72   6     5.228065400000E-01  7.076669600000E-01  7.484412000000E-01
  73   8     5.607366800000E-01  2.803706300000E-01  2.497077300000E-01
  74   8     6.375832400000E-01  4.340793600000E-01  7.497077300000E-01
  75   8     7.196817000000E-01  2.803783300000E-01  2.521155400000E-01
  76   8     7.965282600000E-01  4.340870600000E-01  7.521155400000E-01
  77   8     7.196794200000E-01  4.393234600000E-01  2.484829700000E-01
  78   8     7.965259800000E-01  5.930321900000E-01  7.484829700000E-01
  79   8     2.803245100000E-01  7.196511100000E-01  2.497077500000E-01
  80   8     3.571710700000E-01  8.733598400000E-01  7.497077500000E-01
  81   8     2.803439700000E-01  5.606956100000E-01  2.521155400000E-01
  82   8     3.571905300000E-01  7.144043400000E-01  7.521155400000E-01
  83   8     4.392638400000E-01  7.196354200000E-01  2.484829600000E-01
  84   8     5.161104000000E-01  8.733441500000E-01  7.484829600000E-01

 *******************************************************************************

 << INFORMATION >>: FROM NOW ON, ALL COORDINATES REFER TO THE PRIMITIVE CELL

 *******************************************************************************

 LATTICE PARAMETERS  (ANGSTROMS AND DEGREES) - PRIMITIVE CELL
       A          B          C        ALPHA      BETA     GAMMA        VOLUME
   15.02361   15.02392    8.80000    90.00032  89.99994 119.99596   1720.237623

 COORDINATES OF THE EQUIVALENT ATOMS (FRACTIONAL UNITS)

 N. ATOM EQUIV AT. N.          X                  Y                  Z

   1   1   1    5 B    -3.86319460000E-01  2.27318220000E-01  2.50542810000E-01

   2   2   1    5 B    -3.09472900000E-01  3.81026950000E-01 -2.49457190000E-01

   3   3   1    5 B    -2.27263800000E-01  3.86377880000E-01  2.50542810000E-01

   4   4   1    5 B    -1.50417240000E-01 -4.59913390000E-01 -2.49457180000E-01

   5   5   1    5 B    -3.86323730000E-01  3.86360670000E-01  2.49401550000E-01

   6   6   1    5 B    -3.09477170000E-01 -4.59930600000E-01 -2.50598450000E-01

   7   7   1    5 B     2.27255250000E-01 -3.86366780000E-01  2.50542810000E-01

   8   8   1    5 B     3.04101810000E-01 -2.32658050000E-01 -2.49457190000E-01

   9   9   1    5 B     3.86363220000E-01 -3.86387550000E-01  2.50542810000E-01

  10  10   1    5 B     4.63209780000E-01 -2.32678820000E-01 -2.49457190000E-01

  11  11   1    5 B     3.86343500000E-01 -2.27248350000E-01  2.49401550000E-01

  12  12   1    5 B     4.63190060000E-01 -7.35396200000E-02 -2.50598450000E-01

  13  13   1    1 H    -9.69563800000E-02  3.08930050000E-01  2.48176730000E-01

  14  14   1    1 H    -2.01098200000E-02  4.62638780000E-01 -2.51823270000E-01

  15  15   1    1 H     9.66345300000E-02 -3.08946560000E-01  2.47814910000E-01

  16  16   1    1 H     1.73481090000E-01 -1.55237830000E-01 -2.52185090000E-01

  17  17   1    1 H    -9.70285800000E-02 -4.05927570000E-01  2.47759230000E-01

  18  18   1    1 H    -2.01820200000E-02 -2.52218840000E-01 -2.52240770000E-01

  19  19   1    1 H     9.67361800000E-02  4.05684940000E-01  2.47773120000E-01

  20  20   1    1 H     1.73582740000E-01 -4.40606330000E-01 -2.52226880000E-01

  21  21   1    1 H    -3.08967600000E-01  9.70041200000E-02  2.51823290000E-01

  22  22   1    1 H    -2.32121040000E-01  2.50712850000E-01 -2.48176710000E-01

  23  23   1    1 H     3.08929720000E-01 -9.65626900000E-02  2.52185130000E-01

  24  24   1    1 H     3.85776280000E-01  5.71460400000E-02 -2.47814870000E-01

  25  25   1    1 H     4.05869990000E-01  9.70499800000E-02  2.52240840000E-01

  26  26   1    1 H     4.82716550000E-01  2.50758710000E-01 -2.47759160000E-01

  27  27   1    1 H    -4.05687790000E-01 -9.66526800000E-02  2.52226860000E-01

  28  28   1    1 H    -3.28841230000E-01  5.70560500000E-02 -2.47773140000E-01

  29  29   1    1 H    -3.08927260000E-01 -4.05945790000E-01  2.48176750000E-01

  30  30   1    1 H    -2.32080700000E-01 -2.52237060000E-01 -2.51823250000E-01

  31  31   1    1 H     3.08961830000E-01  4.05609330000E-01  2.47814890000E-01

  32  32   1    1 H     3.85808390000E-01 -4.40681940000E-01 -2.52185110000E-01

  33  33   1    1 H     4.05840570000E-01  3.08823250000E-01  2.47759180000E-01

  34  34   1    1 H     4.82687130000E-01  4.62531980000E-01 -2.52240810000E-01

  35  35   1    1 H    -4.05709120000E-01 -3.09042070000E-01  2.47773170000E-01

  36  36   1    1 H    -3.28862560000E-01 -1.55333340000E-01 -2.52226830000E-01

  37  37   1    6 C    -1.08109690000E-01  4.45943690000E-01  2.49359790000E-01

  38  38   1    6 C    -3.12631300000E-02 -4.00347580000E-01 -2.50640210000E-01

  39  39   1    6 C    -5.35108900000E-02  3.92785630000E-01  2.48232410000E-01

  40  40   1    6 C     2.33356700000E-02 -4.53505640000E-01 -2.51767590000E-01

  41  41   1    6 C     5.33881200000E-02 -3.92814700000E-01  2.48135020000E-01

  42  42   1    6 C     1.30234680000E-01 -2.39105970000E-01 -2.51864980000E-01

  43  43   1    6 C    -5.35478900000E-02 -4.46307810000E-01  2.48427290000E-01

  44  44   1    6 C     2.32986700000E-02 -2.92599080000E-01 -2.51572700000E-01

  45  45   1    6 C     5.34263400000E-02  4.46249970000E-01  2.47675700000E-01

  46  46   1    6 C     1.30272900000E-01 -4.00041300000E-01 -2.52324300000E-01

  47  47   1    6 C     1.08035890000E-01 -4.45964370000E-01  2.48441200000E-01

  48  48   1    6 C     1.84882450000E-01 -2.92255640000E-01 -2.51558800000E-01

  49  49   1    6 C    -4.45960580000E-01  1.08168460000E-01  2.50640240000E-01

  50  50   1    6 C    -3.69114020000E-01  2.61877190000E-01 -2.49359750000E-01

  51  51   1    6 C    -3.92822150000E-01  5.35559400000E-02  2.51767600000E-01

  52  52   1    6 C    -3.15975590000E-01  2.07264670000E-01 -2.48232400000E-01

  53  53   1    6 C     3.92798670000E-01 -5.33368400000E-02  2.51865030000E-01

  54  54   1    6 C     4.69645230000E-01  1.00371890000E-01 -2.48134980000E-01

  55  55   1    6 C     4.46287580000E-01  5.36028600000E-02  2.51572760000E-01

  56  56   1    6 C    -4.76865860000E-01  2.07311590000E-01 -2.48427240000E-01

  57  57   1    6 C    -4.46283150000E-01 -5.33764400000E-02  2.52324310000E-01

  58  58   1    6 C    -3.69436590000E-01  1.00332290000E-01 -2.47675690000E-01

  59  59   1    6 C     4.45927910000E-01 -1.08007940000E-01  2.51558820000E-01

  60  60   1    6 C    -4.77225530000E-01  4.57007900000E-02 -2.48441170000E-01

  61  61   1    6 C    -4.45955130000E-01  4.45874550000E-01  2.49359790000E-01

  62  62   1    6 C    -3.69108570000E-01 -4.00416720000E-01 -2.50640210000E-01

  63  63   1    6 C    -3.92789780000E-01 -4.46374220000E-01  2.48232440000E-01

  64  64   1    6 C    -3.15943220000E-01 -2.92665490000E-01 -2.51767560000E-01

  65  65   1    6 C     3.92823370000E-01  4.46172030000E-01  2.48134990000E-01

  66  66   1    6 C     4.69669930000E-01 -4.00119240000E-01 -2.51865010000E-01

  67  67   1    6 C     4.46287260000E-01  3.92689990000E-01  2.48427270000E-01

  68  68   1    6 C    -4.76866180000E-01 -4.53601280000E-01 -2.51572730000E-01

  69  69   1    6 C    -4.46257040000E-01 -3.92902000000E-01  2.47675730000E-01

  70  70   1    6 C    -3.69410480000E-01 -2.39193270000E-01 -2.52324270000E-01

  71  71   1    6 C     4.45959980000E-01 -4.46041770000E-01  2.48441200000E-01

  72  72   1    6 C    -4.77193460000E-01 -2.92333040000E-01 -2.51558800000E-01

  73  73   1    8 O    -4.39263320000E-01  2.80370630000E-01  2.49707730000E-01

  74  74   1    8 O    -3.62416760000E-01  4.34079360000E-01 -2.50292270000E-01

  75  75   1    8 O    -2.80318300000E-01  2.80378330000E-01  2.52115540000E-01

  76  76   1    8 O    -2.03471740000E-01  4.34087060000E-01 -2.47884460000E-01

  77  77   1    8 O    -2.80320580000E-01  4.39323460000E-01  2.48482970000E-01

  78  78   1    8 O    -2.03474020000E-01 -4.06967810000E-01 -2.51517030000E-01

  79  79   1    8 O     2.80324510000E-01 -2.80348890000E-01  2.49707750000E-01

  80  80   1    8 O     3.57171070000E-01 -1.26640160000E-01 -2.50292250000E-01

  81  81   1    8 O     2.80343970000E-01 -4.39304390000E-01  2.52115540000E-01

  82  82   1    8 O     3.57190530000E-01 -2.85595660000E-01 -2.47884460000E-01

  83  83   1    8 O     4.39263840000E-01 -2.80364580000E-01  2.48482960000E-01

  84  84   1    8 O    -4.83889600000E-01 -1.26655850000E-01 -2.51517040000E-01

 NUMBER OF SYMMETRY OPERATORS         :    1
 *******************************************************************************
 * GEOMETRY EDITING - INPUT COORDINATES ARE GIVEN IN ANGSTROM         
 *******************************************************************************

 GCALCO - MAX INDICES DIRECT LATTICE VECTOR    12    12    19
 NO.OF VECTORS CREATED 6999 STARS 3500 RMAX   269.05559 BOHR

 GEOMETRY FOR WAVE FUNCTION - DIMENSIONALITY OF THE SYSTEM    3
 (NON PERIODIC DIRECTION: LATTICE PARAMETER FORMALLY SET TO 500)
 *******************************************************************************
 LATTICE PARAMETERS (ANGSTROMS AND DEGREES) - BOHR = 0.5291772083 ANGSTROM
 PRIMITIVE CELL - CENTRING CODE 1/0 VOLUME=  1720.237623 - DENSITY  0.753 g/cm^3
         A              B              C           ALPHA      BETA       GAMMA 
    15.02361100    15.02391600     8.80000000    90.000323  89.999944 119.995964
 *******************************************************************************
 ATOMS IN THE ASYMMETRIC UNIT   84 - ATOMS IN THE UNIT CELL:   84
     ATOM                 X/A                 Y/B                 Z/C    
 *******************************************************************************
      1 T   5 B    -3.863194600000E-01  2.273182200000E-01  2.505428100000E-01
      2 T   5 B    -3.094729000000E-01  3.810269500000E-01 -2.494571900000E-01
      3 T   5 B    -2.272638000000E-01  3.863778800000E-01  2.505428100000E-01
      4 T   5 B    -1.504172400000E-01 -4.599133900000E-01 -2.494571800000E-01
      5 T   5 B    -3.863237300000E-01  3.863606700000E-01  2.494015500000E-01
      6 T   5 B    -3.094771700000E-01 -4.599306000000E-01 -2.505984500000E-01
      7 T   5 B     2.272552500000E-01 -3.863667800000E-01  2.505428100000E-01
      8 T   5 B     3.041018100000E-01 -2.326580500000E-01 -2.494571900000E-01
      9 T   5 B     3.863632200000E-01 -3.863875500000E-01  2.505428100000E-01
     10 T   5 B     4.632097800000E-01 -2.326788200000E-01 -2.494571900000E-01
     11 T   5 B     3.863435000000E-01 -2.272483500000E-01  2.494015500000E-01
     12 T   5 B     4.631900600000E-01 -7.353962000000E-02 -2.505984500000E-01
     13 T   1 H    -9.695638000000E-02  3.089300500000E-01  2.481767300000E-01
     14 T   1 H    -2.010982000000E-02  4.626387800000E-01 -2.518232700000E-01
     15 T   1 H     9.663453000000E-02 -3.089465600000E-01  2.478149100000E-01
     16 T   1 H     1.734810900000E-01 -1.552378300000E-01 -2.521850900000E-01
     17 T   1 H    -9.702858000000E-02 -4.059275700000E-01  2.477592300000E-01
     18 T   1 H    -2.018202000000E-02 -2.522188400000E-01 -2.522407700000E-01
     19 T   1 H     9.673618000000E-02  4.056849400000E-01  2.477731200000E-01
     20 T   1 H     1.735827400000E-01 -4.406063300000E-01 -2.522268800000E-01
     21 T   1 H    -3.089676000000E-01  9.700412000000E-02  2.518232900000E-01
     22 T   1 H    -2.321210400000E-01  2.507128500000E-01 -2.481767100000E-01
     23 T   1 H     3.089297200000E-01 -9.656269000000E-02  2.521851300000E-01
     24 T   1 H     3.857762800000E-01  5.714604000000E-02 -2.478148700000E-01
     25 T   1 H     4.058699900000E-01  9.704998000000E-02  2.522408400000E-01
     26 T   1 H     4.827165500000E-01  2.507587100000E-01 -2.477591600000E-01
     27 T   1 H    -4.056877900000E-01 -9.665268000000E-02  2.522268600000E-01
     28 T   1 H    -3.288412300000E-01  5.705605000000E-02 -2.477731400000E-01
     29 T   1 H    -3.089272600000E-01 -4.059457900000E-01  2.481767500000E-01
     30 T   1 H    -2.320807000000E-01 -2.522370600000E-01 -2.518232500000E-01
     31 T   1 H     3.089618300000E-01  4.056093300000E-01  2.478148900000E-01
     32 T   1 H     3.858083900000E-01 -4.406819400000E-01 -2.521851100000E-01
     33 T   1 H     4.058405700000E-01  3.088232500000E-01  2.477591800000E-01
     34 T   1 H     4.826871300000E-01  4.625319800000E-01 -2.522408100000E-01
     35 T   1 H    -4.057091200000E-01 -3.090420700000E-01  2.477731700000E-01
     36 T   1 H    -3.288625600000E-01 -1.553333400000E-01 -2.522268300000E-01
     37 T   6 C    -1.081096900000E-01  4.459436900000E-01  2.493597900000E-01
     38 T   6 C    -3.126313000000E-02 -4.003475800000E-01 -2.506402100000E-01
     39 T   6 C    -5.351089000000E-02  3.927856300000E-01  2.482324100000E-01
     40 T   6 C     2.333567000000E-02 -4.535056400000E-01 -2.517675900000E-01
     41 T   6 C     5.338812000000E-02 -3.928147000000E-01  2.481350200000E-01
     42 T   6 C     1.302346800000E-01 -2.391059700000E-01 -2.518649800000E-01
     43 T   6 C    -5.354789000000E-02 -4.463078100000E-01  2.484272900000E-01
     44 T   6 C     2.329867000000E-02 -2.925990800000E-01 -2.515727000000E-01
     45 T   6 C     5.342634000000E-02  4.462499700000E-01  2.476757000000E-01
     46 T   6 C     1.302729000000E-01 -4.000413000000E-01 -2.523243000000E-01
     47 T   6 C     1.080358900000E-01 -4.459643700000E-01  2.484412000000E-01
     48 T   6 C     1.848824500000E-01 -2.922556400000E-01 -2.515588000000E-01
     49 T   6 C    -4.459605800000E-01  1.081684600000E-01  2.506402400000E-01
     50 T   6 C    -3.691140200000E-01  2.618771900000E-01 -2.493597500000E-01
     51 T   6 C    -3.928221500000E-01  5.355594000000E-02  2.517676000000E-01
     52 T   6 C    -3.159755900000E-01  2.072646700000E-01 -2.482324000000E-01
     53 T   6 C     3.927986700000E-01 -5.333684000000E-02  2.518650300000E-01
     54 T   6 C     4.696452300000E-01  1.003718900000E-01 -2.481349800000E-01
     55 T   6 C     4.462875800000E-01  5.360286000000E-02  2.515727600000E-01
     56 T   6 C    -4.768658600000E-01  2.073115900000E-01 -2.484272400000E-01
     57 T   6 C    -4.462831500000E-01 -5.337644000000E-02  2.523243100000E-01
     58 T   6 C    -3.694365900000E-01  1.003322900000E-01 -2.476756900000E-01
     59 T   6 C     4.459279100000E-01 -1.080079400000E-01  2.515588200000E-01
     60 T   6 C    -4.772255300000E-01  4.570079000000E-02 -2.484411700000E-01
     61 T   6 C    -4.459551300000E-01  4.458745500000E-01  2.493597900000E-01
     62 T   6 C    -3.691085700000E-01 -4.004167200000E-01 -2.506402100000E-01
     63 T   6 C    -3.927897800000E-01 -4.463742200000E-01  2.482324400000E-01
     64 T   6 C    -3.159432200000E-01 -2.926654900000E-01 -2.517675600000E-01
     65 T   6 C     3.928233700000E-01  4.461720300000E-01  2.481349900000E-01
     66 T   6 C     4.696699300000E-01 -4.001192400000E-01 -2.518650100000E-01
     67 T   6 C     4.462872600000E-01  3.926899900000E-01  2.484272700000E-01
     68 T   6 C    -4.768661800000E-01 -4.536012800000E-01 -2.515727300000E-01
     69 T   6 C    -4.462570400000E-01 -3.929020000000E-01  2.476757300000E-01
     70 T   6 C    -3.694104800000E-01 -2.391932700000E-01 -2.523242700000E-01
     71 T   6 C     4.459599800000E-01 -4.460417700000E-01  2.484412000000E-01
     72 T   6 C    -4.771934600000E-01 -2.923330400000E-01 -2.515588000000E-01
     73 T   8 O    -4.392633200000E-01  2.803706300000E-01  2.497077300000E-01
     74 T   8 O    -3.624167600000E-01  4.340793600000E-01 -2.502922700000E-01
     75 T   8 O    -2.803183000000E-01  2.803783300000E-01  2.521155400000E-01
     76 T   8 O    -2.034717400000E-01  4.340870600000E-01 -2.478844600000E-01
     77 T   8 O    -2.803205800000E-01  4.393234600000E-01  2.484829700000E-01
     78 T   8 O    -2.034740200000E-01 -4.069678100000E-01 -2.515170300000E-01
     79 T   8 O     2.803245100000E-01 -2.803488900000E-01  2.497077500000E-01
     80 T   8 O     3.571710700000E-01 -1.266401600000E-01 -2.502922500000E-01
     81 T   8 O     2.803439700000E-01 -4.393043900000E-01  2.521155400000E-01
     82 T   8 O     3.571905300000E-01 -2.855956600000E-01 -2.478844600000E-01
     83 T   8 O     4.392638400000E-01 -2.803645800000E-01  2.484829600000E-01
     84 T   8 O    -4.838896000000E-01 -1.266558500000E-01 -2.515170400000E-01

 T = ATOM BELONGING TO THE ASYMMETRIC UNIT

 ****    1 SYMMOPS - TRANSLATORS IN FRACTIONAL UNITS
 **** MATRICES AND TRANSLATORS IN THE CRYSTALLOGRAPHIC REFERENCE FRAME
   V INV                    ROTATION MATRICES                   TRANSLATORS
   1   1  1.00 -0.00  0.00  0.00  1.00  0.00 -0.00 -0.00  1.00  0.00  0.00  0.00

 DIRECT LATTICE VECTORS CARTESIAN COMPONENTS (ANGSTROM)
          X                    Y                    Z
   0.130113578931E+02  -0.751088897922E+01   0.000000000000E+00
   0.000000000000E+00   0.150239160000E+02   0.000000000000E+00
  -0.187060927689E-04  -0.496092386567E-04   0.879999999984E+01


 CARTESIAN COORDINATES - PRIMITIVE CELL
 *******************************************************************************
 *      ATOM          X(ANGSTROM)         Y(ANGSTROM)         Z(ANGSTROM)
 *******************************************************************************
    1     5 B    -5.026545441789E+00  6.316799987882E+00  2.204776727960E+00
    2     5 B    -4.026657993733E+00 -6.974970140106E+00 -2.195223271960E+00
    3     5 B    -2.957015324613E+00  7.511849554935E+00  2.204776727960E+00
    4     5 B    -1.957127876557E+00 -5.779920573054E+00 -2.195223183960E+00
    5     5 B    -5.026600978939E+00 -6.317643474770E+00  2.194733639960E+00
    6     5 B    -4.026713530882E+00 -4.585497602759E+00 -2.205266359960E+00
    7     5 B     2.956894704149E+00 -7.511643429843E+00  2.204776727960E+00
    8     5 B     3.956782152206E+00 -5.779497557831E+00 -2.195223271960E+00
    9     5 B     5.027105445457E+00  6.316918225044E+00  2.204776727960E+00
   10     5 B    -6.984364999543E+00  5.360370762713E-01 -2.195223271960E+00
   11     5 B     5.026848882828E+00 -6.315955630502E+00  2.194733639960E+00
   12     5 B     6.026736330884E+00 -4.583809758490E+00 -2.205266359960E+00
   13     1 H    -1.261538802612E+00  5.369555415224E+00  2.183955223960E+00
   14     1 H    -2.616513545555E-01  7.101701287235E+00 -2.216044775960E+00
   15     1 H     1.257341819009E+00 -5.367410686227E+00  2.180771207960E+00
   16     1 H     2.257229267065E+00 -3.635264814215E+00 -2.219228791960E+00
   17     1 H    -1.262478214842E+00 -5.369863112720E+00  2.180281223960E+00
   18     1 H    -2.625907667856E-01 -3.637717240709E+00 -2.219718775960E+00
   19     1 H     1.258664424320E+00  5.368389460936E+00  2.180403455960E+00
   20     1 H     2.258551872377E+00  7.100535332947E+00 -2.219596543960E+00
   21     1 H    -4.020092731589E+00  3.777990599547E+00  2.216044951960E+00
   22     1 H    -3.020205283532E+00  5.510136471558E+00 -2.183955047960E+00
   23     1 H     4.019590433323E+00 -3.771099083307E+00  2.219229143960E+00
   24     1 H     5.019477881380E+00 -2.038953211295E+00 -2.180770855960E+00
   25     1 H     5.280914979501E+00 -1.590386201040E+00  2.219719391960E+00
   26     1 H     6.280802427557E+00  1.417596709713E-01 -2.180280607960E+00
   27     1 H    -5.278553746712E+00  1.594961692636E+00  2.219596367960E+00
   28     1 H    -4.278666298656E+00  3.327107564648E+00 -2.180403631960E+00
   29     1 H    -4.019567785199E+00 -3.778589408860E+00  2.183955399960E+00
   30     1 H    -3.019680337142E+00 -2.046443536848E+00 -2.216044599960E+00
   31     1 H     4.020008309775E+00  3.773250204883E+00  2.180771031960E+00
   32     1 H     5.019895757832E+00  5.505396076894E+00 -2.219228967960E+00
   33     1 H     5.280532269186E+00  1.591498811171E+00  2.180280783960E+00
   34     1 H     6.280419717242E+00  3.323644683182E+00 -2.219719127960E+00
   35     1 H    -5.278831195665E+00 -1.595798233809E+00  2.180403895960E+00
   36     1 H    -4.278943747608E+00  1.363476382025E-01 -2.219596103960E+00
   37     6 C    -1.406658532845E+00  7.511808047908E+00  2.194366151960E+00
   38     6 C    -4.067710847881E-01 -5.779962080080E+00 -2.205633847960E+00
   39     6 C    -6.962539844245E-01  6.303080350475E+00  2.184445207960E+00
   40     6 C     3.036334636322E-01 -6.988689777513E+00 -2.215554791960E+00
   41     6 C     6.946472949207E-01 -6.302619608284E+00  2.183588175960E+00
   42     6 C     1.694534742977E+00 -4.570473736272E+00 -2.216411823960E+00
   43     6 C    -6.967354083120E-01 -6.303111115011E+00  2.186160151960E+00
   44     6 C     3.031520397445E-01 -4.570965243001E+00 -2.213839759960E+00
   45     6 C     6.951445976115E-01  6.303130468974E+00  2.179546159960E+00
   46     6 C     1.695032045668E+00 -6.988639659015E+00 -2.220453839960E+00
   47     6 C     1.405688982721E+00 -7.511589134413E+00  2.186282559960E+00
   48     6 C     2.405576430777E+00 -5.779443262401E+00 -2.213717439960E+00
   49     6 C     7.208800491982E+00 -2.536227150912E+00  2.205634111960E+00
   50     6 C     8.208687940038E+00 -8.040812789008E-01 -2.194365799960E+00
   51     6 C    -5.111154291558E+00  3.755051011089E+00  2.215554879960E+00
   52     6 C    -4.111266843501E+00  5.487196883101E+00 -2.184445119960E+00
   53     6 C     5.110839363876E+00 -3.751607900252E+00  2.216412263960E+00
   54     6 C     6.110726811933E+00 -2.019462028240E+00 -2.183587823960E+00
   55     6 C     5.806802720663E+00 -2.546704080517E+00  2.213840287960E+00
   56     6 C     6.806690168719E+00 -8.145582085052E-01 -2.186159711960E+00
   57     6 C    -5.806754506293E+00  2.550047524389E+00  2.220453927960E+00
   58     6 C    -4.806867058236E+00  4.282193396400E+00 -2.179546071960E+00
   59     6 C     5.802122925830E+00 -4.972029722279E+00  2.213717615960E+00
   60     6 C     6.802010373887E+00 -3.239883850268E+00 -2.186282295960E+00
   61     6 C     7.208871427835E+00  2.537399907114E+00  2.194366151960E+00
   62     6 C    -4.802599017165E+00 -3.243481241658E+00 -2.205633847960E+00
   63     6 C    -5.110733047774E+00 -3.756100670717E+00  2.184445471960E+00
   64     6 C    -4.110845599717E+00 -2.023954798706E+00 -2.215554527960E+00
   65     6 C     5.111160814190E+00  3.752786069970E+00  2.183587911960E+00
   66     6 C    -6.900309630810E+00 -2.028095078802E+00 -2.216412087960E+00
   67     6 C     5.806798615868E+00  2.547715036814E+00  2.186159975960E+00
   68     6 C    -6.204671829132E+00 -3.233166111958E+00 -2.213840023960E+00
   69     6 C    -5.806414692781E+00 -2.551151847603E+00  2.179546423960E+00
   70     6 C    -4.806527244725E+00 -8.190059755913E-01 -2.220453575960E+00
   71     6 C     5.802540258396E+00  4.973053691096E+00  2.186282559960E+00
   72     6 C    -6.208930186604E+00 -8.078274576759E-01 -2.213717439960E+00
   73     8 O     7.295940956188E+00  6.214561222829E-04  2.197428023960E+00
   74     8 O    -4.715529488812E+00 -5.780259692650E+00 -2.202571975960E+00
   75     8 O    -3.647326441370E+00  6.317807601023E+00  2.218616751960E+00
   76     8 O    -2.647438993313E+00 -6.973962526966E+00 -2.181383247960E+00
   77     8 O    -3.647356039315E+00 -6.318112812212E+00  2.186650135960E+00
   78     8 O    -2.647468591258E+00 -4.585966940201E+00 -2.213349863960E+00
   79     8 O     3.647397854749E+00 -6.317436834628E+00  2.197428199960E+00
   80     8 O     4.647285302806E+00 -4.585290962617E+00 -2.202571799960E+00
   81     8 O     3.647651010734E+00  6.318198804286E+00  2.218616751960E+00
   82     8 O     4.647538458790E+00 -6.973571323703E+00 -2.181383247960E+00
   83     8 O    -7.295943509484E+00 -5.591819535882E-04  2.186650047960E+00
   84     8 O    -6.296056061427E+00  1.731586690058E+00 -2.213349951960E+00

 *******************************************************************************
 STARTING BASIS SET HANDLING 
 *******************************************************************************

 Loading internal basis set: SOLDEF2MSVP         

 Please cite in your publication:
 L. Dona', J. G. Brandenburg and B. Civalleri, J. Chem. Phys., 151, 121101 (2019
 )                                                                              
                                                                                
                    

 *******************************************************************************
 LOCAL ATOMIC FUNCTIONS BASIS SET
 *******************************************************************************
   ATOM   X(AU)   Y(AU)   Z(AU)  N. TYPE  EXPONENT  S COEF   P COEF   D/F/G COEF
 *******************************************************************************
   1 B   -9.499  11.937   4.166
                                  1 S  
                                         2.410E+03 1.755E-03 0.000E+00 0.000E+00
                                         3.619E+02 1.344E-02 0.000E+00 0.000E+00
                                         8.231E+01 6.637E-02 0.000E+00 0.000E+00
                                         2.311E+01 2.303E-01 0.000E+00 0.000E+00
                                         7.252E+00 5.150E-01 0.000E+00 0.000E+00
                                  2 S  
                                         2.367E+00 1.000E+00 0.000E+00 0.000E+00
                                  3 S  
                                         5.533E-01 1.000E+00 0.000E+00 0.000E+00
                                  4 S  
                                         1.716E-01 1.000E+00 0.000E+00 0.000E+00
                           5-     7 P  
                                         6.002E+00 0.000E+00-3.555E-02 0.000E+00
                                         1.240E+00 0.000E+00-1.983E-01 0.000E+00
                                         3.367E-01 0.000E+00-5.048E-01 0.000E+00
                           8-    10 P  
                                         1.256E-01 0.000E+00 1.000E+00 0.000E+00
                          11-    15 D  
                                         8.880E-01 0.000E+00 0.000E+00 1.000E+00
   2 B   -7.609 -13.181  -4.148
   3 B   -5.588  14.195   4.166
   4 B   -3.698 -10.922  -4.148
   5 B   -9.499 -11.939   4.147
   6 B   -7.609  -8.665  -4.167
   7 B    5.588 -14.195   4.166
   8 B    7.477 -10.922  -4.148
   9 B    9.500  11.937   4.166
  10 B  -13.199   1.013  -4.148
  11 B    9.499 -11.935   4.147
  12 B   11.389  -8.662  -4.167
  13 H   -2.384  10.147   4.127
                                181 S  
                                         1.874E+01 1.968E-02 0.000E+00 0.000E+00
                                         2.826E+00 1.380E-01 0.000E+00 0.000E+00
                                         6.401E-01 4.783E-01 0.000E+00 0.000E+00
                                182 S  
                                         1.756E-01 1.000E+00 0.000E+00 0.000E+00
  14 H   -0.494  13.420  -4.188
  15 H    2.376 -10.143   4.121
  16 H    4.266  -6.870  -4.194
  17 H   -2.386 -10.148   4.120
  18 H   -0.496  -6.874  -4.195
  19 H    2.379  10.145   4.120
  20 H    4.268  13.418  -4.194
  21 H   -7.597   7.139   4.188
  22 H   -5.707  10.413  -4.127
  23 H    7.596  -7.126   4.194
  24 H    9.485  -3.853  -4.121
  25 H    9.979  -3.005   4.195
  26 H   11.869   0.268  -4.120
  27 H   -9.975   3.014   4.194
  28 H   -8.086   6.287  -4.120
  29 H   -7.596  -7.140   4.127
  30 H   -5.706  -3.867  -4.188
  31 H    7.597   7.130   4.121
  32 H    9.486  10.404  -4.194
  33 H    9.979   3.007   4.120
  34 H   11.868   6.281  -4.195
  35 H   -9.976  -3.016   4.120
  36 H   -8.086   0.258  -4.194
  37 C   -2.658  14.195   4.147
                                229 S  
                                         3.624E+03 1.634E-03 0.000E+00 0.000E+00
                                         5.440E+02 1.252E-02 0.000E+00 0.000E+00
                                         1.237E+02 6.211E-02 0.000E+00 0.000E+00
                                         3.476E+01 2.182E-01 0.000E+00 0.000E+00
                                         1.093E+01 4.980E-01 0.000E+00 0.000E+00
                                230 S  
                                         3.574E+00 1.000E+00 0.000E+00 0.000E+00
                                231 S  
                                         7.742E-01 1.000E+00 0.000E+00 0.000E+00
                                232 S  
                                         2.330E-01 1.000E+00 0.000E+00 0.000E+00
                         233-   235 P  
                                         9.443E+00 0.000E+00 3.790E-02 0.000E+00
                                         2.002E+00 0.000E+00 2.082E-01 0.000E+00
                                         5.463E-01 0.000E+00 5.047E-01 0.000E+00
                         236-   238 P  
                                         1.820E-01 0.000E+00 1.000E+00 0.000E+00
                         239-   243 D  
                                         8.880E-01 0.000E+00 0.000E+00 1.000E+00
  38 C   -0.769 -10.923  -4.168
  39 C   -1.316  11.911   4.128
  40 C    0.574 -13.207  -4.187
  41 C    1.313 -11.910   4.126
  42 C    3.202  -8.637  -4.188
  43 C   -1.317 -11.911   4.131
  44 C    0.573  -8.638  -4.184
  45 C    1.314  11.911   4.119
  46 C    3.203 -13.207  -4.196
  47 C    2.656 -14.195   4.131
  48 C    4.546 -10.922  -4.183
  49 C   13.623  -4.793   4.168
  50 C   15.512  -1.519  -4.147
  51 C   -9.659   7.096   4.187
  52 C   -7.769  10.369  -4.128
  53 C    9.658  -7.090   4.188
  54 C   11.548  -3.816  -4.126
  55 C   10.973  -4.813   4.184
  56 C   12.863  -1.539  -4.131
  57 C  -10.973   4.819   4.196
  58 C   -9.084   8.092  -4.119
  59 C   10.964  -9.396   4.183
  60 C   12.854  -6.122  -4.131
  61 C   13.623   4.795   4.147
  62 C   -9.076  -6.129  -4.168
  63 C   -9.658  -7.098   4.128
  64 C   -7.768  -3.825  -4.187
  65 C    9.659   7.092   4.126
  66 C  -13.040  -3.833  -4.188
  67 C   10.973   4.814   4.131
  68 C  -11.725  -6.110  -4.184
  69 C  -10.973  -4.821   4.119
  70 C   -9.083  -1.548  -4.196
  71 C   10.965   9.398   4.131
  72 C  -11.733  -1.527  -4.183
  73 O   13.787   0.001   4.153
                                769 S  
                                         6.773E+03 1.727E-03 0.000E+00 0.000E+00
                                         1.017E+03 1.325E-02 0.000E+00 0.000E+00
                                         2.313E+02 6.603E-02 0.000E+00 0.000E+00
                                         6.501E+01 2.353E-01 0.000E+00 0.000E+00
                                         2.050E+01 5.498E-01 0.000E+00 0.000E+00
                                770 S  
                                         6.716E+00 1.000E+00 0.000E+00 0.000E+00
                                771 S  
                                         1.147E+00 1.000E+00 0.000E+00 0.000E+00
                                772 S  
                                         3.342E-01 1.000E+00 0.000E+00 0.000E+00
                         773-   775 P  
                                         1.769E+01 0.000E+00 4.359E-02 0.000E+00
                                         3.854E+00 0.000E+00 2.318E-01 0.000E+00
                                         1.047E+00 0.000E+00 5.146E-01 0.000E+00
                         776-   778 P  
                                         2.759E-01 0.000E+00 1.000E+00 0.000E+00
                         779-   783 D  
                                         8.000E-01 0.000E+00 0.000E+00 1.000E+00
  74 O   -8.911 -10.923  -4.162
  75 O   -6.892  11.939   4.193
  76 O   -5.003 -13.179  -4.122
  77 O   -6.893 -11.940   4.132
  78 O   -5.003  -8.666  -4.183
  79 O    6.893 -11.938   4.153
  80 O    8.782  -8.665  -4.162
  81 O    6.893  11.940   4.193
  82 O    8.783 -13.178  -4.122
  83 O  -13.787  -0.001   4.132
  84 O  -11.898   3.272  -4.183

 *******************************************************************************
 FINISHED BASIS SET HANDLING 
 *******************************************************************************

 INFORMATION **** SET_MPP **** PCRYSTAL CALCULATION
 INFORMATION **** READM2 **** NEW DEFAULT: FOCK/KS MATRIX MIXING SET TO 30 %
 INFORMATION **** READM2 **** NEW DEFAULT: FULL DIRECT SCF MODE
 INFORMATION **** READM2 **** NEW DEFAULT: COULOMB BIPOLAR BUFFER SET TO 32 Mb
 INFORMATION **** READM2 **** NEW DEFAULT: EXCHANGE BIPOLAR BUFFER SET TO 32 Mb

 *******************************************************************************
 NEW DEFAULT: DFT INTEGRATION GRID INCREASED TO XLGRID
 NEW DEFAULT: DIIS ACCELERATOR ACTIVE
 USE KEYWORD NODIIS TO TURN IT OFF
 *******************************************************************************

 WARNING **** RDDFTP **** HSEsol-HJS ACTIVE
 RANGE SEPARATION - OMEGA:   0.110000000000000     
 WARNING **** RDDFTP **** HSEsol-3c has to be combined with sol-def2-mSVP basis set
 *******************************************************************************
 N. OF ATOMS PER CELL        84  COULOMB OVERLAP TOL         (T1) 10**   -6
 NUMBER OF SHELLS           468  COULOMB PENETRATION TOL     (T2) 10**   -6
 NUMBER OF AO               948  EXCHANGE OVERLAP TOL        (T3) 10**   -6
 N. OF ELECTRONS PER CELL   396  EXCHANGE PSEUDO OVP (F(G))  (T4) 10**   -6
 CORE ELECTRONS PER CELL    120  EXCHANGE PSEUDO OVP (P(G))  (T5) 10**  -12
 N. OF SYMMETRY OPERATORS     1  POLE ORDER IN MONO ZONE                  4
 *******************************************************************************
 TYPE OF CALCULATION :  RESTRICTED CLOSED SHELL
 KOHN-SHAM HAMILTONIAN

 (EXCHANGE)[CORRELATION] FUNCTIONAL:(HSEsol GGA)[PBEsol]

 RANGE-SEPARATED HYBRID FUNCTIONAL 
 OMEGA (SHORT-RANGE)[LONG-RANGE]:(    0.1100)[    0.0000]

 HYBRID EXCHANGE - PERCENTAGE OF FOCK EXCHANGE    25.0000

 CAPPA:IS1  2;IS2  2;IS3  8; K PTS MONK NET  20; SYMMOPS:K SPACE   2;G SPACE   1

 *******************************************************************************
 MAX NUMBER OF SCF CYCLES      50  CONVERGENCE ON DELTAP        10**-16
 WEIGHT OF F(I) IN F(I+1)      30% CONVERGENCE ON ENERGY        10**- 6
 SHRINK. FACT.(MONKH.)    2  2  8  NUMBER OF K POINTS IN THE IBZ     20
 SHRINKING FACTOR(GILAT NET)    8  NUMBER OF K POINTS(GILAT NET)   1028
 *******************************************************************************
 *** K POINTS COORDINATES (OBLIQUE COORDINATES IN UNITS OF IS =  2)
   1-R(  0  0  0)   2-R(  1  0  0)   3-R(  0  1  0)   4-R(  1  1  0)
   5-C(  0  0  1)   6-C(  1  0  1)   7-C(  0  1  1)   8-C(  1  1  1)
   9-C(  0  0  2)  10-C(  1  0  2)  11-C(  0  1  2)  12-C(  1  1  2)
  13-C(  0  0  3)  14-C(  1  0  3)  15-C(  0  1  3)  16-C(  1  1  3)
  17-R(  0  0  4)  18-R(  1  0  4)  19-R(  0  1  4)  20-R(  1  1  4)

 DIRECT LATTICE VECTORS COMPON. (A.U.)     RECIP. LATTICE VECTORS COMPON. (A.U.) 
        X            Y            Z              X            Y            Z
   24.5879030  -14.1935232    0.0000000      0.2555397    0.0000000    0.0000005
    0.0000000   28.3910867    0.0000000      0.1277517    0.2213084    0.0000015
   -0.0000353   -0.0000937   16.6295900      0.0000000    0.0000000    0.3778316

 DISK SPACE FOR EIGENVECTORS (FTN 10)    28758528 REALS

 SYMMETRY ADAPTION OF THE BLOCH FUNCTIONS DISABLED
 TTTTTTTTTTTTTTTTTTTTTTTTTTTTTT gordsh1     TELAPSE        0.05 TCPU        0.05

 MATRIX SIZE: P(G)  601702, F(G)  123182, P(G) IRR  302753, F(G) IRR  124142
 MAX G-VECTOR INDEX FOR 1- AND 2-ELECTRON INTEGRALS  53

 TTTTTTTTTTTTTTTTTTTTTTTTTTTTTT INPUT       TELAPSE        3.06 TCPU        3.06

 NEIGHBORS OF THE NON-EQUIVALENT ATOMS

 N = NUMBER OF NEIGHBORS AT DISTANCE R
    ATOM  N     R/ANG      R/AU   NEIGHBORS (ATOM LABELS AND CELL INDICES)
   1 B    1     1.3791     2.6061   73 O   -1 0 0
   1 B    1     1.3793     2.6065   75 O    0 0 0
   1 B    1     1.5503     2.9297   49 C   -1 0 0
   1 B    1     2.3895     4.5155    5 B    0 1 0
   1 B    1     2.3898     4.5160    3 B    0 0 0
   1 B    1     2.5632     4.8437   51 C    0 0 0

   2 B    1     1.3791     2.6061   74 O    0 0 0
   2 B    1     1.3793     2.6065   76 O    0 0 0
   2 B    1     1.5503     2.9297   50 C   -1-1 0
   2 B    1     2.3895     4.5155    6 B    0 0 0
   2 B    1     2.3898     4.5160    4 B    0 0 0
   2 B    1     2.5632     4.8437   52 C    0-1 0

   3 B    1     1.3793     2.6065   77 O    0 1 0
   3 B    1     1.3793     2.6065   75 O    0 0 0
   3 B    1     1.5504     2.9298   37 C    0 0 0
   3 B    1     2.3895     4.5156    5 B    0 1 0
   3 B    1     2.3898     4.5160    1 B    0 0 0
   3 B    1     2.5634     4.8440   43 C    0 1 0

   4 B    1     1.3793     2.6065   78 O    0 0 0
   4 B    1     1.3793     2.6065   76 O    0 0 0
   4 B    1     1.5504     2.9298   38 C    0 0 0
   4 B    1     2.3895     4.5156    6 B    0 0 0
   4 B    1     2.3898     4.5160    2 B    0 0 0
   4 B    1     2.5634     4.8440   44 C    0 0 0

   5 B    1     1.3791     2.6061   73 O   -1-1 0
   5 B    1     1.3793     2.6064   77 O    0 0 0
   5 B    1     1.5502     2.9294   61 C   -1-1 0
   5 B    1     2.3895     4.5155    1 B    0-1 0
   5 B    1     2.3895     4.5156    3 B    0-1 0
   5 B    1     2.5629     4.8433   63 C    0 0 0

   6 B    1     1.3791     2.6061   74 O    0 0 0
   6 B    1     1.3793     2.6064   78 O    0 0 0
   6 B    1     1.5502     2.9294   62 C    0 0 0
   6 B    1     2.3895     4.5155    2 B    0 0 0
   6 B    1     2.3895     4.5156    4 B    0 0 0
   6 B    1     2.5629     4.8433   64 C    0 0 0

   7 B    1     1.3795     2.6068   79 O    0 0 0
   7 B    1     1.3795     2.6070   81 O    0-1 0
   7 B    1     1.5513     2.9316   47 C    0 0 0
   7 B    1     2.3905     4.5174   11 B    0 0 0
   7 B    1     2.3905     4.5175    9 B    0-1 0
   7 B    1     2.5648     4.8468   45 C    0-1 0

   8 B    1     1.3795     2.6068   80 O    0 0 0
   8 B    1     1.3795     2.6070   82 O    0 0 0
   8 B    1     1.5513     2.9316   48 C    0 0 0
   8 B    1     2.3905     4.5174   12 B    0 0 0
   8 B    1     2.3905     4.5175   10 B    1 0 0
   8 B    1     2.5648     4.8468   46 C    0 0 0

   9 B    1     1.3795     2.6069   81 O    0 0 0
   9 B    1     1.3797     2.6072   83 O    1 1 0
   9 B    1     1.5516     2.9322   71 C    0 0 0
   9 B    1     2.3905     4.5175    7 B    0 1 0
   9 B    1     2.3911     4.5185   11 B    0 1 0
   9 B    1     2.5651     4.8473   69 C    1 1 0

  10 B    1     1.3795     2.6069   82 O   -1 0 0
  10 B    1     1.3797     2.6072   84 O    0 0 0
  10 B    1     1.5516     2.9322   72 C    0 0 0
  10 B    1     2.3905     4.5175    8 B   -1 0 0
  10 B    1     2.3911     4.5185   12 B   -1 0 0
  10 B    1     2.5651     4.8473   70 C    0 0 0

  11 B    1     1.3795     2.6068   79 O    0 0 0
  11 B    1     1.3796     2.6071   83 O    1 0 0
  11 B    1     1.5516     2.9322   59 C    0 0 0
  11 B    1     2.3905     4.5174    7 B    0 0 0
  11 B    1     2.3911     4.5185    9 B    0-1 0
  11 B    1     2.5651     4.8473   57 C    1 0 0

  12 B    1     1.3795     2.6068   80 O    0 0 0
  12 B    1     1.3796     2.6071   84 O    1 0 0
  12 B    1     1.5516     2.9322   60 C    0 0 0
  12 B    1     2.3905     4.5174    8 B    0 0 0
  12 B    1     2.3911     4.5185   10 B    1 0 0
  12 B    1     2.5651     4.8473   58 C    1 0 0

  13 H    1     1.0913     2.0623   39 C    0 0 0
  13 H    1     2.1472     4.0576   37 C    0 0 0
  13 H    1     2.1680     4.0969   45 C    0 0 0
  13 H    1     2.5202     4.7625   19 H    0 0 0
  13 H    1     2.5676     4.8520   75 O    0 0 0
  13 H    1     2.7321     5.1630    3 B    0 0 0

  14 H    1     1.0913     2.0623   40 C    0 1 0
  14 H    1     2.1472     4.0576   38 C    0 1 0
  14 H    1     2.1680     4.0969   46 C    0 1 0
  14 H    1     2.5202     4.7625   20 H    0 0 0
  14 H    1     2.5676     4.8520   76 O    0 1 0
  14 H    1     2.7321     5.1630    4 B    0 1 0

  15 H    1     1.0914     2.0625   41 C    0 0 0
  15 H    1     2.1493     4.0616   47 C    0 0 0
  15 H    1     2.1666     4.0942   43 C    0 0 0
  15 H    1     2.5198     4.7618   17 H    0 0 0
  15 H    1     2.5720     4.8604   79 O    0 0 0
  15 H    1     2.7362     5.1707    7 B    0 0 0

  16 H    1     1.0914     2.0625   42 C    0 0 0
  16 H    1     2.1493     4.0616   48 C    0 0 0
  16 H    1     2.1666     4.0942   44 C    0 0 0
  16 H    1     2.5198     4.7618   18 H    0 0 0
  16 H    1     2.5720     4.8604   80 O    0 0 0
  16 H    1     2.7362     5.1707    8 B    0 0 0

  17 H    1     1.0914     2.0624   43 C    0 0 0
  17 H    1     2.1471     4.0575   37 C    0-1 0
  17 H    1     2.1680     4.0970   41 C    0 0 0
  17 H    1     2.5198     4.7618   15 H    0 0 0
  17 H    1     2.5665     4.8500   77 O    0 0 0
  17 H    1     2.7315     5.1618    3 B    0-1 0

  18 H    1     1.0914     2.0624   44 C    0 0 0
  18 H    1     2.1471     4.0575   38 C    0 0 0
  18 H    1     2.1680     4.0970   42 C    0 0 0
  18 H    1     2.5198     4.7618   16 H    0 0 0
  18 H    1     2.5665     4.8500   78 O    0 0 0
  18 H    1     2.7315     5.1618    4 B    0 0 0

  19 H    1     1.0915     2.0626   45 C    0 0 0
  19 H    1     2.1490     4.0610   47 C    0 1 0
  19 H    1     2.1669     4.0948   39 C    0 0 0
  19 H    1     2.5202     4.7625   13 H    0 0 0
  19 H    1     2.5712     4.8588   81 O    0 0 0
  19 H    1     2.7351     5.1686    7 B    0 1 0

  20 H    1     1.0915     2.0626   46 C    0 1 0
  20 H    1     2.1490     4.0610   48 C    0 1 0
  20 H    1     2.1669     4.0948   40 C    0 1 0
  20 H    1     2.5202     4.7625   14 H    0 0 0
  20 H    1     2.5712     4.8588   82 O    0 1 0
  20 H    1     2.7351     5.1686    8 B    0 1 0

  21 H    1     1.0913     2.0623   51 C    0 0 0
  21 H    1     2.1469     4.0571   49 C   -1 0 0
  21 H    1     2.1680     4.0968   57 C    0 0 0
  21 H    1     2.5198     4.7617   27 H    0 0 0
  21 H    1     2.5670     4.8510   75 O    0 0 0
  21 H    1     2.7310     5.1609    1 B    0 0 0

  22 H    1     1.0913     2.0623   52 C    0 0 0
  22 H    1     2.1469     4.0571   50 C   -1 0 0
  22 H    1     2.1680     4.0968   58 C    0 0 0
  22 H    1     2.5198     4.7617   28 H    0 0 0
  22 H    1     2.5670     4.8510   76 O    0 1 0
  22 H    1     2.7310     5.1609    2 B    0 1 0

  23 H    1     1.0914     2.0625   53 C    0 0 0
  23 H    1     2.1493     4.0617   59 C    0 0 0
  23 H    1     2.1664     4.0939   55 C    0 0 0
  23 H    1     2.5192     4.7606   25 H    0 0 0
  23 H    1     2.5735     4.8632   79 O    0 0 0
  23 H    1     2.7371     5.1723   11 B    0 0 0

  24 H    1     1.0914     2.0625   54 C    0 0 0
  24 H    1     2.1493     4.0617   60 C    0 0 0
  24 H    1     2.1664     4.0939   56 C    0 0 0
  24 H    1     2.5192     4.7606   26 H    0 0 0
  24 H    1     2.5735     4.8632   80 O    0 0 0
  24 H    1     2.7371     5.1723   12 B    0 0 0

  25 H    1     1.0914     2.0624   55 C    0 0 0
  25 H    1     2.1475     4.0581   49 C    0 0 0
  25 H    1     2.1679     4.0967   53 C    0 0 0
  25 H    1     2.5192     4.7606   23 H    0 0 0
  25 H    1     2.5675     4.8519   73 O    0 0 0
  25 H    1     2.7328     5.1643    1 B    1 0 0

  26 H    1     1.0914     2.0624   56 C    0 0 0
  26 H    1     2.1475     4.0581   50 C    0 0 0
  26 H    1     2.1679     4.0967   54 C    0 0 0
  26 H    1     2.5192     4.7606   24 H    0 0 0
  26 H    1     2.5675     4.8519   74 O    1 1 0
  26 H    1     2.7328     5.1643    2 B    1 1 0

  27 H    1     1.0914     2.0625   57 C    0 0 0
  27 H    1     2.1491     4.0612   59 C   -1 0 0
  27 H    1     2.1666     4.0942   51 C    0 0 0
  27 H    1     2.5198     4.7617   21 H    0 0 0
  27 H    1     2.5723     4.8609   83 O    0 0 0
  27 H    1     2.7355     5.1693   11 B   -1 0 0

  28 H    1     1.0914     2.0625   58 C    0 0 0
  28 H    1     2.1491     4.0612   60 C   -1 0 0
  28 H    1     2.1666     4.0942   52 C    0 0 0
  28 H    1     2.5198     4.7617   22 H    0 0 0
  28 H    1     2.5723     4.8609   84 O    0 0 0
  28 H    1     2.7355     5.1693   12 B   -1 0 0

  29 H    1     1.0914     2.0624   63 C    0 0 0
  29 H    1     2.1475     4.0582   61 C   -1-1 0
  29 H    1     2.1678     4.0966   69 C    0 0 0
  29 H    1     2.5200     4.7621   35 H    0 0 0
  29 H    1     2.5667     4.8503   77 O    0 0 0
  29 H    1     2.7315     5.1618    5 B    0 0 0

  30 H    1     1.0914     2.0624   64 C    0 0 0
  30 H    1     2.1475     4.0582   62 C    0 0 0
  30 H    1     2.1678     4.0966   70 C    0 0 0
  30 H    1     2.5200     4.7621   36 H    0 0 0
  30 H    1     2.5667     4.8503   78 O    0 0 0
  30 H    1     2.7315     5.1618    6 B    0 0 0

  31 H    1     1.0913     2.0623   65 C    0 0 0
  31 H    1     2.1487     4.0605   71 C    0 0 0
  31 H    1     2.1667     4.0945   67 C    0 0 0
  31 H    1     2.5197     4.7616   33 H    0 0 0
  31 H    1     2.5723     4.8610   81 O    0 0 0
  31 H    1     2.7359     5.1701    9 B    0 0 0

  32 H    1     1.0913     2.0623   66 C    1 1 0
  32 H    1     2.1487     4.0605   72 C    1 1 0
  32 H    1     2.1667     4.0945   68 C    1 1 0
  32 H    1     2.5197     4.7616   34 H    0 0 0
  32 H    1     2.5723     4.8610   82 O    0 1 0
  32 H    1     2.7359     5.1701   10 B    1 1 0

  33 H    1     1.0915     2.0626   67 C    0 0 0
  33 H    1     2.1479     4.0589   61 C    0 0 0
  33 H    1     2.1679     4.0968   65 C    0 0 0
  33 H    1     2.5197     4.7616   31 H    0 0 0
  33 H    1     2.5677     4.8522   73 O    0 0 0
  33 H    1     2.7331     5.1648    5 B    1 1 0

  34 H    1     1.0915     2.0626   68 C    1 1 0
  34 H    1     2.1479     4.0589   62 C    1 1 0
  34 H    1     2.1679     4.0968   66 C    1 1 0
  34 H    1     2.5197     4.7616   32 H    0 0 0
  34 H    1     2.5677     4.8522   74 O    1 1 0
  34 H    1     2.7331     5.1648    6 B    1 1 0

  35 H    1     1.0914     2.0624   69 C    0 0 0
  35 H    1     2.1486     4.0602   71 C   -1-1 0
  35 H    1     2.1668     4.0947   63 C    0 0 0
  35 H    1     2.5200     4.7621   29 H    0 0 0
  35 H    1     2.5717     4.8598   83 O    0 0 0
  35 H    1     2.7349     5.1682    9 B   -1-1 0

  36 H    1     1.0914     2.0624   70 C    0 0 0
  36 H    1     2.1486     4.0602   72 C    0 0 0
  36 H    1     2.1668     4.0947   64 C    0 0 0
  36 H    1     2.5200     4.7621   30 H    0 0 0
  36 H    1     2.5717     4.8598   84 O    0 0 0
  36 H    1     2.7349     5.1682   10 B    0 0 0

  37 C    1     1.4020     2.6495   43 C    0 1 0
  37 C    1     1.4021     2.6495   39 C    0 0 0
  37 C    1     1.5504     2.9298    3 B    0 0 0
  37 C    1     2.1471     4.0575   17 H    0 1 0
  37 C    1     2.1472     4.0576   13 H    0 0 0
  37 C    1     2.4246     4.5817   41 C    0 1 0

  38 C    1     1.4020     2.6495   44 C    0 0 0
  38 C    1     1.4021     2.6495   40 C    0 0 0
  38 C    1     1.5504     2.9298    4 B    0 0 0
  38 C    1     2.1471     4.0575   18 H    0 0 0
  38 C    1     2.1472     4.0576   14 H    0-1 0
  38 C    1     2.4246     4.5817   42 C    0 0 0

  39 C    1     1.0913     2.0623   13 H    0 0 0
  39 C    1     1.3914     2.6294   45 C    0 0 0
  39 C    1     1.4021     2.6495   37 C    0 0 0
  39 C    1     2.1669     4.0948   19 H    0 0 0
  39 C    1     2.4177     4.5688   43 C    0 1 0
  39 C    1     2.4250     4.5825   47 C    0 1 0

  40 C    1     1.0913     2.0623   14 H    0-1 0
  40 C    1     1.3914     2.6294   46 C    0 0 0
  40 C    1     1.4021     2.6495   38 C    0 0 0
  40 C    1     2.1669     4.0948   20 H    0-1 0
  40 C    1     2.4177     4.5688   44 C    0 0 0
  40 C    1     2.4250     4.5825   48 C    0 0 0

  41 C    1     1.0914     2.0625   15 H    0 0 0
  41 C    1     1.3914     2.6293   43 C    0 0 0
  41 C    1     1.4026     2.6505   47 C    0 0 0
  41 C    1     2.1680     4.0970   17 H    0 0 0
  41 C    1     2.4182     4.5697   45 C    0-1 0
  41 C    1     2.4246     4.5817   37 C    0-1 0

  42 C    1     1.0914     2.0625   16 H    0 0 0
  42 C    1     1.3914     2.6293   44 C    0 0 0
  42 C    1     1.4026     2.6505   48 C    0 0 0
  42 C    1     2.1680     4.0970   18 H    0 0 0
  42 C    1     2.4182     4.5697   46 C    0 0 0
  42 C    1     2.4246     4.5817   38 C    0 0 0

  43 C    1     1.0914     2.0624   17 H    0 0 0
  43 C    1     1.3914     2.6293   41 C    0 0 0
  43 C    1     1.4020     2.6495   37 C    0-1 0
  43 C    1     2.1666     4.0942   15 H    0 0 0
  43 C    1     2.4177     4.5688   39 C    0-1 0
  43 C    1     2.4250     4.5826   47 C    0 0 0

  44 C    1     1.0914     2.0624   18 H    0 0 0
  44 C    1     1.3914     2.6293   42 C    0 0 0
  44 C    1     1.4020     2.6495   38 C    0 0 0
  44 C    1     2.1666     4.0942   16 H    0 0 0
  44 C    1     2.4177     4.5688   40 C    0 0 0
  44 C    1     2.4250     4.5826   48 C    0 0 0

  45 C    1     1.0915     2.0626   19 H    0 0 0
  45 C    1     1.3914     2.6294   39 C    0 0 0
  45 C    1     1.4025     2.6504   47 C    0 1 0
  45 C    1     2.1680     4.0969   13 H    0 0 0
  45 C    1     2.4182     4.5697   41 C    0 1 0
  45 C    1     2.4246     4.5818   37 C    0 0 0

  46 C    1     1.0915     2.0626   20 H    0-1 0
  46 C    1     1.3914     2.6294   40 C    0 0 0
  46 C    1     1.4025     2.6504   48 C    0 0 0
  46 C    1     2.1680     4.0969   14 H    0-1 0
  46 C    1     2.4182     4.5697   42 C    0 0 0
  46 C    1     2.4246     4.5818   38 C    0 0 0

  47 C    1     1.4025     2.6504   45 C    0-1 0
  47 C    1     1.4026     2.6505   41 C    0 0 0
  47 C    1     1.5513     2.9316    7 B    0 0 0
  47 C    1     2.1490     4.0610   19 H    0-1 0
  47 C    1     2.1493     4.0616   15 H    0 0 0
  47 C    1     2.4250     4.5825   39 C    0-1 0

  48 C    1     1.4025     2.6504   46 C    0 0 0
  48 C    1     1.4026     2.6505   42 C    0 0 0
  48 C    1     1.5513     2.9316    8 B    0 0 0
  48 C    1     2.1490     4.0610   20 H    0-1 0
  48 C    1     2.1493     4.0616   16 H    0 0 0
  48 C    1     2.4250     4.5825   40 C    0 0 0

  49 C    1     1.4020     2.6494   51 C    1 0 0
  49 C    1     1.4021     2.6495   55 C    0 0 0
  49 C    1     1.5503     2.9297    1 B    1 0 0
  49 C    1     2.1469     4.0571   21 H    1 0 0
  49 C    1     2.1475     4.0581   25 H    0 0 0
  49 C    1     2.4246     4.5818   53 C    0 0 0

  50 C    1     1.4020     2.6494   52 C    1 0 0
  50 C    1     1.4021     2.6495   56 C    0 0 0
  50 C    1     1.5503     2.9297    2 B    1 1 0
  50 C    1     2.1469     4.0571   22 H    1 0 0
  50 C    1     2.1475     4.0581   26 H    0 0 0
  50 C    1     2.4246     4.5818   54 C    0 0 0

  51 C    1     1.0913     2.0623   21 H    0 0 0
  51 C    1     1.3914     2.6293   57 C    0 0 0
  51 C    1     1.4020     2.6494   49 C   -1 0 0
  51 C    1     2.1666     4.0942   27 H    0 0 0
  51 C    1     2.4175     4.5684   55 C   -1 0 0
  51 C    1     2.4251     4.5828   59 C   -1 0 0

  52 C    1     1.0913     2.0623   22 H    0 0 0
  52 C    1     1.3914     2.6293   58 C    0 0 0
  52 C    1     1.4020     2.6494   50 C   -1 0 0
  52 C    1     2.1666     4.0942   28 H    0 0 0
  52 C    1     2.4175     4.5684   56 C   -1 0 0
  52 C    1     2.4251     4.5828   60 C   -1 0 0

  53 C    1     1.0914     2.0625   23 H    0 0 0
  53 C    1     1.3915     2.6295   55 C    0 0 0
  53 C    1     1.4026     2.6505   59 C    0 0 0
  53 C    1     2.1679     4.0967   25 H    0 0 0
  53 C    1     2.4179     4.5691   57 C    1 0 0
  53 C    1     2.4246     4.5818   49 C    0 0 0

  54 C    1     1.0914     2.0625   24 H    0 0 0
  54 C    1     1.3915     2.6295   56 C    0 0 0
  54 C    1     1.4026     2.6505   60 C    0 0 0
  54 C    1     2.1679     4.0967   26 H    0 0 0
  54 C    1     2.4179     4.5691   58 C    1 0 0
  54 C    1     2.4246     4.5818   50 C    0 0 0

  55 C    1     1.0914     2.0624   25 H    0 0 0
  55 C    1     1.3915     2.6295   53 C    0 0 0
  55 C    1     1.4021     2.6495   49 C    0 0 0
  55 C    1     2.1664     4.0939   23 H    0 0 0
  55 C    1     2.4175     4.5684   51 C    1 0 0
  55 C    1     2.4253     4.5832   59 C    0 0 0

  56 C    1     1.0914     2.0624   26 H    0 0 0
  56 C    1     1.3915     2.6295   54 C    0 0 0
  56 C    1     1.4021     2.6495   50 C    0 0 0
  56 C    1     2.1664     4.0939   24 H    0 0 0
  56 C    1     2.4175     4.5684   52 C    1 0 0
  56 C    1     2.4253     4.5832   60 C    0 0 0

  57 C    1     1.0914     2.0625   27 H    0 0 0
  57 C    1     1.3914     2.6293   51 C    0 0 0
  57 C    1     1.4025     2.6504   59 C   -1 0 0
  57 C    1     2.1680     4.0968   21 H    0 0 0
  57 C    1     2.4179     4.5691   53 C   -1 0 0
  57 C    1     2.4247     4.5819   49 C   -1 0 0

  58 C    1     1.0914     2.0625   28 H    0 0 0
  58 C    1     1.3914     2.6293   52 C    0 0 0
  58 C    1     1.4025     2.6504   60 C   -1 0 0
  58 C    1     2.1680     4.0968   22 H    0 0 0
  58 C    1     2.4179     4.5691   54 C   -1 0 0
  58 C    1     2.4247     4.5819   50 C   -1 0 0

  59 C    1     1.4025     2.6504   57 C    1 0 0
  59 C    1     1.4026     2.6505   53 C    0 0 0
  59 C    1     1.5516     2.9322   11 B    0 0 0
  59 C    1     2.1491     4.0612   27 H    1 0 0
  59 C    1     2.1493     4.0617   23 H    0 0 0
  59 C    1     2.4251     4.5828   51 C    1 0 0

  60 C    1     1.4025     2.6504   58 C    1 0 0
  60 C    1     1.4026     2.6505   54 C    0 0 0
  60 C    1     1.5516     2.9322   12 B    0 0 0
  60 C    1     2.1491     4.0612   28 H    1 0 0
  60 C    1     2.1493     4.0617   24 H    0 0 0
  60 C    1     2.4251     4.5828   52 C    1 0 0

  61 C    1     1.4021     2.6496   63 C    1 1 0
  61 C    1     1.4021     2.6497   67 C    0 0 0
  61 C    1     1.5502     2.9294    5 B    1 1 0
  61 C    1     2.1475     4.0582   29 H    1 1 0
  61 C    1     2.1479     4.0589   33 H    0 0 0
  61 C    1     2.4244     4.5814   65 C    0 0 0

  62 C    1     1.4021     2.6496   64 C    0 0 0
  62 C    1     1.4021     2.6497   68 C    0 0 0
  62 C    1     1.5502     2.9294    6 B    0 0 0
  62 C    1     2.1475     4.0582   30 H    0 0 0
  62 C    1     2.1479     4.0589   34 H   -1-1 0
  62 C    1     2.4244     4.5814   66 C    0 0 0

  63 C    1     1.0914     2.0624   29 H    0 0 0
  63 C    1     1.3914     2.6293   69 C    0 0 0
  63 C    1     1.4021     2.6496   61 C   -1-1 0
  63 C    1     2.1668     4.0947   35 H    0 0 0
  63 C    1     2.4179     4.5692   67 C   -1-1 0
  63 C    1     2.4251     4.5827   71 C   -1-1 0

  64 C    1     1.0914     2.0624   30 H    0 0 0
  64 C    1     1.3914     2.6293   70 C    0 0 0
  64 C    1     1.4021     2.6496   62 C    0 0 0
  64 C    1     2.1668     4.0947   36 H    0 0 0
  64 C    1     2.4179     4.5692   68 C    0 0 0
  64 C    1     2.4251     4.5827   72 C    0 0 0

  65 C    1     1.0913     2.0623   31 H    0 0 0
  65 C    1     1.3914     2.6294   67 C    0 0 0
  65 C    1     1.4025     2.6504   71 C    0 0 0
  65 C    1     2.1679     4.0968   33 H    0 0 0
  65 C    1     2.4178     4.5690   69 C    1 1 0
  65 C    1     2.4244     4.5814   61 C    0 0 0

  66 C    1     1.0913     2.0623   32 H   -1-1 0
  66 C    1     1.3914     2.6294   68 C    0 0 0
  66 C    1     1.4025     2.6504   72 C    0 0 0
  66 C    1     2.1679     4.0968   34 H   -1-1 0
  66 C    1     2.4178     4.5690   70 C    0 0 0
  66 C    1     2.4244     4.5814   62 C    0 0 0

  67 C    1     1.0915     2.0626   33 H    0 0 0
  67 C    1     1.3914     2.6294   65 C    0 0 0
  67 C    1     1.4021     2.6497   61 C    0 0 0
  67 C    1     2.1667     4.0945   31 H    0 0 0
  67 C    1     2.4179     4.5692   63 C    1 1 0
  67 C    1     2.4253     4.5832   71 C    0 0 0

  68 C    1     1.0915     2.0626   34 H   -1-1 0
  68 C    1     1.3914     2.6294   66 C    0 0 0
  68 C    1     1.4021     2.6497   62 C    0 0 0
  68 C    1     2.1667     4.0945   32 H   -1-1 0
  68 C    1     2.4179     4.5692   64 C    0 0 0
  68 C    1     2.4253     4.5832   72 C    0 0 0

  69 C    1     1.0914     2.0624   35 H    0 0 0
  69 C    1     1.3914     2.6293   63 C    0 0 0
  69 C    1     1.4025     2.6503   71 C   -1-1 0
  69 C    1     2.1678     4.0966   29 H    0 0 0
  69 C    1     2.4178     4.5690   65 C   -1-1 0
  69 C    1     2.4245     4.5817   61 C   -1-1 0

  70 C    1     1.0914     2.0624   36 H    0 0 0
  70 C    1     1.3914     2.6293   64 C    0 0 0
  70 C    1     1.4025     2.6503   72 C    0 0 0
  70 C    1     2.1678     4.0966   30 H    0 0 0
  70 C    1     2.4178     4.5690   66 C    0 0 0
  70 C    1     2.4245     4.5817   62 C    0 0 0

  71 C    1     1.4025     2.6503   69 C    1 1 0
  71 C    1     1.4025     2.6504   65 C    0 0 0
  71 C    1     1.5516     2.9322    9 B    0 0 0
  71 C    1     2.1486     4.0602   35 H    1 1 0
  71 C    1     2.1487     4.0605   31 H    0 0 0
  71 C    1     2.4251     4.5827   63 C    1 1 0

  72 C    1     1.4025     2.6503   70 C    0 0 0
  72 C    1     1.4025     2.6504   66 C    0 0 0
  72 C    1     1.5516     2.9322   10 B    0 0 0
  72 C    1     2.1486     4.0602   36 H    0 0 0
  72 C    1     2.1487     4.0605   32 H   -1-1 0
  72 C    1     2.4251     4.5827   64 C    0 0 0

  73 O    1     1.3791     2.6061    1 B    1 0 0
  73 O    1     1.3791     2.6061    5 B    1 1 0
  73 O    1     2.3880     4.5126   75 O    1 0 0
  73 O    1     2.3882     4.5130   77 O    1 1 0
  73 O    1     2.5383     4.7966   61 C    0 0 0
  73 O    1     2.5384     4.7968   49 C    0 0 0

  74 O    1     1.3791     2.6061    2 B    0 0 0
  74 O    1     1.3791     2.6061    6 B    0 0 0
  74 O    1     2.3880     4.5126   76 O    0 0 0
  74 O    1     2.3882     4.5130   78 O    0 0 0
  74 O    1     2.5383     4.7966   62 C    0 0 0
  74 O    1     2.5384     4.7968   50 C   -1-1 0

  75 O    1     1.3793     2.6065    1 B    0 0 0
  75 O    1     1.3793     2.6065    3 B    0 0 0
  75 O    1     2.3880     4.5126   73 O   -1 0 0
  75 O    1     2.3882     4.5131   77 O    0 1 0
  75 O    1     2.5391     4.7981   37 C    0 0 0
  75 O    1     2.5395     4.7990   49 C   -1 0 0

  76 O    1     1.3793     2.6065    2 B    0 0 0
  76 O    1     1.3793     2.6065    4 B    0 0 0
  76 O    1     2.3880     4.5126   74 O    0 0 0
  76 O    1     2.3882     4.5131   78 O    0 0 0
  76 O    1     2.5391     4.7981   38 C    0 0 0
  76 O    1     2.5395     4.7990   50 C   -1-1 0

  77 O    1     1.3793     2.6064    5 B    0 0 0
  77 O    1     1.3793     2.6065    3 B    0-1 0
  77 O    1     2.3882     4.5130   73 O   -1-1 0
  77 O    1     2.3882     4.5131   75 O    0-1 0
  77 O    1     2.5390     4.7980   37 C    0-1 0
  77 O    1     2.5391     4.7982   61 C   -1-1 0

  78 O    1     1.3793     2.6064    6 B    0 0 0
  78 O    1     1.3793     2.6065    4 B    0 0 0
  78 O    1     2.3882     4.5130   74 O    0 0 0
  78 O    1     2.3882     4.5131   76 O    0 0 0
  78 O    1     2.5390     4.7980   38 C    0 0 0
  78 O    1     2.5391     4.7982   62 C    0 0 0

  79 O    1     1.3795     2.6068   11 B    0 0 0
  79 O    1     1.3795     2.6068    7 B    0 0 0
  79 O    1     2.3880     4.5126   83 O    1 0 0
  79 O    1     2.3884     4.5134   81 O    0-1 0
  79 O    1     2.5400     4.7998   47 C    0 0 0
  79 O    1     2.5403     4.8005   59 C    0 0 0

  80 O    1     1.3795     2.6068   12 B    0 0 0
  80 O    1     1.3795     2.6068    8 B    0 0 0
  80 O    1     2.3880     4.5126   84 O    1 0 0
  80 O    1     2.3884     4.5134   82 O    0 0 0
  80 O    1     2.5400     4.7998   48 C    0 0 0
  80 O    1     2.5403     4.8005   60 C    0 0 0

  81 O    1     1.3795     2.6069    9 B    0 0 0
  81 O    1     1.3795     2.6070    7 B    0 1 0
  81 O    1     2.3881     4.5128   83 O    1 1 0
  81 O    1     2.3884     4.5134   79 O    0 1 0
  81 O    1     2.5404     4.8006   47 C    0 1 0
  81 O    1     2.5405     4.8008   71 C    0 0 0

  82 O    1     1.3795     2.6069   10 B    1 0 0
  82 O    1     1.3795     2.6070    8 B    0 0 0
  82 O    1     2.3881     4.5128   84 O    1 0 0
  82 O    1     2.3884     4.5134   80 O    0 0 0
  82 O    1     2.5404     4.8006   48 C    0 0 0
  82 O    1     2.5405     4.8008   72 C    1 0 0

  83 O    1     1.3796     2.6071   11 B   -1 0 0
  83 O    1     1.3797     2.6072    9 B   -1-1 0
  83 O    1     2.3880     4.5126   79 O   -1 0 0
  83 O    1     2.3881     4.5128   81 O   -1-1 0
  83 O    1     2.5409     4.8016   71 C   -1-1 0
  83 O    1     2.5410     4.8019   59 C   -1 0 0

  84 O    1     1.3796     2.6071   12 B   -1 0 0
  84 O    1     1.3797     2.6072   10 B    0 0 0
  84 O    1     2.3880     4.5126   80 O   -1 0 0
  84 O    1     2.3881     4.5128   82 O   -1 0 0
  84 O    1     2.5409     4.8016   72 C    0 0 0
  84 O    1     2.5410     4.8019   60 C   -1 0 0


 SYMMETRY ALLOWED INTERNAL DEGREE(S) OF FREEDOM: 249
 TTTTTTTTTTTTTTTTTTTTTTTTTTTTTT SYMM        TELAPSE        3.07 TCPU        3.06
 TTTTTTTTTTTTTTTTTTTTTTTTTTTTTT INT_SCREEN  TELAPSE        3.27 TCPU        3.26

 DFT PARAMETERS

     ATOM       ELECTRONS   NET CHARGE   R(ANGSTROM)
   1   5  B       5.0000      0.0000     0.89000000
  13   1  H       1.0000      0.0000     1.11000000
  37   6  C       6.0000      0.0000     0.77000000
  73   8  O       8.0000      0.0000     0.74000000

 SIZE OF GRID=    2665320
 TTTTTTTTTTTTTTTTTTTTTTTTTTTTTT MAKE_GRID2  TELAPSE       21.14 TCPU       21.11
 BECKE WEIGHT FUNCTION
 RADSAFE =     2.00
 TOLERANCES - DENSITY:10**- 6; POTENTIAL:10**- 9; GRID WGT:10**-14

 RADIAL INTEGRATION  - INTERVALS (POINTS,UPPER LIMIT):            1( 75,  4.0*R)

 ANGULAR INTEGRATION - INTERVALS (ACCURACY LEVEL [N. POINTS] UPPER LIMIT):
  1(  4[  86]   0.2)  2(  8[ 194]   0.5)  3( 12[ 350]   0.9)  4( 16[ 974]   3.5)
  5( 12[ 350]9999.0)
 TTTTTTTTTTTTTTTTTTTTTTTTTTTTTT INT_CALC    TELAPSE       21.48 TCPU       21.44
 EEEEEEEEEE INT_CALC TERMINATION  DATE 19 02 2026 TIME 20:28:39.6

 *******************************************************************************
 cof-1_z44_L020_serr                                                             
 CRYSTAL - SCF - TYPE OF CALCULATION :  RESTRICTED CLOSED SHELL
 *******************************************************************************

 CAPPA:IS1  2;IS2  2;IS3  8; K PTS MONK NET  20; SYMMOPS:K SPACE   2;G SPACE   1

 TTTTTTTTTTTTTTTTTTTTTTTTTTTTTT SDIK        TELAPSE       23.72 TCPU       51.33

 AAAAAAAAAAAAAAAAAAAAAAAAAAAAAAAAAAAAAAAAAAAAAAAAAAAAAAAAAAAAAAAAAAAAAAAAAAAAAAA
         ATOMIC WAVEFUNCTION(S)


 NUCLEAR CHARGE  5.0  SYMMETRY SPECIES            S    P
 N. ELECTRONS    5.0  NUMBER OF PRIMITIVE GTOS    8    4
                      NUMBER OF CONTRACTED GTOS   4    2
                      NUMBER OF CLOSED SHELLS     2    0
                      OPEN SHELL OCCUPATION       0    1

  ZNUC  SCFIT    TOTAL HF ENERGY   KINETIC ENERGY   VIRIAL THEOREM ACCURACY
   5.0    11    -2.451164084E+01  2.462155050E+01 -1.995536038E+00  1.5E-06

 NUCLEAR CHARGE  1.0  SYMMETRY SPECIES            S
 N. ELECTRONS    1.0  NUMBER OF PRIMITIVE GTOS    4
                      NUMBER OF CONTRACTED GTOS   2
                      NUMBER OF CLOSED SHELLS     0
                      OPEN SHELL OCCUPATION       1

  ZNUC  SCFIT    TOTAL HF ENERGY   KINETIC ENERGY   VIRIAL THEOREM ACCURACY
   1.0     1    -4.977266687E-01  5.190767460E-01 -1.958869132E+00  0.0E+00

 NUCLEAR CHARGE  6.0  SYMMETRY SPECIES            S    P
 N. ELECTRONS    6.0  NUMBER OF PRIMITIVE GTOS    8    4
                      NUMBER OF CONTRACTED GTOS   4    2
                      NUMBER OF CLOSED SHELLS     2    0
                      OPEN SHELL OCCUPATION       0    2

  ZNUC  SCFIT    TOTAL HF ENERGY   KINETIC ENERGY   VIRIAL THEOREM ACCURACY
   6.0     9    -3.766704647E+01  3.775180683E+01 -1.997754800E+00  1.1E-06

 NUCLEAR CHARGE  8.0  SYMMETRY SPECIES            S    P
 N. ELECTRONS    8.0  NUMBER OF PRIMITIVE GTOS    8    4
                      NUMBER OF CONTRACTED GTOS   4    2
                      NUMBER OF CLOSED SHELLS     2    0
                      OPEN SHELL OCCUPATION       0    4

  ZNUC  SCFIT    TOTAL HF ENERGY   KINETIC ENERGY   VIRIAL THEOREM ACCURACY
   8.0    12    -7.477373220E+01  7.477365593E+01 -2.000001020E+00  3.8E-06

 AAAAAAAAAAAAAAAAAAAAAAAAAAAAAAAAAAAAAAAAAAAAAAAAAAAAAAAAAAAAAAAAAAAAAAAAAAAAAAA

 CHARGE NORMALIZATION FACTOR   1.00000000
 TOTAL ATOMIC CHARGES:
   5.0000000   5.0000000   5.0000000   5.0000000   5.0000000   5.0000000
   5.0000000   5.0000000   5.0000000   5.0000000   5.0000000   5.0000000
   1.0000000   1.0000000   1.0000000   1.0000000   1.0000000   1.0000000
   1.0000000   1.0000000   1.0000000   1.0000000   1.0000000   1.0000000
   1.0000000   1.0000000   1.0000000   1.0000000   1.0000000   1.0000000
   1.0000000   1.0000000   1.0000000   1.0000000   1.0000000   1.0000000
   6.0000000   6.0000000   6.0000000   6.0000000   6.0000000   6.0000000
   6.0000000   6.0000000   6.0000000   6.0000000   6.0000000   6.0000000
   6.0000000   6.0000000   6.0000000   6.0000000   6.0000000   6.0000000
   6.0000000   6.0000000   6.0000000   6.0000000   6.0000000   6.0000000
   6.0000000   6.0000000   6.0000000   6.0000000   6.0000000   6.0000000
   6.0000000   6.0000000   6.0000000   6.0000000   6.0000000   6.0000000
   8.0000000   8.0000000   8.0000000   8.0000000   8.0000000   8.0000000
   8.0000000   8.0000000   8.0000000   8.0000000   8.0000000   8.0000000
 TTTTTTTTTTTTTTTTTTTTTTTTTTTTTT MOQGAD      TELAPSE       23.83 TCPU       54.82
 TTTTTTTTTTTTTTTTTTTTTTTTTTTTTT SHELLXN     TELAPSE       39.39 TCPU      552.19
 TTTTTTTTTTTTTTTTTTTTTTTTTTTTTT MONMO3      TELAPSE       39.94 TCPU      569.57
 NUMERICALLY INTEGRATED DENSITY    396.0000271706
 TTTTTTTTTTTTTTTTTTTTTTTTTTTTTT NUMDFT      TELAPSE       41.47 TCPU      618.57
 CYC   0 ETOT(AU) -2.591908953757E+03 DETOT -2.59E+03 tst  0.00E+00 PX  1.00E+00
 TTTTTTTTTTTTTTTTTTTTTTTTTTTTTT DIIS        TELAPSE       41.58 TCPU      621.97
 TTTTTTTTTTTTTTTTTTTTTTTTTTTTTT FDIK        TELAPSE       43.56 TCPU      685.17
 INSULATING STATE
 TOP OF VALENCE BANDS -    BAND    198; K    1; EIG -3.1336583E-01 AU
 BOTTOM OF VIRTUAL BANDS - BAND    199; K    1; EIG -1.5644913E-01 AU
 DIRECT ENERGY BAND GAP:   4.2699 eV
 TTTTTTTTTTTTTTTTTTTTTTTTTTTTTT PDIG        TELAPSE       45.58 TCPU      692.09
 CHARGE NORMALIZATION FACTOR   1.00000000
 TOTAL ATOMIC CHARGES:
   4.1679117   4.1583973   4.1624085   4.1657047   4.1626499   4.1659358
   4.1655458   4.1622553   4.1653076   4.1620285   4.1580281   4.1675386
   0.7851355   0.7851619   0.7852771   0.7852507   0.7852355   0.7850379
   0.7851572   0.7853550   0.7850952   0.7852967   0.7854610   0.7852618
   0.7850866   0.7852863   0.7854242   0.7852266   0.7852367   0.7850399
   0.7852216   0.7854181   0.7850873   0.7851140   0.7852704   0.7852437
   6.0434730   6.0433439   6.2656228   6.2652057   6.2651700   6.2655852
   6.2652278   6.2650070   6.2649479   6.2651706   6.0426207   6.0427436
   6.0424895   6.0447853   6.2651514   6.2654324   6.2655048   6.2652289
   6.2650460   6.2653364   6.2655138   6.2652299   6.0435746   6.0412870
   6.0438260   6.0436993   6.2650153   6.2647790   6.2653244   6.2655606
   6.2652538   6.2648384   6.2654528   6.2658669   6.0421494   6.0422737
   8.6918440   8.6924671   8.6919485   8.6925752   8.6929946   8.6909337
   8.6928917   8.6922663   8.6913392   8.6933965   8.6930665   8.6924459
 TTTTTTTTTTTTTTTTTTTTTTTTTTTTTT MOQGAD      TELAPSE       45.69 TCPU      692.21
 TTTTTTTTTTTTTTTTTTTTTTTTTTTTTT SHELLXN     TELAPSE       61.92 TCPU     1209.68
 TTTTTTTTTTTTTTTTTTTTTTTTTTTTTT MONMO3      TELAPSE       62.46 TCPU     1227.04
 NUMERICALLY INTEGRATED DENSITY    396.0000327478
 TTTTTTTTTTTTTTTTTTTTTTTTTTTTTT NUMDFT      TELAPSE       64.02 TCPU     1276.80
 CYC   1 ETOT(AU) -2.577620686320E+03 DETOT  1.43E+01 tst  0.00E+00 PX  1.00E+00
 TTTTTTTTTTTTTTTTTTTTTTTTTTTTTT DIIS        TELAPSE       64.16 TCPU     1281.30
 DIIS TEST: 0.22394E+01 AT SCF   CYCLE   1 - MIX   30 %
 TTTTTTTTTTTTTTTTTTTTTTTTTTTTTT FDIK        TELAPSE       66.17 TCPU     1345.63
 INSULATING STATE
 TOP OF VALENCE BANDS -    BAND    198; K    1; EIG -2.2352777E-01 AU
 BOTTOM OF VIRTUAL BANDS - BAND    199; K    1; EIG -7.7838871E-02 AU
 DIRECT ENERGY BAND GAP:   3.9644 eV
 TTTTTTTTTTTTTTTTTTTTTTTTTTTTTT PDIG        TELAPSE       68.19 TCPU     1352.55
 CHARGE NORMALIZATION FACTOR   1.00000000
 TOTAL ATOMIC CHARGES:
   4.6921833   4.7233346   4.7145983   4.7046961   4.7145927   4.7046971
   4.7049677   4.7148795   4.7049128   4.7148567   4.7236062   4.6924017
   0.9134728   0.9130737   0.9131595   0.9135073   0.9153904   0.9160534
   0.9160977   0.9154124   0.9149549   0.9100592   0.9100829   0.9150744
   0.9149438   0.9100362   0.9100664   0.9150480   0.9153804   0.9160445
   0.9161688   0.9154843   0.9134137   0.9130137   0.9131713   0.9135038
   5.8704425   5.8570262   6.1403761   6.1071256   6.1076159   6.1408624
   6.1315095   6.1401501   6.1407811   6.1322744   5.8597499   5.8731747
   5.8427025   5.8903166   6.1237955   6.1399175   6.1407470   6.1245289
   6.1239873   6.1401140   6.1406198   6.1243835   5.8936237   5.8459145
   5.8703515   5.8569711   6.1316056   6.1402358   6.1406258   6.1321413
   6.1406250   6.1073374   6.1073636   6.1405923   5.8599449   5.8734001
   8.3321448   8.3335627   8.3325066   8.3339157   8.3440162   8.3367045
   8.3334435   8.3319862   8.3363859   8.3438448   8.3338565   8.3323589
 TTTTTTTTTTTTTTTTTTTTTTTTTTTTTT MOQGAD      TELAPSE       68.30 TCPU     1352.67
 TTTTTTTTTTTTTTTTTTTTTTTTTTTTTT SHELLXN     TELAPSE       84.55 TCPU     1870.52
 TTTTTTTTTTTTTTTTTTTTTTTTTTTTTT MONMO3      TELAPSE       85.10 TCPU     1887.90
 NUMERICALLY INTEGRATED DENSITY    396.0000363606
 TTTTTTTTTTTTTTTTTTTTTTTTTTTTTT NUMDFT      TELAPSE       86.65 TCPU     1937.54
 CYC   2 ETOT(AU) -2.578011168059E+03 DETOT -3.90E-01 tst  4.36E-03 PX  1.58E-01
 TTTTTTTTTTTTTTTTTTTTTTTTTTTTTT DIIS        TELAPSE       86.81 TCPU     1942.68
 DIIS TEST: 0.93508E+00 AT SCF   CYCLE   2 - DIIS ACTIVE - HISTORY:     2 CYCLES
 TTTTTTTTTTTTTTTTTTTTTTTTTTTTTT FDIK        TELAPSE       88.83 TCPU     2007.22
 INSULATING STATE
 TOP OF VALENCE BANDS -    BAND    198; K    1; EIG -2.3671816E-01 AU
 BOTTOM OF VIRTUAL BANDS - BAND    199; K    1; EIG -7.3488868E-02 AU
 DIRECT ENERGY BAND GAP:   4.4417 eV
 TTTTTTTTTTTTTTTTTTTTTTTTTTTTTT PDIG        TELAPSE       90.83 TCPU     2014.12
 CHARGE NORMALIZATION FACTOR   1.00000000
 TOTAL ATOMIC CHARGES:
   4.4954794   4.5071190   4.5031637   4.5009489   4.5032647   4.5010585
   4.5005858   4.5027359   4.5004045   4.5025593   4.5065482   4.4949115
   0.8927202   0.8854109   0.8854703   0.8929349   0.8896361   0.8928931
   0.8930223   0.8897430   0.8888701   0.8889924   0.8893119   0.8890227
   0.8889103   0.8890274   0.8892417   0.8889485   0.8896360   0.8929018
   0.8930719   0.8898041   0.8927197   0.8854131   0.8854274   0.8928883
   5.8834894   5.8951498   6.1542196   6.1652137   6.1646439   6.1536838
   6.1625870   6.1568666   6.1562298   6.1617538   5.8939910   5.8822414
   5.9054571   5.8824890   6.1635982   6.1548199   6.1541716   6.1631581
   6.1636121   6.1548324   6.1540957   6.1630897   5.8807587   5.9039880
   5.8837411   5.8954349   6.1625636   6.1567978   6.1563673   6.1618865
   6.1541527   6.1651157   6.1646691   6.1537065   5.8936937   5.8819537
   8.5112608   8.5096598   8.5114194   8.5098259   8.5090371   8.5088261
   8.5097919   8.5114879   8.5089652   8.5090450   8.5099826   8.5116777
 TTTTTTTTTTTTTTTTTTTTTTTTTTTTTT MOQGAD      TELAPSE       90.94 TCPU     2014.24
 TTTTTTTTTTTTTTTTTTTTTTTTTTTTTT SHELLXN     TELAPSE      107.17 TCPU     2531.54
 TTTTTTTTTTTTTTTTTTTTTTTTTTTTTT MONMO3      TELAPSE      107.71 TCPU     2548.90
 NUMERICALLY INTEGRATED DENSITY    396.0000348631
 TTTTTTTTTTTTTTTTTTTTTTTTTTTTTT NUMDFT      TELAPSE      109.26 TCPU     2598.65
 CYC   3 ETOT(AU) -2.578204357079E+03 DETOT -1.93E-01 tst  6.74E-04 PX  6.36E-02
 TTTTTTTTTTTTTTTTTTTTTTTTTTTTTT DIIS        TELAPSE      109.45 TCPU     2604.51
 DIIS TEST: 0.27215E-01 AT SCF   CYCLE   3 - DIIS ACTIVE - HISTORY:     3 CYCLES
 TTTTTTTTTTTTTTTTTTTTTTTTTTTTTT FDIK        TELAPSE      111.47 TCPU     2669.17
 INSULATING STATE
 TOP OF VALENCE BANDS -    BAND    198; K    1; EIG -2.4712557E-01 AU
 BOTTOM OF VIRTUAL BANDS - BAND    199; K    1; EIG -8.2450779E-02 AU
 DIRECT ENERGY BAND GAP:   4.4810 eV
 TTTTTTTTTTTTTTTTTTTTTTTTTTTTTT PDIG        TELAPSE      113.49 TCPU     2676.09
 CHARGE NORMALIZATION FACTOR   1.00000000
 TOTAL ATOMIC CHARGES:
   4.4996009   4.5166104   4.5102954   4.5044585   4.5103857   4.5045622
   4.5046656   4.5104555   4.5044900   4.5102883   4.5166367   4.4996298
   0.8721510   0.8734027   0.8735161   0.8721419   0.8742349   0.8740869
   0.8741240   0.8742295   0.8742746   0.8696409   0.8696067   0.8744547
   0.8742991   0.8696520   0.8695524   0.8743975   0.8742484   0.8740989
   0.8741786   0.8742826   0.8721364   0.8733855   0.8734891   0.8721038
   5.9442589   5.9281932   6.1724848   6.1469347   6.1477743   6.1732169
   6.1653368   6.1690176   6.1701012   6.1667930   5.9315394   5.9476419
   5.9144105   5.9638095   6.1550537   6.1733639   6.1746598   6.1561064
   6.1550311   6.1733725   6.1746388   6.1560724   5.9674292   5.9178326
   5.9442318   5.9282035   6.1652766   6.1689460   6.1701687   6.1669011
   6.1724314   6.1468322   6.1478239   6.1732470   5.9315528   5.9476906
   8.4757941   8.4783222   8.4760697   8.4785928   8.4863957   8.4784519
   8.4784776   8.4758010   8.4783346   8.4866782   8.4788247   8.4761116
 TTTTTTTTTTTTTTTTTTTTTTTTTTTTTT MOQGAD      TELAPSE      113.60 TCPU     2676.21
 TTTTTTTTTTTTTTTTTTTTTTTTTTTTTT SHELLXN     TELAPSE      129.83 TCPU     3193.68
 TTTTTTTTTTTTTTTTTTTTTTTTTTTTTT MONMO3      TELAPSE      130.37 TCPU     3211.05
 NUMERICALLY INTEGRATED DENSITY    396.0000352564
 TTTTTTTTTTTTTTTTTTTTTTTTTTTTTT NUMDFT      TELAPSE      131.92 TCPU     3260.65
 CYC   4 ETOT(AU) -2.578209666352E+03 DETOT -5.31E-03 tst  3.16E-05 PX  1.96E-02
 TTTTTTTTTTTTTTTTTTTTTTTTTTTTTT DIIS        TELAPSE      132.13 TCPU     3267.09
 DIIS TEST: 0.96179E-02 AT SCF   CYCLE   4 - DIIS ACTIVE - HISTORY:     4 CYCLES
 TTTTTTTTTTTTTTTTTTTTTTTTTTTTTT FDIK        TELAPSE      134.14 TCPU     3330.92
 INSULATING STATE
 TOP OF VALENCE BANDS -    BAND    198; K    1; EIG -2.4571928E-01 AU
 BOTTOM OF VIRTUAL BANDS - BAND    199; K    1; EIG -8.1895867E-02 AU
 DIRECT ENERGY BAND GAP:   4.4579 eV
 TTTTTTTTTTTTTTTTTTTTTTTTTTTTTT PDIG        TELAPSE      136.09 TCPU     3337.78
 CHARGE NORMALIZATION FACTOR   1.00000000
 TOTAL ATOMIC CHARGES:
   4.4992339   4.5185380   4.5123360   4.5069612   4.5124200   4.5070663
   4.5067955   4.5121378   4.5066294   4.5119786   4.5182293   4.4988948
   0.8771712   0.8734996   0.8735908   0.8773905   0.8766321   0.8777411
   0.8779101   0.8767854   0.8751648   0.8740321   0.8743441   0.8753381
   0.8751854   0.8740461   0.8742910   0.8752803   0.8766317   0.8777472
   0.8779671   0.8768516   0.8771488   0.8734785   0.8735674   0.8773614
   5.9185957   5.9224693   6.1655061   6.1599055   6.1592872   6.1649660
   6.1676585   6.1684930   6.1677112   6.1666263   5.9210925   5.9171612
   5.9242435   5.9238265   6.1670813   6.1651956   6.1645473   6.1666229
   6.1671453   6.1652510   6.1644491   6.1665189   5.9222224   5.9228482
   5.9187678   5.9226771   6.1676498   6.1684467   6.1677815   6.1667036
   6.1655201   6.1598797   6.1592525   6.1649221   5.9208993   5.9169875
   8.4872847   8.4864755   8.4874831   8.4866782   8.4897037   8.4876381
   8.4864843   8.4874180   8.4876399   8.4895326   8.4867277   8.4876454
 TTTTTTTTTTTTTTTTTTTTTTTTTTTTTT MOQGAD      TELAPSE      136.20 TCPU     3337.89
 TTTTTTTTTTTTTTTTTTTTTTTTTTTTTT SHELLXN     TELAPSE      152.43 TCPU     3855.21
 TTTTTTTTTTTTTTTTTTTTTTTTTTTTTT MONMO3      TELAPSE      152.97 TCPU     3872.59
 NUMERICALLY INTEGRATED DENSITY    396.0000351911
 TTTTTTTTTTTTTTTTTTTTTTTTTTTTTT NUMDFT      TELAPSE      154.52 TCPU     3922.31
 CYC   5 ETOT(AU) -2.578211869592E+03 DETOT -2.20E-03 tst  1.59E-05 PX  1.09E-02
 TTTTTTTTTTTTTTTTTTTTTTTTTTTTTT DIIS        TELAPSE      154.76 TCPU     3928.77
 DIIS TEST: 0.43691E-03 AT SCF   CYCLE   5 - DIIS ACTIVE - HISTORY:     5 CYCLES
 TTTTTTTTTTTTTTTTTTTTTTTTTTTTTT FDIK        TELAPSE      156.76 TCPU     3992.51
 INSULATING STATE
 TOP OF VALENCE BANDS -    BAND    198; K    1; EIG -2.4498763E-01 AU
 BOTTOM OF VIRTUAL BANDS - BAND    199; K    1; EIG -8.1335158E-02 AU
 DIRECT ENERGY BAND GAP:   4.4532 eV
 TTTTTTTTTTTTTTTTTTTTTTTTTTTTTT PDIG        TELAPSE      158.80 TCPU     3999.45
 CHARGE NORMALIZATION FACTOR   1.00000000
 TOTAL ATOMIC CHARGES:
   4.5003666   4.5177020   4.5118076   4.5067636   4.5118957   4.5068684
   4.5068784   4.5118483   4.5067094   4.5116839   4.5176146   4.5002942
   0.8777304   0.8754079   0.8755092   0.8777316   0.8777651   0.8791811
   0.8791991   0.8777458   0.8777593   0.8746771   0.8746761   0.8779359
   0.8777902   0.8746960   0.8746160   0.8778724   0.8777743   0.8791912
   0.8792526   0.8778015   0.8777199   0.8753954   0.8754791   0.8776914
   5.9194359   5.9135692   6.1676997   6.1555232   6.1563154   6.1683778
   6.1658322   6.1658410   6.1669942   6.1673715   5.9168765   5.9227398
   5.9084727   5.9314924   6.1594767   6.1685591   6.1697414   6.1604517
   6.1594371   6.1685481   6.1697251   6.1604308   5.9346985   5.9115387
   5.9194911   5.9136598   6.1657849   6.1657712   6.1670881   6.1674926
   6.1676220   6.1554022   6.1563707   6.1684226   5.9167953   5.9226880
   8.4872503   8.4879535   8.4874943   8.4881967   8.4924835   8.4877201
   8.4881755   8.4873115   8.4877070   8.4928801   8.4884731   8.4875862
 TTTTTTTTTTTTTTTTTTTTTTTTTTTTTT MOQGAD      TELAPSE      158.91 TCPU     3999.56
 TTTTTTTTTTTTTTTTTTTTTTTTTTTTTT SHELLXN     TELAPSE      175.13 TCPU     4516.83
 TTTTTTTTTTTTTTTTTTTTTTTTTTTTTT MONMO3      TELAPSE      175.67 TCPU     4534.20
 NUMERICALLY INTEGRATED DENSITY    396.0000352064
 TTTTTTTTTTTTTTTTTTTTTTTTTTTTTT NUMDFT      TELAPSE      177.23 TCPU     4583.88
 CYC   6 ETOT(AU) -2.578211914035E+03 DETOT -4.44E-05 tst  4.68E-06 PX  3.73E-03
 TTTTTTTTTTTTTTTTTTTTTTTTTTTTTT DIIS        TELAPSE      177.49 TCPU     4590.36
 DIIS TEST: 0.28556E-03 AT SCF   CYCLE   6 - DIIS ACTIVE - HISTORY:     6 CYCLES
 TTTTTTTTTTTTTTTTTTTTTTTTTTTTTT FDIK        TELAPSE      179.50 TCPU     4654.42
 INSULATING STATE
 TOP OF VALENCE BANDS -    BAND    198; K    1; EIG -2.4519473E-01 AU
 BOTTOM OF VIRTUAL BANDS - BAND    199; K    1; EIG -8.1298453E-02 AU
 DIRECT ENERGY BAND GAP:   4.4598 eV
 TTTTTTTTTTTTTTTTTTTTTTTTTTTTTT PDIG        TELAPSE      181.47 TCPU     4661.29
 CHARGE NORMALIZATION FACTOR   1.00000000
 TOTAL ATOMIC CHARGES:
   4.5002145   4.5179103   4.5119149   4.5069164   4.5120015   4.5070216
   4.5068074   4.5117669   4.5066393   4.5116039   4.5176364   4.4999332
   0.8779354   0.8751258   0.8752170   0.8780956   0.8777201   0.8790004
   0.8791349   0.8778311   0.8771209   0.8748243   0.8750473   0.8772900
   0.8771453   0.8748396   0.8749922   0.8772308   0.8777246   0.8790095
   0.8791891   0.8778918   0.8779188   0.8751098   0.8751896   0.8780611
   5.9201197   5.9183094   6.1666587   6.1569604   6.1567204   6.1664447
   6.1664723   6.1671403   6.1668018   6.1660314   5.9181035   5.9198887
   5.9163053   5.9291197   6.1626423   6.1668403   6.1666920   6.1625777
   6.1626749   6.1668807   6.1666161   6.1624961   5.9288578   5.9161429
   5.9202419   5.9184656   6.1664406   6.1670784   6.1668866   6.1661338
   6.1666381   6.1568968   6.1567218   6.1664341   5.9179591   5.9197680
   8.4868376   8.4869552   8.4870535   8.4871735   8.4911960   8.4875019
   8.4870232   8.4869612   8.4874796   8.4911455   8.4872915   8.4872082
 TTTTTTTTTTTTTTTTTTTTTTTTTTTTTT MOQGAD      TELAPSE      181.58 TCPU     4661.41
 TTTTTTTTTTTTTTTTTTTTTTTTTTTTTT SHELLXN     TELAPSE      197.80 TCPU     5178.64
 TTTTTTTTTTTTTTTTTTTTTTTTTTTTTT MONMO3      TELAPSE      198.34 TCPU     5196.02
 NUMERICALLY INTEGRATED DENSITY    396.0000351991
 TTTTTTTTTTTTTTTTTTTTTTTTTTTTTT NUMDFT      TELAPSE      199.90 TCPU     5245.72
 CYC   7 ETOT(AU) -2.578211989266E+03 DETOT -7.52E-05 tst  1.16E-06 PX  1.79E-03
 TTTTTTTTTTTTTTTTTTTTTTTTTTTTTT DIIS        TELAPSE      200.18 TCPU     5252.20
 DIIS TEST: 0.54368E-05 AT SCF   CYCLE   7 - DIIS ACTIVE - HISTORY:     7 CYCLES
 TTTTTTTTTTTTTTTTTTTTTTTTTTTTTT FDIK        TELAPSE      202.19 TCPU     5316.10
 INSULATING STATE
 TOP OF VALENCE BANDS -    BAND    198; K    1; EIG -2.4520613E-01 AU
 BOTTOM OF VIRTUAL BANDS - BAND    199; K    1; EIG -8.1334508E-02 AU
 DIRECT ENERGY BAND GAP:   4.4592 eV
 TTTTTTTTTTTTTTTTTTTTTTTTTTTTTT PDIG        TELAPSE      204.17 TCPU     5322.99
 CHARGE NORMALIZATION FACTOR   1.00000000
 TOTAL ATOMIC CHARGES:
   4.5000813   4.5180269   4.5120307   4.5069225   4.5121171   4.5070278
   4.5069119   4.5119627   4.5067439   4.5117999   4.5178395   4.4998886
   0.8779544   0.8750411   0.8751373   0.8780517   0.8776991   0.8789887
   0.8790698   0.8777521   0.8770455   0.8748399   0.8749757   0.8772199
   0.8770722   0.8748573   0.8749184   0.8771587   0.8777039   0.8789970
   0.8791249   0.8778128   0.8779390   0.8750254   0.8751098   0.8780161
   5.9192605   5.9177450   6.1662355   6.1569518   6.1571173   6.1663719
   6.1661787   6.1666652   6.1669854   6.1666071   5.9190190   5.9205056
   5.9157814   5.9282669   6.1625188   6.1665252   6.1668983   6.1628631
   6.1625280   6.1665445   6.1668439   6.1628034   5.9293650   5.9168879
   5.9193702   5.9178902   6.1661501   6.1666069   6.1670670   6.1667063
   6.1662015   6.1568758   6.1571302   6.1663747   5.9188859   5.9203977
   8.4869225   8.4869773   8.4871463   8.4872025   8.4910107   8.4874210
   8.4871006   8.4870102   8.4874186   8.4911631   8.4873742   8.4872640
 TTTTTTTTTTTTTTTTTTTTTTTTTTTTTT MOQGAD      TELAPSE      204.28 TCPU     5323.10
 TTTTTTTTTTTTTTTTTTTTTTTTTTTTTT SHELLXN     TELAPSE      220.51 TCPU     5840.50
 TTTTTTTTTTTTTTTTTTTTTTTTTTTTTT MONMO3      TELAPSE      221.05 TCPU     5857.87
 NUMERICALLY INTEGRATED DENSITY    396.0000351988
 TTTTTTTTTTTTTTTTTTTTTTTTTTTTTT NUMDFT      TELAPSE      222.61 TCPU     5907.57
 CYC   8 ETOT(AU) -2.578211989821E+03 DETOT -5.55E-07 tst  2.93E-08 PX  2.27E-04
 TTTTTTTTTTTTTTTTTTTTTTTTTTTTTT DIIS        TELAPSE      222.92 TCPU     5914.12
 DIIS TEST: 0.21696E-05 AT SCF   CYCLE   8 - DIIS ACTIVE - HISTORY:     8 CYCLES
 TTTTTTTTTTTTTTTTTTTTTTTTTTTTTT FDIK        TELAPSE      224.93 TCPU     5978.04
 INSULATING STATE
 TOP OF VALENCE BANDS -    BAND    198; K    1; EIG -2.4520554E-01 AU
 BOTTOM OF VIRTUAL BANDS - BAND    199; K    1; EIG -8.1344708E-02 AU
 DIRECT ENERGY BAND GAP:   4.4589 eV
 TTTTTTTTTTTTTTTTTTTTTTTTTTTTTT PDIG        TELAPSE      226.94 TCPU     5984.96
 CHARGE NORMALIZATION FACTOR   1.00000000
 TOTAL ATOMIC CHARGES:
   4.5001023   4.5180913   4.5120769   4.5069556   4.5121630   4.5070606
   4.5069036   4.5119766   4.5067358   4.5118141   4.5178682   4.4998729
   0.8779046   0.8750495   0.8751435   0.8780285   0.8776835   0.8789547
   0.8790608   0.8777632   0.8770482   0.8747968   0.8749704   0.8772208
   0.8770740   0.8748133   0.8749140   0.8771603   0.8776883   0.8789633
   0.8791155   0.8778237   0.8778888   0.8750336   0.8751160   0.8779933
   5.9196190   5.9179473   6.1664199   6.1569637   6.1569582   6.1664088
   6.1663550   6.1668387   6.1668610   6.1663930   5.9185645   5.9202109
   5.9158672   5.9286681   6.1625293   6.1667278   6.1668762   6.1626955
   6.1625461   6.1667547   6.1668148   6.1626284   5.9291757   5.9164243
   5.9197318   5.9180950   6.1663247   6.1667787   6.1669440   6.1664938
   6.1663902   6.1568917   6.1569676   6.1664075   5.9184287   5.9200998
   8.4869333   8.4870195   8.4871544   8.4872424   8.4911096   8.4874563
   8.4871212   8.4870389   8.4874409   8.4911690   8.4873931   8.4872904
 TTTTTTTTTTTTTTTTTTTTTTTTTTTTTT MOQGAD      TELAPSE      227.05 TCPU     5985.07
 TTTTTTTTTTTTTTTTTTTTTTTTTTTTTT SHELLXN     TELAPSE      243.27 TCPU     6502.39
 +++ ENERGIES IN A.U. +++
 ::: EXT EL-POLE                                  -2.2648794360393E+03
 ::: EXT EL-SPHEROPOLE                             2.5980656671206E+01
 ::: BIELET ZONE E-E                               4.0344556332661E+03
 ::: TOTAL E-E                                     1.7955568538980E+03
 ::: TOTAL E-N + N-E                              -7.2550399852809E+03
 ::: TOTAL N-N                                     5.8882705134978E+02
 ::: KINETIC ENERGY                                2.5598796398329E+03
 ::: PSEUDO TOTAL   ENERGY                        -2.3107764402002E+03
 ::: VIRIAL COEFFICIENT                            1.0511436643318E+00
 TTTTTTTTTTTTTTTTTTTTTTTTTTTTTT MONMO3      TELAPSE      243.81 TCPU     6519.77
 NUMERICALLY INTEGRATED DENSITY    396.0000351978
 EXCHANGE ENERGY: -0.252057277278E+03  CORRELATION ENERGY: -0.153782726585E+02
 TTTTTTTTTTTTTTTTTTTTTTTTTTTTTT NUMDFT      TELAPSE      245.37 TCPU     6569.59
 CYC   9 ETOT(AU) -2.578211990136E+03 DETOT -3.16E-07 tst  5.65E-09 PX  2.27E-04

 == SCF ENDED - CONVERGENCE ON ENERGY      E(AU) -2.5782119901364E+03 CYCLES   9


 ENERGY EXPRESSION=HARTREE+FOCK EXCH*0.00000+(HSESOL     EXCH)*1.00000+PBESOL     CORR


 TOTAL ENERGY(DFT)(AU)(  9) -2.5782119901364E+03 DE-3.2E-07 tester 5.6E-09
 TTTTTTTTTTTTTTTTTTTTTTTTTTTTTT EDFT        TELAPSE      245.37 TCPU     6569.60
 
 INFORMATION **** DFTD3 ENERGY **** CALCULATE DFTD3 ENERGY

           DFT-D V3(BJ)
 DF                                         hsesol3c  
 parameters
 s6       :    1.0000
 s8       :    0.0000
 a1       :    0.5196
 a2       :    4.9385
 k1 k3    :   16.0000   -4.0000
 Cutoff   :   50.2022
 CN-Cutoff:   21.1671
 ABC-Cutoff:   21.1671
 
 Edisp /kcal,au:   -46.0554 -0.07339400

 E6    /kcal :   -48.8695
 E8    /kcal :     0.0000
 E6(ABC) "   :   2.814055
 
 INFORMATION **** DFTD3 ENERGY **** NORMAL TERMINATION OF DFTD3 MODULE

 GCP ENERGY CALCULATION
  level        hsesol3c            basis:hsesol3c
  Nbf            948
  Atoms           84

  Parameters: 
  sigma     1.0000
  eta       1.4281
  alpha     0.2936
  beta      1.9467

  dmp_scal      4.0000
  dmp_exp       6.0000
 cutoffs: 
   distance [bohr] 60.0
   noise    [a.u.] 2.2E-16
 SR-damping   T
 ** gCP correction **
  Egcp:        0.1658444072 / (a.u.) ||     104.0689 / (kcal/mol)
 INFORMATION **** GCP **** NORMAL TERMINATION OF GCP MODULE

 *******************************************************************************

 DFT-D3-GCP DISPERSION AND COUNTERPOISE CORRECTION

 D3 DISPERSION ENERGY (AU)      -7.3393999902356E-02
 GCP ENERGY (AU)                 1.6584440718905E-01
 TOTAL ENERGY + DISP + GCP (AU) -2.5781195397291E+03

 *******************************************************************************

 EIGENVECTORS IN FORTRAN UNIT 10
 TTTTTTTTTTTTTTTTTTTTTTTTTTTTTT END         TELAPSE      248.02 TCPU     6577.80
 EEEEEEEEEE TERMINATION  DATE 19 02 2026 TIME 20:32:26.1
