 Default number of threads is:           32

         
 *******************************************************************************
 *                                                                             *
 *                               CRYSTAL23                                     *
 *                      public : 1.0.1 - October 2022                          *
 *                       HTTP://WWW.CRYSTAL.UNITO.IT                           *
 *                                                                             *
 *                              MAIN AUTHORS                                   *
 *                                                                             *
 *  R. DOVESI(1,11), V.R. SAUNDERS(2), C. ROETTI(1,11), R. ORLANDO(1,11),      *
 *  C.M. ZICOVICH-WILSON(1,3), F. PASCALE(4), B. CIVALLERI(1,11),              *
 *  K. DOLL(5), N.M. HARRISON(6), I.J. BUSH(7), Ph. D'ARCO(8),                 *
 *  M. LLUNELL(9), M. CAUSA'(10), Y. NOEL(8), L. MASCHIO(1,11), A. ERBA(1,11)  *
 *  M. RE'RAT(14), S. CASASSA(1,11), B.G. SEARLE(2), J.K. DESMARAIS(1)         *
 *                                                                             *
 *        CONTRIBUTIONS TO THE CODE HAVE ALSO BEEN GIVEN BY                    *
 *                                                                             *
 *  M. FERRABONE(1,11), M. DE LA PIERRE(1,11), M. FERRERO(1,11),               *
 *  J. BAIMA(1,11), E. ALBANESE(1,11), M.F. PEINTINGER(12), R. BAST(13),       *
 *  B. KIRTMAN(15), V. LACIVITA(1,11), R. DEMICHELIS(1,16)                     *
 *  G. BRANDEBURG(17), S. SALUSTRO(1,11), G. SANSONE(1,11)                     *
 *  M.T. RUGGIERO(18), L.E. DAGA(1), L. DONA'(1), A. COSSARD(1)                *
 *                                                                             *
 * (1) THEORETICAL CHEMISTRY GROUP - UNIVERSITA' DI TORINO - TORINO (ITALY)    *
 * (2) SCIENTIFIC COMPUTING DEPARTMENT - STFC DARESBURY (UK)                   *
 * (3) UNIVERSIDAD AUTONOMA DEL ESTADO DE MORELOS - CUERNAVACA (MEXICO)        *
 * (4) UNIVERSITE' DE LORRAINE - NANCY (FRANCE)                                *
 * (5) UNIVERSITAET STUTTGART- STUTTGART (GERMANY)                             *
 * (6) IMPERIAL COLLEGE - LONDON (UK)                                          *
 * (7) SCIENTIFIC COMPUTING DEPARTMENT - STFC RAL (UK)                         *
 * (8) UPMC - SORBONNE UNIVERSITES - PARIS (FRANCE)                            *
 * (9) UNIVERSIDAD DE BARCELONA - BARCELONA (SPAIN)                            *
 *(10) UNIVERSITA' DI NAPOLI "FEDERICO II" - NAPOLI (ITALY)                    *
 *(11) NIS - NANOSTRUCTURED INTERFACES AND SURFACES - TORINO (ITALY)           *
 *(12) MPI FUER CHEMISCHE ENERGIEKONVERSION - MUELHEIM AN DER RUHR (GERMANY)   *
 *(13) UNIVERSITY OF TROMSO - TROMSO (NORWAY)                                  *
 *(14) UNIVERSITE' DE PAU ET DES PAYS DE L'ADOUR - PAU (FRANCE)                *
 *(15) UNIVERSITY OF CALIFORNIA SANTA BARBARA - SANTA BARBARA (USA)            *
 *(16) CURTIN UNIVERSITY - PERTH (AUSTRALIA)                                   *
 *(17) UNIVERSITY COLLEGE LONDON - LONDON (UK)                                 *
 *(18) UNIVERSITY OF VERMONT - BURLINGTON (USA)                                *
 *                                                                             *
 *******************************************************************************
 EEEEEEEEEE STARTING  DATE 02 12 2025 TIME 08:02:33.5
 COF-5_z39_inc_L020                                                              

 CRYSTAL CALCULATION
 (INPUT ACCORDING TO THE INTERNATIONAL TABLES FOR X-RAY CRYSTALLOGRAPHY)
 CRYSTAL FAMILY                       :  TRICLINIC   
 CRYSTAL CLASS  (GROTH - 1921)        :  TRICLINIC PEDIAL                     

 SPACE GROUP (NONCENTROSYMMETRIC)     :  P 1             

 LATTICE PARAMETERS  (ANGSTROMS AND DEGREES) - CONVENTIONAL CELL
        A           B           C        ALPHA        BETA       GAMMA
    15.02070    15.04439     4.38292    66.73909    89.99936   120.05310


 NUMBER OF IRREDUCIBLE ATOMS IN THE CONVENTIONAL CELL:   42

 INPUT COORDINATES

 ATOM AT. N.              COORDINATES
   1   5     5.770466900000E-01  1.511804500000E-01  5.006548600000E-01
   2   5     7.358253200000E-01  3.102056400000E-01  5.006648500000E-01
   3   5     5.767037700000E-01  3.101126600000E-01  4.992348700000E-01
   4   5     1.898508100000E-01  5.367279300000E-01  5.054498700000E-01
   5   5     3.481138600000E-01  5.356060100000E-01  5.094937800000E-01
   6   5     3.488460000000E-01  6.958607700000E-01  5.035281200000E-01
   7   1     8.655513600000E-01  2.320552300000E-01  5.045532700000E-01
   8   1     6.089219000000E-02  6.157267500000E-01  4.929629100000E-01
   9   1     8.665205600000E-01  5.184485200000E-01  4.928246100000E-01
  10   1     6.002398000000E-02  3.293352500000E-01  5.041218400000E-01
  11   1     5.555540400000E-01  8.257832700000E-01  5.042439100000E-01
  12   1     3.701577100000E-01  2.267208000000E-02  4.945951400000E-01
  13   1     2.717167500000E-01  8.287595300000E-01  4.959019900000E-01
  14   1     6.537990000000E-01  1.975917000000E-02  5.023825800000E-01
  15   1     5.556479900000E-01  6.141089100000E-01  4.977994700000E-01
  16   1     3.676996000000E-01  2.312235500000E-01  5.060826300000E-01
  17   1     2.703636600000E-01  3.272010600000E-01  5.057177500000E-01
  18   1     6.533674800000E-01  5.181063000000E-01  4.987329200000E-01
  19   6     8.551370900000E-01  3.696731200000E-01  5.004148600000E-01
  20   6     9.095252400000E-01  3.162253900000E-01  5.021809500000E-01
  21   6     1.703482000000E-02  5.315435800000E-01  4.957880400000E-01
  22   6     9.100303700000E-01  4.779668800000E-01  4.961252000000E-01
  23   6     1.660547000000E-02  3.698892100000E-01  5.015372400000E-01
  24   6     7.127497000000E-02  4.778966300000E-01  4.993539700000E-01
  25   6     4.079347800000E-01  8.154874700000E-01  5.018963200000E-01
  26   6     5.157779800000E-01  8.699095800000E-01  5.022865000000E-01
  27   6     4.097249900000E-01 -2.173495000000E-02  4.970101200000E-01
  28   6     3.555205000000E-01  8.711380200000E-01  4.981288000000E-01
  29   6     5.699720200000E-01 -2.300312000000E-02  5.008490900000E-01
  30   6     5.174176700000E-01  3.223959000000E-02  4.992248300000E-01
  31   6     4.076818100000E-01  4.767258400000E-01  4.999960500000E-01
  32   6     5.155734900000E-01  5.300655300000E-01  4.994445700000E-01
  33   6     4.083874300000E-01  3.153413300000E-01  5.039681100000E-01
  34   6     3.545328100000E-01  3.684803000000E-01  5.033601700000E-01
  35   6     5.693148400000E-01  4.768568800000E-01  5.003829300000E-01
  36   6     5.164645600000E-01  3.689428300000E-01  5.016247800000E-01
  37   8     5.240093200000E-01  2.041541100000E-01  4.996247400000E-01
  38   8     6.829384200000E-01  2.039920800000E-01  5.026147900000E-01
  39   8     6.828950400000E-01  3.634300500000E-01  4.980950700000E-01
  40   8     2.428965500000E-01  6.430025000000E-01  5.027614700000E-01
  41   8     2.420799200000E-01  4.827908400000E-01  5.102492300000E-01
  42   8     4.015146300000E-01  6.423332200000E-01  5.052332000000E-01

 *******************************************************************************

 << INFORMATION >>: FROM NOW ON, ALL COORDINATES REFER TO THE PRIMITIVE CELL

 *******************************************************************************

 LATTICE PARAMETERS  (ANGSTROMS AND DEGREES) - PRIMITIVE CELL
       A          B          C        ALPHA      BETA     GAMMA        VOLUME
   15.02070   15.04439    4.38292    66.73909  89.99936 120.05310    762.852348

 COORDINATES OF THE EQUIVALENT ATOMS (FRACTIONAL UNITS)

 N. ATOM EQUIV AT. N.          X                  Y                  Z

   1   1   1    5 B    -4.22953310000E-01  1.51180450000E-01 -4.99345140000E-01

   2   2   1    5 B    -2.64174680000E-01  3.10205640000E-01 -4.99335150000E-01

   3   3   1    5 B    -4.23296230000E-01  3.10112660000E-01  4.99234870000E-01

   4   4   1    5 B     1.89850810000E-01 -4.63272070000E-01 -4.94550130000E-01

   5   5   1    5 B     3.48113860000E-01 -4.64393990000E-01 -4.90506220000E-01

   6   6   1    5 B     3.48846000000E-01 -3.04139230000E-01 -4.96471880000E-01

   7   7   1    1 H    -1.34448640000E-01  2.32055230000E-01 -4.95446730000E-01

   8   8   1    1 H     6.08921900000E-02 -3.84273250000E-01  4.92962910000E-01

   9   9   1    1 H    -1.33479440000E-01 -4.81551480000E-01  4.92824610000E-01

  10  10   1    1 H     6.00239800000E-02  3.29335250000E-01 -4.95878160000E-01

  11  11   1    1 H    -4.44445960000E-01 -1.74216730000E-01 -4.95756090000E-01

  12  12   1    1 H     3.70157710000E-01  2.26720800000E-02  4.94595140000E-01

  13  13   1    1 H     2.71716750000E-01 -1.71240470000E-01  4.95901990000E-01

  14  14   1    1 H    -3.46201000000E-01  1.97591700000E-02 -4.97617420000E-01

  15  15   1    1 H    -4.44352010000E-01 -3.85891090000E-01  4.97799470000E-01

  16  16   1    1 H     3.67699600000E-01  2.31223550000E-01 -4.93917370000E-01

  17  17   1    1 H     2.70363660000E-01  3.27201060000E-01 -4.94282250000E-01

  18  18   1    1 H    -3.46632520000E-01 -4.81893700000E-01  4.98732920000E-01

  19  19   1    6 C    -1.44862910000E-01  3.69673120000E-01 -4.99585140000E-01

  20  20   1    6 C    -9.04747600000E-02  3.16225390000E-01 -4.97819050000E-01

  21  21   1    6 C     1.70348200000E-02 -4.68456420000E-01  4.95788040000E-01

  22  22   1    6 C    -8.99696300000E-02  4.77966880000E-01  4.96125200000E-01

  23  23   1    6 C     1.66054700000E-02  3.69889210000E-01 -4.98462760000E-01

  24  24   1    6 C     7.12749700000E-02  4.77896630000E-01  4.99353970000E-01

  25  25   1    6 C     4.07934780000E-01 -1.84512530000E-01 -4.98103680000E-01

  26  26   1    6 C    -4.84222020000E-01 -1.30090420000E-01 -4.97713500000E-01

  27  27   1    6 C     4.09724990000E-01 -2.17349500000E-02  4.97010120000E-01

  28  28   1    6 C     3.55520500000E-01 -1.28861980000E-01  4.98128800000E-01

  29  29   1    6 C    -4.30027980000E-01 -2.30031200000E-02 -4.99150910000E-01

  30  30   1    6 C    -4.82582330000E-01  3.22395900000E-02  4.99224830000E-01

  31  31   1    6 C     4.07681810000E-01  4.76725840000E-01  4.99996050000E-01

  32  32   1    6 C    -4.84426510000E-01 -4.69934470000E-01  4.99444570000E-01

  33  33   1    6 C     4.08387430000E-01  3.15341330000E-01 -4.96031890000E-01

  34  34   1    6 C     3.54532810000E-01  3.68480300000E-01 -4.96639830000E-01

  35  35   1    6 C    -4.30685160000E-01  4.76856880000E-01 -4.99617070000E-01

  36  36   1    6 C    -4.83535440000E-01  3.68942830000E-01 -4.98375220000E-01

  37  37   1    8 O    -4.75990680000E-01  2.04154110000E-01  4.99624740000E-01

  38  38   1    8 O    -3.17061580000E-01  2.03992080000E-01 -4.97385210000E-01

  39  39   1    8 O    -3.17104960000E-01  3.63430050000E-01  4.98095070000E-01

  40  40   1    8 O     2.42896550000E-01 -3.56997500000E-01 -4.97238530000E-01

  41  41   1    8 O     2.42079920000E-01  4.82790840000E-01 -4.89750770000E-01

  42  42   1    8 O     4.01514630000E-01 -3.57666780000E-01 -4.94766800000E-01

 NUMBER OF SYMMETRY OPERATORS         :    1
 *******************************************************************************
 * GEOMETRY EDITING - INPUT COORDINATES ARE GIVEN IN ANGSTROM         
 *******************************************************************************

 GCALCO - MAX INDICES DIRECT LATTICE VECTOR     9    10    32
 NO.OF VECTORS CREATED 6999 STARS 3500 RMAX   204.53707 BOHR

 GEOMETRY FOR WAVE FUNCTION - DIMENSIONALITY OF THE SYSTEM    3
 (NON PERIODIC DIRECTION: LATTICE PARAMETER FORMALLY SET TO 500)
 *******************************************************************************
 LATTICE PARAMETERS (ANGSTROMS AND DEGREES) - BOHR = 0.5291772083 ANGSTROM
 PRIMITIVE CELL - CENTRING CODE 1/0 VOLUME=   762.852348 - DENSITY  0.849 g/cm^3
         A              B              C           ALPHA      BETA       GAMMA 
    15.02070100    15.04438700     4.38292100    66.739087  89.999365 120.053104
 *******************************************************************************
 ATOMS IN THE ASYMMETRIC UNIT   42 - ATOMS IN THE UNIT CELL:   42
     ATOM                 X/A                 Y/B                 Z/C    
 *******************************************************************************
      1 T   5 B    -4.229533100000E-01  1.511804500000E-01 -4.993451400000E-01
      2 T   5 B    -2.641746800000E-01  3.102056400000E-01 -4.993351500000E-01
      3 T   5 B    -4.232962300000E-01  3.101126600000E-01  4.992348700000E-01
      4 T   5 B     1.898508100000E-01 -4.632720700000E-01 -4.945501300000E-01
      5 T   5 B     3.481138600000E-01 -4.643939900000E-01 -4.905062200000E-01
      6 T   5 B     3.488460000000E-01 -3.041392300000E-01 -4.964718800000E-01
      7 T   1 H    -1.344486400000E-01  2.320552300000E-01 -4.954467300000E-01
      8 T   1 H     6.089219000000E-02 -3.842732500000E-01  4.929629100000E-01
      9 T   1 H    -1.334794400000E-01 -4.815514800000E-01  4.928246100000E-01
     10 T   1 H     6.002398000000E-02  3.293352500000E-01 -4.958781600000E-01
     11 T   1 H    -4.444459600000E-01 -1.742167300000E-01 -4.957560900000E-01
     12 T   1 H     3.701577100000E-01  2.267208000000E-02  4.945951400000E-01
     13 T   1 H     2.717167500000E-01 -1.712404700000E-01  4.959019900000E-01
     14 T   1 H    -3.462010000000E-01  1.975917000000E-02 -4.976174200000E-01
     15 T   1 H    -4.443520100000E-01 -3.858910900000E-01  4.977994700000E-01
     16 T   1 H     3.676996000000E-01  2.312235500000E-01 -4.939173700000E-01
     17 T   1 H     2.703636600000E-01  3.272010600000E-01 -4.942822500000E-01
     18 T   1 H    -3.466325200000E-01 -4.818937000000E-01  4.987329200000E-01
     19 T   6 C    -1.448629100000E-01  3.696731200000E-01 -4.995851400000E-01
     20 T   6 C    -9.047476000000E-02  3.162253900000E-01 -4.978190500000E-01
     21 T   6 C     1.703482000000E-02 -4.684564200000E-01  4.957880400000E-01
     22 T   6 C    -8.996963000000E-02  4.779668800000E-01  4.961252000000E-01
     23 T   6 C     1.660547000000E-02  3.698892100000E-01 -4.984627600000E-01
     24 T   6 C     7.127497000000E-02  4.778966300000E-01  4.993539700000E-01
     25 T   6 C     4.079347800000E-01 -1.845125300000E-01 -4.981036800000E-01
     26 T   6 C    -4.842220200000E-01 -1.300904200000E-01 -4.977135000000E-01
     27 T   6 C     4.097249900000E-01 -2.173495000000E-02  4.970101200000E-01
     28 T   6 C     3.555205000000E-01 -1.288619800000E-01  4.981288000000E-01
     29 T   6 C    -4.300279800000E-01 -2.300312000000E-02 -4.991509100000E-01
     30 T   6 C    -4.825823300000E-01  3.223959000000E-02  4.992248300000E-01
     31 T   6 C     4.076818100000E-01  4.767258400000E-01  4.999960500000E-01
     32 T   6 C    -4.844265100000E-01 -4.699344700000E-01  4.994445700000E-01
     33 T   6 C     4.083874300000E-01  3.153413300000E-01 -4.960318900000E-01
     34 T   6 C     3.545328100000E-01  3.684803000000E-01 -4.966398300000E-01
     35 T   6 C    -4.306851600000E-01  4.768568800000E-01 -4.996170700000E-01
     36 T   6 C    -4.835354400000E-01  3.689428300000E-01 -4.983752200000E-01
     37 T   8 O    -4.759906800000E-01  2.041541100000E-01  4.996247400000E-01
     38 T   8 O    -3.170615800000E-01  2.039920800000E-01 -4.973852100000E-01
     39 T   8 O    -3.171049600000E-01  3.634300500000E-01  4.980950700000E-01
     40 T   8 O     2.428965500000E-01 -3.569975000000E-01 -4.972385300000E-01
     41 T   8 O     2.420799200000E-01  4.827908400000E-01 -4.897507700000E-01
     42 T   8 O     4.015146300000E-01 -3.576667800000E-01 -4.947668000000E-01

 T = ATOM BELONGING TO THE ASYMMETRIC UNIT

 ****    1 SYMMOPS - TRANSLATORS IN FRACTIONAL UNITS
 **** MATRICES AND TRANSLATORS IN THE CRYSTALLOGRAPHIC REFERENCE FRAME
   V INV                    ROTATION MATRICES                   TRANSLATORS
   1   1  1.00  0.00  0.00  0.00  1.00  0.00  0.00  0.00  1.00  0.00  0.00  0.00

 DIRECT LATTICE VECTORS CARTESIAN COMPONENTS (ANGSTROM)
          X                    Y                    Z
   0.130013421718E+02  -0.752240388864E+01   0.000000000000E+00
   0.000000000000E+00   0.150443870000E+02   0.000000000000E+00
   0.100153078014E+01   0.173089811810E+01   0.390011849736E+01


 CARTESIAN COORDINATES - PRIMITIVE CELL
 *******************************************************************************
 *      ATOM          X(ANGSTROM)         Y(ANGSTROM)         Z(ANGSTROM)
 *******************************************************************************
    1     5 B    -5.999070233619E+00  4.591727257386E+00 -1.947505217080E+00
    2     5 B    -3.934724930131E+00  5.789784066422E+00 -1.947466254897E+00
    3     5 B     6.996391354205E+00 -5.395172325279E-01 -1.953043346345E+00
    4     5 B     1.973008164880E+00  5.790592331902E+00 -1.928804109884E+00
    5     5 B     4.034690331416E+00  4.590194746700E+00 -1.913032381692E+00
    6     5 B    -7.961577049672E+00  1.194210979019E+00  1.963819334752E+00
    7     1 H    -2.244217923185E+00  3.644937845279E+00 -1.932300956129E+00
    8     1 H     1.285397725612E+00 -5.385942560382E+00  1.922613763803E+00
    9     1 H    -1.241832856210E+00 -5.387531377033E+00  1.922074377415E+00
   10     1 H     2.837550620515E-01  3.644807759229E+00 -1.933983584252E+00
   11     1 H    -5.273378206258E+00  1.595112944681E+00  1.966611000572E+00
   12     1 H     4.306368521507E+00 -3.318192572550E+00 -1.971138843141E+00
   13     1 H     4.029343547471E+00 -3.761815216300E+00  1.934076524076E+00
   14     1 H    -4.999456824075E+00  2.040203293121E+00 -1.940766904350E+00
   15     1 H    -5.278611035182E+00 -1.601259444050E+00  1.941476920923E+00
   16     1 H     4.285914867123E+00 -1.422889774059E-01 -1.926336270904E+00
   17     1 H     3.020051567020E+00  2.033202509786E+00 -1.927759346141E+00
   18     1 H    -4.007191629934E+00 -3.779029626624E+00  1.945117486534E+00
   19     6 C    -2.383762155920E+00  5.786491819627E+00 -1.948441245520E+00
   20     6 C    -1.674874414185E+00  4.576330776037E+00 -1.941553285243E+00
   21     6 C     7.180225061409E-01 -6.317623885915E+00  1.933632105573E+00
   22     6 C    -6.728412860937E-01 -6.318138214506E+00  1.934947069526E+00
   23     6 C    -2.833323995015E-01  4.577055117039E+00 -1.944063830521E+00
   24     6 C     4.252578642520E-01  5.786935465066E+00 -1.952578842232E+00
   25     6 C    -7.194977900306E+00  2.546607201356E+00  1.957455121388E+00
   26     6 C    -5.792480778928E+00  2.554789740336E+00  1.958976869624E+00
   27     6 C     5.824745724539E+00 -2.548831975893E+00  1.938398362387E+00
   28     6 C     5.121134995255E+00 -3.750808085909E+00  1.942761346947E+00
   29     6 C    -5.089325131576E+00  3.755695056820E+00  1.953370800295E+00
   30     6 C    -6.775759745068E+00  3.248413265121E+00 -1.953082503535E+00
   31     6 C     4.799641362900E+00  3.239844900892E+00 -1.950074654148E+00
   32     6 C    -5.797985703758E+00 -2.561336502429E+00  1.947893005863E+00
   33     6 C     4.812793510314E+00  8.134811491939E-01 -1.934583149469E+00
   34     6 C     4.112002297541E+00  2.016988299363E+00 -1.936954187508E+00
   35     6 C    -5.098336227212E+00 -3.764467959439E+00  1.951552721056E+00
   36     6 C     6.215594341265E+00  8.028269705021E-01 -1.943722414147E+00
   37     8 O     6.311683246007E+00 -1.736534903848E+00 -1.951522807147E+00
   38     8 O    -4.620372688506E+00  4.593077934829E+00 -1.939861257834E+00
   39     8 O    -3.623932545285E+00 -6.329261276863E+00  1.942629795950E+00
   40     8 O     3.661512246168E+00 -6.327745618016E+00  1.960829308906E+00
   41     8 O     2.656863402082E+00  4.594560619316E+00 -1.910086037173E+00
   42     8 O    -7.275106479221E+00 -4.321585701199E-03  1.970469348800E+00

 *******************************************************************************
 STARTING BASIS SET HANDLING 
 *******************************************************************************

 Loading internal basis set: SOLDEF2MSVP         

 Please cite in your publication:
 L. Dona', J. G. Brandenburg and B. Civalleri, J. Chem. Phys., 151, 121101 (2019
 )                                                                              
                                                                                
                    

 *******************************************************************************
 LOCAL ATOMIC FUNCTIONS BASIS SET
 *******************************************************************************
   ATOM   X(AU)   Y(AU)   Z(AU)  N. TYPE  EXPONENT  S COEF   P COEF   D/F/G COEF
 *******************************************************************************
   1 B  -11.337   8.677  -3.680
                                  1 S  
                                         2.410E+03 1.755E-03 0.000E+00 0.000E+00
                                         3.619E+02 1.344E-02 0.000E+00 0.000E+00
                                         8.231E+01 6.637E-02 0.000E+00 0.000E+00
                                         2.311E+01 2.303E-01 0.000E+00 0.000E+00
                                         7.252E+00 5.150E-01 0.000E+00 0.000E+00
                                  2 S  
                                         2.367E+00 1.000E+00 0.000E+00 0.000E+00
                                  3 S  
                                         5.533E-01 1.000E+00 0.000E+00 0.000E+00
                                  4 S  
                                         1.716E-01 1.000E+00 0.000E+00 0.000E+00
                           5-     7 P  
                                         6.002E+00 0.000E+00-3.555E-02 0.000E+00
                                         1.240E+00 0.000E+00-1.983E-01 0.000E+00
                                         3.367E-01 0.000E+00-5.048E-01 0.000E+00
                           8-    10 P  
                                         1.256E-01 0.000E+00 1.000E+00 0.000E+00
                          11-    15 D  
                                         8.880E-01 0.000E+00 0.000E+00 1.000E+00
   2 B   -7.436  10.941  -3.680
   3 B   13.221  -1.020  -3.691
   4 B    3.728  10.943  -3.645
   5 B    7.624   8.674  -3.615
   6 B  -15.045   2.257   3.711
   7 H   -4.241   6.888  -3.652
                                 91 S  
                                         1.874E+01 1.968E-02 0.000E+00 0.000E+00
                                         2.826E+00 1.380E-01 0.000E+00 0.000E+00
                                         6.401E-01 4.783E-01 0.000E+00 0.000E+00
                                 92 S  
                                         1.756E-01 1.000E+00 0.000E+00 0.000E+00
   8 H    2.429 -10.178   3.633
   9 H   -2.347 -10.181   3.632
  10 H    0.536   6.888  -3.655
  11 H   -9.965   3.014   3.716
  12 H    8.138  -6.270  -3.725
  13 H    7.614  -7.109   3.655
  14 H   -9.448   3.855  -3.668
  15 H   -9.975  -3.026   3.669
  16 H    8.099  -0.269  -3.640
  17 H    5.707   3.842  -3.643
  18 H   -7.572  -7.141   3.676
  19 C   -4.505  10.935  -3.682
                                115 S  
                                         3.624E+03 1.634E-03 0.000E+00 0.000E+00
                                         5.440E+02 1.252E-02 0.000E+00 0.000E+00
                                         1.237E+02 6.211E-02 0.000E+00 0.000E+00
                                         3.476E+01 2.182E-01 0.000E+00 0.000E+00
                                         1.093E+01 4.980E-01 0.000E+00 0.000E+00
                                116 S  
                                         3.574E+00 1.000E+00 0.000E+00 0.000E+00
                                117 S  
                                         7.742E-01 1.000E+00 0.000E+00 0.000E+00
                                118 S  
                                         2.330E-01 1.000E+00 0.000E+00 0.000E+00
                         119-   121 P  
                                         9.443E+00 0.000E+00 3.790E-02 0.000E+00
                                         2.002E+00 0.000E+00 2.082E-01 0.000E+00
                                         5.463E-01 0.000E+00 5.047E-01 0.000E+00
                         122-   124 P  
                                         1.820E-01 0.000E+00 1.000E+00 0.000E+00
                         125-   129 D  
                                         8.880E-01 0.000E+00 0.000E+00 1.000E+00
  20 C   -3.165   8.648  -3.669
  21 C    1.357 -11.939   3.654
  22 C   -1.271 -11.940   3.657
  23 C   -0.535   8.649  -3.674
  24 C    0.804  10.936  -3.690
  25 C  -13.597   4.812   3.699
  26 C  -10.946   4.828   3.702
  27 C   11.007  -4.817   3.663
  28 C    9.678  -7.088   3.671
  29 C   -9.617   7.097   3.691
  30 C  -12.804   6.139  -3.691
  31 C    9.070   6.122  -3.685
  32 C  -10.957  -4.840   3.681
  33 C    9.095   1.537  -3.656
  34 C    7.771   3.812  -3.660
  35 C   -9.634  -7.114   3.688
  36 C   11.746   1.517  -3.673
  37 O   11.927  -3.282  -3.688
                                385 S  
                                         6.773E+03 1.727E-03 0.000E+00 0.000E+00
                                         1.017E+03 1.325E-02 0.000E+00 0.000E+00
                                         2.313E+02 6.603E-02 0.000E+00 0.000E+00
                                         6.501E+01 2.353E-01 0.000E+00 0.000E+00
                                         2.050E+01 5.498E-01 0.000E+00 0.000E+00
                                386 S  
                                         6.716E+00 1.000E+00 0.000E+00 0.000E+00
                                387 S  
                                         1.147E+00 1.000E+00 0.000E+00 0.000E+00
                                388 S  
                                         3.342E-01 1.000E+00 0.000E+00 0.000E+00
                         389-   391 P  
                                         1.769E+01 0.000E+00 4.359E-02 0.000E+00
                                         3.854E+00 0.000E+00 2.318E-01 0.000E+00
                                         1.047E+00 0.000E+00 5.146E-01 0.000E+00
                         392-   394 P  
                                         2.759E-01 0.000E+00 1.000E+00 0.000E+00
                         395-   399 D  
                                         8.000E-01 0.000E+00 0.000E+00 1.000E+00
  38 O   -8.731   8.680  -3.666
  39 O   -6.848 -11.961   3.671
  40 O    6.919 -11.958   3.705
  41 O    5.021   8.682  -3.610
  42 O  -13.748  -0.008   3.724

 *******************************************************************************
 FINISHED BASIS SET HANDLING 
 *******************************************************************************

 INFORMATION **** SET_MPP **** PCRYSTAL CALCULATION
 INFORMATION **** READM2 **** NEW DEFAULT: FOCK/KS MATRIX MIXING SET TO 30 %
 INFORMATION **** READM2 **** NEW DEFAULT: FULL DIRECT SCF MODE
 INFORMATION **** READM2 **** NEW DEFAULT: COULOMB BIPOLAR BUFFER SET TO 32 Mb
 INFORMATION **** READM2 **** NEW DEFAULT: EXCHANGE BIPOLAR BUFFER SET TO 32 Mb

 *******************************************************************************
 NEW DEFAULT: DFT INTEGRATION GRID INCREASED TO XLGRID
 NEW DEFAULT: DIIS ACCELERATOR ACTIVE
 USE KEYWORD NODIIS TO TURN IT OFF
 *******************************************************************************

 WARNING **** RDDFTP **** HSEsol-HJS ACTIVE
 RANGE SEPARATION - OMEGA:   0.110000000000000     
 WARNING **** RDDFTP **** HSEsol-3c has to be combined with sol-def2-mSVP basis set
 *******************************************************************************
 N. OF ATOMS PER CELL        42  COULOMB OVERLAP TOL         (T1) 10**   -6
 NUMBER OF SHELLS           234  COULOMB PENETRATION TOL     (T2) 10**   -6
 NUMBER OF AO               474  EXCHANGE OVERLAP TOL        (T3) 10**   -6
 N. OF ELECTRONS PER CELL   198  EXCHANGE PSEUDO OVP (F(G))  (T4) 10**   -6
 CORE ELECTRONS PER CELL     60  EXCHANGE PSEUDO OVP (P(G))  (T5) 10**  -12
 N. OF SYMMETRY OPERATORS     1  POLE ORDER IN MONO ZONE                  4
 *******************************************************************************
 TYPE OF CALCULATION :  RESTRICTED CLOSED SHELL
 KOHN-SHAM HAMILTONIAN

 (EXCHANGE)[CORRELATION] FUNCTIONAL:(HSEsol GGA)[PBEsol]

 RANGE-SEPARATED HYBRID FUNCTIONAL 
 OMEGA (SHORT-RANGE)[LONG-RANGE]:(    0.1100)[    0.0000]

 HYBRID EXCHANGE - PERCENTAGE OF FOCK EXCHANGE    25.0000

 CAPPA:IS1  2;IS2  2;IS3  8; K PTS MONK NET  20; SYMMOPS:K SPACE   2;G SPACE   1

 *******************************************************************************
 MAX NUMBER OF SCF CYCLES      50  CONVERGENCE ON DELTAP        10**-16
 WEIGHT OF F(I) IN F(I+1)      30% CONVERGENCE ON ENERGY        10**- 6
 SHRINK. FACT.(MONKH.)    2  2  8  NUMBER OF K POINTS IN THE IBZ     20
 SHRINKING FACTOR(GILAT NET)    8  NUMBER OF K POINTS(GILAT NET)   1028
 *******************************************************************************
 *** K POINTS COORDINATES (OBLIQUE COORDINATES IN UNITS OF IS =  2)
   1-R(  0  0  0)   2-R(  1  0  0)   3-R(  0  1  0)   4-R(  1  1  0)
   5-C(  0  0  1)   6-C(  1  0  1)   7-C(  0  1  1)   8-C(  1  1  1)
   9-C(  0  0  2)  10-C(  1  0  2)  11-C(  0  1  2)  12-C(  1  1  2)
  13-C(  0  0  3)  14-C(  1  0  3)  15-C(  0  1  3)  16-C(  1  1  3)
  17-R(  0  0  4)  18-R(  1  0  4)  19-R(  0  1  4)  20-R(  1  1  4)

 DIRECT LATTICE VECTORS COMPON. (A.U.)     RECIP. LATTICE VECTORS COMPON. (A.U.) 
        X            Y            Z              X            Y            Z
   24.5689761  -14.2152832    0.0000000      0.2557366    0.0000000   -0.0656719
    0.0000000   28.4297713    0.0000000      0.1278719    0.2210072   -0.1309213
    1.8926189    3.2709234    7.3701558      0.0000000    0.0000000    0.8525173

 DISK SPACE FOR EIGENVECTORS (FTN 10)     7189632 REALS

 SYMMETRY ADAPTION OF THE BLOCH FUNCTIONS DISABLED
 TTTTTTTTTTTTTTTTTTTTTTTTTTTTTT gordsh1     TELAPSE        0.04 TCPU        0.04

 MATRIX SIZE: P(G)  337352, F(G)   69937, P(G) IRR  170341, F(G) IRR   70633
 MAX G-VECTOR INDEX FOR 1- AND 2-ELECTRON INTEGRALS  85

 TTTTTTTTTTTTTTTTTTTTTTTTTTTTTT INPUT       TELAPSE        0.30 TCPU        0.30

 NEIGHBORS OF THE NON-EQUIVALENT ATOMS

 N = NUMBER OF NEIGHBORS AT DISTANCE R
    ATOM  N     R/ANG      R/AU   NEIGHBORS (ATOM LABELS AND CELL INDICES)
   1 B    1     1.3787     2.6054   38 O    0 0 0
   1 B    1     1.3795     2.6068   37 O   -1 0 0
   1 B    1     1.5517     2.9323   30 C    0 0 0
   1 B    1     2.3868     4.5104    2 B    0 0 0
   1 B    1     2.3912     4.5187    3 B   -1 0 0
   1 B    1     2.5629     4.8432   27 C   -1 0-1

   2 B    1     1.3792     2.6064   38 O    0 0 0
   2 B    1     1.3798     2.6075   39 O    0 1-1
   2 B    1     1.5510     2.9309   19 C    0 0 0
   2 B    1     2.3868     4.5104    1 B    0 0 0
   2 B    1     2.3894     4.5154    3 B   -1 0 0
   2 B    1     2.5618     4.8411   22 C    0 1-1

   3 B    1     1.3790     2.6060   37 O    0 0 0
   3 B    1     1.3795     2.6069   39 O    1 1-1
   3 B    1     1.5529     2.9346   36 C    0 0 0
   3 B    1     2.3894     4.5154    2 B    1 0 0
   3 B    1     2.3912     4.5187    1 B    1 0 0
   3 B    1     2.5679     4.8526   35 C    1 1-1

   4 B    1     1.3779     2.6038   41 O    0 0 0
   4 B    1     1.3786     2.6051   40 O    0 1-1
   4 B    1     1.5479     2.9252   24 C    0 0 0
   4 B    1     2.3857     4.5084    5 B    0 0 0
   4 B    1     2.3859     4.5087    6 B    1 1-1
   4 B    1     2.5585     4.8349   21 C    0 1-1

   5 B    1     1.3778     2.6037   41 O    0 0 0
   5 B    1     1.3814     2.6104   42 O    1 1-1
   5 B    1     1.5524     2.9336   31 C    0 0 0
   5 B    1     2.3857     4.5084    4 B    0 0 0
   5 B    1     2.3952     4.5263    6 B    1 1-1
   5 B    1     2.5591     4.8359   32 C    1 1-1

   6 B    1     1.3783     2.6045   40 O   -1 0 0
   6 B    1     1.3812     2.6101   42 O    0 0 0
   6 B    1     1.5546     2.9377   25 C    0 0 0
   6 B    1     2.3859     4.5087    4 B   -1-1 1
   6 B    1     2.3952     4.5263    5 B   -1-1 1
   6 B    1     2.5605     4.8386   26 C    0 0 0

   7 H    1     1.0917     2.0629   20 C    0 0 0
   7 H    1     2.1462     4.0556   19 C    0 0 0
   7 H    1     2.1712     4.1029   23 C    0 0 0
   7 H    1     2.5280     4.7772   10 H    0 0 0
   7 H    1     2.5583     4.8346   38 O    0 0 0
   7 H    1     2.7310     5.1609    2 B    0 0 0

   8 H    1     1.0909     2.0615   21 C    0 0 0
   8 H    1     2.1454     4.0543   24 C    0-1 1
   8 H    1     2.1688     4.0985   22 C    0 0 0
   8 H    1     2.5272     4.7758    9 H    0 0 0
   8 H    1     2.5562     4.8306   40 O    0 0 0
   8 H    1     2.7244     5.1483    4 B    0-1 1

   9 H    1     1.0908     2.0614   22 C    0 0 0
   9 H    1     2.1443     4.0521   19 C    0-1 1
   9 H    1     2.1694     4.0995   21 C    0 0 0
   9 H    1     2.5272     4.7758    8 H    0 0 0
   9 H    1     2.5616     4.8407   39 O    0 0 0
   9 H    1     2.7249     5.1492    2 B    0-1 1

  10 H    1     1.0912     2.0621   23 C    0 0 0
  10 H    1     2.1469     4.0570   24 C    0 0 0
  10 H    1     2.1689     4.0986   20 C    0 0 0
  10 H    1     2.5280     4.7772    7 H    0 0 0
  10 H    1     2.5562     4.8305   41 O    0 0 0
  10 H    1     2.7309     5.1607    4 B    0 0 0

  11 H    1     1.0911     2.0619   26 C    0 0 0
  11 H    1     2.1443     4.0521   25 C    0 0 0
  11 H    1     2.1684     4.0978   29 C    0 0 0
  11 H    1     2.5223     4.7664   14 H    0 0 1
  11 H    1     2.5622     4.8419   42 O    0 0 0
  11 H    1     2.7179     5.1361    6 B    0 0 0

  12 H    1     1.0917     2.0630   27 C    0 0-1
  12 H    1     2.1441     4.0518   30 C    1 0 0
  12 H    1     2.1716     4.1037   28 C    0 0-1
  12 H    1     2.5226     4.7669   13 H    0 0-1
  12 H    1     2.5541     4.8265   37 O    0 0 0
  12 H    1     2.7237     5.1471    1 B    1 0 0

  13 H    1     1.0919     2.0634   28 C    0 0 0
  13 H    1     2.1522     4.0671   25 C    1 0 0
  13 H    1     2.1668     4.0946   27 C    0 0 0
  13 H    1     2.5226     4.7669   12 H    0 0 1
  13 H    1     2.5923     4.8987   40 O    0 0 0
  13 H    1     2.7583     5.2124    6 B    1 0 0

  14 H    1     1.0915     2.0627   29 C    0 0-1
  14 H    1     2.1483     4.0597   30 C    0 0 0
  14 H    1     2.1679     4.0968   26 C    0 0-1
  14 H    1     2.5223     4.7664   11 H    0 0-1
  14 H    1     2.5809     4.8771   38 O    0 0 0
  14 H    1     2.7404     5.1785    1 B    0 0 0

  15 H    1     1.0916     2.0628   32 C    0 0 0
  15 H    1     2.1436     4.0508   31 C   -1-1 1
  15 H    1     2.1707     4.1021   35 C    0 0 0
  15 H    1     2.5217     4.7654   18 H    0 0 0
  15 H    1     2.5568     4.8316   42 O    0 0 0
  15 H    1     2.7166     5.1336    5 B   -1-1 1

  16 H    1     1.0914     2.0625   33 C    0 0 0
  16 H    1     2.1488     4.0606   36 C    0 0 0
  16 H    1     2.1663     4.0937   34 C    0 0 0
  16 H    1     2.5170     4.7564   17 H    0 0 0
  16 H    1     2.5780     4.8717   37 O    0 0 0
  16 H    1     2.7396     5.1770    3 B    0 0 0

  17 H    1     1.0921     2.0638   34 C    0 0 0
  17 H    1     2.1502     4.0633   31 C    0 0 0
  17 H    1     2.1683     4.0976   33 C    0 0 0
  17 H    1     2.5170     4.7564   16 H    0 0 0
  17 H    1     2.5870     4.8888   41 O    0 0 0
  17 H    1     2.7510     5.1986    5 B    0 0 0

  18 H    1     1.0913     2.0622   35 C    0 0 0
  18 H    1     2.1495     4.0619   36 C   -1-1 1
  18 H    1     2.1656     4.0923   32 C    0 0 0
  18 H    1     2.5217     4.7654   15 H    0 0 0
  18 H    1     2.5789     4.8734   39 O    0 0 0
  18 H    1     2.7392     5.1763    3 B   -1-1 1

  19 C    1     1.4017     2.6489   22 C    0 1-1
  19 C    1     1.4025     2.6504   20 C    0 0 0
  19 C    1     1.5510     2.9309    2 B    0 0 0
  19 C    1     2.1443     4.0521    9 H    0 1-1
  19 C    1     2.1462     4.0556    7 H    0 0 0
  19 C    1     2.4236     4.5800   21 C    0 1-1

  20 C    1     1.0917     2.0629    7 H    0 0 0
  20 C    1     1.3915     2.6296   23 C    0 0 0
  20 C    1     1.4025     2.6504   19 C    0 0 0
  20 C    1     2.1689     4.0986   10 H    0 0 0
  20 C    1     2.4191     4.5715   22 C    0 1-1
  20 C    1     2.4241     4.5809   24 C    0 0 0

  21 C    1     1.0909     2.0615    8 H    0 0 0
  21 C    1     1.3909     2.6284   22 C    0 0 0
  21 C    1     1.4014     2.6484   24 C    0-1 1
  21 C    1     2.1694     4.0995    9 H    0 0 0
  21 C    1     2.4189     4.5711   23 C    0-1 1
  21 C    1     2.4236     4.5800   19 C    0-1 1

  22 C    1     1.0908     2.0614    9 H    0 0 0
  22 C    1     1.3909     2.6284   21 C    0 0 0
  22 C    1     1.4017     2.6489   19 C    0-1 1
  22 C    1     2.1688     4.0985    8 H    0 0 0
  22 C    1     2.4191     4.5715   20 C    0-1 1
  22 C    1     2.4226     4.5780   24 C    0-1 1

  23 C    1     1.0912     2.0621   10 H    0 0 0
  23 C    1     1.3915     2.6296   20 C    0 0 0
  23 C    1     1.4021     2.6497   24 C    0 0 0
  23 C    1     2.1712     4.1029    7 H    0 0 0
  23 C    1     2.4189     4.5711   21 C    0 1-1
  23 C    1     2.4237     4.5802   19 C    0 0 0

  24 C    1     1.4014     2.6484   21 C    0 1-1
  24 C    1     1.4021     2.6497   23 C    0 0 0
  24 C    1     1.5479     2.9252    4 B    0 0 0
  24 C    1     2.1454     4.0543    8 H    0 1-1
  24 C    1     2.1469     4.0570   10 H    0 0 0
  24 C    1     2.4226     4.5780   22 C    0 1-1

  25 C    1     1.4025     2.6504   26 C    0 0 0
  25 C    1     1.4037     2.6526   28 C   -1 0 0
  25 C    1     1.5546     2.9377    6 B    0 0 0
  25 C    1     2.1443     4.0521   11 H    0 0 0
  25 C    1     2.1522     4.0671   13 H   -1 0 0
  25 C    1     2.4271     4.5866   27 C   -1 0 0

  26 C    1     1.0911     2.0619   11 H    0 0 0
  26 C    1     1.3916     2.6298   29 C    0 0 0
  26 C    1     1.4025     2.6504   25 C    0 0 0
  26 C    1     2.1679     4.0968   14 H    0 0 1
  26 C    1     2.4165     4.5665   28 C   -1 0 0
  26 C    1     2.4246     4.5819   30 C    0 0 1

  27 C    1     1.0917     2.0630   12 H    0 0 1
  27 C    1     1.3928     2.6320   28 C    0 0 0
  27 C    1     1.4024     2.6502   30 C    1 0 1
  27 C    1     2.1668     4.0946   13 H    0 0 0
  27 C    1     2.4166     4.5668   29 C    1 0 0
  27 C    1     2.4271     4.5866   25 C    1 0 0

  28 C    1     1.0919     2.0634   13 H    0 0 0
  28 C    1     1.3928     2.6320   27 C    0 0 0
  28 C    1     1.4037     2.6526   25 C    1 0 0
  28 C    1     2.1716     4.1037   12 H    0 0 1
  28 C    1     2.4165     4.5665   26 C    1 0 0
  28 C    1     2.4277     4.5877   30 C    1 0 1

  29 C    1     1.0915     2.0627   14 H    0 0 1
  29 C    1     1.3916     2.6298   26 C    0 0 0
  29 C    1     1.4023     2.6499   30 C    0 0 1
  29 C    1     2.1684     4.0978   11 H    0 0 0
  29 C    1     2.4166     4.5668   27 C   -1 0 0
  29 C    1     2.4281     4.5884   25 C    0 0 0

  30 C    1     1.4023     2.6499   29 C    0 0-1
  30 C    1     1.4024     2.6502   27 C   -1 0-1
  30 C    1     1.5517     2.9323    1 B    0 0 0
  30 C    1     2.1441     4.0518   12 H   -1 0 0
  30 C    1     2.1483     4.0597   14 H    0 0 0
  30 C    1     2.4246     4.5819   26 C    0 0-1

  31 C    1     1.4022     2.6498   32 C    1 1-1
  31 C    1     1.4030     2.6513   34 C    0 0 0
  31 C    1     1.5524     2.9336    5 B    0 0 0
  31 C    1     2.1436     4.0508   15 H    1 1-1
  31 C    1     2.1502     4.0633   17 H    0 0 0
  31 C    1     2.4264     4.5853   33 C    0 0 0

  32 C    1     1.0916     2.0628   15 H    0 0 0
  32 C    1     1.3918     2.6301   35 C    0 0 0
  32 C    1     1.4022     2.6498   31 C   -1-1 1
  32 C    1     2.1656     4.0923   18 H    0 0 0
  32 C    1     2.4163     4.5661   34 C   -1-1 1
  32 C    1     2.4270     4.5863   36 C   -1-1 1

  33 C    1     1.0914     2.0625   16 H    0 0 0
  33 C    1     1.3927     2.6318   34 C    0 0 0
  33 C    1     1.4029     2.6510   36 C    0 0 0
  33 C    1     2.1683     4.0976   17 H    0 0 0
  33 C    1     2.4155     4.5646   35 C    1 1-1
  33 C    1     2.4264     4.5853   31 C    0 0 0

  34 C    1     1.0921     2.0638   17 H    0 0 0
  34 C    1     1.3927     2.6318   33 C    0 0 0
  34 C    1     1.4030     2.6513   31 C    0 0 0
  34 C    1     2.1663     4.0937   16 H    0 0 0
  34 C    1     2.4163     4.5661   32 C    1 1-1
  34 C    1     2.4289     4.5899   36 C    0 0 0

  35 C    1     1.0913     2.0622   18 H    0 0 0
  35 C    1     1.3918     2.6301   32 C    0 0 0
  35 C    1     1.4029     2.6511   36 C   -1-1 1
  35 C    1     2.1707     4.1021   15 H    0 0 0
  35 C    1     2.4155     4.5646   33 C   -1-1 1
  35 C    1     2.4269     4.5861   31 C   -1-1 1

  36 C    1     1.4029     2.6510   33 C    0 0 0
  36 C    1     1.4029     2.6511   35 C    1 1-1
  36 C    1     1.5529     2.9346    3 B    0 0 0
  36 C    1     2.1488     4.0606   16 H    0 0 0
  36 C    1     2.1495     4.0619   18 H    1 1-1
  36 C    1     2.4270     4.5863   32 C    1 1-1

  37 O    1     1.3790     2.6060    3 B    0 0 0
  37 O    1     1.3795     2.6068    1 B    1 0 0
  37 O    1     2.3868     4.5105   39 O    1 1-1
  37 O    1     2.3885     4.5136   38 O    1 0 0
  37 O    1     2.5389     4.7979   30 C    1 0 0
  37 O    1     2.5412     4.8022   36 C    0 0 0

  38 O    1     1.3787     2.6054    1 B    0 0 0
  38 O    1     1.3792     2.6064    2 B    0 0 0
  38 O    1     2.3885     4.5136   37 O   -1 0 0
  38 O    1     2.3912     4.5188   39 O    0 1-1
  38 O    1     2.5351     4.7906   19 C    0 0 0
  38 O    1     2.5405     4.8008   30 C    0 0 0

  39 O    1     1.3795     2.6069    3 B   -1-1 1
  39 O    1     1.3798     2.6075    2 B    0-1 1
  39 O    1     2.3868     4.5105   37 O   -1-1 1
  39 O    1     2.3912     4.5188   38 O    0-1 1
  39 O    1     2.5416     4.8030   19 C    0-1 1
  39 O    1     2.5427     4.8050   36 C   -1-1 1

  40 O    1     1.3783     2.6045    6 B    1 0 0
  40 O    1     1.3786     2.6051    4 B    0-1 1
  40 O    1     2.3876     4.5119   42 O    1 0 0
  40 O    1     2.3914     4.5190   41 O    0-1 1
  40 O    1     2.5354     4.7912   25 C    1 0 0
  40 O    1     2.5360     4.7923   24 C    0-1 1

  41 O    1     1.3778     2.6037    5 B    0 0 0
  41 O    1     1.3779     2.6038    4 B    0 0 0
  41 O    1     2.3870     4.5107   42 O    1 1-1
  41 O    1     2.3914     4.5190   40 O    0 1-1
  41 O    1     2.5305     4.7820   24 C    0 0 0
  41 O    1     2.5354     4.7912   31 C    0 0 0

  42 O    1     1.3812     2.6101    6 B    0 0 0
  42 O    1     1.3814     2.6104    5 B   -1-1 1
  42 O    1     2.3870     4.5107   41 O   -1-1 1
  42 O    1     2.3876     4.5119   40 O   -1 0 0
  42 O    1     2.5481     4.8152   31 C   -1-1 1
  42 O    1     2.5522     4.8230   25 C    0 0 0


 SYMMETRY ALLOWED INTERNAL DEGREE(S) OF FREEDOM: 123
 TTTTTTTTTTTTTTTTTTTTTTTTTTTTTT SYMM        TELAPSE        0.31 TCPU        0.30
 TTTTTTTTTTTTTTTTTTTTTTTTTTTTTT INT_SCREEN  TELAPSE        0.33 TCPU        0.33

 DFT PARAMETERS

     ATOM       ELECTRONS   NET CHARGE   R(ANGSTROM)
   1   5  B       5.0000      0.0000     0.89000000
   7   1  H       1.0000      0.0000     1.11000000
  19   6  C       6.0000      0.0000     0.77000000
  37   8  O       8.0000      0.0000     0.74000000

 SIZE OF GRID=    1302247
 TTTTTTTTTTTTTTTTTTTTTTTTTTTTTT MAKE_GRID2  TELAPSE        9.90 TCPU        9.88
 BECKE WEIGHT FUNCTION
 RADSAFE =     2.00
 TOLERANCES - DENSITY:10**- 6; POTENTIAL:10**- 9; GRID WGT:10**-14

 RADIAL INTEGRATION  - INTERVALS (POINTS,UPPER LIMIT):            1( 75,  4.0*R)

 ANGULAR INTEGRATION - INTERVALS (ACCURACY LEVEL [N. POINTS] UPPER LIMIT):
  1(  4[  86]   0.2)  2(  8[ 194]   0.5)  3( 12[ 350]   0.9)  4( 16[ 974]   3.5)
  5( 12[ 350]9999.0)
 TTTTTTTTTTTTTTTTTTTTTTTTTTTTTT INT_CALC    TELAPSE        9.99 TCPU        9.97
 EEEEEEEEEE INT_CALC TERMINATION  DATE 02 12 2025 TIME 08:02:43.4

 *******************************************************************************
 COF-5_z39_inc_L020                                                              
 CRYSTAL - SCF - TYPE OF CALCULATION :  RESTRICTED CLOSED SHELL
 *******************************************************************************

 CAPPA:IS1  2;IS2  2;IS3  8; K PTS MONK NET  20; SYMMOPS:K SPACE   2;G SPACE   1

 TTTTTTTTTTTTTTTTTTTTTTTTTTTTTT SDIK        TELAPSE       10.70 TCPU       18.08

 AAAAAAAAAAAAAAAAAAAAAAAAAAAAAAAAAAAAAAAAAAAAAAAAAAAAAAAAAAAAAAAAAAAAAAAAAAAAAAA
         ATOMIC WAVEFUNCTION(S)


 NUCLEAR CHARGE  5.0  SYMMETRY SPECIES            S    P
 N. ELECTRONS    5.0  NUMBER OF PRIMITIVE GTOS    8    4
                      NUMBER OF CONTRACTED GTOS   4    2
                      NUMBER OF CLOSED SHELLS     2    0
                      OPEN SHELL OCCUPATION       0    1

  ZNUC  SCFIT    TOTAL HF ENERGY   KINETIC ENERGY   VIRIAL THEOREM ACCURACY
   5.0    11    -2.451164084E+01  2.462155050E+01 -1.995536038E+00  1.5E-06

 NUCLEAR CHARGE  1.0  SYMMETRY SPECIES            S
 N. ELECTRONS    1.0  NUMBER OF PRIMITIVE GTOS    4
                      NUMBER OF CONTRACTED GTOS   2
                      NUMBER OF CLOSED SHELLS     0
                      OPEN SHELL OCCUPATION       1

  ZNUC  SCFIT    TOTAL HF ENERGY   KINETIC ENERGY   VIRIAL THEOREM ACCURACY
   1.0     1    -4.977266687E-01  5.190767460E-01 -1.958869132E+00  0.0E+00

 NUCLEAR CHARGE  6.0  SYMMETRY SPECIES            S    P
 N. ELECTRONS    6.0  NUMBER OF PRIMITIVE GTOS    8    4
                      NUMBER OF CONTRACTED GTOS   4    2
                      NUMBER OF CLOSED SHELLS     2    0
                      OPEN SHELL OCCUPATION       0    2

  ZNUC  SCFIT    TOTAL HF ENERGY   KINETIC ENERGY   VIRIAL THEOREM ACCURACY
   6.0     9    -3.766704647E+01  3.775180683E+01 -1.997754800E+00  1.1E-06

 NUCLEAR CHARGE  8.0  SYMMETRY SPECIES            S    P
 N. ELECTRONS    8.0  NUMBER OF PRIMITIVE GTOS    8    4
                      NUMBER OF CONTRACTED GTOS   4    2
                      NUMBER OF CLOSED SHELLS     2    0
                      OPEN SHELL OCCUPATION       0    4

  ZNUC  SCFIT    TOTAL HF ENERGY   KINETIC ENERGY   VIRIAL THEOREM ACCURACY
   8.0    12    -7.477373220E+01  7.477365593E+01 -2.000001020E+00  3.8E-06

 AAAAAAAAAAAAAAAAAAAAAAAAAAAAAAAAAAAAAAAAAAAAAAAAAAAAAAAAAAAAAAAAAAAAAAAAAAAAAAA

 CHARGE NORMALIZATION FACTOR   1.00000000
 TOTAL ATOMIC CHARGES:
   5.0000000   5.0000000   5.0000000   5.0000000   5.0000000   5.0000000
   1.0000000   1.0000000   1.0000000   1.0000000   1.0000000   1.0000000
   1.0000000   1.0000000   1.0000000   1.0000000   1.0000000   1.0000000
   6.0000000   6.0000000   6.0000000   6.0000000   6.0000000   6.0000000
   6.0000000   6.0000000   6.0000000   6.0000000   6.0000000   6.0000000
   6.0000000   6.0000000   6.0000000   6.0000000   6.0000000   6.0000000
   8.0000000   8.0000000   8.0000000   8.0000000   8.0000000   8.0000000
 TTTTTTTTTTTTTTTTTTTTTTTTTTTTTT MOQGAD      TELAPSE       10.75 TCPU       19.52
 TTTTTTTTTTTTTTTTTTTTTTTTTTTTTT SHELLXN     TELAPSE       18.42 TCPU      263.98
 TTTTTTTTTTTTTTTTTTTTTTTTTTTTTT MONMO3      TELAPSE       18.57 TCPU      268.87
 NUMERICALLY INTEGRATED DENSITY    198.0000047387
 TTTTTTTTTTTTTTTTTTTTTTTTTTTTTT NUMDFT      TELAPSE       19.13 TCPU      286.75
 CYC   0 ETOT(AU) -1.295950494077E+03 DETOT -1.30E+03 tst  0.00E+00 PX  1.00E+00
 TTTTTTTTTTTTTTTTTTTTTTTTTTTTTT DIIS        TELAPSE       19.17 TCPU      287.85
 TTTTTTTTTTTTTTTTTTTTTTTTTTTTTT FDIK        TELAPSE       19.66 TCPU      303.59
 INSULATING STATE
 TOP OF VALENCE BANDS -    BAND     99; K    1; EIG -3.0979795E-01 AU
 BOTTOM OF VIRTUAL BANDS - BAND    100; K    1; EIG -1.5753727E-01 AU
 DIRECT ENERGY BAND GAP:   4.1432 eV
 TTTTTTTTTTTTTTTTTTTTTTTTTTTTTT PDIG        TELAPSE       19.95 TCPU      309.73
 CHARGE NORMALIZATION FACTOR   1.00000000
 TOTAL ATOMIC CHARGES:
   4.1516314   4.1549639   4.1561604   4.1577571   4.1551526   4.1509356
   0.7854784   0.7854449   0.7854672   0.7854902   0.7855340   0.7854477
   0.7864115   0.7859872   0.7851941   0.7857824   0.7856537   0.7858982
   6.0457644   6.2663897   6.2664904   6.2664524   6.2651322   6.0480805
   6.0423513   6.2670575   6.2652382   6.2677757   6.2676077   6.0459326
   6.0449137   6.2664868   6.2673919   6.2659548   6.2675777   6.0424254
   8.6970195   8.6962635   8.6952332   8.6958493   8.6940087   8.6982126
 TTTTTTTTTTTTTTTTTTTTTTTTTTTTTT MOQGAD      TELAPSE       19.99 TCPU      309.78
 TTTTTTTTTTTTTTTTTTTTTTTTTTTTTT SHELLXN     TELAPSE       27.94 TCPU      563.23
 TTTTTTTTTTTTTTTTTTTTTTTTTTTTTT MONMO3      TELAPSE       28.10 TCPU      568.10
 NUMERICALLY INTEGRATED DENSITY    198.0000062321
 TTTTTTTTTTTTTTTTTTTTTTTTTTTTTT NUMDFT      TELAPSE       28.67 TCPU      586.26
 CYC   1 ETOT(AU) -1.288817468401E+03 DETOT  7.13E+00 tst  0.00E+00 PX  1.00E+00
 TTTTTTTTTTTTTTTTTTTTTTTTTTTTTT DIIS        TELAPSE       28.71 TCPU      587.73
 DIIS TEST: 0.11007E+01 AT SCF   CYCLE   1 - MIX   30 %
 TTTTTTTTTTTTTTTTTTTTTTTTTTTTTT FDIK        TELAPSE       29.22 TCPU      603.80
 INSULATING STATE
 TOP OF VALENCE BANDS -    BAND     99; K    1; EIG -2.1922964E-01 AU
 BOTTOM OF VIRTUAL BANDS - BAND    100; K    1; EIG -7.9767930E-02 AU
 DIRECT ENERGY BAND GAP:   3.7949 eV
 TTTTTTTTTTTTTTTTTTTTTTTTTTTTTT PDIG        TELAPSE       29.51 TCPU      609.94
 CHARGE NORMALIZATION FACTOR   1.00000000
 TOTAL ATOMIC CHARGES:
   4.6961149   4.7014164   4.7014581   4.7019111   4.7007288   4.6962617
   0.9135458   0.9139244   0.9178273   0.9177098   0.9123495   0.9119723
   0.9129734   0.9132276   0.9130723   0.9136291   0.9174141   0.9176425
   5.8656810   6.1215940   6.1195709   6.1400131   6.1425579   5.8618987
   5.8750110   6.1298449   6.1323419   6.1350349   6.1328475   5.8706347
   5.8680594   6.1161951   6.1192885   6.1428208   6.1395665   5.8681489
   8.3377250   8.3363331   8.3491463   8.3348898   8.3463251   8.3412917
 TTTTTTTTTTTTTTTTTTTTTTTTTTTTTT MOQGAD      TELAPSE       29.55 TCPU      609.99
 TTTTTTTTTTTTTTTTTTTTTTTTTTTTTT SHELLXN     TELAPSE       37.50 TCPU      863.41
 TTTTTTTTTTTTTTTTTTTTTTTTTTTTTT MONMO3      TELAPSE       37.65 TCPU      868.28
 NUMERICALLY INTEGRATED DENSITY    198.0000107034
 TTTTTTTTTTTTTTTTTTTTTTTTTTTTTT NUMDFT      TELAPSE       38.22 TCPU      886.52
 CYC   2 ETOT(AU) -1.289011994656E+03 DETOT -1.95E-01 tst  4.17E-03 PX  1.58E-01
 TTTTTTTTTTTTTTTTTTTTTTTTTTTTTT DIIS        TELAPSE       38.27 TCPU      888.02
 DIIS TEST: 0.46327E+00 AT SCF   CYCLE   2 - DIIS ACTIVE - HISTORY:     2 CYCLES
 TTTTTTTTTTTTTTTTTTTTTTTTTTTTTT FDIK        TELAPSE       38.77 TCPU      904.04
 INSULATING STATE
 TOP OF VALENCE BANDS -    BAND     99; K    1; EIG -2.3266324E-01 AU
 BOTTOM OF VIRTUAL BANDS - BAND    100; K    1; EIG -7.5442359E-02 AU
 DIRECT ENERGY BAND GAP:   4.2782 eV
 TTTTTTTTTTTTTTTTTTTTTTTTTTTTTT PDIG        TELAPSE       39.07 TCPU      910.19
 CHARGE NORMALIZATION FACTOR   1.00000000
 TOTAL ATOMIC CHARGES:
   4.4897994   4.4925987   4.4930467   4.4944018   4.4922665   4.4891752
   0.8893326   0.8891957   0.8923309   0.8924726   0.8885567   0.8884357
   0.8901079   0.8895024   0.8881876   0.8893531   0.8926896   0.8922505
   5.8887095   6.1610350   6.1621099   6.1601763   6.1602253   5.8909104
   5.8958342   6.1587503   6.1589243   6.1615548   6.1614913   5.8973073
   5.8899147   6.1609627   6.1612453   6.1611305   6.1619040   5.8889935
   8.5156363   8.5150932   8.5120915   8.5146045   8.5100102   8.5176807
 TTTTTTTTTTTTTTTTTTTTTTTTTTTTTT MOQGAD      TELAPSE       39.11 TCPU      910.24
 TTTTTTTTTTTTTTTTTTTTTTTTTTTTTT SHELLXN     TELAPSE       47.06 TCPU     1163.73
 TTTTTTTTTTTTTTTTTTTTTTTTTTTTTT MONMO3      TELAPSE       47.22 TCPU     1168.62
 NUMERICALLY INTEGRATED DENSITY    198.0000103920
 TTTTTTTTTTTTTTTTTTTTTTTTTTTTTT NUMDFT      TELAPSE       47.79 TCPU     1186.82
 CYC   3 ETOT(AU) -1.289108766299E+03 DETOT -9.68E-02 tst  7.22E-04 PX  6.32E-02
 TTTTTTTTTTTTTTTTTTTTTTTTTTTTTT DIIS        TELAPSE       47.84 TCPU     1188.57
 DIIS TEST: 0.11791E-01 AT SCF   CYCLE   3 - DIIS ACTIVE - HISTORY:     3 CYCLES
 TTTTTTTTTTTTTTTTTTTTTTTTTTTTTT FDIK        TELAPSE       48.35 TCPU     1204.72
 INSULATING STATE
 TOP OF VALENCE BANDS -    BAND     99; K    1; EIG -2.4369968E-01 AU
 BOTTOM OF VIRTUAL BANDS - BAND    100; K    1; EIG -8.4533467E-02 AU
 DIRECT ENERGY BAND GAP:   4.3311 eV
 TTTTTTTTTTTTTTTTTTTTTTTTTTTTTT PDIG        TELAPSE       48.64 TCPU     1210.87
 CHARGE NORMALIZATION FACTOR   1.00000000
 TOTAL ATOMIC CHARGES:
   4.4969826   4.4978002   4.4979649   4.4992738   4.4971440   4.4967054
   0.8726846   0.8731238   0.8749231   0.8749701   0.8707522   0.8706128
   0.8720001   0.8719167   0.8721943   0.8729391   0.8750159   0.8751405
   5.9413404   6.1589054   6.1565035   6.1721416   6.1728950   5.9385475
   5.9474054   6.1654056   6.1658852   6.1677057   6.1662941   5.9456879
   5.9418026   6.1554537   6.1577067   6.1736213   6.1716985   5.9406409
   8.4806374   8.4793160   8.4894895   8.4781345   8.4873802   8.4832573
 TTTTTTTTTTTTTTTTTTTTTTTTTTTTTT MOQGAD      TELAPSE       48.69 TCPU     1210.92
 TTTTTTTTTTTTTTTTTTTTTTTTTTTTTT SHELLXN     TELAPSE       56.64 TCPU     1464.39
 TTTTTTTTTTTTTTTTTTTTTTTTTTTTTT MONMO3      TELAPSE       56.79 TCPU     1469.25
 NUMERICALLY INTEGRATED DENSITY    198.0000100047
 TTTTTTTTTTTTTTTTTTTTTTTTTTTTTT NUMDFT      TELAPSE       57.36 TCPU     1487.39
 CYC   4 ETOT(AU) -1.289111199617E+03 DETOT -2.43E-03 tst  2.90E-05 PX  1.24E-02
 TTTTTTTTTTTTTTTTTTTTTTTTTTTTTT DIIS        TELAPSE       57.42 TCPU     1489.31
 DIIS TEST: 0.40409E-02 AT SCF   CYCLE   4 - DIIS ACTIVE - HISTORY:     4 CYCLES
 TTTTTTTTTTTTTTTTTTTTTTTTTTTTTT FDIK        TELAPSE       57.92 TCPU     1505.30
 INSULATING STATE
 TOP OF VALENCE BANDS -    BAND     99; K    1; EIG -2.4159844E-01 AU
 BOTTOM OF VIRTUAL BANDS - BAND    100; K    1; EIG -8.3756561E-02 AU
 DIRECT ENERGY BAND GAP:   4.2951 eV
 TTTTTTTTTTTTTTTTTTTTTTTTTTTTTT PDIG        TELAPSE       58.21 TCPU     1511.44
 CHARGE NORMALIZATION FACTOR   1.00000000
 TOTAL ATOMIC CHARGES:
   4.4970580   4.5000630   4.5004216   4.5015899   4.4995561   4.4966335
   0.8758271   0.8757868   0.8786345   0.8786628   0.8746373   0.8744332
   0.8759587   0.8755461   0.8749211   0.8759342   0.8788295   0.8786091
   5.9192756   6.1620585   6.1625834   6.1695774   6.1702049   5.9203866
   5.9254378   6.1652989   6.1659808   6.1681180   6.1675583   5.9256884
   5.9208944   6.1609189   6.1618077   6.1706766   6.1705987   5.9200807
   8.4932302   8.4923316   8.4945860   8.4916838   8.4924041   8.4955161
 TTTTTTTTTTTTTTTTTTTTTTTTTTTTTT MOQGAD      TELAPSE       58.26 TCPU     1511.49
 TTTTTTTTTTTTTTTTTTTTTTTTTTTTTT SHELLXN     TELAPSE       66.20 TCPU     1764.86
 TTTTTTTTTTTTTTTTTTTTTTTTTTTTTT MONMO3      TELAPSE       66.36 TCPU     1769.73
 NUMERICALLY INTEGRATED DENSITY    198.0000100861
 TTTTTTTTTTTTTTTTTTTTTTTTTTTTTT NUMDFT      TELAPSE       66.92 TCPU     1787.88
 CYC   5 ETOT(AU) -1.289112124291E+03 DETOT -9.25E-04 tst  5.80E-06 PX  6.80E-03
 TTTTTTTTTTTTTTTTTTTTTTTTTTTTTT DIIS        TELAPSE       66.99 TCPU     1790.01
 DIIS TEST: 0.76723E-04 AT SCF   CYCLE   5 - DIIS ACTIVE - HISTORY:     5 CYCLES
 TTTTTTTTTTTTTTTTTTTTTTTTTTTTTT FDIK        TELAPSE       67.49 TCPU     1805.92
 INSULATING STATE
 TOP OF VALENCE BANDS -    BAND     99; K    1; EIG -2.4135502E-01 AU
 BOTTOM OF VIRTUAL BANDS - BAND    100; K    1; EIG -8.3170512E-02 AU
 DIRECT ENERGY BAND GAP:   4.3044 eV
 TTTTTTTTTTTTTTTTTTTTTTTTTTTTTT PDIG        TELAPSE       67.78 TCPU     1812.07
 CHARGE NORMALIZATION FACTOR   1.00000000
 TOTAL ATOMIC CHARGES:
   4.4974561   4.4993913   4.4996387   4.5009021   4.4988401   4.4970776
   0.8766960   0.8770148   0.8795498   0.8796471   0.8755341   0.8754125
   0.8768335   0.8766083   0.8760623   0.8769067   0.8796930   0.8796913
   5.9207092   6.1621788   6.1602845   6.1696345   6.1700193   5.9188208
   5.9266826   6.1649193   6.1650891   6.1673642   6.1665182   5.9260056
   5.9210698   6.1594356   6.1611870   6.1710606   6.1697688   5.9198493
   8.4916073   8.4906500   8.4962896   8.4895409   8.4942432   8.4941164
 TTTTTTTTTTTTTTTTTTTTTTTTTTTTTT MOQGAD      TELAPSE       67.83 TCPU     1812.12
 TTTTTTTTTTTTTTTTTTTTTTTTTTTTTT SHELLXN     TELAPSE       75.78 TCPU     2065.58
 TTTTTTTTTTTTTTTTTTTTTTTTTTTTTT MONMO3      TELAPSE       75.93 TCPU     2070.46
 NUMERICALLY INTEGRATED DENSITY    198.0000100953
 TTTTTTTTTTTTTTTTTTTTTTTTTTTTTT NUMDFT      TELAPSE       76.50 TCPU     2088.60
 CYC   6 ETOT(AU) -1.289112142056E+03 DETOT -1.78E-05 tst  1.90E-07 PX  1.17E-03
 TTTTTTTTTTTTTTTTTTTTTTTTTTTTTT DIIS        TELAPSE       76.57 TCPU     2090.86
 DIIS TEST: 0.14746E-04 AT SCF   CYCLE   6 - DIIS ACTIVE - HISTORY:     6 CYCLES
 TTTTTTTTTTTTTTTTTTTTTTTTTTTTTT FDIK        TELAPSE       77.07 TCPU     2106.80
 INSULATING STATE
 TOP OF VALENCE BANDS -    BAND     99; K    1; EIG -2.4139684E-01 AU
 BOTTOM OF VIRTUAL BANDS - BAND    100; K    1; EIG -8.3246166E-02 AU
 DIRECT ENERGY BAND GAP:   4.3035 eV
 TTTTTTTTTTTTTTTTTTTTTTTTTTTTTT PDIG        TELAPSE       77.36 TCPU     2112.95
 CHARGE NORMALIZATION FACTOR   1.00000000
 TOTAL ATOMIC CHARGES:
   4.4972367   4.4997078   4.5000502   4.5012811   4.4992161   4.4968184
   0.8767871   0.8768213   0.8795121   0.8795486   0.8755106   0.8753157
   0.8768289   0.8764791   0.8759384   0.8769175   0.8797095   0.8795234
   5.9198478   6.1611871   6.1613660   6.1690424   6.1697019   5.9205439
   5.9264130   6.1645070   6.1652104   6.1673782   6.1664802   5.9262434
   5.9213104   6.1597600   6.1608898   6.1702128   6.1698675   5.9204587
   8.4923140   8.4912856   8.4948667   8.4906185   8.4926921   8.4946002
 TTTTTTTTTTTTTTTTTTTTTTTTTTTTTT MOQGAD      TELAPSE       77.41 TCPU     2113.00
 TTTTTTTTTTTTTTTTTTTTTTTTTTTTTT SHELLXN     TELAPSE       85.36 TCPU     2366.51
 TTTTTTTTTTTTTTTTTTTTTTTTTTTTTT MONMO3      TELAPSE       85.51 TCPU     2371.37
 NUMERICALLY INTEGRATED DENSITY    198.0000101037
 TTTTTTTTTTTTTTTTTTTTTTTTTTTTTT NUMDFT      TELAPSE       86.08 TCPU     2389.53
 CYC   7 ETOT(AU) -1.289112144620E+03 DETOT -2.56E-06 tst  5.58E-08 PX  5.35E-04
 TTTTTTTTTTTTTTTTTTTTTTTTTTTTTT DIIS        TELAPSE       86.16 TCPU     2392.01
 DIIS TEST: 0.18054E-05 AT SCF   CYCLE   7 - DIIS ACTIVE - HISTORY:     7 CYCLES
 TTTTTTTTTTTTTTTTTTTTTTTTTTTTTT FDIK        TELAPSE       86.66 TCPU     2407.94
 INSULATING STATE
 TOP OF VALENCE BANDS -    BAND     99; K    1; EIG -2.4139580E-01 AU
 BOTTOM OF VIRTUAL BANDS - BAND    100; K    1; EIG -8.3269878E-02 AU
 DIRECT ENERGY BAND GAP:   4.3028 eV
 TTTTTTTTTTTTTTTTTTTTTTTTTTTTTT PDIG        TELAPSE       86.95 TCPU     2414.09
 CHARGE NORMALIZATION FACTOR   1.00000000
 TOTAL ATOMIC CHARGES:
   4.4973586   4.4997779   4.5000830   4.5012994   4.4992442   4.4969477
   0.8766930   0.8768325   0.8794669   0.8795301   0.8754567   0.8752979
   0.8767855   0.8764500   0.8759191   0.8768526   0.8796421   0.8795248
   5.9203203   6.1616002   6.1608865   6.1692302   6.1697223   5.9198432
   5.9262879   6.1647180   6.1651074   6.1672498   6.1666733   5.9261668
   5.9212664   6.1596596   6.1609397   6.1704550   6.1698132   5.9202781
   8.4921650   8.4912700   8.4951761   8.4903627   8.4930541   8.4945922
 TTTTTTTTTTTTTTTTTTTTTTTTTTTTTT MOQGAD      TELAPSE       86.99 TCPU     2414.13
 TTTTTTTTTTTTTTTTTTTTTTTTTTTTTT SHELLXN     TELAPSE       94.95 TCPU     2667.58
 TTTTTTTTTTTTTTTTTTTTTTTTTTTTTT MONMO3      TELAPSE       95.10 TCPU     2672.45
 NUMERICALLY INTEGRATED DENSITY    198.0000101012
 TTTTTTTTTTTTTTTTTTTTTTTTTTTTTT NUMDFT      TELAPSE       95.67 TCPU     2690.59
 CYC   8 ETOT(AU) -1.289112144929E+03 DETOT -3.09E-07 tst  1.21E-08 PX  1.70E-04
 TTTTTTTTTTTTTTTTTTTTTTTTTTTTTT DIIS        TELAPSE       95.75 TCPU     2693.23
 DIIS TEST: 0.16433E-06 AT SCF   CYCLE   8 - DIIS ACTIVE - HISTORY:     8 CYCLES
 TTTTTTTTTTTTTTTTTTTTTTTTTTTTTT FDIK        TELAPSE       96.25 TCPU     2709.25
 INSULATING STATE
 TOP OF VALENCE BANDS -    BAND     99; K    1; EIG -2.4139673E-01 AU
 BOTTOM OF VIRTUAL BANDS - BAND    100; K    1; EIG -8.3266683E-02 AU
 DIRECT ENERGY BAND GAP:   4.3029 eV
 TTTTTTTTTTTTTTTTTTTTTTTTTTTTTT PDIG        TELAPSE       96.54 TCPU     2715.40
 CHARGE NORMALIZATION FACTOR   1.00000000
 TOTAL ATOMIC CHARGES:
   4.4973621   4.4997436   4.5000530   4.5012876   4.4992272   4.4969613
   0.8766956   0.8768135   0.8794667   0.8795212   0.8754602   0.8752864
   0.8767700   0.8764583   0.8759091   0.8768477   0.8796435   0.8795164
   5.9200687   6.1614949   6.1610579   6.1692152   6.1697967   5.9200183
   5.9264058   6.1646508   6.1651955   6.1674070   6.1665237   5.9260834
   5.9212307   6.1596770   6.1609914   6.1704840   6.1698326   5.9202370
   8.4921733   8.4911762   8.4952433   8.4903769   8.4931128   8.4945235
 TTTTTTTTTTTTTTTTTTTTTTTTTTTTTT MOQGAD      TELAPSE       96.59 TCPU     2715.45
 TTTTTTTTTTTTTTTTTTTTTTTTTTTTTT SHELLXN     TELAPSE      104.53 TCPU     2968.84
 +++ ENERGIES IN A.U. +++
 ::: EXT EL-POLE                                  -1.2935069666255E+03
 ::: EXT EL-SPHEROPOLE                             1.4675605983621E+01
 ::: BIELET ZONE E-E                               2.1664900514502E+03
 ::: TOTAL E-E                                     8.8765869080838E+02
 ::: TOTAL E-N + N-E                              -3.6039509878794E+03
 ::: TOTAL N-N                                     2.8098909154198E+02
 ::: KINETIC ENERGY                                1.2799001133232E+03
 ::: PSEUDO TOTAL   ENERGY                        -1.1554030922059E+03
 ::: VIRIAL COEFFICIENT                            1.0511217744200E+00
 TTTTTTTTTTTTTTTTTTTTTTTTTTTTTT MONMO3      TELAPSE      104.69 TCPU     2973.71
 NUMERICALLY INTEGRATED DENSITY    198.0000101016
 EXCHANGE ENERGY: -0.126018335138E+03  CORRELATION ENERGY: -0.769071765006E+01
 TTTTTTTTTTTTTTTTTTTTTTTTTTTTTT NUMDFT      TELAPSE      105.26 TCPU     2991.84
 CYC   9 ETOT(AU) -1.289112144994E+03 DETOT -6.48E-08 tst  1.75E-09 PX  1.70E-04

 == SCF ENDED - CONVERGENCE ON ENERGY      E(AU) -1.2891121449937E+03 CYCLES   9


 ENERGY EXPRESSION=HARTREE+FOCK EXCH*0.00000+(HSESOL     EXCH)*1.00000+PBESOL     CORR


 TOTAL ENERGY(DFT)(AU)(  9) -1.2891121449937E+03 DE-6.5E-08 tester 1.8E-09
 TTTTTTTTTTTTTTTTTTTTTTTTTTTTTT EDFT        TELAPSE      105.26 TCPU     2991.85
 
 INFORMATION **** DFTD3 ENERGY **** CALCULATE DFTD3 ENERGY

           DFT-D V3(BJ)
 DF                                         hsesol3c  
 parameters
 s6       :    1.0000
 s8       :    0.0000
 a1       :    0.5196
 a2       :    4.9385
 k1 k3    :   16.0000   -4.0000
 Cutoff   :   50.2022
 CN-Cutoff:   21.1671
 ABC-Cutoff:   21.1671
 
 Edisp /kcal,au:   -26.3316 -0.04196201

 E6    /kcal :   -28.0495
 E8    /kcal :     0.0000
 E6(ABC) "   :   1.717971
 
 INFORMATION **** DFTD3 ENERGY **** NORMAL TERMINATION OF DFTD3 MODULE

 GCP ENERGY CALCULATION
  level        hsesol3c            basis:hsesol3c
  Nbf            474
  Atoms           42

  Parameters: 
  sigma     1.0000
  eta       1.4281
  alpha     0.2936
  beta      1.9467

  dmp_scal      4.0000
  dmp_exp       6.0000
 cutoffs: 
   distance [bohr] 60.0
   noise    [a.u.] 2.2E-16
 SR-damping   T
 ** gCP correction **
  Egcp:        0.0830233253 / (a.u.) ||      52.0979 / (kcal/mol)
 INFORMATION **** GCP **** NORMAL TERMINATION OF GCP MODULE

 *******************************************************************************

 DFT-D3-GCP DISPERSION AND COUNTERPOISE CORRECTION

 D3 DISPERSION ENERGY (AU)      -4.1962007522681E-02
 GCP ENERGY (AU)                 8.3023325260670E-02
 TOTAL ENERGY + DISP + GCP (AU) -1.2890710836759E+03

 *******************************************************************************

 EIGENVECTORS IN FORTRAN UNIT 10
 TTTTTTTTTTTTTTTTTTTTTTTTTTTTTT END         TELAPSE      106.41 TCPU     2998.99
 EEEEEEEEEE TERMINATION  DATE 02 12 2025 TIME 08:04:19.9
