 Default number of threads is:           64

         
 *******************************************************************************
 *                                                                             *
 *                               CRYSTAL23                                     *
 *                      public : 1.0.1 - October 2022                          *
 *                       HTTP://WWW.CRYSTAL.UNITO.IT                           *
 *                                                                             *
 *                              MAIN AUTHORS                                   *
 *                                                                             *
 *  R. DOVESI(1,11), V.R. SAUNDERS(2), C. ROETTI(1,11), R. ORLANDO(1,11),      *
 *  C.M. ZICOVICH-WILSON(1,3), F. PASCALE(4), B. CIVALLERI(1,11),              *
 *  K. DOLL(5), N.M. HARRISON(6), I.J. BUSH(7), Ph. D'ARCO(8),                 *
 *  M. LLUNELL(9), M. CAUSA'(10), Y. NOEL(8), L. MASCHIO(1,11), A. ERBA(1,11)  *
 *  M. RE'RAT(14), S. CASASSA(1,11), B.G. SEARLE(2), J.K. DESMARAIS(1)         *
 *                                                                             *
 *        CONTRIBUTIONS TO THE CODE HAVE ALSO BEEN GIVEN BY                    *
 *                                                                             *
 *  M. FERRABONE(1,11), M. DE LA PIERRE(1,11), M. FERRERO(1,11),               *
 *  J. BAIMA(1,11), E. ALBANESE(1,11), M.F. PEINTINGER(12), R. BAST(13),       *
 *  B. KIRTMAN(15), V. LACIVITA(1,11), R. DEMICHELIS(1,16)                     *
 *  G. BRANDEBURG(17), S. SALUSTRO(1,11), G. SANSONE(1,11)                     *
 *  M.T. RUGGIERO(18), L.E. DAGA(1), L. DONA'(1), A. COSSARD(1)                *
 *                                                                             *
 * (1) THEORETICAL CHEMISTRY GROUP - UNIVERSITA' DI TORINO - TORINO (ITALY)    *
 * (2) SCIENTIFIC COMPUTING DEPARTMENT - STFC DARESBURY (UK)                   *
 * (3) UNIVERSIDAD AUTONOMA DEL ESTADO DE MORELOS - CUERNAVACA (MEXICO)        *
 * (4) UNIVERSITE' DE LORRAINE - NANCY (FRANCE)                                *
 * (5) UNIVERSITAET STUTTGART- STUTTGART (GERMANY)                             *
 * (6) IMPERIAL COLLEGE - LONDON (UK)                                          *
 * (7) SCIENTIFIC COMPUTING DEPARTMENT - STFC RAL (UK)                         *
 * (8) UPMC - SORBONNE UNIVERSITES - PARIS (FRANCE)                            *
 * (9) UNIVERSIDAD DE BARCELONA - BARCELONA (SPAIN)                            *
 *(10) UNIVERSITA' DI NAPOLI "FEDERICO II" - NAPOLI (ITALY)                    *
 *(11) NIS - NANOSTRUCTURED INTERFACES AND SURFACES - TORINO (ITALY)           *
 *(12) MPI FUER CHEMISCHE ENERGIEKONVERSION - MUELHEIM AN DER RUHR (GERMANY)   *
 *(13) UNIVERSITY OF TROMSO - TROMSO (NORWAY)                                  *
 *(14) UNIVERSITE' DE PAU ET DES PAYS DE L'ADOUR - PAU (FRANCE)                *
 *(15) UNIVERSITY OF CALIFORNIA SANTA BARBARA - SANTA BARBARA (USA)            *
 *(16) CURTIN UNIVERSITY - PERTH (AUSTRALIA)                                   *
 *(17) UNIVERSITY COLLEGE LONDON - LONDON (UK)                                 *
 *(18) UNIVERSITY OF VERMONT - BURLINGTON (USA)                                *
 *                                                                             *
 *******************************************************************************
 EEEEEEEEEE STARTING  DATE 20 02 2026 TIME 12:31:45.7
 cof-1_z33_L020_incl                                                             

 CRYSTAL CALCULATION
 (INPUT ACCORDING TO THE INTERNATIONAL TABLES FOR X-RAY CRYSTALLOGRAPHY)
 CRYSTAL FAMILY                       :  TRICLINIC   
 CRYSTAL CLASS  (GROTH - 1921)        :  TRICLINIC PEDIAL                     

 SPACE GROUP (NONCENTROSYMMETRIC)     :  P 1             

 LATTICE PARAMETERS  (ANGSTROMS AND DEGREES) - CONVENTIONAL CELL
        A           B           C        ALPHA        BETA       GAMMA
    15.02361    15.02392     3.85876    63.32841    89.99995   119.99596


 NUMBER OF IRREDUCIBLE ATOMS IN THE CONVENTIONAL CELL:   42

 INPUT COORDINATES

 ATOM AT. N.              COORDINATES
   1   5     5.751461700000E-01  1.502416400000E-01  5.014456900000E-01
   2   5     7.342018200000E-01  3.093013000000E-01  5.014457100000E-01
   3   5     5.753757700000E-01  3.097518800000E-01  4.984023300000E-01
   4   5     1.887208700000E-01  5.365566400000E-01  5.014457100000E-01
   5   5     3.478288500000E-01  5.365358700000E-01  5.014457000000E-01
   6   5     3.480430000000E-01  6.961428600000E-01  4.984023300000E-01
   7   1     8.649941100000E-01  2.328233000000E-01  4.951361700000E-01
   8   1     5.865917000000E-02  6.150949900000E-01  4.941713300000E-01
   9   1     8.650074700000E-01  5.181368100000E-01  4.940228300000E-01
  10   1     5.876938000000E-02  3.297436200000E-01  4.940598700000E-01
  11   1     6.522356300000E-01  1.940268000000E-02  5.048602900000E-01
  12   1     2.700588000000E-01  8.256875600000E-01  5.058251800000E-01
  13   1     3.669876500000E-01  1.927739000000E-02  5.059737600000E-01
  14   1     5.554327300000E-01  8.255804600000E-01  5.059364800000E-01
  15   1     6.530232300000E-01  5.179474500000E-01  4.951362200000E-01
  16   1     2.709864700000E-01  3.296508900000E-01  4.941712700000E-01
  17   1     3.678766300000E-01  2.328876400000E-01  4.940227200000E-01
  18   1     5.563240700000E-01  6.150165900000E-01  4.940599900000E-01
  19   6     8.535983700000E-01  3.693520200000E-01  4.982909700000E-01
  20   6     9.084281900000E-01  3.166560500000E-01  4.952846500000E-01
  21   6     1.534716000000E-02  5.310956400000E-01  4.950249400000E-01
  22   6     9.083512500000E-01  4.774827300000E-01  4.958043400000E-01
  23   6     1.547951000000E-02  3.703485900000E-01  4.938000700000E-01
  24   6     6.993219000000E-02  4.778204700000E-01  4.958414200000E-01
  25   6     5.154850800000E-01  3.105194000000E-02  5.017055200000E-01
  26   6     5.683924900000E-01 -2.402267000000E-02  5.047117900000E-01
  27   6     3.539933400000E-01  8.690446200000E-01  5.049715800000E-01
  28   6     4.075421400000E-01 -2.389589000000E-02  5.041922200000E-01
  29   6     5.148174100000E-01  8.688167600000E-01  5.061963300000E-01
  30   6     4.071853300000E-01  8.144990200000E-01  5.041550600000E-01
  31   6     5.157529300000E-01  3.692828800000E-01  4.982909700000E-01
  32   6     5.691493000000E-01  4.774961900000E-01  4.952847100000E-01
  33   6     3.547824100000E-01  3.700823800000E-01  4.950248800000E-01
  34   6     4.081864100000E-01  3.164805500000E-01  4.958042600000E-01
  35   6     5.157961200000E-01  5.311966000000E-01  4.938001500000E-01
  36   6     4.078562800000E-01  4.777430700000E-01  4.958414200000E-01
  37   8     5.223734300000E-01  2.036363400000E-01  4.992188300000E-01
  38   8     6.808250400000E-01  2.026571000000E-01  5.056396200000E-01
  39   8     6.815671600000E-01  3.630911900000E-01  4.959527900000E-01
  40   8     2.419612600000E-01  6.429168100000E-01  4.992188700000E-01
  41   8     2.414873100000E-01  4.829743900000E-01  5.056396100000E-01
  42   8     4.011515800000E-01  6.434031500000E-01  4.959527700000E-01

 *******************************************************************************

 << INFORMATION >>: FROM NOW ON, ALL COORDINATES REFER TO THE PRIMITIVE CELL

 *******************************************************************************

 LATTICE PARAMETERS  (ANGSTROMS AND DEGREES) - PRIMITIVE CELL
       A          B          C        ALPHA      BETA     GAMMA        VOLUME
   15.02361   15.02392    3.85876    63.32841  89.99995 119.99596    645.091384

 COORDINATES OF THE EQUIVALENT ATOMS (FRACTIONAL UNITS)

 N. ATOM EQUIV AT. N.          X                  Y                  Z

   1   1   1    5 B    -4.24853830000E-01  1.50241640000E-01 -4.98554310000E-01

   2   2   1    5 B    -2.65798180000E-01  3.09301300000E-01 -4.98554290000E-01

   3   3   1    5 B    -4.24624230000E-01  3.09751880000E-01  4.98402330000E-01

   4   4   1    5 B     1.88720870000E-01 -4.63443360000E-01 -4.98554290000E-01

   5   5   1    5 B     3.47828850000E-01 -4.63464130000E-01 -4.98554300000E-01

   6   6   1    5 B     3.48043000000E-01 -3.03857140000E-01  4.98402330000E-01

   7   7   1    1 H    -1.35005890000E-01  2.32823300000E-01  4.95136170000E-01

   8   8   1    1 H     5.86591700000E-02 -3.84905010000E-01  4.94171330000E-01

   9   9   1    1 H    -1.34992530000E-01 -4.81863190000E-01  4.94022830000E-01

  10  10   1    1 H     5.87693800000E-02  3.29743620000E-01  4.94059870000E-01

  11  11   1    1 H    -3.47764370000E-01  1.94026800000E-02 -4.95139710000E-01

  12  12   1    1 H     2.70058800000E-01 -1.74312440000E-01 -4.94174820000E-01

  13  13   1    1 H     3.66987650000E-01  1.92773900000E-02 -4.94026240000E-01

  14  14   1    1 H    -4.44567270000E-01 -1.74419540000E-01 -4.94063520000E-01

  15  15   1    1 H    -3.46976770000E-01 -4.82052550000E-01  4.95136220000E-01

  16  16   1    1 H     2.70986470000E-01  3.29650890000E-01  4.94171270000E-01

  17  17   1    1 H     3.67876630000E-01  2.32887640000E-01  4.94022720000E-01

  18  18   1    1 H    -4.43675930000E-01 -3.84983410000E-01  4.94059990000E-01

  19  19   1    6 C    -1.46401630000E-01  3.69352020000E-01  4.98290970000E-01

  20  20   1    6 C    -9.15718100000E-02  3.16656050000E-01  4.95284650000E-01

  21  21   1    6 C     1.53471600000E-02 -4.68904360000E-01  4.95024940000E-01

  22  22   1    6 C    -9.16487500000E-02  4.77482730000E-01  4.95804340000E-01

  23  23   1    6 C     1.54795100000E-02  3.70348590000E-01  4.93800070000E-01

  24  24   1    6 C     6.99321900000E-02  4.77820470000E-01  4.95841420000E-01

  25  25   1    6 C    -4.84514920000E-01  3.10519400000E-02 -4.98294480000E-01

  26  26   1    6 C    -4.31607510000E-01 -2.40226700000E-02 -4.95288210000E-01

  27  27   1    6 C     3.53993340000E-01 -1.30955380000E-01 -4.95028420000E-01

  28  28   1    6 C     4.07542140000E-01 -2.38958900000E-02 -4.95807780000E-01

  29  29   1    6 C    -4.85182590000E-01 -1.31183240000E-01 -4.93803670000E-01

  30  30   1    6 C     4.07185330000E-01 -1.85500980000E-01 -4.95844940000E-01

  31  31   1    6 C    -4.84247070000E-01  3.69282880000E-01  4.98290970000E-01

  32  32   1    6 C    -4.30850700000E-01  4.77496190000E-01  4.95284710000E-01

  33  33   1    6 C     3.54782410000E-01  3.70082380000E-01  4.95024880000E-01

  34  34   1    6 C     4.08186410000E-01  3.16480550000E-01  4.95804260000E-01

  35  35   1    6 C    -4.84203880000E-01 -4.68803400000E-01  4.93800150000E-01

  36  36   1    6 C     4.07856280000E-01  4.77743070000E-01  4.95841420000E-01

  37  37   1    8 O    -4.77626570000E-01  2.03636340000E-01  4.99218830000E-01

  38  38   1    8 O    -3.19174960000E-01  2.02657100000E-01 -4.94360380000E-01

  39  39   1    8 O    -3.18432840000E-01  3.63091190000E-01  4.95952790000E-01

  40  40   1    8 O     2.41961260000E-01 -3.57083190000E-01  4.99218870000E-01

  41  41   1    8 O     2.41487310000E-01  4.82974390000E-01 -4.94360390000E-01

  42  42   1    8 O     4.01151580000E-01 -3.56596850000E-01  4.95952770000E-01

 NUMBER OF SYMMETRY OPERATORS         :    1
 *******************************************************************************
 * GEOMETRY EDITING - INPUT COORDINATES ARE GIVEN IN ANGSTROM         
 *******************************************************************************
 INFORMATION **** NEW DEFAULT **** FINALRUN 4 FOR GEOMETRY OPTIMIZATIONS
 INFORMATION **** NEW DEFAULT **** OPTGEOM OPTIMIZES BOTH ATOMIC COORDINATES AND CELL PARAMETERS
 INFORMATION **** NEW DEFAULT **** TOL. ON ATOMIC DISP TO REDEFINE REF. GEOMETRY: 0.8 Angs
 INFORMATION **** NEW DEFAULT **** N POINTS TO REDEFINE REF. GEOMETRY: N OF OPT DEGS OF FREEDOM
 INFORMATION **** NEW DEFAULT **** TOL. ON ENERGY TO REDEFINE REF. GEOMETRY: 10**-3*(5*N. ATOMS)
 INFORMATION **** MAXTRADIUS **** MAX ALLOWED TRUST RADIUS  8.000000E-01

 IMPORTANT INFORMATION:
 THE COORDINATE SYSTEM ADOPTED IN THE OPTIMIZATION IS NOT IN
 GENERAL HOMOGENEOUS UNITS. FOR THIS REASON THE GRADIENT AND 
 HESSIAN MATRIX IN TERMS OF THIS SYSTEM ARE GIVEN WITHOUT
 UNITS. FOR MORE DETAILS SEE THE MANUAL.

 *******************************************************************************
 COMBINED CELL/ATOM OPTIMIZATION CONTROL

 INITIAL TRUST RADIUS         0.50000 MAXIMUM TRUST RADIUS               0.80000
 MAXIMUM GRADIENT COMPONENT   0.00045 MAXIMUM DISPLACEMENT COMPONENT     0.00180
 R.M.S. OF GRADIENT COMPONENT 0.00030 R.M.S. OF DISPLACEMENT COMPONENTS  0.00120
 THRESHOLD ON ENERGY CHANGE 0.100E-06 EXTRAPOLATING POLYNOMIAL ORDER           2
 MAXIMUM ALLOWED NUMBER OF STEPS   -1 SORTING OF ENERGY POINTS:               NO
 ANALYTICAL  GRADIENT                 HESSIAN UPDATING                      BFGS
 STEP SIZE NUMERICAL GRADIENT 0.00100
 INITIAL HESSIAN MATRIX: SCHLEGEL MODEL 2
 *******************************************************************************


 GCALCO - MAX INDICES DIRECT LATTICE VECTOR     9    10    34
 NO.OF VECTORS CREATED 6999 STARS 3500 RMAX   193.96677 BOHR

 GEOMETRY FOR WAVE FUNCTION - DIMENSIONALITY OF THE SYSTEM    3
 (NON PERIODIC DIRECTION: LATTICE PARAMETER FORMALLY SET TO 500)
 *******************************************************************************
 LATTICE PARAMETERS (ANGSTROMS AND DEGREES) - BOHR = 0.5291772083 ANGSTROM
 PRIMITIVE CELL - CENTRING CODE 1/0 VOLUME=   645.091384 - DENSITY  1.004 g/cm^3
         A              B              C           ALPHA      BETA       GAMMA 
    15.02361100    15.02391600     3.85875600    63.328415  89.999952 119.995964
 *******************************************************************************
 ATOMS IN THE ASYMMETRIC UNIT   42 - ATOMS IN THE UNIT CELL:   42
     ATOM                 X/A                 Y/B                 Z/C    
 *******************************************************************************
      1 T   5 B    -4.248538300000E-01  1.502416400000E-01 -4.985543100000E-01
      2 T   5 B    -2.657981800000E-01  3.093013000000E-01 -4.985542900000E-01
      3 T   5 B    -4.246242300000E-01  3.097518800000E-01  4.984023300000E-01
      4 T   5 B     1.887208700000E-01 -4.634433600000E-01 -4.985542900000E-01
      5 T   5 B     3.478288500000E-01 -4.634641300000E-01 -4.985543000000E-01
      6 T   5 B     3.480430000000E-01 -3.038571400000E-01  4.984023300000E-01
      7 T   1 H    -1.350058900000E-01  2.328233000000E-01  4.951361700000E-01
      8 T   1 H     5.865917000000E-02 -3.849050100000E-01  4.941713300000E-01
      9 T   1 H    -1.349925300000E-01 -4.818631900000E-01  4.940228300000E-01
     10 T   1 H     5.876938000000E-02  3.297436200000E-01  4.940598700000E-01
     11 T   1 H    -3.477643700000E-01  1.940268000000E-02 -4.951397100000E-01
     12 T   1 H     2.700588000000E-01 -1.743124400000E-01 -4.941748200000E-01
     13 T   1 H     3.669876500000E-01  1.927739000000E-02 -4.940262400000E-01
     14 T   1 H    -4.445672700000E-01 -1.744195400000E-01 -4.940635200000E-01
     15 T   1 H    -3.469767700000E-01 -4.820525500000E-01  4.951362200000E-01
     16 T   1 H     2.709864700000E-01  3.296508900000E-01  4.941712700000E-01
     17 T   1 H     3.678766300000E-01  2.328876400000E-01  4.940227200000E-01
     18 T   1 H    -4.436759300000E-01 -3.849834100000E-01  4.940599900000E-01
     19 T   6 C    -1.464016300000E-01  3.693520200000E-01  4.982909700000E-01
     20 T   6 C    -9.157181000000E-02  3.166560500000E-01  4.952846500000E-01
     21 T   6 C     1.534716000000E-02 -4.689043600000E-01  4.950249400000E-01
     22 T   6 C    -9.164875000000E-02  4.774827300000E-01  4.958043400000E-01
     23 T   6 C     1.547951000000E-02  3.703485900000E-01  4.938000700000E-01
     24 T   6 C     6.993219000000E-02  4.778204700000E-01  4.958414200000E-01
     25 T   6 C    -4.845149200000E-01  3.105194000000E-02 -4.982944800000E-01
     26 T   6 C    -4.316075100000E-01 -2.402267000000E-02 -4.952882100000E-01
     27 T   6 C     3.539933400000E-01 -1.309553800000E-01 -4.950284200000E-01
     28 T   6 C     4.075421400000E-01 -2.389589000000E-02 -4.958077800000E-01
     29 T   6 C    -4.851825900000E-01 -1.311832400000E-01 -4.938036700000E-01
     30 T   6 C     4.071853300000E-01 -1.855009800000E-01 -4.958449400000E-01
     31 T   6 C    -4.842470700000E-01  3.692828800000E-01  4.982909700000E-01
     32 T   6 C    -4.308507000000E-01  4.774961900000E-01  4.952847100000E-01
     33 T   6 C     3.547824100000E-01  3.700823800000E-01  4.950248800000E-01
     34 T   6 C     4.081864100000E-01  3.164805500000E-01  4.958042600000E-01
     35 T   6 C    -4.842038800000E-01 -4.688034000000E-01  4.938001500000E-01
     36 T   6 C     4.078562800000E-01  4.777430700000E-01  4.958414200000E-01
     37 T   8 O    -4.776265700000E-01  2.036363400000E-01  4.992188300000E-01
     38 T   8 O    -3.191749600000E-01  2.026571000000E-01 -4.943603800000E-01
     39 T   8 O    -3.184328400000E-01  3.630911900000E-01  4.959527900000E-01
     40 T   8 O     2.419612600000E-01 -3.570831900000E-01  4.992188700000E-01
     41 T   8 O     2.414873100000E-01  4.829743900000E-01 -4.943603900000E-01
     42 T   8 O     4.011515800000E-01 -3.565968500000E-01  4.959527700000E-01

 T = ATOM BELONGING TO THE ASYMMETRIC UNIT

 ****    1 SYMMOPS - TRANSLATORS IN FRACTIONAL UNITS
 **** MATRICES AND TRANSLATORS IN THE CRYSTALLOGRAPHIC REFERENCE FRAME
   V INV                    ROTATION MATRICES                   TRANSLATORS
   1   1  1.00  0.00  0.00  0.00  1.00  0.00 -0.00 -0.00  1.00  0.00  0.00  0.00

 DIRECT LATTICE VECTORS CARTESIAN COMPONENTS (ANGSTROM)
          X                    Y                    Z
   0.130113578931E+02  -0.751088897922E+01   0.000000000000E+00
   0.000000000000E+00   0.150239160000E+02   0.000000000000E+00
   0.999870918605E+00   0.173210252980E+01   0.330001164239E+01


 CARTESIAN COORDINATES - PRIMITIVE CELL
 *******************************************************************************
 *      ATOM          X(ANGSTROM)         Y(ANGSTROM)         Z(ANGSTROM)
 *******************************************************************************
    1     5 B    -6.026415190280E+00  4.584700546994E+00 -1.645235027365E+00
    2     5 B    -3.956885183220E+00  5.779750223798E+00 -1.645234961365E+00
    3     5 B     6.984887143390E+00 -5.367158969873E-01 -1.655278150797E+00
    4     5 B     1.957024845542E+00  5.780173239020E+00 -1.645234961365E+00
    5     5 B     4.027235706965E+00  4.584818801476E+00 -1.645234994365E+00
    6     5 B     4.026979112100E+00  6.975860926498E+00 -1.655278150797E+00
    7     1 H    -2.261408613933E+00  3.637456036226E+00 -1.666056516823E+00
    8     1 H     1.257342996255E+00 -5.367407640855E+00  1.630771142337E+00
    9     1 H    -1.262477059875E+00 -5.369859990577E+00  1.630281090608E+00
   10     1 H     2.587946137910E-01  3.636289980759E+00 -1.669608319354E+00
   11     1 H    -5.019962477199E+00  2.045891064197E+00 -1.633966807611E+00
   12     1 H     4.019591586349E+00 -3.771096047062E+00  1.669228983016E+00
   13     1 H     4.281045186078E+00 -3.322485707925E+00 -1.630292343648E+00
   14     1 H    -5.278552684496E+00  1.594964747970E+00  1.669596274311E+00
   15     1 H    -4.019566627921E+00 -3.778586321692E+00  1.633955290570E+00
   16     1 H     3.020138508424E+00  2.041150766768E+00 -1.669240698057E+00
   17     1 H     4.280662525675E+00 -1.406007118888E-01 -1.669730914786E+00
   18     1 H    -5.278830097718E+00 -1.595795201702E+00  1.630403719041E+00
   19     6 C    -2.406528272755E+00  5.779708632131E+00 -1.655645640094E+00
   20     6 C    -1.696123793463E+00  4.570980860064E+00 -1.665566531094E+00
   21     6 C     6.946484328920E-01 -6.302616580693E+00  1.633588065275E+00
   22     6 C    -6.967343458173E-01 -6.303108035096E+00  1.636160094349E+00
   23     6 C    -3.047251443876E-01  4.571031046479E+00 -1.670465662379E+00
   24     6 C     4.058192498282E-01  5.780227337359E+00 -1.663729183612E+00
   25     6 C     6.208930704958E+00 -4.268326597518E+00 -1.644377585340E+00
   26     6 C    -5.111153140843E+00  3.755054082309E+00  1.665554783053E+00
   27     6 C     5.110840436062E+00 -3.751604753796E+00  1.666412093078E+00
   28     6 C     5.806803778207E+00 -2.546700992231E+00  1.663840196004E+00
   29     6 C    -5.806753332499E+00  2.550050533539E+00  1.670453782337E+00
   30     6 C     5.802124040394E+00 -4.972026694196E+00  1.663717567571E+00
   31     6 C     6.209001687924E+00  8.053004913366E-01 -1.655645640094E+00
   32     6 C    -5.110731878215E+00 -3.756097677641E+00  1.634445309299E+00
   33     6 C     4.111290973564E+00  2.020686614074E+00 -1.666423775119E+00
   34     6 C     4.806928809882E+00  8.156156737311E-01 -1.663851812045E+00
   35     6 C    -5.806413566299E+00 -2.551148827099E+00  1.629546244015E+00
   36     6 C     4.802670525504E+00  3.240954162868E+00 -1.663729183612E+00
   37     8 O     6.296071123086E+00 -1.731477903148E+00 -1.652583691291E+00
   38     8 O    -4.647196202334E+00  4.585708071879E+00 -1.631395009538E+00
   39     8 O    -2.647483955816E+00 -4.586007140505E+00  4.936661623470E+00
   40     8 O     3.647398980247E+00 -6.317433745053E+00  1.647428083102E+00
   41     8 O     2.647781239770E+00  4.586099408060E+00 -1.631395042538E+00
   42     8 O    -7.295942364587E+00 -5.560746876701E-04  1.636649915077E+00

 *******************************************************************************
 STARTING BASIS SET HANDLING 
 *******************************************************************************

 Loading internal basis set: SOLDEF2MSVP         

 Please cite in your publication:
 L. Dona', J. G. Brandenburg and B. Civalleri, J. Chem. Phys., 151, 121101 (2019
 )                                                                              
                                                                                
                    

 *******************************************************************************
 LOCAL ATOMIC FUNCTIONS BASIS SET
 *******************************************************************************
   ATOM   X(AU)   Y(AU)   Z(AU)  N. TYPE  EXPONENT  S COEF   P COEF   D/F/G COEF
 *******************************************************************************
   1 B  -11.388   8.664  -3.109
                                  1 S  
                                         2.410E+03 1.755E-03 0.000E+00 0.000E+00
                                         3.619E+02 1.344E-02 0.000E+00 0.000E+00
                                         8.231E+01 6.637E-02 0.000E+00 0.000E+00
                                         2.311E+01 2.303E-01 0.000E+00 0.000E+00
                                         7.252E+00 5.150E-01 0.000E+00 0.000E+00
                                  2 S  
                                         2.367E+00 1.000E+00 0.000E+00 0.000E+00
                                  3 S  
                                         5.533E-01 1.000E+00 0.000E+00 0.000E+00
                                  4 S  
                                         1.716E-01 1.000E+00 0.000E+00 0.000E+00
                           5-     7 P  
                                         6.002E+00 0.000E+00-3.555E-02 0.000E+00
                                         1.240E+00 0.000E+00-1.983E-01 0.000E+00
                                         3.367E-01 0.000E+00-5.048E-01 0.000E+00
                           8-    10 P  
                                         1.256E-01 0.000E+00 1.000E+00 0.000E+00
                          11-    15 D  
                                         8.880E-01 0.000E+00 0.000E+00 1.000E+00
   2 B   -7.477  10.922  -3.109
   3 B   13.200  -1.014  -3.128
   4 B    3.698  10.923  -3.109
   5 B    7.610   8.664  -3.109
   6 B    7.610  13.182  -3.128
   7 H   -4.273   6.874  -3.148
                                 91 S  
                                         1.874E+01 1.968E-02 0.000E+00 0.000E+00
                                         2.826E+00 1.380E-01 0.000E+00 0.000E+00
                                         6.401E-01 4.783E-01 0.000E+00 0.000E+00
                                 92 S  
                                         1.756E-01 1.000E+00 0.000E+00 0.000E+00
   8 H    2.376 -10.143   3.082
   9 H   -2.386 -10.148   3.081
  10 H    0.489   6.872  -3.155
  11 H   -9.486   3.866  -3.088
  12 H    7.596  -7.126   3.154
  13 H    8.090  -6.279  -3.081
  14 H   -9.975   3.014   3.155
  15 H   -7.596  -7.140   3.088
  16 H    5.707   3.857  -3.154
  17 H    8.089  -0.266  -3.155
  18 H   -9.976  -3.016   3.081
  19 C   -4.548  10.922  -3.129
                                115 S  
                                         3.624E+03 1.634E-03 0.000E+00 0.000E+00
                                         5.440E+02 1.252E-02 0.000E+00 0.000E+00
                                         1.237E+02 6.211E-02 0.000E+00 0.000E+00
                                         3.476E+01 2.182E-01 0.000E+00 0.000E+00
                                         1.093E+01 4.980E-01 0.000E+00 0.000E+00
                                116 S  
                                         3.574E+00 1.000E+00 0.000E+00 0.000E+00
                                117 S  
                                         7.742E-01 1.000E+00 0.000E+00 0.000E+00
                                118 S  
                                         2.330E-01 1.000E+00 0.000E+00 0.000E+00
                         119-   121 P  
                                         9.443E+00 0.000E+00 3.790E-02 0.000E+00
                                         2.002E+00 0.000E+00 2.082E-01 0.000E+00
                                         5.463E-01 0.000E+00 5.047E-01 0.000E+00
                         122-   124 P  
                                         1.820E-01 0.000E+00 1.000E+00 0.000E+00
                         125-   129 D  
                                         8.880E-01 0.000E+00 0.000E+00 1.000E+00
  20 C   -3.205   8.638  -3.147
  21 C    1.313 -11.910   3.087
  22 C   -1.317 -11.911   3.092
  23 C   -0.576   8.638  -3.157
  24 C    0.767  10.923  -3.144
  25 C   11.733  -8.066  -3.107
  26 C   -9.659   7.096   3.147
  27 C    9.658  -7.090   3.149
  28 C   10.973  -4.813   3.144
  29 C  -10.973   4.819   3.157
  30 C   10.964  -9.396   3.144
  31 C   11.733   1.522  -3.129
  32 C   -9.658  -7.098   3.089
  33 C    7.769   3.819  -3.149
  34 C    9.084   1.541  -3.144
  35 C  -10.973  -4.821   3.079
  36 C    9.076   6.125  -3.144
  37 O   11.898  -3.272  -3.123
                                385 S  
                                         6.773E+03 1.727E-03 0.000E+00 0.000E+00
                                         1.017E+03 1.325E-02 0.000E+00 0.000E+00
                                         2.313E+02 6.603E-02 0.000E+00 0.000E+00
                                         6.501E+01 2.353E-01 0.000E+00 0.000E+00
                                         2.050E+01 5.498E-01 0.000E+00 0.000E+00
                                386 S  
                                         6.716E+00 1.000E+00 0.000E+00 0.000E+00
                                387 S  
                                         1.147E+00 1.000E+00 0.000E+00 0.000E+00
                                388 S  
                                         3.342E-01 1.000E+00 0.000E+00 0.000E+00
                         389-   391 P  
                                         1.769E+01 0.000E+00 4.359E-02 0.000E+00
                                         3.854E+00 0.000E+00 2.318E-01 0.000E+00
                                         1.047E+00 0.000E+00 5.146E-01 0.000E+00
                         392-   394 P  
                                         2.759E-01 0.000E+00 1.000E+00 0.000E+00
                         395-   399 D  
                                         8.000E-01 0.000E+00 0.000E+00 1.000E+00
  38 O   -8.782   8.666  -3.083
  39 O   -5.003  -8.666   9.329
  40 O    6.893 -11.938   3.113
  41 O    5.004   8.666  -3.083
  42 O  -13.787  -0.001   3.093

 *******************************************************************************
 FINISHED BASIS SET HANDLING 
 *******************************************************************************

 INFORMATION **** SET_MPP **** PCRYSTAL CALCULATION
 INFORMATION **** READM2 **** NEW DEFAULT: FOCK/KS MATRIX MIXING SET TO 30 %
 INFORMATION **** READM2 **** NEW DEFAULT: FULL DIRECT SCF MODE
 INFORMATION **** READM2 **** NEW DEFAULT: COULOMB BIPOLAR BUFFER SET TO 32 Mb
 INFORMATION **** READM2 **** NEW DEFAULT: EXCHANGE BIPOLAR BUFFER SET TO 32 Mb

 *******************************************************************************
 NEW DEFAULT: DFT INTEGRATION GRID INCREASED TO XLGRID
 NEW DEFAULT: DIIS ACCELERATOR ACTIVE
 USE KEYWORD NODIIS TO TURN IT OFF
 *******************************************************************************

 WARNING **** RDDFTP **** HSEsol-HJS ACTIVE
 RANGE SEPARATION - OMEGA:   0.110000000000000     
 WARNING **** RDDFTP **** HSEsol-3c has to be combined with sol-def2-mSVP basis set
 *******************************************************************************
 N. OF ATOMS PER CELL        42  COULOMB OVERLAP TOL         (T1) 10**   -6
 NUMBER OF SHELLS           234  COULOMB PENETRATION TOL     (T2) 10**   -6
 NUMBER OF AO               474  EXCHANGE OVERLAP TOL        (T3) 10**   -6
 N. OF ELECTRONS PER CELL   198  EXCHANGE PSEUDO OVP (F(G))  (T4) 10**   -6
 CORE ELECTRONS PER CELL     60  EXCHANGE PSEUDO OVP (P(G))  (T5) 10**  -12
 N. OF SYMMETRY OPERATORS     1  POLE ORDER IN MONO ZONE                  4
 *******************************************************************************
 TYPE OF CALCULATION :  RESTRICTED CLOSED SHELL
 KOHN-SHAM HAMILTONIAN

 (EXCHANGE)[CORRELATION] FUNCTIONAL:(HSEsol GGA)[PBEsol]

 RANGE-SEPARATED HYBRID FUNCTIONAL 
 OMEGA (SHORT-RANGE)[LONG-RANGE]:(    0.1100)[    0.0000]

 HYBRID EXCHANGE - PERCENTAGE OF FOCK EXCHANGE    25.0000

 CAPPA:IS1  2;IS2  2;IS3  8; K PTS MONK NET  20; SYMMOPS:K SPACE   2;G SPACE   1

 *******************************************************************************
 MAX NUMBER OF SCF CYCLES      50  CONVERGENCE ON DELTAP        10**-16
 WEIGHT OF F(I) IN F(I+1)      30% CONVERGENCE ON ENERGY        10**- 7
 SHRINK. FACT.(MONKH.)    2  2  8  NUMBER OF K POINTS IN THE IBZ     20
 SHRINKING FACTOR(GILAT NET)    8  NUMBER OF K POINTS(GILAT NET)   1028
 *******************************************************************************
 *** K POINTS COORDINATES (OBLIQUE COORDINATES IN UNITS OF IS =  2)
   1-R(  0  0  0)   2-R(  1  0  0)   3-R(  0  1  0)   4-R(  1  1  0)
   5-C(  0  0  1)   6-C(  1  0  1)   7-C(  0  1  1)   8-C(  1  1  1)
   9-C(  0  0  2)  10-C(  1  0  2)  11-C(  0  1  2)  12-C(  1  1  2)
  13-C(  0  0  3)  14-C(  1  0  3)  15-C(  0  1  3)  16-C(  1  1  3)
  17-R(  0  0  4)  18-R(  1  0  4)  19-R(  0  1  4)  20-R(  1  1  4)

 DIRECT LATTICE VECTORS COMPON. (A.U.)     RECIP. LATTICE VECTORS COMPON. (A.U.) 
        X            Y            Z              X            Y            Z
   24.5879030  -14.1935232    0.0000000      0.2555397    0.0000000   -0.0774260
    0.0000000   28.3910867    0.0000000      0.1277517    0.2213084   -0.1548673
    1.8894822    3.2731994    6.2361182      0.0000000    0.0000000    1.0075475

 DISK SPACE FOR EIGENVECTORS (FTN 10)     7189632 REALS

 SYMMETRY ADAPTION OF THE BLOCH FUNCTIONS DISABLED
 TTTTTTTTTTTTTTTTTTTTTTTTTTTTTT gordsh1     TELAPSE        0.05 TCPU        0.05

 MATRIX SIZE: P(G)  396782, F(G)   81706, P(G) IRR  200674, F(G) IRR   82438
 MAX G-VECTOR INDEX FOR 1- AND 2-ELECTRON INTEGRALS  75

 TTTTTTTTTTTTTTTTTTTTTTTTTTTTTT INPUT       TELAPSE        0.35 TCPU        0.34

 NEIGHBORS OF THE NON-EQUIVALENT ATOMS

 N = NUMBER OF NEIGHBORS AT DISTANCE R
    ATOM  N     R/ANG      R/AU   NEIGHBORS (ATOM LABELS AND CELL INDICES)
   1 B    1     1.3791     2.6061   37 O   -1 0 0
   1 B    1     1.3793     2.6065   38 O    0 0 0
   1 B    1     1.5503     2.9297   25 C   -1 0 0
   1 B    1     2.3895     4.5155    3 B   -1 0 0
   1 B    1     2.3898     4.5160    2 B    0 0 0
   1 B    1     2.5632     4.8437   26 C    0 0-1

   2 B    1     1.3793     2.6065   39 O    0 1-2
   2 B    1     1.3793     2.6065   38 O    0 0 0
   2 B    1     1.5504     2.9298   19 C    0 0 0
   2 B    1     2.3895     4.5156    3 B   -1 0 0
   2 B    1     2.3898     4.5160    1 B    0 0 0
   2 B    1     2.5634     4.8440   22 C    0 1-1

   3 B    1     1.3791     2.6061   37 O    0 0 0
   3 B    1     1.3793     2.6064   39 O    1 1-2
   3 B    1     1.5502     2.9294   31 C    0 0 0
   3 B    1     2.3895     4.5155    1 B    1 0 0
   3 B    1     2.3895     4.5156    2 B    1 0 0
   3 B    1     2.5629     4.8433   32 C    1 1-1

   4 B    1     1.3795     2.6068   40 O    0 1-1
   4 B    1     1.3795     2.6070   41 O    0 0 0
   4 B    1     1.5513     2.9316   24 C    0 0 0
   4 B    1     2.3905     4.5174    6 B    0 0 0
   4 B    1     2.3905     4.5175    5 B    0 0 0
   4 B    1     2.5648     4.8468   23 C    0 0 0

   5 B    1     1.3795     2.6069   41 O    0 0 0
   5 B    1     1.3797     2.6072   42 O    1 1-1
   5 B    1     1.5516     2.9322   36 C    0 0 0
   5 B    1     2.3905     4.5175    4 B    0 0 0
   5 B    1     2.3911     4.5185    6 B    0 0 0
   5 B    1     2.5651     4.8473   35 C    1 1-1

   6 B    1     1.3795     2.6068   40 O    0 1-1
   6 B    1     1.3796     2.6071   42 O    1 1-1
   6 B    1     1.5516     2.9322   30 C    0 1-1
   6 B    1     2.3905     4.5174    4 B    0 0 0
   6 B    1     2.3911     4.5185    5 B    0 0 0
   6 B    1     2.5651     4.8473   29 C    1 1-1

   7 H    1     1.0913     2.0623   20 C    0 0 0
   7 H    1     2.1472     4.0576   19 C    0 0 0
   7 H    1     2.1680     4.0969   23 C    0 0 0
   7 H    1     2.5202     4.7625   10 H    0 0 0
   7 H    1     2.5676     4.8520   38 O    0 0 0
   7 H    1     2.7321     5.1630    2 B    0 0 0

   8 H    1     1.0914     2.0625   21 C    0 0 0
   8 H    1     2.1493     4.0616   24 C    0-1 1
   8 H    1     2.1666     4.0942   22 C    0 0 0
   8 H    1     2.5198     4.7618    9 H    0 0 0
   8 H    1     2.5720     4.8604   40 O    0 0 0
   8 H    1     2.7362     5.1707    4 B    0-1 1

   9 H    1     1.0914     2.0624   22 C    0 0 0
   9 H    1     2.1471     4.0575   19 C    0-1 1
   9 H    1     2.1680     4.0970   21 C    0 0 0
   9 H    1     2.5198     4.7618    8 H    0 0 0
   9 H    1     2.5665     4.8500   39 O    0 0-1
   9 H    1     2.7315     5.1618    2 B    0-1 1

  10 H    1     1.0915     2.0626   23 C    0 0 0
  10 H    1     2.1490     4.0610   24 C    0 0 0
  10 H    1     2.1669     4.0948   20 C    0 0 0
  10 H    1     2.5202     4.7625    7 H    0 0 0
  10 H    1     2.5712     4.8588   41 O    0 0 0
  10 H    1     2.7351     5.1686    4 B    0 0 0

  11 H    1     1.0913     2.0623   26 C    0 0-1
  11 H    1     2.1469     4.0571   25 C   -1 0 0
  11 H    1     2.1680     4.0968   29 C    0 0-1
  11 H    1     2.5198     4.7617   14 H    0 0-1
  11 H    1     2.5670     4.8510   38 O    0 0 0
  11 H    1     2.7310     5.1609    1 B    0 0 0

  12 H    1     1.0914     2.0625   27 C    0 0 0
  12 H    1     2.1493     4.0617   30 C    0 0 0
  12 H    1     2.1664     4.0939   28 C    0 0 0
  12 H    1     2.5192     4.7606   13 H    0 0 1
  12 H    1     2.5735     4.8632   40 O    0 0 0
  12 H    1     2.7371     5.1723    6 B    0-1 1

  13 H    1     1.0914     2.0624   28 C    0 0-1
  13 H    1     2.1475     4.0581   25 C    0 0 0
  13 H    1     2.1679     4.0967   27 C    0 0-1
  13 H    1     2.5192     4.7606   12 H    0 0-1
  13 H    1     2.5675     4.8519   37 O    0 0 0
  13 H    1     2.7328     5.1643    1 B    1 0 0

  14 H    1     1.0914     2.0625   29 C    0 0 0
  14 H    1     2.1491     4.0612   30 C   -1 0 0
  14 H    1     2.1666     4.0942   26 C    0 0 0
  14 H    1     2.5198     4.7617   11 H    0 0 1
  14 H    1     2.5723     4.8609   42 O    0 0 0
  14 H    1     2.7355     5.1693    6 B   -1-1 1

  15 H    1     1.0914     2.0624   32 C    0 0 0
  15 H    1     2.1475     4.0582   31 C   -1-1 1
  15 H    1     2.1678     4.0966   35 C    0 0 0
  15 H    1     2.5200     4.7621   18 H    0 0 0
  15 H    1     2.5667     4.8503   39 O    0 0-1
  15 H    1     2.7315     5.1618    3 B   -1-1 1

  16 H    1     1.0913     2.0623   33 C    0 0 0
  16 H    1     2.1487     4.0605   36 C    0 0 0
  16 H    1     2.1667     4.0945   34 C    0 0 0
  16 H    1     2.5197     4.7616   17 H    0 0 0
  16 H    1     2.5723     4.8610   41 O    0 0 0
  16 H    1     2.7359     5.1701    5 B    0 0 0

  17 H    1     1.0915     2.0626   34 C    0 0 0
  17 H    1     2.1479     4.0589   31 C    0 0 0
  17 H    1     2.1679     4.0968   33 C    0 0 0
  17 H    1     2.5197     4.7616   16 H    0 0 0
  17 H    1     2.5677     4.8522   37 O    0 0 0
  17 H    1     2.7331     5.1648    3 B    0 0 0

  18 H    1     1.0914     2.0624   35 C    0 0 0
  18 H    1     2.1486     4.0602   36 C   -1-1 1
  18 H    1     2.1668     4.0947   32 C    0 0 0
  18 H    1     2.5200     4.7621   15 H    0 0 0
  18 H    1     2.5717     4.8598   42 O    0 0 0
  18 H    1     2.7349     5.1682    5 B   -1-1 1

  19 C    1     1.4020     2.6495   22 C    0 1-1
  19 C    1     1.4021     2.6495   20 C    0 0 0
  19 C    1     1.5504     2.9298    2 B    0 0 0
  19 C    1     2.1471     4.0575    9 H    0 1-1
  19 C    1     2.1472     4.0576    7 H    0 0 0
  19 C    1     2.4246     4.5817   21 C    0 1-1

  20 C    1     1.0913     2.0623    7 H    0 0 0
  20 C    1     1.3914     2.6294   23 C    0 0 0
  20 C    1     1.4021     2.6495   19 C    0 0 0
  20 C    1     2.1669     4.0948   10 H    0 0 0
  20 C    1     2.4177     4.5688   22 C    0 1-1
  20 C    1     2.4250     4.5825   24 C    0 0 0

  21 C    1     1.0914     2.0625    8 H    0 0 0
  21 C    1     1.3914     2.6293   22 C    0 0 0
  21 C    1     1.4026     2.6505   24 C    0-1 1
  21 C    1     2.1680     4.0970    9 H    0 0 0
  21 C    1     2.4182     4.5697   23 C    0-1 1
  21 C    1     2.4246     4.5817   19 C    0-1 1

  22 C    1     1.0914     2.0624    9 H    0 0 0
  22 C    1     1.3914     2.6293   21 C    0 0 0
  22 C    1     1.4020     2.6495   19 C    0-1 1
  22 C    1     2.1666     4.0942    8 H    0 0 0
  22 C    1     2.4177     4.5688   20 C    0-1 1
  22 C    1     2.4250     4.5826   24 C    0-1 1

  23 C    1     1.0915     2.0626   10 H    0 0 0
  23 C    1     1.3914     2.6294   20 C    0 0 0
  23 C    1     1.4025     2.6504   24 C    0 0 0
  23 C    1     2.1680     4.0969    7 H    0 0 0
  23 C    1     2.4182     4.5697   21 C    0 1-1
  23 C    1     2.4246     4.5818   19 C    0 0 0

  24 C    1     1.4025     2.6504   23 C    0 0 0
  24 C    1     1.4026     2.6505   21 C    0 1-1
  24 C    1     1.5513     2.9316    4 B    0 0 0
  24 C    1     2.1490     4.0610   10 H    0 0 0
  24 C    1     2.1493     4.0616    8 H    0 1-1
  24 C    1     2.4250     4.5825   20 C    0 0 0

  25 C    1     1.4020     2.6494   26 C    1 0-1
  25 C    1     1.4021     2.6495   28 C    0 0-1
  25 C    1     1.5503     2.9297    1 B    1 0 0
  25 C    1     2.1469     4.0571   11 H    1 0 0
  25 C    1     2.1475     4.0581   13 H    0 0 0
  25 C    1     2.4246     4.5818   27 C    0 0-1

  26 C    1     1.0913     2.0623   11 H    0 0 1
  26 C    1     1.3914     2.6293   29 C    0 0 0
  26 C    1     1.4020     2.6494   25 C   -1 0 1
  26 C    1     2.1666     4.0942   14 H    0 0 0
  26 C    1     2.4175     4.5684   28 C   -1 0 0
  26 C    1     2.4251     4.5828   30 C   -1 0 0

  27 C    1     1.0914     2.0625   12 H    0 0 0
  27 C    1     1.3915     2.6295   28 C    0 0 0
  27 C    1     1.4026     2.6505   30 C    0 0 0
  27 C    1     2.1679     4.0967   13 H    0 0 1
  27 C    1     2.4179     4.5691   29 C    1 0 0
  27 C    1     2.4246     4.5818   25 C    0 0 1

  28 C    1     1.0914     2.0624   13 H    0 0 1
  28 C    1     1.3915     2.6295   27 C    0 0 0
  28 C    1     1.4021     2.6495   25 C    0 0 1
  28 C    1     2.1664     4.0939   12 H    0 0 0
  28 C    1     2.4175     4.5684   26 C    1 0 0
  28 C    1     2.4253     4.5832   30 C    0 0 0

  29 C    1     1.0914     2.0625   14 H    0 0 0
  29 C    1     1.3914     2.6293   26 C    0 0 0
  29 C    1     1.4025     2.6504   30 C   -1 0 0
  29 C    1     2.1680     4.0968   11 H    0 0 1
  29 C    1     2.4179     4.5691   27 C   -1 0 0
  29 C    1     2.4247     4.5819   25 C   -1 0 1

  30 C    1     1.4025     2.6504   29 C    1 0 0
  30 C    1     1.4026     2.6505   27 C    0 0 0
  30 C    1     1.5516     2.9322    6 B    0-1 1
  30 C    1     2.1491     4.0612   14 H    1 0 0
  30 C    1     2.1493     4.0617   12 H    0 0 0
  30 C    1     2.4251     4.5828   26 C    1 0 0

  31 C    1     1.4021     2.6496   32 C    1 1-1
  31 C    1     1.4021     2.6497   34 C    0 0 0
  31 C    1     1.5502     2.9294    3 B    0 0 0
  31 C    1     2.1475     4.0582   15 H    1 1-1
  31 C    1     2.1479     4.0589   17 H    0 0 0
  31 C    1     2.4244     4.5814   33 C    0 0 0

  32 C    1     1.0914     2.0624   15 H    0 0 0
  32 C    1     1.3914     2.6293   35 C    0 0 0
  32 C    1     1.4021     2.6496   31 C   -1-1 1
  32 C    1     2.1668     4.0947   18 H    0 0 0
  32 C    1     2.4179     4.5692   34 C   -1-1 1
  32 C    1     2.4251     4.5827   36 C   -1-1 1

  33 C    1     1.0913     2.0623   16 H    0 0 0
  33 C    1     1.3914     2.6294   34 C    0 0 0
  33 C    1     1.4025     2.6504   36 C    0 0 0
  33 C    1     2.1679     4.0968   17 H    0 0 0
  33 C    1     2.4178     4.5690   35 C    1 1-1
  33 C    1     2.4244     4.5814   31 C    0 0 0

  34 C    1     1.0915     2.0626   17 H    0 0 0
  34 C    1     1.3914     2.6294   33 C    0 0 0
  34 C    1     1.4021     2.6497   31 C    0 0 0
  34 C    1     2.1667     4.0945   16 H    0 0 0
  34 C    1     2.4179     4.5692   32 C    1 1-1
  34 C    1     2.4253     4.5832   36 C    0 0 0

  35 C    1     1.0914     2.0624   18 H    0 0 0
  35 C    1     1.3914     2.6293   32 C    0 0 0
  35 C    1     1.4025     2.6503   36 C   -1-1 1
  35 C    1     2.1678     4.0966   15 H    0 0 0
  35 C    1     2.4178     4.5690   33 C   -1-1 1
  35 C    1     2.4245     4.5817   31 C   -1-1 1

  36 C    1     1.4025     2.6503   35 C    1 1-1
  36 C    1     1.4025     2.6504   33 C    0 0 0
  36 C    1     1.5516     2.9322    5 B    0 0 0
  36 C    1     2.1486     4.0602   18 H    1 1-1
  36 C    1     2.1487     4.0605   16 H    0 0 0
  36 C    1     2.4251     4.5827   32 C    1 1-1

  37 O    1     1.3791     2.6061    3 B    0 0 0
  37 O    1     1.3791     2.6061    1 B    1 0 0
  37 O    1     2.3880     4.5126   38 O    1 0 0
  37 O    1     2.3882     4.5130   39 O    1 1-2
  37 O    1     2.5383     4.7966   31 C    0 0 0
  37 O    1     2.5384     4.7968   25 C    0 0 0

  38 O    1     1.3793     2.6065    1 B    0 0 0
  38 O    1     1.3793     2.6065    2 B    0 0 0
  38 O    1     2.3880     4.5126   37 O   -1 0 0
  38 O    1     2.3882     4.5131   39 O    0 1-2
  38 O    1     2.5391     4.7981   19 C    0 0 0
  38 O    1     2.5395     4.7990   25 C   -1 0 0

  39 O    1     1.3793     2.6064    3 B   -1-1 2
  39 O    1     1.3793     2.6065    2 B    0-1 2
  39 O    1     2.3882     4.5130   37 O   -1-1 2
  39 O    1     2.3882     4.5131   38 O    0-1 2
  39 O    1     2.5390     4.7980   19 C    0-1 2
  39 O    1     2.5391     4.7982   31 C   -1-1 2

  40 O    1     1.3795     2.6068    6 B    0-1 1
  40 O    1     1.3795     2.6068    4 B    0-1 1
  40 O    1     2.3880     4.5126   42 O    1 0 0
  40 O    1     2.3884     4.5134   41 O    0-1 1
  40 O    1     2.5400     4.7998   24 C    0-1 1
  40 O    1     2.5403     4.8005   30 C    0 0 0

  41 O    1     1.3795     2.6069    5 B    0 0 0
  41 O    1     1.3795     2.6070    4 B    0 0 0
  41 O    1     2.3881     4.5128   42 O    1 1-1
  41 O    1     2.3884     4.5134   40 O    0 1-1
  41 O    1     2.5404     4.8006   24 C    0 0 0
  41 O    1     2.5405     4.8008   36 C    0 0 0

  42 O    1     1.3796     2.6071    6 B   -1-1 1
  42 O    1     1.3797     2.6072    5 B   -1-1 1
  42 O    1     2.3880     4.5126   40 O   -1 0 0
  42 O    1     2.3881     4.5128   41 O   -1-1 1
  42 O    1     2.5409     4.8016   36 C   -1-1 1
  42 O    1     2.5410     4.8019   30 C   -1 0 0


 SYMMETRY ALLOWED ELASTIC DISTORTION 1
  0.5773503  0.0000000  0.0000000
  0.0000000  0.5773503  0.0000000
  0.0000000  0.0000000  0.5773503

 SYMMETRY ALLOWED ELASTIC DISTORTION 2
  0.8164966  0.0000000  0.0000000
  0.0000000 -0.4082483  0.0000000
  0.0000000  0.0000000 -0.4082483

 SYMMETRY ALLOWED ELASTIC DISTORTION 3
  0.0000000  0.7071068  0.0000000
  0.7071068  0.0000000  0.0000000
  0.0000000  0.0000000  0.0000000

 SYMMETRY ALLOWED ELASTIC DISTORTION 4
  0.0000000  0.0000000  0.0000000
  0.0000000  0.7071068  0.0000000
  0.0000000  0.0000000 -0.7071068

 SYMMETRY ALLOWED ELASTIC DISTORTION 5
  0.0000000  0.0000000  0.7071068
  0.0000000  0.0000000  0.0000000
  0.7071068  0.0000000  0.0000000

 SYMMETRY ALLOWED ELASTIC DISTORTION 6
  0.0000000  0.0000000  0.0000000
  0.0000000  0.0000000  0.7071068
  0.0000000  0.7071068  0.0000000

 SYMMETRY ALLOWED INTERNAL DEGREE(S) OF FREEDOM: 123
 TTTTTTTTTTTTTTTTTTTTTTTTTTTTTT SYMM        TELAPSE        0.35 TCPU        0.35
 TTTTTTTTTTTTTTTTTTTTTTTTTTTTTT INT_SCREEN  TELAPSE        0.38 TCPU        0.38

 *******************************************************************************
 *                             OPTIMIZATION STARTS                             *
 *******************************************************************************
 RECLASIFICATION OF INDICES FOR INTEGRAL CALC ACCORDING TO DIFFERENT CRITERIA:
           FIXDELTE                  FIXDELTX              FIXDELTN
          0.10000000               0.80000000                129
 DEFAULT MAX NUM OF POINTS  258
 *******************************************************************************

 *******************************************************************************
 COORDINATE AND CELL OPTIMIZATION - POINT    1

 DFT PARAMETERS

     ATOM       ELECTRONS   NET CHARGE   R(ANGSTROM)
   1   5  B       5.0000      0.0000     0.89000000
   7   1  H       1.0000      0.0000     1.11000000
  19   6  C       6.0000      0.0000     0.77000000
  37   8  O       8.0000      0.0000     0.74000000

 SIZE OF GRID=    1242487
 TTTTTTTTTTTTTTTTTTTTTTTTTTTTTT MAKE_GRID2  TELAPSE       18.75 TCPU       18.73
 BECKE WEIGHT FUNCTION
 RADSAFE =     2.00
 TOLERANCES - DENSITY:10**- 6; POTENTIAL:10**- 9; GRID WGT:10**-14

 RADIAL INTEGRATION  - INTERVALS (POINTS,UPPER LIMIT):            1( 75,  4.0*R)

 ANGULAR INTEGRATION - INTERVALS (ACCURACY LEVEL [N. POINTS] UPPER LIMIT):
  1(  4[  86]   0.2)  2(  8[ 194]   0.5)  3( 12[ 350]   0.9)  4( 16[ 974]   3.5)
  5( 12[ 350]9999.0)
 TTTTTTTTTTTTTTTTTTTTTTTTTTTTTT INT_CALC    TELAPSE       18.87 TCPU       18.85

 *******************************************************************************
 cof-1_z33_L020_incl                                                             
 CRYSTAL - SCF - TYPE OF CALCULATION :  RESTRICTED CLOSED SHELL
 *******************************************************************************

 CAPPA:IS1  2;IS2  2;IS3  8; K PTS MONK NET  20; SYMMOPS:K SPACE   2;G SPACE   1

 TTTTTTTTTTTTTTTTTTTTTTTTTTTTTT SDIK        TELAPSE       19.64 TCPU       38.10

 AAAAAAAAAAAAAAAAAAAAAAAAAAAAAAAAAAAAAAAAAAAAAAAAAAAAAAAAAAAAAAAAAAAAAAAAAAAAAAA
         ATOMIC WAVEFUNCTION(S)


 NUCLEAR CHARGE  5.0  SYMMETRY SPECIES            S    P
 N. ELECTRONS    5.0  NUMBER OF PRIMITIVE GTOS    8    4
                      NUMBER OF CONTRACTED GTOS   4    2
                      NUMBER OF CLOSED SHELLS     2    0
                      OPEN SHELL OCCUPATION       0    1

  ZNUC  SCFIT    TOTAL HF ENERGY   KINETIC ENERGY   VIRIAL THEOREM ACCURACY
   5.0    11    -2.451164084E+01  2.462155050E+01 -1.995536038E+00  1.5E-06

 NUCLEAR CHARGE  1.0  SYMMETRY SPECIES            S
 N. ELECTRONS    1.0  NUMBER OF PRIMITIVE GTOS    4
                      NUMBER OF CONTRACTED GTOS   2
                      NUMBER OF CLOSED SHELLS     0
                      OPEN SHELL OCCUPATION       1

  ZNUC  SCFIT    TOTAL HF ENERGY   KINETIC ENERGY   VIRIAL THEOREM ACCURACY
   1.0     1    -4.977266687E-01  5.190767460E-01 -1.958869132E+00  0.0E+00

 NUCLEAR CHARGE  6.0  SYMMETRY SPECIES            S    P
 N. ELECTRONS    6.0  NUMBER OF PRIMITIVE GTOS    8    4
                      NUMBER OF CONTRACTED GTOS   4    2
                      NUMBER OF CLOSED SHELLS     2    0
                      OPEN SHELL OCCUPATION       0    2

  ZNUC  SCFIT    TOTAL HF ENERGY   KINETIC ENERGY   VIRIAL THEOREM ACCURACY
   6.0     9    -3.766704647E+01  3.775180683E+01 -1.997754800E+00  1.1E-06

 NUCLEAR CHARGE  8.0  SYMMETRY SPECIES            S    P
 N. ELECTRONS    8.0  NUMBER OF PRIMITIVE GTOS    8    4
                      NUMBER OF CONTRACTED GTOS   4    2
                      NUMBER OF CLOSED SHELLS     2    0
                      OPEN SHELL OCCUPATION       0    4

  ZNUC  SCFIT    TOTAL HF ENERGY   KINETIC ENERGY   VIRIAL THEOREM ACCURACY
   8.0    12    -7.477373220E+01  7.477365593E+01 -2.000001020E+00  3.8E-06

 AAAAAAAAAAAAAAAAAAAAAAAAAAAAAAAAAAAAAAAAAAAAAAAAAAAAAAAAAAAAAAAAAAAAAAAAAAAAAAA

 CHARGE NORMALIZATION FACTOR   1.00000000
 TOTAL ATOMIC CHARGES:
   5.0000000   5.0000000   5.0000000   5.0000000   5.0000000   5.0000000
   1.0000000   1.0000000   1.0000000   1.0000000   1.0000000   1.0000000
   1.0000000   1.0000000   1.0000000   1.0000000   1.0000000   1.0000000
   6.0000000   6.0000000   6.0000000   6.0000000   6.0000000   6.0000000
   6.0000000   6.0000000   6.0000000   6.0000000   6.0000000   6.0000000
   6.0000000   6.0000000   6.0000000   6.0000000   6.0000000   6.0000000
   8.0000000   8.0000000   8.0000000   8.0000000   8.0000000   8.0000000
 TTTTTTTTTTTTTTTTTTTTTTTTTTTTTT MOQGAD      TELAPSE       19.70 TCPU       41.88
 TTTTTTTTTTTTTTTTTTTTTTTTTTTTTT SHELLXN     TELAPSE       26.26 TCPU      461.23
 TTTTTTTTTTTTTTTTTTTTTTTTTTTTTT MONMO3      TELAPSE       26.36 TCPU      467.52
 NUMERICALLY INTEGRATED DENSITY    197.9999712230
 TTTTTTTTTTTTTTTTTTTTTTTTTTTTTT NUMDFT      TELAPSE       26.74 TCPU      491.99
 CYC   0 ETOT(AU) -1.296003088851E+03 DETOT -1.30E+03 tst  0.00E+00 PX  1.00E+00
 TTTTTTTTTTTTTTTTTTTTTTTTTTTTTT DIIS        TELAPSE       26.79 TCPU      494.73
 TTTTTTTTTTTTTTTTTTTTTTTTTTTTTT FDIK        TELAPSE       27.35 TCPU      529.59
 INSULATING STATE
 TOP OF VALENCE BANDS -    BAND     99; K    1; EIG -3.0039788E-01 AU
 BOTTOM OF VIRTUAL BANDS - BAND    100; K    1; EIG -1.6248929E-01 AU
 DIRECT ENERGY BAND GAP:   3.7527 eV
 TTTTTTTTTTTTTTTTTTTTTTTTTTTTTT PDIG        TELAPSE       27.68 TCPU      541.21
 CHARGE NORMALIZATION FACTOR   1.00000000
 TOTAL ATOMIC CHARGES:
   4.1291616   4.1374352   4.1380494   4.1376392   4.1374077   4.1285937
   0.7864678   0.7865640   0.7850815   0.7850303   0.7863418   0.7865287
   0.7863558   0.7865156   0.7850135   0.7850894   0.7864139   0.7865683
   6.0513890   6.2714496   6.2716963   6.2675738   6.2673564   6.0505680
   6.0481715   6.2663568   6.2663059   6.2662041   6.2662918   6.0467718
   6.0517615   6.2672148   6.2677396   6.2710001   6.2719276   6.0500925
   8.7081664   8.7084487   8.7023784   8.7088429   8.7029249   8.7091103
 TTTTTTTTTTTTTTTTTTTTTTTTTTTTTT MOQGAD      TELAPSE       27.74 TCPU      541.27
 TTTTTTTTTTTTTTTTTTTTTTTTTTTTTT SHELLXN     TELAPSE       34.55 TCPU      975.19
 TTTTTTTTTTTTTTTTTTTTTTTTTTTTTT MONMO3      TELAPSE       34.65 TCPU      981.48
 NUMERICALLY INTEGRATED DENSITY    197.9999783872
 TTTTTTTTTTTTTTTTTTTTTTTTTTTTTT NUMDFT      TELAPSE       35.05 TCPU     1006.65
 CYC   1 ETOT(AU) -1.288826568205E+03 DETOT  7.18E+00 tst  0.00E+00 PX  1.00E+00
 TTTTTTTTTTTTTTTTTTTTTTTTTTTTTT DIIS        TELAPSE       35.10 TCPU     1010.01
 DIIS TEST: 0.10805E+01 AT SCF   CYCLE   1 - MIX   30 %
 TTTTTTTTTTTTTTTTTTTTTTTTTTTTTT FDIK        TELAPSE       35.64 TCPU     1044.71
 INSULATING STATE
 TOP OF VALENCE BANDS -    BAND     99; K    3; EIG -2.0837602E-01 AU
 TOP OF VALENCE BANDS -    BAND     99; K    1; EIG -2.0837739E-01 AU
 BOTTOM OF VIRTUAL BANDS - BAND    100; K    1; EIG -8.4311189E-02 AU
 INDIRECT ENERGY BAND GAP:   3.3760 eV
 TTTTTTTTTTTTTTTTTTTTTTTTTTTTTT PDIG        TELAPSE       35.96 TCPU     1056.33
 CHARGE NORMALIZATION FACTOR   1.00000000
 TOTAL ATOMIC CHARGES:
   4.6705870   4.6783862   4.6770517   4.6773793   4.6780889   4.6685904
   0.9157499   0.9159718   0.9196784   0.9195931   0.9126460   0.9124189
   0.9125542   0.9124055   0.9195837   0.9195499   0.9155996   0.9156684
   5.8672290   6.1133872   6.1140395   6.1497078   6.1524494   5.8694833
   5.8757950   6.1327383   6.1351708   6.1342914   6.1339123   5.8788499
   5.8667134   6.1498037   6.1527788   6.1136709   6.1142129   5.8700608
   8.3494215   8.3497784   8.3681740   8.3489474   8.3689149   8.3489664
 TTTTTTTTTTTTTTTTTTTTTTTTTTTTTT MOQGAD      TELAPSE       36.03 TCPU     1056.39
 TTTTTTTTTTTTTTTTTTTTTTTTTTTTTT SHELLXN     TELAPSE       42.89 TCPU     1493.41
 TTTTTTTTTTTTTTTTTTTTTTTTTTTTTT MONMO3      TELAPSE       42.99 TCPU     1499.71
 NUMERICALLY INTEGRATED DENSITY    197.9999715987
 TTTTTTTTTTTTTTTTTTTTTTTTTTTTTT NUMDFT      TELAPSE       43.39 TCPU     1524.98
 CYC   2 ETOT(AU) -1.289017907355E+03 DETOT -1.91E-01 tst  3.51E-03 PX  1.57E-01
 TTTTTTTTTTTTTTTTTTTTTTTTTTTTTT DIIS        TELAPSE       43.45 TCPU     1528.71
 DIIS TEST: 0.46019E+00 AT SCF   CYCLE   2 - DIIS ACTIVE - HISTORY:     2 CYCLES
 TTTTTTTTTTTTTTTTTTTTTTTTTTTTTT FDIK        TELAPSE       43.99 TCPU     1563.22
 INSULATING STATE
 TOP OF VALENCE BANDS -    BAND     99; K    1; EIG -2.2062186E-01 AU
 BOTTOM OF VIRTUAL BANDS - BAND    100; K    1; EIG -7.9803864E-02 AU
 DIRECT ENERGY BAND GAP:   3.8319 eV
 TTTTTTTTTTTTTTTTTTTTTTTTTTTTTT PDIG        TELAPSE       44.31 TCPU     1574.84
 CHARGE NORMALIZATION FACTOR   1.00000000
 TOTAL ATOMIC CHARGES:
   4.4638291   4.4672445   4.4668299   4.4660667   4.4662019   4.4622915
   0.8897351   0.8899394   0.8924385   0.8923643   0.8887397   0.8890427
   0.8889751   0.8888184   0.8923274   0.8924172   0.8896230   0.8897950
   5.8944780   6.1695971   6.1702812   6.1655434   6.1640184   5.8933956
   5.9047541   6.1618953   6.1610615   6.1613948   6.1613594   5.9045871
   5.8953883   6.1657831   6.1639309   6.1695185   6.1703461   5.8927656
   8.5278836   8.5282781   8.5200419   8.5284740   8.5197189   8.5288259
 TTTTTTTTTTTTTTTTTTTTTTTTTTTTTT MOQGAD      TELAPSE       44.37 TCPU     1574.91
 TTTTTTTTTTTTTTTTTTTTTTTTTTTTTT SHELLXN     TELAPSE       51.24 TCPU     2011.49
 TTTTTTTTTTTTTTTTTTTTTTTTTTTTTT MONMO3      TELAPSE       51.33 TCPU     2017.85
 NUMERICALLY INTEGRATED DENSITY    197.9999733738
 TTTTTTTTTTTTTTTTTTTTTTTTTTTTTT NUMDFT      TELAPSE       51.73 TCPU     2042.97
 CYC   3 ETOT(AU) -1.289114695986E+03 DETOT -9.68E-02 tst  7.26E-04 PX  6.27E-02
 TTTTTTTTTTTTTTTTTTTTTTTTTTTTTT DIIS        TELAPSE       51.79 TCPU     2047.15
 DIIS TEST: 0.11423E-01 AT SCF   CYCLE   3 - DIIS ACTIVE - HISTORY:     3 CYCLES
 TTTTTTTTTTTTTTTTTTTTTTTTTTTTTT FDIK        TELAPSE       52.34 TCPU     2081.92
 INSULATING STATE
 TOP OF VALENCE BANDS -    BAND     99; K    3; EIG -2.3312523E-01 AU
 TOP OF VALENCE BANDS -    BAND     99; K    1; EIG -2.3312655E-01 AU
 BOTTOM OF VIRTUAL BANDS - BAND    100; K    1; EIG -8.9336568E-02 AU
 INDIRECT ENERGY BAND GAP:   3.9127 eV
 TTTTTTTTTTTTTTTTTTTTTTTTTTTTTT PDIG        TELAPSE       52.66 TCPU     2093.55
 CHARGE NORMALIZATION FACTOR   1.00000000
 TOTAL ATOMIC CHARGES:
   4.4729279   4.4727061   4.4718670   4.4723632   4.4728063   4.4722380
   0.8745733   0.8749201   0.8757540   0.8754928   0.8711311   0.8709482
   0.8710457   0.8710004   0.8757716   0.8754114   0.8745190   0.8746672
   5.9437530   6.1543068   6.1544306   6.1787622   6.1832930   5.9477667
   5.9532076   6.1651501   6.1677905   6.1666272   6.1662476   5.9561298
   5.9432031   6.1783780   6.1839389   6.1543075   6.1546150   5.9484086
   8.4914146   8.4916359   8.5065522   8.4910277   8.5079304   8.4909796
 TTTTTTTTTTTTTTTTTTTTTTTTTTTTTT MOQGAD      TELAPSE       52.72 TCPU     2093.61
 TTTTTTTTTTTTTTTTTTTTTTTTTTTTTT SHELLXN     TELAPSE       59.57 TCPU     2528.54
 TTTTTTTTTTTTTTTTTTTTTTTTTTTTTT MONMO3      TELAPSE       59.67 TCPU     2534.85
 NUMERICALLY INTEGRATED DENSITY    197.9999731943
 TTTTTTTTTTTTTTTTTTTTTTTTTTTTTT NUMDFT      TELAPSE       60.06 TCPU     2560.10
 CYC   4 ETOT(AU) -1.289116955912E+03 DETOT -2.26E-03 tst  3.50E-05 PX  1.22E-02
 TTTTTTTTTTTTTTTTTTTTTTTTTTTTTT DIIS        TELAPSE       60.13 TCPU     2564.34
 DIIS TEST: 0.41554E-02 AT SCF   CYCLE   4 - DIIS ACTIVE - HISTORY:     4 CYCLES
 TTTTTTTTTTTTTTTTTTTTTTTTTTTTTT FDIK        TELAPSE       60.67 TCPU     2598.70
 INSULATING STATE
 TOP OF VALENCE BANDS -    BAND     99; K    1; EIG -2.3024746E-01 AU
 BOTTOM OF VIRTUAL BANDS - BAND    100; K    1; EIG -8.8285599E-02 AU
 DIRECT ENERGY BAND GAP:   3.8630 eV
 TTTTTTTTTTTTTTTTTTTTTTTTTTTTTT PDIG        TELAPSE       60.99 TCPU     2610.32
 CHARGE NORMALIZATION FACTOR   1.00000000
 TOTAL ATOMIC CHARGES:
   4.4725203   4.4761161   4.4754167   4.4747270   4.4750191   4.4706177
   0.8768760   0.8770190   0.8790854   0.8791112   0.8748580   0.8750714
   0.8750103   0.8748927   0.8789701   0.8791632   0.8767421   0.8768469
   5.9258800   6.1643316   6.1650374   6.1775429   6.1753203   5.9227189
   5.9324466   6.1680837   6.1675169   6.1678530   6.1676677   5.9310511
   5.9264354   6.1778549   6.1752115   6.1642511   6.1652537   5.9223583
   8.5053037   8.5057156   8.5064794   8.5056594   8.5060033   8.5059602
 TTTTTTTTTTTTTTTTTTTTTTTTTTTTTT MOQGAD      TELAPSE       61.05 TCPU     2610.38
 TTTTTTTTTTTTTTTTTTTTTTTTTTTTTT SHELLXN     TELAPSE       67.92 TCPU     3046.31
 TTTTTTTTTTTTTTTTTTTTTTTTTTTTTT MONMO3      TELAPSE       68.02 TCPU     3052.72
 NUMERICALLY INTEGRATED DENSITY    197.9999732580
 TTTTTTTTTTTTTTTTTTTTTTTTTTTTTT NUMDFT      TELAPSE       68.42 TCPU     3078.04
 CYC   5 ETOT(AU) -1.289117896876E+03 DETOT -9.41E-04 tst  5.85E-06 PX  7.23E-03
 TTTTTTTTTTTTTTTTTTTTTTTTTTTTTT DIIS        TELAPSE       68.50 TCPU     3083.08
 DIIS TEST: 0.16009E-03 AT SCF   CYCLE   5 - DIIS ACTIVE - HISTORY:     5 CYCLES
 TTTTTTTTTTTTTTTTTTTTTTTTTTTTTT FDIK        TELAPSE       69.07 TCPU     3118.94
 INSULATING STATE
 TOP OF VALENCE BANDS -    BAND     99; K    1; EIG -2.2997451E-01 AU
 BOTTOM OF VIRTUAL BANDS - BAND    100; K    1; EIG -8.7779727E-02 AU
 DIRECT ENERGY BAND GAP:   3.8693 eV
 TTTTTTTTTTTTTTTTTTTTTTTTTTTTTT PDIG        TELAPSE       69.39 TCPU     3130.56
 CHARGE NORMALIZATION FACTOR   1.00000000
 TOTAL ATOMIC CHARGES:
   4.4725432   4.4744182   4.4737021   4.4743702   4.4747334   4.4721137
   0.8779677   0.8783185   0.8803238   0.8799898   0.8759669   0.8758388
   0.8759500   0.8758355   0.8803279   0.8799241   0.8778892   0.8780961
   5.9201548   6.1627208   6.1632655   6.1737761   6.1796732   5.9272863
   5.9302839   6.1655657   6.1683452   6.1667408   6.1670491   5.9352462
   5.9201269   6.1734169   6.1802519   6.1628369   6.1632677   5.9274881
   8.5034904   8.5036743   8.5093832   8.5033390   8.5109782   8.5033298
 TTTTTTTTTTTTTTTTTTTTTTTTTTTTTT MOQGAD      TELAPSE       69.45 TCPU     3130.62
 TTTTTTTTTTTTTTTTTTTTTTTTTTTTTT SHELLXN     TELAPSE       76.35 TCPU     3568.06
 TTTTTTTTTTTTTTTTTTTTTTTTTTTTTT MONMO3      TELAPSE       76.45 TCPU     3574.36
 NUMERICALLY INTEGRATED DENSITY    197.9999732786
 TTTTTTTTTTTTTTTTTTTTTTTTTTTTTT NUMDFT      TELAPSE       76.85 TCPU     3599.57
 CYC   6 ETOT(AU) -1.289117894676E+03 DETOT  2.20E-06 tst  2.02E-06 PX  1.64E-03
 TTTTTTTTTTTTTTTTTTTTTTTTTTTTTT DIIS        TELAPSE       76.93 TCPU     3604.70
 DIIS TEST: 0.17657E-03 AT SCF   CYCLE   6 - DIIS ACTIVE - HISTORY:     6 CYCLES
 TTTTTTTTTTTTTTTTTTTTTTTTTTTTTT FDIK        TELAPSE       77.47 TCPU     3639.35
 INSULATING STATE
 TOP OF VALENCE BANDS -    BAND     99; K    1; EIG -2.3001636E-01 AU
 BOTTOM OF VIRTUAL BANDS - BAND    100; K    1; EIG -8.7793414E-02 AU
 DIRECT ENERGY BAND GAP:   3.8701 eV
 TTTTTTTTTTTTTTTTTTTTTTTTTTTTTT PDIG        TELAPSE       77.79 TCPU     3650.97
 CHARGE NORMALIZATION FACTOR   1.00000000
 TOTAL ATOMIC CHARGES:
   4.4728682   4.4751310   4.4744301   4.4740841   4.4744121   4.4713955
   0.8780219   0.8782720   0.8801400   0.8800621   0.8758365   0.8759241
   0.8759075   0.8758323   0.8800834   0.8800550   0.8779234   0.8780671
   5.9248382   6.1627341   6.1630604   6.1763573   6.1763936   5.9241267
   5.9331566   6.1665985   6.1670348   6.1669946   6.1665284   5.9331276
   5.9249995   6.1763453   6.1766219   6.1626670   6.1632574   5.9241400
   8.5036111   8.5039490   8.5085853   8.5037245   8.5087976   8.5039041
 TTTTTTTTTTTTTTTTTTTTTTTTTTTTTT MOQGAD      TELAPSE       77.85 TCPU     3651.03
 TTTTTTTTTTTTTTTTTTTTTTTTTTTTTT SHELLXN     TELAPSE       84.72 TCPU     4087.84
 TTTTTTTTTTTTTTTTTTTTTTTTTTTTTT MONMO3      TELAPSE       84.81 TCPU     4094.11
 NUMERICALLY INTEGRATED DENSITY    197.9999732674
 TTTTTTTTTTTTTTTTTTTTTTTTTTTTTT NUMDFT      TELAPSE       85.21 TCPU     4119.32
 CYC   7 ETOT(AU) -1.289117937271E+03 DETOT -4.26E-05 tst  1.08E-06 PX  1.17E-03
 TTTTTTTTTTTTTTTTTTTTTTTTTTTTTT DIIS        TELAPSE       85.30 TCPU     4125.00
 DIIS TEST: 0.74080E-05 AT SCF   CYCLE   7 - DIIS ACTIVE - HISTORY:     7 CYCLES
 TTTTTTTTTTTTTTTTTTTTTTTTTTTTTT FDIK        TELAPSE       85.84 TCPU     4159.42
 INSULATING STATE
 TOP OF VALENCE BANDS -    BAND     99; K    1; EIG -2.3004474E-01 AU
 BOTTOM OF VIRTUAL BANDS - BAND    100; K    1; EIG -8.7840025E-02 AU
 DIRECT ENERGY BAND GAP:   3.8696 eV
 TTTTTTTTTTTTTTTTTTTTTTTTTTTTTT PDIG        TELAPSE       86.16 TCPU     4171.05
 CHARGE NORMALIZATION FACTOR   1.00000000
 TOTAL ATOMIC CHARGES:
   4.4726996   4.4752564   4.4745569   4.4743982   4.4747169   4.4714026
   0.8779514   0.8781801   0.8800816   0.8799587   0.8757902   0.8758635
   0.8758761   0.8757556   0.8800114   0.8799649   0.8778435   0.8779840
   5.9242445   6.1626809   6.1633181   6.1757266   6.1766885   5.9250842
   5.9324242   6.1664542   6.1672186   6.1667744   6.1667989   5.9335482
   5.9245351   6.1757864   6.1768423   6.1626581   6.1634734   5.9249721
   8.5039546   8.5042860   8.5077653   8.5040991   8.5080947   8.5042801
 TTTTTTTTTTTTTTTTTTTTTTTTTTTTTT MOQGAD      TELAPSE       86.22 TCPU     4171.11
 TTTTTTTTTTTTTTTTTTTTTTTTTTTTTT SHELLXN     TELAPSE       93.03 TCPU     4605.08
 TTTTTTTTTTTTTTTTTTTTTTTTTTTTTT MONMO3      TELAPSE       93.13 TCPU     4611.37
 NUMERICALLY INTEGRATED DENSITY    197.9999732560
 TTTTTTTTTTTTTTTTTTTTTTTTTTTTTT NUMDFT      TELAPSE       93.53 TCPU     4636.73
 CYC   8 ETOT(AU) -1.289117938648E+03 DETOT -1.38E-06 tst  3.01E-08 PX  2.99E-04
 TTTTTTTTTTTTTTTTTTTTTTTTTTTTTT DIIS        TELAPSE       93.62 TCPU     4642.67
 DIIS TEST: 0.73396E-06 AT SCF   CYCLE   8 - DIIS ACTIVE - HISTORY:     8 CYCLES
 TTTTTTTTTTTTTTTTTTTTTTTTTTTTTT FDIK        TELAPSE       94.16 TCPU     4677.08
 INSULATING STATE
 TOP OF VALENCE BANDS -    BAND     99; K    1; EIG -2.3005449E-01 AU
 BOTTOM OF VIRTUAL BANDS - BAND    100; K    1; EIG -8.7851980E-02 AU
 DIRECT ENERGY BAND GAP:   3.8695 eV
 TTTTTTTTTTTTTTTTTTTTTTTTTTTTTT PDIG        TELAPSE       94.48 TCPU     4688.70
 CHARGE NORMALIZATION FACTOR   1.00000000
 TOTAL ATOMIC CHARGES:
   4.4728028   4.4752754   4.4745674   4.4743806   4.4747091   4.4714720
   0.8779169   0.8781643   0.8800682   0.8799518   0.8757783   0.8758435
   0.8758482   0.8757517   0.8800118   0.8799447   0.8778137   0.8779638
   5.9242532   6.1627582   6.1632331   6.1758461   6.1767425   5.9248156
   5.9325142   6.1664852   6.1672442   6.1669229   6.1667034   5.9333175
   5.9244726   6.1758309   6.1769724   6.1627431   6.1633784   5.9247752
   8.5038816   8.5041970   8.5080690   8.5039859   8.5084468   8.5041467
 TTTTTTTTTTTTTTTTTTTTTTTTTTTTTT MOQGAD      TELAPSE       94.54 TCPU     4688.76
 TTTTTTTTTTTTTTTTTTTTTTTTTTTTTT SHELLXN     TELAPSE      101.43 TCPU     5126.56
 TTTTTTTTTTTTTTTTTTTTTTTTTTTTTT MONMO3      TELAPSE      101.53 TCPU     5132.84
 NUMERICALLY INTEGRATED DENSITY    197.9999732598
 TTTTTTTTTTTTTTTTTTTTTTTTTTTTTT NUMDFT      TELAPSE      101.92 TCPU     5158.07
 CYC   9 ETOT(AU) -1.289117938749E+03 DETOT -1.00E-07 tst  1.66E-09 PX  1.27E-04
 TTTTTTTTTTTTTTTTTTTTTTTTTTTTTT DIIS        TELAPSE      102.02 TCPU     5164.43
 DIIS TEST: 0.32452E-07 AT SCF   CYCLE   9 - DIIS ACTIVE - HISTORY:     9 CYCLES
 TTTTTTTTTTTTTTTTTTTTTTTTTTTTTT FDIK        TELAPSE      102.57 TCPU     5199.27
 INSULATING STATE
 TOP OF VALENCE BANDS -    BAND     99; K    1; EIG -2.3005172E-01 AU
 BOTTOM OF VIRTUAL BANDS - BAND    100; K    1; EIG -8.7849720E-02 AU
 DIRECT ENERGY BAND GAP:   3.8695 eV
 TTTTTTTTTTTTTTTTTTTTTTTTTTTTTT PDIG        TELAPSE      102.89 TCPU     5210.89
 CHARGE NORMALIZATION FACTOR   1.00000000
 TOTAL ATOMIC CHARGES:
   4.4727799   4.4752492   4.4745465   4.4743628   4.4746866   4.4714593
   0.8779224   0.8781592   0.8800677   0.8799527   0.8757712   0.8758425
   0.8758505   0.8757413   0.8800033   0.8799536   0.8778182   0.8779598
   5.9242355   6.1627399   6.1632923   6.1758715   6.1767162   5.9248344
   5.9324934   6.1664963   6.1672260   6.1668503   6.1667689   5.9334383
   5.9244766   6.1759013   6.1769007   6.1626993   6.1634636   5.9247715
   8.5038588   8.5041921   8.5080787   8.5039904   8.5084076   8.5041697
 TTTTTTTTTTTTTTTTTTTTTTTTTTTTTT MOQGAD      TELAPSE      102.95 TCPU     5210.95
 TTTTTTTTTTTTTTTTTTTTTTTTTTTTTT SHELLXN     TELAPSE      109.82 TCPU     5647.71
 TTTTTTTTTTTTTTTTTTTTTTTTTTTTTT MONMO3      TELAPSE      109.92 TCPU     5654.02
 NUMERICALLY INTEGRATED DENSITY    197.9999732593
 TTTTTTTTTTTTTTTTTTTTTTTTTTTTTT NUMDFT      TELAPSE      110.32 TCPU     5679.29
 CYC  10 ETOT(AU) -1.289117938790E+03 DETOT -4.16E-08 tst  2.13E-10 PX  2.52E-05
 TTTTTTTTTTTTTTTTTTTTTTTTTTTTTT DIIS        TELAPSE      110.43 TCPU     5686.22
 DIIS TEST: 0.15167E-07 AT SCF   CYCLE  10 - DIIS ACTIVE - HISTORY:    10 CYCLES
 TTTTTTTTTTTTTTTTTTTTTTTTTTTTTT FDIK        TELAPSE      110.97 TCPU     5720.82
 INSULATING STATE
 TOP OF VALENCE BANDS -    BAND     99; K    1; EIG -2.3005185E-01 AU
 BOTTOM OF VIRTUAL BANDS - BAND    100; K    1; EIG -8.7848971E-02 AU
 DIRECT ENERGY BAND GAP:   3.8695 eV
 TTTTTTTTTTTTTTTTTTTTTTTTTTTTTT PDIG        TELAPSE      111.29 TCPU     5732.44
 CHARGE NORMALIZATION FACTOR   1.00000000
 TOTAL ATOMIC CHARGES:
   4.4727757   4.4752483   4.4745442   4.4743594   4.4746846   4.4714513
   0.8779218   0.8781636   0.8800692   0.8799526   0.8757739   0.8758424
   0.8758488   0.8757458   0.8800083   0.8799500   0.8778177   0.8779639
   5.9242516   6.1627479   6.1632678   6.1758509   6.1767285   5.9248468
   5.9325265   6.1664866   6.1672345   6.1668854   6.1667326   5.9334027
   5.9244898   6.1758608   6.1769331   6.1627256   6.1634208   5.9247871
   8.5038777   8.5041996   8.5080549   8.5039953   8.5084090   8.5041631
 TTTTTTTTTTTTTTTTTTTTTTTTTTTTTT MOQGAD      TELAPSE      111.35 TCPU     5732.51
 TTTTTTTTTTTTTTTTTTTTTTTTTTTTTT SHELLXN     TELAPSE      118.22 TCPU     6168.28
 +++ ENERGIES IN A.U. +++
 ::: EXT EL-POLE                                  -1.5665016345616E+03
 ::: EXT EL-SPHEROPOLE                             1.7377895797915E+01
 ::: BIELET ZONE E-E                               2.4523382129123E+03
 ::: TOTAL E-E                                     9.0321447414858E+02
 ::: TOTAL E-N + N-E                              -3.6296523089961E+03
 ::: TOTAL N-N                                     2.9109296963483E+02
 ::: KINETIC ENERGY                                1.2799571879110E+03
 ::: PSEUDO TOTAL   ENERGY                        -1.1553876773017E+03
 ::: VIRIAL COEFFICIENT                            1.0511506655130E+00
 TTTTTTTTTTTTTTTTTTTTTTTTTTTTTT MONMO3      TELAPSE      118.32 TCPU     6174.61
 NUMERICALLY INTEGRATED DENSITY    197.9999732592
 EXCHANGE ENERGY: -0.126018908591E+03  CORRELATION ENERGY: -0.771135289722E+01
 TTTTTTTTTTTTTTTTTTTTTTTTTTTTTT NUMDFT      TELAPSE      118.71 TCPU     6199.81
 CYC  11 ETOT(AU) -1.289117938790E+03 DETOT  2.50E-10 tst  4.92E-11 PX  2.52E-05

 == SCF ENDED - CONVERGENCE ON ENERGY      E(AU) -1.2891179387899E+03 CYCLES  11


 ENERGY EXPRESSION=HARTREE+FOCK EXCH*0.00000+(HSESOL     EXCH)*1.00000+PBESOL     CORR


 TOTAL ENERGY(DFT)(AU)( 11) -1.2891179387899E+03 DE 2.5E-10 tester 4.9E-11
 TTTTTTTTTTTTTTTTTTTTTTTTTTTTTT EDFT        TELAPSE      118.71 TCPU     6199.84

 *******************************************************************************
 *                             FORCE CALCULATION                               *
 *******************************************************************************

 TTTTTTTTTTTTTTTTTTTTTTTTTTTTTT NUMDFG      TELAPSE      123.75 TCPU     6504.60
 INFORMATION **** GENPOG **** BIPO BUFFER LENGTH (WORDS) =     1855200
 TTTTTTTTTTTTTTTTTTTTTTTTTTTTTT SHELXG      TELAPSE      161.14 TCPU     8893.14


 D3 DISPERSION ENERGY (AU)      -5.0618323964686E-02
 GCP ENERGY (AU)                 8.4413230713973E-02
 TOTAL ENERGY + DISP + GCP (AU) -1.2890841438831E+03

 CARTESIAN FORCES IN HARTREE/BOHR (ANALYTICAL)
   ATOM                     X                   Y                   Z
   1   5            -1.163504579633E-03 -1.843619298899E-03  5.399086557193E-03
   2   5             5.204424969426E-03 -2.340886448147E-03 -2.056947500811E-03
   3   5            -4.633863947092E-03  3.353565007661E-03 -1.151267019725E-03
   4   5            -5.142355248373E-03  2.473335390080E-03 -3.131615971157E-04
   5   5             4.682634675986E-03 -3.152484768851E-03 -1.274273366885E-03
   6   5             1.072456083606E-03  1.829363399203E-03 -3.576328635592E-03
   7   1             3.233016424676E-03 -9.826658286287E-04 -8.451179426930E-04
   8   1            -2.958820101805E-03  7.297281630172E-04  9.590547276569E-04
   9   1             3.198759920962E-03  1.543270555654E-03  3.807587855261E-04
  10   1            -2.975639702451E-03 -1.353688575601E-03 -2.398580548824E-04
  11   1            -7.584302648613E-04 -3.108535826864E-03 -8.299520481062E-05
  12   1             8.369102167261E-04  2.693919229173E-03  3.628017544108E-05
  13   1            -2.232220859427E-03 -2.238637656429E-03 -4.038736250622E-04
  14   1             1.956867843607E-03  2.102214553880E-03  3.372868290434E-04
  15   1            -3.046023276125E-04  3.458810231078E-03  8.088747344259E-06
  16   1             2.326345975980E-04 -3.231243667527E-03  9.389086397060E-05
  17   1            -2.307205866369E-03  2.366714329584E-03 -5.977381486990E-04
  18   1             2.203865351231E-03 -2.165328829940E-03  6.509038423858E-04
  19   6             3.580060652093E-04 -6.382747177483E-04  5.756914258552E-04
  20   6             2.872189639399E-03  2.229223078468E-03  2.956726029005E-03
  21   6            -2.933393298042E-03 -2.230373544853E-03 -2.651709393971E-03
  22   6             4.176095083008E-03 -2.919602855117E-03 -9.463111065870E-04
  23   6            -4.111833022699E-03  2.968207936373E-03  1.662880896369E-03
  24   6            -3.471806426331E-04  5.938465083942E-04 -6.865393397251E-04
  25   6            -2.348251255870E-04 -5.648642843369E-04 -1.812297450022E-03
  26   6            -3.333527636846E-03 -1.741750806993E-03 -1.028631031487E-03
  27   6             3.297102875862E-03  1.714374922006E-03  6.618459778509E-04
  28   6             1.757311293744E-04 -3.772134046105E-03 -8.135837890760E-04
  29   6            -1.670401169847E-04  3.722322651063E-03 -2.260314935694E-04
  30   6             3.006572243596E-04  4.172454545912E-04  2.427819889701E-03
  31   6            -7.047769963708E-04  9.928500604756E-05 -1.997749132275E-04
  32   6            -4.647418048190E-03  2.209328635741E-03 -5.047796629123E-04
  33   6             4.526518101816E-03 -2.093500482983E-03  9.911452862941E-04
  34   6             4.637025266252E-04  3.718804537546E-03  2.580253122606E-03
  35   6            -4.367776049872E-04 -3.570526082696E-03 -1.720858105152E-03
  36   6             6.660136790113E-04  7.359657912492E-05 -5.040426025964E-04
  37   8             6.969718163486E-03 -1.663014927944E-04 -1.739684745789E-03
  38   8            -3.595235214240E-03  5.967180835954E-03 -2.073430901876E-03
  39   8            -2.858413405229E-03 -5.023447698521E-03  2.465128738995E-03
  40   8             3.550694130778E-03 -6.035314537263E-03  1.870126704630E-03
  41   8             2.847820029087E-03  4.913139276960E-03 -1.121754833359E-03
  42   8            -6.978754721827E-03 -4.294830975748E-06  2.514021865783E-03

 RESULTANT FORCE     5.759837051755E-13  3.239630785856E-13  2.609024107869E-14

 ATOMIC PART

 SYMMETRY ALLOWED FORCES (ANALYTICAL) (DIRECTION, FORCE)

    1 -8.7010400E-05    2 -2.2047728E-03    3  5.4645324E-03    4  5.7460576E-03
    5  5.2789195E-04    6 -1.9491797E-03    7 -5.6206964E-03    8  5.5462243E-04
    9 -1.0813155E-03   10 -5.7670403E-03   11 -4.6080500E-04   12 -2.6034482E-04
   13  5.5527234E-03   14 -4.3296952E-04   15 -1.2413017E-03   16  1.0144286E-05
   17  2.0994979E-03   18 -3.6091256E-03   19  3.3339343E-03   20  7.8418668E-04
   21 -9.4085776E-04   22 -2.8787955E-03   23 -8.2912353E-04   24  8.6237770E-04
   25  2.0354485E-03   26  2.9860028E-03   27  3.0113336E-04   28 -1.8614640E-03
   29 -2.6046254E-03   30 -3.1983822E-04   31  9.2174527E-04   32 -3.1052489E-03
   33 -1.7062151E-04   34 -5.9235019E-04   35  2.7120155E-03   36 -5.4970135E-05
   37 -8.0779517E-04   38 -3.1015571E-03   39 -5.0451240E-04   40  6.4750059E-04
   41  2.7469273E-03   42  2.3205941E-04   43 -2.0141170E-03   44  2.8919578E-03
   45 -9.4738240E-05   46  1.7923265E-03   47 -2.6295354E-03   48 -1.0877929E-05
   49 -3.2346386E-03   50  9.1657876E-04   51 -7.1663064E-04   52  2.9331712E-03
   53 -7.5019003E-04   54  5.2849708E-04   55  6.4517967E-04   56 -3.7382599E-04
   57  4.7416622E-04   58  1.4344477E-03   59  3.4339805E-03   60  2.9297981E-03
   61 -1.3631142E-03   62 -3.3301249E-03   63 -2.6742767E-03   64  5.2327373E-03
   65 -4.6223528E-04   66 -1.0572919E-03   67 -4.8830765E-03   68  4.9461638E-04
   69  1.5654277E-03   70 -5.7789094E-04   71  3.4235233E-04   72 -7.6369412E-04
   73  8.5267274E-05   74 -6.1287691E-04   75 -1.9657640E-03   76 -2.0693387E-03
   77 -3.2975181E-03   78 -1.2772227E-03   79  1.9433602E-03   80  3.0045276E-03
   81  3.8620971E-04   82  2.1185527E-03   83 -3.3217155E-03   84 -1.1143394E-03
   85 -1.9205844E-03   86  2.9897414E-03   87 -5.8726065E-04   88  6.6932469E-05
   89  4.9338001E-04   90  2.1279021E-03   91 -6.7069402E-04   92 -2.7626395E-04
   93 -4.3115980E-04   94 -5.4223169E-03   95 -4.5329790E-04   96 -7.9220357E-04
   97  4.6478767E-03   98  4.0527192E-04   99  7.0102935E-04  100 -1.6176662E-03
  101  3.6378975E-03  102  2.4692780E-03  103  1.2278581E-03  104 -3.1051633E-03
  105 -1.7981832E-03  106  4.8160615E-04  107  4.1887217E-04  108 -7.6205216E-04
  109  6.6816880E-03  110  3.7202796E-03  111 -2.2552504E-03  112 -5.4748275E-03
  113  4.5900857E-03  114 -3.1352459E-03  115  1.3547950E-05  116 -4.6399480E-03
  117  1.1930922E-03  118  7.4368850E-03  119 -3.7108860E-03  120  9.5856142E-04
  121  4.2794049E-03  122  6.4852185E-03  123 -2.5708824E-03

 CELL PART

 GRADIENT WITH RESPECT TO THE CELL PARAMETER IN HARTREE/BOHR
ORDER: -D/DA1X, -D/DA1Y, -D/DA1Z
       -D/DA2X, -D/DA2Y, -D/DA2Z
       -D/DA3X, -D/DA3Y, -D/DA3Z
 -0.425163612909E-02  0.300874902406E-03 -0.124262636764E-03
 -0.186523495493E-02 -0.328386296633E-02 -0.238450358341E-03
 -0.593972940834E-03 -0.982950541889E-03 -0.512736459880E-03

STRESS TENSOR, IN HARTREE/BOHR^3:
ORDER: 11 12 13
       21 22 23
       31 32 33
  0.242715411623E-04 -0.125088236005E-05  0.850869884656E-06
 -0.127274134812E-05  0.231365813581E-04  0.140808268644E-05
  0.924395518367E-06  0.153548810543E-05  0.734498126909E-06

PRESSURE FROM THE STRESS TENSOR,
IN HARTREE/BOHR^3: -0.16048E-04
PRESSURE IN GIGAPASCAL: -0.4721E+00
CONVERSION FACTOR: 1 HARTREE/BOHR^3= 29421 GIGAPASCAL
WHEN USING VALUES FOR BOHR RADIUS AND HARTREE
FROM IUPAC WEBSITE, APRIL 2009
ENTHALPY: -1.2891540035197E+03

 SYMMETRY ALLOWED FORCES (ANALYTICAL) (DIRECTION, FORCE)

    1 -2.7259717E-03    2 -8.8941554E-04    3  1.4916300E-04    4 -1.7745179E-03
    5 -1.3299052E-04    6 -2.3316667E-04
 TTTTTTTTTTTTTTTTTTTTTTTTTTTTTT TOTGRA      TELAPSE      168.75 TCPU     9121.02
 INFORMATION **** optc001 **** GEOMETRY OUTPUT FILE
 CLASSICAL MODEL (SCHLEGEL) USED AS INITIAL HESSIAN MATRIX
 REFERENCE GEOMETRY DEFINED

 MAX GRADIENT      0.007437  THRESHOLD              0.000450 CONVERGED NO
 RMS GRADIENT      0.002596  THRESHOLD              0.000300 CONVERGED NO

 GRADIENT NORM     0.029484  GRADIENT THRESHOLD     0.500000

 EIGENVALUES OF THE ESTIMATED HESSIAN
  0.2224E-04  0.2428E-04  0.1159E-03  0.1330E-03  0.1522E-03  0.2062E-03
  0.2871E-03  0.4708E-03  0.9181E-03  0.1017E-02  0.1138E-02  0.1355E-02
  0.1404E-02  0.1647E-02  0.1795E-02  0.1843E-02  0.2095E-02  0.2763E-02
  0.3024E-02  0.3085E-02  0.3886E-02  0.5493E-02  0.5758E-02  0.6252E-02
  0.9485E-02  0.1016E-01  0.1016E-01  0.1034E-01  0.1308E-01  0.1528E-01
  0.1553E-01  0.1564E-01  0.1683E-01  0.1839E-01  0.1846E-01  0.1918E-01
  0.1973E-01  0.2352E-01  0.2638E-01  0.2693E-01  0.2778E-01  0.3726E-01
  0.3824E-01  0.4194E-01  0.4574E-01  0.4576E-01  0.4912E-01  0.4961E-01
  0.5103E-01  0.5124E-01  0.5341E-01  0.5675E-01  0.5941E-01  0.6645E-01
  0.6785E-01  0.6799E-01  0.6813E-01  0.6824E-01  0.6977E-01  0.6997E-01
  0.7009E-01  0.7337E-01  0.8901E-01  0.9019E-01  0.9593E-01  0.9647E-01
  0.9892E-01  0.1006      0.1209      0.1216      0.1218      0.1348    
  0.1350      0.1439      0.2139      0.2141      0.2222      0.2249    
  0.2257      0.2733      0.3057      0.3076      0.3152      0.3462    
  0.3528      0.3547      0.4249      0.4264      0.4495      0.4540    
  0.4579      0.4614      0.4702      0.6311      0.6321      0.6461    
  0.6560      0.7314      0.7710      0.7710      0.7964      0.7968    
  0.9019      0.9185      0.9213      0.9783      0.9823       1.033    
   1.075       1.075       1.076       1.078       1.118       1.121    
   1.185       1.187       1.188       1.212       1.224       1.225    
   1.313       1.346       1.351       1.375       1.378       1.383    
   1.429       1.447       1.453    
 NEWTON STEP ( 0.8283945561E+01) EXCEEDS TRUST RADIUS ( 0.5000000000E+00)
 LEVEL SHIFT    -0.6951732636E-04

 INITIAL TRUST RADIUS    0.5000000000E+00

 PREDICTED ENERGY CHANGE    -0.136E-02

 INITIAL DISPLACEMENTS
 -0.000389 -0.000167  0.028904  0.001131 -0.000418  0.002633 -0.000959  0.000128
  0.010274 -0.000951  0.001049 -0.026077  0.000760  0.001211 -0.032129 -0.000139
  0.000934 -0.020739  0.007237  0.001101  0.162550 -0.004946 -0.002446 -0.130387
  0.004955  0.002754 -0.114033 -0.002990 -0.003758  0.147448  0.001300 -0.005796
 -0.019909 -0.000779  0.004719 -0.001524 -0.001459 -0.005713 -0.035026  0.000810
  0.004719  0.003904 -0.004849  0.003984 -0.127996  0.003616 -0.003400  0.143920
 -0.006336  0.001702  0.165530  0.004577 -0.001722 -0.132315  0.000948 -0.000473
  0.018089  0.001566  0.000629  0.111523  0.000062 -0.002043 -0.080119  0.002259
 -0.001502 -0.065766 -0.000530 -0.000223  0.094844  0.000109 -0.000244 -0.007022
  0.000002 -0.000537 -0.005304 -0.000938 -0.001472 -0.012925  0.001122  0.000555
 -0.001517  0.001036 -0.001550 -0.017409 -0.000953  0.000531 -0.002537  0.000111
 -0.000189 -0.005870 -0.000360  0.000265  0.015109 -0.002034 -0.000823 -0.072041
  0.001259  0.000428  0.085446 -0.000788  0.001349  0.112923 -0.000194 -0.001737
[...]
   4 B    1     2.5643     4.8459   21 C    0 1-1

   5 B    1     1.3765     2.6011   42 O    1 1-1
   5 B    1     1.3792     2.6064   41 O    0 0 0
   5 B    1     1.5482     2.9257   36 C    0 0 0
   5 B    1     2.3955     4.5268    6 B    0 0 0
   5 B    1     2.4028     4.5407    4 B    0 0 0
   5 B    1     2.5643     4.8458   35 C    1 1-1

   6 B    1     1.3767     2.6016   40 O    0 1-1
   6 B    1     1.3767     2.6016   42 O    1 1-1
   6 B    1     1.5506     2.9302   30 C    0 1-1
   6 B    1     2.3954     4.5267    4 B    0 0 0
   6 B    1     2.3955     4.5268    5 B    0 0 0
   6 B    1     2.5679     4.8526   29 C    1 1-1

   7 H    1     1.0906     2.0609   20 C    0 0 0
   7 H    1     2.1445     4.0524   23 C    0 0 0
   7 H    1     2.1587     4.0794   19 C    0 0 0
   7 H    1     2.4588     4.6464   10 H    0 0 0
   7 H    1     2.6217     4.9542   38 O    0 0 0
   7 H    1     2.7597     5.2150    2 B    0 0 0

   8 H    1     1.0905     2.0607   21 C    0 0 0
   8 H    1     2.1444     4.0524   22 C    0 0 0
   8 H    1     2.1584     4.0788   24 C    0-1 1
   8 H    1     2.4588     4.6464    9 H    0 0 0
   8 H    1     2.6219     4.9546   40 O    0 0 0
   8 H    1     2.7594     5.2144    4 B    0-1 1

   9 H    1     1.0912     2.0621   22 C    0 0 0
   9 H    1     2.1432     4.0501   21 C    0 0 0
   9 H    1     2.1600     4.0818   19 C    0-1 1
   9 H    1     2.4588     4.6464    8 H    0 0 0
   9 H    1     2.6161     4.9438   39 O    0 0-1
   9 H    1     2.7614     5.2183    2 B    0-1 1

  10 H    1     1.0913     2.0623   23 C    0 0 0
  10 H    1     2.1433     4.0502   20 C    0 0 0
  10 H    1     2.1603     4.0823   24 C    0 0 0
  10 H    1     2.4588     4.6464    7 H    0 0 0
  10 H    1     2.6166     4.9446   41 O    0 0 0
  10 H    1     2.7618     5.2191    4 B    0 0 0

  11 H    1     1.0905     2.0607   26 C    0 0-1
  11 H    1     2.1451     4.0537   29 C    0 0-1
  11 H    1     2.1581     4.0783   25 C   -1 0 0
  11 H    1     2.4625     4.6535   14 H    0 0-1
  11 H    1     2.6116     4.9352   38 O    0 0 0
  11 H    1     2.7611     5.2176    1 B    0 0 0

  12 H    1     1.0904     2.0606   27 C    0 0 0
  12 H    1     2.1451     4.0537   28 C    0 0 0
  12 H    1     2.1581     4.0782   30 C    0 0 0
  12 H    1     2.4625     4.6535   13 H    0 0 1
  12 H    1     2.6114     4.9348   40 O    0 0 0
  12 H    1     2.7608     5.2171    6 B    0-1 1

  13 H    1     1.0904     2.0606   28 C    0 0-1
  13 H    1     2.1453     4.0539   27 C    0 0-1
  13 H    1     2.1579     4.0779   25 C    0 0 0
  13 H    1     2.4625     4.6535   12 H    0 0-1
  13 H    1     2.6107     4.9334   37 O    0 0 0
  13 H    1     2.7605     5.2166    1 B    1 0 0

  14 H    1     1.0904     2.0606   29 C    0 0 0
  14 H    1     2.1452     4.0538   26 C    0 0 0
  14 H    1     2.1579     4.0778   30 C   -1 0 0
  14 H    1     2.4625     4.6535   11 H    0 0 1
  14 H    1     2.6106     4.9334   42 O    0 0 0
  14 H    1     2.7603     5.2163    6 B   -1-1 1

  15 H    1     1.0915     2.0625   32 C    0 0 0
  15 H    1     2.1435     4.0506   35 C    0 0 0
  15 H    1     2.1606     4.0830   31 C   -1-1 1
  15 H    1     2.4593     4.6474   18 H    0 0 0
  15 H    1     2.6172     4.9457   39 O    0 0-1
  15 H    1     2.7620     5.2194    3 B   -1-1 1

  16 H    1     1.0915     2.0627   33 C    0 0 0
  16 H    1     2.1435     4.0506   34 C    0 0 0
  16 H    1     2.1609     4.0835   36 C    0 0 0
  16 H    1     2.4593     4.6474   17 H    0 0 0
  16 H    1     2.6176     4.9466   41 O    0 0 0
  16 H    1     2.7624     5.2201    5 B    0 0 0

  17 H    1     1.0909     2.0615   34 C    0 0 0
  17 H    1     2.1449     4.0532   33 C    0 0 0
  17 H    1     2.1593     4.0805   31 C    0 0 0
  17 H    1     2.4593     4.6474   16 H    0 0 0
  17 H    1     2.6216     4.9540   37 O    0 0 0
  17 H    1     2.7596     5.2150    3 B    0 0 0

  18 H    1     1.0907     2.0611   35 C    0 0 0
  18 H    1     2.1448     4.0530   32 C    0 0 0
  18 H    1     2.1589     4.0797   36 C   -1-1 1
  18 H    1     2.4593     4.6474   15 H    0 0 0
  18 H    1     2.6217     4.9542   42 O    0 0 0
  18 H    1     2.7593     5.2142    5 B   -1-1 1

  19 C    1     1.3995     2.6448   20 C    0 0 0
  19 C    1     1.4007     2.6470   22 C    0 1-1
  19 C    1     1.5481     2.9255    2 B    0 0 0
  19 C    1     2.1587     4.0794    7 H    0 0 0
  19 C    1     2.1600     4.0818    9 H    0 1-1
  19 C    1     2.4207     4.5745   23 C    0 0 0

  20 C    1     1.0906     2.0609    7 H    0 0 0
  20 C    1     1.3852     2.6177   23 C    0 0 0
  20 C    1     1.3995     2.6448   19 C    0 0 0
  20 C    1     2.1433     4.0502   10 H    0 0 0
  20 C    1     2.4041     4.5431   22 C    0 1-1
  20 C    1     2.4244     4.5814   24 C    0 0 0

  21 C    1     1.0905     2.0607    8 H    0 0 0
  21 C    1     1.3853     2.6178   22 C    0 0 0
  21 C    1     1.3994     2.6445   24 C    0-1 1
  21 C    1     2.1432     4.0501    9 H    0 0 0
  21 C    1     2.4041     4.5431   23 C    0-1 1
  21 C    1     2.4243     4.5812   19 C    0-1 1

  22 C    1     1.0912     2.0621    9 H    0 0 0
  22 C    1     1.3853     2.6178   21 C    0 0 0
  22 C    1     1.4007     2.6470   19 C    0-1 1
  22 C    1     2.1444     4.0524    8 H    0 0 0
  22 C    1     2.4041     4.5431   20 C    0-1 1
  22 C    1     2.4207     4.5745   24 C    0-1 1

  23 C    1     1.0913     2.0623   10 H    0 0 0
  23 C    1     1.3852     2.6177   20 C    0 0 0
  23 C    1     1.4009     2.6473   24 C    0 0 0
  23 C    1     2.1445     4.0524    7 H    0 0 0
  23 C    1     2.4041     4.5431   21 C    0 1-1
  23 C    1     2.4207     4.5745   19 C    0 0 0

  24 C    1     1.3994     2.6445   21 C    0 1-1
  24 C    1     1.4009     2.6473   23 C    0 0 0
  24 C    1     1.5482     2.9257    4 B    0 0 0
  24 C    1     2.1584     4.0788    8 H    0 1-1
  24 C    1     2.1603     4.0823   10 H    0 0 0
  24 C    1     2.4207     4.5745   22 C    0 1-1

  25 C    1     1.4006     2.6467   28 C    0 0-1
  25 C    1     1.4006     2.6468   26 C    1 0-1
  25 C    1     1.5511     2.9311    1 B    1 0 0
  25 C    1     2.1579     4.0779   13 H    0 0 0
  25 C    1     2.1581     4.0783   11 H    1 0 0
  25 C    1     2.4236     4.5799   29 C    1 0-1

  26 C    1     1.0905     2.0607   11 H    0 0 1
  26 C    1     1.3859     2.6189   29 C    0 0 0
  26 C    1     1.4006     2.6468   25 C   -1 0 1
  26 C    1     2.1452     4.0538   14 H    0 0 0
  26 C    1     2.4044     4.5436   28 C   -1 0 0
  26 C    1     2.4239     4.5806   30 C   -1 0 0

  27 C    1     1.0904     2.0606   12 H    0 0 0
  27 C    1     1.3859     2.6189   28 C    0 0 0
  27 C    1     1.4007     2.6469   30 C    0 0 0
  27 C    1     2.1453     4.0539   13 H    0 0 1
  27 C    1     2.4043     4.5434   29 C    1 0 0
  27 C    1     2.4237     4.5801   25 C    0 0 1

  28 C    1     1.0904     2.0606   13 H    0 0 1
  28 C    1     1.3859     2.6189   27 C    0 0 0
  28 C    1     1.4006     2.6467   25 C    0 0 1
  28 C    1     2.1451     4.0537   12 H    0 0 0
  28 C    1     2.4044     4.5436   26 C    1 0 0
  28 C    1     2.4239     4.5804   30 C    0 0 0

  29 C    1     1.0904     2.0606   14 H    0 0 0
  29 C    1     1.3859     2.6189   26 C    0 0 0
  29 C    1     1.4007     2.6469   30 C   -1 0 0
  29 C    1     2.1451     4.0537   11 H    0 0 1
  29 C    1     2.4043     4.5434   27 C   -1 0 0
  29 C    1     2.4236     4.5799   25 C   -1 0 1

  30 C    1     1.4007     2.6469   27 C    0 0 0
  30 C    1     1.4007     2.6469   29 C    1 0 0
  30 C    1     1.5506     2.9302    6 B    0-1 1
  30 C    1     2.1579     4.0778   14 H    1 0 0
  30 C    1     2.1581     4.0782   12 H    0 0 0
  30 C    1     2.4239     4.5804   28 C    0 0 0

  31 C    1     1.3999     2.6455   34 C    0 0 0
  31 C    1     1.4011     2.6477   32 C    1 1-1
  31 C    1     1.5481     2.9255    3 B    0 0 0
  31 C    1     2.1593     4.0805   17 H    0 0 0
  31 C    1     2.1606     4.0830   15 H    1 1-1
  31 C    1     2.4209     4.5748   33 C    0 0 0

  32 C    1     1.0915     2.0625   15 H    0 0 0
  32 C    1     1.3853     2.6178   35 C    0 0 0
  32 C    1     1.4011     2.6477   31 C   -1-1 1
  32 C    1     2.1448     4.0530   18 H    0 0 0
  32 C    1     2.4050     4.5449   34 C   -1-1 1
  32 C    1     2.4208     4.5747   36 C   -1-1 1

  33 C    1     1.0915     2.0627   16 H    0 0 0
  33 C    1     1.3853     2.6177   34 C    0 0 0
  33 C    1     1.4013     2.6481   36 C    0 0 0
  33 C    1     2.1449     4.0532   17 H    0 0 0
  33 C    1     2.4050     4.5448   35 C    1 1-1
  33 C    1     2.4209     4.5748   31 C    0 0 0

  34 C    1     1.0909     2.0615   17 H    0 0 0
  34 C    1     1.3853     2.6177   33 C    0 0 0
  34 C    1     1.3999     2.6455   31 C    0 0 0
  34 C    1     2.1435     4.0506   16 H    0 0 0
  34 C    1     2.4050     4.5449   32 C    1 1-1
  34 C    1     2.4246     4.5817   36 C    0 0 0

  35 C    1     1.0907     2.0611   18 H    0 0 0
  35 C    1     1.3853     2.6178   32 C    0 0 0
  35 C    1     1.3997     2.6450   36 C   -1-1 1
  35 C    1     2.1435     4.0506   15 H    0 0 0
  35 C    1     2.4050     4.5448   33 C   -1-1 1
  35 C    1     2.4244     4.5815   31 C   -1-1 1

  36 C    1     1.3997     2.6450   35 C    1 1-1
  36 C    1     1.4013     2.6481   33 C    0 0 0
  36 C    1     1.5482     2.9257    5 B    0 0 0
  36 C    1     2.1589     4.0797   18 H    1 1-1
  36 C    1     2.1609     4.0835   16 H    0 0 0
  36 C    1     2.4208     4.5747   32 C    1 1-1

  37 O    1     1.3766     2.6013    1 B    1 0 0
  37 O    1     1.3767     2.6015    3 B    0 0 0
  37 O    1     2.3725     4.4833   39 O    1 1-2
  37 O    1     2.3754     4.4888   38 O    1 0 0
  37 O    1     2.5414     4.8026   25 C    0 0 0
  37 O    1     2.5441     4.8076   31 C    0 0 0

  38 O    1     1.3766     2.6015    2 B    0 0 0
  38 O    1     1.3767     2.6015    1 B    0 0 0
  38 O    1     2.3725     4.4834   39 O    0 1-2
  38 O    1     2.3754     4.4888   37 O   -1 0 0
  38 O    1     2.5416     4.8029   25 C   -1 0 0
  38 O    1     2.5440     4.8075   19 C    0 0 0

  39 O    1     1.3792     2.6063    3 B   -1-1 2
  39 O    1     1.3792     2.6064    2 B    0-1 2
  39 O    1     2.3725     4.4833   37 O   -1-1 2
  39 O    1     2.3725     4.4834   38 O    0-1 2
  39 O    1     2.5415     4.8028   31 C   -1-1 2
  39 O    1     2.5415     4.8028   19 C    0-1 2

  40 O    1     1.3765     2.6013    4 B    0-1 1
  40 O    1     1.3767     2.6016    6 B    0-1 1
  40 O    1     2.3725     4.4835   41 O    0-1 1
  40 O    1     2.3754     4.4888   42 O    1 0 0
  40 O    1     2.5412     4.8022   30 C    0 0 0
  40 O    1     2.5441     4.8077   24 C    0-1 1

  41 O    1     1.3792     2.6064    5 B    0 0 0
  41 O    1     1.3793     2.6064    4 B    0 0 0
  41 O    1     2.3724     4.4832   42 O    1 1-1
  41 O    1     2.3725     4.4835   40 O    0 1-1
  41 O    1     2.5416     4.8029   24 C    0 0 0
  41 O    1     2.5416     4.8030   36 C    0 0 0

  42 O    1     1.3765     2.6011    5 B   -1-1 1
  42 O    1     1.3767     2.6016    6 B   -1-1 1
  42 O    1     2.3724     4.4832   41 O   -1-1 1
  42 O    1     2.3754     4.4888   40 O   -1 0 0
  42 O    1     2.5412     4.8021   30 C   -1 0 0
  42 O    1     2.5440     4.8075   36 C   -1-1 1


 FINAL OPTIMIZED GEOMETRY - DIMENSIONALITY OF THE SYSTEM      3
 (NON PERIODIC DIRECTION: LATTICE PARAMETER FORMALLY SET TO 500)
 *******************************************************************************
 LATTICE PARAMETERS (ANGSTROMS AND DEGREES) - BOHR = 0.5291772083 ANGSTROM
 PRIMITIVE CELL - CENTRING CODE 1/0 VOLUME=   634.597891 - DENSITY  1.021 g/cm^3
         A              B              C           ALPHA      BETA       GAMMA 
    15.03331758    15.05568437     3.76395389    63.684763  90.072771 119.944294
 *******************************************************************************
 ATOMS IN THE ASYMMETRIC UNIT   42 - ATOMS IN THE UNIT CELL:   42
     ATOM                 X/A                 Y/B                 Z/C    
 *******************************************************************************
      1 T   5 B    -4.244575946668E-01  1.510682348490E-01  4.941383308509E-01
      2 T   5 B    -2.652355591381E-01  3.096927695632E-01  4.956213494625E-01
      3 T   5 B    -4.250463690123E-01  3.097372687102E-01  4.954017486273E-01
      4 T   5 B     1.887095375196E-01 -4.627071918731E-01  4.999213772688E-01
      5 T   5 B     3.485356284728E-01 -4.627201846400E-01  4.999151138552E-01
      6 T   5 B     3.476746962673E-01 -3.045960473010E-01 -4.951298496830E-01
      7 T   1 H    -1.353532744284E-01  2.271161992553E-01 -4.569520511891E-01
      8 T   1 H     5.875231748073E-02 -3.802863954357E-01  4.533878109558E-01
      9 T   1 H    -1.297986665868E-01 -4.747361094305E-01  4.507193322603E-01
     10 T   1 H     5.320908274363E-02  3.215911533215E-01 -4.544406415951E-01
     11 T   1 H    -3.477328858675E-01  1.841390324750E-02  4.934725652054E-01
     12 T   1 H     2.706063679737E-01 -1.726515322637E-01 -4.898248980175E-01
     13 T   1 H     3.663542696140E-01  1.878454630199E-02  4.916308290614E-01
     14 T   1 H    -4.434964239336E-01 -1.730293133663E-01 -4.879267713723E-01
     15 T   1 H    -3.447192388397E-01 -4.741271576625E-01  4.465804484399E-01
     16 T   1 H     2.681616936450E-01  3.210587845058E-01 -4.508669835202E-01
     17 T   1 H     3.623105544527E-01  2.265804726542E-01 -4.533237822962E-01
     18 T   1 H    -4.389080139844E-01 -3.797289804706E-01  4.495387876202E-01
     19 T   6 C    -1.465721470292E-01  3.690188212553E-01  4.980068790527E-01
     20 T   6 C    -9.318396969373E-02  3.131405597803E-01 -4.742085659001E-01
     21 T   6 C     1.661872709673E-02 -4.662364067419E-01  4.701571429624E-01
     22 T   6 C    -8.976696418466E-02  4.801864475956E-01  4.707348458338E-01
     23 T   6 C     1.320466573936E-02  3.667295831288E-01 -4.748861769562E-01
     24 T   6 C     7.003090717061E-02  4.779408644557E-01  4.976040624137E-01
     25 T   6 C    -4.836547847451E-01  3.267719168521E-02  4.907608868418E-01
     26 T   6 C    -4.316911764872E-01 -2.332197724187E-02  4.969382185474E-01
     27 T   6 C     3.545486899263E-01 -1.309431318488E-01 -4.930859013533E-01
     28 T   6 C     4.084787202225E-01 -2.310799990496E-02  4.957857014803E-01
     29 T   6 C    -4.856286893968E-01 -1.311584816916E-01 -4.919112397654E-01
     30 T   6 C     4.065587484089E-01 -1.868415790591E-01 -4.877598330590E-01
     31 T   6 C    -4.843846069606E-01  3.690796213775E-01  4.977033728210E-01
     32 T   6 C    -4.299284151459E-01  4.805439213059E-01  4.683747597726E-01
     33 T   6 C     3.533932100021E-01  3.664261741102E-01 -4.729274111915E-01
     34 T   6 C     4.062242050650E-01  3.128619088962E-01 -4.723155822220E-01
     35 T   6 C    -4.827756997097E-01 -4.659177378729E-01  4.679430136248E-01
     36 T   6 C     4.078715249991E-01  4.779306671491E-01  4.975488614127E-01
     37 T   8 O    -4.764429375064E-01  2.051048305389E-01  4.894505676991E-01
     38 T   8 O    -3.184560702162E-01  2.050661761159E-01  4.896517478665E-01
     39 T   8 O    -3.197719580457E-01  3.604581903700E-01 -4.967400837255E-01
     40 T   8 O     2.417809322270E-01 -3.583805219340E-01 -4.921810333274E-01
     41 T   8 O     2.432966985470E-01  4.866352081675E-01  4.915273883975E-01
     42 T   8 O     3.997977780049E-01 -3.583632496023E-01 -4.924229871597E-01

 T = ATOM BELONGING TO THE ASYMMETRIC UNIT
 INFORMATION **** fort.34 **** GEOMETRY OUTPUT FILE

 DIRECT LATTICE VECTORS CARTESIAN COMPONENTS (ANGSTROM)
          X                    Y                    Z
   0.130199791121E+02  -0.751536132362E+01  -0.112024637178E-01
   0.125158510589E-01   0.150548387093E+02  -0.159080411952E+00
   0.979556580252E+00   0.170180784403E+01   0.321117858060E+01


 CARTESIAN COORDINATES - PRIMITIVE CELL
 *******************************************************************************
 *      ATOM          X(ANGSTROM)         Y(ANGSTROM)         Z(ANGSTROM)
 *******************************************************************************
    1     5 B    -6.020058395711E+00  4.603380743673E+00 -1.643689182948E+00
    2     5 B    -3.943552797254E+00  5.797360214156E+00 -1.665944680752E+00
    3     5 B     6.995478353881E+00 -5.166689207834E-01 -1.676069126112E+00
    4     5 B     1.973863607977E+00  5.819598483540E+00 -1.693428534935E+00
    5     5 B     4.054789675769E+00  4.618241397949E+00 -1.695237026965E+00
    6     5 B     4.050413153160E+00  7.013677518149E+00 -1.704470328359E+00
    7     1 H    -2.207064641889E+00  3.658781926661E+00 -1.501968087534E+00
    8     1 H     1.204313352128E+00 -5.395116308016E+00  1.515747172988E+00
    9     1 H    -1.254412566411E+00 -5.404553983129E+00  1.524315546328E+00
   10     1 H     2.516558120631E-01  3.668246812559E+00 -1.511044980415E+00
   11     1 H    -5.023416726739E+00  2.028544263051E+00 -1.625583875377E+00
   12     1 H     4.020873755978E+00 -3.764725612555E+00  1.662697378701E+00
   13     1 H     4.272183675989E+00 -3.335633036561E+00 -1.639556516534E+00
   14     1 H    -5.274875084339E+00  1.599557704081E+00  1.676852410517E+00
   15     1 H    -4.056720577232E+00 -3.787224141071E+00  1.513335618871E+00
   16     1 H     3.053828253320E+00  2.050867226870E+00 -1.501892635525E+00
   17     1 H     4.276055404575E+00 -8.323222618644E-02 -1.495806905558E+00
   18     1 H    -5.278977128071E+00 -1.653177606333E+00  1.508873619702E+00
   19     6 C    -2.395478372993E+00  5.802765648715E+00 -1.669051254540E+00
   20     6 C    -1.673848239526E+00  4.607579965491E+00 -1.571539028766E+00
   21     6 C     6.710856573852E-01 -6.343892528946E+00  1.583741455963E+00
   22     6 C    -7.141584918486E-01 -6.349977766478E+00  1.595311419299E+00
   23     6 C    -2.886634745586E-01  4.613651868774E+00 -1.583431737614E+00
   24     6 C     4.256575386810E-01  5.814033708356E+00 -1.690098622062E+00
   25     6 C     6.224384375888E+00 -4.255198127327E+00 -1.646240372233E+00
   26     6 C    -5.134122893168E+00  3.738899924082E+00  1.604303437771E+00
   27     6 C     5.111128713272E+00 -3.773218852360E+00  1.644650364302E+00
   28     6 C     5.803745335021E+00 -2.574020391211E+00  1.591156487264E+00
   29     6 C    -5.826815263755E+00  2.539774720340E+00  1.657868726982E+00
   30     6 C     5.792816156938E+00 -4.996571396369E+00  1.670063027944E+00
   31     6 C     6.225893026417E+00  8.265858478489E-01 -1.677453671251E+00
   32     6 C    -5.145360841842E+00 -3.792176258057E+00  1.591486540739E+00
   33     6 C     4.142499190383E+00  2.055777709588E+00 -1.580904474339E+00
   34     6 C     4.830286561299E+00  8.533735345648E-01 -1.571010594186E+00
   35     6 C    -5.833184224874E+00 -2.589733482743E+00  1.582175245231E+00
   36     6 C     4.824281125888E+00  3.274791935277E+00 -1.694058907406E+00
   37     8 O     6.319157023204E+00 -1.715757384569E+00 -1.677958691276E+00
   38     8 O    -4.643639793210E+00  4.612035980863E+00 -1.667873895101E+00
   39     8 O    -2.698900481602E+00 -4.666737468820E+00  4.932556852514E+00
   40     8 O     3.640934660441E+00 -6.348221720284E+00  1.685000167547E+00
   41     8 O     2.675730894331E+00  4.632429291897E+00 -1.712936011025E+00
   42     8 O    -7.321905211544E+00 -2.056581466438E-02  1.693652748630E+00

 ****    1 SYMMOPS - TRANSLATORS IN FRACTIONAL UNITS
 **** MATRICES AND TRANSLATORS IN THE CRYSTALLOGRAPHIC REFERENCE FRAME
   V INV                    ROTATION MATRICES                   TRANSLATORS
   1   1  1.00  0.00  0.00  0.00  1.00  0.00 -0.00 -0.00  1.00  0.00  0.00  0.00
 TTTTTTTTTTTTTTTTTTTTTTTTTTTTTT END         TELAPSE     2212.68 TCPU   118660.21
 EEEEEEEEEE TERMINATION  DATE 20 02 2026 TIME 13:08:38.4
