 Default number of threads is:           32

         
 *******************************************************************************
 *                                                                             *
 *                               CRYSTAL23                                     *
 *                      public : 1.0.1 - October 2022                          *
 *                       HTTP://WWW.CRYSTAL.UNITO.IT                           *
 *                                                                             *
 *                              MAIN AUTHORS                                   *
 *                                                                             *
 *  R. DOVESI(1,11), V.R. SAUNDERS(2), C. ROETTI(1,11), R. ORLANDO(1,11),      *
 *  C.M. ZICOVICH-WILSON(1,3), F. PASCALE(4), B. CIVALLERI(1,11),              *
 *  K. DOLL(5), N.M. HARRISON(6), I.J. BUSH(7), Ph. D'ARCO(8),                 *
 *  M. LLUNELL(9), M. CAUSA'(10), Y. NOEL(8), L. MASCHIO(1,11), A. ERBA(1,11)  *
 *  M. RE'RAT(14), S. CASASSA(1,11), B.G. SEARLE(2), J.K. DESMARAIS(1)         *
 *                                                                             *
 *        CONTRIBUTIONS TO THE CODE HAVE ALSO BEEN GIVEN BY                    *
 *                                                                             *
 *  M. FERRABONE(1,11), M. DE LA PIERRE(1,11), M. FERRERO(1,11),               *
 *  J. BAIMA(1,11), E. ALBANESE(1,11), M.F. PEINTINGER(12), R. BAST(13),       *
 *  B. KIRTMAN(15), V. LACIVITA(1,11), R. DEMICHELIS(1,16)                     *
 *  G. BRANDEBURG(17), S. SALUSTRO(1,11), G. SANSONE(1,11)                     *
 *  M.T. RUGGIERO(18), L.E. DAGA(1), L. DONA'(1), A. COSSARD(1)                *
 *                                                                             *
 * (1) THEORETICAL CHEMISTRY GROUP - UNIVERSITA' DI TORINO - TORINO (ITALY)    *
 * (2) SCIENTIFIC COMPUTING DEPARTMENT - STFC DARESBURY (UK)                   *
 * (3) UNIVERSIDAD AUTONOMA DEL ESTADO DE MORELOS - CUERNAVACA (MEXICO)        *
 * (4) UNIVERSITE' DE LORRAINE - NANCY (FRANCE)                                *
 * (5) UNIVERSITAET STUTTGART- STUTTGART (GERMANY)                             *
 * (6) IMPERIAL COLLEGE - LONDON (UK)                                          *
 * (7) SCIENTIFIC COMPUTING DEPARTMENT - STFC RAL (UK)                         *
 * (8) UPMC - SORBONNE UNIVERSITES - PARIS (FRANCE)                            *
 * (9) UNIVERSIDAD DE BARCELONA - BARCELONA (SPAIN)                            *
 *(10) UNIVERSITA' DI NAPOLI "FEDERICO II" - NAPOLI (ITALY)                    *
 *(11) NIS - NANOSTRUCTURED INTERFACES AND SURFACES - TORINO (ITALY)           *
 *(12) MPI FUER CHEMISCHE ENERGIEKONVERSION - MUELHEIM AN DER RUHR (GERMANY)   *
 *(13) UNIVERSITY OF TROMSO - TROMSO (NORWAY)                                  *
 *(14) UNIVERSITE' DE PAU ET DES PAYS DE L'ADOUR - PAU (FRANCE)                *
 *(15) UNIVERSITY OF CALIFORNIA SANTA BARBARA - SANTA BARBARA (USA)            *
 *(16) CURTIN UNIVERSITY - PERTH (AUSTRALIA)                                   *
 *(17) UNIVERSITY COLLEGE LONDON - LONDON (UK)                                 *
 *(18) UNIVERSITY OF VERMONT - BURLINGTON (USA)                                *
 *                                                                             *
 *******************************************************************************
 EEEEEEEEEE STARTING  DATE 02 12 2025 TIME 08:01:57.5
 COF-5_z37_inc_L070                                                              

 CRYSTAL CALCULATION
 (INPUT ACCORDING TO THE INTERNATIONAL TABLES FOR X-RAY CRYSTALLOGRAPHY)
 CRYSTAL FAMILY                       :  TRICLINIC   
 CRYSTAL CLASS  (GROTH - 1921)        :  TRICLINIC PEDIAL                     

 SPACE GROUP (NONCENTROSYMMETRIC)     :  P 1             

 LATTICE PARAMETERS  (ANGSTROMS AND DEGREES) - CONVENTIONAL CELL
        A           B           C        ALPHA        BETA       GAMMA
    15.02070    15.04439     7.91770    40.07417    89.99967   120.05310


 NUMBER OF IRREDUCIBLE ATOMS IN THE CONVENTIONAL CELL:   42

 INPUT COORDINATES

 ATOM AT. N.              COORDINATES
   1   5     4.806334100000E-01 -4.103404000000E-02  5.006138300000E-01
   2   5     6.394101100000E-01  1.179873100000E-01  5.006238200000E-01
   3   5     4.805639400000E-01  1.184433400000E-01  4.991939600000E-01
   4   5     9.251413000000E-02  3.426725100000E-01  5.054084500000E-01
   5   5     2.499984300000E-01  3.399980300000E-01  5.094520300000E-01
   6   5     2.518794000000E-01  5.025431700000E-01  5.034868600000E-01
   7   1     7.683873400000E-01  3.834404000000E-02  5.045119200000E-01
   8   1    -3.403982000000E-02  4.264654100000E-01  4.929225000000E-01
   9   1     7.716151800000E-01  3.292402700000E-01  4.927842200000E-01
  10   1    -3.705696000000E-02  1.357897000000E-01  5.040805300000E-01
  11   1     4.584495900000E-01  6.321908500000E-01  5.042025900000E-01
  12   1     2.749113800000E-01 -1.672159200000E-01  4.945546000000E-01
  13   1     1.762187400000E-01  6.383697900000E-01  4.958613400000E-01
  14   1     5.570530000000E-01 -1.731186400000E-01  5.023414100000E-01
  15   1     4.597845800000E-01  4.229906800000E-01  4.977586700000E-01
  16   1     2.702410700000E-01  3.692520000000E-02  5.060411500000E-01
  17   1     1.729754000000E-01  1.330428000000E-01  5.056763000000E-01
  18   1     5.573243200000E-01  3.266297000000E-01  4.986920500000E-01
  19   6     7.587700200000E-01  1.775507800000E-01  5.003738500000E-01
  20   6     8.128180700000E-01  1.234250000000E-01  5.021398000000E-01
  21   6    -7.844124000000E-02  3.411975900000E-01  4.957474100000E-01
  22   6     8.144893800000E-01  2.874914500000E-01  4.960845400000E-01
  23   6    -7.997774000000E-02  1.773359500000E-01  5.014961400000E-01
  24   6    -2.488780000000E-02  2.861815900000E-01  4.993130500000E-01
  25   6     3.112824200000E-01  6.227963500000E-01  5.018551900000E-01
  26   6     4.190504900000E-01  6.770686600000E-01  5.022453400000E-01
  27   6     3.140135900000E-01 -2.125501300000E-01  4.969693900000E-01
  28   6     2.595936700000E-01  6.798933500000E-01  4.980879700000E-01
  29   6     4.735213300000E-01 -2.152921800000E-01  5.008080500000E-01
  30   6     4.212797700000E-01 -1.594258800000E-01  4.991839200000E-01
  31   6     3.113954000000E-01  2.847642800000E-01  4.999550700000E-01
  32   6     4.193932800000E-01  3.383157000000E-01  4.994036400000E-01
  33   6     3.113361000000E-01  1.218548000000E-01  5.039268100000E-01
  34   6     2.575985500000E-01  1.752271700000E-01  5.033189200000E-01
  35   6     4.729539200000E-01  2.847467900000E-01  5.003419200000E-01
  36   6     4.198644900000E-01  1.763559700000E-01  5.015836700000E-01
  37   8     4.277944100000E-01  1.233511000000E-02  4.995838000000E-01
  38   8     5.861477000000E-01  1.102512000000E-02  5.025736000000E-01
  39   8     5.869747100000E-01  1.721983300000E-01  4.980542500000E-01
  40   8     1.460775900000E-01  4.499792300000E-01  5.027202600000E-01
  41   8     1.438190100000E-01  2.868928300000E-01  5.102074100000E-01
  42   8     3.042196800000E-01  4.483609900000E-01  5.051918000000E-01

 *******************************************************************************

 << INFORMATION >>: FROM NOW ON, ALL COORDINATES REFER TO THE PRIMITIVE CELL

 *******************************************************************************

 LATTICE PARAMETERS  (ANGSTROMS AND DEGREES) - PRIMITIVE CELL
       A          B          C        ALPHA      BETA     GAMMA        VOLUME
   15.02070   15.04439    7.91770    40.07417  89.99967 120.05310    723.791120

 COORDINATES OF THE EQUIVALENT ATOMS (FRACTIONAL UNITS)

 N. ATOM EQUIV AT. N.          X                  Y                  Z

   1   1   1    5 B     4.80633410000E-01 -4.10340400000E-02 -4.99386170000E-01

   2   2   1    5 B    -3.60589890000E-01  1.17987310000E-01 -4.99376180000E-01

   3   3   1    5 B     4.80563940000E-01  1.18443340000E-01  4.99193960000E-01

   4   4   1    5 B     9.25141300000E-02  3.42672510000E-01 -4.94591550000E-01

   5   5   1    5 B     2.49998430000E-01  3.39998030000E-01 -4.90547970000E-01

   6   6   1    5 B     2.51879400000E-01 -4.97456830000E-01 -4.96513140000E-01

   7   7   1    1 H    -2.31612660000E-01  3.83440400000E-02 -4.95488080000E-01

   8   8   1    1 H    -3.40398200000E-02  4.26465410000E-01  4.92922500000E-01

   9   9   1    1 H    -2.28384820000E-01  3.29240270000E-01  4.92784220000E-01

  10  10   1    1 H    -3.70569600000E-02  1.35789700000E-01 -4.95919470000E-01

  11  11   1    1 H     4.58449590000E-01 -3.67809150000E-01 -4.95797410000E-01

  12  12   1    1 H     2.74911380000E-01 -1.67215920000E-01  4.94554600000E-01

  13  13   1    1 H     1.76218740000E-01 -3.61630210000E-01  4.95861340000E-01

  14  14   1    1 H    -4.42947000000E-01 -1.73118640000E-01 -4.97658590000E-01

  15  15   1    1 H     4.59784580000E-01  4.22990680000E-01  4.97758670000E-01

  16  16   1    1 H     2.70241070000E-01  3.69252000000E-02 -4.93958850000E-01

  17  17   1    1 H     1.72975400000E-01  1.33042800000E-01 -4.94323700000E-01

  18  18   1    1 H    -4.42675680000E-01  3.26629700000E-01  4.98692050000E-01

  19  19   1    6 C    -2.41229980000E-01  1.77550780000E-01 -4.99626150000E-01

  20  20   1    6 C    -1.87181930000E-01  1.23425000000E-01 -4.97860200000E-01

  21  21   1    6 C    -7.84412400000E-02  3.41197590000E-01  4.95747410000E-01

  22  22   1    6 C    -1.85510620000E-01  2.87491450000E-01  4.96084540000E-01

  23  23   1    6 C    -7.99777400000E-02  1.77335950000E-01 -4.98503860000E-01

  24  24   1    6 C    -2.48878000000E-02  2.86181590000E-01  4.99313050000E-01

  25  25   1    6 C     3.11282420000E-01 -3.77203650000E-01 -4.98144810000E-01

  26  26   1    6 C     4.19050490000E-01 -3.22931340000E-01 -4.97754660000E-01

  27  27   1    6 C     3.14013590000E-01 -2.12550130000E-01  4.96969390000E-01

  28  28   1    6 C     2.59593670000E-01 -3.20106650000E-01  4.98087970000E-01

  29  29   1    6 C     4.73521330000E-01 -2.15292180000E-01 -4.99191950000E-01

  30  30   1    6 C     4.21279770000E-01 -1.59425880000E-01  4.99183920000E-01

  31  31   1    6 C     3.11395400000E-01  2.84764280000E-01  4.99955070000E-01

  32  32   1    6 C     4.19393280000E-01  3.38315700000E-01  4.99403640000E-01

  33  33   1    6 C     3.11336100000E-01  1.21854800000E-01 -4.96073190000E-01

  34  34   1    6 C     2.57598550000E-01  1.75227170000E-01 -4.96681080000E-01

  35  35   1    6 C     4.72953920000E-01  2.84746790000E-01 -4.99658080000E-01

  36  36   1    6 C     4.19864490000E-01  1.76355970000E-01 -4.98416330000E-01

  37  37   1    8 O     4.27794410000E-01  1.23351100000E-02  4.99583800000E-01

  38  38   1    8 O    -4.13852300000E-01  1.10251200000E-02 -4.97426400000E-01

  39  39   1    8 O    -4.13025290000E-01  1.72198330000E-01  4.98054250000E-01

  40  40   1    8 O     1.46077590000E-01  4.49979230000E-01 -4.97279740000E-01

  41  41   1    8 O     1.43819010000E-01  2.86892830000E-01 -4.89792590000E-01

  42  42   1    8 O     3.04219680000E-01  4.48360990000E-01 -4.94808200000E-01

 NUMBER OF SYMMETRY OPERATORS         :    1
 *******************************************************************************
 * GEOMETRY EDITING - INPUT COORDINATES ARE GIVEN IN ANGSTROM         
 *******************************************************************************

 GCALCO - MAX INDICES DIRECT LATTICE VECTOR     9    14    24
 NO.OF VECTORS CREATED 6999 STARS 3500 RMAX   210.41127 BOHR

 GEOMETRY FOR WAVE FUNCTION - DIMENSIONALITY OF THE SYSTEM    3
 (NON PERIODIC DIRECTION: LATTICE PARAMETER FORMALLY SET TO 500)
 *******************************************************************************
 LATTICE PARAMETERS (ANGSTROMS AND DEGREES) - BOHR = 0.5291772083 ANGSTROM
 PRIMITIVE CELL - CENTRING CODE 1/0 VOLUME=   723.791120 - DENSITY  0.895 g/cm^3
         A              B              C           ALPHA      BETA       GAMMA 
    15.02070100    15.04438700     7.91770200    40.074172  89.999666 120.053104
 *******************************************************************************
 ATOMS IN THE ASYMMETRIC UNIT   42 - ATOMS IN THE UNIT CELL:   42
     ATOM                 X/A                 Y/B                 Z/C    
 *******************************************************************************
      1 T   5 B     4.806334100000E-01 -4.103404000000E-02 -4.993861700000E-01
      2 T   5 B    -3.605898900000E-01  1.179873100000E-01 -4.993761800000E-01
      3 T   5 B     4.805639400000E-01  1.184433400000E-01  4.991939600000E-01
      4 T   5 B     9.251413000000E-02  3.426725100000E-01 -4.945915500000E-01
      5 T   5 B     2.499984300000E-01  3.399980300000E-01 -4.905479700000E-01
      6 T   5 B     2.518794000000E-01 -4.974568300000E-01 -4.965131400000E-01
      7 T   1 H    -2.316126600000E-01  3.834404000000E-02 -4.954880800000E-01
      8 T   1 H    -3.403982000000E-02  4.264654100000E-01  4.929225000000E-01
      9 T   1 H    -2.283848200000E-01  3.292402700000E-01  4.927842200000E-01
     10 T   1 H    -3.705696000000E-02  1.357897000000E-01 -4.959194700000E-01
     11 T   1 H     4.584495900000E-01 -3.678091500000E-01 -4.957974100000E-01
     12 T   1 H     2.749113800000E-01 -1.672159200000E-01  4.945546000000E-01
     13 T   1 H     1.762187400000E-01 -3.616302100000E-01  4.958613400000E-01
     14 T   1 H    -4.429470000000E-01 -1.731186400000E-01 -4.976585900000E-01
     15 T   1 H     4.597845800000E-01  4.229906800000E-01  4.977586700000E-01
     16 T   1 H     2.702410700000E-01  3.692520000000E-02 -4.939588500000E-01
     17 T   1 H     1.729754000000E-01  1.330428000000E-01 -4.943237000000E-01
     18 T   1 H    -4.426756800000E-01  3.266297000000E-01  4.986920500000E-01
     19 T   6 C    -2.412299800000E-01  1.775507800000E-01 -4.996261500000E-01
     20 T   6 C    -1.871819300000E-01  1.234250000000E-01 -4.978602000000E-01
     21 T   6 C    -7.844124000000E-02  3.411975900000E-01  4.957474100000E-01
     22 T   6 C    -1.855106200000E-01  2.874914500000E-01  4.960845400000E-01
     23 T   6 C    -7.997774000000E-02  1.773359500000E-01 -4.985038600000E-01
     24 T   6 C    -2.488780000000E-02  2.861815900000E-01  4.993130500000E-01
     25 T   6 C     3.112824200000E-01 -3.772036500000E-01 -4.981448100000E-01
     26 T   6 C     4.190504900000E-01 -3.229313400000E-01 -4.977546600000E-01
     27 T   6 C     3.140135900000E-01 -2.125501300000E-01  4.969693900000E-01
     28 T   6 C     2.595936700000E-01 -3.201066500000E-01  4.980879700000E-01
     29 T   6 C     4.735213300000E-01 -2.152921800000E-01 -4.991919500000E-01
     30 T   6 C     4.212797700000E-01 -1.594258800000E-01  4.991839200000E-01
     31 T   6 C     3.113954000000E-01  2.847642800000E-01  4.999550700000E-01
     32 T   6 C     4.193932800000E-01  3.383157000000E-01  4.994036400000E-01
     33 T   6 C     3.113361000000E-01  1.218548000000E-01 -4.960731900000E-01
     34 T   6 C     2.575985500000E-01  1.752271700000E-01 -4.966810800000E-01
     35 T   6 C     4.729539200000E-01  2.847467900000E-01 -4.996580800000E-01
     36 T   6 C     4.198644900000E-01  1.763559700000E-01 -4.984163300000E-01
     37 T   8 O     4.277944100000E-01  1.233511000000E-02  4.995838000000E-01
     38 T   8 O    -4.138523000000E-01  1.102512000000E-02 -4.974264000000E-01
     39 T   8 O    -4.130252900000E-01  1.721983300000E-01  4.980542500000E-01
     40 T   8 O     1.460775900000E-01  4.499792300000E-01 -4.972797400000E-01
     41 T   8 O     1.438190100000E-01  2.868928300000E-01 -4.897925900000E-01
     42 T   8 O     3.042196800000E-01  4.483609900000E-01 -4.948082000000E-01

 T = ATOM BELONGING TO THE ASYMMETRIC UNIT

 ****    1 SYMMOPS - TRANSLATORS IN FRACTIONAL UNITS
 **** MATRICES AND TRANSLATORS IN THE CRYSTALLOGRAPHIC REFERENCE FRAME
   V INV                    ROTATION MATRICES                   TRANSLATORS
   1   1  1.00  0.00  0.00  0.00  1.00  0.00  0.00  0.00  1.00  0.00  0.00  0.00

 DIRECT LATTICE VECTORS CARTESIAN COMPONENTS (ANGSTROM)
          X                    Y                    Z
   0.130013421718E+02  -0.752240388864E+01   0.000000000000E+00
   0.000000000000E+00   0.150443870000E+02   0.000000000000E+00
   0.350554712827E+01   0.605871807754E+01   0.370041613190E+01


 CARTESIAN COORDINATES - PRIMITIVE CELL
 *******************************************************************************
 *      ATOM          X(ANGSTROM)         Y(ANGSTROM)         Z(ANGSTROM)
 *******************************************************************************
    1     5 B     9.927105401906E-01  1.727178296281E+00 -5.548352771414E+00
    2     5 B    -6.438739277296E+00  1.461970054212E+00 -1.847899672358E+00
    3     5 B    -1.497870871226E+00 -2.718781706341E-01  5.547641514429E+00
    4     5 B    -5.310061279134E-01  1.462778438452E+00 -1.830194550321E+00
    5     5 B     1.530676103326E+00  2.623809268324E-01 -1.815231621658E+00
    6     5 B     1.534220053348E+00  2.657482218605E+00 -1.837305232956E+00
    7     1 H    -4.748232259909E+00 -6.828760363546E-01 -1.833512084396E+00
    8     1 H    -2.220147421219E+00  3.599732328527E+00 -1.876397761123E+00
    9     1 H    -1.241830884383E+00 -5.387525442021E+00  1.823506677233E+00
   10     1 H    -2.220259290716E+00 -6.830060404731E-01 -1.835108406911E+00
   11     1 H     4.222418801272E+00  3.058384095933E+00 -1.834656734118E+00
   12     1 H     5.307901376095E+00 -1.587288551635E+00  1.830057819945E+00
   13     1 H     5.237983040078E-01  5.223859621913E+00 -1.865522830178E+00
   14     1 H    -3.997924023726E+00  3.771107400052E+00  1.858872257285E+00
   15     1 H     4.217185997807E+00 -1.379884505744E-01 -1.858501919638E+00
   16     1 H     1.781900591837E+00 -4.470102891041E+00 -1.827853297034E+00
   17     1 H     5.160373357304E-01 -2.294611388181E+00 -1.829203393860E+00
   18     1 H    -4.007189503036E+00 -3.779023592407E+00  1.845368106670E+00
   19     6 C    -4.887776527409E+00  1.458677999065E+00 -1.848824665378E+00
   20     6 C    -4.178888714691E+00  2.485169497636E-01 -1.842289915510E+00
   21     6 C    -2.787522620414E+00  2.668050993555E+00 -1.865944418588E+00
   22     6 C    -4.178386440810E+00  2.667536735210E+00 -1.864696897297E+00
   23     6 C    -2.787346738718E+00  2.492411748888E-01 -1.844671725358E+00
   24     6 C    -2.078756503436E+00  1.459121600583E+00 -1.852750066811E+00
   25     6 C     2.300819146322E+00  4.009878259335E+00 -1.843343090946E+00
   26     6 C     3.703316388795E+00  4.018060754377E+00 -1.841899373592E+00
   27     6 C     5.824747748128E+00 -2.548826035947E+00  1.838993547816E+00
   28     6 C     1.615589853888E+00  5.234866753957E+00 -1.857283372606E+00
   29     6 C     9.009248019208E-01 -8.397519373057E-01 -5.547634076593E+00
   30     6 C    -2.268679846459E+00 -4.006351610289E+00  5.547604362251E+00
   31     6 C     2.295627077751E+00 -1.087969192741E+00 -1.850374325646E+00
   32     6 C     3.697811405604E+00 -1.098065537248E+00 -1.852414846114E+00
   33     6 C     2.308779219911E+00 -3.514332724342E+00 -1.835677234878E+00
   34     6 C     1.607987957845E+00 -2.310825614001E+00 -1.837926680841E+00
   35     6 C     4.397460797943E+00 -2.301196943073E+00 -1.848942819666E+00
   36     6 C     3.711579965955E+00 -3.524986838550E+00 -1.844347827934E+00
   37     8 O    -2.182578984507E+00 -1.468895798310E+00  5.549084084654E+00
   38     8 O     2.371407994588E+00  1.728529034740E+00 -5.541100806891E+00
   39     8 O    -1.183833468114E-01 -2.705372695145E-01  5.543424113159E+00
   40     8 O     1.559671667160E-01  2.657929296691E+00 -1.840141971962E+00
   41     8 O     1.528491524951E-01  2.667468626832E-01 -1.812436401320E+00
   42     8 O     2.220690690515E+00  1.458949559175E+00 -1.830996245476E+00

 *******************************************************************************
 STARTING BASIS SET HANDLING 
 *******************************************************************************

 Loading internal basis set: SOLDEF2MSVP         

 Please cite in your publication:
 L. Dona', J. G. Brandenburg and B. Civalleri, J. Chem. Phys., 151, 121101 (2019
 )                                                                              
                                                                                
                    

 *******************************************************************************
 LOCAL ATOMIC FUNCTIONS BASIS SET
 *******************************************************************************
   ATOM   X(AU)   Y(AU)   Z(AU)  N. TYPE  EXPONENT  S COEF   P COEF   D/F/G COEF
 *******************************************************************************
   1 B    1.876   3.264 -10.485
                                  1 S  
                                         2.410E+03 1.755E-03 0.000E+00 0.000E+00
                                         3.619E+02 1.344E-02 0.000E+00 0.000E+00
                                         8.231E+01 6.637E-02 0.000E+00 0.000E+00
                                         2.311E+01 2.303E-01 0.000E+00 0.000E+00
                                         7.252E+00 5.150E-01 0.000E+00 0.000E+00
                                  2 S  
                                         2.367E+00 1.000E+00 0.000E+00 0.000E+00
                                  3 S  
                                         5.533E-01 1.000E+00 0.000E+00 0.000E+00
                                  4 S  
                                         1.716E-01 1.000E+00 0.000E+00 0.000E+00
                           5-     7 P  
                                         6.002E+00 0.000E+00-3.555E-02 0.000E+00
                                         1.240E+00 0.000E+00-1.983E-01 0.000E+00
                                         3.367E-01 0.000E+00-5.048E-01 0.000E+00
                           8-    10 P  
                                         1.256E-01 0.000E+00 1.000E+00 0.000E+00
                          11-    15 D  
                                         8.880E-01 0.000E+00 0.000E+00 1.000E+00
   2 B  -12.167   2.763  -3.492
   3 B   -2.831  -0.514  10.484
   4 B   -1.003   2.764  -3.459
   5 B    2.893   0.496  -3.430
   6 B    2.899   5.022  -3.472
   7 H   -8.973  -1.290  -3.465
                                 91 S  
                                         1.874E+01 1.968E-02 0.000E+00 0.000E+00
                                         2.826E+00 1.380E-01 0.000E+00 0.000E+00
                                         6.401E-01 4.783E-01 0.000E+00 0.000E+00
                                 92 S  
                                         1.756E-01 1.000E+00 0.000E+00 0.000E+00
   8 H   -4.195   6.803  -3.546
   9 H   -2.347 -10.181   3.446
  10 H   -4.196  -1.291  -3.468
  11 H    7.979   5.780  -3.467
  12 H   10.030  -3.000   3.458
  13 H    0.990   9.872  -3.525
  14 H   -7.555   7.126   3.513
  15 H    7.969  -0.261  -3.512
  16 H    3.367  -8.447  -3.454
  17 H    0.975  -4.336  -3.457
  18 H   -7.572  -7.141   3.487
  19 C   -9.237   2.757  -3.494
                                115 S  
                                         3.624E+03 1.634E-03 0.000E+00 0.000E+00
                                         5.440E+02 1.252E-02 0.000E+00 0.000E+00
                                         1.237E+02 6.211E-02 0.000E+00 0.000E+00
                                         3.476E+01 2.182E-01 0.000E+00 0.000E+00
                                         1.093E+01 4.980E-01 0.000E+00 0.000E+00
                                116 S  
                                         3.574E+00 1.000E+00 0.000E+00 0.000E+00
                                117 S  
                                         7.742E-01 1.000E+00 0.000E+00 0.000E+00
                                118 S  
                                         2.330E-01 1.000E+00 0.000E+00 0.000E+00
                         119-   121 P  
                                         9.443E+00 0.000E+00 3.790E-02 0.000E+00
                                         2.002E+00 0.000E+00 2.082E-01 0.000E+00
                                         5.463E-01 0.000E+00 5.047E-01 0.000E+00
                         122-   124 P  
                                         1.820E-01 0.000E+00 1.000E+00 0.000E+00
                         125-   129 D  
                                         8.880E-01 0.000E+00 0.000E+00 1.000E+00
  20 C   -7.897   0.470  -3.481
  21 C   -5.268   5.042  -3.526
  22 C   -7.896   5.041  -3.524
  23 C   -5.267   0.471  -3.486
  24 C   -3.928   2.757  -3.501
  25 C    4.348   7.578  -3.483
  26 C    6.998   7.593  -3.481
  27 C   11.007  -4.817   3.475
  28 C    3.053   9.892  -3.510
  29 C    1.703  -1.587 -10.484
  30 C   -4.287  -7.571  10.483
  31 C    4.338  -2.056  -3.497
  32 C    6.988  -2.075  -3.501
  33 C    4.363  -6.641  -3.469
  34 C    3.039  -4.367  -3.473
  35 C    8.310  -4.349  -3.494
  36 C    7.014  -6.661  -3.485
  37 O   -4.124  -2.776  10.486
                                385 S  
                                         6.773E+03 1.727E-03 0.000E+00 0.000E+00
                                         1.017E+03 1.325E-02 0.000E+00 0.000E+00
                                         2.313E+02 6.603E-02 0.000E+00 0.000E+00
                                         6.501E+01 2.353E-01 0.000E+00 0.000E+00
                                         2.050E+01 5.498E-01 0.000E+00 0.000E+00
                                386 S  
                                         6.716E+00 1.000E+00 0.000E+00 0.000E+00
                                387 S  
                                         1.147E+00 1.000E+00 0.000E+00 0.000E+00
                                388 S  
                                         3.342E-01 1.000E+00 0.000E+00 0.000E+00
                         389-   391 P  
                                         1.769E+01 0.000E+00 4.359E-02 0.000E+00
                                         3.854E+00 0.000E+00 2.318E-01 0.000E+00
                                         1.047E+00 0.000E+00 5.146E-01 0.000E+00
                         392-   394 P  
                                         2.759E-01 0.000E+00 1.000E+00 0.000E+00
                         395-   399 D  
                                         8.000E-01 0.000E+00 0.000E+00 1.000E+00
  38 O    4.481   3.266 -10.471
  39 O   -0.224  -0.511  10.476
  40 O    0.295   5.023  -3.477
  41 O    0.289   0.504  -3.425
  42 O    4.196   2.757  -3.460

 *******************************************************************************
 FINISHED BASIS SET HANDLING 
 *******************************************************************************

 INFORMATION **** SET_MPP **** PCRYSTAL CALCULATION
 INFORMATION **** READM2 **** NEW DEFAULT: FOCK/KS MATRIX MIXING SET TO 30 %
 INFORMATION **** READM2 **** NEW DEFAULT: FULL DIRECT SCF MODE
 INFORMATION **** READM2 **** NEW DEFAULT: COULOMB BIPOLAR BUFFER SET TO 32 Mb
 INFORMATION **** READM2 **** NEW DEFAULT: EXCHANGE BIPOLAR BUFFER SET TO 32 Mb

 *******************************************************************************
 NEW DEFAULT: DFT INTEGRATION GRID INCREASED TO XLGRID
 NEW DEFAULT: DIIS ACCELERATOR ACTIVE
 USE KEYWORD NODIIS TO TURN IT OFF
 *******************************************************************************

 WARNING **** RDDFTP **** HSEsol-HJS ACTIVE
 RANGE SEPARATION - OMEGA:   0.110000000000000     
 WARNING **** RDDFTP **** HSEsol-3c has to be combined with sol-def2-mSVP basis set
 *******************************************************************************
 N. OF ATOMS PER CELL        42  COULOMB OVERLAP TOL         (T1) 10**   -6
 NUMBER OF SHELLS           234  COULOMB PENETRATION TOL     (T2) 10**   -6
 NUMBER OF AO               474  EXCHANGE OVERLAP TOL        (T3) 10**   -6
 N. OF ELECTRONS PER CELL   198  EXCHANGE PSEUDO OVP (F(G))  (T4) 10**   -6
 CORE ELECTRONS PER CELL     60  EXCHANGE PSEUDO OVP (P(G))  (T5) 10**  -12
 N. OF SYMMETRY OPERATORS     1  POLE ORDER IN MONO ZONE                  4
 *******************************************************************************
 TYPE OF CALCULATION :  RESTRICTED CLOSED SHELL
 KOHN-SHAM HAMILTONIAN

 (EXCHANGE)[CORRELATION] FUNCTIONAL:(HSEsol GGA)[PBEsol]

 RANGE-SEPARATED HYBRID FUNCTIONAL 
 OMEGA (SHORT-RANGE)[LONG-RANGE]:(    0.1100)[    0.0000]

 HYBRID EXCHANGE - PERCENTAGE OF FOCK EXCHANGE    25.0000

 CAPPA:IS1  2;IS2  2;IS3  8; K PTS MONK NET  20; SYMMOPS:K SPACE   2;G SPACE   1

 *******************************************************************************
 MAX NUMBER OF SCF CYCLES      50  CONVERGENCE ON DELTAP        10**-16
 WEIGHT OF F(I) IN F(I+1)      30% CONVERGENCE ON ENERGY        10**- 6
 SHRINK. FACT.(MONKH.)    2  2  8  NUMBER OF K POINTS IN THE IBZ     20
 SHRINKING FACTOR(GILAT NET)    8  NUMBER OF K POINTS(GILAT NET)   1028
 *******************************************************************************
 *** K POINTS COORDINATES (OBLIQUE COORDINATES IN UNITS OF IS =  2)
   1-R(  0  0  0)   2-R(  1  0  0)   3-R(  0  1  0)   4-R(  1  1  0)
   5-C(  0  0  1)   6-C(  1  0  1)   7-C(  0  1  1)   8-C(  1  1  1)
   9-C(  0  0  2)  10-C(  1  0  2)  11-C(  0  1  2)  12-C(  1  1  2)
  13-C(  0  0  3)  14-C(  1  0  3)  15-C(  0  1  3)  16-C(  1  1  3)
  17-R(  0  0  4)  18-R(  1  0  4)  19-R(  0  1  4)  20-R(  1  1  4)

 DIRECT LATTICE VECTORS COMPON. (A.U.)     RECIP. LATTICE VECTORS COMPON. (A.U.) 
        X            Y            Z              X            Y            Z
   24.5689761  -14.2152832    0.0000000      0.2557366    0.0000000   -0.2422691
    0.0000000   28.4297713    0.0000000      0.1278719    0.2210072   -0.4829947
    6.6245240   11.4493179    6.9927731      0.0000000    0.0000000    0.8985256

 DISK SPACE FOR EIGENVECTORS (FTN 10)     7189632 REALS

 SYMMETRY ADAPTION OF THE BLOCH FUNCTIONS DISABLED
 TTTTTTTTTTTTTTTTTTTTTTTTTTTTTT gordsh1     TELAPSE        0.04 TCPU        0.04

 MATRIX SIZE: P(G)  317056, F(G)   61771, P(G) IRR  159713, F(G) IRR   62251
 MAX G-VECTOR INDEX FOR 1- AND 2-ELECTRON INTEGRALS  45

 TTTTTTTTTTTTTTTTTTTTTTTTTTTTTT INPUT       TELAPSE        0.41 TCPU        0.41

 NEIGHBORS OF THE NON-EQUIVALENT ATOMS

 N = NUMBER OF NEIGHBORS AT DISTANCE R
    ATOM  N     R/ANG      R/AU   NEIGHBORS (ATOM LABELS AND CELL INDICES)
   1 B    1     1.3787     2.6054   38 O    0 0 0
   1 B    1     1.3795     2.6068   37 O    1 2-3
   1 B    1     1.5517     2.9323   30 C    1 2-3
   1 B    1     2.3868     4.5104    2 B    1 1-1
   1 B    1     2.3912     4.5187    3 B    1 2-3
   1 B    1     2.5629     4.8432   27 C    0 1-2

   2 B    1     1.3792     2.6064   38 O   -1-1 1
   2 B    1     1.3798     2.6075   39 O    0 1-2
   2 B    1     1.5510     2.9309   19 C    0 0 0
   2 B    1     2.3868     4.5104    1 B   -1-1 1
   2 B    1     2.3894     4.5154    3 B    0 1-2
   2 B    1     2.5618     4.8411   22 C    0 0 0

   3 B    1     1.3790     2.6060   37 O    0 0 0
   3 B    1     1.3795     2.6069   39 O    0 0 0
   3 B    1     1.5529     2.9346   36 C   -1-1 2
   3 B    1     2.3894     4.5154    2 B    0-1 2
   3 B    1     2.3912     4.5187    1 B   -1-2 3
   3 B    1     2.5679     4.8526   35 C   -1-1 2

   4 B    1     1.3778     2.6038   41 O    0 0 0
   4 B    1     1.3786     2.6051   40 O    0 0 0
   4 B    1     1.5479     2.9251   24 C    0 0 0
   4 B    1     2.3857     4.5084    5 B    0 0 0
   4 B    1     2.3859     4.5087    6 B    0 0 0
   4 B    1     2.5585     4.8348   21 C    0 0 0

   5 B    1     1.3778     2.6037   41 O    0 0 0
   5 B    1     1.3814     2.6104   42 O    0 0 0
   5 B    1     1.5524     2.9335   31 C    0 0 0
   5 B    1     2.3857     4.5084    4 B    0 0 0
   5 B    1     2.3952     4.5263    6 B    0 0 0
   5 B    1     2.5590     4.8359   32 C    0 0 0

   6 B    1     1.3783     2.6045   40 O    0 0 0
   6 B    1     1.3812     2.6101   42 O    0 0 0
   6 B    1     1.5546     2.9377   25 C    0 0 0
   6 B    1     2.3859     4.5087    4 B    0 0 0
   6 B    1     2.3952     4.5263    5 B    0 0 0
   6 B    1     2.5605     4.8386   26 C    0 0 0

   7 H    1     1.0917     2.0629   20 C    0 0 0
   7 H    1     2.1462     4.0556   19 C    0 0 0
   7 H    1     2.1712     4.1029   23 C    0 0 0
   7 H    1     2.5280     4.7772   10 H    0 0 0
   7 H    1     2.5583     4.8346   38 O   -1-1 1
   7 H    1     2.7310     5.1609    2 B    0 0 0

   8 H    1     1.0909     2.0615   21 C    0 0 0
   8 H    1     2.1454     4.0542   24 C    0 0 0
   8 H    1     2.1688     4.0985   22 C    0 0 0
   8 H    1     2.5272     4.7758    9 H    0 1-1
   8 H    1     2.5562     4.8305   40 O    0 0 0
   8 H    1     2.7243     5.1482    4 B    0 0 0

   9 H    1     1.0908     2.0614   22 C    0-1 1
   9 H    1     2.1443     4.0520   19 C    0-1 1
   9 H    1     2.1694     4.0995   21 C    0-1 1
   9 H    1     2.5272     4.7758    8 H    0-1 1
   9 H    1     2.5616     4.8407   39 O    0 0-1
   9 H    1     2.7248     5.1492    2 B    0-1 1

  10 H    1     1.0912     2.0621   23 C    0 0 0
  10 H    1     2.1469     4.0570   24 C    0 0 0
  10 H    1     2.1689     4.0986   20 C    0 0 0
  10 H    1     2.5280     4.7772    7 H    0 0 0
  10 H    1     2.5562     4.8305   41 O    0 0 0
  10 H    1     2.7309     5.1607    4 B    0 0 0

  11 H    1     1.0911     2.0619   26 C    0 0 0
  11 H    1     2.1443     4.0521   25 C    0 0 0
  11 H    1     2.1684     4.0978   29 C    0 0 1
  11 H    1     2.5223     4.7664   14 H    1 1-1
  11 H    1     2.5622     4.8419   42 O    0 0 0
  11 H    1     2.7179     5.1361    6 B    0 0 0

  12 H    1     1.0917     2.0630   27 C    0 0 0
  12 H    1     2.1441     4.0518   30 C    1 1-1
  12 H    1     2.1716     4.1037   28 C    0-1 1
  12 H    1     2.5226     4.7669   13 H    0-1 1
  12 H    1     2.5541     4.8265   37 O    1 1-1
  12 H    1     2.7237     5.1471    1 B    0-1 2

  13 H    1     1.0919     2.0634   28 C    0 0 0
  13 H    1     2.1522     4.0671   25 C    0 0 0
  13 H    1     2.1668     4.0946   27 C    0 1-1
  13 H    1     2.5226     4.7669   12 H    0 1-1
  13 H    1     2.5923     4.8987   40 O    0 0 0
  13 H    1     2.7583     5.2124    6 B    0 0 0

  14 H    1     1.0915     2.0627   29 C   -1-1 2
  14 H    1     2.1483     4.0597   30 C    0 1-1
  14 H    1     2.1679     4.0968   26 C   -1-1 1
  14 H    1     2.5223     4.7664   11 H   -1-1 1
  14 H    1     2.5809     4.8771   38 O   -1-1 2
  14 H    1     2.7404     5.1785    1 B   -1-1 2

  15 H    1     1.0916     2.0628   32 C    0 0 0
  15 H    1     2.1436     4.0508   31 C    0 0 0
  15 H    1     2.1707     4.1021   35 C    0 0 0
  15 H    1     2.5217     4.7654   18 H    1 1-1
  15 H    1     2.5567     4.8316   42 O    0 0 0
  15 H    1     2.7165     5.1335    5 B    0 0 0

  16 H    1     1.0914     2.0625   33 C    0 0 0
  16 H    1     2.1488     4.0606   36 C    0 0 0
  16 H    1     2.1663     4.0937   34 C    0 0 0
  16 H    1     2.5170     4.7564   17 H    0 0 0
  16 H    1     2.5780     4.8717   37 O    1 1-2
  16 H    1     2.7395     5.1770    3 B    1 1-2

  17 H    1     1.0921     2.0638   34 C    0 0 0
  17 H    1     2.1502     4.0633   31 C    0 0 0
  17 H    1     2.1683     4.0976   33 C    0 0 0
  17 H    1     2.5170     4.7564   16 H    0 0 0
  17 H    1     2.5870     4.8888   41 O    0 0 0
  17 H    1     2.7510     5.1986    5 B    0 0 0

  18 H    1     1.0913     2.0622   35 C   -1-1 1
  18 H    1     2.1495     4.0619   36 C   -1-1 1
  18 H    1     2.1656     4.0923   32 C   -1-1 1
  18 H    1     2.5217     4.7654   15 H   -1-1 1
  18 H    1     2.5789     4.8734   39 O    0 0-1
  18 H    1     2.7392     5.1763    3 B    0 0-1

  19 C    1     1.4017     2.6489   22 C    0 0 0
  19 C    1     1.4025     2.6504   20 C    0 0 0
  19 C    1     1.5510     2.9309    2 B    0 0 0
  19 C    1     2.1443     4.0520    9 H    0 1-1
  19 C    1     2.1462     4.0556    7 H    0 0 0
  19 C    1     2.4236     4.5800   21 C    0 0 0

  20 C    1     1.0917     2.0629    7 H    0 0 0
  20 C    1     1.3915     2.6296   23 C    0 0 0
  20 C    1     1.4025     2.6504   19 C    0 0 0
  20 C    1     2.1689     4.0986   10 H    0 0 0
  20 C    1     2.4191     4.5715   22 C    0 0 0
  20 C    1     2.4241     4.5809   24 C    0 0 0

  21 C    1     1.0909     2.0615    8 H    0 0 0
  21 C    1     1.3909     2.6284   22 C    0 0 0
  21 C    1     1.4014     2.6483   24 C    0 0 0
  21 C    1     2.1694     4.0995    9 H    0 1-1
  21 C    1     2.4189     4.5711   23 C    0 0 0
  21 C    1     2.4236     4.5800   19 C    0 0 0

  22 C    1     1.0908     2.0614    9 H    0 1-1
  22 C    1     1.3909     2.6284   21 C    0 0 0
  22 C    1     1.4017     2.6489   19 C    0 0 0
  22 C    1     2.1688     4.0985    8 H    0 0 0
  22 C    1     2.4191     4.5715   20 C    0 0 0
  22 C    1     2.4226     4.5780   24 C    0 0 0

  23 C    1     1.0912     2.0621   10 H    0 0 0
  23 C    1     1.3915     2.6296   20 C    0 0 0
  23 C    1     1.4021     2.6496   24 C    0 0 0
  23 C    1     2.1712     4.1029    7 H    0 0 0
  23 C    1     2.4189     4.5711   21 C    0 0 0
  23 C    1     2.4237     4.5802   19 C    0 0 0

  24 C    1     1.4014     2.6483   21 C    0 0 0
  24 C    1     1.4021     2.6496   23 C    0 0 0
  24 C    1     1.5479     2.9251    4 B    0 0 0
  24 C    1     2.1454     4.0542    8 H    0 0 0
  24 C    1     2.1469     4.0570   10 H    0 0 0
  24 C    1     2.4226     4.5780   22 C    0 0 0

  25 C    1     1.4025     2.6504   26 C    0 0 0
  25 C    1     1.4037     2.6526   28 C    0 0 0
  25 C    1     1.5546     2.9377    6 B    0 0 0
  25 C    1     2.1443     4.0521   11 H    0 0 0
  25 C    1     2.1522     4.0671   13 H    0 0 0
  25 C    1     2.4271     4.5866   27 C    0 1-1

  26 C    1     1.0911     2.0619   11 H    0 0 0
  26 C    1     1.3916     2.6298   29 C    0 0 1
  26 C    1     1.4025     2.6504   25 C    0 0 0
  26 C    1     2.1679     4.0968   14 H    1 1-1
  26 C    1     2.4165     4.5665   28 C    0 0 0
  26 C    1     2.4246     4.5819   30 C    1 2-2

  27 C    1     1.0917     2.0630   12 H    0 0 0
  27 C    1     1.3928     2.6320   28 C    0-1 1
  27 C    1     1.4024     2.6502   30 C    1 1-1
  27 C    1     2.1668     4.0946   13 H    0-1 1
  27 C    1     2.4166     4.5668   29 C    0-1 2
  27 C    1     2.4271     4.5866   25 C    0-1 1

  28 C    1     1.0919     2.0634   13 H    0 0 0
  28 C    1     1.3928     2.6320   27 C    0 1-1
  28 C    1     1.4037     2.6526   25 C    0 0 0
  28 C    1     2.1716     4.1037   12 H    0 1-1
  28 C    1     2.4165     4.5665   26 C    0 0 0
  28 C    1     2.4277     4.5877   30 C    1 2-2

  29 C    1     1.0915     2.0627   14 H    1 1-2
  29 C    1     1.3916     2.6298   26 C    0 0-1
  29 C    1     1.4023     2.6499   30 C    1 2-3
  29 C    1     2.1684     4.0978   11 H    0 0-1
  29 C    1     2.4166     4.5668   27 C    0 1-2
  29 C    1     2.4281     4.5884   25 C    0 0-1

  30 C    1     1.4023     2.6499   29 C   -1-2 3
  30 C    1     1.4024     2.6502   27 C   -1-1 1
  30 C    1     1.5517     2.9323    1 B   -1-2 3
  30 C    1     2.1441     4.0518   12 H   -1-1 1
  30 C    1     2.1483     4.0597   14 H    0-1 1
  30 C    1     2.4246     4.5819   26 C   -1-2 2

  31 C    1     1.4022     2.6498   32 C    0 0 0
  31 C    1     1.4030     2.6513   34 C    0 0 0
  31 C    1     1.5524     2.9335    5 B    0 0 0
  31 C    1     2.1436     4.0508   15 H    0 0 0
  31 C    1     2.1502     4.0633   17 H    0 0 0
  31 C    1     2.4264     4.5853   33 C    0 0 0

  32 C    1     1.0916     2.0628   15 H    0 0 0
  32 C    1     1.3918     2.6301   35 C    0 0 0
  32 C    1     1.4022     2.6498   31 C    0 0 0
  32 C    1     2.1656     4.0923   18 H    1 1-1
  32 C    1     2.4163     4.5661   34 C    0 0 0
  32 C    1     2.4270     4.5863   36 C    0 0 0

  33 C    1     1.0914     2.0625   16 H    0 0 0
  33 C    1     1.3927     2.6318   34 C    0 0 0
  33 C    1     1.4029     2.6510   36 C    0 0 0
  33 C    1     2.1683     4.0976   17 H    0 0 0
  33 C    1     2.4155     4.5646   35 C    0 0 0
  33 C    1     2.4264     4.5853   31 C    0 0 0

  34 C    1     1.0921     2.0638   17 H    0 0 0
  34 C    1     1.3927     2.6318   33 C    0 0 0
  34 C    1     1.4030     2.6513   31 C    0 0 0
  34 C    1     2.1663     4.0937   16 H    0 0 0
  34 C    1     2.4163     4.5661   32 C    0 0 0
  34 C    1     2.4289     4.5899   36 C    0 0 0

  35 C    1     1.0913     2.0622   18 H    1 1-1
  35 C    1     1.3918     2.6301   32 C    0 0 0
  35 C    1     1.4029     2.6511   36 C    0 0 0
  35 C    1     2.1707     4.1021   15 H    0 0 0
  35 C    1     2.4155     4.5646   33 C    0 0 0
  35 C    1     2.4269     4.5861   31 C    0 0 0

  36 C    1     1.4029     2.6510   33 C    0 0 0
  36 C    1     1.4029     2.6511   35 C    0 0 0
  36 C    1     1.5529     2.9346    3 B    1 1-2
  36 C    1     2.1488     4.0606   16 H    0 0 0
  36 C    1     2.1495     4.0619   18 H    1 1-1
  36 C    1     2.4270     4.5863   32 C    0 0 0

  37 O    1     1.3790     2.6060    3 B    0 0 0
  37 O    1     1.3795     2.6068    1 B   -1-2 3
  37 O    1     2.3868     4.5105   39 O    0 0 0
  37 O    1     2.3885     4.5136   38 O   -1-2 3
  37 O    1     2.5389     4.7979   30 C    0 0 0
  37 O    1     2.5412     4.8022   36 C   -1-1 2

  38 O    1     1.3787     2.6054    1 B    0 0 0
  38 O    1     1.3792     2.6064    2 B    1 1-1
  38 O    1     2.3885     4.5136   37 O    1 2-3
  38 O    1     2.3912     4.5187   39 O    1 2-3
  38 O    1     2.5351     4.7906   19 C    1 1-1
  38 O    1     2.5405     4.8008   30 C    1 2-3

  39 O    1     1.3795     2.6069    3 B    0 0 0
  39 O    1     1.3798     2.6075    2 B    0-1 2
  39 O    1     2.3868     4.5105   37 O    0 0 0
  39 O    1     2.3912     4.5187   38 O   -1-2 3
  39 O    1     2.5416     4.8030   19 C    0-1 2
  39 O    1     2.5427     4.8050   36 C   -1-1 2

  40 O    1     1.3783     2.6045    6 B    0 0 0
  40 O    1     1.3786     2.6051    4 B    0 0 0
  40 O    1     2.3876     4.5119   42 O    0 0 0
  40 O    1     2.3913     4.5190   41 O    0 0 0
  40 O    1     2.5354     4.7912   25 C    0 0 0
  40 O    1     2.5360     4.7923   24 C    0 0 0

  41 O    1     1.3778     2.6037    5 B    0 0 0
  41 O    1     1.3778     2.6038    4 B    0 0 0
  41 O    1     2.3870     4.5107   42 O    0 0 0
  41 O    1     2.3913     4.5190   40 O    0 0 0
  41 O    1     2.5305     4.7820   24 C    0 0 0
  41 O    1     2.5354     4.7912   31 C    0 0 0

  42 O    1     1.3812     2.6101    6 B    0 0 0
  42 O    1     1.3814     2.6104    5 B    0 0 0
  42 O    1     2.3870     4.5107   41 O    0 0 0
  42 O    1     2.3876     4.5119   40 O    0 0 0
  42 O    1     2.5481     4.8152   31 C    0 0 0
  42 O    1     2.5522     4.8230   25 C    0 0 0


 SYMMETRY ALLOWED INTERNAL DEGREE(S) OF FREEDOM: 123
 TTTTTTTTTTTTTTTTTTTTTTTTTTTTTT SYMM        TELAPSE        0.41 TCPU        0.41
 TTTTTTTTTTTTTTTTTTTTTTTTTTTTTT INT_SCREEN  TELAPSE        0.44 TCPU        0.44

 DFT PARAMETERS

     ATOM       ELECTRONS   NET CHARGE   R(ANGSTROM)
   1   5  B       5.0000      0.0000     0.89000000
   7   1  H       1.0000      0.0000     1.11000000
  19   6  C       6.0000      0.0000     0.77000000
  37   8  O       8.0000      0.0000     0.74000000

 SIZE OF GRID=    1307014
 TTTTTTTTTTTTTTTTTTTTTTTTTTTTTT MAKE_GRID2  TELAPSE        9.05 TCPU        9.02
 BECKE WEIGHT FUNCTION
 RADSAFE =     2.00
 TOLERANCES - DENSITY:10**- 6; POTENTIAL:10**- 9; GRID WGT:10**-14

 RADIAL INTEGRATION  - INTERVALS (POINTS,UPPER LIMIT):            1( 75,  4.0*R)

 ANGULAR INTEGRATION - INTERVALS (ACCURACY LEVEL [N. POINTS] UPPER LIMIT):
  1(  4[  86]   0.2)  2(  8[ 194]   0.5)  3( 12[ 350]   0.9)  4( 16[ 974]   3.5)
  5( 12[ 350]9999.0)
 TTTTTTTTTTTTTTTTTTTTTTTTTTTTTT INT_CALC    TELAPSE        9.12 TCPU        9.10
 EEEEEEEEEE INT_CALC TERMINATION  DATE 02 12 2025 TIME 08:02:06.6

 *******************************************************************************
 COF-5_z37_inc_L070                                                              
 CRYSTAL - SCF - TYPE OF CALCULATION :  RESTRICTED CLOSED SHELL
 *******************************************************************************

 CAPPA:IS1  2;IS2  2;IS3  8; K PTS MONK NET  20; SYMMOPS:K SPACE   2;G SPACE   1

 TTTTTTTTTTTTTTTTTTTTTTTTTTTTTT SDIK        TELAPSE        9.71 TCPU       16.96

 AAAAAAAAAAAAAAAAAAAAAAAAAAAAAAAAAAAAAAAAAAAAAAAAAAAAAAAAAAAAAAAAAAAAAAAAAAAAAAA
         ATOMIC WAVEFUNCTION(S)


 NUCLEAR CHARGE  5.0  SYMMETRY SPECIES            S    P
 N. ELECTRONS    5.0  NUMBER OF PRIMITIVE GTOS    8    4
                      NUMBER OF CONTRACTED GTOS   4    2
                      NUMBER OF CLOSED SHELLS     2    0
                      OPEN SHELL OCCUPATION       0    1

  ZNUC  SCFIT    TOTAL HF ENERGY   KINETIC ENERGY   VIRIAL THEOREM ACCURACY
   5.0    11    -2.451164084E+01  2.462155050E+01 -1.995536038E+00  1.5E-06

 NUCLEAR CHARGE  1.0  SYMMETRY SPECIES            S
 N. ELECTRONS    1.0  NUMBER OF PRIMITIVE GTOS    4
                      NUMBER OF CONTRACTED GTOS   2
                      NUMBER OF CLOSED SHELLS     0
                      OPEN SHELL OCCUPATION       1

  ZNUC  SCFIT    TOTAL HF ENERGY   KINETIC ENERGY   VIRIAL THEOREM ACCURACY
   1.0     1    -4.977266687E-01  5.190767460E-01 -1.958869132E+00  0.0E+00

 NUCLEAR CHARGE  6.0  SYMMETRY SPECIES            S    P
 N. ELECTRONS    6.0  NUMBER OF PRIMITIVE GTOS    8    4
                      NUMBER OF CONTRACTED GTOS   4    2
                      NUMBER OF CLOSED SHELLS     2    0
                      OPEN SHELL OCCUPATION       0    2

  ZNUC  SCFIT    TOTAL HF ENERGY   KINETIC ENERGY   VIRIAL THEOREM ACCURACY
   6.0     9    -3.766704647E+01  3.775180683E+01 -1.997754800E+00  1.1E-06

 NUCLEAR CHARGE  8.0  SYMMETRY SPECIES            S    P
 N. ELECTRONS    8.0  NUMBER OF PRIMITIVE GTOS    8    4
                      NUMBER OF CONTRACTED GTOS   4    2
                      NUMBER OF CLOSED SHELLS     2    0
                      OPEN SHELL OCCUPATION       0    4

  ZNUC  SCFIT    TOTAL HF ENERGY   KINETIC ENERGY   VIRIAL THEOREM ACCURACY
   8.0    12    -7.477373220E+01  7.477365593E+01 -2.000001020E+00  3.8E-06

 AAAAAAAAAAAAAAAAAAAAAAAAAAAAAAAAAAAAAAAAAAAAAAAAAAAAAAAAAAAAAAAAAAAAAAAAAAAAAAA

 CHARGE NORMALIZATION FACTOR   1.00000000
 TOTAL ATOMIC CHARGES:
   5.0000000   5.0000000   5.0000000   5.0000000   5.0000000   5.0000000
   1.0000000   1.0000000   1.0000000   1.0000000   1.0000000   1.0000000
   1.0000000   1.0000000   1.0000000   1.0000000   1.0000000   1.0000000
   6.0000000   6.0000000   6.0000000   6.0000000   6.0000000   6.0000000
   6.0000000   6.0000000   6.0000000   6.0000000   6.0000000   6.0000000
   6.0000000   6.0000000   6.0000000   6.0000000   6.0000000   6.0000000
   8.0000000   8.0000000   8.0000000   8.0000000   8.0000000   8.0000000
 TTTTTTTTTTTTTTTTTTTTTTTTTTTTTT MOQGAD      TELAPSE        9.75 TCPU       18.28
 TTTTTTTTTTTTTTTTTTTTTTTTTTTTTT SHELLXN     TELAPSE       16.35 TCPU      228.98
 TTTTTTTTTTTTTTTTTTTTTTTTTTTTTT MONMO3      TELAPSE       16.49 TCPU      233.41
 NUMERICALLY INTEGRATED DENSITY    197.9999105212
 TTTTTTTTTTTTTTTTTTTTTTTTTTTTTT NUMDFT      TELAPSE       17.11 TCPU      253.05
 CYC   0 ETOT(AU) -1.295950948333E+03 DETOT -1.30E+03 tst  0.00E+00 PX  1.00E+00
 TTTTTTTTTTTTTTTTTTTTTTTTTTTTTT DIIS        TELAPSE       17.15 TCPU      254.24
 TTTTTTTTTTTTTTTTTTTTTTTTTTTTTT FDIK        TELAPSE       17.66 TCPU      270.78
 INSULATING STATE
 TOP OF VALENCE BANDS -    BAND     99; K    1; EIG -3.0956845E-01 AU
 BOTTOM OF VIRTUAL BANDS - BAND    100; K   17; EIG -1.5802076E-01 AU
 INDIRECT ENERGY BAND GAP:   4.1238 eV
 BOTTOM OF VIRTUAL BANDS - BAND    100; K    1; EIG -1.5728942E-01 AU
 TTTTTTTTTTTTTTTTTTTTTTTTTTTTTT PDIG        TELAPSE       18.00 TCPU      276.97
 CHARGE NORMALIZATION FACTOR   1.00000000
 TOTAL ATOMIC CHARGES:
   4.1464846   4.1612505   4.1622781   4.1641717   4.1614010   4.1447794
   0.7852877   0.7852496   0.7853408   0.7853754   0.7857087   0.7856090
   0.7865819   0.7861448   0.7850108   0.7855914   0.7855579   0.7857963
   6.0440136   6.2660127   6.2660400   6.2663682   6.2650605   6.0462661
   6.0435107   6.2666501   6.2647868   6.2673967   6.2671421   6.0467734
   6.0431919   6.2660523   6.2669699   6.2658687   6.2674732   6.0407794
   8.6956743   8.6949368   8.6956444   8.6945940   8.6941796   8.6969947
 TTTTTTTTTTTTTTTTTTTTTTTTTTTTTT MOQGAD      TELAPSE       18.05 TCPU      277.01
 TTTTTTTTTTTTTTTTTTTTTTTTTTTTTT SHELLXN     TELAPSE       24.94 TCPU      496.77
 TTTTTTTTTTTTTTTTTTTTTTTTTTTTTT MONMO3      TELAPSE       25.08 TCPU      501.23
 NUMERICALLY INTEGRATED DENSITY    197.9999359567
 TTTTTTTTTTTTTTTTTTTTTTTTTTTTTT NUMDFT      TELAPSE       25.71 TCPU      521.09
 CYC   1 ETOT(AU) -1.288815916131E+03 DETOT  7.14E+00 tst  0.00E+00 PX  1.00E+00
 TTTTTTTTTTTTTTTTTTTTTTTTTTTTTT DIIS        TELAPSE       25.76 TCPU      522.69
 DIIS TEST: 0.11125E+01 AT SCF   CYCLE   1 - MIX   30 %
 TTTTTTTTTTTTTTTTTTTTTTTTTTTTTT FDIK        TELAPSE       26.27 TCPU      539.01
 INSULATING STATE
 TOP OF VALENCE BANDS -    BAND     99; K    1; EIG -2.2051858E-01 AU
 BOTTOM OF VIRTUAL BANDS - BAND    100; K    1; EIG -8.3422882E-02 AU
 DIRECT ENERGY BAND GAP:   3.7306 eV
 TTTTTTTTTTTTTTTTTTTTTTTTTTTTTT PDIG        TELAPSE       26.60 TCPU      545.19
 CHARGE NORMALIZATION FACTOR   1.00000000
 TOTAL ATOMIC CHARGES:
   4.7090385   4.7034474   4.7035846   4.7044775   4.7034551   4.7090009
   0.9078683   0.9083319   0.9097401   0.9097399   0.9043475   0.9040481
   0.9047075   0.9050334   0.9075792   0.9079193   0.9096449   0.9096696
   5.8691400   6.1461245   6.1446334   6.1304463   6.1317201   5.8647395
   5.8983625   6.1230053   6.1239267   6.1288182   6.1250973   5.8916381
   5.8693695   6.1414936   6.1440311   6.1322173   6.1297929   5.8715691
   8.3386353   8.3375934   8.3299802   8.3367322   8.3266999   8.3425998
 TTTTTTTTTTTTTTTTTTTTTTTTTTTTTT MOQGAD      TELAPSE       26.64 TCPU      545.23
 TTTTTTTTTTTTTTTTTTTTTTTTTTTTTT SHELLXN     TELAPSE       33.53 TCPU      764.66
 TTTTTTTTTTTTTTTTTTTTTTTTTTTTTT MONMO3      TELAPSE       33.67 TCPU      769.09
 NUMERICALLY INTEGRATED DENSITY    197.9999236546
 TTTTTTTTTTTTTTTTTTTTTTTTTTTTTT NUMDFT      TELAPSE       34.29 TCPU      788.94
 CYC   2 ETOT(AU) -1.289009602443E+03 DETOT -1.94E-01 tst  3.53E-03 PX  1.60E-01
 TTTTTTTTTTTTTTTTTTTTTTTTTTTTTT DIIS        TELAPSE       34.35 TCPU      790.87
 DIIS TEST: 0.46406E+00 AT SCF   CYCLE   2 - DIIS ACTIVE - HISTORY:     2 CYCLES
 TTTTTTTTTTTTTTTTTTTTTTTTTTTTTT FDIK        TELAPSE       34.86 TCPU      807.19
 INSULATING STATE
 TOP OF VALENCE BANDS -    BAND     99; K    1; EIG -2.3390749E-01 AU
 BOTTOM OF VIRTUAL BANDS - BAND    100; K   17; EIG -7.7613997E-02 AU
 INDIRECT ENERGY BAND GAP:   4.2530 eV
 BOTTOM OF VIRTUAL BANDS - BAND    100; K    1; EIG -7.7286391E-02 AU
 TTTTTTTTTTTTTTTTTTTTTTTTTTTTTT PDIG        TELAPSE       35.20 TCPU      813.38
 CHARGE NORMALIZATION FACTOR   1.00000000
 TOTAL ATOMIC CHARGES:
   4.4947909   4.4985998   4.4988744   4.5008261   4.4988992   4.4936538
   0.8871242   0.8869138   0.8881793   0.8882687   0.8822068   0.8819568
   0.8834065   0.8828366   0.8858915   0.8869841   0.8883671   0.8880325
   5.8911999   6.1619492   6.1626599   6.1613445   6.1614689   5.8930646
   5.8913080   6.1624513   6.1634172   6.1652885   6.1658532   5.8941748
   5.8923685   6.1618088   6.1623576   6.1625408   6.1627449   5.8913112
   8.5120023   8.5113219   8.5154338   8.5106274   8.5135005   8.5139899
 TTTTTTTTTTTTTTTTTTTTTTTTTTTTTT MOQGAD      TELAPSE       35.24 TCPU      813.42
 TTTTTTTTTTTTTTTTTTTTTTTTTTTTTT SHELLXN     TELAPSE       42.15 TCPU     1033.34
 TTTTTTTTTTTTTTTTTTTTTTTTTTTTTT MONMO3      TELAPSE       42.29 TCPU     1037.83
 NUMERICALLY INTEGRATED DENSITY    197.9999252516
 TTTTTTTTTTTTTTTTTTTTTTTTTTTTTT NUMDFT      TELAPSE       42.91 TCPU     1057.65
 CYC   3 ETOT(AU) -1.289105154681E+03 DETOT -9.56E-02 tst  6.99E-04 PX  6.56E-02
 TTTTTTTTTTTTTTTTTTTTTTTTTTTTTT DIIS        TELAPSE       42.97 TCPU     1059.76
 DIIS TEST: 0.13542E-01 AT SCF   CYCLE   3 - DIIS ACTIVE - HISTORY:     3 CYCLES
 TTTTTTTTTTTTTTTTTTTTTTTTTTTTTT FDIK        TELAPSE       43.48 TCPU     1075.92
 INSULATING STATE
 TOP OF VALENCE BANDS -    BAND     99; K    1; EIG -2.4327671E-01 AU
 BOTTOM OF VIRTUAL BANDS - BAND    100; K    1; EIG -8.6037646E-02 AU
 DIRECT ENERGY BAND GAP:   4.2787 eV
 TTTTTTTTTTTTTTTTTTTTTTTTTTTTTT PDIG        TELAPSE       43.81 TCPU     1082.12
 CHARGE NORMALIZATION FACTOR   1.00000000
 TOTAL ATOMIC CHARGES:
   4.5009703   4.5033991   4.5036462   4.5050783   4.5030571   4.5000021
   0.8694785   0.8698448   0.8713348   0.8715813   0.8660254   0.8660740
   0.8670602   0.8671759   0.8689725   0.8696256   0.8717329   0.8715664
   5.9402291   6.1745662   6.1730794   6.1647950   6.1645078   5.9372141
   5.9580573   6.1626029   6.1613728   6.1656103   6.1624812   5.9534455
   5.9390418   6.1720193   6.1738462   6.1652704   6.1645546   5.9399127
   8.4828842   8.4818825   8.4757256   8.4813511   8.4730766   8.4858478
 TTTTTTTTTTTTTTTTTTTTTTTTTTTTTT MOQGAD      TELAPSE       43.85 TCPU     1082.16
 TTTTTTTTTTTTTTTTTTTTTTTTTTTTTT SHELLXN     TELAPSE       50.75 TCPU     1301.87
 TTTTTTTTTTTTTTTTTTTTTTTTTTTTTT MONMO3      TELAPSE       50.89 TCPU     1306.31
 NUMERICALLY INTEGRATED DENSITY    197.9999259705
 TTTTTTTTTTTTTTTTTTTTTTTTTTTTTT NUMDFT      TELAPSE       51.51 TCPU     1326.18
 CYC   4 ETOT(AU) -1.289108002516E+03 DETOT -2.85E-03 tst  3.41E-05 PX  1.42E-02
 TTTTTTTTTTTTTTTTTTTTTTTTTTTTTT DIIS        TELAPSE       51.58 TCPU     1328.23
 DIIS TEST: 0.39400E-02 AT SCF   CYCLE   4 - DIIS ACTIVE - HISTORY:     4 CYCLES
 TTTTTTTTTTTTTTTTTTTTTTTTTTTTTT FDIK        TELAPSE       52.08 TCPU     1344.39
 INSULATING STATE
 TOP OF VALENCE BANDS -    BAND     99; K    1; EIG -2.4163838E-01 AU
 BOTTOM OF VIRTUAL BANDS - BAND    100; K    1; EIG -8.5724249E-02 AU
 DIRECT ENERGY BAND GAP:   4.2426 eV
 TTTTTTTTTTTTTTTTTTTTTTTTTTTTTT PDIG        TELAPSE       52.42 TCPU     1350.57
 CHARGE NORMALIZATION FACTOR   1.00000000
 TOTAL ATOMIC CHARGES:
   4.5047510   4.5052224   4.5054951   4.5071724   4.5053242   4.5038436
   0.8729123   0.8728393   0.8742764   0.8743499   0.8686591   0.8683690
   0.8697080   0.8693172   0.8719889   0.8729252   0.8745116   0.8743088
   5.9208021   6.1717826   6.1720644   6.1659415   6.1662244   5.9215232
   5.9312884   6.1643412   6.1652306   6.1674164   6.1670628   5.9322504
   5.9218552   6.1707514   6.1716149   6.1669815   6.1665838   5.9212427
   8.4905177   8.4896896   8.4895431   8.4889854   8.4874548   8.4928776
 TTTTTTTTTTTTTTTTTTTTTTTTTTTTTT MOQGAD      TELAPSE       52.46 TCPU     1350.62
 TTTTTTTTTTTTTTTTTTTTTTTTTTTTTT SHELLXN     TELAPSE       59.36 TCPU     1570.35
 TTTTTTTTTTTTTTTTTTTTTTTTTTTTTT MONMO3      TELAPSE       59.50 TCPU     1574.77
 NUMERICALLY INTEGRATED DENSITY    197.9999259973
 TTTTTTTTTTTTTTTTTTTTTTTTTTTTTT NUMDFT      TELAPSE       60.12 TCPU     1594.65
 CYC   5 ETOT(AU) -1.289108904297E+03 DETOT -9.02E-04 tst  6.84E-06 PX  7.20E-03
 TTTTTTTTTTTTTTTTTTTTTTTTTTTTTT DIIS        TELAPSE       60.19 TCPU     1596.99
 DIIS TEST: 0.73450E-04 AT SCF   CYCLE   5 - DIIS ACTIVE - HISTORY:     5 CYCLES
 TTTTTTTTTTTTTTTTTTTTTTTTTTTTTT FDIK        TELAPSE       60.70 TCPU     1613.07
 INSULATING STATE
 TOP OF VALENCE BANDS -    BAND     99; K    1; EIG -2.4145629E-01 AU
 BOTTOM OF VIRTUAL BANDS - BAND    100; K    1; EIG -8.5143425E-02 AU
 DIRECT ENERGY BAND GAP:   4.2535 eV
 TTTTTTTTTTTTTTTTTTTTTTTTTTTTTT PDIG        TELAPSE       61.03 TCPU     1619.26
 CHARGE NORMALIZATION FACTOR   1.00000000
 TOTAL ATOMIC CHARGES:
   4.5034929   4.5055222   4.5057858   4.5073216   4.5054162   4.5025052
   0.8735830   0.8738446   0.8750477   0.8752752   0.8694695   0.8694999
   0.8704987   0.8704841   0.8729326   0.8736552   0.8753875   0.8751518
   5.9223499   6.1723196   6.1711646   6.1655469   6.1651796   5.9201333
   5.9331616   6.1648210   6.1637314   6.1678574   6.1654235   5.9299431
   5.9212789   6.1702381   6.1718470   6.1661455   6.1658133   5.9220084
   8.4909507   8.4900817   8.4872299   8.4895287   8.4846572   8.4937150
 TTTTTTTTTTTTTTTTTTTTTTTTTTTTTT MOQGAD      TELAPSE       61.07 TCPU     1619.30
 TTTTTTTTTTTTTTTTTTTTTTTTTTTTTT SHELLXN     TELAPSE       67.97 TCPU     1838.90
 TTTTTTTTTTTTTTTTTTTTTTTTTTTTTT MONMO3      TELAPSE       68.10 TCPU     1843.31
 NUMERICALLY INTEGRATED DENSITY    197.9999259271
 TTTTTTTTTTTTTTTTTTTTTTTTTTTTTT NUMDFT      TELAPSE       68.73 TCPU     1863.20
 CYC   6 ETOT(AU) -1.289108921812E+03 DETOT -1.75E-05 tst  1.82E-07 PX  1.45E-03
 TTTTTTTTTTTTTTTTTTTTTTTTTTTTTT DIIS        TELAPSE       68.80 TCPU     1865.57
 DIIS TEST: 0.16235E-04 AT SCF   CYCLE   6 - DIIS ACTIVE - HISTORY:     6 CYCLES
 TTTTTTTTTTTTTTTTTTTTTTTTTTTTTT FDIK        TELAPSE       69.31 TCPU     1881.73
 INSULATING STATE
 TOP OF VALENCE BANDS -    BAND     99; K    1; EIG -2.4146272E-01 AU
 BOTTOM OF VIRTUAL BANDS - BAND    100; K    1; EIG -8.5227575E-02 AU
 DIRECT ENERGY BAND GAP:   4.2514 eV
 TTTTTTTTTTTTTTTTTTTTTTTTTTTTTT PDIG        TELAPSE       69.64 TCPU     1887.92
 CHARGE NORMALIZATION FACTOR   1.00000000
 TOTAL ATOMIC CHARGES:
   4.5040934   4.5053310   4.5056084   4.5072552   4.5053693   4.5031403
   0.8737095   0.8737104   0.8751230   0.8752248   0.8695200   0.8692929
   0.8705603   0.8702663   0.8728439   0.8737352   0.8753785   0.8751765
   5.9213003   6.1714247   6.1713982   6.1652337   6.1654487   5.9214275
   5.9321335   6.1637878   6.1643230   6.1668875   6.1660166   5.9321410
   5.9219750   6.1701632   6.1712132   6.1662242   6.1657597   5.9215724
   8.4904385   8.4895641   8.4883129   8.4888940   8.4861472   8.4928741
 TTTTTTTTTTTTTTTTTTTTTTTTTTTTTT MOQGAD      TELAPSE       69.69 TCPU     1887.96
 TTTTTTTTTTTTTTTTTTTTTTTTTTTTTT SHELLXN     TELAPSE       76.57 TCPU     2107.25
 TTTTTTTTTTTTTTTTTTTTTTTTTTTTTT MONMO3      TELAPSE       76.71 TCPU     2111.69
 NUMERICALLY INTEGRATED DENSITY    197.9999259257
 TTTTTTTTTTTTTTTTTTTTTTTTTTTTTT NUMDFT      TELAPSE       77.34 TCPU     2131.77
 CYC   7 ETOT(AU) -1.289108925036E+03 DETOT -3.22E-06 tst  7.15E-08 PX  5.74E-04
 TTTTTTTTTTTTTTTTTTTTTTTTTTTTTT DIIS        TELAPSE       77.44 TCPU     2135.09
 DIIS TEST: 0.16392E-05 AT SCF   CYCLE   7 - DIIS ACTIVE - HISTORY:     7 CYCLES
 TTTTTTTTTTTTTTTTTTTTTTTTTTTTTT FDIK        TELAPSE       77.95 TCPU     2151.27
 INSULATING STATE
 TOP OF VALENCE BANDS -    BAND     99; K    1; EIG -2.4146576E-01 AU
 BOTTOM OF VIRTUAL BANDS - BAND    100; K    1; EIG -8.5250768E-02 AU
 DIRECT ENERGY BAND GAP:   4.2508 eV
 TTTTTTTTTTTTTTTTTTTTTTTTTTTTTT PDIG        TELAPSE       78.28 TCPU     2157.45
 CHARGE NORMALIZATION FACTOR   1.00000000
 TOTAL ATOMIC CHARGES:
   4.5041566   4.5054167   4.5056868   4.5072982   4.5054098   4.5032041
   0.8736324   0.8737199   0.8750654   0.8752176   0.8694436   0.8693121
   0.8704900   0.8702792   0.8728374   0.8736745   0.8753575   0.8751335
   5.9216618   6.1716899   6.1712837   6.1653388   6.1652921   5.9209428
   5.9325316   6.1641135   6.1640422   6.1671448   6.1658064   5.9314729
   5.9216877   6.1701582   6.1713717   6.1661415   6.1657911   5.9217292
   8.4905185   8.4896761   8.4882347   8.4890438   8.4859045   8.4930873
 TTTTTTTTTTTTTTTTTTTTTTTTTTTTTT MOQGAD      TELAPSE       78.33 TCPU     2157.49
 TTTTTTTTTTTTTTTTTTTTTTTTTTTTTT SHELLXN     TELAPSE       85.22 TCPU     2377.17
 TTTTTTTTTTTTTTTTTTTTTTTTTTTTTT MONMO3      TELAPSE       85.36 TCPU     2381.58
 NUMERICALLY INTEGRATED DENSITY    197.9999259254
 TTTTTTTTTTTTTTTTTTTTTTTTTTTTTT NUMDFT      TELAPSE       85.99 TCPU     2401.53
 CYC   8 ETOT(AU) -1.289108925272E+03 DETOT -2.36E-07 tst  8.05E-09 PX  1.56E-04
 TTTTTTTTTTTTTTTTTTTTTTTTTTTTTT DIIS        TELAPSE       86.08 TCPU     2404.32
 DIIS TEST: 0.88861E-07 AT SCF   CYCLE   8 - DIIS ACTIVE - HISTORY:     8 CYCLES
 TTTTTTTTTTTTTTTTTTTTTTTTTTTTTT FDIK        TELAPSE       86.59 TCPU     2420.65
 INSULATING STATE
 TOP OF VALENCE BANDS -    BAND     99; K    1; EIG -2.4146950E-01 AU
 BOTTOM OF VIRTUAL BANDS - BAND    100; K    1; EIG -8.5242957E-02 AU
 DIRECT ENERGY BAND GAP:   4.2511 eV
 TTTTTTTTTTTTTTTTTTTTTTTTTTTTTT PDIG        TELAPSE       86.94 TCPU     2426.85
 CHARGE NORMALIZATION FACTOR   1.00000000
 TOTAL ATOMIC CHARGES:
   4.5040987   4.5054242   4.5056940   4.5073108   4.5054220   4.5031445
   0.8736355   0.8737043   0.8750644   0.8751977   0.8694531   0.8692926
   0.8704911   0.8702688   0.8728258   0.8736734   0.8753411   0.8751303
   5.9215316   6.1716631   6.1713431   6.1653123   6.1653779   5.9210621
   5.9323455   6.1640688   6.1641806   6.1671550   6.1658794   5.9315260
   5.9217553   6.1701875   6.1713811   6.1662057   6.1657767   5.9216506
   8.4905785   8.4897080   8.4881226   8.4890683   8.4858508   8.4930974
 TTTTTTTTTTTTTTTTTTTTTTTTTTTTTT MOQGAD      TELAPSE       86.98 TCPU     2426.89
 TTTTTTTTTTTTTTTTTTTTTTTTTTTTTT SHELLXN     TELAPSE       93.86 TCPU     2645.95
 +++ ENERGIES IN A.U. +++
 ::: EXT EL-POLE                                  -1.4104720113588E+03
 ::: EXT EL-SPHEROPOLE                             1.5455989126375E+01
 ::: BIELET ZONE E-E                               2.0740489077918E+03
 ::: TOTAL E-E                                     6.7903288555930E+02
 ::: TOTAL E-N + N-E                              -3.1854943894135E+03
 ::: TOTAL N-N                                     7.1142479781129E+01
 ::: KINETIC ENERGY                                1.2799247450244E+03
 ::: PSEUDO TOTAL   ENERGY                        -1.1553942790486E+03
 ::: VIRIAL COEFFICIENT                            1.0511351756155E+00
 TTTTTTTTTTTTTTTTTTTTTTTTTTTTTT MONMO3      TELAPSE       94.00 TCPU     2650.41
 NUMERICALLY INTEGRATED DENSITY    197.9999259252
 EXCHANGE ENERGY: -0.126023263369E+03  CORRELATION ENERGY: -0.769138290309E+01
 TTTTTTTTTTTTTTTTTTTTTTTTTTTTTT NUMDFT      TELAPSE       94.63 TCPU     2670.44
 CYC   9 ETOT(AU) -1.289108925321E+03 DETOT -4.88E-08 tst  4.22E-10 PX  1.56E-04

 == SCF ENDED - CONVERGENCE ON ENERGY      E(AU) -1.2891089253211E+03 CYCLES   9


 ENERGY EXPRESSION=HARTREE+FOCK EXCH*0.00000+(HSESOL     EXCH)*1.00000+PBESOL     CORR


 TOTAL ENERGY(DFT)(AU)(  9) -1.2891089253211E+03 DE-4.9E-08 tester 4.2E-10
 TTTTTTTTTTTTTTTTTTTTTTTTTTTTTT EDFT        TELAPSE       94.63 TCPU     2670.45
 
 INFORMATION **** DFTD3 ENERGY **** CALCULATE DFTD3 ENERGY

           DFT-D V3(BJ)
 DF                                         hsesol3c  
 parameters
 s6       :    1.0000
 s8       :    0.0000
 a1       :    0.5196
 a2       :    4.9385
 k1 k3    :   16.0000   -4.0000
 Cutoff   :   50.2022
 CN-Cutoff:   21.1671
 ABC-Cutoff:   21.1671
 
 Edisp /kcal,au:   -24.8168 -0.03954812

 E6    /kcal :   -26.2128
 E8    /kcal :     0.0000
 E6(ABC) "   :   1.395985
 
 INFORMATION **** DFTD3 ENERGY **** NORMAL TERMINATION OF DFTD3 MODULE

 GCP ENERGY CALCULATION
  level        hsesol3c            basis:hsesol3c
  Nbf            474
  Atoms           42

  Parameters: 
  sigma     1.0000
  eta       1.4281
  alpha     0.2936
  beta      1.9467

  dmp_scal      4.0000
  dmp_exp       6.0000
 cutoffs: 
   distance [bohr] 60.0
   noise    [a.u.] 2.2E-16
 SR-damping   T
 ** gCP correction **
  Egcp:        0.0830826290 / (a.u.) ||      52.1351 / (kcal/mol)
 INFORMATION **** GCP **** NORMAL TERMINATION OF GCP MODULE

 *******************************************************************************

 DFT-D3-GCP DISPERSION AND COUNTERPOISE CORRECTION

 D3 DISPERSION ENERGY (AU)      -3.9548124766797E-02
 GCP ENERGY (AU)                 8.3082629047466E-02
 TOTAL ENERGY + DISP + GCP (AU) -1.2890653908169E+03

 *******************************************************************************

 EIGENVECTORS IN FORTRAN UNIT 10
 TTTTTTTTTTTTTTTTTTTTTTTTTTTTTT END         TELAPSE       96.24 TCPU     2678.01
 EEEEEEEEEE TERMINATION  DATE 02 12 2025 TIME 08:03:33.7
