 Default number of threads is:           32

         
 *******************************************************************************
 *                                                                             *
 *                               CRYSTAL23                                     *
 *                      public : 1.0.1 - October 2022                          *
 *                       HTTP://WWW.CRYSTAL.UNITO.IT                           *
 *                                                                             *
 *                              MAIN AUTHORS                                   *
 *                                                                             *
 *  R. DOVESI(1,11), V.R. SAUNDERS(2), C. ROETTI(1,11), R. ORLANDO(1,11),      *
 *  C.M. ZICOVICH-WILSON(1,3), F. PASCALE(4), B. CIVALLERI(1,11),              *
 *  K. DOLL(5), N.M. HARRISON(6), I.J. BUSH(7), Ph. D'ARCO(8),                 *
 *  M. LLUNELL(9), M. CAUSA'(10), Y. NOEL(8), L. MASCHIO(1,11), A. ERBA(1,11)  *
 *  M. RE'RAT(14), S. CASASSA(1,11), B.G. SEARLE(2), J.K. DESMARAIS(1)         *
 *                                                                             *
 *        CONTRIBUTIONS TO THE CODE HAVE ALSO BEEN GIVEN BY                    *
 *                                                                             *
 *  M. FERRABONE(1,11), M. DE LA PIERRE(1,11), M. FERRERO(1,11),               *
 *  J. BAIMA(1,11), E. ALBANESE(1,11), M.F. PEINTINGER(12), R. BAST(13),       *
 *  B. KIRTMAN(15), V. LACIVITA(1,11), R. DEMICHELIS(1,16)                     *
 *  G. BRANDEBURG(17), S. SALUSTRO(1,11), G. SANSONE(1,11)                     *
 *  M.T. RUGGIERO(18), L.E. DAGA(1), L. DONA'(1), A. COSSARD(1)                *
 *                                                                             *
 * (1) THEORETICAL CHEMISTRY GROUP - UNIVERSITA' DI TORINO - TORINO (ITALY)    *
 * (2) SCIENTIFIC COMPUTING DEPARTMENT - STFC DARESBURY (UK)                   *
 * (3) UNIVERSIDAD AUTONOMA DEL ESTADO DE MORELOS - CUERNAVACA (MEXICO)        *
 * (4) UNIVERSITE' DE LORRAINE - NANCY (FRANCE)                                *
 * (5) UNIVERSITAET STUTTGART- STUTTGART (GERMANY)                             *
 * (6) IMPERIAL COLLEGE - LONDON (UK)                                          *
 * (7) SCIENTIFIC COMPUTING DEPARTMENT - STFC RAL (UK)                         *
 * (8) UPMC - SORBONNE UNIVERSITES - PARIS (FRANCE)                            *
 * (9) UNIVERSIDAD DE BARCELONA - BARCELONA (SPAIN)                            *
 *(10) UNIVERSITA' DI NAPOLI "FEDERICO II" - NAPOLI (ITALY)                    *
 *(11) NIS - NANOSTRUCTURED INTERFACES AND SURFACES - TORINO (ITALY)           *
 *(12) MPI FUER CHEMISCHE ENERGIEKONVERSION - MUELHEIM AN DER RUHR (GERMANY)   *
 *(13) UNIVERSITY OF TROMSO - TROMSO (NORWAY)                                  *
 *(14) UNIVERSITE' DE PAU ET DES PAYS DE L'ADOUR - PAU (FRANCE)                *
 *(15) UNIVERSITY OF CALIFORNIA SANTA BARBARA - SANTA BARBARA (USA)            *
 *(16) CURTIN UNIVERSITY - PERTH (AUSTRALIA)                                   *
 *(17) UNIVERSITY COLLEGE LONDON - LONDON (UK)                                 *
 *(18) UNIVERSITY OF VERMONT - BURLINGTON (USA)                                *
 *                                                                             *
 *******************************************************************************
 EEEEEEEEEE STARTING  DATE 19 02 2026 TIME 18:39:46.4
 cof-1_z36_L030_incl                                                             

 CRYSTAL CALCULATION
 (INPUT ACCORDING TO THE INTERNATIONAL TABLES FOR X-RAY CRYSTALLOGRAPHY)
 CRYSTAL FAMILY                       :  TRICLINIC   
 CRYSTAL CLASS  (GROTH - 1921)        :  TRICLINIC PEDIAL                     

 SPACE GROUP (NONCENTROSYMMETRIC)     :  P 1             

 LATTICE PARAMETERS  (ANGSTROMS AND DEGREES) - CONVENTIONAL CELL
        A           B           C        ALPHA        BETA       GAMMA
    15.02361    15.02392     4.68615    56.32825    89.99996   119.99596


 NUMBER OF IRREDUCIBLE ATOMS IN THE CONVENTIONAL CELL:   42

 INPUT COORDINATES

 ATOM AT. N.              COORDINATES
   1   5     5.558929600000E-01  1.117313100000E-01  5.013243900000E-01
   2   5     7.149486200000E-01  2.707909700000E-01  5.013244100000E-01
   3   5     5.562102600000E-01  2.714169800000E-01  4.985346500000E-01
   4   5     1.694676700000E-01  4.980463100000E-01  5.013244000000E-01
   5   5     3.285756400000E-01  4.980255400000E-01  5.013243900000E-01
   6   5     3.288774900000E-01  6.578079600000E-01  4.985346500000E-01
   7   1     8.459227300000E-01  1.946766600000E-01  4.955406700000E-01
   8   1     3.961559000000E-02  5.770039600000E-01  4.946562400000E-01
   9   1     8.459681700000E-01  4.800543400000E-01  4.945201200000E-01
  10   1     3.972902000000E-02  2.916590200000E-01  4.945540700000E-01
  11   1     6.328840200000E-01 -1.930446000000E-02  5.044544300000E-01
  12   1     2.506793900000E-01  7.869248000000E-01  5.053389200000E-01
  13   1     3.476039600000E-01 -1.949393000000E-02  5.054751200000E-01
  14   1     5.360501200000E-01  7.868112900000E-01  5.054409400000E-01
  15   1     6.339518400000E-01  4.798008000000E-01  4.955407200000E-01
  16   1     2.519428900000E-01  2.915598700000E-01  4.946561900000E-01
  17   1     3.488373300000E-01  1.948051800000E-01  4.945200100000E-01
  18   1     5.372837000000E-01  5.769319900000E-01  4.945541800000E-01
  19   6     8.344360700000E-01  3.310235300000E-01  4.984325700000E-01
  20   6     8.893525300000E-01  2.785008600000E-01  4.956767700000E-01
  21   6    -3.721020000000E-03  4.929554100000E-01  4.954387100000E-01
  22   6     8.892606200000E-01  4.392975800000E-01  4.961531600000E-01
  23   6    -3.553370000000E-03  3.322789600000E-01  4.943159200000E-01
  24   6     5.084048000000E-02  4.396331800000E-01  4.961871500000E-01
  25   6     4.962243900000E-01 -7.473360000000E-03  5.015625600000E-01
  26   6     5.490451600000E-01 -6.272125000000E-02  5.043183100000E-01
  27   6     3.346385300000E-01  8.303310600000E-01  5.045564600000E-01
  28   6     3.882097900000E-01 -6.256452000000E-02  5.038420300000E-01
  29   6     4.954273000000E-01  8.300326100000E-01  5.056791400000E-01
  30   6     3.878540500000E-01  7.758325300000E-01  5.038079700000E-01
  31   6     4.965906300000E-01  3.309543900000E-01  4.984325700000E-01
  32   6     5.500736300000E-01  4.393409900000E-01  4.956768300000E-01
  33   6     3.357142400000E-01  3.319421600000E-01  4.954386500000E-01
  34   6     3.890957800000E-01  2.782954000000E-01  4.961530800000E-01
  35   6     4.967632400000E-01  4.931269700000E-01  4.943159900000E-01
  36   6     3.887645700000E-01  4.395557800000E-01  4.961871500000E-01
  37   8     5.031844000000E-01  1.652543700000E-01  4.992831000000E-01
  38   8     6.614509700000E-01  1.639050400000E-01  5.051688200000E-01
  39   8     6.624722400000E-01  3.248974700000E-01  4.962892400000E-01
  40   8     2.227722300000E-01  6.045348400000E-01  4.992831300000E-01
  41   8     2.221132500000E-01  4.442223200000E-01  5.051688100000E-01
  42   8     3.820566700000E-01  6.052094400000E-01  4.962892200000E-01

 *******************************************************************************

 << INFORMATION >>: FROM NOW ON, ALL COORDINATES REFER TO THE PRIMITIVE CELL

 *******************************************************************************

 LATTICE PARAMETERS  (ANGSTROMS AND DEGREES) - PRIMITIVE CELL
       A          B          C        ALPHA      BETA     GAMMA        VOLUME
   15.02361   15.02392    4.68615    56.32825  89.99996 119.99596    703.737083

 COORDINATES OF THE EQUIVALENT ATOMS (FRACTIONAL UNITS)

 N. ATOM EQUIV AT. N.          X                  Y                  Z

   1   1   1    5 B    -4.44107040000E-01  1.11731310000E-01 -4.98675610000E-01

   2   2   1    5 B    -2.85051380000E-01  2.70790970000E-01 -4.98675590000E-01

   3   3   1    5 B    -4.43789740000E-01  2.71416980000E-01  4.98534650000E-01

   4   4   1    5 B     1.69467670000E-01  4.98046310000E-01 -4.98675600000E-01

   5   5   1    5 B     3.28575640000E-01  4.98025540000E-01 -4.98675610000E-01

   6   6   1    5 B     3.28877490000E-01 -3.42192040000E-01  4.98534650000E-01

   7   7   1    1 H    -1.54077270000E-01  1.94676660000E-01  4.95540670000E-01

   8   8   1    1 H     3.96155900000E-02 -4.22996040000E-01  4.94656240000E-01

   9   9   1    1 H    -1.54031830000E-01  4.80054340000E-01  4.94520120000E-01

  10  10   1    1 H     3.97290200000E-02  2.91659020000E-01  4.94554070000E-01

  11  11   1    1 H    -3.67115980000E-01 -1.93044600000E-02 -4.95545570000E-01

  12  12   1    1 H     2.50679390000E-01 -2.13075200000E-01 -4.94661080000E-01

  13  13   1    1 H     3.47603960000E-01 -1.94939300000E-02 -4.94524880000E-01

  14  14   1    1 H    -4.63949880000E-01 -2.13188710000E-01 -4.94559060000E-01

  15  15   1    1 H    -3.66048160000E-01  4.79800800000E-01  4.95540720000E-01

  16  16   1    1 H     2.51942890000E-01  2.91559870000E-01  4.94656190000E-01

  17  17   1    1 H     3.48837330000E-01  1.94805180000E-01  4.94520010000E-01

  18  18   1    1 H    -4.62716300000E-01 -4.23068010000E-01  4.94554180000E-01

  19  19   1    6 C    -1.65563930000E-01  3.31023530000E-01  4.98432570000E-01

  20  20   1    6 C    -1.10647470000E-01  2.78500860000E-01  4.95676770000E-01

  21  21   1    6 C    -3.72102000000E-03  4.92955410000E-01  4.95438710000E-01

  22  22   1    6 C    -1.10739380000E-01  4.39297580000E-01  4.96153160000E-01

  23  23   1    6 C    -3.55337000000E-03  3.32278960000E-01  4.94315920000E-01

  24  24   1    6 C     5.08404800000E-02  4.39633180000E-01  4.96187150000E-01

  25  25   1    6 C     4.96224390000E-01 -7.47336000000E-03 -4.98437440000E-01

  26  26   1    6 C    -4.50954840000E-01 -6.27212500000E-02 -4.95681690000E-01

  27  27   1    6 C     3.34638530000E-01 -1.69668940000E-01 -4.95443540000E-01

  28  28   1    6 C     3.88209790000E-01 -6.25645200000E-02 -4.96157970000E-01

  29  29   1    6 C     4.95427300000E-01 -1.69967390000E-01 -4.94320860000E-01

  30  30   1    6 C     3.87854050000E-01 -2.24167470000E-01 -4.96192030000E-01

  31  31   1    6 C     4.96590630000E-01  3.30954390000E-01  4.98432570000E-01

  32  32   1    6 C    -4.49926370000E-01  4.39340990000E-01  4.95676830000E-01

  33  33   1    6 C     3.35714240000E-01  3.31942160000E-01  4.95438650000E-01

  34  34   1    6 C     3.89095780000E-01  2.78295400000E-01  4.96153080000E-01

  35  35   1    6 C     4.96763240000E-01  4.93126970000E-01  4.94315990000E-01

  36  36   1    6 C     3.88764570000E-01  4.39555780000E-01  4.96187150000E-01

  37  37   1    8 O    -4.96815600000E-01  1.65254370000E-01  4.99283100000E-01

  38  38   1    8 O    -3.38549030000E-01  1.63905040000E-01 -4.94831180000E-01

  39  39   1    8 O    -3.37527760000E-01  3.24897470000E-01  4.96289240000E-01

  40  40   1    8 O     2.22772230000E-01 -3.95465160000E-01  4.99283130000E-01

  41  41   1    8 O     2.22113250000E-01  4.44222320000E-01 -4.94831190000E-01

  42  42   1    8 O     3.82056670000E-01 -3.94790560000E-01  4.96289220000E-01

 NUMBER OF SYMMETRY OPERATORS         :    1
 *******************************************************************************
 * GEOMETRY EDITING - INPUT COORDINATES ARE GIVEN IN ANGSTROM         
 *******************************************************************************

 GCALCO - MAX INDICES DIRECT LATTICE VECTOR     9    11    31
 NO.OF VECTORS CREATED 6999 STARS 3500 RMAX   199.29619 BOHR

 GEOMETRY FOR WAVE FUNCTION - DIMENSIONALITY OF THE SYSTEM    3
 (NON PERIODIC DIRECTION: LATTICE PARAMETER FORMALLY SET TO 500)
 *******************************************************************************
 LATTICE PARAMETERS (ANGSTROMS AND DEGREES) - BOHR = 0.5291772083 ANGSTROM
 PRIMITIVE CELL - CENTRING CODE 1/0 VOLUME=   703.737083 - DENSITY  0.921 g/cm^3
         A              B              C           ALPHA      BETA       GAMMA 
    15.02361100    15.02391600     4.68615000    56.328249  89.999957 119.995964
 *******************************************************************************
 ATOMS IN THE ASYMMETRIC UNIT   42 - ATOMS IN THE UNIT CELL:   42
     ATOM                 X/A                 Y/B                 Z/C    
 *******************************************************************************
      1 T   5 B    -4.441070400000E-01  1.117313100000E-01 -4.986756100000E-01
      2 T   5 B    -2.850513800000E-01  2.707909700000E-01 -4.986755900000E-01
      3 T   5 B    -4.437897400000E-01  2.714169800000E-01  4.985346500000E-01
      4 T   5 B     1.694676700000E-01  4.980463100000E-01 -4.986756000000E-01
      5 T   5 B     3.285756400000E-01  4.980255400000E-01 -4.986756100000E-01
      6 T   5 B     3.288774900000E-01 -3.421920400000E-01  4.985346500000E-01
      7 T   1 H    -1.540772700000E-01  1.946766600000E-01  4.955406700000E-01
      8 T   1 H     3.961559000000E-02 -4.229960400000E-01  4.946562400000E-01
      9 T   1 H    -1.540318300000E-01  4.800543400000E-01  4.945201200000E-01
     10 T   1 H     3.972902000000E-02  2.916590200000E-01  4.945540700000E-01
     11 T   1 H    -3.671159800000E-01 -1.930446000000E-02 -4.955455700000E-01
     12 T   1 H     2.506793900000E-01 -2.130752000000E-01 -4.946610800000E-01
     13 T   1 H     3.476039600000E-01 -1.949393000000E-02 -4.945248800000E-01
     14 T   1 H    -4.639498800000E-01 -2.131887100000E-01 -4.945590600000E-01
     15 T   1 H    -3.660481600000E-01  4.798008000000E-01  4.955407200000E-01
     16 T   1 H     2.519428900000E-01  2.915598700000E-01  4.946561900000E-01
     17 T   1 H     3.488373300000E-01  1.948051800000E-01  4.945200100000E-01
     18 T   1 H    -4.627163000000E-01 -4.230680100000E-01  4.945541800000E-01
     19 T   6 C    -1.655639300000E-01  3.310235300000E-01  4.984325700000E-01
     20 T   6 C    -1.106474700000E-01  2.785008600000E-01  4.956767700000E-01
     21 T   6 C    -3.721020000000E-03  4.929554100000E-01  4.954387100000E-01
     22 T   6 C    -1.107393800000E-01  4.392975800000E-01  4.961531600000E-01
     23 T   6 C    -3.553370000000E-03  3.322789600000E-01  4.943159200000E-01
     24 T   6 C     5.084048000000E-02  4.396331800000E-01  4.961871500000E-01
     25 T   6 C     4.962243900000E-01 -7.473360000000E-03 -4.984374400000E-01
     26 T   6 C    -4.509548400000E-01 -6.272125000000E-02 -4.956816900000E-01
     27 T   6 C     3.346385300000E-01 -1.696689400000E-01 -4.954435400000E-01
     28 T   6 C     3.882097900000E-01 -6.256452000000E-02 -4.961579700000E-01
     29 T   6 C     4.954273000000E-01 -1.699673900000E-01 -4.943208600000E-01
     30 T   6 C     3.878540500000E-01 -2.241674700000E-01 -4.961920300000E-01
     31 T   6 C     4.965906300000E-01  3.309543900000E-01  4.984325700000E-01
     32 T   6 C    -4.499263700000E-01  4.393409900000E-01  4.956768300000E-01
     33 T   6 C     3.357142400000E-01  3.319421600000E-01  4.954386500000E-01
     34 T   6 C     3.890957800000E-01  2.782954000000E-01  4.961530800000E-01
     35 T   6 C     4.967632400000E-01  4.931269700000E-01  4.943159900000E-01
     36 T   6 C     3.887645700000E-01  4.395557800000E-01  4.961871500000E-01
     37 T   8 O    -4.968156000000E-01  1.652543700000E-01  4.992831000000E-01
     38 T   8 O    -3.385490300000E-01  1.639050400000E-01 -4.948311800000E-01
     39 T   8 O    -3.375277600000E-01  3.248974700000E-01  4.962892400000E-01
     40 T   8 O     2.227722300000E-01 -3.954651600000E-01  4.992831300000E-01
     41 T   8 O     2.221132500000E-01  4.442223200000E-01 -4.948311900000E-01
     42 T   8 O     3.820566700000E-01 -3.947905600000E-01  4.962892200000E-01

 T = ATOM BELONGING TO THE ASYMMETRIC UNIT

 ****    1 SYMMOPS - TRANSLATORS IN FRACTIONAL UNITS
 **** MATRICES AND TRANSLATORS IN THE CRYSTALLOGRAPHIC REFERENCE FRAME
   V INV                    ROTATION MATRICES                   TRANSLATORS
   1   1  1.00  0.00  0.00  0.00  1.00  0.00 -0.00  0.00  1.00  0.00  0.00  0.00

 DIRECT LATTICE VECTORS CARTESIAN COMPONENTS (ANGSTROM)
          X                    Y                    Z
   0.130113578931E+02  -0.751088897922E+01   0.000000000000E+00
   0.000000000000E+00   0.150239160000E+02   0.000000000000E+00
   0.149980940838E+01   0.259816170908E+01   0.360001795752E+01


 CARTESIAN COORDINATES - PRIMITIVE CELL
 *******************************************************************************
 *      ATOM          X(ANGSTROM)         Y(ANGSTROM)         Z(ANGSTROM)
 *******************************************************************************
    1     5 B    -6.526354011872E+00  3.718640613182E+00 -1.795241150979E+00
    2     5 B    -4.456823864699E+00  4.913690232198E+00 -1.795241078979E+00
    3     5 B     6.484948306745E+00 -1.402775674270E+00 -1.805284265076E+00
    4     5 B     1.457086149065E+00  4.914113221439E+00 -1.795241114979E+00
    5     5 B     3.527296875374E+00  3.718758850344E+00 -1.795241150979E+00
    6     5 B     3.527040275455E+00  6.109801149216E+00 -1.805284265076E+00
    7     1 H    -2.761347352432E+00  2.771396141195E+00 -1.816062646841E+00
    8     1 H     1.257342702299E+00 -5.367408369701E+00  1.780771346801E+00
    9     1 H    -1.262477338445E+00 -5.369860705853E+00  1.780281312357E+00
   10     1 H    -2.411440632792E-01  2.770230097311E+00 -1.819614424557E+00
   11     1 H    -4.020091903829E+00  3.777992966815E+00  1.816045006753E+00
   12     1 H     4.019591326338E+00 -3.771096742097E+00  1.819229186636E+00
   13     1 H     5.280915869280E+00 -1.590383817447E+00  1.819719509082E+00
   14     1 H    -5.278552855930E+00  1.594964065924E+00  1.819596460468E+00
   15     1 H    -4.019566981765E+00 -3.778587069265E+00  1.783955490684E+00
   16     1 H     2.520199709698E+00  1.175090982893E+00 -1.819246790724E+00
   17     1 H     3.780723702340E+00 -1.006660551478E+00 -1.819737041169E+00
   18     1 H    -5.278830370135E+00 -1.595795752810E+00  1.780403928969E+00
   19     6 C    -2.906467097860E+00  4.913648714787E+00 -1.805651754909E+00
   20     6 C    -2.196062557348E+00  3.704921084381E+00 -1.815572684397E+00
   21     6 C    -8.051612927918E-01  6.123137016131E+00 -1.816429704671E+00
   22     6 C     8.030748797051E-01 -3.704947019033E+00  5.386178243206E+00
   23     6 C    -8.046639096467E-01  3.704971137630E+00 -1.820471768834E+00
   24     6 C    -9.411957175620E-02  4.914167510788E+00 -1.813735307231E+00
   25     6 C     7.208801379931E+00 -2.536224796845E+00  1.805634222822E+00
   26     6 C    -5.111153470692E+00  3.755053468697E+00  1.815554972308E+00
   27     6 C     5.110840204402E+00 -3.751605474924E+00  1.816412316585E+00
   28     6 C     5.806803532208E+00 -2.546701656622E+00  1.813840355755E+00
   29     6 C    -5.806753650974E+00  2.550049920175E+00  1.820453984745E+00
   30     6 C     2.802504971489E+00  4.855565209315E+00 -5.386318175904E+00
   31     6 C     5.709062862819E+00 -6.075942600756E-02 -1.805651754909E+00
   32     6 C    -3.610922844069E+00 -1.157936588121E+00  5.384463446653E+00
   33     6 C     3.611352266602E+00  1.154626763863E+00 -1.816429920673E+00
   34     6 C     4.306990097260E+00 -5.044426785911E-02 -1.813857959843E+00
   35     6 C     5.705134667891E+00  2.363715798341E+00 -1.820471516833E+00
   36     6 C     4.302731703919E+00  2.374894336297E+00 -1.813735307231E+00
   37     8 O     5.796132397050E+00 -2.597537867632E+00 -1.802589831636E+00
   38     8 O    -5.147135052999E+00  3.719648306951E+00 -1.781401133943E+00
   39     8 O    -2.147545804397E+00 -3.719948760262E+00  5.386668133650E+00
   40     8 O     2.147589340605E+00  6.108319769325E+00 -1.802589723635E+00
   41     8 O     2.147842514220E+00  3.720039409124E+00 -1.781401169943E+00
   42     8 O     4.215605901855E+00  4.914308495779E+00 -1.813367853398E+00

 *******************************************************************************
 STARTING BASIS SET HANDLING 
 *******************************************************************************

 Loading internal basis set: SOLDEF2MSVP         

 Please cite in your publication:
 L. Dona', J. G. Brandenburg and B. Civalleri, J. Chem. Phys., 151, 121101 (2019
 )                                                                              
                                                                                
                    

 *******************************************************************************
 LOCAL ATOMIC FUNCTIONS BASIS SET
 *******************************************************************************
   ATOM   X(AU)   Y(AU)   Z(AU)  N. TYPE  EXPONENT  S COEF   P COEF   D/F/G COEF
 *******************************************************************************
   1 B  -12.333   7.027  -3.393
                                  1 S  
                                         2.410E+03 1.755E-03 0.000E+00 0.000E+00
                                         3.619E+02 1.344E-02 0.000E+00 0.000E+00
                                         8.231E+01 6.637E-02 0.000E+00 0.000E+00
                                         2.311E+01 2.303E-01 0.000E+00 0.000E+00
                                         7.252E+00 5.150E-01 0.000E+00 0.000E+00
                                  2 S  
                                         2.367E+00 1.000E+00 0.000E+00 0.000E+00
                                  3 S  
                                         5.533E-01 1.000E+00 0.000E+00 0.000E+00
                                  4 S  
                                         1.716E-01 1.000E+00 0.000E+00 0.000E+00
                           5-     7 P  
                                         6.002E+00 0.000E+00-3.555E-02 0.000E+00
                                         1.240E+00 0.000E+00-1.983E-01 0.000E+00
                                         3.367E-01 0.000E+00-5.048E-01 0.000E+00
                           8-    10 P  
                                         1.256E-01 0.000E+00 1.000E+00 0.000E+00
                          11-    15 D  
                                         8.880E-01 0.000E+00 0.000E+00 1.000E+00
   2 B   -8.422   9.286  -3.393
   3 B   12.255  -2.651  -3.411
   4 B    2.753   9.286  -3.393
   5 B    6.666   7.027  -3.393
   6 B    6.665  11.546  -3.411
   7 H   -5.218   5.237  -3.432
                                 91 S  
                                         1.874E+01 1.968E-02 0.000E+00 0.000E+00
                                         2.826E+00 1.380E-01 0.000E+00 0.000E+00
                                         6.401E-01 4.783E-01 0.000E+00 0.000E+00
                                 92 S  
                                         1.756E-01 1.000E+00 0.000E+00 0.000E+00
   8 H    2.376 -10.143   3.365
   9 H   -2.386 -10.148   3.364
  10 H   -0.456   5.235  -3.439
  11 H   -7.597   7.139   3.432
  12 H    7.596  -7.126   3.438
  13 H    9.979  -3.005   3.439
  14 H   -9.975   3.014   3.439
  15 H   -7.596  -7.140   3.371
  16 H    4.762   2.221  -3.438
  17 H    7.145  -1.902  -3.439
  18 H   -9.976  -3.016   3.364
  19 C   -5.492   9.285  -3.412
                                115 S  
                                         3.624E+03 1.634E-03 0.000E+00 0.000E+00
                                         5.440E+02 1.252E-02 0.000E+00 0.000E+00
                                         1.237E+02 6.211E-02 0.000E+00 0.000E+00
                                         3.476E+01 2.182E-01 0.000E+00 0.000E+00
                                         1.093E+01 4.980E-01 0.000E+00 0.000E+00
                                116 S  
                                         3.574E+00 1.000E+00 0.000E+00 0.000E+00
                                117 S  
                                         7.742E-01 1.000E+00 0.000E+00 0.000E+00
                                118 S  
                                         2.330E-01 1.000E+00 0.000E+00 0.000E+00
                         119-   121 P  
                                         9.443E+00 0.000E+00 3.790E-02 0.000E+00
                                         2.002E+00 0.000E+00 2.082E-01 0.000E+00
                                         5.463E-01 0.000E+00 5.047E-01 0.000E+00
                         122-   124 P  
                                         1.820E-01 0.000E+00 1.000E+00 0.000E+00
                         125-   129 D  
                                         8.880E-01 0.000E+00 0.000E+00 1.000E+00
  20 C   -4.150   7.001  -3.431
  21 C   -1.522  11.571  -3.433
  22 C    1.518  -7.001  10.178
  23 C   -1.521   7.001  -3.440
  24 C   -0.178   9.286  -3.427
  25 C   13.623  -4.793   3.412
  26 C   -9.659   7.096   3.431
  27 C    9.658  -7.090   3.433
  28 C   10.973  -4.813   3.428
  29 C  -10.973   4.819   3.440
  30 C    5.296   9.176 -10.179
  31 C   10.789  -0.115  -3.412
  32 C   -6.824  -2.188  10.175
  33 C    6.824   2.182  -3.433
  34 C    8.139  -0.095  -3.428
  35 C   10.781   4.467  -3.440
  36 C    8.131   4.488  -3.427
  37 O   10.953  -4.909  -3.406
                                385 S  
                                         6.773E+03 1.727E-03 0.000E+00 0.000E+00
                                         1.017E+03 1.325E-02 0.000E+00 0.000E+00
                                         2.313E+02 6.603E-02 0.000E+00 0.000E+00
                                         6.501E+01 2.353E-01 0.000E+00 0.000E+00
                                         2.050E+01 5.498E-01 0.000E+00 0.000E+00
                                386 S  
                                         6.716E+00 1.000E+00 0.000E+00 0.000E+00
                                387 S  
                                         1.147E+00 1.000E+00 0.000E+00 0.000E+00
                                388 S  
                                         3.342E-01 1.000E+00 0.000E+00 0.000E+00
                         389-   391 P  
                                         1.769E+01 0.000E+00 4.359E-02 0.000E+00
                                         3.854E+00 0.000E+00 2.318E-01 0.000E+00
                                         1.047E+00 0.000E+00 5.146E-01 0.000E+00
                         392-   394 P  
                                         2.759E-01 0.000E+00 1.000E+00 0.000E+00
                         395-   399 D  
                                         8.000E-01 0.000E+00 0.000E+00 1.000E+00
  38 O   -9.727   7.029  -3.366
  39 O   -4.058  -7.030  10.179
  40 O    4.058  11.543  -3.406
  41 O    4.059   7.030  -3.366
  42 O    7.966   9.287  -3.427

 *******************************************************************************
 FINISHED BASIS SET HANDLING 
 *******************************************************************************

 INFORMATION **** SET_MPP **** PCRYSTAL CALCULATION
 INFORMATION **** READM2 **** NEW DEFAULT: FOCK/KS MATRIX MIXING SET TO 30 %
 INFORMATION **** READM2 **** NEW DEFAULT: FULL DIRECT SCF MODE
 INFORMATION **** READM2 **** NEW DEFAULT: COULOMB BIPOLAR BUFFER SET TO 32 Mb
 INFORMATION **** READM2 **** NEW DEFAULT: EXCHANGE BIPOLAR BUFFER SET TO 32 Mb

 *******************************************************************************
 NEW DEFAULT: DFT INTEGRATION GRID INCREASED TO XLGRID
 NEW DEFAULT: DIIS ACCELERATOR ACTIVE
 USE KEYWORD NODIIS TO TURN IT OFF
 *******************************************************************************

 WARNING **** RDDFTP **** HSEsol-HJS ACTIVE
 RANGE SEPARATION - OMEGA:   0.110000000000000     
 WARNING **** RDDFTP **** HSEsol-3c has to be combined with sol-def2-mSVP basis set
 *******************************************************************************
 N. OF ATOMS PER CELL        42  COULOMB OVERLAP TOL         (T1) 10**   -6
 NUMBER OF SHELLS           234  COULOMB PENETRATION TOL     (T2) 10**   -6
 NUMBER OF AO               474  EXCHANGE OVERLAP TOL        (T3) 10**   -6
 N. OF ELECTRONS PER CELL   198  EXCHANGE PSEUDO OVP (F(G))  (T4) 10**   -6
 CORE ELECTRONS PER CELL     60  EXCHANGE PSEUDO OVP (P(G))  (T5) 10**  -12
 N. OF SYMMETRY OPERATORS     1  POLE ORDER IN MONO ZONE                  4
 *******************************************************************************
 TYPE OF CALCULATION :  RESTRICTED CLOSED SHELL
 KOHN-SHAM HAMILTONIAN

 (EXCHANGE)[CORRELATION] FUNCTIONAL:(HSEsol GGA)[PBEsol]

 RANGE-SEPARATED HYBRID FUNCTIONAL 
 OMEGA (SHORT-RANGE)[LONG-RANGE]:(    0.1100)[    0.0000]

 HYBRID EXCHANGE - PERCENTAGE OF FOCK EXCHANGE    25.0000

 CAPPA:IS1  2;IS2  2;IS3  8; K PTS MONK NET  20; SYMMOPS:K SPACE   2;G SPACE   1

 *******************************************************************************
 MAX NUMBER OF SCF CYCLES      50  CONVERGENCE ON DELTAP        10**-16
 WEIGHT OF F(I) IN F(I+1)      30% CONVERGENCE ON ENERGY        10**- 6
 SHRINK. FACT.(MONKH.)    2  2  8  NUMBER OF K POINTS IN THE IBZ     20
 SHRINKING FACTOR(GILAT NET)    8  NUMBER OF K POINTS(GILAT NET)   1028
 *******************************************************************************
 *** K POINTS COORDINATES (OBLIQUE COORDINATES IN UNITS OF IS =  2)
   1-R(  0  0  0)   2-R(  1  0  0)   3-R(  0  1  0)   4-R(  1  1  0)
   5-C(  0  0  1)   6-C(  1  0  1)   7-C(  0  1  1)   8-C(  1  1  1)
   9-C(  0  0  2)  10-C(  1  0  2)  11-C(  0  1  2)  12-C(  1  1  2)
  13-C(  0  0  3)  14-C(  1  0  3)  15-C(  0  1  3)  16-C(  1  1  3)
  17-R(  0  0  4)  18-R(  1  0  4)  19-R(  0  1  4)  20-R(  1  1  4)

 DIRECT LATTICE VECTORS COMPON. (A.U.)     RECIP. LATTICE VECTORS COMPON. (A.U.) 
        X            Y            Z              X            Y            Z
   24.5879030  -14.1935232    0.0000000      0.2555397    0.0000000   -0.1064608
    0.0000000   28.3910867    0.0000000      0.1277517    0.2213084   -0.2129429
    2.8342290    4.9098141    6.8030480      0.0000000    0.0000000    0.9235839

 DISK SPACE FOR EIGENVECTORS (FTN 10)     7189632 REALS

 SYMMETRY ADAPTION OF THE BLOCH FUNCTIONS DISABLED
 TTTTTTTTTTTTTTTTTTTTTTTTTTTTTT gordsh1     TELAPSE        0.04 TCPU        0.04

 MATRIX SIZE: P(G)  352476, F(G)   72855, P(G) IRR  177573, F(G) IRR   73551
 MAX G-VECTOR INDEX FOR 1- AND 2-ELECTRON INTEGRALS  59

 TTTTTTTTTTTTTTTTTTTTTTTTTTTTTT INPUT       TELAPSE        0.35 TCPU        0.34

 NEIGHBORS OF THE NON-EQUIVALENT ATOMS

 N = NUMBER OF NEIGHBORS AT DISTANCE R
    ATOM  N     R/ANG      R/AU   NEIGHBORS (ATOM LABELS AND CELL INDICES)
   1 B    1     1.3791     2.6061   37 O   -1 0 0
   1 B    1     1.3793     2.6065   38 O    0 0 0
   1 B    1     1.5503     2.9297   25 C   -1 0-1
   1 B    1     2.3895     4.5155    3 B   -1 0 0
   1 B    1     2.3898     4.5160    2 B    0 0 0
   1 B    1     2.5632     4.8437   26 C    0 0-1

   2 B    1     1.3793     2.6065   39 O    0 1-2
   2 B    1     1.3793     2.6065   38 O    0 0 0
   2 B    1     1.5504     2.9298   19 C    0 0 0
   2 B    1     2.3895     4.5156    3 B   -1 0 0
   2 B    1     2.3898     4.5160    1 B    0 0 0
   2 B    1     2.5634     4.8440   22 C    0 1-2

   3 B    1     1.3791     2.6061   37 O    0 0 0
   3 B    1     1.3793     2.6064   39 O    1 1-2
   3 B    1     1.5502     2.9294   31 C    0 0 0
   3 B    1     2.3895     4.5155    1 B    1 0 0
   3 B    1     2.3895     4.5156    2 B    1 0 0
   3 B    1     2.5629     4.8433   32 C    1 1-2

   4 B    1     1.3795     2.6068   40 O    0 0 0
   4 B    1     1.3795     2.6070   41 O    0 0 0
   4 B    1     1.5513     2.9316   24 C    0 0 0
   4 B    1     2.3905     4.5174    6 B    0 0 0
   4 B    1     2.3905     4.5175    5 B    0 0 0
   4 B    1     2.5648     4.8468   23 C    0 0 0

   5 B    1     1.3795     2.6069   41 O    0 0 0
   5 B    1     1.3797     2.6072   42 O    0 0 0
   5 B    1     1.5516     2.9322   36 C    0 0 0
   5 B    1     2.3905     4.5175    4 B    0 0 0
   5 B    1     2.3911     4.5185    6 B    0 0 0
   5 B    1     2.5651     4.8473   35 C    0 0 0

   6 B    1     1.3795     2.6068   40 O    0 0 0
   6 B    1     1.3796     2.6071   42 O    0 0 0
   6 B    1     1.5516     2.9322   30 C    0 0 1
   6 B    1     2.3905     4.5174    4 B    0 0 0
   6 B    1     2.3911     4.5185    5 B    0 0 0
   6 B    1     2.5651     4.8473   29 C    1 1-1

   7 H    1     1.0913     2.0623   20 C    0 0 0
   7 H    1     2.1472     4.0576   19 C    0 0 0
   7 H    1     2.1680     4.0969   23 C    0 0 0
   7 H    1     2.5202     4.7625   10 H    0 0 0
   7 H    1     2.5676     4.8520   38 O    0 0 0
   7 H    1     2.7321     5.1630    2 B    0 0 0

   8 H    1     1.0914     2.0625   21 C    0-1 1
   8 H    1     2.1493     4.0616   24 C    0-1 1
   8 H    1     2.1666     4.0942   22 C    0 0-1
   8 H    1     2.5198     4.7618    9 H    0 0 0
   8 H    1     2.5720     4.8604   40 O    0-1 1
   8 H    1     2.7362     5.1707    4 B    0-1 1

   9 H    1     1.0914     2.0624   22 C    0 0-1
   9 H    1     2.1471     4.0575   19 C    0-1 1
   9 H    1     2.1680     4.0970   21 C    0-1 1
   9 H    1     2.5198     4.7618    8 H    0 0 0
   9 H    1     2.5665     4.8500   39 O    0 0-1
   9 H    1     2.7315     5.1618    2 B    0-1 1

  10 H    1     1.0915     2.0626   23 C    0 0 0
  10 H    1     2.1490     4.0610   24 C    0 0 0
  10 H    1     2.1669     4.0948   20 C    0 0 0
  10 H    1     2.5202     4.7625    7 H    0 0 0
  10 H    1     2.5712     4.8588   41 O    0 0 0
  10 H    1     2.7351     5.1686    4 B    0 0 0

  11 H    1     1.0913     2.0623   26 C    0 0 0
  11 H    1     2.1469     4.0571   25 C   -1 0 0
  11 H    1     2.1680     4.0968   29 C    0 0 0
  11 H    1     2.5198     4.7617   14 H    0 0 0
  11 H    1     2.5670     4.8510   38 O    0 0 1
  11 H    1     2.7310     5.1609    1 B    0 0 1

  12 H    1     1.0914     2.0625   27 C    0 0 0
  12 H    1     2.1493     4.0617   30 C    0-1 2
  12 H    1     2.1664     4.0939   28 C    0 0 0
  12 H    1     2.5192     4.7606   13 H    0 0 0
  12 H    1     2.5735     4.8632   40 O    0-1 1
  12 H    1     2.7371     5.1723    6 B    0-1 1

  13 H    1     1.0914     2.0624   28 C    0 0 0
  13 H    1     2.1475     4.0581   25 C    0 0 0
  13 H    1     2.1679     4.0967   27 C    0 0 0
  13 H    1     2.5192     4.7606   12 H    0 0 0
  13 H    1     2.5675     4.8519   37 O    0 0 1
  13 H    1     2.7328     5.1643    1 B    1 0 1

  14 H    1     1.0914     2.0625   29 C    0 0 0
  14 H    1     2.1491     4.0612   30 C   -1-1 2
  14 H    1     2.1666     4.0942   26 C    0 0 0
  14 H    1     2.5198     4.7617   11 H    0 0 0
  14 H    1     2.5723     4.8609   42 O   -1-1 1
  14 H    1     2.7355     5.1693    6 B   -1-1 1

  15 H    1     1.0914     2.0624   32 C    0 0-1
  15 H    1     2.1475     4.0582   31 C   -1-1 1
  15 H    1     2.1678     4.0966   35 C   -1-1 1
  15 H    1     2.5200     4.7621   18 H    0 0 0
  15 H    1     2.5667     4.8503   39 O    0 0-1
  15 H    1     2.7315     5.1618    3 B   -1-1 1

  16 H    1     1.0913     2.0623   33 C    0 0 0
  16 H    1     2.1487     4.0605   36 C    0 0 0
  16 H    1     2.1667     4.0945   34 C    0 0 0
  16 H    1     2.5197     4.7616   17 H    0 0 0
  16 H    1     2.5723     4.8610   41 O    0 0 0
  16 H    1     2.7359     5.1701    5 B    0 0 0

  17 H    1     1.0915     2.0626   34 C    0 0 0
  17 H    1     2.1479     4.0589   31 C    0 0 0
  17 H    1     2.1679     4.0968   33 C    0 0 0
  17 H    1     2.5197     4.7616   16 H    0 0 0
  17 H    1     2.5677     4.8522   37 O    0 0 0
  17 H    1     2.7331     5.1648    3 B    0 0 0

  18 H    1     1.0914     2.0624   35 C   -1-1 1
  18 H    1     2.1486     4.0602   36 C   -1-1 1
  18 H    1     2.1668     4.0947   32 C    0 0-1
  18 H    1     2.5200     4.7621   15 H    0 0 0
  18 H    1     2.5717     4.8598   42 O   -1-1 1
  18 H    1     2.7349     5.1682    5 B   -1-1 1

  19 C    1     1.4020     2.6495   22 C    0 1-2
  19 C    1     1.4021     2.6495   20 C    0 0 0
  19 C    1     1.5504     2.9298    2 B    0 0 0
  19 C    1     2.1471     4.0575    9 H    0 1-1
  19 C    1     2.1472     4.0576    7 H    0 0 0
  19 C    1     2.4246     4.5817   21 C    0 0 0

  20 C    1     1.0913     2.0623    7 H    0 0 0
  20 C    1     1.3914     2.6294   23 C    0 0 0
  20 C    1     1.4021     2.6495   19 C    0 0 0
  20 C    1     2.1669     4.0948   10 H    0 0 0
  20 C    1     2.4177     4.5688   22 C    0 1-2
  20 C    1     2.4250     4.5825   24 C    0 0 0

  21 C    1     1.0914     2.0625    8 H    0 1-1
  21 C    1     1.3914     2.6293   22 C    0 1-2
  21 C    1     1.4026     2.6505   24 C    0 0 0
  21 C    1     2.1680     4.0970    9 H    0 1-1
  21 C    1     2.4182     4.5697   23 C    0 0 0
  21 C    1     2.4246     4.5817   19 C    0 0 0

  22 C    1     1.0914     2.0624    9 H    0 0 1
  22 C    1     1.3914     2.6293   21 C    0-1 2
  22 C    1     1.4020     2.6495   19 C    0-1 2
  22 C    1     2.1666     4.0942    8 H    0 0 1
  22 C    1     2.4177     4.5688   20 C    0-1 2
  22 C    1     2.4250     4.5826   24 C    0-1 2

  23 C    1     1.0915     2.0626   10 H    0 0 0
  23 C    1     1.3914     2.6294   20 C    0 0 0
  23 C    1     1.4025     2.6504   24 C    0 0 0
  23 C    1     2.1680     4.0969    7 H    0 0 0
  23 C    1     2.4182     4.5697   21 C    0 0 0
  23 C    1     2.4246     4.5818   19 C    0 0 0

  24 C    1     1.4025     2.6504   23 C    0 0 0
  24 C    1     1.4026     2.6505   21 C    0 0 0
  24 C    1     1.5513     2.9316    4 B    0 0 0
  24 C    1     2.1490     4.0610   10 H    0 0 0
  24 C    1     2.1493     4.0616    8 H    0 1-1
  24 C    1     2.4250     4.5825   20 C    0 0 0

  25 C    1     1.4020     2.6494   26 C    1 0 0
  25 C    1     1.4021     2.6495   28 C    0 0 0
  25 C    1     1.5503     2.9297    1 B    1 0 1
  25 C    1     2.1469     4.0571   11 H    1 0 0
  25 C    1     2.1475     4.0581   13 H    0 0 0
  25 C    1     2.4246     4.5818   27 C    0 0 0

  26 C    1     1.0913     2.0623   11 H    0 0 0
  26 C    1     1.3914     2.6293   29 C    0 0 0
  26 C    1     1.4020     2.6494   25 C   -1 0 0
  26 C    1     2.1666     4.0942   14 H    0 0 0
  26 C    1     2.4175     4.5684   28 C   -1 0 0
  26 C    1     2.4251     4.5828   30 C   -1-1 2

  27 C    1     1.0914     2.0625   12 H    0 0 0
  27 C    1     1.3915     2.6295   28 C    0 0 0
  27 C    1     1.4026     2.6505   30 C    0-1 2
  27 C    1     2.1679     4.0967   13 H    0 0 0
  27 C    1     2.4179     4.5691   29 C    1 0 0
  27 C    1     2.4246     4.5818   25 C    0 0 0

  28 C    1     1.0914     2.0624   13 H    0 0 0
  28 C    1     1.3915     2.6295   27 C    0 0 0
  28 C    1     1.4021     2.6495   25 C    0 0 0
  28 C    1     2.1664     4.0939   12 H    0 0 0
  28 C    1     2.4175     4.5684   26 C    1 0 0
  28 C    1     2.4253     4.5832   30 C    0-1 2

  29 C    1     1.0914     2.0625   14 H    0 0 0
  29 C    1     1.3914     2.6293   26 C    0 0 0
  29 C    1     1.4025     2.6504   30 C   -1-1 2
  29 C    1     2.1680     4.0968   11 H    0 0 0
  29 C    1     2.4179     4.5691   27 C   -1 0 0
  29 C    1     2.4247     4.5819   25 C   -1 0 0

  30 C    1     1.4025     2.6504   29 C    1 1-2
  30 C    1     1.4026     2.6505   27 C    0 1-2
  30 C    1     1.5516     2.9322    6 B    0 0-1
  30 C    1     2.1491     4.0612   14 H    1 1-2
  30 C    1     2.1493     4.0617   12 H    0 1-2
  30 C    1     2.4251     4.5828   26 C    1 1-2

  31 C    1     1.4021     2.6496   32 C    1 1-2
  31 C    1     1.4021     2.6497   34 C    0 0 0
  31 C    1     1.5502     2.9294    3 B    0 0 0
  31 C    1     2.1475     4.0582   15 H    1 1-1
  31 C    1     2.1479     4.0589   17 H    0 0 0
  31 C    1     2.4244     4.5814   33 C    0 0 0

  32 C    1     1.0914     2.0624   15 H    0 0 1
  32 C    1     1.3914     2.6293   35 C   -1-1 2
  32 C    1     1.4021     2.6496   31 C   -1-1 2
  32 C    1     2.1668     4.0947   18 H    0 0 1
  32 C    1     2.4179     4.5692   34 C   -1-1 2
  32 C    1     2.4251     4.5827   36 C   -1-1 2

  33 C    1     1.0913     2.0623   16 H    0 0 0
  33 C    1     1.3914     2.6294   34 C    0 0 0
  33 C    1     1.4025     2.6504   36 C    0 0 0
  33 C    1     2.1679     4.0968   17 H    0 0 0
  33 C    1     2.4178     4.5690   35 C    0 0 0
  33 C    1     2.4244     4.5814   31 C    0 0 0

  34 C    1     1.0915     2.0626   17 H    0 0 0
  34 C    1     1.3914     2.6294   33 C    0 0 0
  34 C    1     1.4021     2.6497   31 C    0 0 0
  34 C    1     2.1667     4.0945   16 H    0 0 0
  34 C    1     2.4179     4.5692   32 C    1 1-2
  34 C    1     2.4253     4.5832   36 C    0 0 0

  35 C    1     1.0914     2.0624   18 H    1 1-1
  35 C    1     1.3914     2.6293   32 C    1 1-2
  35 C    1     1.4025     2.6503   36 C    0 0 0
  35 C    1     2.1678     4.0966   15 H    1 1-1
  35 C    1     2.4178     4.5690   33 C    0 0 0
  35 C    1     2.4245     4.5817   31 C    0 0 0

  36 C    1     1.4025     2.6503   35 C    0 0 0
  36 C    1     1.4025     2.6504   33 C    0 0 0
  36 C    1     1.5516     2.9322    5 B    0 0 0
  36 C    1     2.1486     4.0602   18 H    1 1-1
  36 C    1     2.1487     4.0605   16 H    0 0 0
  36 C    1     2.4251     4.5827   32 C    1 1-2

  37 O    1     1.3791     2.6061    1 B    1 0 0
  37 O    1     1.3791     2.6061    3 B    0 0 0
  37 O    1     2.3880     4.5126   38 O    1 0 0
  37 O    1     2.3882     4.5130   39 O    1 1-2
  37 O    1     2.5383     4.7966   31 C    0 0 0
  37 O    1     2.5384     4.7968   25 C    0 0-1

  38 O    1     1.3793     2.6065    1 B    0 0 0
  38 O    1     1.3793     2.6065    2 B    0 0 0
  38 O    1     2.3880     4.5126   37 O   -1 0 0
  38 O    1     2.3882     4.5131   39 O    0 1-2
  38 O    1     2.5391     4.7981   19 C    0 0 0
  38 O    1     2.5395     4.7990   25 C   -1 0-1

  39 O    1     1.3793     2.6064    3 B   -1-1 2
  39 O    1     1.3793     2.6065    2 B    0-1 2
  39 O    1     2.3882     4.5130   37 O   -1-1 2
  39 O    1     2.3882     4.5131   38 O    0-1 2
  39 O    1     2.5390     4.7980   19 C    0-1 2
  39 O    1     2.5391     4.7982   31 C   -1-1 2

  40 O    1     1.3795     2.6068    6 B    0 0 0
  40 O    1     1.3795     2.6068    4 B    0 0 0
  40 O    1     2.3880     4.5126   42 O    0 0 0
  40 O    1     2.3884     4.5134   41 O    0 0 0
  40 O    1     2.5400     4.7998   24 C    0 0 0
  40 O    1     2.5403     4.8005   30 C    0 0 1

  41 O    1     1.3795     2.6069    5 B    0 0 0
  41 O    1     1.3795     2.6070    4 B    0 0 0
  41 O    1     2.3881     4.5128   42 O    0 0 0
  41 O    1     2.3884     4.5134   40 O    0 0 0
  41 O    1     2.5404     4.8006   24 C    0 0 0
  41 O    1     2.5405     4.8008   36 C    0 0 0

  42 O    1     1.3796     2.6071    6 B    0 0 0
  42 O    1     1.3797     2.6072    5 B    0 0 0
  42 O    1     2.3880     4.5126   40 O    0 0 0
  42 O    1     2.3881     4.5128   41 O    0 0 0
  42 O    1     2.5409     4.8016   36 C    0 0 0
  42 O    1     2.5410     4.8019   30 C    0 0 1


 SYMMETRY ALLOWED INTERNAL DEGREE(S) OF FREEDOM: 123
 TTTTTTTTTTTTTTTTTTTTTTTTTTTTTT SYMM        TELAPSE        0.35 TCPU        0.35
 TTTTTTTTTTTTTTTTTTTTTTTTTTTTTT INT_SCREEN  TELAPSE        0.38 TCPU        0.38

 DFT PARAMETERS

     ATOM       ELECTRONS   NET CHARGE   R(ANGSTROM)
   1   5  B       5.0000      0.0000     0.89000000
   7   1  H       1.0000      0.0000     1.11000000
  19   6  C       6.0000      0.0000     0.77000000
  37   8  O       8.0000      0.0000     0.74000000

 SIZE OF GRID=    1279083
 TTTTTTTTTTTTTTTTTTTTTTTTTTTTTT MAKE_GRID2  TELAPSE       10.45 TCPU       10.44
 BECKE WEIGHT FUNCTION
 RADSAFE =     2.00
 TOLERANCES - DENSITY:10**- 6; POTENTIAL:10**- 9; GRID WGT:10**-14

 RADIAL INTEGRATION  - INTERVALS (POINTS,UPPER LIMIT):            1( 75,  4.0*R)

 ANGULAR INTEGRATION - INTERVALS (ACCURACY LEVEL [N. POINTS] UPPER LIMIT):
  1(  4[  86]   0.2)  2(  8[ 194]   0.5)  3( 12[ 350]   0.9)  4( 16[ 974]   3.5)
  5( 12[ 350]9999.0)
 TTTTTTTTTTTTTTTTTTTTTTTTTTTTTT INT_CALC    TELAPSE       10.55 TCPU       10.53
 EEEEEEEEEE INT_CALC TERMINATION  DATE 19 02 2026 TIME 18:39:56.9

 *******************************************************************************
 cof-1_z36_L030_incl                                                             
 CRYSTAL - SCF - TYPE OF CALCULATION :  RESTRICTED CLOSED SHELL
 *******************************************************************************

 CAPPA:IS1  2;IS2  2;IS3  8; K PTS MONK NET  20; SYMMOPS:K SPACE   2;G SPACE   1

 TTTTTTTTTTTTTTTTTTTTTTTTTTTTTT SDIK        TELAPSE       11.16 TCPU       18.63

 AAAAAAAAAAAAAAAAAAAAAAAAAAAAAAAAAAAAAAAAAAAAAAAAAAAAAAAAAAAAAAAAAAAAAAAAAAAAAAA
         ATOMIC WAVEFUNCTION(S)


 NUCLEAR CHARGE  5.0  SYMMETRY SPECIES            S    P
 N. ELECTRONS    5.0  NUMBER OF PRIMITIVE GTOS    8    4
                      NUMBER OF CONTRACTED GTOS   4    2
                      NUMBER OF CLOSED SHELLS     2    0
                      OPEN SHELL OCCUPATION       0    1

  ZNUC  SCFIT    TOTAL HF ENERGY   KINETIC ENERGY   VIRIAL THEOREM ACCURACY
   5.0    11    -2.451164084E+01  2.462155050E+01 -1.995536038E+00  1.5E-06

 NUCLEAR CHARGE  1.0  SYMMETRY SPECIES            S
 N. ELECTRONS    1.0  NUMBER OF PRIMITIVE GTOS    4
                      NUMBER OF CONTRACTED GTOS   2
                      NUMBER OF CLOSED SHELLS     0
                      OPEN SHELL OCCUPATION       1

  ZNUC  SCFIT    TOTAL HF ENERGY   KINETIC ENERGY   VIRIAL THEOREM ACCURACY
   1.0     1    -4.977266687E-01  5.190767460E-01 -1.958869132E+00  0.0E+00

 NUCLEAR CHARGE  6.0  SYMMETRY SPECIES            S    P
 N. ELECTRONS    6.0  NUMBER OF PRIMITIVE GTOS    8    4
                      NUMBER OF CONTRACTED GTOS   4    2
                      NUMBER OF CLOSED SHELLS     2    0
                      OPEN SHELL OCCUPATION       0    2

  ZNUC  SCFIT    TOTAL HF ENERGY   KINETIC ENERGY   VIRIAL THEOREM ACCURACY
   6.0     9    -3.766704647E+01  3.775180683E+01 -1.997754800E+00  1.1E-06

 NUCLEAR CHARGE  8.0  SYMMETRY SPECIES            S    P
 N. ELECTRONS    8.0  NUMBER OF PRIMITIVE GTOS    8    4
                      NUMBER OF CONTRACTED GTOS   4    2
                      NUMBER OF CLOSED SHELLS     2    0
                      OPEN SHELL OCCUPATION       0    4

  ZNUC  SCFIT    TOTAL HF ENERGY   KINETIC ENERGY   VIRIAL THEOREM ACCURACY
   8.0    12    -7.477373220E+01  7.477365593E+01 -2.000001020E+00  3.8E-06

 AAAAAAAAAAAAAAAAAAAAAAAAAAAAAAAAAAAAAAAAAAAAAAAAAAAAAAAAAAAAAAAAAAAAAAAAAAAAAAA

 CHARGE NORMALIZATION FACTOR   1.00000000
 TOTAL ATOMIC CHARGES:
   5.0000000   5.0000000   5.0000000   5.0000000   5.0000000   5.0000000
   1.0000000   1.0000000   1.0000000   1.0000000   1.0000000   1.0000000
   1.0000000   1.0000000   1.0000000   1.0000000   1.0000000   1.0000000
   6.0000000   6.0000000   6.0000000   6.0000000   6.0000000   6.0000000
   6.0000000   6.0000000   6.0000000   6.0000000   6.0000000   6.0000000
   6.0000000   6.0000000   6.0000000   6.0000000   6.0000000   6.0000000
   8.0000000   8.0000000   8.0000000   8.0000000   8.0000000   8.0000000
 TTTTTTTTTTTTTTTTTTTTTTTTTTTTTT MOQGAD      TELAPSE       11.21 TCPU       20.24
 TTTTTTTTTTTTTTTTTTTTTTTTTTTTTT SHELLXN     TELAPSE       20.17 TCPU      306.36
 TTTTTTTTTTTTTTTTTTTTTTTTTTTTTT MONMO3      TELAPSE       20.33 TCPU      311.48
 NUMERICALLY INTEGRATED DENSITY    197.9999864479
 TTTTTTTTTTTTTTTTTTTTTTTTTTTTTT NUMDFT      TELAPSE       20.94 TCPU      331.21
 CYC   0 ETOT(AU) -1.295966851609E+03 DETOT -1.30E+03 tst  0.00E+00 PX  1.00E+00
 TTTTTTTTTTTTTTTTTTTTTTTTTTTTTT DIIS        TELAPSE       20.98 TCPU      332.35
 TTTTTTTTTTTTTTTTTTTTTTTTTTTTTT FDIK        TELAPSE       21.46 TCPU      347.76
 INSULATING STATE
 TOP OF VALENCE BANDS -    BAND     99; K   17; EIG -3.0838886E-01 AU
 TOP OF VALENCE BANDS -    BAND     99; K    1; EIG -3.1234306E-01 AU
 BOTTOM OF VIRTUAL BANDS - BAND    100; K    1; EIG -1.6228915E-01 AU
 INDIRECT ENERGY BAND GAP:   3.9756 eV
 TTTTTTTTTTTTTTTTTTTTTTTTTTTTTT PDIG        TELAPSE       21.77 TCPU      353.92
 CHARGE NORMALIZATION FACTOR   1.00000000
 TOTAL ATOMIC CHARGES:
   4.1405681   4.1571283   4.1575967   4.1568760   4.1566513   4.1401414
   0.7855838   0.7857136   0.7847578   0.7847842   0.7861283   0.7863365
   0.7861467   0.7863090   0.7847137   0.7848271   0.7855331   0.7857104
   6.0449562   6.2676563   6.2675800   6.2655562   6.2654958   6.0443859
   6.0507386   6.2655289   6.2656756   6.2654048   6.2656979   6.0497376
   6.0454179   6.2652445   6.2658782   6.2672441   6.2678595   6.0439202
   8.6984628   8.6986553   8.6972155   8.6991590   8.6976716   8.6993513
 TTTTTTTTTTTTTTTTTTTTTTTTTTTTTT MOQGAD      TELAPSE       21.82 TCPU      353.97
 TTTTTTTTTTTTTTTTTTTTTTTTTTTTTT SHELLXN     TELAPSE       31.12 TCPU      650.70
 TTTTTTTTTTTTTTTTTTTTTTTTTTTTTT MONMO3      TELAPSE       31.28 TCPU      655.81
 NUMERICALLY INTEGRATED DENSITY    197.9999840249
 TTTTTTTTTTTTTTTTTTTTTTTTTTTTTT NUMDFT      TELAPSE       31.91 TCPU      675.84
 CYC   1 ETOT(AU) -1.288826431483E+03 DETOT  7.14E+00 tst  0.00E+00 PX  1.00E+00
 TTTTTTTTTTTTTTTTTTTTTTTTTTTTTT DIIS        TELAPSE       31.96 TCPU      677.38
 DIIS TEST: 0.10888E+01 AT SCF   CYCLE   1 - MIX   30 %
 TTTTTTTTTTTTTTTTTTTTTTTTTTTTTT FDIK        TELAPSE       32.45 TCPU      693.09
 INSULATING STATE
 TOP OF VALENCE BANDS -    BAND     99; K   17; EIG -2.1720831E-01 AU
 TOP OF VALENCE BANDS -    BAND     99; K    1; EIG -2.2604611E-01 AU
 BOTTOM OF VIRTUAL BANDS - BAND    100; K    1; EIG -8.5023865E-02 AU
 INDIRECT ENERGY BAND GAP:   3.5969 eV
 TTTTTTTTTTTTTTTTTTTTTTTTTTTTTT PDIG        TELAPSE       32.75 TCPU      699.24
 CHARGE NORMALIZATION FACTOR   1.00000000
 TOTAL ATOMIC CHARGES:
   4.6633045   4.6963275   4.6958813   4.6958403   4.6961769   4.6621391
   0.9080057   0.9081707   0.9172382   0.9174651   0.9053887   0.9051875
   0.9052953   0.9051993   0.9172578   0.9174602   0.9078783   0.9079513
   5.8686092   6.1221328   6.1226784   6.1470847   6.1483318   5.8707741
   5.8944416   6.1407379   6.1425580   6.1421136   6.1411189   5.8969422
   5.8681590   6.1467489   6.1488347   6.1225149   6.1227054   5.8711554
   8.3343048   8.3345470   8.3565113   8.3340911   8.3565939   8.3341428
 TTTTTTTTTTTTTTTTTTTTTTTTTTTTTT MOQGAD      TELAPSE       32.80 TCPU      699.29
 TTTTTTTTTTTTTTTTTTTTTTTTTTTTTT SHELLXN     TELAPSE       42.10 TCPU      995.81
 TTTTTTTTTTTTTTTTTTTTTTTTTTTTTT MONMO3      TELAPSE       42.26 TCPU     1000.92
 NUMERICALLY INTEGRATED DENSITY    197.9999774443
 TTTTTTTTTTTTTTTTTTTTTTTTTTTTTT NUMDFT      TELAPSE       42.89 TCPU     1020.96
 CYC   2 ETOT(AU) -1.289019852717E+03 DETOT -1.93E-01 tst  3.66E-03 PX  1.59E-01
 TTTTTTTTTTTTTTTTTTTTTTTTTTTTTT DIIS        TELAPSE       42.94 TCPU     1022.55
 DIIS TEST: 0.45180E+00 AT SCF   CYCLE   2 - DIIS ACTIVE - HISTORY:     2 CYCLES
 TTTTTTTTTTTTTTTTTTTTTTTTTTTTTT FDIK        TELAPSE       43.43 TCPU     1038.20
 INSULATING STATE
 TOP OF VALENCE BANDS -    BAND     99; K   17; EIG -2.3038311E-01 AU
 TOP OF VALENCE BANDS -    BAND     99; K    1; EIG -2.3652350E-01 AU
 BOTTOM OF VIRTUAL BANDS - BAND    100; K    1; EIG -8.0659479E-02 AU
 INDIRECT ENERGY BAND GAP:   4.0742 eV
 TTTTTTTTTTTTTTTTTTTTTTTTTTTTTT PDIG        TELAPSE       43.73 TCPU     1044.36
 CHARGE NORMALIZATION FACTOR   1.00000000
 TOTAL ATOMIC CHARGES:
   4.4639472   4.4917969   4.4916920   4.4909036   4.4908779   4.4631405
   0.8863224   0.8865605   0.8933504   0.8934698   0.8860887   0.8863125
   0.8862421   0.8861158   0.8932923   0.8935572   0.8862287   0.8864035
   5.8914119   6.1643437   6.1645414   6.1591669   6.1582605   5.8907376
   5.9133698   6.1619294   6.1613105   6.1616463   6.1615294   5.9136641
   5.8919657   6.1592591   6.1582998   6.1641708   6.1648359   5.8902941
   8.5199036   8.5202777   8.5158460   8.5204965   8.5155754   8.5208618
 TTTTTTTTTTTTTTTTTTTTTTTTTTTTTT MOQGAD      TELAPSE       43.78 TCPU     1044.41
 TTTTTTTTTTTTTTTTTTTTTTTTTTTTTT SHELLXN     TELAPSE       53.08 TCPU     1340.91
 TTTTTTTTTTTTTTTTTTTTTTTTTTTTTT MONMO3      TELAPSE       53.24 TCPU     1346.02
 NUMERICALLY INTEGRATED DENSITY    197.9999790525
 TTTTTTTTTTTTTTTTTTTTTTTTTTTTTT NUMDFT      TELAPSE       53.86 TCPU     1366.07
 CYC   3 ETOT(AU) -1.289113441961E+03 DETOT -9.36E-02 tst  7.03E-04 PX  6.60E-02
 TTTTTTTTTTTTTTTTTTTTTTTTTTTTTT DIIS        TELAPSE       53.92 TCPU     1367.90
 DIIS TEST: 0.14000E-01 AT SCF   CYCLE   3 - DIIS ACTIVE - HISTORY:     3 CYCLES
 TTTTTTTTTTTTTTTTTTTTTTTTTTTTTT FDIK        TELAPSE       54.41 TCPU     1383.59
 INSULATING STATE
 TOP OF VALENCE BANDS -    BAND     99; K   17; EIG -2.4027259E-01 AU
 TOP OF VALENCE BANDS -    BAND     99; K    1; EIG -2.4856248E-01 AU
 BOTTOM OF VIRTUAL BANDS - BAND    100; K    1; EIG -8.9129057E-02 AU
 INDIRECT ENERGY BAND GAP:   4.1128 eV
 TTTTTTTTTTTTTTTTTTTTTTTTTTTTTT PDIG        TELAPSE       54.72 TCPU     1389.75
 CHARGE NORMALIZATION FACTOR   1.00000000
 TOTAL ATOMIC CHARGES:
   4.4715509   4.4955560   4.4953127   4.4950856   4.4951949   4.4711358
   0.8702199   0.8704849   0.8756538   0.8756803   0.8670964   0.8670022
   0.8670026   0.8670394   0.8757319   0.8756519   0.8701482   0.8703007
   5.9380900   6.1598105   6.1600537   6.1746736   6.1766592   5.9405828
   5.9624536   6.1706248   6.1724492   6.1719692   6.1709910   5.9644877
   5.9378680   6.1741070   6.1773588   6.1599986   6.1600924   5.9407816
   8.4797227   8.4798166   8.4958938   8.4796365   8.4964247   8.4796059
 TTTTTTTTTTTTTTTTTTTTTTTTTTTTTT MOQGAD      TELAPSE       54.77 TCPU     1389.80
 TTTTTTTTTTTTTTTTTTTTTTTTTTTTTT SHELLXN     TELAPSE       64.07 TCPU     1686.36
 TTTTTTTTTTTTTTTTTTTTTTTTTTTTTT MONMO3      TELAPSE       64.23 TCPU     1691.48
 NUMERICALLY INTEGRATED DENSITY    197.9999788272
 TTTTTTTTTTTTTTTTTTTTTTTTTTTTTT NUMDFT      TELAPSE       64.85 TCPU     1711.52
 CYC   4 ETOT(AU) -1.289116396143E+03 DETOT -2.95E-03 tst  3.26E-05 PX  1.40E-02
 TTTTTTTTTTTTTTTTTTTTTTTTTTTTTT DIIS        TELAPSE       64.91 TCPU     1713.42
 DIIS TEST: 0.42365E-02 AT SCF   CYCLE   4 - DIIS ACTIVE - HISTORY:     4 CYCLES
 TTTTTTTTTTTTTTTTTTTTTTTTTTTTTT FDIK        TELAPSE       65.40 TCPU     1729.04
 INSULATING STATE
 TOP OF VALENCE BANDS -    BAND     99; K   17; EIG -2.3865294E-01 AU
 TOP OF VALENCE BANDS -    BAND     99; K    1; EIG -2.4618901E-01 AU
 BOTTOM OF VIRTUAL BANDS - BAND    100; K    1; EIG -8.8891789E-02 AU
 INDIRECT ENERGY BAND GAP:   4.0752 eV
 TTTTTTTTTTTTTTTTTTTTTTTTTTTTTT PDIG        TELAPSE       65.70 TCPU     1735.20
 CHARGE NORMALIZATION FACTOR   1.00000000
 TOTAL ATOMIC CHARGES:
   4.4706935   4.4990540   4.4988419   4.4983009   4.4983692   4.4697958
   0.8724590   0.8726586   0.8791661   0.8793615   0.8707874   0.8709562
   0.8708738   0.8708089   0.8791349   0.8794370   0.8723556   0.8724935
   5.9224938   6.1643930   6.1646071   6.1720715   6.1711072   5.9212781
   5.9438134   6.1711638   6.1707936   6.1711120   6.1707797   5.9437435
   5.9227076   6.1720781   6.1712206   6.1642541   6.1649598   5.9210941
   8.4932659   8.4936386   8.4983203   8.4936257   8.4979794   8.4939510
 TTTTTTTTTTTTTTTTTTTTTTTTTTTTTT MOQGAD      TELAPSE       65.76 TCPU     1735.25
 TTTTTTTTTTTTTTTTTTTTTTTTTTTTTT SHELLXN     TELAPSE       75.05 TCPU     2031.82
 TTTTTTTTTTTTTTTTTTTTTTTTTTTTTT MONMO3      TELAPSE       75.21 TCPU     2036.93
 NUMERICALLY INTEGRATED DENSITY    197.9999789195
 TTTTTTTTTTTTTTTTTTTTTTTTTTTTTT NUMDFT      TELAPSE       75.84 TCPU     2056.97
 CYC   5 ETOT(AU) -1.289117363316E+03 DETOT -9.67E-04 tst  5.65E-06 PX  6.80E-03
 TTTTTTTTTTTTTTTTTTTTTTTTTTTTTT DIIS        TELAPSE       75.91 TCPU     2059.16
 DIIS TEST: 0.82252E-04 AT SCF   CYCLE   5 - DIIS ACTIVE - HISTORY:     5 CYCLES
 TTTTTTTTTTTTTTTTTTTTTTTTTTTTTT FDIK        TELAPSE       76.40 TCPU     2074.85
 INSULATING STATE
 TOP OF VALENCE BANDS -    BAND     99; K   17; EIG -2.3834851E-01 AU
 TOP OF VALENCE BANDS -    BAND     99; K    1; EIG -2.4590905E-01 AU
 BOTTOM OF VIRTUAL BANDS - BAND    100; K    1; EIG -8.8328602E-02 AU
 INDIRECT ENERGY BAND GAP:   4.0823 eV
 TTTTTTTTTTTTTTTTTTTTTTTTTTTTTT PDIG        TELAPSE       76.70 TCPU     2081.01
 CHARGE NORMALIZATION FACTOR   1.00000000
 TOTAL ATOMIC CHARGES:
   4.4717302   4.4979814   4.4977742   4.4974904   4.4975780   4.4712705
   0.8735223   0.8737891   0.8802255   0.8801979   0.8719551   0.8718492
   0.8718864   0.8718624   0.8802834   0.8801830   0.8734303   0.8736154
   5.9192735   6.1633912   6.1637893   6.1700309   6.1726472   5.9230135
   5.9430939   6.1688707   6.1708349   6.1701494   6.1694622   5.9459997
   5.9193901   6.1695396   6.1732710   6.1636546   6.1637243   5.9229239
   8.4918519   8.4919014   8.5010588   8.4919007   8.5017481   8.4918543
 TTTTTTTTTTTTTTTTTTTTTTTTTTTTTT MOQGAD      TELAPSE       76.75 TCPU     2081.06
 TTTTTTTTTTTTTTTTTTTTTTTTTTTTTT SHELLXN     TELAPSE       86.06 TCPU     2377.80
 TTTTTTTTTTTTTTTTTTTTTTTTTTTTTT MONMO3      TELAPSE       86.22 TCPU     2382.91
 NUMERICALLY INTEGRATED DENSITY    197.9999789015
 TTTTTTTTTTTTTTTTTTTTTTTTTTTTTT NUMDFT      TELAPSE       86.85 TCPU     2402.97
 CYC   6 ETOT(AU) -1.289117375935E+03 DETOT -1.26E-05 tst  3.68E-07 PX  1.11E-03
 TTTTTTTTTTTTTTTTTTTTTTTTTTTTTT DIIS        TELAPSE       86.92 TCPU     2405.21
 DIIS TEST: 0.48838E-04 AT SCF   CYCLE   6 - DIIS ACTIVE - HISTORY:     6 CYCLES
 TTTTTTTTTTTTTTTTTTTTTTTTTTTTTT FDIK        TELAPSE       87.40 TCPU     2420.80
 INSULATING STATE
 TOP OF VALENCE BANDS -    BAND     99; K   17; EIG -2.3838309E-01 AU
 TOP OF VALENCE BANDS -    BAND     99; K    1; EIG -2.4592457E-01 AU
 BOTTOM OF VIRTUAL BANDS - BAND    100; K    1; EIG -8.8364867E-02 AU
 INDIRECT ENERGY BAND GAP:   4.0822 eV
 TTTTTTTTTTTTTTTTTTTTTTTTTTTTTT PDIG        TELAPSE       87.71 TCPU     2426.96
 CHARGE NORMALIZATION FACTOR   1.00000000
 TOTAL ATOMIC CHARGES:
   4.4714331   4.4984493   4.4982456   4.4977372   4.4978061   4.4706729
   0.8735094   0.8737434   0.8800633   0.8802210   0.8717690   0.8718778
   0.8718124   0.8717782   0.8800643   0.8802623   0.8734172   0.8735684
   5.9218432   6.1635237   6.1636861   6.1713137   6.1709005   5.9213350
   5.9442010   6.1699506   6.1700398   6.1702543   6.1696530   5.9445146
   5.9219251   6.1711409   6.1712012   6.1634498   6.1639684   5.9212789
   8.4922532   8.4925599   8.4997138   8.4925202   8.4995815   8.4927608
 TTTTTTTTTTTTTTTTTTTTTTTTTTTTTT MOQGAD      TELAPSE       87.76 TCPU     2427.01
 TTTTTTTTTTTTTTTTTTTTTTTTTTTTTT SHELLXN     TELAPSE       97.07 TCPU     2723.87
 TTTTTTTTTTTTTTTTTTTTTTTTTTTTTT MONMO3      TELAPSE       97.23 TCPU     2728.98
 NUMERICALLY INTEGRATED DENSITY    197.9999789030
 TTTTTTTTTTTTTTTTTTTTTTTTTTTTTT NUMDFT      TELAPSE       97.86 TCPU     2749.05
 CYC   7 ETOT(AU) -1.289117386815E+03 DETOT -1.09E-05 tst  2.48E-07 PX  8.30E-04
 TTTTTTTTTTTTTTTTTTTTTTTTTTTTTT DIIS        TELAPSE       97.93 TCPU     2751.59
 DIIS TEST: 0.32774E-05 AT SCF   CYCLE   7 - DIIS ACTIVE - HISTORY:     7 CYCLES
 TTTTTTTTTTTTTTTTTTTTTTTTTTTTTT FDIK        TELAPSE       98.42 TCPU     2767.19
 INSULATING STATE
 TOP OF VALENCE BANDS -    BAND     99; K   17; EIG -2.3839292E-01 AU
 TOP OF VALENCE BANDS -    BAND     99; K    1; EIG -2.4594020E-01 AU
 BOTTOM OF VIRTUAL BANDS - BAND    100; K    1; EIG -8.8400128E-02 AU
 INDIRECT ENERGY BAND GAP:   4.0815 eV
 TTTTTTTTTTTTTTTTTTTTTTTTTTTTTT PDIG        TELAPSE       98.73 TCPU     2773.34
 CHARGE NORMALIZATION FACTOR   1.00000000
 TOTAL ATOMIC CHARGES:
   4.4713209   4.4985500   4.4983430   4.4979106   4.4979831   4.4706273
   0.8734692   0.8736997   0.8800609   0.8801535   0.8717472   0.8718006
   0.8717730   0.8717178   0.8800638   0.8801935   0.8733724   0.8735293
   5.9211777   6.1634296   6.1637202   6.1708147   6.1713848   5.9220810
   5.9436227   6.1697612   6.1703659   6.1702461   6.1698012   5.9448312
   5.9213523   6.1706285   6.1716975   6.1634509   6.1639075   5.9219335
   8.4924410   8.4926846   8.4993786   8.4926653   8.4994677   8.4928406
 TTTTTTTTTTTTTTTTTTTTTTTTTTTTTT MOQGAD      TELAPSE       98.77 TCPU     2773.39
 TTTTTTTTTTTTTTTTTTTTTTTTTTTTTT SHELLXN     TELAPSE      108.08 TCPU     3070.10
 TTTTTTTTTTTTTTTTTTTTTTTTTTTTTT MONMO3      TELAPSE      108.24 TCPU     3075.21
 NUMERICALLY INTEGRATED DENSITY    197.9999789009
 TTTTTTTTTTTTTTTTTTTTTTTTTTTTTT NUMDFT      TELAPSE      108.86 TCPU     3095.22
 CYC   8 ETOT(AU) -1.289117387273E+03 DETOT -4.58E-07 tst  2.42E-08 PX  1.80E-04
 TTTTTTTTTTTTTTTTTTTTTTTTTTTTTT DIIS        TELAPSE      108.95 TCPU     3097.78
 DIIS TEST: 0.52462E-06 AT SCF   CYCLE   8 - DIIS ACTIVE - HISTORY:     8 CYCLES
 TTTTTTTTTTTTTTTTTTTTTTTTTTTTTT FDIK        TELAPSE      109.43 TCPU     3113.38
 INSULATING STATE
 TOP OF VALENCE BANDS -    BAND     99; K   17; EIG -2.3839328E-01 AU
 TOP OF VALENCE BANDS -    BAND     99; K    1; EIG -2.4594458E-01 AU
 BOTTOM OF VIRTUAL BANDS - BAND    100; K    1; EIG -8.8404145E-02 AU
 INDIRECT ENERGY BAND GAP:   4.0814 eV
 TTTTTTTTTTTTTTTTTTTTTTTTTTTTTT PDIG        TELAPSE      109.74 TCPU     3119.54
 CHARGE NORMALIZATION FACTOR   1.00000000
 TOTAL ATOMIC CHARGES:
   4.4713954   4.4985375   4.4983290   4.4978777   4.4979521   4.4706877
   0.8734520   0.8736871   0.8800482   0.8801610   0.8717392   0.8718005
   0.8717614   0.8717214   0.8800575   0.8801946   0.8733570   0.8735151
   5.9212973   6.1634576   6.1637044   6.1709798   6.1712960   5.9218268
   5.9437825   6.1697877   6.1703060   6.1702864   6.1697257   5.9447364
   5.9214260   6.1707606   6.1716424   6.1634690   6.1639005   5.9217252
   8.4923477   8.4925950   8.4996481   8.4925748   8.4996974   8.4927525
 TTTTTTTTTTTTTTTTTTTTTTTTTTTTTT MOQGAD      TELAPSE      109.79 TCPU     3119.59
 TTTTTTTTTTTTTTTTTTTTTTTTTTTTTT SHELLXN     TELAPSE      119.09 TCPU     3416.17
 +++ ENERGIES IN A.U. +++
 ::: EXT EL-POLE                                  -1.4316355420225E+03
 ::: EXT EL-SPHEROPOLE                             1.5929615030433E+01
 ::: BIELET ZONE E-E                               2.2470279627974E+03
 ::: TOTAL E-E                                     8.3132203580530E+02
 ::: TOTAL E-N + N-E                              -3.4889151222734E+03
 ::: TOTAL N-N                                     2.2227223500969E+02
 ::: KINETIC ENERGY                                1.2799176563495E+03
 ::: PSEUDO TOTAL   ENERGY                        -1.1554031951090E+03
 ::: VIRIAL COEFFICIENT                            1.0511285653247E+00
 TTTTTTTTTTTTTTTTTTTTTTTTTTTTTT MONMO3      TELAPSE      119.25 TCPU     3421.27
 NUMERICALLY INTEGRATED DENSITY    197.9999789009
 EXCHANGE ENERGY: -0.126018901159E+03  CORRELATION ENERGY: -0.769529110862E+01
 TTTTTTTTTTTTTTTTTTTTTTTTTTTTTT NUMDFT      TELAPSE      119.88 TCPU     3441.34
 CYC   9 ETOT(AU) -1.289117387377E+03 DETOT -1.04E-07 tst  1.54E-09 PX  1.80E-04

 == SCF ENDED - CONVERGENCE ON ENERGY      E(AU) -1.2891173873770E+03 CYCLES   9


 ENERGY EXPRESSION=HARTREE+FOCK EXCH*0.00000+(HSESOL     EXCH)*1.00000+PBESOL     CORR


 TOTAL ENERGY(DFT)(AU)(  9) -1.2891173873770E+03 DE-1.0E-07 tester 1.5E-09
 TTTTTTTTTTTTTTTTTTTTTTTTTTTTTT EDFT        TELAPSE      119.88 TCPU     3441.35
 
 INFORMATION **** DFTD3 ENERGY **** CALCULATE DFTD3 ENERGY

           DFT-D V3(BJ)
 DF                                         hsesol3c  
 parameters
 s6       :    1.0000
 s8       :    0.0000
 a1       :    0.5196
 a2       :    4.9385
 k1 k3    :   16.0000   -4.0000
 Cutoff   :   50.2022
 CN-Cutoff:   21.1671
 ABC-Cutoff:   21.1671
 
 Edisp /kcal,au:   -28.0650 -0.04472446

 E6    /kcal :   -29.8834
 E8    /kcal :     0.0000
 E6(ABC) "   :   1.818396
 
 INFORMATION **** DFTD3 ENERGY **** NORMAL TERMINATION OF DFTD3 MODULE

 GCP ENERGY CALCULATION
  level        hsesol3c            basis:hsesol3c
  Nbf            474
  Atoms           42

  Parameters: 
  sigma     1.0000
  eta       1.4281
  alpha     0.2936
  beta      1.9467

  dmp_scal      4.0000
  dmp_exp       6.0000
 cutoffs: 
   distance [bohr] 60.0
   noise    [a.u.] 2.2E-16
 SR-damping   T
 ** gCP correction **
  Egcp:        0.0832517505 / (a.u.) ||      52.2413 / (kcal/mol)
 INFORMATION **** GCP **** NORMAL TERMINATION OF GCP MODULE

 *******************************************************************************

 DFT-D3-GCP DISPERSION AND COUNTERPOISE CORRECTION

 D3 DISPERSION ENERGY (AU)      -4.4724457235460E-02
 GCP ENERGY (AU)                 8.3251750506512E-02
 TOTAL ENERGY + DISP + GCP (AU) -1.2890788600837E+03

 *******************************************************************************

 EIGENVECTORS IN FORTRAN UNIT 10
 TTTTTTTTTTTTTTTTTTTTTTTTTTTTTT END         TELAPSE      121.25 TCPU     3448.69
 EEEEEEEEEE TERMINATION  DATE 19 02 2026 TIME 18:41:47.6
