 Default number of threads is:           32

         
 *******************************************************************************
 *                                                                             *
 *                               CRYSTAL23                                     *
 *                      public : 1.0.1 - October 2022                          *
 *                       HTTP://WWW.CRYSTAL.UNITO.IT                           *
 *                                                                             *
 *                              MAIN AUTHORS                                   *
 *                                                                             *
 *  R. DOVESI(1,11), V.R. SAUNDERS(2), C. ROETTI(1,11), R. ORLANDO(1,11),      *
 *  C.M. ZICOVICH-WILSON(1,3), F. PASCALE(4), B. CIVALLERI(1,11),              *
 *  K. DOLL(5), N.M. HARRISON(6), I.J. BUSH(7), Ph. D'ARCO(8),                 *
 *  M. LLUNELL(9), M. CAUSA'(10), Y. NOEL(8), L. MASCHIO(1,11), A. ERBA(1,11)  *
 *  M. RE'RAT(14), S. CASASSA(1,11), B.G. SEARLE(2), J.K. DESMARAIS(1)         *
 *                                                                             *
 *        CONTRIBUTIONS TO THE CODE HAVE ALSO BEEN GIVEN BY                    *
 *                                                                             *
 *  M. FERRABONE(1,11), M. DE LA PIERRE(1,11), M. FERRERO(1,11),               *
 *  J. BAIMA(1,11), E. ALBANESE(1,11), M.F. PEINTINGER(12), R. BAST(13),       *
 *  B. KIRTMAN(15), V. LACIVITA(1,11), R. DEMICHELIS(1,16)                     *
 *  G. BRANDEBURG(17), S. SALUSTRO(1,11), G. SANSONE(1,11)                     *
 *  M.T. RUGGIERO(18), L.E. DAGA(1), L. DONA'(1), A. COSSARD(1)                *
 *                                                                             *
 * (1) THEORETICAL CHEMISTRY GROUP - UNIVERSITA' DI TORINO - TORINO (ITALY)    *
 * (2) SCIENTIFIC COMPUTING DEPARTMENT - STFC DARESBURY (UK)                   *
 * (3) UNIVERSIDAD AUTONOMA DEL ESTADO DE MORELOS - CUERNAVACA (MEXICO)        *
 * (4) UNIVERSITE' DE LORRAINE - NANCY (FRANCE)                                *
 * (5) UNIVERSITAET STUTTGART- STUTTGART (GERMANY)                             *
 * (6) IMPERIAL COLLEGE - LONDON (UK)                                          *
 * (7) SCIENTIFIC COMPUTING DEPARTMENT - STFC RAL (UK)                         *
 * (8) UPMC - SORBONNE UNIVERSITES - PARIS (FRANCE)                            *
 * (9) UNIVERSIDAD DE BARCELONA - BARCELONA (SPAIN)                            *
 *(10) UNIVERSITA' DI NAPOLI "FEDERICO II" - NAPOLI (ITALY)                    *
 *(11) NIS - NANOSTRUCTURED INTERFACES AND SURFACES - TORINO (ITALY)           *
 *(12) MPI FUER CHEMISCHE ENERGIEKONVERSION - MUELHEIM AN DER RUHR (GERMANY)   *
 *(13) UNIVERSITY OF TROMSO - TROMSO (NORWAY)                                  *
 *(14) UNIVERSITE' DE PAU ET DES PAYS DE L'ADOUR - PAU (FRANCE)                *
 *(15) UNIVERSITY OF CALIFORNIA SANTA BARBARA - SANTA BARBARA (USA)            *
 *(16) CURTIN UNIVERSITY - PERTH (AUSTRALIA)                                   *
 *(17) UNIVERSITY COLLEGE LONDON - LONDON (UK)                                 *
 *(18) UNIVERSITY OF VERMONT - BURLINGTON (USA)                                *
 *                                                                             *
 *******************************************************************************
 EEEEEEEEEE STARTING  DATE 19 02 2026 TIME 19:40:08.0
 cof-1_z31_L040_serr                                                             

 CRYSTAL CALCULATION
 (INPUT ACCORDING TO THE INTERNATIONAL TABLES FOR X-RAY CRYSTALLOGRAPHY)
 CRYSTAL FAMILY                       :  TRICLINIC   
 CRYSTAL CLASS  (GROTH - 1921)        :  TRICLINIC PEDIAL                     

 SPACE GROUP (NONCENTROSYMMETRIC)     :  P 1             

 LATTICE PARAMETERS  (ANGSTROMS AND DEGREES) - CONVENTIONAL CELL
        A           B           C        ALPHA        BETA       GAMMA
    15.02361    15.02392     6.20000    90.00032    89.99994   119.99596


 NUMBER OF IRREDUCIBLE ATOMS IN THE CONVENTIONAL CELL:   84

 INPUT COORDINATES

 ATOM AT. N.              COORDINATES
   1   5     6.136805400000E-01  2.273182200000E-01  2.507704400000E-01
   2   5     7.673736500000E-01  5.347356900000E-01  7.507704400000E-01
   3   5     7.727362000000E-01  3.863778800000E-01  2.507704500000E-01
   4   5     9.264293100000E-01  6.937953500000E-01  7.507704500000E-01
   5   5     6.136762700000E-01  3.863606700000E-01  2.491505800000E-01
   6   5     7.673693800000E-01  6.937781400000E-01  7.491505800000E-01
   7   5     2.272552500000E-01  6.136332200000E-01  2.507704500000E-01
   8   5     3.809483600000E-01  9.210506900000E-01  7.507704500000E-01
   9   5     3.863632200000E-01  6.136124500000E-01  2.507704400000E-01
  10   5     5.400563300000E-01  9.210299200000E-01  7.507704400000E-01
  11   5     3.863435000000E-01  7.727516500000E-01  2.491505800000E-01
  12   5     5.400366100000E-01  8.016912000000E-02  7.491505800000E-01
  13   1     9.030436200000E-01  3.089300500000E-01  2.474121300000E-01
  14   1     5.673673000000E-02  6.163475200000E-01  7.474121300000E-01
  15   1     9.663453000000E-02  6.910534400000E-01  2.468985900000E-01
  16   1     2.503276400000E-01  9.984709100000E-01  7.468985900000E-01
  17   1     9.029714200000E-01  5.940724300000E-01  2.468195500000E-01
  18   1     5.666453000000E-02  9.014899000000E-01  7.468195500000E-01
  19   1     9.673618000000E-02  4.056849400000E-01  2.468392700000E-01
  20   1     2.504292900000E-01  7.131024100000E-01  7.468392700000E-01
  21   1     6.910324000000E-01  9.700412000000E-02  2.525878900000E-01
  22   1     8.447255100000E-01  4.044215900000E-01  7.525878900000E-01
  23   1     3.089297200000E-01  9.034373100000E-01  2.531014700000E-01
  24   1     4.626228300000E-01  2.108547800000E-01  7.531014700000E-01
  25   1     4.058699900000E-01  9.704998000000E-02  2.531805500000E-01
  26   1     5.595631000000E-01  4.044674500000E-01  7.531805600000E-01
  27   1     5.943122100000E-01  9.033473200000E-01  2.531607000000E-01
  28   1     7.480053200000E-01  2.107647900000E-01  7.531607000000E-01
  29   1     6.910727400000E-01  5.940542100000E-01  2.474121600000E-01
  30   1     8.447658500000E-01  9.014716800000E-01  7.474121600000E-01
  31   1     3.089618300000E-01  4.056093300000E-01  2.468985500000E-01
  32   1     4.626549400000E-01  7.130268000000E-01  7.468985500000E-01
  33   1     4.058405700000E-01  3.088232500000E-01  2.468194900000E-01
  34   1     5.595336800000E-01  6.162407200000E-01  7.468194900000E-01
  35   1     5.942908800000E-01  6.909579300000E-01  2.468393300000E-01
  36   1     7.479839900000E-01  9.983754000000E-01  7.468393300000E-01
  37   6     8.918903100000E-01  4.459436900000E-01  2.490913100000E-01
  38   6     4.558342000000E-02  7.533611600000E-01  7.490913000000E-01
  39   6     9.464891100000E-01  3.927856300000E-01  2.474911700000E-01
  40   6     1.001822200000E-01  7.002031000000E-01  7.474911700000E-01
  41   6     5.338812000000E-02  6.071853000000E-01  2.473529300000E-01
  42   6     2.070812300000E-01  9.146027700000E-01  7.473529300000E-01
  43   6     9.464521100000E-01  5.536921900000E-01  2.477677700000E-01
  44   6     1.001452200000E-01  8.611096600000E-01  7.477677700000E-01
  45   6     5.342634000000E-02  4.462499700000E-01  2.467009900000E-01
  46   6     2.071194500000E-01  7.536674400000E-01  7.467009900000E-01
  47   6     1.080358900000E-01  5.540356300000E-01  2.477875100000E-01
  48   6     2.617290000000E-01  8.614531000000E-01  7.477875100000E-01
  49   6     5.540394200000E-01  1.081684600000E-01  2.509087300000E-01
  50   6     7.077325300000E-01  4.155859300000E-01  7.509087300000E-01
  51   6     6.071778500000E-01  5.355594000000E-02  2.525088500000E-01
  52   6     7.608709600000E-01  3.609734100000E-01  7.525088500000E-01
  53   6     3.927986700000E-01  9.466631600000E-01  2.526471400000E-01
  54   6     5.464917800000E-01  2.540806300000E-01  7.526471400000E-01
  55   6     4.462875800000E-01  5.360286000000E-02  2.522323000000E-01
  56   6     5.999806900000E-01  3.610203300000E-01  7.522323000000E-01
  57   6     5.537168500000E-01  9.466235600000E-01  2.532990200000E-01
  58   6     7.074099600000E-01  2.540410300000E-01  7.532990100000E-01
  59   6     4.459279100000E-01  8.919920600000E-01  2.522125300000E-01
  60   6     5.996210200000E-01  1.994095300000E-01  7.522125300000E-01
  61   6     5.540448700000E-01  4.458745500000E-01  2.490913100000E-01
  62   6     7.077379800000E-01  7.532920200000E-01  7.490913000000E-01
  63   6     6.072102200000E-01  5.536257800000E-01  2.474911900000E-01
  64   6     7.609033300000E-01  8.610432500000E-01  7.474912000000E-01
  65   6     3.928233700000E-01  4.461720300000E-01  2.473529000000E-01
  66   6     5.465164800000E-01  7.535895000000E-01  7.473529000000E-01
  67   6     4.462872600000E-01  3.926899900000E-01  2.477677300000E-01
  68   6     5.999803700000E-01  7.001074600000E-01  7.477677300000E-01
  69   6     5.537429600000E-01  6.070980000000E-01  2.467010200000E-01
  70   6     7.074360700000E-01  9.145154700000E-01  7.467010300000E-01
  71   6     4.459599800000E-01  5.539582300000E-01  2.477875100000E-01
  72   6     5.996530900000E-01  8.613757000000E-01  7.477875100000E-01
  73   8     5.607366800000E-01  2.803706300000E-01  2.495851700000E-01
  74   8     7.144297900000E-01  5.877881000000E-01  7.495851700000E-01
  75   8     7.196817000000E-01  2.803783300000E-01  2.530027000000E-01
  76   8     8.733748100000E-01  5.877958000000E-01  7.530027000000E-01
  77   8     7.196794200000E-01  4.393234600000E-01  2.478467900000E-01
  78   8     8.733725300000E-01  7.467409300000E-01  7.478467900000E-01
  79   8     2.803245100000E-01  7.196511100000E-01  2.495851900000E-01
  80   8     4.340176200000E-01  2.706858000000E-02  7.495851900000E-01
  81   8     2.803439700000E-01  5.606956100000E-01  2.530027000000E-01
  82   8     4.340370800000E-01  8.681130800000E-01  7.530027000000E-01
  83   8     4.392638400000E-01  7.196354200000E-01  2.478467700000E-01
  84   8     5.929569500000E-01  2.705289000000E-02  7.478467800000E-01

 *******************************************************************************

 << INFORMATION >>: FROM NOW ON, ALL COORDINATES REFER TO THE PRIMITIVE CELL

 *******************************************************************************

 LATTICE PARAMETERS  (ANGSTROMS AND DEGREES) - PRIMITIVE CELL
       A          B          C        ALPHA      BETA     GAMMA        VOLUME
   15.02361   15.02392    6.20000    90.00032  89.99994 119.99596   1211.985598

 COORDINATES OF THE EQUIVALENT ATOMS (FRACTIONAL UNITS)

 N. ATOM EQUIV AT. N.          X                  Y                  Z

   1   1   1    5 B    -3.86319460000E-01  2.27318220000E-01  2.50770440000E-01

   2   2   1    5 B    -2.32626350000E-01 -4.65264310000E-01 -2.49229560000E-01

   3   3   1    5 B    -2.27263800000E-01  3.86377880000E-01  2.50770450000E-01

   4   4   1    5 B    -7.35706900000E-02 -3.06204650000E-01 -2.49229550000E-01

   5   5   1    5 B    -3.86323730000E-01  3.86360670000E-01  2.49150580000E-01

   6   6   1    5 B    -2.32630620000E-01 -3.06221860000E-01 -2.50849420000E-01

   7   7   1    5 B     2.27255250000E-01 -3.86366780000E-01  2.50770450000E-01

   8   8   1    5 B     3.80948360000E-01 -7.89493100000E-02 -2.49229550000E-01

   9   9   1    5 B     3.86363220000E-01 -3.86387550000E-01  2.50770440000E-01

  10  10   1    5 B    -4.59943670000E-01 -7.89700800000E-02 -2.49229560000E-01

  11  11   1    5 B     3.86343500000E-01 -2.27248350000E-01  2.49150580000E-01

  12  12   1    5 B    -4.59963390000E-01  8.01691200000E-02 -2.50849420000E-01

  13  13   1    1 H    -9.69563800000E-02  3.08930050000E-01  2.47412130000E-01

  14  14   1    1 H     5.67367300000E-02 -3.83652480000E-01 -2.52587870000E-01

  15  15   1    1 H     9.66345300000E-02 -3.08946560000E-01  2.46898590000E-01

  16  16   1    1 H     2.50327640000E-01 -1.52909000000E-03 -2.53101410000E-01

  17  17   1    1 H    -9.70285800000E-02 -4.05927570000E-01  2.46819550000E-01

  18  18   1    1 H     5.66645300000E-02 -9.85101000000E-02 -2.53180450000E-01

  19  19   1    1 H     9.67361800000E-02  4.05684940000E-01  2.46839270000E-01

  20  20   1    1 H     2.50429290000E-01 -2.86897590000E-01 -2.53160730000E-01

  21  21   1    1 H    -3.08967600000E-01  9.70041200000E-02  2.52587890000E-01

  22  22   1    1 H    -1.55274490000E-01  4.04421590000E-01 -2.47412110000E-01

  23  23   1    1 H     3.08929720000E-01 -9.65626900000E-02  2.53101470000E-01

  24  24   1    1 H     4.62622830000E-01  2.10854780000E-01 -2.46898530000E-01

  25  25   1    1 H     4.05869990000E-01  9.70499800000E-02  2.53180550000E-01

  26  26   1    1 H    -4.40436900000E-01  4.04467450000E-01 -2.46819440000E-01

  27  27   1    1 H    -4.05687790000E-01 -9.66526800000E-02  2.53160700000E-01

  28  28   1    1 H    -2.51994680000E-01  2.10764790000E-01 -2.46839300000E-01

  29  29   1    1 H    -3.08927260000E-01 -4.05945790000E-01  2.47412160000E-01

  30  30   1    1 H    -1.55234150000E-01 -9.85283200000E-02 -2.52587840000E-01

  31  31   1    1 H     3.08961830000E-01  4.05609330000E-01  2.46898550000E-01

  32  32   1    1 H     4.62654940000E-01 -2.86973200000E-01 -2.53101450000E-01

  33  33   1    1 H     4.05840570000E-01  3.08823250000E-01  2.46819490000E-01

  34  34   1    1 H    -4.40466320000E-01 -3.83759280000E-01 -2.53180510000E-01

  35  35   1    1 H    -4.05709120000E-01 -3.09042070000E-01  2.46839330000E-01

  36  36   1    1 H    -2.52016010000E-01 -1.62460000000E-03 -2.53160670000E-01

  37  37   1    6 C    -1.08109690000E-01  4.45943690000E-01  2.49091310000E-01

  38  38   1    6 C     4.55834200000E-02 -2.46638840000E-01 -2.50908700000E-01

  39  39   1    6 C    -5.35108900000E-02  3.92785630000E-01  2.47491170000E-01

  40  40   1    6 C     1.00182220000E-01 -2.99796900000E-01 -2.52508830000E-01

  41  41   1    6 C     5.33881200000E-02 -3.92814700000E-01  2.47352930000E-01

  42  42   1    6 C     2.07081230000E-01 -8.53972300000E-02 -2.52647070000E-01

  43  43   1    6 C    -5.35478900000E-02 -4.46307810000E-01  2.47767770000E-01

  44  44   1    6 C     1.00145220000E-01 -1.38890340000E-01 -2.52232230000E-01

  45  45   1    6 C     5.34263400000E-02  4.46249970000E-01  2.46700990000E-01

  46  46   1    6 C     2.07119450000E-01 -2.46332560000E-01 -2.53299010000E-01

  47  47   1    6 C     1.08035890000E-01 -4.45964370000E-01  2.47787510000E-01

  48  48   1    6 C     2.61729000000E-01 -1.38546900000E-01 -2.52212490000E-01

  49  49   1    6 C    -4.45960580000E-01  1.08168460000E-01  2.50908730000E-01

  50  50   1    6 C    -2.92267470000E-01  4.15585930000E-01 -2.49091270000E-01

  51  51   1    6 C    -3.92822150000E-01  5.35559400000E-02  2.52508850000E-01

  52  52   1    6 C    -2.39129040000E-01  3.60973410000E-01 -2.47491150000E-01

  53  53   1    6 C     3.92798670000E-01 -5.33368400000E-02  2.52647140000E-01

  54  54   1    6 C    -4.53508220000E-01  2.54080630000E-01 -2.47352860000E-01

  55  55   1    6 C     4.46287580000E-01  5.36028600000E-02  2.52232300000E-01

  56  56   1    6 C    -4.00019310000E-01  3.61020330000E-01 -2.47767700000E-01

  57  57   1    6 C    -4.46283150000E-01 -5.33764400000E-02  2.53299020000E-01

  58  58   1    6 C    -2.92590040000E-01  2.54041030000E-01 -2.46700990000E-01

  59  59   1    6 C     4.45927910000E-01 -1.08007940000E-01  2.52212530000E-01

  60  60   1    6 C    -4.00378980000E-01  1.99409530000E-01 -2.47787470000E-01

  61  61   1    6 C    -4.45955130000E-01  4.45874550000E-01  2.49091310000E-01

  62  62   1    6 C    -2.92262020000E-01 -2.46707980000E-01 -2.50908700000E-01

  63  63   1    6 C    -3.92789780000E-01 -4.46374220000E-01  2.47491190000E-01

  64  64   1    6 C    -2.39096670000E-01 -1.38956750000E-01 -2.52508800000E-01

  65  65   1    6 C     3.92823370000E-01  4.46172030000E-01  2.47352900000E-01

  66  66   1    6 C    -4.53483520000E-01 -2.46410500000E-01 -2.52647100000E-01

  67  67   1    6 C     4.46287260000E-01  3.92689990000E-01  2.47767730000E-01

  68  68   1    6 C    -4.00019630000E-01 -2.99892540000E-01 -2.52232270000E-01

  69  69   1    6 C    -4.46257040000E-01 -3.92902000000E-01  2.46701020000E-01

  70  70   1    6 C    -2.92563930000E-01 -8.54845300000E-02 -2.53298970000E-01

  71  71   1    6 C     4.45959980000E-01 -4.46041770000E-01  2.47787510000E-01

  72  72   1    6 C    -4.00346910000E-01 -1.38624300000E-01 -2.52212490000E-01

  73  73   1    8 O    -4.39263320000E-01  2.80370630000E-01  2.49585170000E-01

  74  74   1    8 O    -2.85570210000E-01 -4.12211900000E-01 -2.50414830000E-01

  75  75   1    8 O    -2.80318300000E-01  2.80378330000E-01  2.53002700000E-01

  76  76   1    8 O    -1.26625190000E-01 -4.12204200000E-01 -2.46997300000E-01

  77  77   1    8 O    -2.80320580000E-01  4.39323460000E-01  2.47846790000E-01

  78  78   1    8 O    -1.26627470000E-01 -2.53259070000E-01 -2.52153210000E-01

  79  79   1    8 O     2.80324510000E-01 -2.80348890000E-01  2.49585190000E-01

  80  80   1    8 O     4.34017620000E-01  2.70685800000E-02 -2.50414810000E-01

  81  81   1    8 O     2.80343970000E-01 -4.39304390000E-01  2.53002700000E-01

  82  82   1    8 O     4.34037080000E-01 -1.31886920000E-01 -2.46997300000E-01

  83  83   1    8 O     4.39263840000E-01 -2.80364580000E-01  2.47846770000E-01

  84  84   1    8 O    -4.07043050000E-01  2.70528900000E-02 -2.52153220000E-01

 NUMBER OF SYMMETRY OPERATORS         :    1
 *******************************************************************************
 * GEOMETRY EDITING - INPUT COORDINATES ARE GIVEN IN ANGSTROM         
 *******************************************************************************

 GCALCO - MAX INDICES DIRECT LATTICE VECTOR    11    11    25
 NO.OF VECTORS CREATED 6999 STARS 3500 RMAX   238.87863 BOHR

 GEOMETRY FOR WAVE FUNCTION - DIMENSIONALITY OF THE SYSTEM    3
 (NON PERIODIC DIRECTION: LATTICE PARAMETER FORMALLY SET TO 500)
 *******************************************************************************
 LATTICE PARAMETERS (ANGSTROMS AND DEGREES) - BOHR = 0.5291772083 ANGSTROM
 PRIMITIVE CELL - CENTRING CODE 1/0 VOLUME=  1211.985598 - DENSITY  1.069 g/cm^3
         A              B              C           ALPHA      BETA       GAMMA 
    15.02361100    15.02391600     6.20000000    90.000323  89.999944 119.995964
 *******************************************************************************
 ATOMS IN THE ASYMMETRIC UNIT   84 - ATOMS IN THE UNIT CELL:   84
     ATOM                 X/A                 Y/B                 Z/C    
 *******************************************************************************
      1 T   5 B    -3.863194600000E-01  2.273182200000E-01  2.507704400000E-01
      2 T   5 B    -2.326263500000E-01 -4.652643100000E-01 -2.492295600000E-01
      3 T   5 B    -2.272638000000E-01  3.863778800000E-01  2.507704500000E-01
      4 T   5 B    -7.357069000000E-02 -3.062046500000E-01 -2.492295500000E-01
      5 T   5 B    -3.863237300000E-01  3.863606700000E-01  2.491505800000E-01
      6 T   5 B    -2.326306200000E-01 -3.062218600000E-01 -2.508494200000E-01
      7 T   5 B     2.272552500000E-01 -3.863667800000E-01  2.507704500000E-01
      8 T   5 B     3.809483600000E-01 -7.894931000000E-02 -2.492295500000E-01
      9 T   5 B     3.863632200000E-01 -3.863875500000E-01  2.507704400000E-01
     10 T   5 B    -4.599436700000E-01 -7.897008000000E-02 -2.492295600000E-01
     11 T   5 B     3.863435000000E-01 -2.272483500000E-01  2.491505800000E-01
     12 T   5 B    -4.599633900000E-01  8.016912000000E-02 -2.508494200000E-01
     13 T   1 H    -9.695638000000E-02  3.089300500000E-01  2.474121300000E-01
     14 T   1 H     5.673673000000E-02 -3.836524800000E-01 -2.525878700000E-01
     15 T   1 H     9.663453000000E-02 -3.089465600000E-01  2.468985900000E-01
     16 T   1 H     2.503276400000E-01 -1.529090000000E-03 -2.531014100000E-01
     17 T   1 H    -9.702858000000E-02 -4.059275700000E-01  2.468195500000E-01
     18 T   1 H     5.666453000000E-02 -9.851010000000E-02 -2.531804500000E-01
     19 T   1 H     9.673618000000E-02  4.056849400000E-01  2.468392700000E-01
     20 T   1 H     2.504292900000E-01 -2.868975900000E-01 -2.531607300000E-01
     21 T   1 H    -3.089676000000E-01  9.700412000000E-02  2.525878900000E-01
     22 T   1 H    -1.552744900000E-01  4.044215900000E-01 -2.474121100000E-01
     23 T   1 H     3.089297200000E-01 -9.656269000000E-02  2.531014700000E-01
     24 T   1 H     4.626228300000E-01  2.108547800000E-01 -2.468985300000E-01
     25 T   1 H     4.058699900000E-01  9.704998000000E-02  2.531805500000E-01
     26 T   1 H    -4.404369000000E-01  4.044674500000E-01 -2.468194400000E-01
     27 T   1 H    -4.056877900000E-01 -9.665268000000E-02  2.531607000000E-01
     28 T   1 H    -2.519946800000E-01  2.107647900000E-01 -2.468393000000E-01
     29 T   1 H    -3.089272600000E-01 -4.059457900000E-01  2.474121600000E-01
     30 T   1 H    -1.552341500000E-01 -9.852832000000E-02 -2.525878400000E-01
     31 T   1 H     3.089618300000E-01  4.056093300000E-01  2.468985500000E-01
     32 T   1 H     4.626549400000E-01 -2.869732000000E-01 -2.531014500000E-01
     33 T   1 H     4.058405700000E-01  3.088232500000E-01  2.468194900000E-01
     34 T   1 H    -4.404663200000E-01 -3.837592800000E-01 -2.531805100000E-01
     35 T   1 H    -4.057091200000E-01 -3.090420700000E-01  2.468393300000E-01
     36 T   1 H    -2.520160100000E-01 -1.624600000000E-03 -2.531606700000E-01
     37 T   6 C    -1.081096900000E-01  4.459436900000E-01  2.490913100000E-01
     38 T   6 C     4.558342000000E-02 -2.466388400000E-01 -2.509087000000E-01
     39 T   6 C    -5.351089000000E-02  3.927856300000E-01  2.474911700000E-01
     40 T   6 C     1.001822200000E-01 -2.997969000000E-01 -2.525088300000E-01
     41 T   6 C     5.338812000000E-02 -3.928147000000E-01  2.473529300000E-01
     42 T   6 C     2.070812300000E-01 -8.539723000000E-02 -2.526470700000E-01
     43 T   6 C    -5.354789000000E-02 -4.463078100000E-01  2.477677700000E-01
     44 T   6 C     1.001452200000E-01 -1.388903400000E-01 -2.522322300000E-01
     45 T   6 C     5.342634000000E-02  4.462499700000E-01  2.467009900000E-01
     46 T   6 C     2.071194500000E-01 -2.463325600000E-01 -2.532990100000E-01
     47 T   6 C     1.080358900000E-01 -4.459643700000E-01  2.477875100000E-01
     48 T   6 C     2.617290000000E-01 -1.385469000000E-01 -2.522124900000E-01
     49 T   6 C    -4.459605800000E-01  1.081684600000E-01  2.509087300000E-01
     50 T   6 C    -2.922674700000E-01  4.155859300000E-01 -2.490912700000E-01
     51 T   6 C    -3.928221500000E-01  5.355594000000E-02  2.525088500000E-01
     52 T   6 C    -2.391290400000E-01  3.609734100000E-01 -2.474911500000E-01
     53 T   6 C     3.927986700000E-01 -5.333684000000E-02  2.526471400000E-01
     54 T   6 C    -4.535082200000E-01  2.540806300000E-01 -2.473528600000E-01
     55 T   6 C     4.462875800000E-01  5.360286000000E-02  2.522323000000E-01
     56 T   6 C    -4.000193100000E-01  3.610203300000E-01 -2.477677000000E-01
     57 T   6 C    -4.462831500000E-01 -5.337644000000E-02  2.532990200000E-01
     58 T   6 C    -2.925900400000E-01  2.540410300000E-01 -2.467009900000E-01
     59 T   6 C     4.459279100000E-01 -1.080079400000E-01  2.522125300000E-01
     60 T   6 C    -4.003789800000E-01  1.994095300000E-01 -2.477874700000E-01
     61 T   6 C    -4.459551300000E-01  4.458745500000E-01  2.490913100000E-01
     62 T   6 C    -2.922620200000E-01 -2.467079800000E-01 -2.509087000000E-01
     63 T   6 C    -3.927897800000E-01 -4.463742200000E-01  2.474911900000E-01
     64 T   6 C    -2.390966700000E-01 -1.389567500000E-01 -2.525088000000E-01
     65 T   6 C     3.928233700000E-01  4.461720300000E-01  2.473529000000E-01
     66 T   6 C    -4.534835200000E-01 -2.464105000000E-01 -2.526471000000E-01
     67 T   6 C     4.462872600000E-01  3.926899900000E-01  2.477677300000E-01
     68 T   6 C    -4.000196300000E-01 -2.998925400000E-01 -2.522322700000E-01
     69 T   6 C    -4.462570400000E-01 -3.929020000000E-01  2.467010200000E-01
     70 T   6 C    -2.925639300000E-01 -8.548453000000E-02 -2.532989700000E-01
     71 T   6 C     4.459599800000E-01 -4.460417700000E-01  2.477875100000E-01
     72 T   6 C    -4.003469100000E-01 -1.386243000000E-01 -2.522124900000E-01
     73 T   8 O    -4.392633200000E-01  2.803706300000E-01  2.495851700000E-01
     74 T   8 O    -2.855702100000E-01 -4.122119000000E-01 -2.504148300000E-01
     75 T   8 O    -2.803183000000E-01  2.803783300000E-01  2.530027000000E-01
     76 T   8 O    -1.266251900000E-01 -4.122042000000E-01 -2.469973000000E-01
     77 T   8 O    -2.803205800000E-01  4.393234600000E-01  2.478467900000E-01
     78 T   8 O    -1.266274700000E-01 -2.532590700000E-01 -2.521532100000E-01
     79 T   8 O     2.803245100000E-01 -2.803488900000E-01  2.495851900000E-01
     80 T   8 O     4.340176200000E-01  2.706858000000E-02 -2.504148100000E-01
     81 T   8 O     2.803439700000E-01 -4.393043900000E-01  2.530027000000E-01
     82 T   8 O     4.340370800000E-01 -1.318869200000E-01 -2.469973000000E-01
     83 T   8 O     4.392638400000E-01 -2.803645800000E-01  2.478467700000E-01
     84 T   8 O    -4.070430500000E-01  2.705289000000E-02 -2.521532200000E-01

 T = ATOM BELONGING TO THE ASYMMETRIC UNIT

 ****    1 SYMMOPS - TRANSLATORS IN FRACTIONAL UNITS
 **** MATRICES AND TRANSLATORS IN THE CRYSTALLOGRAPHIC REFERENCE FRAME
   V INV                    ROTATION MATRICES                   TRANSLATORS
   1   1  1.00 -0.00  0.00  0.00  1.00  0.00  0.00  0.00  1.00  0.00  0.00  0.00

 DIRECT LATTICE VECTORS CARTESIAN COMPONENTS (ANGSTROM)
          X                    Y                    Z
   0.130113578931E+02  -0.751088897922E+01   0.000000000000E+00
   0.000000000000E+00   0.150239160000E+02   0.000000000000E+00
  -0.131792926326E-04  -0.349519635990E-04   0.619999999989E+01


 CARTESIAN COORDINATES - PRIMITIVE CELL
 *******************************************************************************
 *      ATOM          X(ANGSTROM)         Y(ANGSTROM)         Z(ANGSTROM)
 *******************************************************************************
    1     5 B    -5.026544060089E+00  6.316803652201E+00  1.554776727972E+00
    2     5 B    -3.026781410536E+00 -5.242852511685E+00 -1.545223271972E+00
    3     5 B    -2.957013942913E+00  7.511853219253E+00  1.554776789972E+00
    4     5 B    -9.572512933599E-01 -4.047802944633E+00 -1.545223209972E+00
    5     5 B    -5.026599597239E+00 -6.317639810451E+00  1.544733595972E+00
    6     5 B    -3.026836947686E+00 -2.853379974338E+00 -1.555266403972E+00
    7     5 B     2.956896085849E+00 -7.511639765524E+00  1.554776789972E+00
    8     5 B     4.956658735402E+00 -4.047379929410E+00 -1.545223209972E+00
    9     5 B     5.027106827157E+00  6.316921889362E+00  1.554776727972E+00
   10     5 B    -5.984488416347E+00  2.268154704693E+00 -1.545223271972E+00
   11     5 B     5.026850264528E+00 -6.315951966183E+00  1.544733595972E+00
   12     5 B     7.026612914081E+00 -2.851692130069E+00 -1.555266403972E+00
   13     1 H    -1.261537420912E+00  5.369559079543E+00  1.533955205972E+00
   14     1 H     7.382252286412E-01 -6.190097084343E+00 -1.566044793972E+00
   15     1 H     1.257343200709E+00 -5.367407021908E+00  1.530771257972E+00
   16     1 H     3.257105850262E+00 -1.903147185794E+00 -1.569228741972E+00
   17     1 H    -1.262476833142E+00 -5.369859448401E+00  1.530281209972E+00
   18     1 H     7.372858164111E-01 -1.905599612287E+00 -1.569718789972E+00
   19     1 H     1.258665806020E+00  5.368393125254E+00  1.530403473972E+00
   20     1 H     3.258428455573E+00 -6.191263038632E+00 -1.569596525972E+00
   21     1 H    -4.020091349888E+00  3.777994263866E+00  1.566044917972E+00
   22     1 H    -2.020328700335E+00  7.242254099980E+00 -1.533955081972E+00
   23     1 H     4.019591815023E+00 -3.771095418988E+00  1.569229113972E+00
   24     1 H     6.019354464577E+00 -3.068355828740E-01 -1.530770885972E+00
   25     1 H     5.280916361201E+00 -1.590382536721E+00  1.569719409972E+00
   26     1 H     7.280679010754E+00  1.873877299392E+00 -1.530280527972E+00
   27     1 H    -5.278552365012E+00  1.594965356955E+00  1.569596339972E+00
   28     1 H    -3.278789715459E+00  5.059225193069E+00 -1.530403659972E+00
   29     1 H    -4.019566403499E+00 -3.778585744541E+00  1.533955391972E+00
   30     1 H    -2.019803753945E+00 -3.143259084271E-01 -1.566044607972E+00
   31     1 H     4.020009691475E+00  3.773253869202E+00  1.530771009972E+00
   32     1 H    -6.991585552028E+00 -2.755133154681E-01 -1.569228989972E+00
   33     1 H     5.280533650886E+00  1.591502475489E+00  1.530280837972E+00
   34     1 H    -5.731061592618E+00 -2.457264709180E+00 -1.569719161972E+00
   35     1 H    -5.278829813965E+00 -1.595794569490E+00  1.530403845972E+00
   36     1 H    -3.279067164412E+00  1.868465266624E+00 -1.569596153972E+00
   37     6 C    -1.406657151145E+00  7.511811712227E+00  1.544366121972E+00
   38     6 C     5.931054984087E-01 -4.047844451659E+00 -1.555633939972E+00
   39     6 C    -6.962526027245E-01  6.303084014794E+00  1.534445253972E+00
   40     6 C     1.303510046829E+00 -5.256572149092E+00 -1.565554745972E+00
   41     6 C     6.946486766208E-01 -6.302615943965E+00  1.533588165972E+00
   42     6 C     2.694411326174E+00 -2.838356107851E+00 -1.566411833972E+00
   43     6 C    -6.967340266120E-01 -6.303107450693E+00  1.536160173972E+00
   44     6 C     1.303028622941E+00 -2.838847614579E+00 -1.563839825972E+00
   45     6 C     6.951459793116E-01  6.303134133293E+00  1.529546137972E+00
   46     6 C     2.694908628865E+00 -5.256522030594E+00 -1.570453861971E+00
   47     6 C     1.405690364421E+00 -7.511585470094E+00  1.536282561972E+00
   48     6 C     3.405453013974E+00 -4.047325633980E+00 -1.563717437972E+00
   49     6 C     7.208801873682E+00 -2.536223486593E+00  1.555634125972E+00
   50     6 C    -3.802793369821E+00 -6.584990671263E+00 -1.544365873972E+00
   51     6 C    -5.111152909858E+00  3.755054675408E+00  1.565554869972E+00
   52     6 C    -3.111390260305E+00  7.219314511522E+00 -1.534445129972E+00
   53     6 C     5.110840745576E+00 -3.751604235933E+00  1.566412267972E+00
   54     6 C     7.110603395129E+00 -2.873443998191E-01 -1.533587731972E+00
   55     6 C     5.806804102363E+00 -2.546700416198E+00  1.563840259972E+00
   56     6 C     7.806566751916E+00  9.175594199162E-01 -1.536159739972E+00
   57     6 C    -5.806753124593E+00  2.550051188708E+00  1.570453923971E+00
   58     6 C    -3.806990475039E+00  6.014311024822E+00 -1.529546137972E+00
   59     6 C     5.802124307530E+00 -4.972026057960E+00  1.563717685972E+00
   60     6 C     7.801886957083E+00 -1.507766221846E+00 -1.536282313972E+00
   61     6 C     7.208872809535E+00  2.537403571433E+00  1.544366121972E+00
   62     6 C    -3.802722433968E+00 -1.511363613236E+00 -1.555633939972E+00
   63     6 C    -5.110731666074E+00 -3.756097006398E+00  1.534445377972E+00
   64     6 C    -3.110969016521E+00 -2.918371702843E-01 -1.565554559972E+00
   65     6 C     5.111162195890E+00  3.752789734288E+00  1.533587979972E+00
   66     6 C    -5.900433047613E+00 -2.959774503815E-01 -1.566412019972E+00
   67     6 C     5.806799997568E+00  2.547718701133E+00  1.536159925972E+00
   68     6 C    -5.204795245935E+00 -1.501048483536E+00 -1.563840073972E+00
   69     6 C    -5.806413311081E+00 -2.551148183283E+00  1.529546323972E+00
   70     6 C    -3.806650661528E+00  9.131116528302E-01 -1.570453613971E+00
   71     6 C     5.802541640096E+00  4.973057355415E+00  1.536282561972E+00
   72     6 C    -5.209053603407E+00  9.242901707453E-01 -1.563717437972E+00
   73     8 O     7.295942337888E+00  6.251204408774E-04  1.547428053972E+00
   74     8 O    -3.715652905615E+00 -4.048142064229E+00 -1.552571945972E+00
   75     8 O    -3.647325059670E+00  6.317811265342E+00  1.568616739972E+00
   76     8 O    -1.647562410117E+00 -5.241844898544E+00 -1.531383259972E+00
   77     8 O    -3.647354657615E+00 -6.318109147893E+00  1.536650097972E+00
   78     8 O    -1.647592008061E+00 -2.853849311779E+00 -1.563349901972E+00
   79     8 O     3.647399236449E+00 -6.317433170309E+00  1.547428177972E+00
   80     8 O     5.647161886003E+00 -2.853173334195E+00 -1.552571821972E+00
   81     8 O     3.647652392434E+00  6.318202468605E+00  1.568616739972E+00
   82     8 O     5.647415041987E+00 -5.241453695281E+00 -1.531383259972E+00
   83     8 O    -7.295942127783E+00 -5.555176344062E-04  1.536649973972E+00
   84     8 O    -5.296179478230E+00  3.463704318479E+00 -1.563349963972E+00

 *******************************************************************************
 STARTING BASIS SET HANDLING 
 *******************************************************************************

 Loading internal basis set: SOLDEF2MSVP         

 Please cite in your publication:
 L. Dona', J. G. Brandenburg and B. Civalleri, J. Chem. Phys., 151, 121101 (2019
 )                                                                              
                                                                                
                    

 *******************************************************************************
 LOCAL ATOMIC FUNCTIONS BASIS SET
 *******************************************************************************
   ATOM   X(AU)   Y(AU)   Z(AU)  N. TYPE  EXPONENT  S COEF   P COEF   D/F/G COEF
 *******************************************************************************
   1 B   -9.499  11.937   2.938
                                  1 S  
                                         2.410E+03 1.755E-03 0.000E+00 0.000E+00
                                         3.619E+02 1.344E-02 0.000E+00 0.000E+00
                                         8.231E+01 6.637E-02 0.000E+00 0.000E+00
                                         2.311E+01 2.303E-01 0.000E+00 0.000E+00
                                         7.252E+00 5.150E-01 0.000E+00 0.000E+00
                                  2 S  
                                         2.367E+00 1.000E+00 0.000E+00 0.000E+00
                                  3 S  
                                         5.533E-01 1.000E+00 0.000E+00 0.000E+00
                                  4 S  
                                         1.716E-01 1.000E+00 0.000E+00 0.000E+00
                           5-     7 P  
                                         6.002E+00 0.000E+00-3.555E-02 0.000E+00
                                         1.240E+00 0.000E+00-1.983E-01 0.000E+00
                                         3.367E-01 0.000E+00-5.048E-01 0.000E+00
                           8-    10 P  
                                         1.256E-01 0.000E+00 1.000E+00 0.000E+00
                          11-    15 D  
                                         8.880E-01 0.000E+00 0.000E+00 1.000E+00
   2 B   -5.720  -9.908  -2.920
   3 B   -5.588  14.195   2.938
   4 B   -1.809  -7.649  -2.920
   5 B   -9.499 -11.939   2.919
   6 B   -5.720  -5.392  -2.939
   7 B    5.588 -14.195   2.938
   8 B    9.367  -7.648  -2.920
   9 B    9.500  11.937   2.938
  10 B  -11.309   4.286  -2.920
  11 B    9.499 -11.935   2.919
  12 B   13.278  -5.389  -2.939
  13 H   -2.384  10.147   2.899
                                181 S  
                                         1.874E+01 1.968E-02 0.000E+00 0.000E+00
                                         2.826E+00 1.380E-01 0.000E+00 0.000E+00
                                         6.401E-01 4.783E-01 0.000E+00 0.000E+00
                                182 S  
                                         1.756E-01 1.000E+00 0.000E+00 0.000E+00
  14 H    1.395 -11.698  -2.959
  15 H    2.376 -10.143   2.893
  16 H    6.155  -3.596  -2.965
  17 H   -2.386 -10.148   2.892
  18 H    1.393  -3.601  -2.966
  19 H    2.379  10.145   2.892
  20 H    6.158 -11.700  -2.966
  21 H   -7.597   7.139   2.959
  22 H   -3.818  13.686  -2.899
  23 H    7.596  -7.126   2.965
  24 H   11.375  -0.580  -2.893
  25 H    9.979  -3.005   2.966
  26 H   13.758   3.541  -2.892
  27 H   -9.975   3.014   2.966
  28 H   -6.196   9.561  -2.892
  29 H   -7.596  -7.140   2.899
  30 H   -3.817  -0.594  -2.959
  31 H    7.597   7.130   2.893
  32 H  -13.212  -0.521  -2.965
  33 H    9.979   3.008   2.892
  34 H  -10.830  -4.644  -2.966
  35 H   -9.976  -3.016   2.892
  36 H   -6.197   3.531  -2.966
  37 C   -2.658  14.195   2.918
                                229 S  
                                         3.624E+03 1.634E-03 0.000E+00 0.000E+00
                                         5.440E+02 1.252E-02 0.000E+00 0.000E+00
                                         1.237E+02 6.211E-02 0.000E+00 0.000E+00
                                         3.476E+01 2.182E-01 0.000E+00 0.000E+00
                                         1.093E+01 4.980E-01 0.000E+00 0.000E+00
                                230 S  
                                         3.574E+00 1.000E+00 0.000E+00 0.000E+00
                                231 S  
                                         7.742E-01 1.000E+00 0.000E+00 0.000E+00
                                232 S  
                                         2.330E-01 1.000E+00 0.000E+00 0.000E+00
                         233-   235 P  
                                         9.443E+00 0.000E+00 3.790E-02 0.000E+00
                                         2.002E+00 0.000E+00 2.082E-01 0.000E+00
                                         5.463E-01 0.000E+00 5.047E-01 0.000E+00
                         236-   238 P  
                                         1.820E-01 0.000E+00 1.000E+00 0.000E+00
                         239-   243 D  
                                         8.880E-01 0.000E+00 0.000E+00 1.000E+00
  38 C    1.121  -7.649  -2.940
  39 C   -1.316  11.911   2.900
  40 C    2.463  -9.933  -2.958
  41 C    1.313 -11.910   2.898
  42 C    5.092  -5.364  -2.960
  43 C   -1.317 -11.911   2.903
  44 C    2.462  -5.365  -2.955
  45 C    1.314  11.911   2.890
  46 C    5.093  -9.933  -2.968
  47 C    2.656 -14.195   2.903
  48 C    6.435  -7.648  -2.955
  49 C   13.623  -4.793   2.940
  50 C   -7.186 -12.444  -2.918
  51 C   -9.659   7.096   2.958
  52 C   -5.880  13.643  -2.900
  53 C    9.658  -7.090   2.960
  54 C   13.437  -0.543  -2.898
  55 C   10.973  -4.813   2.955
  56 C   14.752   1.734  -2.903
  57 C  -10.973   4.819   2.968
  58 C   -7.194  11.365  -2.890
  59 C   10.964  -9.396   2.955
  60 C   14.743  -2.849  -2.903
  61 C   13.623   4.795   2.918
  62 C   -7.186  -2.856  -2.940
  63 C   -9.658  -7.098   2.900
  64 C   -5.879  -0.551  -2.958
  65 C    9.659   7.092   2.898
  66 C  -11.150  -0.559  -2.960
  67 C   10.973   4.814   2.903
  68 C   -9.836  -2.837  -2.955
  69 C  -10.973  -4.821   2.890
  70 C   -7.194   1.726  -2.968
  71 C   10.965   9.398   2.903
  72 C   -9.844   1.747  -2.955
  73 O   13.787   0.001   2.924
                                769 S  
                                         6.773E+03 1.727E-03 0.000E+00 0.000E+00
                                         1.017E+03 1.325E-02 0.000E+00 0.000E+00
                                         2.313E+02 6.603E-02 0.000E+00 0.000E+00
                                         6.501E+01 2.353E-01 0.000E+00 0.000E+00
                                         2.050E+01 5.498E-01 0.000E+00 0.000E+00
                                770 S  
                                         6.716E+00 1.000E+00 0.000E+00 0.000E+00
                                771 S  
                                         1.147E+00 1.000E+00 0.000E+00 0.000E+00
                                772 S  
                                         3.342E-01 1.000E+00 0.000E+00 0.000E+00
                         773-   775 P  
                                         1.769E+01 0.000E+00 4.359E-02 0.000E+00
                                         3.854E+00 0.000E+00 2.318E-01 0.000E+00
                                         1.047E+00 0.000E+00 5.146E-01 0.000E+00
                         776-   778 P  
                                         2.759E-01 0.000E+00 1.000E+00 0.000E+00
                         779-   783 D  
                                         8.000E-01 0.000E+00 0.000E+00 1.000E+00
  74 O   -7.022  -7.650  -2.934
  75 O   -6.892  11.939   2.964
  76 O   -3.113  -9.906  -2.894
  77 O   -6.893 -11.939   2.904
  78 O   -3.113  -5.393  -2.954
  79 O    6.893 -11.938   2.924
  80 O   10.672  -5.392  -2.934
  81 O    6.893  11.940   2.964
  82 O   10.672  -9.905  -2.894
  83 O  -13.787  -0.001   2.904
  84 O  -10.008   6.545  -2.954

 *******************************************************************************
 FINISHED BASIS SET HANDLING 
 *******************************************************************************

 INFORMATION **** SET_MPP **** PCRYSTAL CALCULATION
 INFORMATION **** READM2 **** NEW DEFAULT: FOCK/KS MATRIX MIXING SET TO 30 %
 INFORMATION **** READM2 **** NEW DEFAULT: FULL DIRECT SCF MODE
 INFORMATION **** READM2 **** NEW DEFAULT: COULOMB BIPOLAR BUFFER SET TO 32 Mb
 INFORMATION **** READM2 **** NEW DEFAULT: EXCHANGE BIPOLAR BUFFER SET TO 32 Mb

 *******************************************************************************
 NEW DEFAULT: DFT INTEGRATION GRID INCREASED TO XLGRID
 NEW DEFAULT: DIIS ACCELERATOR ACTIVE
 USE KEYWORD NODIIS TO TURN IT OFF
 *******************************************************************************

 WARNING **** RDDFTP **** HSEsol-HJS ACTIVE
 RANGE SEPARATION - OMEGA:   0.110000000000000     
 WARNING **** RDDFTP **** HSEsol-3c has to be combined with sol-def2-mSVP basis set
 *******************************************************************************
 N. OF ATOMS PER CELL        84  COULOMB OVERLAP TOL         (T1) 10**   -6
 NUMBER OF SHELLS           468  COULOMB PENETRATION TOL     (T2) 10**   -6
 NUMBER OF AO               948  EXCHANGE OVERLAP TOL        (T3) 10**   -6
 N. OF ELECTRONS PER CELL   396  EXCHANGE PSEUDO OVP (F(G))  (T4) 10**   -6
 CORE ELECTRONS PER CELL    120  EXCHANGE PSEUDO OVP (P(G))  (T5) 10**  -12
 N. OF SYMMETRY OPERATORS     1  POLE ORDER IN MONO ZONE                  4
 *******************************************************************************
 TYPE OF CALCULATION :  RESTRICTED CLOSED SHELL
 KOHN-SHAM HAMILTONIAN

 (EXCHANGE)[CORRELATION] FUNCTIONAL:(HSEsol GGA)[PBEsol]

 RANGE-SEPARATED HYBRID FUNCTIONAL 
 OMEGA (SHORT-RANGE)[LONG-RANGE]:(    0.1100)[    0.0000]

 HYBRID EXCHANGE - PERCENTAGE OF FOCK EXCHANGE    25.0000

 CAPPA:IS1  2;IS2  2;IS3  8; K PTS MONK NET  20; SYMMOPS:K SPACE   2;G SPACE   1

 *******************************************************************************
 MAX NUMBER OF SCF CYCLES      50  CONVERGENCE ON DELTAP        10**-16
 WEIGHT OF F(I) IN F(I+1)      30% CONVERGENCE ON ENERGY        10**- 6
 SHRINK. FACT.(MONKH.)    2  2  8  NUMBER OF K POINTS IN THE IBZ     20
 SHRINKING FACTOR(GILAT NET)    8  NUMBER OF K POINTS(GILAT NET)   1028
 *******************************************************************************
 *** K POINTS COORDINATES (OBLIQUE COORDINATES IN UNITS OF IS =  2)
   1-R(  0  0  0)   2-R(  1  0  0)   3-R(  0  1  0)   4-R(  1  1  0)
   5-C(  0  0  1)   6-C(  1  0  1)   7-C(  0  1  1)   8-C(  1  1  1)
   9-C(  0  0  2)  10-C(  1  0  2)  11-C(  0  1  2)  12-C(  1  1  2)
  13-C(  0  0  3)  14-C(  1  0  3)  15-C(  0  1  3)  16-C(  1  1  3)
  17-R(  0  0  4)  18-R(  1  0  4)  19-R(  0  1  4)  20-R(  1  1  4)

 DIRECT LATTICE VECTORS COMPON. (A.U.)     RECIP. LATTICE VECTORS COMPON. (A.U.) 
        X            Y            Z              X            Y            Z
   24.5879030  -14.1935232    0.0000000      0.2555397    0.0000000    0.0000005
    0.0000000   28.3910867    0.0000000      0.1277517    0.2213084    0.0000015
   -0.0000249   -0.0000660   11.7163020      0.0000000    0.0000000    0.5362772

 DISK SPACE FOR EIGENVECTORS (FTN 10)    28758528 REALS

 SYMMETRY ADAPTION OF THE BLOCH FUNCTIONS DISABLED
 TTTTTTTTTTTTTTTTTTTTTTTTTTTTTT gordsh1     TELAPSE        0.05 TCPU        0.05

 MATRIX SIZE: P(G)  836632, F(G)  159801, P(G) IRR  420482, F(G) IRR  161049
 MAX G-VECTOR INDEX FOR 1- AND 2-ELECTRON INTEGRALS  57

 TTTTTTTTTTTTTTTTTTTTTTTTTTTTTT INPUT       TELAPSE        2.96 TCPU        2.96

 NEIGHBORS OF THE NON-EQUIVALENT ATOMS

 N = NUMBER OF NEIGHBORS AT DISTANCE R
    ATOM  N     R/ANG      R/AU   NEIGHBORS (ATOM LABELS AND CELL INDICES)
   1 B    1     1.3791     2.6061   73 O   -1 0 0
   1 B    1     1.3793     2.6065   75 O    0 0 0
   1 B    1     1.5503     2.9297   49 C   -1 0 0
   1 B    1     2.3895     4.5155    5 B    0 1 0
   1 B    1     2.3898     4.5160    3 B    0 0 0
   1 B    1     2.5632     4.8437   51 C    0 0 0

   2 B    1     1.3791     2.6061   74 O    0 0 0
   2 B    1     1.3793     2.6065   76 O    0 0 0
   2 B    1     1.5503     2.9297   50 C    0 0 0
   2 B    1     2.3895     4.5155    6 B    0 0 0
   2 B    1     2.3898     4.5160    4 B    0 0 0
   2 B    1     2.5632     4.8437   52 C    0-1 0

   3 B    1     1.3793     2.6065   77 O    0 1 0
   3 B    1     1.3793     2.6065   75 O    0 0 0
   3 B    1     1.5504     2.9298   37 C    0 0 0
   3 B    1     2.3895     4.5156    5 B    0 1 0
   3 B    1     2.3898     4.5160    1 B    0 0 0
   3 B    1     2.5634     4.8440   43 C    0 1 0

   4 B    1     1.3793     2.6065   78 O    0 0 0
   4 B    1     1.3793     2.6065   76 O    0 0 0
   4 B    1     1.5504     2.9298   38 C    0 0 0
   4 B    1     2.3895     4.5156    6 B    0 0 0
   4 B    1     2.3898     4.5160    2 B    0 0 0
   4 B    1     2.5634     4.8440   44 C    0 0 0

   5 B    1     1.3791     2.6061   73 O   -1-1 0
   5 B    1     1.3793     2.6064   77 O    0 0 0
   5 B    1     1.5502     2.9294   61 C   -1-1 0
   5 B    1     2.3895     4.5155    1 B    0-1 0
   5 B    1     2.3895     4.5156    3 B    0-1 0
   5 B    1     2.5629     4.8433   63 C    0 0 0

   6 B    1     1.3791     2.6061   74 O    0 0 0
   6 B    1     1.3793     2.6064   78 O    0 0 0
   6 B    1     1.5502     2.9294   62 C    0 0 0
   6 B    1     2.3895     4.5155    2 B    0 0 0
   6 B    1     2.3895     4.5156    4 B    0 0 0
   6 B    1     2.5629     4.8433   64 C    0 0 0

   7 B    1     1.3795     2.6068   79 O    0 0 0
   7 B    1     1.3795     2.6070   81 O    0-1 0
   7 B    1     1.5513     2.9316   47 C    0 0 0
   7 B    1     2.3905     4.5174   11 B    0 0 0
   7 B    1     2.3905     4.5175    9 B    0-1 0
   7 B    1     2.5648     4.8468   45 C    0-1 0

   8 B    1     1.3795     2.6068   80 O    0 0 0
   8 B    1     1.3795     2.6070   82 O    0 0 0
   8 B    1     1.5513     2.9316   48 C    0 0 0
   8 B    1     2.3905     4.5174   12 B    0 0 0
   8 B    1     2.3905     4.5175   10 B    1 0 0
   8 B    1     2.5648     4.8468   46 C    0 0 0

   9 B    1     1.3795     2.6069   81 O    0 0 0
   9 B    1     1.3797     2.6072   83 O    1 1 0
   9 B    1     1.5516     2.9322   71 C    0 0 0
   9 B    1     2.3905     4.5175    7 B    0 1 0
   9 B    1     2.3911     4.5185   11 B    0 1 0
   9 B    1     2.5651     4.8473   69 C    1 1 0

  10 B    1     1.3795     2.6069   82 O   -1 0 0
  10 B    1     1.3797     2.6072   84 O    0 0 0
  10 B    1     1.5516     2.9322   72 C    0 0 0
  10 B    1     2.3905     4.5175    8 B   -1 0 0
  10 B    1     2.3911     4.5185   12 B   -1 0 0
  10 B    1     2.5651     4.8473   70 C    0 0 0

  11 B    1     1.3795     2.6068   79 O    0 0 0
  11 B    1     1.3796     2.6071   83 O    1 0 0
  11 B    1     1.5516     2.9322   59 C    0 0 0
  11 B    1     2.3905     4.5174    7 B    0 0 0
  11 B    1     2.3911     4.5185    9 B    0-1 0
  11 B    1     2.5651     4.8473   57 C    1 0 0

  12 B    1     1.3795     2.6068   80 O    0 0 0
  12 B    1     1.3796     2.6071   84 O    1 0 0
  12 B    1     1.5516     2.9322   60 C    0 0 0
  12 B    1     2.3905     4.5174    8 B    0 0 0
  12 B    1     2.3911     4.5185   10 B    1 0 0
  12 B    1     2.5651     4.8473   58 C    1 0 0

  13 H    1     1.0913     2.0623   39 C    0 0 0
  13 H    1     2.1472     4.0576   37 C    0 0 0
  13 H    1     2.1680     4.0969   45 C    0 0 0
  13 H    1     2.5202     4.7625   19 H    0 0 0
  13 H    1     2.5676     4.8520   75 O    0 0 0
  13 H    1     2.7321     5.1630    3 B    0 0 0

  14 H    1     1.0913     2.0623   40 C    0 0 0
  14 H    1     2.1472     4.0576   38 C    0 0 0
  14 H    1     2.1680     4.0969   46 C    0 0 0
  14 H    1     2.5202     4.7625   20 H    0 0 0
  14 H    1     2.5676     4.8520   76 O    0 0 0
  14 H    1     2.7321     5.1630    4 B    0 0 0

  15 H    1     1.0914     2.0625   41 C    0 0 0
  15 H    1     2.1493     4.0616   47 C    0 0 0
  15 H    1     2.1666     4.0942   43 C    0 0 0
  15 H    1     2.5198     4.7618   17 H    0 0 0
  15 H    1     2.5720     4.8604   79 O    0 0 0
  15 H    1     2.7362     5.1707    7 B    0 0 0

  16 H    1     1.0914     2.0625   42 C    0 0 0
  16 H    1     2.1493     4.0616   48 C    0 0 0
  16 H    1     2.1666     4.0942   44 C    0 0 0
  16 H    1     2.5198     4.7618   18 H    0 0 0
  16 H    1     2.5720     4.8604   80 O    0 0 0
  16 H    1     2.7362     5.1707    8 B    0 0 0

  17 H    1     1.0914     2.0624   43 C    0 0 0
  17 H    1     2.1471     4.0575   37 C    0-1 0
  17 H    1     2.1680     4.0970   41 C    0 0 0
  17 H    1     2.5198     4.7618   15 H    0 0 0
  17 H    1     2.5665     4.8500   77 O    0 0 0
  17 H    1     2.7315     5.1618    3 B    0-1 0

  18 H    1     1.0914     2.0624   44 C    0 0 0
  18 H    1     2.1471     4.0575   38 C    0 0 0
  18 H    1     2.1680     4.0970   42 C    0 0 0
  18 H    1     2.5198     4.7618   16 H    0 0 0
  18 H    1     2.5665     4.8500   78 O    0 0 0
  18 H    1     2.7315     5.1618    4 B    0 0 0

  19 H    1     1.0915     2.0626   45 C    0 0 0
  19 H    1     2.1490     4.0610   47 C    0 1 0
  19 H    1     2.1669     4.0948   39 C    0 0 0
  19 H    1     2.5202     4.7625   13 H    0 0 0
  19 H    1     2.5712     4.8588   81 O    0 0 0
  19 H    1     2.7351     5.1686    7 B    0 1 0

  20 H    1     1.0915     2.0626   46 C    0 0 0
  20 H    1     2.1490     4.0610   48 C    0 0 0
  20 H    1     2.1669     4.0948   40 C    0 0 0
  20 H    1     2.5202     4.7625   14 H    0 0 0
  20 H    1     2.5712     4.8588   82 O    0 0 0
  20 H    1     2.7351     5.1686    8 B    0 0 0

  21 H    1     1.0913     2.0623   51 C    0 0 0
  21 H    1     2.1469     4.0571   49 C   -1 0 0
  21 H    1     2.1680     4.0968   57 C    0 0 0
  21 H    1     2.5198     4.7617   27 H    0 0 0
  21 H    1     2.5670     4.8510   75 O    0 0 0
  21 H    1     2.7310     5.1609    1 B    0 0 0

  22 H    1     1.0913     2.0623   52 C    0 0 0
  22 H    1     2.1469     4.0571   50 C    0 1 0
  22 H    1     2.1680     4.0968   58 C    0 0 0
  22 H    1     2.5198     4.7617   28 H    0 0 0
  22 H    1     2.5670     4.8510   76 O    0 1 0
  22 H    1     2.7310     5.1609    2 B    0 1 0

  23 H    1     1.0914     2.0625   53 C    0 0 0
  23 H    1     2.1493     4.0617   59 C    0 0 0
  23 H    1     2.1664     4.0939   55 C    0 0 0
  23 H    1     2.5192     4.7606   25 H    0 0 0
  23 H    1     2.5735     4.8632   79 O    0 0 0
  23 H    1     2.7371     5.1723   11 B    0 0 0

  24 H    1     1.0914     2.0625   54 C    0 0 0
  24 H    1     2.1493     4.0617   60 C    0 0 0
  24 H    1     2.1664     4.0939   56 C    0 0 0
  24 H    1     2.5192     4.7606   26 H    0 0 0
  24 H    1     2.5735     4.8632   80 O    0 0 0
  24 H    1     2.7371     5.1723   12 B    0 0 0

  25 H    1     1.0914     2.0624   55 C    0 0 0
  25 H    1     2.1475     4.0581   49 C    0 0 0
  25 H    1     2.1679     4.0967   53 C    0 0 0
  25 H    1     2.5192     4.7606   23 H    0 0 0
  25 H    1     2.5675     4.8519   73 O    0 0 0
  25 H    1     2.7328     5.1643    1 B    1 0 0

  26 H    1     1.0914     2.0624   56 C    0 0 0
  26 H    1     2.1475     4.0581   50 C    1 1 0
  26 H    1     2.1679     4.0967   54 C    0 0 0
  26 H    1     2.5192     4.7606   24 H    0 0 0
  26 H    1     2.5675     4.8519   74 O    1 1 0
  26 H    1     2.7328     5.1643    2 B    1 1 0

  27 H    1     1.0914     2.0625   57 C    0 0 0
  27 H    1     2.1491     4.0612   59 C   -1 0 0
  27 H    1     2.1666     4.0942   51 C    0 0 0
  27 H    1     2.5198     4.7617   21 H    0 0 0
  27 H    1     2.5723     4.8609   83 O    0 0 0
  27 H    1     2.7355     5.1693   11 B   -1 0 0

  28 H    1     1.0914     2.0625   58 C    0 0 0
  28 H    1     2.1491     4.0612   60 C   -1 0 0
  28 H    1     2.1666     4.0942   52 C    0 0 0
  28 H    1     2.5198     4.7617   22 H    0 0 0
  28 H    1     2.5723     4.8609   84 O    0 0 0
  28 H    1     2.7355     5.1693   12 B   -1 0 0

  29 H    1     1.0914     2.0624   63 C    0 0 0
  29 H    1     2.1475     4.0582   61 C   -1-1 0
  29 H    1     2.1678     4.0966   69 C    0 0 0
  29 H    1     2.5200     4.7621   35 H    0 0 0
  29 H    1     2.5667     4.8503   77 O    0 0 0
  29 H    1     2.7315     5.1618    5 B    0 0 0

  30 H    1     1.0914     2.0624   64 C    0 0 0
  30 H    1     2.1475     4.0582   62 C    0 0 0
  30 H    1     2.1678     4.0966   70 C    0 0 0
  30 H    1     2.5200     4.7621   36 H    0 0 0
  30 H    1     2.5667     4.8503   78 O    0 0 0
  30 H    1     2.7315     5.1618    6 B    0 0 0

  31 H    1     1.0913     2.0623   65 C    0 0 0
  31 H    1     2.1487     4.0605   71 C    0 0 0
  31 H    1     2.1667     4.0945   67 C    0 0 0
  31 H    1     2.5197     4.7616   33 H    0 0 0
  31 H    1     2.5723     4.8610   81 O    0 0 0
  31 H    1     2.7359     5.1701    9 B    0 0 0

  32 H    1     1.0913     2.0623   66 C    0 0 0
  32 H    1     2.1487     4.0605   72 C    0 0 0
  32 H    1     2.1667     4.0945   68 C    0 0 0
  32 H    1     2.5197     4.7616   34 H    0 0 0
  32 H    1     2.5723     4.8610   82 O   -1 0 0
  32 H    1     2.7359     5.1701   10 B    0 0 0

  33 H    1     1.0915     2.0626   67 C    0 0 0
  33 H    1     2.1479     4.0589   61 C    0 0 0
  33 H    1     2.1679     4.0968   65 C    0 0 0
  33 H    1     2.5197     4.7616   31 H    0 0 0
  33 H    1     2.5677     4.8522   73 O    0 0 0
  33 H    1     2.7331     5.1648    5 B    1 1 0

  34 H    1     1.0915     2.0626   68 C    0 0 0
  34 H    1     2.1479     4.0589   62 C    0 0 0
  34 H    1     2.1679     4.0968   66 C    0 0 0
  34 H    1     2.5197     4.7616   32 H    0 0 0
  34 H    1     2.5677     4.8522   74 O    0 0 0
  34 H    1     2.7331     5.1648    6 B    0 0 0

  35 H    1     1.0914     2.0624   69 C    0 0 0
  35 H    1     2.1486     4.0602   71 C   -1-1 0
  35 H    1     2.1668     4.0947   63 C    0 0 0
  35 H    1     2.5200     4.7621   29 H    0 0 0
  35 H    1     2.5717     4.8598   83 O    0 0 0
  35 H    1     2.7349     5.1682    9 B   -1-1 0

  36 H    1     1.0914     2.0624   70 C    0 0 0
  36 H    1     2.1486     4.0602   72 C    0 0 0
  36 H    1     2.1668     4.0947   64 C    0 0 0
  36 H    1     2.5200     4.7621   30 H    0 0 0
  36 H    1     2.5717     4.8598   84 O    0 0 0
  36 H    1     2.7349     5.1682   10 B    0 0 0

  37 C    1     1.4020     2.6495   43 C    0 1 0
  37 C    1     1.4021     2.6495   39 C    0 0 0
  37 C    1     1.5504     2.9298    3 B    0 0 0
  37 C    1     2.1471     4.0575   17 H    0 1 0
  37 C    1     2.1472     4.0576   13 H    0 0 0
  37 C    1     2.4246     4.5817   41 C    0 1 0

  38 C    1     1.4020     2.6495   44 C    0 0 0
  38 C    1     1.4021     2.6495   40 C    0 0 0
  38 C    1     1.5504     2.9298    4 B    0 0 0
  38 C    1     2.1471     4.0575   18 H    0 0 0
  38 C    1     2.1472     4.0576   14 H    0 0 0
  38 C    1     2.4246     4.5817   42 C    0 0 0

  39 C    1     1.0913     2.0623   13 H    0 0 0
  39 C    1     1.3914     2.6294   45 C    0 0 0
  39 C    1     1.4021     2.6495   37 C    0 0 0
  39 C    1     2.1669     4.0948   19 H    0 0 0
  39 C    1     2.4177     4.5688   43 C    0 1 0
  39 C    1     2.4250     4.5825   47 C    0 1 0

  40 C    1     1.0913     2.0623   14 H    0 0 0
  40 C    1     1.3914     2.6294   46 C    0 0 0
  40 C    1     1.4021     2.6495   38 C    0 0 0
  40 C    1     2.1669     4.0948   20 H    0 0 0
  40 C    1     2.4177     4.5688   44 C    0 0 0
  40 C    1     2.4250     4.5825   48 C    0 0 0

  41 C    1     1.0914     2.0625   15 H    0 0 0
  41 C    1     1.3914     2.6293   43 C    0 0 0
  41 C    1     1.4026     2.6505   47 C    0 0 0
  41 C    1     2.1680     4.0970   17 H    0 0 0
  41 C    1     2.4182     4.5697   45 C    0-1 0
  41 C    1     2.4246     4.5817   37 C    0-1 0

  42 C    1     1.0914     2.0625   16 H    0 0 0
  42 C    1     1.3914     2.6293   44 C    0 0 0
  42 C    1     1.4026     2.6505   48 C    0 0 0
  42 C    1     2.1680     4.0970   18 H    0 0 0
  42 C    1     2.4182     4.5697   46 C    0 0 0
  42 C    1     2.4246     4.5817   38 C    0 0 0

  43 C    1     1.0914     2.0624   17 H    0 0 0
  43 C    1     1.3914     2.6293   41 C    0 0 0
  43 C    1     1.4020     2.6495   37 C    0-1 0
  43 C    1     2.1666     4.0942   15 H    0 0 0
  43 C    1     2.4177     4.5688   39 C    0-1 0
  43 C    1     2.4250     4.5826   47 C    0 0 0

  44 C    1     1.0914     2.0624   18 H    0 0 0
  44 C    1     1.3914     2.6293   42 C    0 0 0
  44 C    1     1.4020     2.6495   38 C    0 0 0
  44 C    1     2.1666     4.0942   16 H    0 0 0
  44 C    1     2.4177     4.5688   40 C    0 0 0
  44 C    1     2.4250     4.5826   48 C    0 0 0

  45 C    1     1.0915     2.0626   19 H    0 0 0
  45 C    1     1.3914     2.6294   39 C    0 0 0
  45 C    1     1.4025     2.6504   47 C    0 1 0
  45 C    1     2.1680     4.0969   13 H    0 0 0
  45 C    1     2.4182     4.5697   41 C    0 1 0
  45 C    1     2.4246     4.5818   37 C    0 0 0

  46 C    1     1.0915     2.0626   20 H    0 0 0
  46 C    1     1.3914     2.6294   40 C    0 0 0
  46 C    1     1.4025     2.6504   48 C    0 0 0
  46 C    1     2.1680     4.0969   14 H    0 0 0
  46 C    1     2.4182     4.5697   42 C    0 0 0
  46 C    1     2.4246     4.5818   38 C    0 0 0

  47 C    1     1.4025     2.6504   45 C    0-1 0
  47 C    1     1.4026     2.6505   41 C    0 0 0
  47 C    1     1.5513     2.9316    7 B    0 0 0
  47 C    1     2.1490     4.0610   19 H    0-1 0
  47 C    1     2.1493     4.0616   15 H    0 0 0
  47 C    1     2.4250     4.5825   39 C    0-1 0

  48 C    1     1.4025     2.6504   46 C    0 0 0
  48 C    1     1.4026     2.6505   42 C    0 0 0
  48 C    1     1.5513     2.9316    8 B    0 0 0
  48 C    1     2.1490     4.0610   20 H    0 0 0
  48 C    1     2.1493     4.0616   16 H    0 0 0
  48 C    1     2.4250     4.5825   40 C    0 0 0

  49 C    1     1.4020     2.6494   51 C    1 0 0
  49 C    1     1.4021     2.6495   55 C    0 0 0
  49 C    1     1.5503     2.9297    1 B    1 0 0
  49 C    1     2.1469     4.0571   21 H    1 0 0
  49 C    1     2.1475     4.0581   25 H    0 0 0
  49 C    1     2.4246     4.5818   53 C    0 0 0

  50 C    1     1.4020     2.6494   52 C    0-1 0
  50 C    1     1.4021     2.6495   56 C   -1-1 0
  50 C    1     1.5503     2.9297    2 B    0 0 0
  50 C    1     2.1469     4.0571   22 H    0-1 0
  50 C    1     2.1475     4.0581   26 H   -1-1 0
  50 C    1     2.4246     4.5818   54 C   -1-1 0

  51 C    1     1.0913     2.0623   21 H    0 0 0
  51 C    1     1.3914     2.6293   57 C    0 0 0
  51 C    1     1.4020     2.6494   49 C   -1 0 0
  51 C    1     2.1666     4.0942   27 H    0 0 0
  51 C    1     2.4175     4.5684   55 C   -1 0 0
  51 C    1     2.4251     4.5828   59 C   -1 0 0

  52 C    1     1.0913     2.0623   22 H    0 0 0
  52 C    1     1.3914     2.6293   58 C    0 0 0
  52 C    1     1.4020     2.6494   50 C    0 1 0
  52 C    1     2.1666     4.0942   28 H    0 0 0
  52 C    1     2.4175     4.5684   56 C   -1 0 0
  52 C    1     2.4251     4.5828   60 C   -1 0 0

  53 C    1     1.0914     2.0625   23 H    0 0 0
  53 C    1     1.3915     2.6295   55 C    0 0 0
  53 C    1     1.4026     2.6505   59 C    0 0 0
  53 C    1     2.1679     4.0967   25 H    0 0 0
  53 C    1     2.4179     4.5691   57 C    1 0 0
  53 C    1     2.4246     4.5818   49 C    0 0 0

  54 C    1     1.0914     2.0625   24 H    0 0 0
  54 C    1     1.3915     2.6295   56 C    0 0 0
  54 C    1     1.4026     2.6505   60 C    0 0 0
  54 C    1     2.1679     4.0967   26 H    0 0 0
  54 C    1     2.4179     4.5691   58 C    1 0 0
  54 C    1     2.4246     4.5818   50 C    1 1 0

  55 C    1     1.0914     2.0624   25 H    0 0 0
  55 C    1     1.3915     2.6295   53 C    0 0 0
  55 C    1     1.4021     2.6495   49 C    0 0 0
  55 C    1     2.1664     4.0939   23 H    0 0 0
  55 C    1     2.4175     4.5684   51 C    1 0 0
  55 C    1     2.4253     4.5832   59 C    0 0 0

  56 C    1     1.0914     2.0624   26 H    0 0 0
  56 C    1     1.3915     2.6295   54 C    0 0 0
  56 C    1     1.4021     2.6495   50 C    1 1 0
  56 C    1     2.1664     4.0939   24 H    0 0 0
  56 C    1     2.4175     4.5684   52 C    1 0 0
  56 C    1     2.4253     4.5832   60 C    0 0 0

  57 C    1     1.0914     2.0625   27 H    0 0 0
  57 C    1     1.3914     2.6293   51 C    0 0 0
  57 C    1     1.4025     2.6504   59 C   -1 0 0
  57 C    1     2.1680     4.0968   21 H    0 0 0
  57 C    1     2.4179     4.5691   53 C   -1 0 0
  57 C    1     2.4247     4.5819   49 C   -1 0 0

  58 C    1     1.0914     2.0625   28 H    0 0 0
  58 C    1     1.3914     2.6293   52 C    0 0 0
  58 C    1     1.4025     2.6504   60 C   -1 0 0
  58 C    1     2.1680     4.0968   22 H    0 0 0
  58 C    1     2.4179     4.5691   54 C   -1 0 0
  58 C    1     2.4247     4.5819   50 C    0 1 0

  59 C    1     1.4025     2.6504   57 C    1 0 0
  59 C    1     1.4026     2.6505   53 C    0 0 0
  59 C    1     1.5516     2.9322   11 B    0 0 0
  59 C    1     2.1491     4.0612   27 H    1 0 0
  59 C    1     2.1493     4.0617   23 H    0 0 0
  59 C    1     2.4251     4.5828   51 C    1 0 0

  60 C    1     1.4025     2.6504   58 C    1 0 0
  60 C    1     1.4026     2.6505   54 C    0 0 0
  60 C    1     1.5516     2.9322   12 B    0 0 0
  60 C    1     2.1491     4.0612   28 H    1 0 0
  60 C    1     2.1493     4.0617   24 H    0 0 0
  60 C    1     2.4251     4.5828   52 C    1 0 0

  61 C    1     1.4021     2.6496   63 C    1 1 0
  61 C    1     1.4021     2.6497   67 C    0 0 0
  61 C    1     1.5502     2.9294    5 B    1 1 0
  61 C    1     2.1475     4.0582   29 H    1 1 0
  61 C    1     2.1479     4.0589   33 H    0 0 0
  61 C    1     2.4244     4.5814   65 C    0 0 0

  62 C    1     1.4021     2.6496   64 C    0 0 0
  62 C    1     1.4021     2.6497   68 C    0 0 0
  62 C    1     1.5502     2.9294    6 B    0 0 0
  62 C    1     2.1475     4.0582   30 H    0 0 0
  62 C    1     2.1479     4.0589   34 H    0 0 0
  62 C    1     2.4244     4.5814   66 C    0 0 0

  63 C    1     1.0914     2.0624   29 H    0 0 0
  63 C    1     1.3914     2.6293   69 C    0 0 0
  63 C    1     1.4021     2.6496   61 C   -1-1 0
  63 C    1     2.1668     4.0947   35 H    0 0 0
  63 C    1     2.4179     4.5692   67 C   -1-1 0
  63 C    1     2.4251     4.5827   71 C   -1-1 0

  64 C    1     1.0914     2.0624   30 H    0 0 0
  64 C    1     1.3914     2.6293   70 C    0 0 0
  64 C    1     1.4021     2.6496   62 C    0 0 0
  64 C    1     2.1668     4.0947   36 H    0 0 0
  64 C    1     2.4179     4.5692   68 C    0 0 0
  64 C    1     2.4251     4.5827   72 C    0 0 0

  65 C    1     1.0913     2.0623   31 H    0 0 0
  65 C    1     1.3914     2.6294   67 C    0 0 0
  65 C    1     1.4025     2.6504   71 C    0 0 0
  65 C    1     2.1679     4.0968   33 H    0 0 0
  65 C    1     2.4178     4.5690   69 C    1 1 0
  65 C    1     2.4244     4.5814   61 C    0 0 0

  66 C    1     1.0913     2.0623   32 H    0 0 0
  66 C    1     1.3914     2.6294   68 C    0 0 0
  66 C    1     1.4025     2.6504   72 C    0 0 0
  66 C    1     2.1679     4.0968   34 H    0 0 0
  66 C    1     2.4178     4.5690   70 C    0 0 0
  66 C    1     2.4244     4.5814   62 C    0 0 0

  67 C    1     1.0915     2.0626   33 H    0 0 0
  67 C    1     1.3914     2.6294   65 C    0 0 0
  67 C    1     1.4021     2.6497   61 C    0 0 0
  67 C    1     2.1667     4.0945   31 H    0 0 0
  67 C    1     2.4179     4.5692   63 C    1 1 0
  67 C    1     2.4253     4.5832   71 C    0 0 0

  68 C    1     1.0915     2.0626   34 H    0 0 0
  68 C    1     1.3914     2.6294   66 C    0 0 0
  68 C    1     1.4021     2.6497   62 C    0 0 0
  68 C    1     2.1667     4.0945   32 H    0 0 0
  68 C    1     2.4179     4.5692   64 C    0 0 0
  68 C    1     2.4253     4.5832   72 C    0 0 0

  69 C    1     1.0914     2.0624   35 H    0 0 0
  69 C    1     1.3914     2.6293   63 C    0 0 0
  69 C    1     1.4025     2.6503   71 C   -1-1 0
  69 C    1     2.1678     4.0966   29 H    0 0 0
  69 C    1     2.4178     4.5690   65 C   -1-1 0
  69 C    1     2.4245     4.5817   61 C   -1-1 0

  70 C    1     1.0914     2.0624   36 H    0 0 0
  70 C    1     1.3914     2.6293   64 C    0 0 0
  70 C    1     1.4025     2.6503   72 C    0 0 0
  70 C    1     2.1678     4.0966   30 H    0 0 0
  70 C    1     2.4178     4.5690   66 C    0 0 0
  70 C    1     2.4245     4.5817   62 C    0 0 0

  71 C    1     1.4025     2.6503   69 C    1 1 0
  71 C    1     1.4025     2.6504   65 C    0 0 0
  71 C    1     1.5516     2.9322    9 B    0 0 0
  71 C    1     2.1486     4.0602   35 H    1 1 0
  71 C    1     2.1487     4.0605   31 H    0 0 0
  71 C    1     2.4251     4.5827   63 C    1 1 0

  72 C    1     1.4025     2.6503   70 C    0 0 0
  72 C    1     1.4025     2.6504   66 C    0 0 0
  72 C    1     1.5516     2.9322   10 B    0 0 0
  72 C    1     2.1486     4.0602   36 H    0 0 0
  72 C    1     2.1487     4.0605   32 H    0 0 0
  72 C    1     2.4251     4.5827   64 C    0 0 0

  73 O    1     1.3791     2.6061    1 B    1 0 0
  73 O    1     1.3791     2.6061    5 B    1 1 0
  73 O    1     2.3880     4.5126   75 O    1 0 0
  73 O    1     2.3882     4.5130   77 O    1 1 0
  73 O    1     2.5383     4.7966   61 C    0 0 0
  73 O    1     2.5384     4.7968   49 C    0 0 0

  74 O    1     1.3791     2.6061    2 B    0 0 0
  74 O    1     1.3791     2.6061    6 B    0 0 0
  74 O    1     2.3880     4.5126   76 O    0 0 0
  74 O    1     2.3882     4.5130   78 O    0 0 0
  74 O    1     2.5383     4.7966   62 C    0 0 0
  74 O    1     2.5384     4.7968   50 C    0 0 0

  75 O    1     1.3793     2.6065    1 B    0 0 0
  75 O    1     1.3793     2.6065    3 B    0 0 0
  75 O    1     2.3880     4.5126   73 O   -1 0 0
  75 O    1     2.3882     4.5131   77 O    0 1 0
  75 O    1     2.5391     4.7981   37 C    0 0 0
  75 O    1     2.5395     4.7990   49 C   -1 0 0

  76 O    1     1.3793     2.6065    2 B    0 0 0
  76 O    1     1.3793     2.6065    4 B    0 0 0
  76 O    1     2.3880     4.5126   74 O    0 0 0
  76 O    1     2.3882     4.5131   78 O    0 0 0
  76 O    1     2.5391     4.7981   38 C    0 0 0
  76 O    1     2.5395     4.7990   50 C    0 0 0

  77 O    1     1.3793     2.6064    5 B    0 0 0
  77 O    1     1.3793     2.6065    3 B    0-1 0
  77 O    1     2.3882     4.5130   73 O   -1-1 0
  77 O    1     2.3882     4.5131   75 O    0-1 0
  77 O    1     2.5390     4.7980   37 C    0-1 0
  77 O    1     2.5391     4.7982   61 C   -1-1 0

  78 O    1     1.3793     2.6064    6 B    0 0 0
  78 O    1     1.3793     2.6065    4 B    0 0 0
  78 O    1     2.3882     4.5130   74 O    0 0 0
  78 O    1     2.3882     4.5131   76 O    0 0 0
  78 O    1     2.5390     4.7980   38 C    0 0 0
  78 O    1     2.5391     4.7982   62 C    0 0 0

  79 O    1     1.3795     2.6068   11 B    0 0 0
  79 O    1     1.3795     2.6068    7 B    0 0 0
  79 O    1     2.3880     4.5126   83 O    1 0 0
  79 O    1     2.3884     4.5134   81 O    0-1 0
  79 O    1     2.5400     4.7998   47 C    0 0 0
  79 O    1     2.5403     4.8005   59 C    0 0 0

  80 O    1     1.3795     2.6068   12 B    0 0 0
  80 O    1     1.3795     2.6068    8 B    0 0 0
  80 O    1     2.3880     4.5126   84 O    1 0 0
  80 O    1     2.3884     4.5134   82 O    0 0 0
  80 O    1     2.5400     4.7998   48 C    0 0 0
  80 O    1     2.5403     4.8005   60 C    0 0 0

  81 O    1     1.3795     2.6069    9 B    0 0 0
  81 O    1     1.3795     2.6070    7 B    0 1 0
  81 O    1     2.3881     4.5128   83 O    1 1 0
  81 O    1     2.3884     4.5134   79 O    0 1 0
  81 O    1     2.5404     4.8006   47 C    0 1 0
  81 O    1     2.5405     4.8008   71 C    0 0 0

  82 O    1     1.3795     2.6069   10 B    1 0 0
  82 O    1     1.3795     2.6070    8 B    0 0 0
  82 O    1     2.3881     4.5128   84 O    1 0 0
  82 O    1     2.3884     4.5134   80 O    0 0 0
  82 O    1     2.5404     4.8006   48 C    0 0 0
  82 O    1     2.5405     4.8008   72 C    1 0 0

  83 O    1     1.3796     2.6071   11 B   -1 0 0
  83 O    1     1.3797     2.6072    9 B   -1-1 0
  83 O    1     2.3880     4.5126   79 O   -1 0 0
  83 O    1     2.3881     4.5128   81 O   -1-1 0
  83 O    1     2.5409     4.8016   71 C   -1-1 0
  83 O    1     2.5410     4.8019   59 C   -1 0 0

  84 O    1     1.3796     2.6071   12 B   -1 0 0
  84 O    1     1.3797     2.6072   10 B    0 0 0
  84 O    1     2.3880     4.5126   80 O   -1 0 0
  84 O    1     2.3881     4.5128   82 O   -1 0 0
  84 O    1     2.5409     4.8016   72 C    0 0 0
  84 O    1     2.5410     4.8019   60 C   -1 0 0


 SYMMETRY ALLOWED INTERNAL DEGREE(S) OF FREEDOM: 249
 TTTTTTTTTTTTTTTTTTTTTTTTTTTTTT SYMM        TELAPSE        2.97 TCPU        2.96
 TTTTTTTTTTTTTTTTTTTTTTTTTTTTTT INT_SCREEN  TELAPSE        3.19 TCPU        3.18

 DFT PARAMETERS

     ATOM       ELECTRONS   NET CHARGE   R(ANGSTROM)
   1   5  B       5.0000      0.0000     0.89000000
  13   1  H       1.0000      0.0000     1.11000000
  37   6  C       6.0000      0.0000     0.77000000
  73   8  O       8.0000      0.0000     0.74000000

 SIZE OF GRID=    2464694
 TTTTTTTTTTTTTTTTTTTTTTTTTTTTTT MAKE_GRID2  TELAPSE       28.84 TCPU       28.81
 BECKE WEIGHT FUNCTION
 RADSAFE =     2.00
 TOLERANCES - DENSITY:10**- 6; POTENTIAL:10**- 9; GRID WGT:10**-14

 RADIAL INTEGRATION  - INTERVALS (POINTS,UPPER LIMIT):            1( 75,  4.0*R)

 ANGULAR INTEGRATION - INTERVALS (ACCURACY LEVEL [N. POINTS] UPPER LIMIT):
  1(  4[  86]   0.2)  2(  8[ 194]   0.5)  3( 12[ 350]   0.9)  4( 16[ 974]   3.5)
  5( 12[ 350]9999.0)
 TTTTTTTTTTTTTTTTTTTTTTTTTTTTTT INT_CALC    TELAPSE       29.16 TCPU       29.13
 EEEEEEEEEE INT_CALC TERMINATION  DATE 19 02 2026 TIME 19:40:37.2

 *******************************************************************************
 cof-1_z31_L040_serr                                                             
 CRYSTAL - SCF - TYPE OF CALCULATION :  RESTRICTED CLOSED SHELL
 *******************************************************************************

 CAPPA:IS1  2;IS2  2;IS3  8; K PTS MONK NET  20; SYMMOPS:K SPACE   2;G SPACE   1

 TTTTTTTTTTTTTTTTTTTTTTTTTTTTTT SDIK        TELAPSE       31.15 TCPU       57.90

 AAAAAAAAAAAAAAAAAAAAAAAAAAAAAAAAAAAAAAAAAAAAAAAAAAAAAAAAAAAAAAAAAAAAAAAAAAAAAAA
         ATOMIC WAVEFUNCTION(S)


 NUCLEAR CHARGE  5.0  SYMMETRY SPECIES            S    P
 N. ELECTRONS    5.0  NUMBER OF PRIMITIVE GTOS    8    4
                      NUMBER OF CONTRACTED GTOS   4    2
                      NUMBER OF CLOSED SHELLS     2    0
                      OPEN SHELL OCCUPATION       0    1

  ZNUC  SCFIT    TOTAL HF ENERGY   KINETIC ENERGY   VIRIAL THEOREM ACCURACY
   5.0    11    -2.451164084E+01  2.462155050E+01 -1.995536038E+00  1.5E-06

 NUCLEAR CHARGE  1.0  SYMMETRY SPECIES            S
 N. ELECTRONS    1.0  NUMBER OF PRIMITIVE GTOS    4
                      NUMBER OF CONTRACTED GTOS   2
                      NUMBER OF CLOSED SHELLS     0
                      OPEN SHELL OCCUPATION       1

  ZNUC  SCFIT    TOTAL HF ENERGY   KINETIC ENERGY   VIRIAL THEOREM ACCURACY
   1.0     1    -4.977266687E-01  5.190767460E-01 -1.958869132E+00  0.0E+00

 NUCLEAR CHARGE  6.0  SYMMETRY SPECIES            S    P
 N. ELECTRONS    6.0  NUMBER OF PRIMITIVE GTOS    8    4
                      NUMBER OF CONTRACTED GTOS   4    2
                      NUMBER OF CLOSED SHELLS     2    0
                      OPEN SHELL OCCUPATION       0    2

  ZNUC  SCFIT    TOTAL HF ENERGY   KINETIC ENERGY   VIRIAL THEOREM ACCURACY
   6.0     9    -3.766704647E+01  3.775180683E+01 -1.997754800E+00  1.1E-06

 NUCLEAR CHARGE  8.0  SYMMETRY SPECIES            S    P
 N. ELECTRONS    8.0  NUMBER OF PRIMITIVE GTOS    8    4
                      NUMBER OF CONTRACTED GTOS   4    2
                      NUMBER OF CLOSED SHELLS     2    0
                      OPEN SHELL OCCUPATION       0    4

  ZNUC  SCFIT    TOTAL HF ENERGY   KINETIC ENERGY   VIRIAL THEOREM ACCURACY
   8.0    12    -7.477373220E+01  7.477365593E+01 -2.000001020E+00  3.8E-06

 AAAAAAAAAAAAAAAAAAAAAAAAAAAAAAAAAAAAAAAAAAAAAAAAAAAAAAAAAAAAAAAAAAAAAAAAAAAAAAA

 CHARGE NORMALIZATION FACTOR   1.00000000
 TOTAL ATOMIC CHARGES:
   5.0000000   5.0000000   5.0000000   5.0000000   5.0000000   5.0000000
   5.0000000   5.0000000   5.0000000   5.0000000   5.0000000   5.0000000
   1.0000000   1.0000000   1.0000000   1.0000000   1.0000000   1.0000000
   1.0000000   1.0000000   1.0000000   1.0000000   1.0000000   1.0000000
   1.0000000   1.0000000   1.0000000   1.0000000   1.0000000   1.0000000
   1.0000000   1.0000000   1.0000000   1.0000000   1.0000000   1.0000000
   6.0000000   6.0000000   6.0000000   6.0000000   6.0000000   6.0000000
   6.0000000   6.0000000   6.0000000   6.0000000   6.0000000   6.0000000
   6.0000000   6.0000000   6.0000000   6.0000000   6.0000000   6.0000000
   6.0000000   6.0000000   6.0000000   6.0000000   6.0000000   6.0000000
   6.0000000   6.0000000   6.0000000   6.0000000   6.0000000   6.0000000
   6.0000000   6.0000000   6.0000000   6.0000000   6.0000000   6.0000000
   8.0000000   8.0000000   8.0000000   8.0000000   8.0000000   8.0000000
   8.0000000   8.0000000   8.0000000   8.0000000   8.0000000   8.0000000
 TTTTTTTTTTTTTTTTTTTTTTTTTTTTTT MOQGAD      TELAPSE       31.26 TCPU       61.14
 TTTTTTTTTTTTTTTTTTTTTTTTTTTTTT SHELLXN     TELAPSE       58.04 TCPU      916.76
 TTTTTTTTTTTTTTTTTTTTTTTTTTTTTT MONMO3      TELAPSE       58.73 TCPU      938.67
 NUMERICALLY INTEGRATED DENSITY    396.0001118175
 TTTTTTTTTTTTTTTTTTTTTTTTTTTTTT NUMDFT      TELAPSE       60.37 TCPU      991.31
 CYC   0 ETOT(AU) -2.592051805353E+03 DETOT -2.59E+03 tst  0.00E+00 PX  1.00E+00
 TTTTTTTTTTTTTTTTTTTTTTTTTTTTTT DIIS        TELAPSE       60.49 TCPU      994.91
 TTTTTTTTTTTTTTTTTTTTTTTTTTTTTT FDIK        TELAPSE       62.31 TCPU     1053.16
 INSULATING STATE
 TOP OF VALENCE BANDS -    BAND    198; K    3; EIG -3.0499641E-01 AU
 TOP OF VALENCE BANDS -    BAND    198; K    1; EIG -3.0549539E-01 AU
 BOTTOM OF VIRTUAL BANDS - BAND    199; K    1; EIG -1.6896867E-01 AU
 INDIRECT ENERGY BAND GAP:   3.7015 eV
 TTTTTTTTTTTTTTTTTTTTTTTTTTTTTT PDIG        TELAPSE       63.95 TCPU     1060.18
 CHARGE NORMALIZATION FACTOR   1.00000000
 TOTAL ATOMIC CHARGES:
   4.1462544   4.1279033   4.1436117   4.1602030   4.1438468   4.1604596
   4.1600839   4.1435066   4.1598545   4.1433464   4.1275788   4.1459656
   0.7861889   0.7857843   0.7858900   0.7863004   0.7824032   0.7854640
   0.7855823   0.7825124   0.7866050   0.7847522   0.7849307   0.7867703
   0.7865960   0.7847479   0.7848810   0.7867279   0.7824063   0.7854658
   0.7856477   0.7825859   0.7861421   0.7857342   0.7858851   0.7862926
   6.0470289   6.0441708   6.2720193   6.2685117   6.2684882   6.2719750
   6.2694544   6.2667749   6.2667150   6.2694218   6.0434311   6.0462602
   6.0534296   6.0450803   6.2474588   6.2676347   6.2676637   6.2474597
   6.2473766   6.2675347   6.2676798   6.2474530   6.0438281   6.0521963
   6.0474031   6.0445523   6.2692514   6.2665261   6.2670908   6.2698045
   6.2716532   6.2681165   6.2687576   6.2722555   6.0429657   6.0457591
   8.7139266   8.6976279   8.7140635   8.6977357   8.7177641   8.6915640
   8.6980625   8.7143443   8.6919793   8.7181110   8.6982257   8.7145024
 TTTTTTTTTTTTTTTTTTTTTTTTTTTTTT MOQGAD      TELAPSE       64.06 TCPU     1060.29
 TTTTTTTTTTTTTTTTTTTTTTTTTTTTTT SHELLXN     TELAPSE       91.90 TCPU     1948.96
 TTTTTTTTTTTTTTTTTTTTTTTTTTTTTT MONMO3      TELAPSE       92.59 TCPU     1970.87
 NUMERICALLY INTEGRATED DENSITY    396.0000624737
 TTTTTTTTTTTTTTTTTTTTTTTTTTTTTT NUMDFT      TELAPSE       94.26 TCPU     2024.38
 CYC   1 ETOT(AU) -2.577662429023E+03 DETOT  1.44E+01 tst  0.00E+00 PX  1.00E+00
 TTTTTTTTTTTTTTTTTTTTTTTTTTTTTT DIIS        TELAPSE       94.40 TCPU     2028.97
 DIIS TEST: 0.21531E+01 AT SCF   CYCLE   1 - MIX   30 %
 TTTTTTTTTTTTTTTTTTTTTTTTTTTTTT FDIK        TELAPSE       96.25 TCPU     2087.94
 INSULATING STATE
 TOP OF VALENCE BANDS -    BAND    198; K    2; EIG -2.1628759E-01 AU
 TOP OF VALENCE BANDS -    BAND    198; K    1; EIG -2.1660219E-01 AU
 BOTTOM OF VIRTUAL BANDS - BAND    199; K    1; EIG -9.3404342E-02 AU
 INDIRECT ENERGY BAND GAP:   3.3438 eV
 TTTTTTTTTTTTTTTTTTTTTTTTTTTTTT PDIG        TELAPSE       97.87 TCPU     2094.95
 CHARGE NORMALIZATION FACTOR   1.00000000
 TOTAL ATOMIC CHARGES:
   4.6300543   4.6333320   4.6546491   4.7116274   4.6545465   4.7116552
   4.7118926   4.6550588   4.7118574   4.6551454   4.6336279   4.6300351
   0.9146310   0.8935515   0.8936441   0.9146195   0.9261799   0.9158489
   0.9159024   0.9262784   0.9041729   0.8803145   0.8803062   0.9043381
   0.9041519   0.8803048   0.8802804   0.9042562   0.9261668   0.9158347
   0.9159715   0.9263323   0.9145757   0.8935025   0.8936467   0.9145994
   5.8639321   5.8848192   6.1601525   6.1108424   6.1112869   6.1605847
   6.1288522   6.1557627   6.1564735   6.1297202   5.8875527   5.8666396
   5.9121174   5.9250547   6.1281889   6.1756931   6.1766267   6.1290385
   6.1283695   6.1757750   6.1765980   6.1291369   5.9283904   5.9147786
   5.8638490   5.8847499   6.1289469   6.1558071   6.1563526   6.1297142
   6.1603809   6.1110195   6.1110553   6.1603032   5.8877929   5.8667937
   8.3454068   8.3278615   8.3458214   8.3282293   8.3772913   8.3428205
   8.3277566   8.3451713   8.3425648   8.3773822   8.3281292   8.3455214
 TTTTTTTTTTTTTTTTTTTTTTTTTTTTTT MOQGAD      TELAPSE       97.98 TCPU     2095.06
 TTTTTTTTTTTTTTTTTTTTTTTTTTTTTT SHELLXN     TELAPSE      125.82 TCPU     2983.62
 TTTTTTTTTTTTTTTTTTTTTTTTTTTTTT MONMO3      TELAPSE      126.51 TCPU     3005.52
 NUMERICALLY INTEGRATED DENSITY    396.0000684880
 TTTTTTTTTTTTTTTTTTTTTTTTTTTTTT NUMDFT      TELAPSE      128.18 TCPU     3059.02
 CYC   2 ETOT(AU) -2.578041484732E+03 DETOT -3.79E-01 tst  3.15E-03 PX  1.59E-01
 TTTTTTTTTTTTTTTTTTTTTTTTTTTTTT DIIS        TELAPSE      128.34 TCPU     3064.26
 DIIS TEST: 0.88705E+00 AT SCF   CYCLE   2 - DIIS ACTIVE - HISTORY:     2 CYCLES
 TTTTTTTTTTTTTTTTTTTTTTTTTTTTTT FDIK        TELAPSE      130.19 TCPU     3123.23
 INSULATING STATE
 TOP OF VALENCE BANDS -    BAND    198; K    2; EIG -2.2857418E-01 AU
 TOP OF VALENCE BANDS -    BAND    198; K    1; EIG -2.2904685E-01 AU
 BOTTOM OF VIRTUAL BANDS - BAND    199; K    1; EIG -8.8357223E-02 AU
 INDIRECT ENERGY BAND GAP:   3.8155 eV
 TTTTTTTTTTTTTTTTTTTTTTTTTTTTTT PDIG        TELAPSE      131.81 TCPU     3130.23
 CHARGE NORMALIZATION FACTOR   1.00000000
 TOTAL ATOMIC CHARGES:
   4.4523176   4.4251242   4.4651051   4.5039299   4.4651939   4.5040576
   4.5034749   4.4644721   4.5033083   4.4643706   4.4244628   4.4521843
   0.8957716   0.8725333   0.8725068   0.8960783   0.8958883   0.8946370
   0.8947439   0.8958485   0.8865629   0.8721325   0.8726139   0.8865629
   0.8865795   0.8721429   0.8725567   0.8864716   0.8958756   0.8946350
   0.8947954   0.8959117   0.8957798   0.8725697   0.8724507   0.8960099
   5.9085960   5.8929765   6.1622842   6.1793239   6.1790528   6.1620632
   6.1613515   6.1457411   6.1448776   6.1599953   5.8915522   5.9070679
   5.9396049   5.9172546   6.1466940   6.1783182   6.1776508   6.1464267
   6.1468575   6.1785072   6.1774597   6.1463021   5.9151862   5.9382111
   5.9089440   5.8932985   6.1613728   6.1457070   6.1450148   6.1600897
   6.1622154   6.1791604   6.1790631   6.1621172   5.8912213   5.9066702
   8.5310880   8.5234581   8.5312255   8.5236265   8.5395513   8.5016613
   8.5235684   8.5314981   8.5018855   8.5391715   8.5236923   8.5316843
 TTTTTTTTTTTTTTTTTTTTTTTTTTTTTT MOQGAD      TELAPSE      131.92 TCPU     3130.34
 TTTTTTTTTTTTTTTTTTTTTTTTTTTTTT SHELLXN     TELAPSE      159.76 TCPU     4019.12
 TTTTTTTTTTTTTTTTTTTTTTTTTTTTTT MONMO3      TELAPSE      160.45 TCPU     4041.02
 NUMERICALLY INTEGRATED DENSITY    396.0000668509
 TTTTTTTTTTTTTTTTTTTTTTTTTTTTTT NUMDFT      TELAPSE      162.12 TCPU     4094.54
 CYC   3 ETOT(AU) -2.578224263640E+03 DETOT -1.83E-01 tst  5.59E-04 PX  6.77E-02
 TTTTTTTTTTTTTTTTTTTTTTTTTTTTTT DIIS        TELAPSE      162.31 TCPU     4100.44
 DIIS TEST: 0.34447E-01 AT SCF   CYCLE   3 - DIIS ACTIVE - HISTORY:     3 CYCLES
 TTTTTTTTTTTTTTTTTTTTTTTTTTTTTT FDIK        TELAPSE      164.15 TCPU     4159.54
 INSULATING STATE
 TOP OF VALENCE BANDS -    BAND    198; K    2; EIG -2.3760644E-01 AU
 TOP OF VALENCE BANDS -    BAND    198; K    1; EIG -2.3796285E-01 AU
 BOTTOM OF VIRTUAL BANDS - BAND    199; K    1; EIG -9.7135024E-02 AU
 INDIRECT ENERGY BAND GAP:   3.8224 eV
 TTTTTTTTTTTTTTTTTTTTTTTTTTTTTT PDIG        TELAPSE      165.78 TCPU     4166.54
 CHARGE NORMALIZATION FACTOR   1.00000000
 TOTAL ATOMIC CHARGES:
   4.4543570   4.4323330   4.4713405   4.5044048   4.4713706   4.5045265
   4.5046862   4.4717793   4.5045228   4.4717388   4.4327060   4.4543179
   0.8748143   0.8625599   0.8627633   0.8747651   0.8850141   0.8733038
   0.8733218   0.8851065   0.8679388   0.8518107   0.8516151   0.8682982
   0.8679505   0.8518458   0.8515451   0.8681875   0.8850386   0.8733038
   0.8733829   0.8851215   0.8748098   0.8625484   0.8627351   0.8747141
   5.9358791   5.9462856   6.1868027   6.1488242   6.1493336   6.1869467
   6.1535686   6.1862830   6.1878967   6.1560271   5.9500080   5.9395566
   5.9719969   5.9787225   6.1479675   6.2026422   6.2040606   6.1491035
   6.1478619   6.2024620   6.2041990   6.1493654   5.9827637   5.9745121
   5.9358203   5.9462587   6.1534887   6.1861703   6.1880047   6.1562563
   6.1866597   6.1487000   6.1494274   6.1869993   5.9500972   5.9395545
   8.4913867   8.4781993   8.4917348   8.4785022   8.5160347   8.4881944
   8.4784088   8.4910909   8.4881525   8.5170604   8.4787304   8.4914208
 TTTTTTTTTTTTTTTTTTTTTTTTTTTTTT MOQGAD      TELAPSE      165.89 TCPU     4166.65
 TTTTTTTTTTTTTTTTTTTTTTTTTTTTTT SHELLXN     TELAPSE      193.73 TCPU     5055.24
 TTTTTTTTTTTTTTTTTTTTTTTTTTTTTT MONMO3      TELAPSE      194.41 TCPU     5077.19
 NUMERICALLY INTEGRATED DENSITY    396.0000667723
 TTTTTTTTTTTTTTTTTTTTTTTTTTTTTT NUMDFT      TELAPSE      196.09 TCPU     5130.78
 CYC   4 ETOT(AU) -2.578231420584E+03 DETOT -7.16E-03 tst  3.19E-05 PX  1.70E-02
 TTTTTTTTTTTTTTTTTTTTTTTTTTTTTT DIIS        TELAPSE      196.29 TCPU     5137.34
 DIIS TEST: 0.10286E-01 AT SCF   CYCLE   4 - DIIS ACTIVE - HISTORY:     4 CYCLES
 TTTTTTTTTTTTTTTTTTTTTTTTTTTTTT FDIK        TELAPSE      198.14 TCPU     5196.22
 INSULATING STATE
 TOP OF VALENCE BANDS -    BAND    198; K    2; EIG -2.3686388E-01 AU
 TOP OF VALENCE BANDS -    BAND    198; K    1; EIG -2.3723246E-01 AU
 BOTTOM OF VIRTUAL BANDS - BAND    199; K    1; EIG -9.7022535E-02 AU
 INDIRECT ENERGY BAND GAP:   3.8053 eV
 TTTTTTTTTTTTTTTTTTTTTTTTTTTTTT PDIG        TELAPSE      199.75 TCPU     5203.22
 CHARGE NORMALIZATION FACTOR   1.00000000
 TOTAL ATOMIC CHARGES:
   4.4545537   4.4345450   4.4715030   4.5123279   4.4715695   4.5124477
   4.5120113   4.4710406   4.5118579   4.4709624   4.4340052   4.4545127
   0.8795624   0.8601319   0.8601009   0.8798290   0.8848412   0.8786882
   0.8788861   0.8848945   0.8698716   0.8546135   0.8551261   0.8698663
   0.8698634   0.8546087   0.8550858   0.8697867   0.8848283   0.8786847
   0.8789428   0.8849582   0.8795454   0.8601456   0.8600638   0.8797809
   5.9295891   5.9311390   6.1755493   6.1709039   6.1706829   6.1755798
   6.1690935   6.1651365   6.1636760   6.1668251   5.9289483   5.9273865
   5.9692137   5.9572319   6.1553061   6.1941383   6.1933824   6.1548983
   6.1555655   6.1943555   6.1931622   6.1547434   5.9547502   5.9675709
   5.9298719   5.9313906   6.1691083   6.1651205   6.1637522   6.1669104
   6.1755892   6.1708376   6.1706218   6.1755249   5.9287142   5.9270740
   8.5019741   8.4923328   8.5021401   8.4925255   8.5195764   8.4827791
   8.4922646   8.5023927   8.4828584   8.5187638   8.4924297   8.5025766
 TTTTTTTTTTTTTTTTTTTTTTTTTTTTTT MOQGAD      TELAPSE      199.86 TCPU     5203.33
 TTTTTTTTTTTTTTTTTTTTTTTTTTTTTT SHELLXN     TELAPSE      227.71 TCPU     6092.02
 TTTTTTTTTTTTTTTTTTTTTTTTTTTTTT MONMO3      TELAPSE      228.39 TCPU     6113.92
 NUMERICALLY INTEGRATED DENSITY    396.0000664542
 TTTTTTTTTTTTTTTTTTTTTTTTTTTTTT NUMDFT      TELAPSE      230.07 TCPU     6167.42
 CYC   5 ETOT(AU) -2.578233685685E+03 DETOT -2.27E-03 tst  1.28E-05 PX  8.45E-03
 TTTTTTTTTTTTTTTTTTTTTTTTTTTTTT DIIS        TELAPSE      230.30 TCPU     6174.29
 DIIS TEST: 0.76449E-03 AT SCF   CYCLE   5 - DIIS ACTIVE - HISTORY:     5 CYCLES
 TTTTTTTTTTTTTTTTTTTTTTTTTTTTTT FDIK        TELAPSE      232.14 TCPU     6232.98
 INSULATING STATE
 TOP OF VALENCE BANDS -    BAND    198; K    2; EIG -2.3608653E-01 AU
 TOP OF VALENCE BANDS -    BAND    198; K    1; EIG -2.3646975E-01 AU
 BOTTOM OF VIRTUAL BANDS - BAND    199; K    1; EIG -9.6212688E-02 AU
 INDIRECT ENERGY BAND GAP:   3.8062 eV
 TTTTTTTTTTTTTTTTTTTTTTTTTTTTTT PDIG        TELAPSE      233.77 TCPU     6239.98
 CHARGE NORMALIZATION FACTOR   1.00000000
 TOTAL ATOMIC CHARGES:
   4.4546863   4.4345146   4.4719341   4.5098543   4.4719603   4.5099750
   4.5100781   4.4722317   4.5099219   4.4721926   4.4348101   4.4546257
   0.8800145   0.8625270   0.8627299   0.8800197   0.8871815   0.8789791
   0.8789452   0.8872293   0.8722291   0.8557218   0.8555692   0.8725625
   0.8722452   0.8557528   0.8554982   0.8724553   0.8871959   0.8789737
   0.8790078   0.8872575   0.8800138   0.8625255   0.8626991   0.8799636
   5.9253703   5.9250271   6.1819901   6.1607916   6.1611544   6.1819364
   6.1566491   6.1734929   6.1753481   6.1594262   5.9288258   5.9290435
   5.9593590   5.9544896   6.1510609   6.1956405   6.1969519   6.1521733
   6.1509497   6.1955045   6.1970604   6.1523991   5.9582283   5.9616646
   5.9254050   5.9250828   6.1566089   6.1734083   6.1754658   6.1596049
   6.1818282   6.1606322   6.1612455   6.1820259   5.9288112   5.9289542
   8.5038561   8.4909735   8.5041705   8.4912516   8.5204161   8.4898530
   8.4912533   8.5035960   8.4899205   8.5215772   8.4915263   8.5039136
 TTTTTTTTTTTTTTTTTTTTTTTTTTTTTT MOQGAD      TELAPSE      233.88 TCPU     6240.09
 TTTTTTTTTTTTTTTTTTTTTTTTTTTTTT SHELLXN     TELAPSE      261.73 TCPU     7128.94
 TTTTTTTTTTTTTTTTTTTTTTTTTTTTTT MONMO3      TELAPSE      262.41 TCPU     7150.82
 NUMERICALLY INTEGRATED DENSITY    396.0000664220
 TTTTTTTTTTTTTTTTTTTTTTTTTTTTTT NUMDFT      TELAPSE      264.09 TCPU     7204.30
 CYC   6 ETOT(AU) -2.578233792219E+03 DETOT -1.07E-04 tst  3.91E-06 PX  3.22E-03
 TTTTTTTTTTTTTTTTTTTTTTTTTTTTTT DIIS        TELAPSE      264.34 TCPU     7211.24
 DIIS TEST: 0.41145E-03 AT SCF   CYCLE   6 - DIIS ACTIVE - HISTORY:     6 CYCLES
 TTTTTTTTTTTTTTTTTTTTTTTTTTTTTT FDIK        TELAPSE      266.18 TCPU     7269.95
 INSULATING STATE
 TOP OF VALENCE BANDS -    BAND    198; K    2; EIG -2.3633639E-01 AU
 TOP OF VALENCE BANDS -    BAND    198; K    1; EIG -2.3671910E-01 AU
 BOTTOM OF VIRTUAL BANDS - BAND    199; K    1; EIG -9.6259817E-02 AU
 INDIRECT ENERGY BAND GAP:   3.8117 eV
 TTTTTTTTTTTTTTTTTTTTTTTTTTTTTT PDIG        TELAPSE      267.80 TCPU     7276.94
 CHARGE NORMALIZATION FACTOR   1.00000000
 TOTAL ATOMIC CHARGES:
   4.4554361   4.4344897   4.4721915   4.5103698   4.4722476   4.5104905
   4.5101748   4.4719320   4.5100189   4.4718651   4.4341474   4.4553746
   0.8803977   0.8620350   0.8620590   0.8805775   0.8865463   0.8792565
   0.8794053   0.8866028   0.8721017   0.8557412   0.8560681   0.8721879
   0.8721023   0.8557501   0.8560176   0.8720971   0.8865455   0.8792564
   0.8794610   0.8866494   0.8803889   0.8620442   0.8620216   0.8805261
   5.9275402   5.9290677   6.1778835   6.1652104   6.1652139   6.1779510
   6.1621554   6.1707269   6.1700555   6.1611100   5.9284455   5.9269175
   5.9630421   5.9576236   6.1512833   6.1955451   6.1953659   6.1512942
   6.1514241   6.1956383   6.1952542   6.1512675   5.9569177   5.9625387
   5.9277258   5.9292366   6.1621316   6.1706688   6.1701582   6.1612574
   6.1778465   6.1651159   6.1652142   6.1779404   5.9283051   5.9266883
   8.5023337   8.4914561   8.5025501   8.4916798   8.5211327   8.4875341
   8.4914867   8.5025796   8.4875814   8.5208254   8.4916978   8.5028047
 TTTTTTTTTTTTTTTTTTTTTTTTTTTTTT MOQGAD      TELAPSE      267.91 TCPU     7277.05
 TTTTTTTTTTTTTTTTTTTTTTTTTTTTTT SHELLXN     TELAPSE      295.76 TCPU     8165.74
 TTTTTTTTTTTTTTTTTTTTTTTTTTTTTT MONMO3      TELAPSE      296.44 TCPU     8187.63
 NUMERICALLY INTEGRATED DENSITY    396.0000664779
 TTTTTTTTTTTTTTTTTTTTTTTTTTTTTT NUMDFT      TELAPSE      298.12 TCPU     8241.12
 CYC   7 ETOT(AU) -2.578233888577E+03 DETOT -9.64E-05 tst  8.69E-07 PX  1.37E-03
 TTTTTTTTTTTTTTTTTTTTTTTTTTTTTT DIIS        TELAPSE      298.39 TCPU     8248.01
 DIIS TEST: 0.21892E-04 AT SCF   CYCLE   7 - DIIS ACTIVE - HISTORY:     7 CYCLES
 TTTTTTTTTTTTTTTTTTTTTTTTTTTTTT FDIK        TELAPSE      300.24 TCPU     8306.78
 INSULATING STATE
 TOP OF VALENCE BANDS -    BAND    198; K    2; EIG -2.3632892E-01 AU
 TOP OF VALENCE BANDS -    BAND    198; K    1; EIG -2.3670807E-01 AU
 BOTTOM OF VIRTUAL BANDS - BAND    199; K    1; EIG -9.6329338E-02 AU
 INDIRECT ENERGY BAND GAP:   3.8096 eV
 TTTTTTTTTTTTTTTTTTTTTTTTTTTTTT PDIG        TELAPSE      301.86 TCPU     8313.77
 CHARGE NORMALIZATION FACTOR   1.00000000
 TOTAL ATOMIC CHARGES:
   4.4553629   4.4343281   4.4720417   4.5105178   4.4720894   4.5106383
   4.5104793   4.4719823   4.5103236   4.4719229   4.4342242   4.4553078
   0.8804042   0.8620305   0.8621221   0.8805284   0.8865031   0.8793133
   0.8793887   0.8865503   0.8718371   0.8557703   0.8559256   0.8720115
   0.8718424   0.8557855   0.8558687   0.8719164   0.8865054   0.8793098
   0.8794477   0.8865941   0.8803971   0.8620373   0.8620874   0.8804753
   5.9270987   5.9279100   6.1783701   6.1648829   6.1649845   6.1783689
   6.1616171   6.1698371   6.1701248   6.1620095   5.9289096   5.9280332
   5.9635037   5.9560381   6.1518704   6.1948388   6.1951926   6.1522809
   6.1519369   6.1948686   6.1951449   6.1523266   5.9568954   5.9639808
   5.9272484   5.9280547   6.1615979   6.1697810   6.1702258   6.1621509
   6.1783018   6.1647668   6.1650056   6.1783899   5.9287947   5.9278403
   8.5026434   8.4914799   8.5028880   8.4917182   8.5203122   8.4871119
   8.4915947   8.5027010   8.4871812   8.5205434   8.4918191   8.5029548
 TTTTTTTTTTTTTTTTTTTTTTTTTTTTTT MOQGAD      TELAPSE      301.97 TCPU     8313.88
 TTTTTTTTTTTTTTTTTTTTTTTTTTTTTT SHELLXN     TELAPSE      329.81 TCPU     9202.45
 TTTTTTTTTTTTTTTTTTTTTTTTTTTTTT MONMO3      TELAPSE      330.49 TCPU     9224.34
 NUMERICALLY INTEGRATED DENSITY    396.0000664748
 TTTTTTTTTTTTTTTTTTTTTTTTTTTTTT NUMDFT      TELAPSE      332.17 TCPU     9277.89
 CYC   8 ETOT(AU) -2.578233893454E+03 DETOT -4.88E-06 tst  9.81E-08 PX  3.98E-04
 TTTTTTTTTTTTTTTTTTTTTTTTTTTTTT DIIS        TELAPSE      332.46 TCPU     9284.75
 DIIS TEST: 0.17031E-05 AT SCF   CYCLE   8 - DIIS ACTIVE - HISTORY:     8 CYCLES
 TTTTTTTTTTTTTTTTTTTTTTTTTTTTTT FDIK        TELAPSE      334.31 TCPU     9343.44
 INSULATING STATE
 TOP OF VALENCE BANDS -    BAND    198; K    2; EIG -2.3633125E-01 AU
 TOP OF VALENCE BANDS -    BAND    198; K    1; EIG -2.3671064E-01 AU
 BOTTOM OF VIRTUAL BANDS - BAND    199; K    1; EIG -9.6333877E-02 AU
 INDIRECT ENERGY BAND GAP:   3.8095 eV
 TTTTTTTTTTTTTTTTTTTTTTTTTTTTTT PDIG        TELAPSE      335.93 TCPU     9350.44
 CHARGE NORMALIZATION FACTOR   1.00000000
 TOTAL ATOMIC CHARGES:
   4.4551690   4.4344428   4.4720845   4.5106390   4.4721326   4.5107593
   4.5105616   4.4719717   4.5104061   4.4719120   4.4342777   4.4551128
   0.8803312   0.8620489   0.8621227   0.8804704   0.8865477   0.8792630
   0.8793582   0.8865990   0.8718265   0.8557200   0.8559223   0.8719782
   0.8718310   0.8557341   0.8558664   0.8718838   0.8865496   0.8792600
   0.8794167   0.8866429   0.8803238   0.8620557   0.8620876   0.8804177
   5.9272380   5.9281026   6.1784977   6.1647417   6.1648137   6.1785115
   6.1617709   6.1700547   6.1700861   6.1617794   5.9286609   5.9277473
   5.9632132   5.9564512   6.1519451   6.1950170   6.1952194   6.1522387
   6.1520219   6.1950557   6.1951631   6.1522741   5.9568835   5.9634239
   5.9273918   5.9282506   6.1617512   6.1699977   6.1701870   6.1619220
   6.1784336   6.1646301   6.1648325   6.1785270   5.9285435   5.9275495
   8.5026884   8.4914973   8.5029290   8.4917336   8.5204219   8.4871279
   8.4915911   8.5027967   8.4871897   8.5205100   8.4918137   8.5030463
 TTTTTTTTTTTTTTTTTTTTTTTTTTTTTT MOQGAD      TELAPSE      336.04 TCPU     9350.55
 TTTTTTTTTTTTTTTTTTTTTTTTTTTTTT SHELLXN     TELAPSE      363.88 TCPU    10239.13
 TTTTTTTTTTTTTTTTTTTTTTTTTTTTTT MONMO3      TELAPSE      364.56 TCPU    10261.02
 NUMERICALLY INTEGRATED DENSITY    396.0000664769
 TTTTTTTTTTTTTTTTTTTTTTTTTTTTTT NUMDFT      TELAPSE      366.24 TCPU    10314.50
 CYC   9 ETOT(AU) -2.578233893666E+03 DETOT -2.11E-07 tst  5.20E-09 PX  1.39E-04
 TTTTTTTTTTTTTTTTTTTTTTTTTTTTTT DIIS        TELAPSE      366.55 TCPU    10321.45
 DIIS TEST: 0.18275E-06 AT SCF   CYCLE   9 - DIIS ACTIVE - HISTORY:     9 CYCLES
 TTTTTTTTTTTTTTTTTTTTTTTTTTTTTT FDIK        TELAPSE      368.38 TCPU    10379.51
 INSULATING STATE
 TOP OF VALENCE BANDS -    BAND    198; K    2; EIG -2.3633427E-01 AU
 TOP OF VALENCE BANDS -    BAND    198; K    1; EIG -2.3671380E-01 AU
 BOTTOM OF VIRTUAL BANDS - BAND    199; K    1; EIG -9.6330471E-02 AU
 INDIRECT ENERGY BAND GAP:   3.8097 eV
 TTTTTTTTTTTTTTTTTTTTTTTTTTTTTT PDIG        TELAPSE      370.00 TCPU    10386.51
 CHARGE NORMALIZATION FACTOR   1.00000000
 TOTAL ATOMIC CHARGES:
   4.4552358   4.4344291   4.4720587   4.5105982   4.4721074   4.5107186
   4.5105307   4.4719609   4.5103751   4.4719005   4.4342799   4.4551798
   0.8803445   0.8620222   0.8621008   0.8804793   0.8865459   0.8792584
   0.8793491   0.8865961   0.8718337   0.8557318   0.8559210   0.8719907
   0.8718379   0.8557455   0.8558656   0.8718966   0.8865477   0.8792557
   0.8794074   0.8866403   0.8803369   0.8620293   0.8620656   0.8804267
   5.9271414   5.9281004   6.1783863   6.1648598   6.1649432   6.1784011
   6.1616926   6.1700671   6.1701632   6.1617974   5.9287750   5.9277648
   5.9633059   5.9563680   6.1518505   6.1949984   6.1952477   6.1521826
   6.1519323   6.1950412   6.1951869   6.1522132   5.9569126   5.9635876
   5.9272982   5.9282498   6.1616724   6.1700103   6.1702645   6.1619403
   6.1783245   6.1647487   6.1649601   6.1784152   5.9286554   5.9275646
   8.5026505   8.4914768   8.5028892   8.4917122   8.5204792   8.4871932
   8.4915756   8.5027457   8.4872568   8.5206035   8.4917973   8.5029934
 TTTTTTTTTTTTTTTTTTTTTTTTTTTTTT MOQGAD      TELAPSE      370.11 TCPU    10386.62
 TTTTTTTTTTTTTTTTTTTTTTTTTTTTTT SHELLXN     TELAPSE      397.95 TCPU    11275.34
 +++ ENERGIES IN A.U. +++
 ::: EXT EL-POLE                                  -3.2028697205407E+03
 ::: EXT EL-SPHEROPOLE                             3.6985786042248E+01
 ::: BIELET ZONE E-E                               4.8362037701016E+03
 ::: TOTAL E-E                                     1.6703198356032E+03
 ::: TOTAL E-N + N-E                              -6.9829838279457E+03
 ::: TOTAL N-N                                     4.4189083001607E+02
 ::: KINETIC ENERGY                                2.5600352218126E+03
 ::: PSEUDO TOTAL   ENERGY                        -2.3107379405139E+03
 ::: VIRIAL COEFFICIENT                            1.0511822811267E+00
 TTTTTTTTTTTTTTTTTTTTTTTTTTTTTT MONMO3      TELAPSE      398.63 TCPU    11297.22
 NUMERICALLY INTEGRATED DENSITY    396.0000664761
 EXCHANGE ENERGY: -0.252063793166E+03  CORRELATION ENERGY: -0.154321600156E+02
 TTTTTTTTTTTTTTTTTTTTTTTTTTTTTT NUMDFT      TELAPSE      400.31 TCPU    11350.69
 CYC  10 ETOT(AU) -2.578233893695E+03 DETOT -2.93E-08 tst  4.41E-10 PX  1.39E-04

 == SCF ENDED - CONVERGENCE ON ENERGY      E(AU) -2.5782338936952E+03 CYCLES  10


 ENERGY EXPRESSION=HARTREE+FOCK EXCH*0.00000+(HSESOL     EXCH)*1.00000+PBESOL     CORR


 TOTAL ENERGY(DFT)(AU)( 10) -2.5782338936952E+03 DE-2.9E-08 tester 4.4E-10
 TTTTTTTTTTTTTTTTTTTTTTTTTTTTTT EDFT        TELAPSE      400.31 TCPU    11350.70
 
 INFORMATION **** DFTD3 ENERGY **** CALCULATE DFTD3 ENERGY

           DFT-D V3(BJ)
 DF                                         hsesol3c  
 parameters
 s6       :    1.0000
 s8       :    0.0000
 a1       :    0.5196
 a2       :    4.9385
 k1 k3    :   16.0000   -4.0000
 Cutoff   :   50.2022
 CN-Cutoff:   21.1671
 ABC-Cutoff:   21.1671
 
 Edisp /kcal,au:   -63.4594 -0.10112896

 E6    /kcal :   -68.4665
 E8    /kcal :     0.0000
 E6(ABC) "   :   5.007132
 
 INFORMATION **** DFTD3 ENERGY **** NORMAL TERMINATION OF DFTD3 MODULE

 GCP ENERGY CALCULATION
  level        hsesol3c            basis:hsesol3c
  Nbf            948
  Atoms           84

  Parameters: 
  sigma     1.0000
  eta       1.4281
  alpha     0.2936
  beta      1.9467

  dmp_scal      4.0000
  dmp_exp       6.0000
 cutoffs: 
   distance [bohr] 60.0
   noise    [a.u.] 2.2E-16
 SR-damping   T
 ** gCP correction **
  Egcp:        0.1716689608 / (a.u.) ||     107.7239 / (kcal/mol)
 INFORMATION **** GCP **** NORMAL TERMINATION OF GCP MODULE

 *******************************************************************************

 DFT-D3-GCP DISPERSION AND COUNTERPOISE CORRECTION

 D3 DISPERSION ENERGY (AU)      -1.0112895808889E-01
 GCP ENERGY (AU)                 1.7166896081580E-01
 TOTAL ENERGY + DISP + GCP (AU) -2.5781633536925E+03

 *******************************************************************************

 EIGENVECTORS IN FORTRAN UNIT  8
 TTTTTTTTTTTTTTTTTTTTTTTTTTTTTT END         TELAPSE      404.13 TCPU    11360.41
 EEEEEEEEEE TERMINATION  DATE 19 02 2026 TIME 19:46:52.1
