 Default number of threads is:           32

         
 *******************************************************************************
 *                                                                             *
 *                               CRYSTAL23                                     *
 *                      public : 1.0.1 - October 2022                          *
 *                       HTTP://WWW.CRYSTAL.UNITO.IT                           *
 *                                                                             *
 *                              MAIN AUTHORS                                   *
 *                                                                             *
 *  R. DOVESI(1,11), V.R. SAUNDERS(2), C. ROETTI(1,11), R. ORLANDO(1,11),      *
 *  C.M. ZICOVICH-WILSON(1,3), F. PASCALE(4), B. CIVALLERI(1,11),              *
 *  K. DOLL(5), N.M. HARRISON(6), I.J. BUSH(7), Ph. D'ARCO(8),                 *
 *  M. LLUNELL(9), M. CAUSA'(10), Y. NOEL(8), L. MASCHIO(1,11), A. ERBA(1,11)  *
 *  M. RE'RAT(14), S. CASASSA(1,11), B.G. SEARLE(2), J.K. DESMARAIS(1)         *
 *                                                                             *
 *        CONTRIBUTIONS TO THE CODE HAVE ALSO BEEN GIVEN BY                    *
 *                                                                             *
 *  M. FERRABONE(1,11), M. DE LA PIERRE(1,11), M. FERRERO(1,11),               *
 *  J. BAIMA(1,11), E. ALBANESE(1,11), M.F. PEINTINGER(12), R. BAST(13),       *
 *  B. KIRTMAN(15), V. LACIVITA(1,11), R. DEMICHELIS(1,16)                     *
 *  G. BRANDEBURG(17), S. SALUSTRO(1,11), G. SANSONE(1,11)                     *
 *  M.T. RUGGIERO(18), L.E. DAGA(1), L. DONA'(1), A. COSSARD(1)                *
 *                                                                             *
 * (1) THEORETICAL CHEMISTRY GROUP - UNIVERSITA' DI TORINO - TORINO (ITALY)    *
 * (2) SCIENTIFIC COMPUTING DEPARTMENT - STFC DARESBURY (UK)                   *
 * (3) UNIVERSIDAD AUTONOMA DEL ESTADO DE MORELOS - CUERNAVACA (MEXICO)        *
 * (4) UNIVERSITE' DE LORRAINE - NANCY (FRANCE)                                *
 * (5) UNIVERSITAET STUTTGART- STUTTGART (GERMANY)                             *
 * (6) IMPERIAL COLLEGE - LONDON (UK)                                          *
 * (7) SCIENTIFIC COMPUTING DEPARTMENT - STFC RAL (UK)                         *
 * (8) UPMC - SORBONNE UNIVERSITES - PARIS (FRANCE)                            *
 * (9) UNIVERSIDAD DE BARCELONA - BARCELONA (SPAIN)                            *
 *(10) UNIVERSITA' DI NAPOLI "FEDERICO II" - NAPOLI (ITALY)                    *
 *(11) NIS - NANOSTRUCTURED INTERFACES AND SURFACES - TORINO (ITALY)           *
 *(12) MPI FUER CHEMISCHE ENERGIEKONVERSION - MUELHEIM AN DER RUHR (GERMANY)   *
 *(13) UNIVERSITY OF TROMSO - TROMSO (NORWAY)                                  *
 *(14) UNIVERSITE' DE PAU ET DES PAYS DE L'ADOUR - PAU (FRANCE)                *
 *(15) UNIVERSITY OF CALIFORNIA SANTA BARBARA - SANTA BARBARA (USA)            *
 *(16) CURTIN UNIVERSITY - PERTH (AUSTRALIA)                                   *
 *(17) UNIVERSITY COLLEGE LONDON - LONDON (UK)                                 *
 *(18) UNIVERSITY OF VERMONT - BURLINGTON (USA)                                *
 *                                                                             *
 *******************************************************************************
 EEEEEEEEEE STARTING  DATE 19 02 2026 TIME 17:48:52.8
 cof-1_z31_L000_incl                                                             

 CRYSTAL CALCULATION
 (INPUT ACCORDING TO THE INTERNATIONAL TABLES FOR X-RAY CRYSTALLOGRAPHY)
 CRYSTAL FAMILY                       :  TRICLINIC   
 CRYSTAL CLASS  (GROTH - 1921)        :  TRICLINIC PEDIAL                     

 SPACE GROUP (NONCENTROSYMMETRIC)     :  P 1             

 LATTICE PARAMETERS  (ANGSTROMS AND DEGREES) - CONVENTIONAL CELL
        A           B           C        ALPHA        BETA       GAMMA
    15.02361    15.02392     3.10000    90.00032    89.99994   119.99596


 NUMBER OF IRREDUCIBLE ATOMS IN THE CONVENTIONAL CELL:   42

 INPUT COORDINATES

 ATOM AT. N.              COORDINATES
   1   5     6.136805400000E-01  2.273182200000E-01  5.015408800000E-01
   2   5     7.727362000000E-01  3.863778800000E-01  5.015409000000E-01
   3   5     6.136762700000E-01  3.863606700000E-01  4.983011600000E-01
   4   5     2.272552500000E-01  6.136332200000E-01  5.015408900000E-01
   5   5     3.863632200000E-01  6.136124500000E-01  5.015408800000E-01
   6   5     3.863435000000E-01  7.727516500000E-01  4.983011600000E-01
   7   1     9.030436200000E-01  3.089300500000E-01  4.948242600000E-01
   8   1     9.663453000000E-02  6.910534400000E-01  4.937971800000E-01
   9   1     9.029714200000E-01  5.940724300000E-01  4.936391100000E-01
  10   1     9.673618000000E-02  4.056849400000E-01  4.936785300000E-01
  11   1     6.910324000000E-01  9.700412000000E-02  5.051757800000E-01
  12   1     3.089297200000E-01  9.034373100000E-01  5.062029400000E-01
  13   1     4.058699900000E-01  9.704998000000E-02  5.063611100000E-01
  14   1     5.943122100000E-01  9.033473200000E-01  5.063214100000E-01
  15   1     6.910727400000E-01  5.940542100000E-01  4.948243200000E-01
  16   1     3.089618300000E-01  4.056093300000E-01  4.937971100000E-01
  17   1     4.058405700000E-01  3.088232500000E-01  4.936389800000E-01
  18   1     5.942908800000E-01  6.909579300000E-01  4.936786600000E-01
  19   6     8.918903100000E-01  4.459436900000E-01  4.981826100000E-01
  20   6     9.464891100000E-01  3.927856300000E-01  4.949823300000E-01
  21   6     5.338812000000E-02  6.071853000000E-01  4.947058600000E-01
  22   6     9.464521100000E-01  5.536921900000E-01  4.955355500000E-01
  23   6     5.342634000000E-02  4.462499700000E-01  4.934019700000E-01
  24   6     1.080358900000E-01  5.540356300000E-01  4.955750200000E-01
  25   6     5.540394200000E-01  1.081684600000E-01  5.018174700000E-01
  26   6     6.071778500000E-01  5.355594000000E-02  5.050177000000E-01
  27   6     3.927986700000E-01  9.466631600000E-01  5.052942700000E-01
  28   6     4.462875800000E-01  5.360286000000E-02  5.044646100000E-01
  29   6     5.537168500000E-01  9.466235600000E-01  5.065980300000E-01
  30   6     4.459279100000E-01  8.919920600000E-01  5.044250500000E-01
  31   6     5.540448700000E-01  4.458745500000E-01  4.981826100000E-01
  32   6     6.072102200000E-01  5.536257800000E-01  4.949823900000E-01
  33   6     3.928233700000E-01  4.461720300000E-01  4.947058000000E-01
  34   6     4.462872600000E-01  3.926899900000E-01  4.955354600000E-01
  35   6     5.537429600000E-01  6.070980000000E-01  4.934020500000E-01
  36   6     4.459599800000E-01  5.539582300000E-01  4.955750200000E-01
  37   8     5.607366800000E-01  2.803706300000E-01  4.991703400000E-01
  38   8     7.196817000000E-01  2.803783300000E-01  5.060054000000E-01
  39   8     7.196794200000E-01  4.393234600000E-01  4.956935800000E-01
  40   8     2.803245100000E-01  7.196511100000E-01  4.991703800000E-01
  41   8     2.803439700000E-01  5.606956100000E-01  5.060054000000E-01
  42   8     4.392638400000E-01  7.196354200000E-01  4.956935500000E-01

 *******************************************************************************

 << INFORMATION >>: FROM NOW ON, ALL COORDINATES REFER TO THE PRIMITIVE CELL

 *******************************************************************************

 LATTICE PARAMETERS  (ANGSTROMS AND DEGREES) - PRIMITIVE CELL
       A          B          C        ALPHA      BETA     GAMMA        VOLUME
   15.02361   15.02392    3.10000    90.00032  89.99994 119.99596    605.992799

 COORDINATES OF THE EQUIVALENT ATOMS (FRACTIONAL UNITS)

 N. ATOM EQUIV AT. N.          X                  Y                  Z

   1   1   1    5 B    -3.86319460000E-01  2.27318220000E-01 -4.98459120000E-01

   2   2   1    5 B    -2.27263800000E-01  3.86377880000E-01 -4.98459100000E-01

   3   3   1    5 B    -3.86323730000E-01  3.86360670000E-01  4.98301160000E-01

   4   4   1    5 B     2.27255250000E-01 -3.86366780000E-01 -4.98459110000E-01

   5   5   1    5 B     3.86363220000E-01 -3.86387550000E-01 -4.98459120000E-01

   6   6   1    5 B     3.86343500000E-01 -2.27248350000E-01  4.98301160000E-01

   7   7   1    1 H    -9.69563800000E-02  3.08930050000E-01  4.94824260000E-01

   8   8   1    1 H     9.66345300000E-02 -3.08946560000E-01  4.93797180000E-01

   9   9   1    1 H    -9.70285800000E-02 -4.05927570000E-01  4.93639110000E-01

  10  10   1    1 H     9.67361800000E-02  4.05684940000E-01  4.93678530000E-01

  11  11   1    1 H    -3.08967600000E-01  9.70041200000E-02 -4.94824220000E-01

  12  12   1    1 H     3.08929720000E-01 -9.65626900000E-02 -4.93797060000E-01

  13  13   1    1 H     4.05869990000E-01  9.70499800000E-02 -4.93638890000E-01

  14  14   1    1 H    -4.05687790000E-01 -9.66526800000E-02 -4.93678590000E-01

  15  15   1    1 H    -3.08927260000E-01 -4.05945790000E-01  4.94824320000E-01

  16  16   1    1 H     3.08961830000E-01  4.05609330000E-01  4.93797110000E-01

  17  17   1    1 H     4.05840570000E-01  3.08823250000E-01  4.93638980000E-01

  18  18   1    1 H    -4.05709120000E-01 -3.09042070000E-01  4.93678660000E-01

  19  19   1    6 C    -1.08109690000E-01  4.45943690000E-01  4.98182610000E-01

  20  20   1    6 C    -5.35108900000E-02  3.92785630000E-01  4.94982330000E-01

  21  21   1    6 C     5.33881200000E-02 -3.92814700000E-01  4.94705860000E-01

  22  22   1    6 C    -5.35478900000E-02 -4.46307810000E-01  4.95535550000E-01

  23  23   1    6 C     5.34263400000E-02  4.46249970000E-01  4.93401970000E-01

  24  24   1    6 C     1.08035890000E-01 -4.45964370000E-01  4.95575020000E-01

  25  25   1    6 C    -4.45960580000E-01  1.08168460000E-01 -4.98182530000E-01

  26  26   1    6 C    -3.92822150000E-01  5.35559400000E-02 -4.94982300000E-01

  27  27   1    6 C     3.92798670000E-01 -5.33368400000E-02 -4.94705730000E-01

  28  28   1    6 C     4.46287580000E-01  5.36028600000E-02 -4.95535390000E-01

  29  29   1    6 C    -4.46283150000E-01 -5.33764400000E-02 -4.93401970000E-01

  30  30   1    6 C     4.45927910000E-01 -1.08007940000E-01 -4.95574950000E-01

  31  31   1    6 C    -4.45955130000E-01  4.45874550000E-01  4.98182610000E-01

  32  32   1    6 C    -3.92789780000E-01 -4.46374220000E-01  4.94982390000E-01

  33  33   1    6 C     3.92823370000E-01  4.46172030000E-01  4.94705800000E-01

  34  34   1    6 C     4.46287260000E-01  3.92689990000E-01  4.95535460000E-01

  35  35   1    6 C    -4.46257040000E-01 -3.92902000000E-01  4.93402050000E-01

  36  36   1    6 C     4.45959980000E-01 -4.46041770000E-01  4.95575020000E-01

  37  37   1    8 O    -4.39263320000E-01  2.80370630000E-01  4.99170340000E-01

  38  38   1    8 O    -2.80318300000E-01  2.80378330000E-01 -4.93994600000E-01

  39  39   1    8 O    -2.80320580000E-01  4.39323460000E-01  4.95693580000E-01

  40  40   1    8 O     2.80324510000E-01 -2.80348890000E-01  4.99170380000E-01

  41  41   1    8 O     2.80343970000E-01 -4.39304390000E-01 -4.93994600000E-01

  42  42   1    8 O     4.39263840000E-01 -2.80364580000E-01  4.95693550000E-01

 NUMBER OF SYMMETRY OPERATORS         :    1
 *******************************************************************************
 * GEOMETRY EDITING - INPUT COORDINATES ARE GIVEN IN ANGSTROM         
 *******************************************************************************

 GCALCO - MAX INDICES DIRECT LATTICE VECTOR     9     9    38
 NO.OF VECTORS CREATED 6999 STARS 3500 RMAX   189.46400 BOHR

 GEOMETRY FOR WAVE FUNCTION - DIMENSIONALITY OF THE SYSTEM    3
 (NON PERIODIC DIRECTION: LATTICE PARAMETER FORMALLY SET TO 500)
 *******************************************************************************
 LATTICE PARAMETERS (ANGSTROMS AND DEGREES) - BOHR = 0.5291772083 ANGSTROM
 PRIMITIVE CELL - CENTRING CODE 1/0 VOLUME=   605.992799 - DENSITY  1.069 g/cm^3
         A              B              C           ALPHA      BETA       GAMMA 
    15.02361100    15.02391600     3.10000000    90.000323  89.999944 119.995964
 *******************************************************************************
 ATOMS IN THE ASYMMETRIC UNIT   42 - ATOMS IN THE UNIT CELL:   42
     ATOM                 X/A                 Y/B                 Z/C    
 *******************************************************************************
      1 T   5 B    -3.863194600000E-01  2.273182200000E-01 -4.984591200000E-01
      2 T   5 B    -2.272638000000E-01  3.863778800000E-01 -4.984591000000E-01
      3 T   5 B    -3.863237300000E-01  3.863606700000E-01  4.983011600000E-01
      4 T   5 B     2.272552500000E-01 -3.863667800000E-01 -4.984591100000E-01
      5 T   5 B     3.863632200000E-01 -3.863875500000E-01 -4.984591200000E-01
      6 T   5 B     3.863435000000E-01 -2.272483500000E-01  4.983011600000E-01
      7 T   1 H    -9.695638000000E-02  3.089300500000E-01  4.948242600000E-01
      8 T   1 H     9.663453000000E-02 -3.089465600000E-01  4.937971800000E-01
      9 T   1 H    -9.702858000000E-02 -4.059275700000E-01  4.936391100000E-01
     10 T   1 H     9.673618000000E-02  4.056849400000E-01  4.936785300000E-01
     11 T   1 H    -3.089676000000E-01  9.700412000000E-02 -4.948242200000E-01
     12 T   1 H     3.089297200000E-01 -9.656269000000E-02 -4.937970600000E-01
     13 T   1 H     4.058699900000E-01  9.704998000000E-02 -4.936388900000E-01
     14 T   1 H    -4.056877900000E-01 -9.665268000000E-02 -4.936785900000E-01
     15 T   1 H    -3.089272600000E-01 -4.059457900000E-01  4.948243200000E-01
     16 T   1 H     3.089618300000E-01  4.056093300000E-01  4.937971100000E-01
     17 T   1 H     4.058405700000E-01  3.088232500000E-01  4.936389800000E-01
     18 T   1 H    -4.057091200000E-01 -3.090420700000E-01  4.936786600000E-01
     19 T   6 C    -1.081096900000E-01  4.459436900000E-01  4.981826100000E-01
     20 T   6 C    -5.351089000000E-02  3.927856300000E-01  4.949823300000E-01
     21 T   6 C     5.338812000000E-02 -3.928147000000E-01  4.947058600000E-01
     22 T   6 C    -5.354789000000E-02 -4.463078100000E-01  4.955355500000E-01
     23 T   6 C     5.342634000000E-02  4.462499700000E-01  4.934019700000E-01
     24 T   6 C     1.080358900000E-01 -4.459643700000E-01  4.955750200000E-01
     25 T   6 C    -4.459605800000E-01  1.081684600000E-01 -4.981825300000E-01
     26 T   6 C    -3.928221500000E-01  5.355594000000E-02 -4.949823000000E-01
     27 T   6 C     3.927986700000E-01 -5.333684000000E-02 -4.947057300000E-01
     28 T   6 C     4.462875800000E-01  5.360286000000E-02 -4.955353900000E-01
     29 T   6 C    -4.462831500000E-01 -5.337644000000E-02 -4.934019700000E-01
     30 T   6 C     4.459279100000E-01 -1.080079400000E-01 -4.955749500000E-01
     31 T   6 C    -4.459551300000E-01  4.458745500000E-01  4.981826100000E-01
     32 T   6 C    -3.927897800000E-01 -4.463742200000E-01  4.949823900000E-01
     33 T   6 C     3.928233700000E-01  4.461720300000E-01  4.947058000000E-01
     34 T   6 C     4.462872600000E-01  3.926899900000E-01  4.955354600000E-01
     35 T   6 C    -4.462570400000E-01 -3.929020000000E-01  4.934020500000E-01
     36 T   6 C     4.459599800000E-01 -4.460417700000E-01  4.955750200000E-01
     37 T   8 O    -4.392633200000E-01  2.803706300000E-01  4.991703400000E-01
     38 T   8 O    -2.803183000000E-01  2.803783300000E-01 -4.939946000000E-01
     39 T   8 O    -2.803205800000E-01  4.393234600000E-01  4.956935800000E-01
     40 T   8 O     2.803245100000E-01 -2.803488900000E-01  4.991703800000E-01
     41 T   8 O     2.803439700000E-01 -4.393043900000E-01 -4.939946000000E-01
     42 T   8 O     4.392638400000E-01 -2.803645800000E-01  4.956935500000E-01

 T = ATOM BELONGING TO THE ASYMMETRIC UNIT

 ****    1 SYMMOPS - TRANSLATORS IN FRACTIONAL UNITS
 **** MATRICES AND TRANSLATORS IN THE CRYSTALLOGRAPHIC REFERENCE FRAME
   V INV                    ROTATION MATRICES                   TRANSLATORS
   1   1  1.00 -0.00  0.00  0.00  1.00  0.00  0.00  0.00  1.00  0.00  0.00  0.00

 DIRECT LATTICE VECTORS CARTESIAN COMPONENTS (ANGSTROM)
          X                    Y                    Z
   0.130113578931E+02  -0.751088897922E+01   0.000000000000E+00
   0.000000000000E+00   0.150239160000E+02   0.000000000000E+00
  -0.658964631631E-05  -0.174759817995E-04   0.309999999994E+01


 CARTESIAN COORDINATES - PRIMITIVE CELL
 *******************************************************************************
 *      ATOM          X(ANGSTROM)         Y(ANGSTROM)         Z(ANGSTROM)
 *******************************************************************************
    1     5 B    -5.026537470443E+00  6.316821128183E+00 -1.545223271972E+00
    2     5 B    -2.957007353267E+00  7.511870695235E+00 -1.545223209972E+00
    3     5 B    -5.026599597239E+00 -6.317639810451E+00  1.544733595972E+00
    4     5 B     2.956902675495E+00 -7.511622289542E+00 -1.545223240972E+00
    5     5 B     5.027113416803E+00  6.316939365344E+00 -1.545223271972E+00
    6     5 B     5.026850264528E+00 -6.315951966183E+00  1.544733595972E+00
    7     1 H    -1.261537420912E+00  5.369559079543E+00  1.533955205972E+00
    8     1 H     1.257343200709E+00 -5.367407021908E+00  1.530771257972E+00
    9     1 H    -1.262476833142E+00 -5.369859448401E+00  1.530281240972E+00
   10     1 H     1.258665806020E+00  5.368393125255E+00  1.530403442972E+00
   11     1 H    -4.020084760242E+00  3.778011739848E+00 -1.533955081972E+00
   12     1 H     4.019598404670E+00 -3.771077943006E+00 -1.530770885972E+00
   13     1 H     5.280922950847E+00 -1.590365060740E+00 -1.530280558972E+00
   14     1 H    -5.278545775366E+00  1.594982832937E+00 -1.530403628972E+00
   15     1 H    -4.019566403499E+00 -3.778585744541E+00  1.533955391972E+00
   16     1 H     4.020009691475E+00  3.773253869201E+00  1.530771040972E+00
   17     1 H     5.280533650886E+00  1.591502475489E+00  1.530280837972E+00
   18     1 H    -5.278829813965E+00 -1.595794569490E+00  1.530403845972E+00
   19     6 C    -1.406657151145E+00  7.511811712227E+00  1.544366090972E+00
   20     6 C    -6.962526027245E-01  6.303084014794E+00  1.534445222972E+00
   21     6 C     6.946486766208E-01 -6.302615943965E+00  1.533588165972E+00
   22     6 C    -6.967340266120E-01 -6.303107450693E+00  1.536160204972E+00
   23     6 C     6.951459793117E-01  6.303134133293E+00  1.529546106972E+00
   24     6 C     1.405690364421E+00 -7.511585470094E+00  1.536282561972E+00
   25     6 C     7.208808463328E+00 -2.536206010611E+00 -1.544365842972E+00
   26     6 C    -5.111146320212E+00  3.755072151390E+00 -1.534445129972E+00
   27     6 C     5.110847335222E+00 -3.751586759951E+00 -1.533587762972E+00
   28     6 C     5.806810692009E+00 -2.546682940216E+00 -1.536159708972E+00
   29     6 C    -5.806746534946E+00  2.550068664690E+00 -1.529546106972E+00
   30     6 C     5.802130897176E+00 -4.972008581978E+00 -1.536282344972E+00
   31     6 C     7.208872809535E+00  2.537403571433E+00  1.544366090972E+00
   32     6 C    -5.110731666074E+00 -3.756097006398E+00  1.534445408972E+00
   33     6 C     5.111162195890E+00  3.752789734288E+00  1.533587979972E+00
   34     6 C     5.806799997568E+00  2.547718701133E+00  1.536159925972E+00
   35     6 C    -5.806413311081E+00 -2.551148183283E+00  1.529546354972E+00
   36     6 C     5.802541640096E+00  4.973057355415E+00  1.536282561972E+00
   37     8 O     7.295942337888E+00  6.251204408774E-04  1.547428053972E+00
   38     8 O    -3.647318470024E+00  6.317828741324E+00 -1.531383259972E+00
   39     8 O    -3.647354657615E+00 -6.318109147893E+00  1.536650097972E+00
   40     8 O     3.647399236449E+00 -6.317433170309E+00  1.547428177972E+00
   41     8 O     3.647658982080E+00  6.318219944587E+00 -1.531383259972E+00
   42     8 O    -7.295942127783E+00 -5.555176345801E-04  1.536650004972E+00

 *******************************************************************************
 STARTING BASIS SET HANDLING 
 *******************************************************************************

 Loading internal basis set: SOLDEF2MSVP         

 Please cite in your publication:
 L. Dona', J. G. Brandenburg and B. Civalleri, J. Chem. Phys., 151, 121101 (2019
 )                                                                              
                                                                                
                    

 *******************************************************************************
 LOCAL ATOMIC FUNCTIONS BASIS SET
 *******************************************************************************
   ATOM   X(AU)   Y(AU)   Z(AU)  N. TYPE  EXPONENT  S COEF   P COEF   D/F/G COEF
 *******************************************************************************
   1 B   -9.499  11.937  -2.920
                                  1 S  
                                         2.410E+03 1.755E-03 0.000E+00 0.000E+00
                                         3.619E+02 1.344E-02 0.000E+00 0.000E+00
                                         8.231E+01 6.637E-02 0.000E+00 0.000E+00
                                         2.311E+01 2.303E-01 0.000E+00 0.000E+00
                                         7.252E+00 5.150E-01 0.000E+00 0.000E+00
                                  2 S  
                                         2.367E+00 1.000E+00 0.000E+00 0.000E+00
                                  3 S  
                                         5.533E-01 1.000E+00 0.000E+00 0.000E+00
                                  4 S  
                                         1.716E-01 1.000E+00 0.000E+00 0.000E+00
                           5-     7 P  
                                         6.002E+00 0.000E+00-3.555E-02 0.000E+00
                                         1.240E+00 0.000E+00-1.983E-01 0.000E+00
                                         3.367E-01 0.000E+00-5.048E-01 0.000E+00
                           8-    10 P  
                                         1.256E-01 0.000E+00 1.000E+00 0.000E+00
                          11-    15 D  
                                         8.880E-01 0.000E+00 0.000E+00 1.000E+00
   2 B   -5.588  14.195  -2.920
   3 B   -9.499 -11.939   2.919
   4 B    5.588 -14.195  -2.920
   5 B    9.500  11.937  -2.920
   6 B    9.499 -11.935   2.919
   7 H   -2.384  10.147   2.899
                                 91 S  
                                         1.874E+01 1.968E-02 0.000E+00 0.000E+00
                                         2.826E+00 1.380E-01 0.000E+00 0.000E+00
                                         6.401E-01 4.783E-01 0.000E+00 0.000E+00
                                 92 S  
                                         1.756E-01 1.000E+00 0.000E+00 0.000E+00
   8 H    2.376 -10.143   2.893
   9 H   -2.386 -10.148   2.892
  10 H    2.379  10.145   2.892
  11 H   -7.597   7.139  -2.899
  12 H    7.596  -7.126  -2.893
  13 H    9.979  -3.005  -2.892
  14 H   -9.975   3.014  -2.892
  15 H   -7.596  -7.140   2.899
  16 H    7.597   7.130   2.893
  17 H    9.979   3.008   2.892
  18 H   -9.976  -3.016   2.892
  19 C   -2.658  14.195   2.918
                                115 S  
                                         3.624E+03 1.634E-03 0.000E+00 0.000E+00
                                         5.440E+02 1.252E-02 0.000E+00 0.000E+00
                                         1.237E+02 6.211E-02 0.000E+00 0.000E+00
                                         3.476E+01 2.182E-01 0.000E+00 0.000E+00
                                         1.093E+01 4.980E-01 0.000E+00 0.000E+00
                                116 S  
                                         3.574E+00 1.000E+00 0.000E+00 0.000E+00
                                117 S  
                                         7.742E-01 1.000E+00 0.000E+00 0.000E+00
                                118 S  
                                         2.330E-01 1.000E+00 0.000E+00 0.000E+00
                         119-   121 P  
                                         9.443E+00 0.000E+00 3.790E-02 0.000E+00
                                         2.002E+00 0.000E+00 2.082E-01 0.000E+00
                                         5.463E-01 0.000E+00 5.047E-01 0.000E+00
                         122-   124 P  
                                         1.820E-01 0.000E+00 1.000E+00 0.000E+00
                         125-   129 D  
                                         8.880E-01 0.000E+00 0.000E+00 1.000E+00
  20 C   -1.316  11.911   2.900
  21 C    1.313 -11.910   2.898
  22 C   -1.317 -11.911   2.903
  23 C    1.314  11.911   2.890
  24 C    2.656 -14.195   2.903
  25 C   13.623  -4.793  -2.918
  26 C   -9.659   7.096  -2.900
  27 C    9.658  -7.089  -2.898
  28 C   10.973  -4.813  -2.903
  29 C  -10.973   4.819  -2.890
  30 C   10.964  -9.396  -2.903
  31 C   13.623   4.795   2.918
  32 C   -9.658  -7.098   2.900
  33 C    9.659   7.092   2.898
  34 C   10.973   4.814   2.903
  35 C  -10.973  -4.821   2.890
  36 C   10.965   9.398   2.903
  37 O   13.787   0.001   2.924
                                385 S  
                                         6.773E+03 1.727E-03 0.000E+00 0.000E+00
                                         1.017E+03 1.325E-02 0.000E+00 0.000E+00
                                         2.313E+02 6.603E-02 0.000E+00 0.000E+00
                                         6.501E+01 2.353E-01 0.000E+00 0.000E+00
                                         2.050E+01 5.498E-01 0.000E+00 0.000E+00
                                386 S  
                                         6.716E+00 1.000E+00 0.000E+00 0.000E+00
                                387 S  
                                         1.147E+00 1.000E+00 0.000E+00 0.000E+00
                                388 S  
                                         3.342E-01 1.000E+00 0.000E+00 0.000E+00
                         389-   391 P  
                                         1.769E+01 0.000E+00 4.359E-02 0.000E+00
                                         3.854E+00 0.000E+00 2.318E-01 0.000E+00
                                         1.047E+00 0.000E+00 5.146E-01 0.000E+00
                         392-   394 P  
                                         2.759E-01 0.000E+00 1.000E+00 0.000E+00
                         395-   399 D  
                                         8.000E-01 0.000E+00 0.000E+00 1.000E+00
  38 O   -6.892  11.939  -2.894
  39 O   -6.893 -11.939   2.904
  40 O    6.893 -11.938   2.924
  41 O    6.893  11.940  -2.894
  42 O  -13.787  -0.001   2.904

 *******************************************************************************
 FINISHED BASIS SET HANDLING 
 *******************************************************************************

 INFORMATION **** SET_MPP **** PCRYSTAL CALCULATION
 INFORMATION **** READM2 **** NEW DEFAULT: FOCK/KS MATRIX MIXING SET TO 30 %
 INFORMATION **** READM2 **** NEW DEFAULT: FULL DIRECT SCF MODE
 INFORMATION **** READM2 **** NEW DEFAULT: COULOMB BIPOLAR BUFFER SET TO 32 Mb
 INFORMATION **** READM2 **** NEW DEFAULT: EXCHANGE BIPOLAR BUFFER SET TO 32 Mb

 *******************************************************************************
 NEW DEFAULT: DFT INTEGRATION GRID INCREASED TO XLGRID
 NEW DEFAULT: DIIS ACCELERATOR ACTIVE
 USE KEYWORD NODIIS TO TURN IT OFF
 *******************************************************************************

 WARNING **** RDDFTP **** HSEsol-HJS ACTIVE
 RANGE SEPARATION - OMEGA:   0.110000000000000     
 WARNING **** RDDFTP **** HSEsol-3c has to be combined with sol-def2-mSVP basis set
 *******************************************************************************
 N. OF ATOMS PER CELL        42  COULOMB OVERLAP TOL         (T1) 10**   -6
 NUMBER OF SHELLS           234  COULOMB PENETRATION TOL     (T2) 10**   -6
 NUMBER OF AO               474  EXCHANGE OVERLAP TOL        (T3) 10**   -6
 N. OF ELECTRONS PER CELL   198  EXCHANGE PSEUDO OVP (F(G))  (T4) 10**   -6
 CORE ELECTRONS PER CELL     60  EXCHANGE PSEUDO OVP (P(G))  (T5) 10**  -12
 N. OF SYMMETRY OPERATORS     1  POLE ORDER IN MONO ZONE                  4
 *******************************************************************************
 TYPE OF CALCULATION :  RESTRICTED CLOSED SHELL
 KOHN-SHAM HAMILTONIAN

 (EXCHANGE)[CORRELATION] FUNCTIONAL:(HSEsol GGA)[PBEsol]

 RANGE-SEPARATED HYBRID FUNCTIONAL 
 OMEGA (SHORT-RANGE)[LONG-RANGE]:(    0.1100)[    0.0000]

 HYBRID EXCHANGE - PERCENTAGE OF FOCK EXCHANGE    25.0000

 CAPPA:IS1  2;IS2  2;IS3  8; K PTS MONK NET  20; SYMMOPS:K SPACE   2;G SPACE   1

 *******************************************************************************
 MAX NUMBER OF SCF CYCLES      50  CONVERGENCE ON DELTAP        10**-16
 WEIGHT OF F(I) IN F(I+1)      30% CONVERGENCE ON ENERGY        10**- 6
 SHRINK. FACT.(MONKH.)    2  2  8  NUMBER OF K POINTS IN THE IBZ     20
 SHRINKING FACTOR(GILAT NET)    8  NUMBER OF K POINTS(GILAT NET)   1028
 *******************************************************************************
 *** K POINTS COORDINATES (OBLIQUE COORDINATES IN UNITS OF IS =  2)
   1-R(  0  0  0)   2-R(  1  0  0)   3-R(  0  1  0)   4-R(  1  1  0)
   5-C(  0  0  1)   6-C(  1  0  1)   7-C(  0  1  1)   8-C(  1  1  1)
   9-C(  0  0  2)  10-C(  1  0  2)  11-C(  0  1  2)  12-C(  1  1  2)
  13-C(  0  0  3)  14-C(  1  0  3)  15-C(  0  1  3)  16-C(  1  1  3)
  17-R(  0  0  4)  18-R(  1  0  4)  19-R(  0  1  4)  20-R(  1  1  4)

 DIRECT LATTICE VECTORS COMPON. (A.U.)     RECIP. LATTICE VECTORS COMPON. (A.U.) 
        X            Y            Z              X            Y            Z
   24.5879030  -14.1935232    0.0000000      0.2555397    0.0000000    0.0000005
    0.0000000   28.3910867    0.0000000      0.1277517    0.2213084    0.0000015
   -0.0000125   -0.0000330    5.8581510      0.0000000    0.0000000    1.0725543

 DISK SPACE FOR EIGENVECTORS (FTN 10)     7189632 REALS

 SYMMETRY ADAPTION OF THE BLOCH FUNCTIONS DISABLED
 TTTTTTTTTTTTTTTTTTTTTTTTTTTTTT gordsh1     TELAPSE        0.04 TCPU        0.04

 MATRIX SIZE: P(G)  442164, F(G)   89683, P(G) IRR  223611, F(G) IRR   90751
 MAX G-VECTOR INDEX FOR 1- AND 2-ELECTRON INTEGRALS 137

 TTTTTTTTTTTTTTTTTTTTTTTTTTTTTT INPUT       TELAPSE        0.29 TCPU        0.29

 NEIGHBORS OF THE NON-EQUIVALENT ATOMS

 N = NUMBER OF NEIGHBORS AT DISTANCE R
    ATOM  N     R/ANG      R/AU   NEIGHBORS (ATOM LABELS AND CELL INDICES)
   1 B    1     1.3791     2.6061   37 O   -1 0-1
   1 B    1     1.3793     2.6065   38 O    0 0 0
   1 B    1     1.5503     2.9297   25 C   -1 0 0
   1 B    1     2.3895     4.5155    3 B    0 1-1
   1 B    1     2.3898     4.5160    2 B    0 0 0
   1 B    1     2.5632     4.8437   26 C    0 0 0

   2 B    1     1.3793     2.6065   39 O    0 1-1
   2 B    1     1.3793     2.6065   38 O    0 0 0
   2 B    1     1.5504     2.9298   19 C    0 0-1
   2 B    1     2.3895     4.5156    3 B    0 1-1
   2 B    1     2.3898     4.5160    1 B    0 0 0
   2 B    1     2.5634     4.8440   22 C    0 1-1

   3 B    1     1.3791     2.6061   37 O   -1-1 0
   3 B    1     1.3793     2.6064   39 O    0 0 0
   3 B    1     1.5502     2.9294   31 C   -1-1 0
   3 B    1     2.3895     4.5155    1 B    0-1 1
   3 B    1     2.3895     4.5156    2 B    0-1 1
   3 B    1     2.5629     4.8433   32 C    0 0 0

   4 B    1     1.3795     2.6068   40 O    0 0-1
   4 B    1     1.3795     2.6070   41 O    0-1 0
   4 B    1     1.5513     2.9316   24 C    0 0-1
   4 B    1     2.3905     4.5174    6 B    0 0-1
   4 B    1     2.3905     4.5175    5 B    0-1 0
   4 B    1     2.5648     4.8468   23 C    0-1-1

   5 B    1     1.3795     2.6069   41 O    0 0 0
   5 B    1     1.3797     2.6072   42 O    1 1-1
   5 B    1     1.5516     2.9322   36 C    0 0-1
   5 B    1     2.3905     4.5175    4 B    0 1 0
   5 B    1     2.3911     4.5185    6 B    0 1-1
   5 B    1     2.5651     4.8473   35 C    1 1-1

   6 B    1     1.3795     2.6068   40 O    0 0 0
   6 B    1     1.3796     2.6071   42 O    1 0 0
   6 B    1     1.5516     2.9322   30 C    0 0 1
   6 B    1     2.3905     4.5174    4 B    0 0 1
   6 B    1     2.3911     4.5185    5 B    0-1 1
   6 B    1     2.5651     4.8473   29 C    1 0 1

   7 H    1     1.0913     2.0623   20 C    0 0 0
   7 H    1     2.1472     4.0576   19 C    0 0 0
   7 H    1     2.1680     4.0969   23 C    0 0 0
   7 H    1     2.5202     4.7625   10 H    0 0 0
   7 H    1     2.5676     4.8520   38 O    0 0 1
   7 H    1     2.7321     5.1630    2 B    0 0 1

   8 H    1     1.0914     2.0625   21 C    0 0 0
   8 H    1     2.1493     4.0616   24 C    0 0 0
   8 H    1     2.1666     4.0942   22 C    0 0 0
   8 H    1     2.5198     4.7618    9 H    0 0 0
   8 H    1     2.5720     4.8604   40 O    0 0 0
   8 H    1     2.7362     5.1707    4 B    0 0 1

   9 H    1     1.0914     2.0624   22 C    0 0 0
   9 H    1     2.1471     4.0575   19 C    0-1 0
   9 H    1     2.1680     4.0970   21 C    0 0 0
   9 H    1     2.5198     4.7618    8 H    0 0 0
   9 H    1     2.5665     4.8500   39 O    0 0 0
   9 H    1     2.7315     5.1618    2 B    0-1 1

  10 H    1     1.0915     2.0626   23 C    0 0 0
  10 H    1     2.1490     4.0610   24 C    0 1 0
  10 H    1     2.1669     4.0948   20 C    0 0 0
  10 H    1     2.5202     4.7625    7 H    0 0 0
  10 H    1     2.5712     4.8588   41 O    0 0 1
  10 H    1     2.7351     5.1686    4 B    0 1 1

  11 H    1     1.0913     2.0623   26 C    0 0 0
  11 H    1     2.1469     4.0571   25 C   -1 0 0
  11 H    1     2.1680     4.0968   29 C    0 0 0
  11 H    1     2.5198     4.7617   14 H    0 0 0
  11 H    1     2.5670     4.8510   38 O    0 0 0
  11 H    1     2.7310     5.1609    1 B    0 0 0

  12 H    1     1.0914     2.0625   27 C    0 0 0
  12 H    1     2.1493     4.0617   30 C    0 0 0
  12 H    1     2.1664     4.0939   28 C    0 0 0
  12 H    1     2.5192     4.7606   13 H    0 0 0
  12 H    1     2.5735     4.8632   40 O    0 0-1
  12 H    1     2.7371     5.1723    6 B    0 0-1

  13 H    1     1.0914     2.0624   28 C    0 0 0
  13 H    1     2.1475     4.0581   25 C    0 0 0
  13 H    1     2.1679     4.0967   27 C    0 0 0
  13 H    1     2.5192     4.7606   12 H    0 0 0
  13 H    1     2.5675     4.8519   37 O    0 0-1
  13 H    1     2.7328     5.1643    1 B    1 0 0

  14 H    1     1.0914     2.0625   29 C    0 0 0
  14 H    1     2.1491     4.0612   30 C   -1 0 0
  14 H    1     2.1666     4.0942   26 C    0 0 0
  14 H    1     2.5198     4.7617   11 H    0 0 0
  14 H    1     2.5723     4.8609   42 O    0 0-1
  14 H    1     2.7355     5.1693    6 B   -1 0-1

  15 H    1     1.0914     2.0624   32 C    0 0 0
  15 H    1     2.1475     4.0582   31 C   -1-1 0
  15 H    1     2.1678     4.0966   35 C    0 0 0
  15 H    1     2.5200     4.7621   18 H    0 0 0
  15 H    1     2.5667     4.8503   39 O    0 0 0
  15 H    1     2.7315     5.1618    3 B    0 0 0

  16 H    1     1.0913     2.0623   33 C    0 0 0
  16 H    1     2.1487     4.0605   36 C    0 0 0
  16 H    1     2.1667     4.0945   34 C    0 0 0
  16 H    1     2.5197     4.7616   17 H    0 0 0
  16 H    1     2.5723     4.8610   41 O    0 0 1
  16 H    1     2.7359     5.1701    5 B    0 0 1

  17 H    1     1.0915     2.0626   34 C    0 0 0
  17 H    1     2.1479     4.0589   31 C    0 0 0
  17 H    1     2.1679     4.0968   33 C    0 0 0
  17 H    1     2.5197     4.7616   16 H    0 0 0
  17 H    1     2.5677     4.8522   37 O    0 0 0
  17 H    1     2.7331     5.1648    3 B    1 1 0

  18 H    1     1.0914     2.0624   35 C    0 0 0
  18 H    1     2.1486     4.0602   36 C   -1-1 0
  18 H    1     2.1668     4.0947   32 C    0 0 0
  18 H    1     2.5200     4.7621   15 H    0 0 0
  18 H    1     2.5717     4.8598   42 O    0 0 0
  18 H    1     2.7349     5.1682    5 B   -1-1 1

  19 C    1     1.4020     2.6495   22 C    0 1 0
  19 C    1     1.4021     2.6495   20 C    0 0 0
  19 C    1     1.5504     2.9298    2 B    0 0 1
  19 C    1     2.1471     4.0575    9 H    0 1 0
  19 C    1     2.1472     4.0576    7 H    0 0 0
  19 C    1     2.4246     4.5817   21 C    0 1 0

  20 C    1     1.0913     2.0623    7 H    0 0 0
  20 C    1     1.3914     2.6294   23 C    0 0 0
  20 C    1     1.4021     2.6495   19 C    0 0 0
  20 C    1     2.1669     4.0948   10 H    0 0 0
  20 C    1     2.4177     4.5688   22 C    0 1 0
  20 C    1     2.4250     4.5825   24 C    0 1 0

  21 C    1     1.0914     2.0625    8 H    0 0 0
  21 C    1     1.3914     2.6293   22 C    0 0 0
  21 C    1     1.4026     2.6505   24 C    0 0 0
  21 C    1     2.1680     4.0970    9 H    0 0 0
  21 C    1     2.4182     4.5697   23 C    0-1 0
  21 C    1     2.4246     4.5817   19 C    0-1 0

  22 C    1     1.0914     2.0624    9 H    0 0 0
  22 C    1     1.3914     2.6293   21 C    0 0 0
  22 C    1     1.4020     2.6495   19 C    0-1 0
  22 C    1     2.1666     4.0942    8 H    0 0 0
  22 C    1     2.4177     4.5688   20 C    0-1 0
  22 C    1     2.4250     4.5826   24 C    0 0 0

  23 C    1     1.0915     2.0626   10 H    0 0 0
  23 C    1     1.3914     2.6294   20 C    0 0 0
  23 C    1     1.4025     2.6504   24 C    0 1 0
  23 C    1     2.1680     4.0969    7 H    0 0 0
  23 C    1     2.4182     4.5697   21 C    0 1 0
  23 C    1     2.4246     4.5818   19 C    0 0 0

  24 C    1     1.4025     2.6504   23 C    0-1 0
  24 C    1     1.4026     2.6505   21 C    0 0 0
  24 C    1     1.5513     2.9316    4 B    0 0 1
  24 C    1     2.1490     4.0610   10 H    0-1 0
  24 C    1     2.1493     4.0616    8 H    0 0 0
  24 C    1     2.4250     4.5825   20 C    0-1 0

  25 C    1     1.4020     2.6494   26 C    1 0 0
  25 C    1     1.4021     2.6495   28 C    0 0 0
  25 C    1     1.5503     2.9297    1 B    1 0 0
  25 C    1     2.1469     4.0571   11 H    1 0 0
  25 C    1     2.1475     4.0581   13 H    0 0 0
  25 C    1     2.4246     4.5818   27 C    0 0 0

  26 C    1     1.0913     2.0623   11 H    0 0 0
  26 C    1     1.3914     2.6293   29 C    0 0 0
  26 C    1     1.4020     2.6494   25 C   -1 0 0
  26 C    1     2.1666     4.0942   14 H    0 0 0
  26 C    1     2.4175     4.5684   28 C   -1 0 0
  26 C    1     2.4251     4.5828   30 C   -1 0 0

  27 C    1     1.0914     2.0625   12 H    0 0 0
  27 C    1     1.3915     2.6295   28 C    0 0 0
  27 C    1     1.4026     2.6505   30 C    0 0 0
  27 C    1     2.1679     4.0967   13 H    0 0 0
  27 C    1     2.4179     4.5691   29 C    1 0 0
  27 C    1     2.4246     4.5818   25 C    0 0 0

  28 C    1     1.0914     2.0624   13 H    0 0 0
  28 C    1     1.3915     2.6295   27 C    0 0 0
  28 C    1     1.4021     2.6495   25 C    0 0 0
  28 C    1     2.1664     4.0939   12 H    0 0 0
  28 C    1     2.4175     4.5684   26 C    1 0 0
  28 C    1     2.4253     4.5832   30 C    0 0 0

  29 C    1     1.0914     2.0625   14 H    0 0 0
  29 C    1     1.3914     2.6293   26 C    0 0 0
  29 C    1     1.4025     2.6504   30 C   -1 0 0
  29 C    1     2.1680     4.0968   11 H    0 0 0
  29 C    1     2.4179     4.5691   27 C   -1 0 0
  29 C    1     2.4247     4.5819   25 C   -1 0 0

  30 C    1     1.4025     2.6504   29 C    1 0 0
  30 C    1     1.4026     2.6505   27 C    0 0 0
  30 C    1     1.5516     2.9322    6 B    0 0-1
  30 C    1     2.1491     4.0612   14 H    1 0 0
  30 C    1     2.1493     4.0617   12 H    0 0 0
  30 C    1     2.4251     4.5828   26 C    1 0 0

  31 C    1     1.4021     2.6496   32 C    1 1 0
  31 C    1     1.4021     2.6497   34 C    0 0 0
  31 C    1     1.5502     2.9294    3 B    1 1 0
  31 C    1     2.1475     4.0582   15 H    1 1 0
  31 C    1     2.1479     4.0589   17 H    0 0 0
  31 C    1     2.4244     4.5814   33 C    0 0 0

  32 C    1     1.0914     2.0624   15 H    0 0 0
  32 C    1     1.3914     2.6293   35 C    0 0 0
  32 C    1     1.4021     2.6496   31 C   -1-1 0
  32 C    1     2.1668     4.0947   18 H    0 0 0
  32 C    1     2.4179     4.5692   34 C   -1-1 0
  32 C    1     2.4251     4.5827   36 C   -1-1 0

  33 C    1     1.0913     2.0623   16 H    0 0 0
  33 C    1     1.3914     2.6294   34 C    0 0 0
  33 C    1     1.4025     2.6504   36 C    0 0 0
  33 C    1     2.1679     4.0968   17 H    0 0 0
  33 C    1     2.4178     4.5690   35 C    1 1 0
  33 C    1     2.4244     4.5814   31 C    0 0 0

  34 C    1     1.0915     2.0626   17 H    0 0 0
  34 C    1     1.3914     2.6294   33 C    0 0 0
  34 C    1     1.4021     2.6497   31 C    0 0 0
  34 C    1     2.1667     4.0945   16 H    0 0 0
  34 C    1     2.4179     4.5692   32 C    1 1 0
  34 C    1     2.4253     4.5832   36 C    0 0 0

  35 C    1     1.0914     2.0624   18 H    0 0 0
  35 C    1     1.3914     2.6293   32 C    0 0 0
  35 C    1     1.4025     2.6503   36 C   -1-1 0
  35 C    1     2.1678     4.0966   15 H    0 0 0
  35 C    1     2.4178     4.5690   33 C   -1-1 0
  35 C    1     2.4245     4.5817   31 C   -1-1 0

  36 C    1     1.4025     2.6503   35 C    1 1 0
  36 C    1     1.4025     2.6504   33 C    0 0 0
  36 C    1     1.5516     2.9322    5 B    0 0 1
  36 C    1     2.1486     4.0602   18 H    1 1 0
  36 C    1     2.1487     4.0605   16 H    0 0 0
  36 C    1     2.4251     4.5827   32 C    1 1 0

  37 O    1     1.3791     2.6061    1 B    1 0 1
  37 O    1     1.3791     2.6061    3 B    1 1 0
  37 O    1     2.3880     4.5126   38 O    1 0 1
  37 O    1     2.3882     4.5130   39 O    1 1 0
  37 O    1     2.5383     4.7966   31 C    0 0 0
  37 O    1     2.5384     4.7968   25 C    0 0 1

  38 O    1     1.3793     2.6065    1 B    0 0 0
  38 O    1     1.3793     2.6065    2 B    0 0 0
  38 O    1     2.3880     4.5126   37 O   -1 0-1
  38 O    1     2.3882     4.5131   39 O    0 1-1
  38 O    1     2.5391     4.7981   19 C    0 0-1
  38 O    1     2.5395     4.7990   25 C   -1 0 0

  39 O    1     1.3793     2.6064    3 B    0 0 0
  39 O    1     1.3793     2.6065    2 B    0-1 1
  39 O    1     2.3882     4.5130   37 O   -1-1 0
  39 O    1     2.3882     4.5131   38 O    0-1 1
  39 O    1     2.5390     4.7980   19 C    0-1 0
  39 O    1     2.5391     4.7982   31 C   -1-1 0

  40 O    1     1.3795     2.6068    6 B    0 0 0
  40 O    1     1.3795     2.6068    4 B    0 0 1
  40 O    1     2.3880     4.5126   42 O    1 0 0
  40 O    1     2.3884     4.5134   41 O    0-1 1
  40 O    1     2.5400     4.7998   24 C    0 0 0
  40 O    1     2.5403     4.8005   30 C    0 0 1

  41 O    1     1.3795     2.6069    5 B    0 0 0
  41 O    1     1.3795     2.6070    4 B    0 1 0
  41 O    1     2.3881     4.5128   42 O    1 1-1
  41 O    1     2.3884     4.5134   40 O    0 1-1
  41 O    1     2.5404     4.8006   24 C    0 1-1
  41 O    1     2.5405     4.8008   36 C    0 0-1

  42 O    1     1.3796     2.6071    6 B   -1 0 0
  42 O    1     1.3797     2.6072    5 B   -1-1 1
  42 O    1     2.3880     4.5126   40 O   -1 0 0
  42 O    1     2.3881     4.5128   41 O   -1-1 1
  42 O    1     2.5409     4.8016   36 C   -1-1 0
  42 O    1     2.5410     4.8019   30 C   -1 0 1


 SYMMETRY ALLOWED INTERNAL DEGREE(S) OF FREEDOM: 123
 TTTTTTTTTTTTTTTTTTTTTTTTTTTTTT SYMM        TELAPSE        0.29 TCPU        0.29
 TTTTTTTTTTTTTTTTTTTTTTTTTTTTTT INT_SCREEN  TELAPSE        0.32 TCPU        0.32

 DFT PARAMETERS

     ATOM       ELECTRONS   NET CHARGE   R(ANGSTROM)
   1   5  B       5.0000      0.0000     0.89000000
   7   1  H       1.0000      0.0000     1.11000000
  19   6  C       6.0000      0.0000     0.77000000
  37   8  O       8.0000      0.0000     0.74000000

 SIZE OF GRID=    1208064
 TTTTTTTTTTTTTTTTTTTTTTTTTTTTTT MAKE_GRID2  TELAPSE       14.15 TCPU       14.14
 BECKE WEIGHT FUNCTION
 RADSAFE =     2.00
 TOLERANCES - DENSITY:10**- 6; POTENTIAL:10**- 9; GRID WGT:10**-14

 RADIAL INTEGRATION  - INTERVALS (POINTS,UPPER LIMIT):            1( 75,  4.0*R)

 ANGULAR INTEGRATION - INTERVALS (ACCURACY LEVEL [N. POINTS] UPPER LIMIT):
  1(  4[  86]   0.2)  2(  8[ 194]   0.5)  3( 12[ 350]   0.9)  4( 16[ 974]   3.5)
  5( 12[ 350]9999.0)
 TTTTTTTTTTTTTTTTTTTTTTTTTTTTTT INT_CALC    TELAPSE       14.28 TCPU       14.27
 EEEEEEEEEE INT_CALC TERMINATION  DATE 19 02 2026 TIME 17:49:07.1

 *******************************************************************************
 cof-1_z31_L000_incl                                                             
 CRYSTAL - SCF - TYPE OF CALCULATION :  RESTRICTED CLOSED SHELL
 *******************************************************************************

 CAPPA:IS1  2;IS2  2;IS3  8; K PTS MONK NET  20; SYMMOPS:K SPACE   2;G SPACE   1

 TTTTTTTTTTTTTTTTTTTTTTTTTTTTTT SDIK        TELAPSE       14.87 TCPU       22.20

 AAAAAAAAAAAAAAAAAAAAAAAAAAAAAAAAAAAAAAAAAAAAAAAAAAAAAAAAAAAAAAAAAAAAAAAAAAAAAAA
         ATOMIC WAVEFUNCTION(S)


 NUCLEAR CHARGE  5.0  SYMMETRY SPECIES            S    P
 N. ELECTRONS    5.0  NUMBER OF PRIMITIVE GTOS    8    4
                      NUMBER OF CONTRACTED GTOS   4    2
                      NUMBER OF CLOSED SHELLS     2    0
                      OPEN SHELL OCCUPATION       0    1

  ZNUC  SCFIT    TOTAL HF ENERGY   KINETIC ENERGY   VIRIAL THEOREM ACCURACY
   5.0    11    -2.451164084E+01  2.462155050E+01 -1.995536038E+00  1.5E-06

 NUCLEAR CHARGE  1.0  SYMMETRY SPECIES            S
 N. ELECTRONS    1.0  NUMBER OF PRIMITIVE GTOS    4
                      NUMBER OF CONTRACTED GTOS   2
                      NUMBER OF CLOSED SHELLS     0
                      OPEN SHELL OCCUPATION       1

  ZNUC  SCFIT    TOTAL HF ENERGY   KINETIC ENERGY   VIRIAL THEOREM ACCURACY
   1.0     1    -4.977266687E-01  5.190767460E-01 -1.958869132E+00  0.0E+00

 NUCLEAR CHARGE  6.0  SYMMETRY SPECIES            S    P
 N. ELECTRONS    6.0  NUMBER OF PRIMITIVE GTOS    8    4
                      NUMBER OF CONTRACTED GTOS   4    2
                      NUMBER OF CLOSED SHELLS     2    0
                      OPEN SHELL OCCUPATION       0    2

  ZNUC  SCFIT    TOTAL HF ENERGY   KINETIC ENERGY   VIRIAL THEOREM ACCURACY
   6.0     9    -3.766704647E+01  3.775180683E+01 -1.997754800E+00  1.1E-06

 NUCLEAR CHARGE  8.0  SYMMETRY SPECIES            S    P
 N. ELECTRONS    8.0  NUMBER OF PRIMITIVE GTOS    8    4
                      NUMBER OF CONTRACTED GTOS   4    2
                      NUMBER OF CLOSED SHELLS     2    0
                      OPEN SHELL OCCUPATION       0    4

  ZNUC  SCFIT    TOTAL HF ENERGY   KINETIC ENERGY   VIRIAL THEOREM ACCURACY
   8.0    12    -7.477373220E+01  7.477365593E+01 -2.000001020E+00  3.8E-06

 AAAAAAAAAAAAAAAAAAAAAAAAAAAAAAAAAAAAAAAAAAAAAAAAAAAAAAAAAAAAAAAAAAAAAAAAAAAAAAA

 CHARGE NORMALIZATION FACTOR   1.00000000
 TOTAL ATOMIC CHARGES:
   5.0000000   5.0000000   5.0000000   5.0000000   5.0000000   5.0000000
   1.0000000   1.0000000   1.0000000   1.0000000   1.0000000   1.0000000
   1.0000000   1.0000000   1.0000000   1.0000000   1.0000000   1.0000000
   6.0000000   6.0000000   6.0000000   6.0000000   6.0000000   6.0000000
   6.0000000   6.0000000   6.0000000   6.0000000   6.0000000   6.0000000
   6.0000000   6.0000000   6.0000000   6.0000000   6.0000000   6.0000000
   8.0000000   8.0000000   8.0000000   8.0000000   8.0000000   8.0000000
 TTTTTTTTTTTTTTTTTTTTTTTTTTTTTT MOQGAD      TELAPSE       14.93 TCPU       24.08
 TTTTTTTTTTTTTTTTTTTTTTTTTTTTTT SHELLXN     TELAPSE       29.50 TCPU      489.80
 TTTTTTTTTTTTTTTTTTTTTTTTTTTTTT MONMO3      TELAPSE       29.70 TCPU      496.10
 NUMERICALLY INTEGRATED DENSITY    197.9998527335
 TTTTTTTTTTTTTTTTTTTTTTTTTTTTTT NUMDFT      TELAPSE       30.39 TCPU      518.22
 CYC   0 ETOT(AU) -1.296092790298E+03 DETOT -1.30E+03 tst  0.00E+00 PX  1.00E+00
 TTTTTTTTTTTTTTTTTTTTTTTTTTTTTT DIIS        TELAPSE       30.43 TCPU      519.35
 TTTTTTTTTTTTTTTTTTTTTTTTTTTTTT FDIK        TELAPSE       30.91 TCPU      534.88
 INSULATING STATE
 TOP OF VALENCE BANDS -    BAND     99; K    1; EIG -2.6656505E-01 AU
 BOTTOM OF VIRTUAL BANDS - BAND    100; K   17; EIG -2.0408687E-01 AU
 INDIRECT ENERGY BAND GAP:   1.7001 eV
 BOTTOM OF VIRTUAL BANDS - BAND    100; K    1; EIG -1.0041620E-01 AU
 TTTTTTTTTTTTTTTTTTTTTTTTTTTTTT PDIG        TELAPSE       31.20 TCPU      541.02
 CHARGE NORMALIZATION FACTOR   1.00000000
 TOTAL ATOMIC CHARGES:
   4.0990184   4.0989312   4.0990730   4.0989954   4.0988654   4.0990430
   0.7864665   0.7865754   0.7864243   0.7865395   0.7864445   0.7866053
   0.7864360   0.7865696   0.7864246   0.7866056   0.7864165   0.7865703
   6.0639935   6.2763113   6.2762414   6.2762540   6.2761532   6.0631425
   6.0640266   6.2763007   6.2763560   6.2762064   6.2763493   6.0626259
   6.0643821   6.2760148   6.2765684   6.2759264   6.2765349   6.0625701
   8.7117713   8.7118730   8.7118013   8.7121381   8.7121665   8.7122879
 TTTTTTTTTTTTTTTTTTTTTTTTTTTTTT MOQGAD      TELAPSE       31.26 TCPU      541.08
 TTTTTTTTTTTTTTTTTTTTTTTTTTTTTT SHELLXN     TELAPSE       46.30 TCPU     1021.34
 TTTTTTTTTTTTTTTTTTTTTTTTTTTTTT MONMO3      TELAPSE       46.50 TCPU     1027.64
 NUMERICALLY INTEGRATED DENSITY    197.9999210886
 TTTTTTTTTTTTTTTTTTTTTTTTTTTTTT NUMDFT      TELAPSE       47.21 TCPU     1050.21
 CYC   1 ETOT(AU) -1.288751908782E+03 DETOT  7.34E+00 tst  0.00E+00 PX  1.00E+00
 TTTTTTTTTTTTTTTTTTTTTTTTTTTTTT DIIS        TELAPSE       47.25 TCPU     1051.58
 DIIS TEST: 0.11565E+01 AT SCF   CYCLE   1 - MIX   30 %
 TTTTTTTTTTTTTTTTTTTTTTTTTTTTTT FDIK        TELAPSE       47.74 TCPU     1067.30
 INSULATING STATE
 TOP OF VALENCE BANDS -    BAND     99; K    1; EIG -1.5501090E-01 AU
 BOTTOM OF VIRTUAL BANDS - BAND    100; K   17; EIG -1.2790413E-01 AU
 INDIRECT ENERGY BAND GAP:   0.7376 eV
 BOTTOM OF VIRTUAL BANDS - BAND    100; K    1; EIG -1.0591958E-02 AU
 TTTTTTTTTTTTTTTTTTTTTTTTTTTTTT PDIG        TELAPSE       48.02 TCPU     1073.44
 CHARGE NORMALIZATION FACTOR   1.00000000
 TOTAL ATOMIC CHARGES:
   4.6867429   4.6867223   4.6866360   4.6876020   4.6876766   4.6878344
   0.9325498   0.9326366   0.9325203   0.9325685   0.9325551   0.9326421
   0.9325381   0.9326194   0.9325056   0.9326446   0.9324916   0.9326350
   5.8613245   6.1151087   6.1156983   6.1149855   6.1157045   5.8644489
   5.8611185   6.1147919   6.1157424   6.1150504   6.1155591   5.8649049
   5.8613014   6.1150218   6.1155655   6.1153322   6.1154811   5.8646149
   8.3538590   8.3542977   8.3542411   8.3536616   8.3539210   8.3541445
 TTTTTTTTTTTTTTTTTTTTTTTTTTTTTT MOQGAD      TELAPSE       48.09 TCPU     1073.50
 TTTTTTTTTTTTTTTTTTTTTTTTTTTTTT SHELLXN     TELAPSE       63.13 TCPU     1553.74
 TTTTTTTTTTTTTTTTTTTTTTTTTTTTTT MONMO3      TELAPSE       63.33 TCPU     1560.03
 NUMERICALLY INTEGRATED DENSITY    197.9998996378
 TTTTTTTTTTTTTTTTTTTTTTTTTTTTTT NUMDFT      TELAPSE       64.03 TCPU     1582.62
 CYC   2 ETOT(AU) -1.288941136033E+03 DETOT -1.89E-01 tst  4.77E-03 PX  1.52E-01
 TTTTTTTTTTTTTTTTTTTTTTTTTTTTTT DIIS        TELAPSE       64.08 TCPU     1584.15
 DIIS TEST: 0.54661E+00 AT SCF   CYCLE   2 - DIIS ACTIVE - HISTORY:     2 CYCLES
 TTTTTTTTTTTTTTTTTTTTTTTTTTTTTT FDIK        TELAPSE       64.57 TCPU     1599.82
 INSULATING STATE
 TOP OF VALENCE BANDS -    BAND     99; K    1; EIG -1.7761198E-01 AU
 BOTTOM OF VIRTUAL BANDS - BAND    100; K   17; EIG -1.1991883E-01 AU
 INDIRECT ENERGY BAND GAP:   1.5699 eV
 BOTTOM OF VIRTUAL BANDS - BAND    100; K    1; EIG -5.6776036E-04 AU
 TTTTTTTTTTTTTTTTTTTTTTTTTTTTTT PDIG        TELAPSE       64.85 TCPU     1605.95
 CHARGE NORMALIZATION FACTOR   1.00000000
 TOTAL ATOMIC CHARGES:
   4.4439080   4.4437458   4.4438448   4.4429713   4.4427979   4.4429472
   0.8968814   0.8969997   0.8968321   0.8969315   0.8968275   0.8970587
   0.8968834   0.8969628   0.8968270   0.8969948   0.8968938   0.8969417
   5.9053002   6.1736788   6.1724417   6.1736125   6.1723697   5.9024986
   5.9055558   6.1737113   6.1724119   6.1737123   6.1723145   5.9020003
   5.9057726   6.1735080   6.1725691   6.1735747   6.1724935   5.9019916
   8.5127733   8.5129338   8.5128758   8.5127771   8.5129313   8.5129422
 TTTTTTTTTTTTTTTTTTTTTTTTTTTTTT MOQGAD      TELAPSE       64.91 TCPU     1606.01
 TTTTTTTTTTTTTTTTTTTTTTTTTTTTTT SHELLXN     TELAPSE       79.96 TCPU     2086.36
 TTTTTTTTTTTTTTTTTTTTTTTTTTTTTT MONMO3      TELAPSE       80.16 TCPU     2092.65
 NUMERICALLY INTEGRATED DENSITY    197.9999026137
 TTTTTTTTTTTTTTTTTTTTTTTTTTTTTT NUMDFT      TELAPSE       80.86 TCPU     2115.21
 CYC   3 ETOT(AU) -1.289055915609E+03 DETOT -1.15E-01 tst  7.16E-04 PX  5.27E-02
 TTTTTTTTTTTTTTTTTTTTTTTTTTTTTT DIIS        TELAPSE       80.92 TCPU     2116.98
 DIIS TEST: 0.11802E-01 AT SCF   CYCLE   3 - DIIS ACTIVE - HISTORY:     3 CYCLES
 TTTTTTTTTTTTTTTTTTTTTTTTTTTTTT FDIK        TELAPSE       81.41 TCPU     2132.77
 INSULATING STATE
 TOP OF VALENCE BANDS -    BAND     99; K    1; EIG -1.8348599E-01 AU
 BOTTOM OF VIRTUAL BANDS - BAND    100; K   17; EIG -1.3239290E-01 AU
 INDIRECT ENERGY BAND GAP:   1.3903 eV
 BOTTOM OF VIRTUAL BANDS - BAND    100; K    1; EIG -1.4186695E-02 AU
 TTTTTTTTTTTTTTTTTTTTTTTTTTTTTT PDIG        TELAPSE       81.69 TCPU     2138.91
 CHARGE NORMALIZATION FACTOR   1.00000000
 TOTAL ATOMIC CHARGES:
   4.4575978   4.4575892   4.4575810   4.4596193   4.4595600   4.4597841
   0.8848116   0.8848783   0.8847718   0.8847959   0.8848278   0.8848730
   0.8848320   0.8848239   0.8847822   0.8848487   0.8847999   0.8848324
   5.9593651   6.1525965   6.1552825   6.1525124   6.1553283   5.9675902
   5.9589058   6.1522872   6.1554893   6.1522756   6.1554917   5.9680442
   5.9592885   6.1523435   6.1554499   6.1523701   6.1555161   5.9677397
   8.5000880   8.5004715   8.5004032   8.5002959   8.5005005   8.5007554
 TTTTTTTTTTTTTTTTTTTTTTTTTTTTTT MOQGAD      TELAPSE       81.76 TCPU     2138.97
 TTTTTTTTTTTTTTTTTTTTTTTTTTTTTT SHELLXN     TELAPSE       96.80 TCPU     2619.21
 TTTTTTTTTTTTTTTTTTTTTTTTTTTTTT MONMO3      TELAPSE       97.00 TCPU     2625.50
 NUMERICALLY INTEGRATED DENSITY    197.9999040125
 TTTTTTTTTTTTTTTTTTTTTTTTTTTTTT NUMDFT      TELAPSE       97.70 TCPU     2648.06
 CYC   4 ETOT(AU) -1.289057960020E+03 DETOT -2.04E-03 tst  7.62E-05 PX  1.45E-02
 TTTTTTTTTTTTTTTTTTTTTTTTTTTTTT DIIS        TELAPSE       97.76 TCPU     2649.94
 DIIS TEST: 0.45339E-02 AT SCF   CYCLE   4 - DIIS ACTIVE - HISTORY:     4 CYCLES
 TTTTTTTTTTTTTTTTTTTTTTTTTTTTTT FDIK        TELAPSE       98.25 TCPU     2665.69
 INSULATING STATE
 TOP OF VALENCE BANDS -    BAND     99; K    1; EIG -1.8470133E-01 AU
 BOTTOM OF VIRTUAL BANDS - BAND    100; K   17; EIG -1.2995372E-01 AU
 INDIRECT ENERGY BAND GAP:   1.4898 eV
 BOTTOM OF VIRTUAL BANDS - BAND    100; K    1; EIG -1.1612967E-02 AU
 TTTTTTTTTTTTTTTTTTTTTTTTTTTTTT PDIG        TELAPSE       98.53 TCPU     2671.82
 CHARGE NORMALIZATION FACTOR   1.00000000
 TOTAL ATOMIC CHARGES:
   4.4595942   4.4594434   4.4595275   4.4575999   4.4574563   4.4576169
   0.8851400   0.8853540   0.8850860   0.8852898   0.8850925   0.8854094
   0.8851156   0.8853418   0.8850750   0.8853601   0.8851126   0.8853260
   5.9347660   6.1714196   6.1678636   6.1713522   6.1678282   5.9258441
   5.9351333   6.1714028   6.1678252   6.1715728   6.1676005   5.9253596
   5.9352770   6.1712603   6.1679519   6.1715109   6.1677485   5.9253541
   8.5015386   8.5017192   8.5016390   8.5012321   8.5014272   8.5014324
 TTTTTTTTTTTTTTTTTTTTTTTTTTTTTT MOQGAD      TELAPSE       98.60 TCPU     2671.88
 TTTTTTTTTTTTTTTTTTTTTTTTTTTTTT SHELLXN     TELAPSE      113.65 TCPU     3152.33
 TTTTTTTTTTTTTTTTTTTTTTTTTTTTTT MONMO3      TELAPSE      113.84 TCPU     3158.62
 NUMERICALLY INTEGRATED DENSITY    197.9999039903
 TTTTTTTTTTTTTTTTTTTTTTTTTTTTTT NUMDFT      TELAPSE      114.55 TCPU     3181.18
 CYC   5 ETOT(AU) -1.289058892947E+03 DETOT -9.33E-04 tst  2.16E-05 PX  8.35E-03
 TTTTTTTTTTTTTTTTTTTTTTTTTTTTTT DIIS        TELAPSE      114.62 TCPU     3183.34
 DIIS TEST: 0.56647E-03 AT SCF   CYCLE   5 - DIIS ACTIVE - HISTORY:     5 CYCLES
 TTTTTTTTTTTTTTTTTTTTTTTTTTTTTT FDIK        TELAPSE      115.11 TCPU     3199.11
 INSULATING STATE
 TOP OF VALENCE BANDS -    BAND     99; K    1; EIG -1.8396902E-01 AU
 BOTTOM OF VIRTUAL BANDS - BAND    100; K   17; EIG -1.2949338E-01 AU
 INDIRECT ENERGY BAND GAP:   1.4824 eV
 BOTTOM OF VIRTUAL BANDS - BAND    100; K    1; EIG -1.1083549E-02 AU
 TTTTTTTTTTTTTTTTTTTTTTTTTTTTTT PDIG        TELAPSE      115.39 TCPU     3205.25
 CHARGE NORMALIZATION FACTOR   1.00000000
 TOTAL ATOMIC CHARGES:
   4.4564503   4.4564027   4.4564163   4.4593200   4.4592428   4.4594408
   0.8868257   0.8868081   0.8867818   0.8867338   0.8868139   0.8868287
   0.8868430   0.8867569   0.8867850   0.8867925   0.8868274   0.8867552
   5.9255609   6.1647888   6.1693737   6.1647256   6.1693387   5.9386626
   5.9252596   6.1646249   6.1694777   6.1644923   6.1695528   5.9388576
   5.9256163   6.1645995   6.1694894   6.1644910   6.1696391   5.9386376
   8.5019192   8.5022531   8.5022026   8.5023583   8.5025266   8.5027273
 TTTTTTTTTTTTTTTTTTTTTTTTTTTTTT MOQGAD      TELAPSE      115.46 TCPU     3205.31
 TTTTTTTTTTTTTTTTTTTTTTTTTTTTTT SHELLXN     TELAPSE      130.50 TCPU     3685.54
 TTTTTTTTTTTTTTTTTTTTTTTTTTTTTT MONMO3      TELAPSE      130.70 TCPU     3691.84
 NUMERICALLY INTEGRATED DENSITY    197.9999039321
 TTTTTTTTTTTTTTTTTTTTTTTTTTTTTT NUMDFT      TELAPSE      131.40 TCPU     3714.38
 CYC   6 ETOT(AU) -1.289058851527E+03 DETOT  4.14E-05 tst  9.84E-06 PX  3.38E-03
 TTTTTTTTTTTTTTTTTTTTTTTTTTTTTT DIIS        TELAPSE      131.47 TCPU     3716.65
 DIIS TEST: 0.70716E-03 AT SCF   CYCLE   6 - DIIS ACTIVE - HISTORY:     6 CYCLES
 TTTTTTTTTTTTTTTTTTTTTTTTTTTTTT FDIK        TELAPSE      131.97 TCPU     3732.41
 INSULATING STATE
 TOP OF VALENCE BANDS -    BAND     99; K    1; EIG -1.8377901E-01 AU
 BOTTOM OF VIRTUAL BANDS - BAND    100; K   17; EIG -1.2950636E-01 AU
 INDIRECT ENERGY BAND GAP:   1.4768 eV
 BOTTOM OF VIRTUAL BANDS - BAND    100; K    1; EIG -1.1090078E-02 AU
 TTTTTTTTTTTTTTTTTTTTTTTTTTTTTT PDIG        TELAPSE      132.25 TCPU     3738.55
 CHARGE NORMALIZATION FACTOR   1.00000000
 TOTAL ATOMIC CHARGES:
   4.4579363   4.4578567   4.4578939   4.4579091   4.4578093   4.4579984
   0.8870869   0.8872233   0.8870422   0.8871489   0.8870714   0.8872479
   0.8870928   0.8871830   0.8870444   0.8872077   0.8870785   0.8871783
   5.9343944   6.1658771   6.1655017   6.1657934   6.1654942   5.9342465
   5.9343028   6.1657141   6.1655992   6.1657482   6.1655199   5.9342381
   5.9345990   6.1656521   6.1656520   6.1657420   6.1656139   5.9340740
   8.5020398   8.5023148   8.5022483   8.5020413   8.5022275   8.5023567
 TTTTTTTTTTTTTTTTTTTTTTTTTTTTTT MOQGAD      TELAPSE      132.31 TCPU     3738.61
 TTTTTTTTTTTTTTTTTTTTTTTTTTTTTT SHELLXN     TELAPSE      147.36 TCPU     4219.10
 TTTTTTTTTTTTTTTTTTTTTTTTTTTTTT MONMO3      TELAPSE      147.56 TCPU     4225.39
 NUMERICALLY INTEGRATED DENSITY    197.9999039113
 TTTTTTTTTTTTTTTTTTTTTTTTTTTTTT NUMDFT      TELAPSE      148.26 TCPU     4247.93
 CYC   7 ETOT(AU) -1.289059037167E+03 DETOT -1.86E-04 tst  3.44E-06 PX  2.15E-03
 TTTTTTTTTTTTTTTTTTTTTTTTTTTTTT DIIS        TELAPSE      148.34 TCPU     4250.37
 DIIS TEST: 0.70313E-05 AT SCF   CYCLE   7 - DIIS ACTIVE - HISTORY:     7 CYCLES
 TTTTTTTTTTTTTTTTTTTTTTTTTTTTTT FDIK        TELAPSE      148.83 TCPU     4266.08
 INSULATING STATE
 TOP OF VALENCE BANDS -    BAND     99; K    1; EIG -1.8396438E-01 AU
 BOTTOM OF VIRTUAL BANDS - BAND    100; K   17; EIG -1.2962148E-01 AU
 INDIRECT ENERGY BAND GAP:   1.4787 eV
 BOTTOM OF VIRTUAL BANDS - BAND    100; K    1; EIG -1.1215112E-02 AU
 TTTTTTTTTTTTTTTTTTTTTTTTTTTTTT PDIG        TELAPSE      149.11 TCPU     4272.21
 CHARGE NORMALIZATION FACTOR   1.00000000
 TOTAL ATOMIC CHARGES:
   4.4581942   4.4580833   4.4581404   4.4583315   4.4582129   4.4583897
   0.8867752   0.8868864   0.8867255   0.8868171   0.8867438   0.8869266
   0.8867679   0.8868589   0.8867208   0.8868827   0.8867590   0.8868491
   5.9337347   6.1661527   6.1661547   6.1660850   6.1661292   5.9344852
   5.9338385   6.1660674   6.1661786   6.1661380   6.1660572   5.9342788
   5.9340657   6.1659756   6.1662593   6.1661069   6.1661770   5.9341837
   8.5016605   8.5019043   8.5018321   8.5016683   8.5018585   8.5019431
 TTTTTTTTTTTTTTTTTTTTTTTTTTTTTT MOQGAD      TELAPSE      149.17 TCPU     4272.28
 TTTTTTTTTTTTTTTTTTTTTTTTTTTTTT SHELLXN     TELAPSE      164.22 TCPU     4752.66
 TTTTTTTTTTTTTTTTTTTTTTTTTTTTTT MONMO3      TELAPSE      164.42 TCPU     4758.95
 NUMERICALLY INTEGRATED DENSITY    197.9999038975
 TTTTTTTTTTTTTTTTTTTTTTTTTTTTTT NUMDFT      TELAPSE      165.13 TCPU     4781.58
 CYC   8 ETOT(AU) -1.289059038920E+03 DETOT -1.75E-06 tst  1.34E-08 PX  1.96E-04
 TTTTTTTTTTTTTTTTTTTTTTTTTTTTTT DIIS        TELAPSE      165.20 TCPU     4784.07
 DIIS TEST: 0.39632E-06 AT SCF   CYCLE   8 - DIIS ACTIVE - HISTORY:     8 CYCLES
 TTTTTTTTTTTTTTTTTTTTTTTTTTTTTT FDIK        TELAPSE      165.70 TCPU     4799.84
 INSULATING STATE
 TOP OF VALENCE BANDS -    BAND     99; K    1; EIG -1.8393708E-01 AU
 BOTTOM OF VIRTUAL BANDS - BAND    100; K   17; EIG -1.2963166E-01 AU
 INDIRECT ENERGY BAND GAP:   1.4777 eV
 BOTTOM OF VIRTUAL BANDS - BAND    100; K    1; EIG -1.1216141E-02 AU
 TTTTTTTTTTTTTTTTTTTTTTTTTTTTTT PDIG        TELAPSE      165.98 TCPU     4805.98
 CHARGE NORMALIZATION FACTOR   1.00000000
 TOTAL ATOMIC CHARGES:
   4.4581705   4.4580956   4.4581290   4.4582949   4.4581997   4.4583889
   0.8867954   0.8869234   0.8867497   0.8868500   0.8867779   0.8869498
   0.8868015   0.8868825   0.8867506   0.8869100   0.8867876   0.8868777
   5.9337867   6.1661602   6.1660339   6.1660868   6.1660149   5.9342622
   5.9336713   6.1660125   6.1661181   6.1660052   6.1660777   5.9342760
   5.9339696   6.1659573   6.1661629   6.1659975   6.1661735   5.9341100
   8.5017824   8.5020689   8.5020064   8.5018092   8.5019906   8.5021319
 TTTTTTTTTTTTTTTTTTTTTTTTTTTTTT MOQGAD      TELAPSE      166.04 TCPU     4806.04
 TTTTTTTTTTTTTTTTTTTTTTTTTTTTTT SHELLXN     TELAPSE      181.08 TCPU     5286.21
 TTTTTTTTTTTTTTTTTTTTTTTTTTTTTT MONMO3      TELAPSE      181.28 TCPU     5292.50
 NUMERICALLY INTEGRATED DENSITY    197.9999038963
 TTTTTTTTTTTTTTTTTTTTTTTTTTTTTT NUMDFT      TELAPSE      181.98 TCPU     5315.04
 CYC   9 ETOT(AU) -1.289059038941E+03 DETOT -2.11E-08 tst  1.41E-09 PX  6.83E-05
 TTTTTTTTTTTTTTTTTTTTTTTTTTTTTT DIIS        TELAPSE      182.07 TCPU     5317.83
 DIIS TEST: 0.77389E-07 AT SCF   CYCLE   9 - DIIS ACTIVE - HISTORY:     9 CYCLES
 TTTTTTTTTTTTTTTTTTTTTTTTTTTTTT FDIK        TELAPSE      182.57 TCPU     5333.67
 INSULATING STATE
 TOP OF VALENCE BANDS -    BAND     99; K    1; EIG -1.8394293E-01 AU
 BOTTOM OF VIRTUAL BANDS - BAND    100; K   17; EIG -1.2962737E-01 AU
 INDIRECT ENERGY BAND GAP:   1.4780 eV
 BOTTOM OF VIRTUAL BANDS - BAND    100; K    1; EIG -1.1213151E-02 AU
 TTTTTTTTTTTTTTTTTTTTTTTTTTTTTT PDIG        TELAPSE      182.85 TCPU     5339.81
 CHARGE NORMALIZATION FACTOR   1.00000000
 TOTAL ATOMIC CHARGES:
   4.4581550   4.4580484   4.4581035   4.4582838   4.4581670   4.4583463
   0.8867952   0.8869113   0.8867471   0.8868403   0.8867689   0.8869466
   0.8867902   0.8868816   0.8867450   0.8869033   0.8867798   0.8868732
   5.9337136   6.1661225   6.1660911   6.1660430   6.1660779   5.9344153
   5.9337927   6.1660090   6.1661420   6.1661022   6.1659998   5.9342340
   5.9340326   6.1659184   6.1662219   6.1660783   6.1661119   5.9341264
   8.5017981   8.5020393   8.5019658   8.5018034   8.5019954   8.5020788
 TTTTTTTTTTTTTTTTTTTTTTTTTTTTTT MOQGAD      TELAPSE      182.91 TCPU     5339.87
 TTTTTTTTTTTTTTTTTTTTTTTTTTTTTT SHELLXN     TELAPSE      197.97 TCPU     5820.53
 +++ ENERGIES IN A.U. +++
 ::: EXT EL-POLE                                  -1.6295256932077E+03
 ::: EXT EL-SPHEROPOLE                             1.8370193492897E+01
 ::: BIELET ZONE E-E                               2.6395801672931E+03
 ::: TOTAL E-E                                     1.0284246675783E+03
 ::: TOTAL E-N + N-E                              -3.8774096674800E+03
 ::: TOTAL N-N                                     4.1344981765536E+02
 ::: KINETIC ENERGY                                1.2802768243403E+03
 ::: PSEUDO TOTAL   ENERGY                        -1.1552583579061E+03
 ::: VIRIAL COEFFICIENT                            1.0513310041035E+00
 TTTTTTTTTTTTTTTTTTTTTTTTTTTTTT MONMO3      TELAPSE      198.17 TCPU     5826.83
 NUMERICALLY INTEGRATED DENSITY    197.9999038960
 EXCHANGE ENERGY: -0.126061580392E+03  CORRELATION ENERGY: -0.773910068861E+01
 TTTTTTTTTTTTTTTTTTTTTTTTTTTTTT NUMDFT      TELAPSE      198.88 TCPU     5849.52
 CYC  10 ETOT(AU) -1.289059038987E+03 DETOT -4.55E-08 tst  4.59E-10 PX  6.83E-05

 == SCF ENDED - CONVERGENCE ON ENERGY      E(AU) -1.2890590389868E+03 CYCLES  10


 ENERGY EXPRESSION=HARTREE+FOCK EXCH*0.00000+(HSESOL     EXCH)*1.00000+PBESOL     CORR


 TOTAL ENERGY(DFT)(AU)( 10) -1.2890590389868E+03 DE-4.6E-08 tester 4.6E-10
 TTTTTTTTTTTTTTTTTTTTTTTTTTTTTT EDFT        TELAPSE      198.88 TCPU     5849.54
 
 INFORMATION **** DFTD3 ENERGY **** CALCULATE DFTD3 ENERGY

           DFT-D V3(BJ)
 DF                                         hsesol3c  
 parameters
 s6       :    1.0000
 s8       :    0.0000
 a1       :    0.5196
 a2       :    4.9385
 k1 k3    :   16.0000   -4.0000
 Cutoff   :   50.2022
 CN-Cutoff:   21.1671
 ABC-Cutoff:   21.1671
 
 Edisp /kcal,au:   -35.0074 -0.05578789

 E6    /kcal :   -37.6625
 E8    /kcal :     0.0000
 E6(ABC) "   :   2.655087
 
 INFORMATION **** DFTD3 ENERGY **** NORMAL TERMINATION OF DFTD3 MODULE

 GCP ENERGY CALCULATION
  level        hsesol3c            basis:hsesol3c
  Nbf            474
  Atoms           42

  Parameters: 
  sigma     1.0000
  eta       1.4281
  alpha     0.2936
  beta      1.9467

  dmp_scal      4.0000
  dmp_exp       6.0000
 cutoffs: 
   distance [bohr] 60.0
   noise    [a.u.] 2.2E-16
 SR-damping   T
 ** gCP correction **
  Egcp:        0.0872825232 / (a.u.) ||      54.7706 / (kcal/mol)
 INFORMATION **** GCP **** NORMAL TERMINATION OF GCP MODULE

 *******************************************************************************

 DFT-D3-GCP DISPERSION AND COUNTERPOISE CORRECTION

 D3 DISPERSION ENERGY (AU)      -5.5787892648689E-02
 GCP ENERGY (AU)                 8.7282523211738E-02
 TOTAL ENERGY + DISP + GCP (AU) -1.2890275443563E+03

 *******************************************************************************

 EIGENVECTORS IN FORTRAN UNIT  8
 TTTTTTTTTTTTTTTTTTTTTTTTTTTTTT END         TELAPSE      200.56 TCPU     5857.10
 EEEEEEEEEE TERMINATION  DATE 19 02 2026 TIME 17:52:13.4
