 Default number of threads is:           32

         
 *******************************************************************************
 *                                                                             *
 *                               CRYSTAL23                                     *
 *                      public : 1.0.1 - October 2022                          *
 *                       HTTP://WWW.CRYSTAL.UNITO.IT                           *
 *                                                                             *
 *                              MAIN AUTHORS                                   *
 *                                                                             *
 *  R. DOVESI(1,11), V.R. SAUNDERS(2), C. ROETTI(1,11), R. ORLANDO(1,11),      *
 *  C.M. ZICOVICH-WILSON(1,3), F. PASCALE(4), B. CIVALLERI(1,11),              *
 *  K. DOLL(5), N.M. HARRISON(6), I.J. BUSH(7), Ph. D'ARCO(8),                 *
 *  M. LLUNELL(9), M. CAUSA'(10), Y. NOEL(8), L. MASCHIO(1,11), A. ERBA(1,11)  *
 *  M. RE'RAT(14), S. CASASSA(1,11), B.G. SEARLE(2), J.K. DESMARAIS(1)         *
 *                                                                             *
 *        CONTRIBUTIONS TO THE CODE HAVE ALSO BEEN GIVEN BY                    *
 *                                                                             *
 *  M. FERRABONE(1,11), M. DE LA PIERRE(1,11), M. FERRERO(1,11),               *
 *  J. BAIMA(1,11), E. ALBANESE(1,11), M.F. PEINTINGER(12), R. BAST(13),       *
 *  B. KIRTMAN(15), V. LACIVITA(1,11), R. DEMICHELIS(1,16)                     *
 *  G. BRANDEBURG(17), S. SALUSTRO(1,11), G. SANSONE(1,11)                     *
 *  M.T. RUGGIERO(18), L.E. DAGA(1), L. DONA'(1), A. COSSARD(1)                *
 *                                                                             *
 * (1) THEORETICAL CHEMISTRY GROUP - UNIVERSITA' DI TORINO - TORINO (ITALY)    *
 * (2) SCIENTIFIC COMPUTING DEPARTMENT - STFC DARESBURY (UK)                   *
 * (3) UNIVERSIDAD AUTONOMA DEL ESTADO DE MORELOS - CUERNAVACA (MEXICO)        *
 * (4) UNIVERSITE' DE LORRAINE - NANCY (FRANCE)                                *
 * (5) UNIVERSITAET STUTTGART- STUTTGART (GERMANY)                             *
 * (6) IMPERIAL COLLEGE - LONDON (UK)                                          *
 * (7) SCIENTIFIC COMPUTING DEPARTMENT - STFC RAL (UK)                         *
 * (8) UPMC - SORBONNE UNIVERSITES - PARIS (FRANCE)                            *
 * (9) UNIVERSIDAD DE BARCELONA - BARCELONA (SPAIN)                            *
 *(10) UNIVERSITA' DI NAPOLI "FEDERICO II" - NAPOLI (ITALY)                    *
 *(11) NIS - NANOSTRUCTURED INTERFACES AND SURFACES - TORINO (ITALY)           *
 *(12) MPI FUER CHEMISCHE ENERGIEKONVERSION - MUELHEIM AN DER RUHR (GERMANY)   *
 *(13) UNIVERSITY OF TROMSO - TROMSO (NORWAY)                                  *
 *(14) UNIVERSITE' DE PAU ET DES PAYS DE L'ADOUR - PAU (FRANCE)                *
 *(15) UNIVERSITY OF CALIFORNIA SANTA BARBARA - SANTA BARBARA (USA)            *
 *(16) CURTIN UNIVERSITY - PERTH (AUSTRALIA)                                   *
 *(17) UNIVERSITY COLLEGE LONDON - LONDON (UK)                                 *
 *(18) UNIVERSITY OF VERMONT - BURLINGTON (USA)                                *
 *                                                                             *
 *******************************************************************************
 EEEEEEEEEE STARTING  DATE 19 02 2026 TIME 20:10:12.4
 cof-1_z35_L020_serr                                                             

 CRYSTAL CALCULATION
 (INPUT ACCORDING TO THE INTERNATIONAL TABLES FOR X-RAY CRYSTALLOGRAPHY)
 CRYSTAL FAMILY                       :  TRICLINIC   
 CRYSTAL CLASS  (GROTH - 1921)        :  TRICLINIC PEDIAL                     

 SPACE GROUP (NONCENTROSYMMETRIC)     :  P 1             

 LATTICE PARAMETERS  (ANGSTROMS AND DEGREES) - CONVENTIONAL CELL
        A           B           C        ALPHA        BETA       GAMMA
    15.02361    15.02392     7.00000    90.00032    89.99994   119.99596


 NUMBER OF IRREDUCIBLE ATOMS IN THE CONVENTIONAL CELL:   84

 INPUT COORDINATES

 ATOM AT. N.              COORDINATES
   1   5     6.136805400000E-01  2.273182200000E-01  2.506823900000E-01
   2   5     6.905271000000E-01  3.810269500000E-01  7.506823900000E-01
   3   5     7.727362000000E-01  3.863778800000E-01  2.506824000000E-01
   4   5     8.495827600000E-01  5.400866100000E-01  7.506824000000E-01
   5   5     6.136762700000E-01  3.863606700000E-01  2.492476500000E-01
   6   5     6.905228300000E-01  5.400694000000E-01  7.492476600000E-01
   7   5     2.272552500000E-01  6.136332200000E-01  2.506824000000E-01
   8   5     3.041018100000E-01  7.673419500000E-01  7.506824000000E-01
   9   5     3.863632200000E-01  6.136124500000E-01  2.506823900000E-01
  10   5     4.632097800000E-01  7.673211800000E-01  7.506823900000E-01
  11   5     3.863435000000E-01  7.727516500000E-01  2.492476600000E-01
  12   5     4.631900600000E-01  9.264603800000E-01  7.492476600000E-01
  13   1     9.030436200000E-01  3.089300500000E-01  2.477078900000E-01
  14   1     9.798901800000E-01  4.626387800000E-01  7.477078900000E-01
  15   1     9.663453000000E-02  6.910534400000E-01  2.472530400000E-01
  16   1     1.734810900000E-01  8.447621700000E-01  7.472530300000E-01
  17   1     9.029714200000E-01  5.940724300000E-01  2.471830300000E-01
  18   1     9.798179800000E-01  7.477811600000E-01  7.471830300000E-01
  19   1     9.673618000000E-02  4.056849400000E-01  2.472004900000E-01
  20   1     1.735827400000E-01  5.593936700000E-01  7.472004900000E-01
  21   1     6.910324000000E-01  9.700412000000E-02  2.522921300000E-01
  22   1     7.678789600000E-01  2.507128500000E-01  7.522921300000E-01
  23   1     3.089297200000E-01  9.034373100000E-01  2.527470200000E-01
  24   1     3.857762800000E-01  5.714604000000E-02  7.527470100000E-01
  25   1     4.058699900000E-01  9.704998000000E-02  2.528170600000E-01
  26   1     4.827165500000E-01  2.507587100000E-01  7.528170600000E-01
  27   1     5.943122100000E-01  9.033473200000E-01  2.527994800000E-01
  28   1     6.711587700000E-01  5.705605000000E-02  7.527994800000E-01
  29   1     6.910727400000E-01  5.940542100000E-01  2.477079200000E-01
  30   1     7.679193000000E-01  7.477629400000E-01  7.477079100000E-01
  31   1     3.089618300000E-01  4.056093300000E-01  2.472530100000E-01
  32   1     3.858083900000E-01  5.593180600000E-01  7.472530100000E-01
  33   1     4.058405700000E-01  3.088232500000E-01  2.471829700000E-01
  34   1     4.826871300000E-01  4.625319800000E-01  7.471829700000E-01
  35   1     5.942908800000E-01  6.909579300000E-01  2.472005500000E-01
  36   1     6.711374400000E-01  8.446666600000E-01  7.472005500000E-01
  37   6     8.918903100000E-01  4.459436900000E-01  2.491951600000E-01
  38   6     9.687368700000E-01  5.996524200000E-01  7.491951600000E-01
  39   6     9.464891100000E-01  3.927856300000E-01  2.477778800000E-01
  40   6     2.333567000000E-02  5.464943600000E-01  7.477778800000E-01
  41   6     5.338812000000E-02  6.071853000000E-01  2.476554500000E-01
  42   6     1.302346800000E-01  7.608940300000E-01  7.476554500000E-01
  43   6     9.464521100000E-01  5.536921900000E-01  2.480228800000E-01
  44   6     2.329867000000E-02  7.074009200000E-01  7.480228800000E-01
  45   6     5.342634000000E-02  4.462499700000E-01  2.470780200000E-01
  46   6     1.302729000000E-01  5.999587000000E-01  7.470780200000E-01
  47   6     1.080358900000E-01  5.540356300000E-01  2.480403700000E-01
  48   6     1.848824500000E-01  7.077443600000E-01  7.480403600000E-01
  49   6     5.540394200000E-01  1.081684600000E-01  2.508048800000E-01
  50   6     6.308859800000E-01  2.618771900000E-01  7.508048800000E-01
  51   6     6.071778500000E-01  5.355594000000E-02  2.522221300000E-01
  52   6     6.840244100000E-01  2.072646700000E-01  7.522221300000E-01
  53   6     3.927986700000E-01  9.466631600000E-01  2.523446000000E-01
  54   6     4.696452300000E-01  1.003718900000E-01  7.523446000000E-01
  55   6     4.462875800000E-01  5.360286000000E-02  2.519771800000E-01
  56   6     5.231341400000E-01  2.073115900000E-01  7.519771800000E-01
  57   6     5.537168500000E-01  9.466235600000E-01  2.529219900000E-01
  58   6     6.305634100000E-01  1.003322900000E-01  7.529219800000E-01
  59   6     4.459279100000E-01  8.919920600000E-01  2.519596600000E-01
  60   6     5.227744700000E-01  4.570079000000E-02  7.519596600000E-01
  61   6     5.540448700000E-01  4.458745500000E-01  2.491951600000E-01
  62   6     6.308914300000E-01  5.995832800000E-01  7.491951600000E-01
  63   6     6.072102200000E-01  5.536257800000E-01  2.477779100000E-01
  64   6     6.840567800000E-01  7.073345100000E-01  7.477779200000E-01
  65   6     3.928233700000E-01  4.461720300000E-01  2.476554200000E-01
  66   6     4.696699300000E-01  5.998807600000E-01  7.476554200000E-01
  67   6     4.462872600000E-01  3.926899900000E-01  2.480228400000E-01
  68   6     5.231338200000E-01  5.463987200000E-01  7.480228400000E-01
  69   6     5.537429600000E-01  6.070980000000E-01  2.470780500000E-01
  70   6     6.305895200000E-01  7.608067300000E-01  7.470780500000E-01
  71   6     4.459599800000E-01  5.539582300000E-01  2.480403700000E-01
  72   6     5.228065400000E-01  7.076669600000E-01  7.480403600000E-01
  73   8     5.607366800000E-01  2.803706300000E-01  2.496325800000E-01
  74   8     6.375832400000E-01  4.340793600000E-01  7.496325800000E-01
  75   8     7.196817000000E-01  2.803783300000E-01  2.526595300000E-01
  76   8     7.965282600000E-01  4.340870600000E-01  7.526595400000E-01
  77   8     7.196794200000E-01  4.393234600000E-01  2.480928700000E-01
  78   8     7.965259800000E-01  5.930321900000E-01  7.480928700000E-01
  79   8     2.803245100000E-01  7.196511100000E-01  2.496325900000E-01
  80   8     3.571710700000E-01  8.733598400000E-01  7.496325900000E-01
  81   8     2.803439700000E-01  5.606956100000E-01  2.526595300000E-01
  82   8     3.571905300000E-01  7.144043400000E-01  7.526595300000E-01
  83   8     4.392638400000E-01  7.196354200000E-01  2.480928600000E-01
  84   8     5.161104000000E-01  8.733441500000E-01  7.480928600000E-01

 *******************************************************************************

 << INFORMATION >>: FROM NOW ON, ALL COORDINATES REFER TO THE PRIMITIVE CELL

 *******************************************************************************

 LATTICE PARAMETERS  (ANGSTROMS AND DEGREES) - PRIMITIVE CELL
       A          B          C        ALPHA      BETA     GAMMA        VOLUME
   15.02361   15.02392    7.00000    90.00032  89.99994 119.99596   1368.370836

 COORDINATES OF THE EQUIVALENT ATOMS (FRACTIONAL UNITS)

 N. ATOM EQUIV AT. N.          X                  Y                  Z

   1   1   1    5 B    -3.86319460000E-01  2.27318220000E-01  2.50682390000E-01

   2   2   1    5 B    -3.09472900000E-01  3.81026950000E-01 -2.49317610000E-01

   3   3   1    5 B    -2.27263800000E-01  3.86377880000E-01  2.50682400000E-01

   4   4   1    5 B    -1.50417240000E-01 -4.59913390000E-01 -2.49317600000E-01

   5   5   1    5 B    -3.86323730000E-01  3.86360670000E-01  2.49247650000E-01

   6   6   1    5 B    -3.09477170000E-01 -4.59930600000E-01 -2.50752340000E-01

   7   7   1    5 B     2.27255250000E-01 -3.86366780000E-01  2.50682400000E-01

   8   8   1    5 B     3.04101810000E-01 -2.32658050000E-01 -2.49317600000E-01

   9   9   1    5 B     3.86363220000E-01 -3.86387550000E-01  2.50682390000E-01

  10  10   1    5 B     4.63209780000E-01 -2.32678820000E-01 -2.49317610000E-01

  11  11   1    5 B     3.86343500000E-01 -2.27248350000E-01  2.49247660000E-01

  12  12   1    5 B     4.63190060000E-01 -7.35396200000E-02 -2.50752340000E-01

  13  13   1    1 H    -9.69563800000E-02  3.08930050000E-01  2.47707890000E-01

  14  14   1    1 H    -2.01098200000E-02  4.62638780000E-01 -2.52292110000E-01

  15  15   1    1 H     9.66345300000E-02 -3.08946560000E-01  2.47253040000E-01

  16  16   1    1 H     1.73481090000E-01 -1.55237830000E-01 -2.52746970000E-01

  17  17   1    1 H    -9.70285800000E-02 -4.05927570000E-01  2.47183030000E-01

  18  18   1    1 H    -2.01820200000E-02 -2.52218840000E-01 -2.52816970000E-01

  19  19   1    1 H     9.67361800000E-02  4.05684940000E-01  2.47200490000E-01

  20  20   1    1 H     1.73582740000E-01 -4.40606330000E-01 -2.52799510000E-01

  21  21   1    1 H    -3.08967600000E-01  9.70041200000E-02  2.52292130000E-01

  22  22   1    1 H    -2.32121040000E-01  2.50712850000E-01 -2.47707870000E-01

  23  23   1    1 H     3.08929720000E-01 -9.65626900000E-02  2.52747020000E-01

  24  24   1    1 H     3.85776280000E-01  5.71460400000E-02 -2.47252990000E-01

  25  25   1    1 H     4.05869990000E-01  9.70499800000E-02  2.52817060000E-01

  26  26   1    1 H     4.82716550000E-01  2.50758710000E-01 -2.47182940000E-01

  27  27   1    1 H    -4.05687790000E-01 -9.66526800000E-02  2.52799480000E-01

  28  28   1    1 H    -3.28841230000E-01  5.70560500000E-02 -2.47200520000E-01

  29  29   1    1 H    -3.08927260000E-01 -4.05945790000E-01  2.47707920000E-01

  30  30   1    1 H    -2.32080700000E-01 -2.52237060000E-01 -2.52292090000E-01

  31  31   1    1 H     3.08961830000E-01  4.05609330000E-01  2.47253010000E-01

  32  32   1    1 H     3.85808390000E-01 -4.40681940000E-01 -2.52746990000E-01

  33  33   1    1 H     4.05840570000E-01  3.08823250000E-01  2.47182970000E-01

  34  34   1    1 H     4.82687130000E-01  4.62531980000E-01 -2.52817030000E-01

  35  35   1    1 H    -4.05709120000E-01 -3.09042070000E-01  2.47200550000E-01

  36  36   1    1 H    -3.28862560000E-01 -1.55333340000E-01 -2.52799450000E-01

  37  37   1    6 C    -1.08109690000E-01  4.45943690000E-01  2.49195160000E-01

  38  38   1    6 C    -3.12631300000E-02 -4.00347580000E-01 -2.50804840000E-01

  39  39   1    6 C    -5.35108900000E-02  3.92785630000E-01  2.47777880000E-01

  40  40   1    6 C     2.33356700000E-02 -4.53505640000E-01 -2.52222120000E-01

  41  41   1    6 C     5.33881200000E-02 -3.92814700000E-01  2.47655450000E-01

  42  42   1    6 C     1.30234680000E-01 -2.39105970000E-01 -2.52344550000E-01

  43  43   1    6 C    -5.35478900000E-02 -4.46307810000E-01  2.48022880000E-01

  44  44   1    6 C     2.32986700000E-02 -2.92599080000E-01 -2.51977120000E-01

  45  45   1    6 C     5.34263400000E-02  4.46249970000E-01  2.47078020000E-01

  46  46   1    6 C     1.30272900000E-01 -4.00041300000E-01 -2.52921980000E-01

  47  47   1    6 C     1.08035890000E-01 -4.45964370000E-01  2.48040370000E-01

  48  48   1    6 C     1.84882450000E-01 -2.92255640000E-01 -2.51959640000E-01

  49  49   1    6 C    -4.45960580000E-01  1.08168460000E-01  2.50804880000E-01

  50  50   1    6 C    -3.69114020000E-01  2.61877190000E-01 -2.49195120000E-01

  51  51   1    6 C    -3.92822150000E-01  5.35559400000E-02  2.52222130000E-01

  52  52   1    6 C    -3.15975590000E-01  2.07264670000E-01 -2.47777870000E-01

  53  53   1    6 C     3.92798670000E-01 -5.33368400000E-02  2.52344600000E-01

  54  54   1    6 C     4.69645230000E-01  1.00371890000E-01 -2.47655400000E-01

  55  55   1    6 C     4.46287580000E-01  5.36028600000E-02  2.51977180000E-01

  56  56   1    6 C    -4.76865860000E-01  2.07311590000E-01 -2.48022820000E-01

  57  57   1    6 C    -4.46283150000E-01 -5.33764400000E-02  2.52921990000E-01

  58  58   1    6 C    -3.69436590000E-01  1.00332290000E-01 -2.47078020000E-01

  59  59   1    6 C     4.45927910000E-01 -1.08007940000E-01  2.51959660000E-01

  60  60   1    6 C    -4.77225530000E-01  4.57007900000E-02 -2.48040340000E-01

  61  61   1    6 C    -4.45955130000E-01  4.45874550000E-01  2.49195160000E-01

  62  62   1    6 C    -3.69108570000E-01 -4.00416720000E-01 -2.50804840000E-01

  63  63   1    6 C    -3.92789780000E-01 -4.46374220000E-01  2.47777910000E-01

  64  64   1    6 C    -3.15943220000E-01 -2.92665490000E-01 -2.52222080000E-01

  65  65   1    6 C     3.92823370000E-01  4.46172030000E-01  2.47655420000E-01

  66  66   1    6 C     4.69669930000E-01 -4.00119240000E-01 -2.52344580000E-01

  67  67   1    6 C     4.46287260000E-01  3.92689990000E-01  2.48022840000E-01

  68  68   1    6 C    -4.76866180000E-01 -4.53601280000E-01 -2.51977160000E-01

  69  69   1    6 C    -4.46257040000E-01 -3.92902000000E-01  2.47078050000E-01

  70  70   1    6 C    -3.69410480000E-01 -2.39193270000E-01 -2.52921950000E-01

  71  71   1    6 C     4.45959980000E-01 -4.46041770000E-01  2.48040370000E-01

  72  72   1    6 C    -4.77193460000E-01 -2.92333040000E-01 -2.51959640000E-01

  73  73   1    8 O    -4.39263320000E-01  2.80370630000E-01  2.49632580000E-01

  74  74   1    8 O    -3.62416760000E-01  4.34079360000E-01 -2.50367420000E-01

  75  75   1    8 O    -2.80318300000E-01  2.80378330000E-01  2.52659530000E-01

  76  76   1    8 O    -2.03471740000E-01  4.34087060000E-01 -2.47340460000E-01

  77  77   1    8 O    -2.80320580000E-01  4.39323460000E-01  2.48092870000E-01

  78  78   1    8 O    -2.03474020000E-01 -4.06967810000E-01 -2.51907130000E-01

  79  79   1    8 O     2.80324510000E-01 -2.80348890000E-01  2.49632590000E-01

  80  80   1    8 O     3.57171070000E-01 -1.26640160000E-01 -2.50367410000E-01

  81  81   1    8 O     2.80343970000E-01 -4.39304390000E-01  2.52659530000E-01

  82  82   1    8 O     3.57190530000E-01 -2.85595660000E-01 -2.47340470000E-01

  83  83   1    8 O     4.39263840000E-01 -2.80364580000E-01  2.48092860000E-01

  84  84   1    8 O    -4.83889600000E-01 -1.26655850000E-01 -2.51907140000E-01

 NUMBER OF SYMMETRY OPERATORS         :    1
 *******************************************************************************
 * GEOMETRY EDITING - INPUT COORDINATES ARE GIVEN IN ANGSTROM         
 *******************************************************************************

 GCALCO - MAX INDICES DIRECT LATTICE VECTOR    11    11    22
 NO.OF VECTORS CREATED 6999 STARS 3500 RMAX   248.91122 BOHR

 GEOMETRY FOR WAVE FUNCTION - DIMENSIONALITY OF THE SYSTEM    3
 (NON PERIODIC DIRECTION: LATTICE PARAMETER FORMALLY SET TO 500)
 *******************************************************************************
 LATTICE PARAMETERS (ANGSTROMS AND DEGREES) - BOHR = 0.5291772083 ANGSTROM
 PRIMITIVE CELL - CENTRING CODE 1/0 VOLUME=  1368.370836 - DENSITY  0.947 g/cm^3
         A              B              C           ALPHA      BETA       GAMMA 
    15.02361100    15.02391600     7.00000000    90.000323  89.999944 119.995964
 *******************************************************************************
 ATOMS IN THE ASYMMETRIC UNIT   84 - ATOMS IN THE UNIT CELL:   84
     ATOM                 X/A                 Y/B                 Z/C    
 *******************************************************************************
      1 T   5 B    -3.863194600000E-01  2.273182200000E-01  2.506823900000E-01
      2 T   5 B    -3.094729000000E-01  3.810269500000E-01 -2.493176100000E-01
      3 T   5 B    -2.272638000000E-01  3.863778800000E-01  2.506824000000E-01
      4 T   5 B    -1.504172400000E-01 -4.599133900000E-01 -2.493176000000E-01
      5 T   5 B    -3.863237300000E-01  3.863606700000E-01  2.492476500000E-01
      6 T   5 B    -3.094771700000E-01 -4.599306000000E-01 -2.507523400000E-01
      7 T   5 B     2.272552500000E-01 -3.863667800000E-01  2.506824000000E-01
      8 T   5 B     3.041018100000E-01 -2.326580500000E-01 -2.493176000000E-01
      9 T   5 B     3.863632200000E-01 -3.863875500000E-01  2.506823900000E-01
     10 T   5 B     4.632097800000E-01 -2.326788200000E-01 -2.493176100000E-01
     11 T   5 B     3.863435000000E-01 -2.272483500000E-01  2.492476600000E-01
     12 T   5 B     4.631900600000E-01 -7.353962000000E-02 -2.507523400000E-01
     13 T   1 H    -9.695638000000E-02  3.089300500000E-01  2.477078900000E-01
     14 T   1 H    -2.010982000000E-02  4.626387800000E-01 -2.522921100000E-01
     15 T   1 H     9.663453000000E-02 -3.089465600000E-01  2.472530400000E-01
     16 T   1 H     1.734810900000E-01 -1.552378300000E-01 -2.527469700000E-01
     17 T   1 H    -9.702858000000E-02 -4.059275700000E-01  2.471830300000E-01
     18 T   1 H    -2.018202000000E-02 -2.522188400000E-01 -2.528169700000E-01
     19 T   1 H     9.673618000000E-02  4.056849400000E-01  2.472004900000E-01
     20 T   1 H     1.735827400000E-01 -4.406063300000E-01 -2.527995100000E-01
     21 T   1 H    -3.089676000000E-01  9.700412000000E-02  2.522921300000E-01
     22 T   1 H    -2.321210400000E-01  2.507128500000E-01 -2.477078700000E-01
     23 T   1 H     3.089297200000E-01 -9.656269000000E-02  2.527470200000E-01
     24 T   1 H     3.857762800000E-01  5.714604000000E-02 -2.472529900000E-01
     25 T   1 H     4.058699900000E-01  9.704998000000E-02  2.528170600000E-01
     26 T   1 H     4.827165500000E-01  2.507587100000E-01 -2.471829400000E-01
     27 T   1 H    -4.056877900000E-01 -9.665268000000E-02  2.527994800000E-01
     28 T   1 H    -3.288412300000E-01  5.705605000000E-02 -2.472005200000E-01
     29 T   1 H    -3.089272600000E-01 -4.059457900000E-01  2.477079200000E-01
     30 T   1 H    -2.320807000000E-01 -2.522370600000E-01 -2.522920900000E-01
     31 T   1 H     3.089618300000E-01  4.056093300000E-01  2.472530100000E-01
     32 T   1 H     3.858083900000E-01 -4.406819400000E-01 -2.527469900000E-01
     33 T   1 H     4.058405700000E-01  3.088232500000E-01  2.471829700000E-01
     34 T   1 H     4.826871300000E-01  4.625319800000E-01 -2.528170300000E-01
     35 T   1 H    -4.057091200000E-01 -3.090420700000E-01  2.472005500000E-01
     36 T   1 H    -3.288625600000E-01 -1.553333400000E-01 -2.527994500000E-01
     37 T   6 C    -1.081096900000E-01  4.459436900000E-01  2.491951600000E-01
     38 T   6 C    -3.126313000000E-02 -4.003475800000E-01 -2.508048400000E-01
     39 T   6 C    -5.351089000000E-02  3.927856300000E-01  2.477778800000E-01
     40 T   6 C     2.333567000000E-02 -4.535056400000E-01 -2.522221200000E-01
     41 T   6 C     5.338812000000E-02 -3.928147000000E-01  2.476554500000E-01
     42 T   6 C     1.302346800000E-01 -2.391059700000E-01 -2.523445500000E-01
     43 T   6 C    -5.354789000000E-02 -4.463078100000E-01  2.480228800000E-01
     44 T   6 C     2.329867000000E-02 -2.925990800000E-01 -2.519771200000E-01
     45 T   6 C     5.342634000000E-02  4.462499700000E-01  2.470780200000E-01
     46 T   6 C     1.302729000000E-01 -4.000413000000E-01 -2.529219800000E-01
     47 T   6 C     1.080358900000E-01 -4.459643700000E-01  2.480403700000E-01
     48 T   6 C     1.848824500000E-01 -2.922556400000E-01 -2.519596400000E-01
     49 T   6 C    -4.459605800000E-01  1.081684600000E-01  2.508048800000E-01
     50 T   6 C    -3.691140200000E-01  2.618771900000E-01 -2.491951200000E-01
     51 T   6 C    -3.928221500000E-01  5.355594000000E-02  2.522221300000E-01
     52 T   6 C    -3.159755900000E-01  2.072646700000E-01 -2.477778700000E-01
     53 T   6 C     3.927986700000E-01 -5.333684000000E-02  2.523446000000E-01
     54 T   6 C     4.696452300000E-01  1.003718900000E-01 -2.476554000000E-01
     55 T   6 C     4.462875800000E-01  5.360286000000E-02  2.519771800000E-01
     56 T   6 C    -4.768658600000E-01  2.073115900000E-01 -2.480228200000E-01
     57 T   6 C    -4.462831500000E-01 -5.337644000000E-02  2.529219900000E-01
     58 T   6 C    -3.694365900000E-01  1.003322900000E-01 -2.470780200000E-01
     59 T   6 C     4.459279100000E-01 -1.080079400000E-01  2.519596600000E-01
     60 T   6 C    -4.772255300000E-01  4.570079000000E-02 -2.480403400000E-01
     61 T   6 C    -4.459551300000E-01  4.458745500000E-01  2.491951600000E-01
     62 T   6 C    -3.691085700000E-01 -4.004167200000E-01 -2.508048400000E-01
     63 T   6 C    -3.927897800000E-01 -4.463742200000E-01  2.477779100000E-01
     64 T   6 C    -3.159432200000E-01 -2.926654900000E-01 -2.522220800000E-01
     65 T   6 C     3.928233700000E-01  4.461720300000E-01  2.476554200000E-01
     66 T   6 C     4.696699300000E-01 -4.001192400000E-01 -2.523445800000E-01
     67 T   6 C     4.462872600000E-01  3.926899900000E-01  2.480228400000E-01
     68 T   6 C    -4.768661800000E-01 -4.536012800000E-01 -2.519771600000E-01
     69 T   6 C    -4.462570400000E-01 -3.929020000000E-01  2.470780500000E-01
     70 T   6 C    -3.694104800000E-01 -2.391932700000E-01 -2.529219500000E-01
     71 T   6 C     4.459599800000E-01 -4.460417700000E-01  2.480403700000E-01
     72 T   6 C    -4.771934600000E-01 -2.923330400000E-01 -2.519596400000E-01
     73 T   8 O    -4.392633200000E-01  2.803706300000E-01  2.496325800000E-01
     74 T   8 O    -3.624167600000E-01  4.340793600000E-01 -2.503674200000E-01
     75 T   8 O    -2.803183000000E-01  2.803783300000E-01  2.526595300000E-01
     76 T   8 O    -2.034717400000E-01  4.340870600000E-01 -2.473404600000E-01
     77 T   8 O    -2.803205800000E-01  4.393234600000E-01  2.480928700000E-01
     78 T   8 O    -2.034740200000E-01 -4.069678100000E-01 -2.519071300000E-01
     79 T   8 O     2.803245100000E-01 -2.803488900000E-01  2.496325900000E-01
     80 T   8 O     3.571710700000E-01 -1.266401600000E-01 -2.503674100000E-01
     81 T   8 O     2.803439700000E-01 -4.393043900000E-01  2.526595300000E-01
     82 T   8 O     3.571905300000E-01 -2.855956600000E-01 -2.473404700000E-01
     83 T   8 O     4.392638400000E-01 -2.803645800000E-01  2.480928600000E-01
     84 T   8 O    -4.838896000000E-01 -1.266558500000E-01 -2.519071400000E-01

 T = ATOM BELONGING TO THE ASYMMETRIC UNIT

 ****    1 SYMMOPS - TRANSLATORS IN FRACTIONAL UNITS
 **** MATRICES AND TRANSLATORS IN THE CRYSTALLOGRAPHIC REFERENCE FRAME
   V INV                    ROTATION MATRICES                   TRANSLATORS
   1   1  1.00  0.00  0.00  0.00  1.00  0.00  0.00  0.00  1.00  0.00  0.00  0.00

 DIRECT LATTICE VECTORS CARTESIAN COMPONENTS (ANGSTROM)
          X                    Y                    Z
   0.130113578931E+02  -0.751088897922E+01   0.000000000000E+00
   0.000000000000E+00   0.150239160000E+02   0.000000000000E+00
  -0.148798465207E-04  -0.394618943860E-04   0.699999999987E+01


 CARTESIAN COORDINATES - PRIMITIVE CELL
 *******************************************************************************
 *      ATOM          X(ANGSTROM)         Y(ANGSTROM)         Z(ANGSTROM)
 *******************************************************************************
    1     5 B    -5.026544485228E+00  6.316802524718E+00  1.754776729968E+00
    2     5 B    -4.026658950294E+00 -6.974972676942E+00 -1.745223269968E+00
    3     5 B    -2.957014368052E+00  7.511852091771E+00  1.754776799968E+00
    4     5 B    -1.957128833118E+00 -5.779923109890E+00 -1.745223199968E+00
    5     5 B    -5.026600022377E+00 -6.317640937934E+00  1.744733549968E+00
    6     5 B    -4.026714487444E+00 -4.585500139595E+00 -1.755266379968E+00
    7     5 B     2.956895660710E+00 -7.511640893007E+00  1.754776799968E+00
    8     5 B     3.956781195644E+00 -5.779500094668E+00 -1.745223199968E+00
    9     5 B     5.027106402018E+00  6.316920761880E+00  1.754776729968E+00
   10     5 B    -6.984365956105E+00  5.360345394353E-01 -1.745223269968E+00
   11     5 B     5.026849839389E+00 -6.315953093665E+00  1.744733619968E+00
   12     5 B     6.026735374323E+00 -4.583812295326E+00 -1.755266379968E+00
   13     1 H    -1.261537846051E+00  5.369557952060E+00  1.733955229969E+00
   14     1 H    -2.616523111171E-01  7.101698750399E+00 -1.766044769968E+00
   15     1 H     1.257342775570E+00 -5.367408149391E+00  1.730771279969E+00
   16     1 H     2.257228310504E+00 -3.635267351052E+00 -1.769228789968E+00
   17     1 H    -1.262477258281E+00 -5.369860575884E+00  1.730281209969E+00
   18     1 H    -2.625917233471E-01 -3.637719777545E+00 -1.769718789968E+00
   19     1 H     1.258665380882E+00  5.368391997772E+00  1.730403429969E+00
   20     1 H     2.258550915815E+00  7.100532796111E+00 -1.769596569968E+00
   21     1 H    -4.020091775027E+00  3.777993136383E+00  1.766044909968E+00
   22     1 H    -3.020206240093E+00  5.510133934723E+00 -1.733955089969E+00
   23     1 H     4.019591389885E+00 -3.771096546471E+00  1.769229139968E+00
   24     1 H     5.019476924819E+00 -2.038955748131E+00 -1.730770929969E+00
   25     1 H     5.280915936062E+00 -1.590383664204E+00  1.769719419968E+00
   26     1 H     6.280801470996E+00  1.417571341350E-01 -1.730280579969E+00
   27     1 H    -5.278552790151E+00  1.594964229472E+00  1.769596359968E+00
   28     1 H    -4.278667255217E+00  3.327105027812E+00 -1.730403639969E+00
   29     1 H    -4.019566828637E+00 -3.778586872024E+00  1.733955439969E+00
   30     1 H    -3.019681293704E+00 -2.046446073684E+00 -1.766044629968E+00
   31     1 H     4.020009266337E+00  3.773252741719E+00  1.730771069969E+00
   32     1 H     5.019894801270E+00  5.505393540058E+00 -1.769228929968E+00
   33     1 H     5.280533225747E+00  1.591501348007E+00  1.730280789969E+00
   34     1 H     6.280418760681E+00  3.323642146346E+00 -1.769719209968E+00
   35     1 H    -5.278830239103E+00 -1.595795696973E+00  1.730403849969E+00
   36     1 H    -4.278944704170E+00  1.363451013667E-01 -1.769596149968E+00
   37     6 C    -1.406657576283E+00  7.511810584744E+00  1.744366119968E+00
   38     6 C    -4.067720413496E-01 -5.779964616916E+00 -1.755633879968E+00
   39     6 C    -6.962530278628E-01  6.303082887312E+00  1.734445159969E+00
   40     6 C     3.036325070707E-01 -6.988692314349E+00 -1.765554839968E+00
   41     6 C     6.946482514824E-01 -6.302617071447E+00  1.733588149969E+00
   42     6 C     1.694533786416E+00 -4.570476273108E+00 -1.766411849968E+00
   43     6 C    -6.967344517504E-01 -6.303108578175E+00  1.736160159968E+00
   44     6 C     3.031510831831E-01 -4.570967779836E+00 -1.763839839968E+00
   45     6 C     6.951455541731E-01  6.303133005810E+00  1.729546139969E+00
   46     6 C     1.695031089107E+00 -6.988642195851E+00 -1.770453859968E+00
   47     6 C     1.405689939282E+00 -7.511586597577E+00  1.736282589968E+00
   48     6 C     2.405575474216E+00 -5.779445799237E+00 -1.763717479968E+00
   49     6 C     7.208801448543E+00 -2.536224614076E+00  1.755634159968E+00
   50     6 C     8.208686983477E+00 -8.040838157366E-01 -1.744365839968E+00
   51     6 C    -5.111153334997E+00  3.755053547925E+00  1.765554909968E+00
   52     6 C    -4.111267800063E+00  5.487194346264E+00 -1.734445089969E+00
   53     6 C     5.110840320438E+00 -3.751605363415E+00  1.766412199968E+00
   54     6 C     6.110725855371E+00 -2.019464565076E+00 -1.733587799969E+00
   55     6 C     5.806803677224E+00 -2.546701543680E+00  1.763840259968E+00
   56     6 C     6.806689212158E+00 -8.145607453411E-01 -1.736159739968E+00
   57     6 C    -5.806753549731E+00  2.550050061225E+00  1.770453929968E+00
   58     6 C    -4.806868014797E+00  4.282190859565E+00 -1.729546139969E+00
   59     6 C     5.802123882392E+00 -4.972027185443E+00  1.763717619968E+00
   60     6 C     6.802009417325E+00 -3.239886387103E+00 -1.736282379968E+00
   61     6 C     7.208872384396E+00  2.537402443950E+00  1.744366119968E+00
   62     6 C    -4.802599973727E+00 -3.243483778494E+00 -1.755633879968E+00
   63     6 C    -5.110732091212E+00 -3.756098133880E+00  1.734445369969E+00
   64     6 C    -4.110846556279E+00 -2.023957335542E+00 -1.765554559968E+00
   65     6 C     5.111161770752E+00  3.752788606806E+00  1.733587939969E+00
   66     6 C    -6.900310587371E+00 -2.028097615639E+00 -1.766412059968E+00
   67     6 C     5.806799572430E+00  2.547717573651E+00  1.736159879968E+00
   68     6 C    -6.204672785693E+00 -3.233168648793E+00 -1.763840119968E+00
   69     6 C    -5.806413736220E+00 -2.551149310766E+00  1.729546349969E+00
   70     6 C    -4.806528201286E+00 -8.190085124270E-01 -1.770453649968E+00
   71     6 C     5.802541214958E+00  4.973056227932E+00  1.736282589968E+00
   72     6 C    -6.208931143165E+00 -8.078299945118E-01 -1.763717479968E+00
   73     8 O     7.295941912750E+00  6.239929581478E-04  1.747428059968E+00
   74     8 O    -4.715530445373E+00 -5.780262229486E+00 -1.752571939968E+00
   75     8 O    -3.647325484808E+00  6.317810137859E+00  1.768616709968E+00
   76     8 O    -2.647439949875E+00 -6.973965063802E+00 -1.731383219969E+00
   77     8 O    -3.647355082753E+00 -6.318110275376E+00  1.736650089968E+00
   78     8 O    -2.647469547820E+00 -4.585969477037E+00 -1.763349909968E+00
   79     8 O     3.647398811311E+00 -6.317434297791E+00  1.747428129968E+00
   80     8 O     4.647284346245E+00 -4.585293499452E+00 -1.752571869968E+00
   81     8 O     3.647651967295E+00  6.318201341122E+00  1.768616709968E+00
   82     8 O     4.647537502229E+00 -6.973573860539E+00 -1.731383289969E+00
   83     8 O    -7.295942552922E+00 -5.566451173632E-04  1.736650019968E+00
   84     8 O    -6.296057017988E+00  1.731584153222E+00 -1.763349979968E+00

 *******************************************************************************
 STARTING BASIS SET HANDLING 
 *******************************************************************************

 Loading internal basis set: SOLDEF2MSVP         

 Please cite in your publication:
 L. Dona', J. G. Brandenburg and B. Civalleri, J. Chem. Phys., 151, 121101 (2019
 )                                                                              
                                                                                
                    

 *******************************************************************************
 LOCAL ATOMIC FUNCTIONS BASIS SET
 *******************************************************************************
   ATOM   X(AU)   Y(AU)   Z(AU)  N. TYPE  EXPONENT  S COEF   P COEF   D/F/G COEF
 *******************************************************************************
   1 B   -9.499  11.937   3.316
                                  1 S  
                                         2.410E+03 1.755E-03 0.000E+00 0.000E+00
                                         3.619E+02 1.344E-02 0.000E+00 0.000E+00
                                         8.231E+01 6.637E-02 0.000E+00 0.000E+00
                                         2.311E+01 2.303E-01 0.000E+00 0.000E+00
                                         7.252E+00 5.150E-01 0.000E+00 0.000E+00
                                  2 S  
                                         2.367E+00 1.000E+00 0.000E+00 0.000E+00
                                  3 S  
                                         5.533E-01 1.000E+00 0.000E+00 0.000E+00
                                  4 S  
                                         1.716E-01 1.000E+00 0.000E+00 0.000E+00
                           5-     7 P  
                                         6.002E+00 0.000E+00-3.555E-02 0.000E+00
                                         1.240E+00 0.000E+00-1.983E-01 0.000E+00
                                         3.367E-01 0.000E+00-5.048E-01 0.000E+00
                           8-    10 P  
                                         1.256E-01 0.000E+00 1.000E+00 0.000E+00
                          11-    15 D  
                                         8.880E-01 0.000E+00 0.000E+00 1.000E+00
   2 B   -7.609 -13.181  -3.298
   3 B   -5.588  14.195   3.316
   4 B   -3.698 -10.922  -3.298
   5 B   -9.499 -11.939   3.297
   6 B   -7.609  -8.665  -3.317
   7 B    5.588 -14.195   3.316
   8 B    7.477 -10.922  -3.298
   9 B    9.500  11.937   3.316
  10 B  -13.199   1.013  -3.298
  11 B    9.499 -11.935   3.297
  12 B   11.389  -8.662  -3.317
  13 H   -2.384  10.147   3.277
                                181 S  
                                         1.874E+01 1.968E-02 0.000E+00 0.000E+00
                                         2.826E+00 1.380E-01 0.000E+00 0.000E+00
                                         6.401E-01 4.783E-01 0.000E+00 0.000E+00
                                182 S  
                                         1.756E-01 1.000E+00 0.000E+00 0.000E+00
  14 H   -0.494  13.420  -3.337
  15 H    2.376 -10.143   3.271
  16 H    4.266  -6.870  -3.343
  17 H   -2.386 -10.148   3.270
  18 H   -0.496  -6.874  -3.344
  19 H    2.379  10.145   3.270
  20 H    4.268  13.418  -3.344
  21 H   -7.597   7.139   3.337
  22 H   -5.707  10.413  -3.277
  23 H    7.596  -7.126   3.343
  24 H    9.485  -3.853  -3.271
  25 H    9.979  -3.005   3.344
  26 H   11.869   0.268  -3.270
  27 H   -9.975   3.014   3.344
  28 H   -8.086   6.287  -3.270
  29 H   -7.596  -7.140   3.277
  30 H   -5.706  -3.867  -3.337
  31 H    7.597   7.130   3.271
  32 H    9.486  10.404  -3.343
  33 H    9.979   3.008   3.270
  34 H   11.868   6.281  -3.344
  35 H   -9.976  -3.016   3.270
  36 H   -8.086   0.258  -3.344
  37 C   -2.658  14.195   3.296
                                229 S  
                                         3.624E+03 1.634E-03 0.000E+00 0.000E+00
                                         5.440E+02 1.252E-02 0.000E+00 0.000E+00
                                         1.237E+02 6.211E-02 0.000E+00 0.000E+00
                                         3.476E+01 2.182E-01 0.000E+00 0.000E+00
                                         1.093E+01 4.980E-01 0.000E+00 0.000E+00
                                230 S  
                                         3.574E+00 1.000E+00 0.000E+00 0.000E+00
                                231 S  
                                         7.742E-01 1.000E+00 0.000E+00 0.000E+00
                                232 S  
                                         2.330E-01 1.000E+00 0.000E+00 0.000E+00
                         233-   235 P  
                                         9.443E+00 0.000E+00 3.790E-02 0.000E+00
                                         2.002E+00 0.000E+00 2.082E-01 0.000E+00
                                         5.463E-01 0.000E+00 5.047E-01 0.000E+00
                         236-   238 P  
                                         1.820E-01 0.000E+00 1.000E+00 0.000E+00
                         239-   243 D  
                                         8.880E-01 0.000E+00 0.000E+00 1.000E+00
  38 C   -0.769 -10.923  -3.318
  39 C   -1.316  11.911   3.278
  40 C    0.574 -13.207  -3.336
  41 C    1.313 -11.910   3.276
  42 C    3.202  -8.637  -3.338
  43 C   -1.317 -11.911   3.281
  44 C    0.573  -8.638  -3.333
  45 C    1.314  11.911   3.268
  46 C    3.203 -13.207  -3.346
  47 C    2.656 -14.195   3.281
  48 C    4.546 -10.922  -3.333
  49 C   13.623  -4.793   3.318
  50 C   15.512  -1.519  -3.296
  51 C   -9.659   7.096   3.336
  52 C   -7.769  10.369  -3.278
  53 C    9.658  -7.090   3.338
  54 C   11.548  -3.816  -3.276
  55 C   10.973  -4.813   3.333
  56 C   12.863  -1.539  -3.281
  57 C  -10.973   4.819   3.346
  58 C   -9.084   8.092  -3.268
  59 C   10.964  -9.396   3.333
  60 C   12.854  -6.122  -3.281
  61 C   13.623   4.795   3.296
  62 C   -9.076  -6.129  -3.318
  63 C   -9.658  -7.098   3.278
  64 C   -7.768  -3.825  -3.336
  65 C    9.659   7.092   3.276
  66 C  -13.040  -3.833  -3.338
  67 C   10.973   4.814   3.281
  68 C  -11.725  -6.110  -3.333
  69 C  -10.973  -4.821   3.268
  70 C   -9.083  -1.548  -3.346
  71 C   10.965   9.398   3.281
  72 C  -11.733  -1.527  -3.333
  73 O   13.787   0.001   3.302
                                769 S  
                                         6.773E+03 1.727E-03 0.000E+00 0.000E+00
                                         1.017E+03 1.325E-02 0.000E+00 0.000E+00
                                         2.313E+02 6.603E-02 0.000E+00 0.000E+00
                                         6.501E+01 2.353E-01 0.000E+00 0.000E+00
                                         2.050E+01 5.498E-01 0.000E+00 0.000E+00
                                770 S  
                                         6.716E+00 1.000E+00 0.000E+00 0.000E+00
                                771 S  
                                         1.147E+00 1.000E+00 0.000E+00 0.000E+00
                                772 S  
                                         3.342E-01 1.000E+00 0.000E+00 0.000E+00
                         773-   775 P  
                                         1.769E+01 0.000E+00 4.359E-02 0.000E+00
                                         3.854E+00 0.000E+00 2.318E-01 0.000E+00
                                         1.047E+00 0.000E+00 5.146E-01 0.000E+00
                         776-   778 P  
                                         2.759E-01 0.000E+00 1.000E+00 0.000E+00
                         779-   783 D  
                                         8.000E-01 0.000E+00 0.000E+00 1.000E+00
  74 O   -8.911 -10.923  -3.312
  75 O   -6.892  11.939   3.342
  76 O   -5.003 -13.179  -3.272
  77 O   -6.893 -11.939   3.282
  78 O   -5.003  -8.666  -3.332
  79 O    6.893 -11.938   3.302
  80 O    8.782  -8.665  -3.312
  81 O    6.893  11.940   3.342
  82 O    8.783 -13.178  -3.272
  83 O  -13.787  -0.001   3.282
  84 O  -11.898   3.272  -3.332

 *******************************************************************************
 FINISHED BASIS SET HANDLING 
 *******************************************************************************

 INFORMATION **** SET_MPP **** PCRYSTAL CALCULATION
 INFORMATION **** READM2 **** NEW DEFAULT: FOCK/KS MATRIX MIXING SET TO 30 %
 INFORMATION **** READM2 **** NEW DEFAULT: FULL DIRECT SCF MODE
 INFORMATION **** READM2 **** NEW DEFAULT: COULOMB BIPOLAR BUFFER SET TO 32 Mb
 INFORMATION **** READM2 **** NEW DEFAULT: EXCHANGE BIPOLAR BUFFER SET TO 32 Mb

 *******************************************************************************
 NEW DEFAULT: DFT INTEGRATION GRID INCREASED TO XLGRID
 NEW DEFAULT: DIIS ACCELERATOR ACTIVE
 USE KEYWORD NODIIS TO TURN IT OFF
 *******************************************************************************

 WARNING **** RDDFTP **** HSEsol-HJS ACTIVE
 RANGE SEPARATION - OMEGA:   0.110000000000000     
 WARNING **** RDDFTP **** HSEsol-3c has to be combined with sol-def2-mSVP basis set
 *******************************************************************************
 N. OF ATOMS PER CELL        84  COULOMB OVERLAP TOL         (T1) 10**   -6
 NUMBER OF SHELLS           468  COULOMB PENETRATION TOL     (T2) 10**   -6
 NUMBER OF AO               948  EXCHANGE OVERLAP TOL        (T3) 10**   -6
 N. OF ELECTRONS PER CELL   396  EXCHANGE PSEUDO OVP (F(G))  (T4) 10**   -6
 CORE ELECTRONS PER CELL    120  EXCHANGE PSEUDO OVP (P(G))  (T5) 10**  -12
 N. OF SYMMETRY OPERATORS     1  POLE ORDER IN MONO ZONE                  4
 *******************************************************************************
 TYPE OF CALCULATION :  RESTRICTED CLOSED SHELL
 KOHN-SHAM HAMILTONIAN

 (EXCHANGE)[CORRELATION] FUNCTIONAL:(HSEsol GGA)[PBEsol]

 RANGE-SEPARATED HYBRID FUNCTIONAL 
 OMEGA (SHORT-RANGE)[LONG-RANGE]:(    0.1100)[    0.0000]

 HYBRID EXCHANGE - PERCENTAGE OF FOCK EXCHANGE    25.0000

 CAPPA:IS1  2;IS2  2;IS3  8; K PTS MONK NET  20; SYMMOPS:K SPACE   2;G SPACE   1

 *******************************************************************************
 MAX NUMBER OF SCF CYCLES      50  CONVERGENCE ON DELTAP        10**-16
 WEIGHT OF F(I) IN F(I+1)      30% CONVERGENCE ON ENERGY        10**- 6
 SHRINK. FACT.(MONKH.)    2  2  8  NUMBER OF K POINTS IN THE IBZ     20
 SHRINKING FACTOR(GILAT NET)    8  NUMBER OF K POINTS(GILAT NET)   1028
 *******************************************************************************
 *** K POINTS COORDINATES (OBLIQUE COORDINATES IN UNITS OF IS =  2)
   1-R(  0  0  0)   2-R(  1  0  0)   3-R(  0  1  0)   4-R(  1  1  0)
   5-C(  0  0  1)   6-C(  1  0  1)   7-C(  0  1  1)   8-C(  1  1  1)
   9-C(  0  0  2)  10-C(  1  0  2)  11-C(  0  1  2)  12-C(  1  1  2)
  13-C(  0  0  3)  14-C(  1  0  3)  15-C(  0  1  3)  16-C(  1  1  3)
  17-R(  0  0  4)  18-R(  1  0  4)  19-R(  0  1  4)  20-R(  1  1  4)

 DIRECT LATTICE VECTORS COMPON. (A.U.)     RECIP. LATTICE VECTORS COMPON. (A.U.) 
        X            Y            Z              X            Y            Z
   24.5879030  -14.1935232    0.0000000      0.2555397    0.0000000    0.0000005
    0.0000000   28.3910867    0.0000000      0.1277517    0.2213084    0.0000015
   -0.0000281   -0.0000746   13.2280829      0.0000000    0.0000000    0.4749884

 DISK SPACE FOR EIGENVECTORS (FTN 10)    28758528 REALS

 SYMMETRY ADAPTION OF THE BLOCH FUNCTIONS DISABLED
 TTTTTTTTTTTTTTTTTTTTTTTTTTTTTT gordsh1     TELAPSE        0.05 TCPU        0.05

 MATRIX SIZE: P(G)  762386, F(G)  155014, P(G) IRR  383239, F(G) IRR  156046
 MAX G-VECTOR INDEX FOR 1- AND 2-ELECTRON INTEGRALS  65

 TTTTTTTTTTTTTTTTTTTTTTTTTTTTTT INPUT       TELAPSE        2.93 TCPU        2.93

 NEIGHBORS OF THE NON-EQUIVALENT ATOMS

 N = NUMBER OF NEIGHBORS AT DISTANCE R
    ATOM  N     R/ANG      R/AU   NEIGHBORS (ATOM LABELS AND CELL INDICES)
   1 B    1     1.3791     2.6061   73 O   -1 0 0
   1 B    1     1.3793     2.6065   75 O    0 0 0
   1 B    1     1.5503     2.9297   49 C   -1 0 0
   1 B    1     2.3895     4.5155    5 B    0 1 0
   1 B    1     2.3898     4.5160    3 B    0 0 0
   1 B    1     2.5632     4.8437   51 C    0 0 0

   2 B    1     1.3791     2.6061   74 O    0 0 0
   2 B    1     1.3793     2.6065   76 O    0 0 0
   2 B    1     1.5503     2.9297   50 C   -1-1 0
   2 B    1     2.3895     4.5155    6 B    0 0 0
   2 B    1     2.3898     4.5160    4 B    0 0 0
   2 B    1     2.5632     4.8437   52 C    0-1 0

   3 B    1     1.3793     2.6065   77 O    0 1 0
   3 B    1     1.3793     2.6065   75 O    0 0 0
   3 B    1     1.5504     2.9298   37 C    0 0 0
   3 B    1     2.3895     4.5156    5 B    0 1 0
   3 B    1     2.3898     4.5160    1 B    0 0 0
   3 B    1     2.5634     4.8440   43 C    0 1 0

   4 B    1     1.3793     2.6065   78 O    0 0 0
   4 B    1     1.3793     2.6065   76 O    0 0 0
   4 B    1     1.5504     2.9298   38 C    0 0 0
   4 B    1     2.3895     4.5156    6 B    0 0 0
   4 B    1     2.3898     4.5160    2 B    0 0 0
   4 B    1     2.5634     4.8440   44 C    0 0 0

   5 B    1     1.3791     2.6061   73 O   -1-1 0
   5 B    1     1.3793     2.6064   77 O    0 0 0
   5 B    1     1.5502     2.9294   61 C   -1-1 0
   5 B    1     2.3895     4.5155    1 B    0-1 0
   5 B    1     2.3895     4.5156    3 B    0-1 0
   5 B    1     2.5629     4.8433   63 C    0 0 0

   6 B    1     1.3791     2.6061   74 O    0 0 0
   6 B    1     1.3793     2.6064   78 O    0 0 0
   6 B    1     1.5502     2.9294   62 C    0 0 0
   6 B    1     2.3895     4.5155    2 B    0 0 0
   6 B    1     2.3895     4.5156    4 B    0 0 0
   6 B    1     2.5629     4.8433   64 C    0 0 0

   7 B    1     1.3795     2.6068   79 O    0 0 0
   7 B    1     1.3795     2.6070   81 O    0-1 0
   7 B    1     1.5513     2.9316   47 C    0 0 0
   7 B    1     2.3905     4.5174   11 B    0 0 0
   7 B    1     2.3905     4.5175    9 B    0-1 0
   7 B    1     2.5648     4.8468   45 C    0-1 0

   8 B    1     1.3795     2.6068   80 O    0 0 0
   8 B    1     1.3795     2.6070   82 O    0 0 0
   8 B    1     1.5513     2.9316   48 C    0 0 0
   8 B    1     2.3905     4.5174   12 B    0 0 0
   8 B    1     2.3905     4.5175   10 B    1 0 0
   8 B    1     2.5648     4.8468   46 C    0 0 0

   9 B    1     1.3795     2.6069   81 O    0 0 0
   9 B    1     1.3797     2.6072   83 O    1 1 0
   9 B    1     1.5516     2.9322   71 C    0 0 0
   9 B    1     2.3905     4.5175    7 B    0 1 0
   9 B    1     2.3911     4.5185   11 B    0 1 0
   9 B    1     2.5651     4.8473   69 C    1 1 0

  10 B    1     1.3795     2.6069   82 O   -1 0 0
  10 B    1     1.3797     2.6072   84 O    0 0 0
  10 B    1     1.5516     2.9322   72 C    0 0 0
  10 B    1     2.3905     4.5175    8 B   -1 0 0
  10 B    1     2.3911     4.5185   12 B   -1 0 0
  10 B    1     2.5651     4.8473   70 C    0 0 0

  11 B    1     1.3795     2.6068   79 O    0 0 0
  11 B    1     1.3796     2.6071   83 O    1 0 0
  11 B    1     1.5516     2.9322   59 C    0 0 0
  11 B    1     2.3905     4.5174    7 B    0 0 0
  11 B    1     2.3911     4.5185    9 B    0-1 0
  11 B    1     2.5651     4.8473   57 C    1 0 0

  12 B    1     1.3795     2.6068   80 O    0 0 0
  12 B    1     1.3796     2.6071   84 O    1 0 0
  12 B    1     1.5516     2.9322   60 C    0 0 0
  12 B    1     2.3905     4.5174    8 B    0 0 0
  12 B    1     2.3911     4.5185   10 B    1 0 0
  12 B    1     2.5651     4.8473   58 C    1 0 0

  13 H    1     1.0913     2.0623   39 C    0 0 0
  13 H    1     2.1472     4.0576   37 C    0 0 0
  13 H    1     2.1680     4.0969   45 C    0 0 0
  13 H    1     2.5202     4.7625   19 H    0 0 0
  13 H    1     2.5676     4.8520   75 O    0 0 0
  13 H    1     2.7321     5.1630    3 B    0 0 0

  14 H    1     1.0913     2.0623   40 C    0 1 0
  14 H    1     2.1472     4.0576   38 C    0 1 0
  14 H    1     2.1680     4.0969   46 C    0 1 0
  14 H    1     2.5202     4.7625   20 H    0 0 0
  14 H    1     2.5676     4.8520   76 O    0 1 0
  14 H    1     2.7321     5.1630    4 B    0 1 0

  15 H    1     1.0914     2.0625   41 C    0 0 0
  15 H    1     2.1493     4.0616   47 C    0 0 0
  15 H    1     2.1666     4.0942   43 C    0 0 0
  15 H    1     2.5198     4.7618   17 H    0 0 0
  15 H    1     2.5720     4.8604   79 O    0 0 0
  15 H    1     2.7362     5.1707    7 B    0 0 0

  16 H    1     1.0914     2.0625   42 C    0 0 0
  16 H    1     2.1493     4.0616   48 C    0 0 0
  16 H    1     2.1666     4.0942   44 C    0 0 0
  16 H    1     2.5198     4.7618   18 H    0 0 0
  16 H    1     2.5720     4.8604   80 O    0 0 0
  16 H    1     2.7362     5.1707    8 B    0 0 0

  17 H    1     1.0914     2.0624   43 C    0 0 0
  17 H    1     2.1471     4.0575   37 C    0-1 0
  17 H    1     2.1680     4.0970   41 C    0 0 0
  17 H    1     2.5198     4.7618   15 H    0 0 0
  17 H    1     2.5665     4.8500   77 O    0 0 0
  17 H    1     2.7315     5.1618    3 B    0-1 0

  18 H    1     1.0914     2.0624   44 C    0 0 0
  18 H    1     2.1471     4.0575   38 C    0 0 0
  18 H    1     2.1680     4.0970   42 C    0 0 0
  18 H    1     2.5198     4.7618   16 H    0 0 0
  18 H    1     2.5665     4.8500   78 O    0 0 0
  18 H    1     2.7315     5.1618    4 B    0 0 0

  19 H    1     1.0915     2.0626   45 C    0 0 0
  19 H    1     2.1490     4.0610   47 C    0 1 0
  19 H    1     2.1669     4.0948   39 C    0 0 0
  19 H    1     2.5202     4.7625   13 H    0 0 0
  19 H    1     2.5712     4.8588   81 O    0 0 0
  19 H    1     2.7351     5.1686    7 B    0 1 0

  20 H    1     1.0915     2.0626   46 C    0 1 0
  20 H    1     2.1490     4.0610   48 C    0 1 0
  20 H    1     2.1669     4.0948   40 C    0 1 0
  20 H    1     2.5202     4.7625   14 H    0 0 0
  20 H    1     2.5712     4.8588   82 O    0 1 0
  20 H    1     2.7351     5.1686    8 B    0 1 0

  21 H    1     1.0913     2.0623   51 C    0 0 0
  21 H    1     2.1469     4.0571   49 C   -1 0 0
  21 H    1     2.1680     4.0968   57 C    0 0 0
  21 H    1     2.5198     4.7617   27 H    0 0 0
  21 H    1     2.5670     4.8510   75 O    0 0 0
  21 H    1     2.7310     5.1609    1 B    0 0 0

  22 H    1     1.0913     2.0623   52 C    0 0 0
  22 H    1     2.1469     4.0571   50 C   -1 0 0
  22 H    1     2.1680     4.0968   58 C    0 0 0
  22 H    1     2.5198     4.7617   28 H    0 0 0
  22 H    1     2.5670     4.8510   76 O    0 1 0
  22 H    1     2.7310     5.1609    2 B    0 1 0

  23 H    1     1.0914     2.0625   53 C    0 0 0
  23 H    1     2.1493     4.0617   59 C    0 0 0
  23 H    1     2.1664     4.0939   55 C    0 0 0
  23 H    1     2.5192     4.7606   25 H    0 0 0
  23 H    1     2.5735     4.8632   79 O    0 0 0
  23 H    1     2.7371     5.1723   11 B    0 0 0

  24 H    1     1.0914     2.0625   54 C    0 0 0
  24 H    1     2.1493     4.0617   60 C    0 0 0
  24 H    1     2.1664     4.0939   56 C    0 0 0
  24 H    1     2.5192     4.7606   26 H    0 0 0
  24 H    1     2.5735     4.8632   80 O    0 0 0
  24 H    1     2.7371     5.1723   12 B    0 0 0

  25 H    1     1.0914     2.0624   55 C    0 0 0
  25 H    1     2.1475     4.0581   49 C    0 0 0
  25 H    1     2.1679     4.0967   53 C    0 0 0
  25 H    1     2.5192     4.7606   23 H    0 0 0
  25 H    1     2.5675     4.8519   73 O    0 0 0
  25 H    1     2.7328     5.1643    1 B    1 0 0

  26 H    1     1.0914     2.0624   56 C    0 0 0
  26 H    1     2.1475     4.0581   50 C    0 0 0
  26 H    1     2.1679     4.0967   54 C    0 0 0
  26 H    1     2.5192     4.7606   24 H    0 0 0
  26 H    1     2.5675     4.8519   74 O    1 1 0
  26 H    1     2.7328     5.1643    2 B    1 1 0

  27 H    1     1.0914     2.0625   57 C    0 0 0
  27 H    1     2.1491     4.0612   59 C   -1 0 0
  27 H    1     2.1666     4.0942   51 C    0 0 0
  27 H    1     2.5198     4.7617   21 H    0 0 0
  27 H    1     2.5723     4.8609   83 O    0 0 0
  27 H    1     2.7355     5.1693   11 B   -1 0 0

  28 H    1     1.0914     2.0625   58 C    0 0 0
  28 H    1     2.1491     4.0612   60 C   -1 0 0
  28 H    1     2.1666     4.0942   52 C    0 0 0
  28 H    1     2.5198     4.7617   22 H    0 0 0
  28 H    1     2.5723     4.8609   84 O    0 0 0
  28 H    1     2.7355     5.1693   12 B   -1 0 0

  29 H    1     1.0914     2.0624   63 C    0 0 0
  29 H    1     2.1475     4.0582   61 C   -1-1 0
  29 H    1     2.1678     4.0966   69 C    0 0 0
  29 H    1     2.5200     4.7621   35 H    0 0 0
  29 H    1     2.5667     4.8503   77 O    0 0 0
  29 H    1     2.7315     5.1618    5 B    0 0 0

  30 H    1     1.0914     2.0624   64 C    0 0 0
  30 H    1     2.1475     4.0582   62 C    0 0 0
  30 H    1     2.1678     4.0966   70 C    0 0 0
  30 H    1     2.5200     4.7621   36 H    0 0 0
  30 H    1     2.5667     4.8503   78 O    0 0 0
  30 H    1     2.7315     5.1618    6 B    0 0 0

  31 H    1     1.0913     2.0623   65 C    0 0 0
  31 H    1     2.1487     4.0605   71 C    0 0 0
  31 H    1     2.1667     4.0945   67 C    0 0 0
  31 H    1     2.5197     4.7616   33 H    0 0 0
  31 H    1     2.5723     4.8610   81 O    0 0 0
  31 H    1     2.7359     5.1701    9 B    0 0 0

  32 H    1     1.0913     2.0623   66 C    1 1 0
  32 H    1     2.1487     4.0605   72 C    1 1 0
  32 H    1     2.1667     4.0945   68 C    1 1 0
  32 H    1     2.5197     4.7616   34 H    0 0 0
  32 H    1     2.5723     4.8610   82 O    0 1 0
  32 H    1     2.7359     5.1701   10 B    1 1 0

  33 H    1     1.0915     2.0626   67 C    0 0 0
  33 H    1     2.1479     4.0589   61 C    0 0 0
  33 H    1     2.1679     4.0968   65 C    0 0 0
  33 H    1     2.5197     4.7616   31 H    0 0 0
  33 H    1     2.5677     4.8522   73 O    0 0 0
  33 H    1     2.7331     5.1648    5 B    1 1 0

  34 H    1     1.0915     2.0626   68 C    1 1 0
  34 H    1     2.1479     4.0589   62 C    1 1 0
  34 H    1     2.1679     4.0968   66 C    1 1 0
  34 H    1     2.5197     4.7616   32 H    0 0 0
  34 H    1     2.5677     4.8522   74 O    1 1 0
  34 H    1     2.7331     5.1648    6 B    1 1 0

  35 H    1     1.0914     2.0624   69 C    0 0 0
  35 H    1     2.1486     4.0602   71 C   -1-1 0
  35 H    1     2.1668     4.0947   63 C    0 0 0
  35 H    1     2.5200     4.7621   29 H    0 0 0
  35 H    1     2.5717     4.8598   83 O    0 0 0
  35 H    1     2.7349     5.1682    9 B   -1-1 0

  36 H    1     1.0914     2.0624   70 C    0 0 0
  36 H    1     2.1486     4.0602   72 C    0 0 0
  36 H    1     2.1668     4.0947   64 C    0 0 0
  36 H    1     2.5200     4.7621   30 H    0 0 0
  36 H    1     2.5717     4.8598   84 O    0 0 0
  36 H    1     2.7349     5.1682   10 B    0 0 0

  37 C    1     1.4020     2.6495   43 C    0 1 0
  37 C    1     1.4021     2.6495   39 C    0 0 0
  37 C    1     1.5504     2.9298    3 B    0 0 0
  37 C    1     2.1471     4.0575   17 H    0 1 0
  37 C    1     2.1472     4.0576   13 H    0 0 0
  37 C    1     2.4246     4.5817   41 C    0 1 0

  38 C    1     1.4020     2.6495   44 C    0 0 0
  38 C    1     1.4021     2.6495   40 C    0 0 0
  38 C    1     1.5504     2.9298    4 B    0 0 0
  38 C    1     2.1471     4.0575   18 H    0 0 0
  38 C    1     2.1472     4.0576   14 H    0-1 0
  38 C    1     2.4246     4.5817   42 C    0 0 0

  39 C    1     1.0913     2.0623   13 H    0 0 0
  39 C    1     1.3914     2.6294   45 C    0 0 0
  39 C    1     1.4021     2.6495   37 C    0 0 0
  39 C    1     2.1669     4.0948   19 H    0 0 0
  39 C    1     2.4177     4.5688   43 C    0 1 0
  39 C    1     2.4250     4.5825   47 C    0 1 0

  40 C    1     1.0913     2.0623   14 H    0-1 0
  40 C    1     1.3914     2.6294   46 C    0 0 0
  40 C    1     1.4021     2.6495   38 C    0 0 0
  40 C    1     2.1669     4.0948   20 H    0-1 0
  40 C    1     2.4177     4.5688   44 C    0 0 0
  40 C    1     2.4250     4.5825   48 C    0 0 0

  41 C    1     1.0914     2.0625   15 H    0 0 0
  41 C    1     1.3914     2.6293   43 C    0 0 0
  41 C    1     1.4026     2.6505   47 C    0 0 0
  41 C    1     2.1680     4.0970   17 H    0 0 0
  41 C    1     2.4182     4.5697   45 C    0-1 0
  41 C    1     2.4246     4.5817   37 C    0-1 0

  42 C    1     1.0914     2.0625   16 H    0 0 0
  42 C    1     1.3914     2.6293   44 C    0 0 0
  42 C    1     1.4026     2.6505   48 C    0 0 0
  42 C    1     2.1680     4.0970   18 H    0 0 0
  42 C    1     2.4182     4.5697   46 C    0 0 0
  42 C    1     2.4246     4.5817   38 C    0 0 0

  43 C    1     1.0914     2.0624   17 H    0 0 0
  43 C    1     1.3914     2.6293   41 C    0 0 0
  43 C    1     1.4020     2.6495   37 C    0-1 0
  43 C    1     2.1666     4.0942   15 H    0 0 0
  43 C    1     2.4177     4.5688   39 C    0-1 0
  43 C    1     2.4250     4.5826   47 C    0 0 0

  44 C    1     1.0914     2.0624   18 H    0 0 0
  44 C    1     1.3914     2.6293   42 C    0 0 0
  44 C    1     1.4020     2.6495   38 C    0 0 0
  44 C    1     2.1666     4.0942   16 H    0 0 0
  44 C    1     2.4177     4.5688   40 C    0 0 0
  44 C    1     2.4250     4.5826   48 C    0 0 0

  45 C    1     1.0915     2.0626   19 H    0 0 0
  45 C    1     1.3914     2.6294   39 C    0 0 0
  45 C    1     1.4025     2.6504   47 C    0 1 0
  45 C    1     2.1680     4.0969   13 H    0 0 0
  45 C    1     2.4182     4.5697   41 C    0 1 0
  45 C    1     2.4246     4.5818   37 C    0 0 0

  46 C    1     1.0915     2.0626   20 H    0-1 0
  46 C    1     1.3914     2.6294   40 C    0 0 0
  46 C    1     1.4025     2.6504   48 C    0 0 0
  46 C    1     2.1680     4.0969   14 H    0-1 0
  46 C    1     2.4182     4.5697   42 C    0 0 0
  46 C    1     2.4246     4.5818   38 C    0 0 0

  47 C    1     1.4025     2.6504   45 C    0-1 0
  47 C    1     1.4026     2.6505   41 C    0 0 0
  47 C    1     1.5513     2.9316    7 B    0 0 0
  47 C    1     2.1490     4.0610   19 H    0-1 0
  47 C    1     2.1493     4.0616   15 H    0 0 0
  47 C    1     2.4250     4.5825   39 C    0-1 0

  48 C    1     1.4025     2.6504   46 C    0 0 0
  48 C    1     1.4026     2.6505   42 C    0 0 0
  48 C    1     1.5513     2.9316    8 B    0 0 0
  48 C    1     2.1490     4.0610   20 H    0-1 0
  48 C    1     2.1493     4.0616   16 H    0 0 0
  48 C    1     2.4250     4.5825   40 C    0 0 0

  49 C    1     1.4020     2.6494   51 C    1 0 0
  49 C    1     1.4021     2.6495   55 C    0 0 0
  49 C    1     1.5503     2.9297    1 B    1 0 0
  49 C    1     2.1469     4.0571   21 H    1 0 0
  49 C    1     2.1475     4.0581   25 H    0 0 0
  49 C    1     2.4246     4.5818   53 C    0 0 0

  50 C    1     1.4020     2.6494   52 C    1 0 0
  50 C    1     1.4021     2.6495   56 C    0 0 0
  50 C    1     1.5503     2.9297    2 B    1 1 0
  50 C    1     2.1469     4.0571   22 H    1 0 0
  50 C    1     2.1475     4.0581   26 H    0 0 0
  50 C    1     2.4246     4.5818   54 C    0 0 0

  51 C    1     1.0913     2.0623   21 H    0 0 0
  51 C    1     1.3914     2.6293   57 C    0 0 0
  51 C    1     1.4020     2.6494   49 C   -1 0 0
  51 C    1     2.1666     4.0942   27 H    0 0 0
  51 C    1     2.4175     4.5684   55 C   -1 0 0
  51 C    1     2.4251     4.5828   59 C   -1 0 0

  52 C    1     1.0913     2.0623   22 H    0 0 0
  52 C    1     1.3914     2.6293   58 C    0 0 0
  52 C    1     1.4020     2.6494   50 C   -1 0 0
  52 C    1     2.1666     4.0942   28 H    0 0 0
  52 C    1     2.4175     4.5684   56 C   -1 0 0
  52 C    1     2.4251     4.5828   60 C   -1 0 0

  53 C    1     1.0914     2.0625   23 H    0 0 0
  53 C    1     1.3915     2.6295   55 C    0 0 0
  53 C    1     1.4026     2.6505   59 C    0 0 0
  53 C    1     2.1679     4.0967   25 H    0 0 0
  53 C    1     2.4179     4.5691   57 C    1 0 0
  53 C    1     2.4246     4.5818   49 C    0 0 0

  54 C    1     1.0914     2.0625   24 H    0 0 0
  54 C    1     1.3915     2.6295   56 C    0 0 0
  54 C    1     1.4026     2.6505   60 C    0 0 0
  54 C    1     2.1679     4.0967   26 H    0 0 0
  54 C    1     2.4179     4.5691   58 C    1 0 0
  54 C    1     2.4246     4.5818   50 C    0 0 0

  55 C    1     1.0914     2.0624   25 H    0 0 0
  55 C    1     1.3915     2.6295   53 C    0 0 0
  55 C    1     1.4021     2.6495   49 C    0 0 0
  55 C    1     2.1664     4.0939   23 H    0 0 0
  55 C    1     2.4175     4.5684   51 C    1 0 0
  55 C    1     2.4253     4.5832   59 C    0 0 0

  56 C    1     1.0914     2.0624   26 H    0 0 0
  56 C    1     1.3915     2.6295   54 C    0 0 0
  56 C    1     1.4021     2.6495   50 C    0 0 0
  56 C    1     2.1664     4.0939   24 H    0 0 0
  56 C    1     2.4175     4.5684   52 C    1 0 0
  56 C    1     2.4253     4.5832   60 C    0 0 0

  57 C    1     1.0914     2.0625   27 H    0 0 0
  57 C    1     1.3914     2.6293   51 C    0 0 0
  57 C    1     1.4025     2.6504   59 C   -1 0 0
  57 C    1     2.1680     4.0968   21 H    0 0 0
  57 C    1     2.4179     4.5691   53 C   -1 0 0
  57 C    1     2.4247     4.5819   49 C   -1 0 0

  58 C    1     1.0914     2.0625   28 H    0 0 0
  58 C    1     1.3914     2.6293   52 C    0 0 0
  58 C    1     1.4025     2.6504   60 C   -1 0 0
  58 C    1     2.1680     4.0968   22 H    0 0 0
  58 C    1     2.4179     4.5691   54 C   -1 0 0
  58 C    1     2.4247     4.5819   50 C   -1 0 0

  59 C    1     1.4025     2.6504   57 C    1 0 0
  59 C    1     1.4026     2.6505   53 C    0 0 0
  59 C    1     1.5516     2.9322   11 B    0 0 0
  59 C    1     2.1491     4.0612   27 H    1 0 0
  59 C    1     2.1493     4.0617   23 H    0 0 0
  59 C    1     2.4251     4.5828   51 C    1 0 0

  60 C    1     1.4025     2.6504   58 C    1 0 0
  60 C    1     1.4026     2.6505   54 C    0 0 0
  60 C    1     1.5516     2.9322   12 B    0 0 0
  60 C    1     2.1491     4.0612   28 H    1 0 0
  60 C    1     2.1493     4.0617   24 H    0 0 0
  60 C    1     2.4251     4.5828   52 C    1 0 0

  61 C    1     1.4021     2.6496   63 C    1 1 0
  61 C    1     1.4021     2.6497   67 C    0 0 0
  61 C    1     1.5502     2.9294    5 B    1 1 0
  61 C    1     2.1475     4.0582   29 H    1 1 0
  61 C    1     2.1479     4.0589   33 H    0 0 0
  61 C    1     2.4244     4.5814   65 C    0 0 0

  62 C    1     1.4021     2.6496   64 C    0 0 0
  62 C    1     1.4021     2.6497   68 C    0 0 0
  62 C    1     1.5502     2.9294    6 B    0 0 0
  62 C    1     2.1475     4.0582   30 H    0 0 0
  62 C    1     2.1479     4.0589   34 H   -1-1 0
  62 C    1     2.4244     4.5814   66 C    0 0 0

  63 C    1     1.0914     2.0624   29 H    0 0 0
  63 C    1     1.3914     2.6293   69 C    0 0 0
  63 C    1     1.4021     2.6496   61 C   -1-1 0
  63 C    1     2.1668     4.0947   35 H    0 0 0
  63 C    1     2.4179     4.5692   67 C   -1-1 0
  63 C    1     2.4251     4.5827   71 C   -1-1 0

  64 C    1     1.0914     2.0624   30 H    0 0 0
  64 C    1     1.3914     2.6293   70 C    0 0 0
  64 C    1     1.4021     2.6496   62 C    0 0 0
  64 C    1     2.1668     4.0947   36 H    0 0 0
  64 C    1     2.4179     4.5692   68 C    0 0 0
  64 C    1     2.4251     4.5827   72 C    0 0 0

  65 C    1     1.0913     2.0623   31 H    0 0 0
  65 C    1     1.3914     2.6294   67 C    0 0 0
  65 C    1     1.4025     2.6504   71 C    0 0 0
  65 C    1     2.1679     4.0968   33 H    0 0 0
  65 C    1     2.4178     4.5690   69 C    1 1 0
  65 C    1     2.4244     4.5814   61 C    0 0 0

  66 C    1     1.0913     2.0623   32 H   -1-1 0
  66 C    1     1.3914     2.6294   68 C    0 0 0
  66 C    1     1.4025     2.6504   72 C    0 0 0
  66 C    1     2.1679     4.0968   34 H   -1-1 0
  66 C    1     2.4178     4.5690   70 C    0 0 0
  66 C    1     2.4244     4.5814   62 C    0 0 0

  67 C    1     1.0915     2.0626   33 H    0 0 0
  67 C    1     1.3914     2.6294   65 C    0 0 0
  67 C    1     1.4021     2.6497   61 C    0 0 0
  67 C    1     2.1667     4.0945   31 H    0 0 0
  67 C    1     2.4179     4.5692   63 C    1 1 0
  67 C    1     2.4253     4.5832   71 C    0 0 0

  68 C    1     1.0915     2.0626   34 H   -1-1 0
  68 C    1     1.3914     2.6294   66 C    0 0 0
  68 C    1     1.4021     2.6497   62 C    0 0 0
  68 C    1     2.1667     4.0945   32 H   -1-1 0
  68 C    1     2.4179     4.5692   64 C    0 0 0
  68 C    1     2.4253     4.5832   72 C    0 0 0

  69 C    1     1.0914     2.0624   35 H    0 0 0
  69 C    1     1.3914     2.6293   63 C    0 0 0
  69 C    1     1.4025     2.6503   71 C   -1-1 0
  69 C    1     2.1678     4.0966   29 H    0 0 0
  69 C    1     2.4178     4.5690   65 C   -1-1 0
  69 C    1     2.4245     4.5817   61 C   -1-1 0

  70 C    1     1.0914     2.0624   36 H    0 0 0
  70 C    1     1.3914     2.6293   64 C    0 0 0
  70 C    1     1.4025     2.6503   72 C    0 0 0
  70 C    1     2.1678     4.0966   30 H    0 0 0
  70 C    1     2.4178     4.5690   66 C    0 0 0
  70 C    1     2.4245     4.5817   62 C    0 0 0

  71 C    1     1.4025     2.6503   69 C    1 1 0
  71 C    1     1.4025     2.6504   65 C    0 0 0
  71 C    1     1.5516     2.9322    9 B    0 0 0
  71 C    1     2.1486     4.0602   35 H    1 1 0
  71 C    1     2.1487     4.0605   31 H    0 0 0
  71 C    1     2.4251     4.5827   63 C    1 1 0

  72 C    1     1.4025     2.6503   70 C    0 0 0
  72 C    1     1.4025     2.6504   66 C    0 0 0
  72 C    1     1.5516     2.9322   10 B    0 0 0
  72 C    1     2.1486     4.0602   36 H    0 0 0
  72 C    1     2.1487     4.0605   32 H   -1-1 0
  72 C    1     2.4251     4.5827   64 C    0 0 0

  73 O    1     1.3791     2.6061    1 B    1 0 0
  73 O    1     1.3791     2.6061    5 B    1 1 0
  73 O    1     2.3880     4.5126   75 O    1 0 0
  73 O    1     2.3882     4.5130   77 O    1 1 0
  73 O    1     2.5383     4.7966   61 C    0 0 0
  73 O    1     2.5384     4.7968   49 C    0 0 0

  74 O    1     1.3791     2.6061    2 B    0 0 0
  74 O    1     1.3791     2.6061    6 B    0 0 0
  74 O    1     2.3880     4.5126   76 O    0 0 0
  74 O    1     2.3882     4.5130   78 O    0 0 0
  74 O    1     2.5383     4.7966   62 C    0 0 0
  74 O    1     2.5384     4.7968   50 C   -1-1 0

  75 O    1     1.3793     2.6065    1 B    0 0 0
  75 O    1     1.3793     2.6065    3 B    0 0 0
  75 O    1     2.3880     4.5126   73 O   -1 0 0
  75 O    1     2.3882     4.5131   77 O    0 1 0
  75 O    1     2.5391     4.7981   37 C    0 0 0
  75 O    1     2.5395     4.7990   49 C   -1 0 0

  76 O    1     1.3793     2.6065    2 B    0 0 0
  76 O    1     1.3793     2.6065    4 B    0 0 0
  76 O    1     2.3880     4.5126   74 O    0 0 0
  76 O    1     2.3882     4.5131   78 O    0 0 0
  76 O    1     2.5391     4.7981   38 C    0 0 0
  76 O    1     2.5395     4.7990   50 C   -1-1 0

  77 O    1     1.3793     2.6064    5 B    0 0 0
  77 O    1     1.3793     2.6065    3 B    0-1 0
  77 O    1     2.3882     4.5130   73 O   -1-1 0
  77 O    1     2.3882     4.5131   75 O    0-1 0
  77 O    1     2.5390     4.7980   37 C    0-1 0
  77 O    1     2.5391     4.7982   61 C   -1-1 0

  78 O    1     1.3793     2.6064    6 B    0 0 0
  78 O    1     1.3793     2.6065    4 B    0 0 0
  78 O    1     2.3882     4.5130   74 O    0 0 0
  78 O    1     2.3882     4.5131   76 O    0 0 0
  78 O    1     2.5390     4.7980   38 C    0 0 0
  78 O    1     2.5391     4.7982   62 C    0 0 0

  79 O    1     1.3795     2.6068   11 B    0 0 0
  79 O    1     1.3795     2.6068    7 B    0 0 0
  79 O    1     2.3880     4.5126   83 O    1 0 0
  79 O    1     2.3884     4.5134   81 O    0-1 0
  79 O    1     2.5400     4.7998   47 C    0 0 0
  79 O    1     2.5403     4.8005   59 C    0 0 0

  80 O    1     1.3795     2.6068   12 B    0 0 0
  80 O    1     1.3795     2.6068    8 B    0 0 0
  80 O    1     2.3880     4.5126   84 O    1 0 0
  80 O    1     2.3884     4.5134   82 O    0 0 0
  80 O    1     2.5400     4.7998   48 C    0 0 0
  80 O    1     2.5403     4.8005   60 C    0 0 0

  81 O    1     1.3795     2.6069    9 B    0 0 0
  81 O    1     1.3795     2.6070    7 B    0 1 0
  81 O    1     2.3881     4.5128   83 O    1 1 0
  81 O    1     2.3884     4.5134   79 O    0 1 0
  81 O    1     2.5404     4.8006   47 C    0 1 0
  81 O    1     2.5405     4.8008   71 C    0 0 0

  82 O    1     1.3795     2.6069   10 B    1 0 0
  82 O    1     1.3795     2.6070    8 B    0 0 0
  82 O    1     2.3881     4.5128   84 O    1 0 0
  82 O    1     2.3884     4.5134   80 O    0 0 0
  82 O    1     2.5404     4.8006   48 C    0 0 0
  82 O    1     2.5405     4.8008   72 C    1 0 0

  83 O    1     1.3796     2.6071   11 B   -1 0 0
  83 O    1     1.3797     2.6072    9 B   -1-1 0
  83 O    1     2.3880     4.5126   79 O   -1 0 0
  83 O    1     2.3881     4.5128   81 O   -1-1 0
  83 O    1     2.5409     4.8016   71 C   -1-1 0
  83 O    1     2.5410     4.8019   59 C   -1 0 0

  84 O    1     1.3796     2.6071   12 B   -1 0 0
  84 O    1     1.3797     2.6072   10 B    0 0 0
  84 O    1     2.3880     4.5126   80 O   -1 0 0
  84 O    1     2.3881     4.5128   82 O   -1 0 0
  84 O    1     2.5409     4.8016   72 C    0 0 0
  84 O    1     2.5410     4.8019   60 C   -1 0 0


 SYMMETRY ALLOWED INTERNAL DEGREE(S) OF FREEDOM: 249
 TTTTTTTTTTTTTTTTTTTTTTTTTTTTTT SYMM        TELAPSE        2.94 TCPU        2.93
 TTTTTTTTTTTTTTTTTTTTTTTTTTTTTT INT_SCREEN  TELAPSE        3.15 TCPU        3.14

 DFT PARAMETERS

     ATOM       ELECTRONS   NET CHARGE   R(ANGSTROM)
   1   5  B       5.0000      0.0000     0.89000000
  13   1  H       1.0000      0.0000     1.11000000
  37   6  C       6.0000      0.0000     0.77000000
  73   8  O       8.0000      0.0000     0.74000000

 SIZE OF GRID=    2525765
 TTTTTTTTTTTTTTTTTTTTTTTTTTTTTT MAKE_GRID2  TELAPSE       26.48 TCPU       26.45
 BECKE WEIGHT FUNCTION
 RADSAFE =     2.00
 TOLERANCES - DENSITY:10**- 6; POTENTIAL:10**- 9; GRID WGT:10**-14

 RADIAL INTEGRATION  - INTERVALS (POINTS,UPPER LIMIT):            1( 75,  4.0*R)

 ANGULAR INTEGRATION - INTERVALS (ACCURACY LEVEL [N. POINTS] UPPER LIMIT):
  1(  4[  86]   0.2)  2(  8[ 194]   0.5)  3( 12[ 350]   0.9)  4( 16[ 974]   3.5)
  5( 12[ 350]9999.0)
 TTTTTTTTTTTTTTTTTTTTTTTTTTTTTT INT_CALC    TELAPSE       26.77 TCPU       26.75
 EEEEEEEEEE INT_CALC TERMINATION  DATE 19 02 2026 TIME 20:10:39.1

 *******************************************************************************
 cof-1_z35_L020_serr                                                             
 CRYSTAL - SCF - TYPE OF CALCULATION :  RESTRICTED CLOSED SHELL
 *******************************************************************************

 CAPPA:IS1  2;IS2  2;IS3  8; K PTS MONK NET  20; SYMMOPS:K SPACE   2;G SPACE   1

 TTTTTTTTTTTTTTTTTTTTTTTTTTTTTT SDIK        TELAPSE       28.67 TCPU       53.84

 AAAAAAAAAAAAAAAAAAAAAAAAAAAAAAAAAAAAAAAAAAAAAAAAAAAAAAAAAAAAAAAAAAAAAAAAAAAAAAA
         ATOMIC WAVEFUNCTION(S)


 NUCLEAR CHARGE  5.0  SYMMETRY SPECIES            S    P
 N. ELECTRONS    5.0  NUMBER OF PRIMITIVE GTOS    8    4
                      NUMBER OF CONTRACTED GTOS   4    2
                      NUMBER OF CLOSED SHELLS     2    0
                      OPEN SHELL OCCUPATION       0    1

  ZNUC  SCFIT    TOTAL HF ENERGY   KINETIC ENERGY   VIRIAL THEOREM ACCURACY
   5.0    11    -2.451164084E+01  2.462155050E+01 -1.995536038E+00  1.5E-06

 NUCLEAR CHARGE  1.0  SYMMETRY SPECIES            S
 N. ELECTRONS    1.0  NUMBER OF PRIMITIVE GTOS    4
                      NUMBER OF CONTRACTED GTOS   2
                      NUMBER OF CLOSED SHELLS     0
                      OPEN SHELL OCCUPATION       1

  ZNUC  SCFIT    TOTAL HF ENERGY   KINETIC ENERGY   VIRIAL THEOREM ACCURACY
   1.0     1    -4.977266687E-01  5.190767460E-01 -1.958869132E+00  0.0E+00

 NUCLEAR CHARGE  6.0  SYMMETRY SPECIES            S    P
 N. ELECTRONS    6.0  NUMBER OF PRIMITIVE GTOS    8    4
                      NUMBER OF CONTRACTED GTOS   4    2
                      NUMBER OF CLOSED SHELLS     2    0
                      OPEN SHELL OCCUPATION       0    2

  ZNUC  SCFIT    TOTAL HF ENERGY   KINETIC ENERGY   VIRIAL THEOREM ACCURACY
   6.0     9    -3.766704647E+01  3.775180683E+01 -1.997754800E+00  1.1E-06

 NUCLEAR CHARGE  8.0  SYMMETRY SPECIES            S    P
 N. ELECTRONS    8.0  NUMBER OF PRIMITIVE GTOS    8    4
                      NUMBER OF CONTRACTED GTOS   4    2
                      NUMBER OF CLOSED SHELLS     2    0
                      OPEN SHELL OCCUPATION       0    4

  ZNUC  SCFIT    TOTAL HF ENERGY   KINETIC ENERGY   VIRIAL THEOREM ACCURACY
   8.0    12    -7.477373220E+01  7.477365593E+01 -2.000001020E+00  3.8E-06

 AAAAAAAAAAAAAAAAAAAAAAAAAAAAAAAAAAAAAAAAAAAAAAAAAAAAAAAAAAAAAAAAAAAAAAAAAAAAAAA

 CHARGE NORMALIZATION FACTOR   1.00000000
 TOTAL ATOMIC CHARGES:
   5.0000000   5.0000000   5.0000000   5.0000000   5.0000000   5.0000000
   5.0000000   5.0000000   5.0000000   5.0000000   5.0000000   5.0000000
   1.0000000   1.0000000   1.0000000   1.0000000   1.0000000   1.0000000
   1.0000000   1.0000000   1.0000000   1.0000000   1.0000000   1.0000000
   1.0000000   1.0000000   1.0000000   1.0000000   1.0000000   1.0000000
   1.0000000   1.0000000   1.0000000   1.0000000   1.0000000   1.0000000
   6.0000000   6.0000000   6.0000000   6.0000000   6.0000000   6.0000000
   6.0000000   6.0000000   6.0000000   6.0000000   6.0000000   6.0000000
   6.0000000   6.0000000   6.0000000   6.0000000   6.0000000   6.0000000
   6.0000000   6.0000000   6.0000000   6.0000000   6.0000000   6.0000000
   6.0000000   6.0000000   6.0000000   6.0000000   6.0000000   6.0000000
   6.0000000   6.0000000   6.0000000   6.0000000   6.0000000   6.0000000
   8.0000000   8.0000000   8.0000000   8.0000000   8.0000000   8.0000000
   8.0000000   8.0000000   8.0000000   8.0000000   8.0000000   8.0000000
 TTTTTTTTTTTTTTTTTTTTTTTTTTTTTT MOQGAD      TELAPSE       28.78 TCPU       57.21
 TTTTTTTTTTTTTTTTTTTTTTTTTTTTTT SHELLXN     TELAPSE       52.68 TCPU      821.00
 TTTTTTTTTTTTTTTTTTTTTTTTTTTTTT MONMO3      TELAPSE       53.34 TCPU      842.05
 NUMERICALLY INTEGRATED DENSITY    396.0001315566
 TTTTTTTTTTTTTTTTTTTTTTTTTTTTTT NUMDFT      TELAPSE       54.94 TCPU      893.16
 CYC   0 ETOT(AU) -2.591954805774E+03 DETOT -2.59E+03 tst  0.00E+00 PX  1.00E+00
 TTTTTTTTTTTTTTTTTTTTTTTTTTTTTT DIIS        TELAPSE       55.05 TCPU      896.67
 TTTTTTTTTTTTTTTTTTTTTTTTTTTTTT FDIK        TELAPSE       56.84 TCPU      953.94
 INSULATING STATE
 TOP OF VALENCE BANDS -    BAND    198; K    3; EIG -3.0489379E-01 AU
 TOP OF VALENCE BANDS -    BAND    198; K    1; EIG -3.0491413E-01 AU
 BOTTOM OF VIRTUAL BANDS - BAND    199; K    1; EIG -1.5885351E-01 AU
 INDIRECT ENERGY BAND GAP:   3.9740 eV
 TTTTTTTTTTTTTTTTTTTTTTTTTTTTTT PDIG        TELAPSE       58.47 TCPU      960.96
 CHARGE NORMALIZATION FACTOR   1.00000000
 TOTAL ATOMIC CHARGES:
   4.1570148   4.1150166   4.1364210   4.1518521   4.1366813   4.1521133
   4.1517576   4.1363555   4.1515566   4.1361236   4.1148252   4.1566949
   0.7858577   0.7863227   0.7864379   0.7859716   0.7847575   0.7857298
   0.7858465   0.7848872   0.7859541   0.7862744   0.7864383   0.7861196
   0.7859432   0.7862660   0.7864036   0.7860822   0.7847611   0.7857316
   0.7859118   0.7849532   0.7858089   0.7862741   0.7864313   0.7859651
   6.0497216   6.0484069   6.2692996   6.2699536   6.2699104   6.2692557
   6.2657789   6.2681242   6.2680611   6.2657198   6.0476624   6.0489340
   6.0447525   6.0520351   6.2670334   6.2665240   6.2665843   6.2671147
   6.2669479   6.2664413   6.2665920   6.2671304   6.0507367   6.0435010
   6.0500554   6.0487822   6.2655590   6.2678831   6.2684412   6.2660891
   6.2689210   6.2695741   6.2701870   6.2695265   6.0471758   6.0484836
   8.7041551   8.7043553   8.7042561   8.7044641   8.7065407   8.6927625
   8.7047502   8.7045632   8.6931622   8.7069080   8.7049126   8.7047282
 TTTTTTTTTTTTTTTTTTTTTTTTTTTTTT MOQGAD      TELAPSE       58.58 TCPU      961.07
 TTTTTTTTTTTTTTTTTTTTTTTTTTTTTT SHELLXN     TELAPSE       83.27 TCPU     1748.97
 TTTTTTTTTTTTTTTTTTTTTTTTTTTTTT MONMO3      TELAPSE       83.93 TCPU     1770.07
 NUMERICALLY INTEGRATED DENSITY    396.0000700194
 TTTTTTTTTTTTTTTTTTTTTTTTTTTTTT NUMDFT      TELAPSE       85.57 TCPU     1822.37
 CYC   1 ETOT(AU) -2.577647677967E+03 DETOT  1.43E+01 tst  0.00E+00 PX  1.00E+00
 TTTTTTTTTTTTTTTTTTTTTTTTTTTTTT DIIS        TELAPSE       85.70 TCPU     1826.75
 DIIS TEST: 0.22399E+01 AT SCF   CYCLE   1 - MIX   30 %
 TTTTTTTTTTTTTTTTTTTTTTTTTTTTTT FDIK        TELAPSE       87.52 TCPU     1884.90
 INSULATING STATE
 TOP OF VALENCE BANDS -    BAND    198; K    1; EIG -2.1242536E-01 AU
 BOTTOM OF VIRTUAL BANDS - BAND    199; K    1; EIG -8.0758462E-02 AU
 DIRECT ENERGY BAND GAP:   3.5828 eV
 TTTTTTTTTTTTTTTTTTTTTTTTTTTTTT PDIG        TELAPSE       89.13 TCPU     1891.89
 CHARGE NORMALIZATION FACTOR   1.00000000
 TOTAL ATOMIC CHARGES:
   4.6640593   4.6953119   4.6917220   4.6846027   4.6916589   4.6846145
   4.6849761   4.6921709   4.6849682   4.6921376   4.6958165   4.6645045
   0.9153972   0.9167880   0.9169105   0.9154363   0.9190157   0.9196605
   0.9197203   0.9190158   0.9195149   0.9084627   0.9084876   0.9196879
   0.9195039   0.9084445   0.9084832   0.9196532   0.9190032   0.9196493
   0.9197948   0.9190799   0.9153361   0.9167149   0.9169102   0.9154189
   5.8781586   5.8528351   6.1548550   6.0749637   6.0754901   6.1553529
   6.1346975   6.1531166   6.1537715   6.1356190   5.8556600   5.8810059
   5.8082247   5.9368463   6.1180175   6.1469478   6.1477762   6.1187063
   6.1182180   6.1470862   6.1476737   6.1185642   5.9402477   5.8115041
   5.8781083   5.8527984   6.1347490   6.1531606   6.1536906   6.1354963
   6.1550782   6.0751662   6.0752563   6.1551050   5.8558030   5.8812854
   8.3407496   8.3500866   8.3411245   8.3504500   8.3805223   8.3407315
   8.3499922   8.3405698   8.3404357   8.3803286   8.3504074   8.3409332
 TTTTTTTTTTTTTTTTTTTTTTTTTTTTTT MOQGAD      TELAPSE       89.23 TCPU     1892.00
 TTTTTTTTTTTTTTTTTTTTTTTTTTTTTT SHELLXN     TELAPSE      113.84 TCPU     2677.27
 TTTTTTTTTTTTTTTTTTTTTTTTTTTTTT MONMO3      TELAPSE      114.50 TCPU     2698.28
 NUMERICALLY INTEGRATED DENSITY    396.0000850193
 TTTTTTTTTTTTTTTTTTTTTTTTTTTTTT NUMDFT      TELAPSE      116.11 TCPU     2749.91
 CYC   2 ETOT(AU) -2.578027374302E+03 DETOT -3.80E-01 tst  4.08E-03 PX  1.59E-01
 TTTTTTTTTTTTTTTTTTTTTTTTTTTTTT DIIS        TELAPSE      116.27 TCPU     2755.01
 DIIS TEST: 0.97209E+00 AT SCF   CYCLE   2 - DIIS ACTIVE - HISTORY:     2 CYCLES
 TTTTTTTTTTTTTTTTTTTTTTTTTTTTTT FDIK        TELAPSE      118.10 TCPU     2813.26
 INSULATING STATE
 TOP OF VALENCE BANDS -    BAND    198; K    3; EIG -2.2650186E-01 AU
 TOP OF VALENCE BANDS -    BAND    198; K    1; EIG -2.2681978E-01 AU
 BOTTOM OF VIRTUAL BANDS - BAND    199; K    5; EIG -7.5544230E-02 AU
 INDIRECT ENERGY BAND GAP:   4.1078 eV
 BOTTOM OF VIRTUAL BANDS - BAND    199; K    1; EIG -7.5520496E-02 AU
 TTTTTTTTTTTTTTTTTTTTTTTTTTTTTT PDIG        TELAPSE      119.72 TCPU     2820.26
 CHARGE NORMALIZATION FACTOR   1.00000000
 TOTAL ATOMIC CHARGES:
   4.4808408   4.4600412   4.4702098   4.4832075   4.4702533   4.4833201
   4.4825586   4.4695999   4.4824158   4.4694021   4.4593341   4.4800094
   0.8969064   0.8810522   0.8810293   0.8971579   0.8884329   0.8959044
   0.8960084   0.8884917   0.8881338   0.8880271   0.8884121   0.8881912
   0.8881648   0.8880659   0.8883523   0.8881120   0.8884255   0.8959100
   0.8960689   0.8885569   0.8969105   0.8810435   0.8809596   0.8970979
   5.8809149   5.9067112   6.1538456   6.1780189   6.1773674   6.1532266
   6.1710784   6.1605032   6.1596905   6.1698269   5.9050521   5.8791940
   5.9255254   5.8857457   6.1763287   6.1501387   6.1492077   6.1758583
   6.1764134   6.1501574   6.1491012   6.1757690   5.8834893   5.9236622
   5.8812856   5.9070732   6.1710651   6.1604091   6.1599191   6.1699169
   6.1537168   6.1779410   6.1773946   6.1532808   5.9046312   5.8788543
   8.5223211   8.5209868   8.5224534   8.5211179   8.5243309   8.5090408
   8.5210234   8.5225239   8.5092768   8.5241474   8.5211556   8.5226999
 TTTTTTTTTTTTTTTTTTTTTTTTTTTTTT MOQGAD      TELAPSE      119.83 TCPU     2820.37
 TTTTTTTTTTTTTTTTTTTTTTTTTTTTTT SHELLXN     TELAPSE      144.69 TCPU     3613.72
 TTTTTTTTTTTTTTTTTTTTTTTTTTTTTT MONMO3      TELAPSE      145.35 TCPU     3634.75
 NUMERICALLY INTEGRATED DENSITY    396.0000816014
 TTTTTTTTTTTTTTTTTTTTTTTTTTTTTT NUMDFT      TELAPSE      146.97 TCPU     3686.52
 CYC   3 ETOT(AU) -2.578225058905E+03 DETOT -1.98E-01 tst  6.19E-04 PX  6.45E-02
 TTTTTTTTTTTTTTTTTTTTTTTTTTTTTT DIIS        TELAPSE      147.15 TCPU     3692.37
 DIIS TEST: 0.38357E-01 AT SCF   CYCLE   3 - DIIS ACTIVE - HISTORY:     3 CYCLES
 TTTTTTTTTTTTTTTTTTTTTTTTTTTTTT FDIK        TELAPSE      148.99 TCPU     3751.10
 INSULATING STATE
 TOP OF VALENCE BANDS -    BAND    198; K    3; EIG -2.3619570E-01 AU
 TOP OF VALENCE BANDS -    BAND    198; K    1; EIG -2.3628222E-01 AU
 BOTTOM OF VIRTUAL BANDS - BAND    199; K    1; EIG -8.5387715E-02 AU
 INDIRECT ENERGY BAND GAP:   4.1037 eV
 TTTTTTTTTTTTTTTTTTTTTTTTTTTTTT PDIG        TELAPSE      150.63 TCPU     3758.12
 CHARGE NORMALIZATION FACTOR   1.00000000
 TOTAL ATOMIC CHARGES:
   4.4839430   4.4759026   4.4799524   4.4833642   4.4799802   4.4834543
   4.4839144   4.4804822   4.4837896   4.4803132   4.4762964   4.4844434
   0.8740366   0.8768451   0.8770526   0.8739983   0.8763089   0.8772238
   0.8772891   0.8762865   0.8795207   0.8691661   0.8690738   0.8798223
   0.8795436   0.8691801   0.8690296   0.8797592   0.8763271   0.8772329
   0.8773524   0.8763262   0.8740215   0.8768084   0.8770073   0.8739452
   5.9538220   5.9220191   6.1840084   6.1280730   6.1291273   6.1848592
   6.1680237   6.1756466   6.1770553   6.1702412   5.9263033   5.9581427
   5.8820112   6.0062859   6.1456416   6.1798976   6.1814919   6.1467148
   6.1455927   6.1798412   6.1815346   6.1467335   6.0107387   5.8861731
   5.9538535   5.9220434   6.1678973   6.1755284   6.1772288   6.1703811
   6.1838697   6.1279414   6.1292346   6.1849562   5.9262474   5.9582239
   8.4884434   8.4990075   8.4887245   8.4992796   8.5211693   8.4847416
   8.4992706   8.4884193   8.4846551   8.5215688   8.4996126   8.4887304
 TTTTTTTTTTTTTTTTTTTTTTTTTTTTTT MOQGAD      TELAPSE      150.74 TCPU     3758.23
 TTTTTTTTTTTTTTTTTTTTTTTTTTTTTT SHELLXN     TELAPSE      175.60 TCPU     4551.58
 TTTTTTTTTTTTTTTTTTTTTTTTTTTTTT MONMO3      TELAPSE      176.26 TCPU     4572.60
 NUMERICALLY INTEGRATED DENSITY    396.0000810261
 TTTTTTTTTTTTTTTTTTTTTTTTTTTTTT NUMDFT      TELAPSE      177.88 TCPU     4624.45
 CYC   4 ETOT(AU) -2.578231473250E+03 DETOT -6.41E-03 tst  1.53E-04 PX  2.98E-02
 TTTTTTTTTTTTTTTTTTTTTTTTTTTTTT DIIS        TELAPSE      178.08 TCPU     4630.86
 DIIS TEST: 0.15617E-01 AT SCF   CYCLE   4 - DIIS ACTIVE - HISTORY:     4 CYCLES
 TTTTTTTTTTTTTTTTTTTTTTTTTTTTTT FDIK        TELAPSE      179.90 TCPU     4688.93
 INSULATING STATE
 TOP OF VALENCE BANDS -    BAND    198; K    3; EIG -2.3632101E-01 AU
 TOP OF VALENCE BANDS -    BAND    198; K    1; EIG -2.3673484E-01 AU
 BOTTOM OF VIRTUAL BANDS - BAND    199; K    1; EIG -8.4812172E-02 AU
 INDIRECT ENERGY BAND GAP:   4.1228 eV
 TTTTTTTTTTTTTTTTTTTTTTTTTTTTTT PDIG        TELAPSE      181.54 TCPU     4695.95
 CHARGE NORMALIZATION FACTOR   1.00000000
 TOTAL ATOMIC CHARGES:
   4.4812972   4.4782506   4.4823750   4.4877068   4.4823992   4.4878117
   4.4872174   4.4819903   4.4870875   4.4818234   4.4778085   4.4807020
   0.8788681   0.8726741   0.8726851   0.8791305   0.8765790   0.8793031
   0.8794620   0.8766984   0.8756498   0.8719370   0.8723199   0.8757293
   0.8756601   0.8719511   0.8722816   0.8756701   0.8765733   0.8793072
   0.8795273   0.8767633   0.8788455   0.8726393   0.8726357   0.8790873
   5.9253046   5.9295264   6.1721397   6.1520620   6.1513128   6.1714863
   6.1747323   6.1773829   6.1762504   6.1729783   5.9272407   5.9230684
   5.9214779   5.9497944   6.1720405   6.1661931   6.1651727   6.1715165
   6.1721825   6.1662478   6.1650510   6.1713736   5.9475133   5.9194406
   5.9255699   5.9297876   6.1747080   6.1772991   6.1764174   6.1730318
   6.1721026   6.1520560   6.1512907   6.1714701   5.9269509   5.9228823
   8.4960990   8.4990181   8.4962804   8.4991972   8.5133295   8.4894517
   8.4989121   8.4962250   8.4895254   8.5128969   8.4991222   8.4964395
 TTTTTTTTTTTTTTTTTTTTTTTTTTTTTT MOQGAD      TELAPSE      181.64 TCPU     4696.05
 TTTTTTTTTTTTTTTTTTTTTTTTTTTTTT SHELLXN     TELAPSE      206.36 TCPU     5484.96
 TTTTTTTTTTTTTTTTTTTTTTTTTTTTTT MONMO3      TELAPSE      207.02 TCPU     5506.00
 NUMERICALLY INTEGRATED DENSITY    396.0000808016
 TTTTTTTTTTTTTTTTTTTTTTTTTTTTTT NUMDFT      TELAPSE      208.65 TCPU     5558.14
 CYC   5 ETOT(AU) -2.578235182845E+03 DETOT -3.71E-03 tst  5.82E-05 PX  1.45E-02
 TTTTTTTTTTTTTTTTTTTTTTTTTTTTTT DIIS        TELAPSE      208.88 TCPU     5564.98
 DIIS TEST: 0.10390E-02 AT SCF   CYCLE   5 - DIIS ACTIVE - HISTORY:     5 CYCLES
 TTTTTTTTTTTTTTTTTTTTTTTTTTTTTT FDIK        TELAPSE      210.70 TCPU     5622.87
 INSULATING STATE
 TOP OF VALENCE BANDS -    BAND    198; K    3; EIG -2.3533085E-01 AU
 TOP OF VALENCE BANDS -    BAND    198; K    1; EIG -2.3556771E-01 AU
 BOTTOM OF VIRTUAL BANDS - BAND    199; K    1; EIG -8.4216916E-02 AU
 INDIRECT ENERGY BAND GAP:   4.1120 eV
 TTTTTTTTTTTTTTTTTTTTTTTTTTTTTT PDIG        TELAPSE      212.31 TCPU     5629.85
 CHARGE NORMALIZATION FACTOR   1.00000000
 TOTAL ATOMIC CHARGES:
   4.4829100   4.4767819   4.4817260   4.4873534   4.4817510   4.4874494
   4.4877560   4.4820653   4.4876336   4.4818983   4.4769985   4.4831954
   0.8802590   0.8745101   0.8746858   0.8802590   0.8780532   0.8816697
   0.8817100   0.8780233   0.8794181   0.8735673   0.8735554   0.8796849
   0.8794432   0.8735891   0.8735060   0.8796157   0.8780605   0.8816746
   0.8817752   0.8780748   0.8802475   0.8744781   0.8746366   0.8802062
   5.9224134   5.9169462   6.1737298   6.1506335   6.1514746   6.1743885
   6.1712954   6.1723055   6.1736852   6.1734336   5.9208472   5.9262534
   5.9018365   5.9535095   6.1621965   6.1696209   6.1708872   6.1630896
   6.1621700   6.1695666   6.1708993   6.1630959   5.9570084   5.9051889
   5.9225649   5.9170955   6.1712236   6.1722056   6.1738734   6.1735424
   6.1735857   6.1505176   6.1515527   6.1744770   5.9206590   5.9261837
   8.4989316   8.5034132   8.4991654   8.5036407   8.5171702   8.4910155
   8.5036878   8.4989395   8.4910600   8.5176368   8.5039532   8.4992073
 TTTTTTTTTTTTTTTTTTTTTTTTTTTTTT MOQGAD      TELAPSE      212.41 TCPU     5629.96
 TTTTTTTTTTTTTTTTTTTTTTTTTTTTTT SHELLXN     TELAPSE      237.02 TCPU     6415.14
 TTTTTTTTTTTTTTTTTTTTTTTTTTTTTT MONMO3      TELAPSE      237.68 TCPU     6436.17
 NUMERICALLY INTEGRATED DENSITY    396.0000809065
 TTTTTTTTTTTTTTTTTTTTTTTTTTTTTT NUMDFT      TELAPSE      239.31 TCPU     6488.37
 CYC   6 ETOT(AU) -2.578235385948E+03 DETOT -2.03E-04 tst  6.05E-06 PX  4.60E-03
 TTTTTTTTTTTTTTTTTTTTTTTTTTTTTT DIIS        TELAPSE      239.56 TCPU     6495.25
 DIIS TEST: 0.28810E-03 AT SCF   CYCLE   6 - DIIS ACTIVE - HISTORY:     6 CYCLES
 TTTTTTTTTTTTTTTTTTTTTTTTTTTTTT FDIK        TELAPSE      241.38 TCPU     6553.12
 INSULATING STATE
 TOP OF VALENCE BANDS -    BAND    198; K    3; EIG -2.3547654E-01 AU
 TOP OF VALENCE BANDS -    BAND    198; K    1; EIG -2.3585800E-01 AU
 BOTTOM OF VIRTUAL BANDS - BAND    199; K    1; EIG -8.4132818E-02 AU
 INDIRECT ENERGY BAND GAP:   4.1183 eV
 TTTTTTTTTTTTTTTTTTTTTTTTTTTTTT PDIG        TELAPSE      243.01 TCPU     6560.13
 CHARGE NORMALIZATION FACTOR   1.00000000
 TOTAL ATOMIC CHARGES:
   4.4835699   4.4769864   4.4817522   4.4877776   4.4817796   4.4878779
   4.4873156   4.4813953   4.4871887   4.4812266   4.4765490   4.4830319
   0.8802224   0.8748245   0.8748447   0.8804541   0.8781040   0.8814422
   0.8815999   0.8782130   0.8790048   0.8734252   0.8737606   0.8790987
   0.8790204   0.8734406   0.8737194   0.8790370   0.8781049   0.8814493
   0.8816626   0.8782705   0.8802056   0.8747938   0.8747925   0.8804057
   5.9260308   5.9221282   6.1738741   6.1499482   6.1493862   6.1733739
   6.1727357   6.1746076   6.1735812   6.1711627   5.9202838   5.9242806
   5.9087065   5.9555730   6.1646472   6.1689446   6.1681712   6.1642646
   6.1647446   6.1689840   6.1680808   6.1641570   5.9539479   5.9072630
   5.9262542   5.9223422   6.1726777   6.1745061   6.1737675   6.1712549
   6.1738000   6.1499007   6.1494026   6.1733937   5.9200337   5.9241379
   8.4974557   8.5019564   8.4976510   8.5021495   8.5168526   8.4906237
   8.5019110   8.4976048   8.4906627   8.5164596   8.5021428   8.4978345
 TTTTTTTTTTTTTTTTTTTTTTTTTTTTTT MOQGAD      TELAPSE      243.11 TCPU     6560.24
 TTTTTTTTTTTTTTTTTTTTTTTTTTTTTT SHELLXN     TELAPSE      267.71 TCPU     7345.00
 TTTTTTTTTTTTTTTTTTTTTTTTTTTTTT MONMO3      TELAPSE      268.37 TCPU     7366.02
 NUMERICALLY INTEGRATED DENSITY    396.0000809266
 TTTTTTTTTTTTTTTTTTTTTTTTTTTTTT NUMDFT      TELAPSE      269.98 TCPU     7417.64
 CYC   7 ETOT(AU) -2.578235445315E+03 DETOT -5.94E-05 tst  8.91E-07 PX  1.52E-03
 TTTTTTTTTTTTTTTTTTTTTTTTTTTTTT DIIS        TELAPSE      270.25 TCPU     7424.52
 DIIS TEST: 0.45540E-04 AT SCF   CYCLE   7 - DIIS ACTIVE - HISTORY:     7 CYCLES
 TTTTTTTTTTTTTTTTTTTTTTTTTTTTTT FDIK        TELAPSE      272.07 TCPU     7482.33
 INSULATING STATE
 TOP OF VALENCE BANDS -    BAND    198; K    3; EIG -2.3552612E-01 AU
 TOP OF VALENCE BANDS -    BAND    198; K    1; EIG -2.3589408E-01 AU
 BOTTOM OF VIRTUAL BANDS - BAND    199; K    1; EIG -8.4158608E-02 AU
 INDIRECT ENERGY BAND GAP:   4.1189 eV
 TTTTTTTTTTTTTTTTTTTTTTTTTTTTTT PDIG        TELAPSE      273.67 TCPU     7489.33
 CHARGE NORMALIZATION FACTOR   1.00000000
 TOTAL ATOMIC CHARGES:
   4.4831768   4.4769913   4.4817362   4.4875855   4.4817624   4.4876848
   4.4875785   4.4817424   4.4874525   4.4815744   4.4769011   4.4830601
   0.8802685   0.8746550   0.8747560   0.8803851   0.8780651   0.8814077
   0.8814996   0.8780993   0.8788343   0.8734782   0.8736380   0.8790159
   0.8788534   0.8734970   0.8735933   0.8789511   0.8780675   0.8814132
   0.8815641   0.8781557   0.8802533   0.8746234   0.8747053   0.8803355
   5.9244692   5.9211229   6.1731951   6.1498881   6.1500177   6.1732673
   6.1719771   6.1738832   6.1741415   6.1723723   5.9222753   5.9256146
   5.9079256   5.9540077   6.1645993   6.1682762   6.1685313   6.1648701
   6.1646503   6.1682743   6.1684814   6.1648067   5.9549702   5.9089012
   5.9246684   5.9213177   6.1719210   6.1737870   6.1743231   6.1724623
   6.1730972   6.1498181   6.1500545   6.1733105   5.9220451   5.9254969
   8.4974753   8.5017730   8.4976865   8.5019797   8.5163157   8.4904153
   8.5018774   8.4975371   8.4904726   8.5163818   8.5021213   8.4977820
 TTTTTTTTTTTTTTTTTTTTTTTTTTTTTT MOQGAD      TELAPSE      273.78 TCPU     7489.43
 TTTTTTTTTTTTTTTTTTTTTTTTTTTTTT SHELLXN     TELAPSE      298.50 TCPU     8278.14
 TTTTTTTTTTTTTTTTTTTTTTTTTTTTTT MONMO3      TELAPSE      299.15 TCPU     8299.15
 NUMERICALLY INTEGRATED DENSITY    396.0000809222
 TTTTTTTTTTTTTTTTTTTTTTTTTTTTTT NUMDFT      TELAPSE      300.77 TCPU     8350.85
 CYC   8 ETOT(AU) -2.578235456707E+03 DETOT -1.14E-05 tst  1.42E-07 PX  4.87E-04
 TTTTTTTTTTTTTTTTTTTTTTTTTTTTTT DIIS        TELAPSE      301.06 TCPU     8357.73
 DIIS TEST: 0.21619E-05 AT SCF   CYCLE   8 - DIIS ACTIVE - HISTORY:     8 CYCLES
 TTTTTTTTTTTTTTTTTTTTTTTTTTTTTT FDIK        TELAPSE      302.89 TCPU     8415.87
 INSULATING STATE
 TOP OF VALENCE BANDS -    BAND    198; K    3; EIG -2.3553815E-01 AU
 TOP OF VALENCE BANDS -    BAND    198; K    1; EIG -2.3589205E-01 AU
 BOTTOM OF VIRTUAL BANDS - BAND    199; K    1; EIG -8.4186023E-02 AU
 INDIRECT ENERGY BAND GAP:   4.1185 eV
 TTTTTTTTTTTTTTTTTTTTTTTTTTTTTT PDIG        TELAPSE      304.52 TCPU     8422.87
 CHARGE NORMALIZATION FACTOR   1.00000000
 TOTAL ATOMIC CHARGES:
   4.4830765   4.4771986   4.4819219   4.4876514   4.4819475   4.4877504
   4.4875661   4.4818694   4.4874406   4.4817019   4.4770509   4.4828915
   0.8802226   0.8746069   0.8746938   0.8803565   0.8780285   0.8813663
   0.8814731   0.8780776   0.8788201   0.8734343   0.8736240   0.8789885
   0.8788394   0.8734530   0.8735792   0.8789237   0.8780311   0.8813718
   0.8815375   0.8781336   0.8802074   0.8745751   0.8746433   0.8803068
   5.9246454   5.9213638   6.1731844   6.1500796   6.1501070   6.1731710
   6.1722409   6.1739053   6.1739143   6.1722656   5.9219730   5.9252750
   5.9079032   5.9541746   6.1645937   6.1684666   6.1685481   6.1647464
   6.1646417   6.1684636   6.1685010   6.1646858   5.9547036   5.9084782
   5.9248420   5.9215559   6.1721834   6.1738083   6.1740967   6.1723569
   6.1730852   6.1500086   6.1501450   6.1732159   5.9217454   5.9251599
   8.4975807   8.5018724   8.4977924   8.5020797   8.5162880   8.4903771
   8.5019574   8.4976632   8.4904199   8.5162626   8.5022018   8.4979088
 TTTTTTTTTTTTTTTTTTTTTTTTTTTTTT MOQGAD      TELAPSE      304.63 TCPU     8422.98
 TTTTTTTTTTTTTTTTTTTTTTTTTTTTTT SHELLXN     TELAPSE      329.16 TCPU     9205.69
 TTTTTTTTTTTTTTTTTTTTTTTTTTTTTT MONMO3      TELAPSE      329.82 TCPU     9226.71
 NUMERICALLY INTEGRATED DENSITY    396.0000809197
 TTTTTTTTTTTTTTTTTTTTTTTTTTTTTT NUMDFT      TELAPSE      331.43 TCPU     9278.43
 CYC   9 ETOT(AU) -2.578235456828E+03 DETOT -1.21E-07 tst  4.35E-09 PX  1.12E-04
 TTTTTTTTTTTTTTTTTTTTTTTTTTTTTT DIIS        TELAPSE      331.75 TCPU     9285.35
 DIIS TEST: 0.16324E-06 AT SCF   CYCLE   9 - DIIS ACTIVE - HISTORY:     9 CYCLES
 TTTTTTTTTTTTTTTTTTTTTTTTTTTTTT FDIK        TELAPSE      333.57 TCPU     9343.25
 INSULATING STATE
 TOP OF VALENCE BANDS -    BAND    198; K    3; EIG -2.3553224E-01 AU
 TOP OF VALENCE BANDS -    BAND    198; K    1; EIG -2.3589960E-01 AU
 BOTTOM OF VIRTUAL BANDS - BAND    199; K    1; EIG -8.4184831E-02 AU
 INDIRECT ENERGY BAND GAP:   4.1184 eV
 TTTTTTTTTTTTTTTTTTTTTTTTTTTTTT PDIG        TELAPSE      335.18 TCPU     9350.24
 CHARGE NORMALIZATION FACTOR   1.00000000
 TOTAL ATOMIC CHARGES:
   4.4831174   4.4771667   4.4818708   4.4876411   4.4818967   4.4877404
   4.4875648   4.4818223   4.4874389   4.4816545   4.4770249   4.4829364
   0.8802076   0.8746313   0.8747201   0.8803424   0.8780481   0.8813599
   0.8814626   0.8780945   0.8788120   0.8734311   0.8736184   0.8789802
   0.8788304   0.8734491   0.8735745   0.8789161   0.8780503   0.8813657
   0.8815267   0.8781510   0.8801921   0.8745998   0.8746692   0.8802931
   5.9246228   5.9212504   6.1733147   6.1499822   6.1500043   6.1732982
   6.1721331   6.1739728   6.1740291   6.1722190   5.9219289   5.9253104
   5.9079957   5.9541178   6.1646096   6.1684494   6.1685452   6.1647787
   6.1646684   6.1684554   6.1684882   6.1647077   5.9546704   5.9085894
   5.9248260   5.9214481   6.1720762   6.1738753   6.1742119   6.1723098
   6.1732209   6.1499162   6.1500374   6.1733374   5.9216957   5.9251886
   8.4975574   8.5018544   8.4977656   8.5020586   8.5163581   8.4904468
   8.5019353   8.4976331   8.4905010   8.5163515   8.5021768   8.4978751
 TTTTTTTTTTTTTTTTTTTTTTTTTTTTTT MOQGAD      TELAPSE      335.28 TCPU     9350.35
 TTTTTTTTTTTTTTTTTTTTTTTTTTTTTT SHELLXN     TELAPSE      359.83 TCPU    10133.86
 +++ ENERGIES IN A.U. +++
 ::: EXT EL-POLE                                  -2.8695948145421E+03
 ::: EXT EL-SPHEROPOLE                             3.2770585082614E+01
 ::: BIELET ZONE E-E                               4.6975112507291E+03
 ::: TOTAL E-E                                     1.8606870212696E+03
 ::: TOTAL E-N + N-E                              -7.3717759546854E+03
 ::: TOTAL N-N                                     6.4044270976340E+02
 ::: KINETIC ENERGY                                2.5598441745578E+03
 ::: PSEUDO TOTAL   ENERGY                        -2.3108020490947E+03
 ::: VIRIAL COEFFICIENT                            1.0511312285942E+00
 TTTTTTTTTTTTTTTTTTTTTTTTTTTTTT MONMO3      TELAPSE      360.49 TCPU    10154.87
 NUMERICALLY INTEGRATED DENSITY    396.0000809213
 EXCHANGE ENERGY: -0.252032226103E+03  CORRELATION ENERGY: -0.154011816544E+02
 TTTTTTTTTTTTTTTTTTTTTTTTTTTTTT NUMDFT      TELAPSE      362.11 TCPU    10206.72
 CYC  10 ETOT(AU) -2.578235456852E+03 DETOT -2.43E-08 tst  4.46E-10 PX  1.12E-04

 == SCF ENDED - CONVERGENCE ON ENERGY      E(AU) -2.5782354568524E+03 CYCLES  10


 ENERGY EXPRESSION=HARTREE+FOCK EXCH*0.00000+(HSESOL     EXCH)*1.00000+PBESOL     CORR


 TOTAL ENERGY(DFT)(AU)( 10) -2.5782354568524E+03 DE-2.4E-08 tester 4.5E-10
 TTTTTTTTTTTTTTTTTTTTTTTTTTTTTT EDFT        TELAPSE      362.11 TCPU    10206.73
 
 INFORMATION **** DFTD3 ENERGY **** CALCULATE DFTD3 ENERGY

           DFT-D V3(BJ)
 DF                                         hsesol3c  
 parameters
 s6       :    1.0000
 s8       :    0.0000
 a1       :    0.5196
 a2       :    4.9385
 k1 k3    :   16.0000   -4.0000
 Cutoff   :   50.2022
 CN-Cutoff:   21.1671
 ABC-Cutoff:   21.1671
 
 Edisp /kcal,au:   -59.6314 -0.09502874

 E6    /kcal :   -63.9436
 E8    /kcal :     0.0000
 E6(ABC) "   :   4.312162
 
 INFORMATION **** DFTD3 ENERGY **** NORMAL TERMINATION OF DFTD3 MODULE

 GCP ENERGY CALCULATION
  level        hsesol3c            basis:hsesol3c
  Nbf            948
  Atoms           84

  Parameters: 
  sigma     1.0000
  eta       1.4281
  alpha     0.2936
  beta      1.9467

  dmp_scal      4.0000
  dmp_exp       6.0000
 cutoffs: 
   distance [bohr] 60.0
   noise    [a.u.] 2.2E-16
 SR-damping   T
 ** gCP correction **
  Egcp:        0.1670754371 / (a.u.) ||     104.8414 / (kcal/mol)
 INFORMATION **** GCP **** NORMAL TERMINATION OF GCP MODULE

 *******************************************************************************

 DFT-D3-GCP DISPERSION AND COUNTERPOISE CORRECTION

 D3 DISPERSION ENERGY (AU)      -9.5028739353633E-02
 GCP ENERGY (AU)                 1.6707543706317E-01
 TOTAL ENERGY + DISP + GCP (AU) -2.5781634101547E+03

 *******************************************************************************

 EIGENVECTORS IN FORTRAN UNIT  8
 TTTTTTTTTTTTTTTTTTTTTTTTTTTTTT END         TELAPSE      365.45 TCPU    10215.97
 EEEEEEEEEE TERMINATION  DATE 19 02 2026 TIME 20:16:17.8
