 Default number of threads is:           32

         
 *******************************************************************************
 *                                                                             *
 *                               CRYSTAL23                                     *
 *                      public : 1.0.1 - October 2022                          *
 *                       HTTP://WWW.CRYSTAL.UNITO.IT                           *
 *                                                                             *
 *                              MAIN AUTHORS                                   *
 *                                                                             *
 *  R. DOVESI(1,11), V.R. SAUNDERS(2), C. ROETTI(1,11), R. ORLANDO(1,11),      *
 *  C.M. ZICOVICH-WILSON(1,3), F. PASCALE(4), B. CIVALLERI(1,11),              *
 *  K. DOLL(5), N.M. HARRISON(6), I.J. BUSH(7), Ph. D'ARCO(8),                 *
 *  M. LLUNELL(9), M. CAUSA'(10), Y. NOEL(8), L. MASCHIO(1,11), A. ERBA(1,11)  *
 *  M. RE'RAT(14), S. CASASSA(1,11), B.G. SEARLE(2), J.K. DESMARAIS(1)         *
 *                                                                             *
 *        CONTRIBUTIONS TO THE CODE HAVE ALSO BEEN GIVEN BY                    *
 *                                                                             *
 *  M. FERRABONE(1,11), M. DE LA PIERRE(1,11), M. FERRERO(1,11),               *
 *  J. BAIMA(1,11), E. ALBANESE(1,11), M.F. PEINTINGER(12), R. BAST(13),       *
 *  B. KIRTMAN(15), V. LACIVITA(1,11), R. DEMICHELIS(1,16)                     *
 *  G. BRANDEBURG(17), S. SALUSTRO(1,11), G. SANSONE(1,11)                     *
 *  M.T. RUGGIERO(18), L.E. DAGA(1), L. DONA'(1), A. COSSARD(1)                *
 *                                                                             *
 * (1) THEORETICAL CHEMISTRY GROUP - UNIVERSITA' DI TORINO - TORINO (ITALY)    *
 * (2) SCIENTIFIC COMPUTING DEPARTMENT - STFC DARESBURY (UK)                   *
 * (3) UNIVERSIDAD AUTONOMA DEL ESTADO DE MORELOS - CUERNAVACA (MEXICO)        *
 * (4) UNIVERSITE' DE LORRAINE - NANCY (FRANCE)                                *
 * (5) UNIVERSITAET STUTTGART- STUTTGART (GERMANY)                             *
 * (6) IMPERIAL COLLEGE - LONDON (UK)                                          *
 * (7) SCIENTIFIC COMPUTING DEPARTMENT - STFC RAL (UK)                         *
 * (8) UPMC - SORBONNE UNIVERSITES - PARIS (FRANCE)                            *
 * (9) UNIVERSIDAD DE BARCELONA - BARCELONA (SPAIN)                            *
 *(10) UNIVERSITA' DI NAPOLI "FEDERICO II" - NAPOLI (ITALY)                    *
 *(11) NIS - NANOSTRUCTURED INTERFACES AND SURFACES - TORINO (ITALY)           *
 *(12) MPI FUER CHEMISCHE ENERGIEKONVERSION - MUELHEIM AN DER RUHR (GERMANY)   *
 *(13) UNIVERSITY OF TROMSO - TROMSO (NORWAY)                                  *
 *(14) UNIVERSITE' DE PAU ET DES PAYS DE L'ADOUR - PAU (FRANCE)                *
 *(15) UNIVERSITY OF CALIFORNIA SANTA BARBARA - SANTA BARBARA (USA)            *
 *(16) CURTIN UNIVERSITY - PERTH (AUSTRALIA)                                   *
 *(17) UNIVERSITY COLLEGE LONDON - LONDON (UK)                                 *
 *(18) UNIVERSITY OF VERMONT - BURLINGTON (USA)                                *
 *                                                                             *
 *******************************************************************************
 EEEEEEEEEE STARTING  DATE 02 12 2025 TIME 08:02:00.1
 COF-5_z38_inc_L030                                                              

 CRYSTAL CALCULATION
 (INPUT ACCORDING TO THE INTERNATIONAL TABLES FOR X-RAY CRYSTALLOGRAPHY)
 CRYSTAL FAMILY                       :  TRICLINIC   
 CRYSTAL CLASS  (GROTH - 1921)        :  TRICLINIC PEDIAL                     

 SPACE GROUP (NONCENTROSYMMETRIC)     :  P 1             

 LATTICE PARAMETERS  (ANGSTROMS AND DEGREES) - CONVENTIONAL CELL
        A           B           C        ALPHA        BETA       GAMMA
    15.02070    15.04439     4.84149    57.56822    89.99944   120.05310


 NUMBER OF IRREDUCIBLE ATOMS IN THE CONVENTIONAL CELL:   42

 INPUT COORDINATES

 ATOM AT. N.              COORDINATES
   1   5     5.577627700000E-01  1.127350400000E-01  5.006466300000E-01
   2   5     7.165410200000E-01  2.717594600000E-01  5.006566200000E-01
   3   5     5.574745500000E-01  2.717762800000E-01  4.992266700000E-01
   4   5     1.703822000000E-01  4.979143000000E-01  5.054415600000E-01
   5   5     3.284894900000E-01  4.964818500000E-01  5.094854000000E-01
   6   5     3.294514100000E-01  6.571947200000E-01  5.035198400000E-01
   7   1     8.461172900000E-01  1.933104600000E-01  5.045449800000E-01
   8   1     4.190454000000E-02  5.778720100000E-01  4.929548000000E-01
   9   1     8.475382400000E-01  4.806043900000E-01  4.928165100000E-01
  10   1     4.060652000000E-02  2.906236100000E-01  5.041135600000E-01
  11   1     5.361318800000E-01  7.870622500000E-01  5.042356200000E-01
  12   1     3.511072000000E-01 -1.530800000000E-02  4.945870000000E-01
  13   1     2.526159000000E-01  7.906790900000E-01  4.958938300000E-01
  14   1     6.344485300000E-01 -1.881892000000E-02  5.023743200000E-01
  15   1     5.364740500000E-01  5.758827600000E-01  4.977912800000E-01
  16   1     3.482066200000E-01  1.923613400000E-01  5.060743000000E-01
  17   1     2.508847400000E-01  2.883668700000E-01  5.057094300000E-01
  18   1     6.341575900000E-01  4.798084700000E-01  4.987247200000E-01
  19   6     8.358624200000E-01  3.312461400000E-01  5.004066300000E-01
  20   6     8.901825400000E-01  2.776627900000E-01  5.021727000000E-01
  21   6    -2.061640000000E-03  4.934718900000E-01  4.957798900000E-01
  22   6     8.909209200000E-01  4.398693100000E-01  4.961170400000E-01
  23   6    -2.712430000000E-03  3.313760400000E-01  5.015290000000E-01
  24   6     5.204116000000E-02  4.395511200000E-01  4.993457600000E-01
  25   6     3.886030400000E-01  7.769467200000E-01  5.018880700000E-01
  26   6     4.964312200000E-01  8.313388800000E-01  5.022782400000E-01
  27   6     3.905814500000E-01 -5.990048000000E-02  4.970019500000E-01
  28   6     3.363338700000E-01  8.328865800000E-01  4.981206100000E-01
  29   6     5.506806200000E-01 -6.146345000000E-02  5.008408600000E-01
  30   6     4.981888300000E-01 -6.096010000000E-03  4.992166300000E-01
  31   6     3.884232700000E-01  4.383310200000E-01  4.999878300000E-01
  32   6     4.963361900000E-01  4.917130600000E-01  4.994363600000E-01
  33   6     3.889759000000E-01  2.766414900000E-01  5.039598200000E-01
  34   6     3.351446900000E-01  3.298271500000E-01  5.033518900000E-01
  35   6     5.500414000000E-01  4.384323500000E-01  5.003747000000E-01
  36   6     4.971432800000E-01  3.304229400000E-01  5.016165300000E-01
  37   8     5.047650800000E-01  1.657878000000E-01  4.996165300000E-01
  38   8     6.635790100000E-01  1.653961600000E-01  5.026065300000E-01
  39   8     6.637097200000E-01  3.251812000000E-01  4.980868800000E-01
  40   8     2.235314900000E-01  6.043953200000E-01  5.027532000000E-01
  41   8     2.224264600000E-01  4.436086800000E-01  5.102408400000E-01
  42   8     3.820543700000E-01  6.035362400000E-01  5.052248900000E-01

 *******************************************************************************

 << INFORMATION >>: FROM NOW ON, ALL COORDINATES REFER TO THE PRIMITIVE CELL

 *******************************************************************************

 LATTICE PARAMETERS  (ANGSTROMS AND DEGREES) - PRIMITIVE CELL
       A          B          C        ALPHA      BETA     GAMMA        VOLUME
   15.02070   15.04439    4.84149    57.56822  89.99944 120.05310    743.304268

 COORDINATES OF THE EQUIVALENT ATOMS (FRACTIONAL UNITS)

 N. ATOM EQUIV AT. N.          X                  Y                  Z

   1   1   1    5 B    -4.42237230000E-01  1.12735040000E-01 -4.99353370000E-01

   2   2   1    5 B    -2.83458980000E-01  2.71759460000E-01 -4.99343380000E-01

   3   3   1    5 B    -4.42525450000E-01  2.71776280000E-01  4.99226670000E-01

   4   4   1    5 B     1.70382200000E-01  4.97914300000E-01 -4.94558440000E-01

   5   5   1    5 B     3.28489490000E-01  4.96481850000E-01 -4.90514600000E-01

   6   6   1    5 B     3.29451410000E-01 -3.42805280000E-01 -4.96480160000E-01

   7   7   1    1 H    -1.53882710000E-01  1.93310460000E-01 -4.95455020000E-01

   8   8   1    1 H     4.19045400000E-02 -4.22127990000E-01  4.92954800000E-01

   9   9   1    1 H    -1.52461760000E-01  4.80604390000E-01  4.92816510000E-01

  10  10   1    1 H     4.06065200000E-02  2.90623610000E-01 -4.95886440000E-01

  11  11   1    1 H    -4.63868120000E-01 -2.12937750000E-01 -4.95764380000E-01

  12  12   1    1 H     3.51107200000E-01 -1.53080000000E-02  4.94587000000E-01

  13  13   1    1 H     2.52615900000E-01 -2.09320910000E-01  4.95893830000E-01

  14  14   1    1 H    -3.65551470000E-01 -1.88189200000E-02 -4.97625680000E-01

  15  15   1    1 H    -4.63525950000E-01 -4.24117240000E-01  4.97791280000E-01

  16  16   1    1 H     3.48206620000E-01  1.92361340000E-01 -4.93925700000E-01

  17  17   1    1 H     2.50884740000E-01  2.88366870000E-01 -4.94290570000E-01

  18  18   1    1 H    -3.65842410000E-01  4.79808470000E-01  4.98724720000E-01

  19  19   1    6 C    -1.64137580000E-01  3.31246140000E-01 -4.99593370000E-01

  20  20   1    6 C    -1.09817460000E-01  2.77662790000E-01 -4.97827300000E-01

  21  21   1    6 C    -2.06164000000E-03  4.93471890000E-01  4.95779890000E-01

  22  22   1    6 C    -1.09079080000E-01  4.39869310000E-01  4.96117040000E-01

  23  23   1    6 C    -2.71243000000E-03  3.31376040000E-01 -4.98471000000E-01

  24  24   1    6 C     5.20411600000E-02  4.39551120000E-01  4.99345760000E-01

  25  25   1    6 C     3.88603040000E-01 -2.23053280000E-01 -4.98111930000E-01

  26  26   1    6 C     4.96431220000E-01 -1.68661120000E-01 -4.97721760000E-01

  27  27   1    6 C     3.90581450000E-01 -5.99004800000E-02  4.97001950000E-01

  28  28   1    6 C     3.36333870000E-01 -1.67113420000E-01  4.98120610000E-01

  29  29   1    6 C    -4.49319380000E-01 -6.14634500000E-02 -4.99159140000E-01

  30  30   1    6 C     4.98188830000E-01 -6.09601000000E-03  4.99216630000E-01

  31  31   1    6 C     3.88423270000E-01  4.38331020000E-01  4.99987830000E-01

  32  32   1    6 C     4.96336190000E-01  4.91713060000E-01  4.99436360000E-01

  33  33   1    6 C     3.88975900000E-01  2.76641490000E-01 -4.96040180000E-01

  34  34   1    6 C     3.35144690000E-01  3.29827150000E-01 -4.96648110000E-01

  35  35   1    6 C    -4.49958600000E-01  4.38432350000E-01 -4.99625300000E-01

  36  36   1    6 C     4.97143280000E-01  3.30422940000E-01 -4.98383470000E-01

  37  37   1    8 O    -4.95234920000E-01  1.65787800000E-01  4.99616530000E-01

  38  38   1    8 O    -3.36420990000E-01  1.65396160000E-01 -4.97393470000E-01

  39  39   1    8 O    -3.36290280000E-01  3.25181200000E-01  4.98086880000E-01

  40  40   1    8 O     2.23531490000E-01 -3.95604680000E-01 -4.97246800000E-01

  41  41   1    8 O     2.22426460000E-01  4.43608680000E-01 -4.89759160000E-01

  42  42   1    8 O     3.82054370000E-01 -3.96463760000E-01 -4.94775110000E-01

 NUMBER OF SYMMETRY OPERATORS         :    1
 *******************************************************************************
 * GEOMETRY EDITING - INPUT COORDINATES ARE GIVEN IN ANGSTROM         
 *******************************************************************************

 GCALCO - MAX INDICES DIRECT LATTICE VECTOR     9    11    31
 NO.OF VECTORS CREATED 6999 STARS 3500 RMAX   203.19677 BOHR

 GEOMETRY FOR WAVE FUNCTION - DIMENSIONALITY OF THE SYSTEM    3
 (NON PERIODIC DIRECTION: LATTICE PARAMETER FORMALLY SET TO 500)
 *******************************************************************************
 LATTICE PARAMETERS (ANGSTROMS AND DEGREES) - BOHR = 0.5291772083 ANGSTROM
 PRIMITIVE CELL - CENTRING CODE 1/0 VOLUME=   743.304268 - DENSITY  0.872 g/cm^3
         A              B              C           ALPHA      BETA       GAMMA 
    15.02070100    15.04438700     4.84148700    57.568220  89.999440 120.053104
 *******************************************************************************
 ATOMS IN THE ASYMMETRIC UNIT   42 - ATOMS IN THE UNIT CELL:   42
     ATOM                 X/A                 Y/B                 Z/C    
 *******************************************************************************
      1 T   5 B    -4.422372300000E-01  1.127350400000E-01 -4.993533700000E-01
      2 T   5 B    -2.834589800000E-01  2.717594600000E-01 -4.993433800000E-01
      3 T   5 B    -4.425254500000E-01  2.717762800000E-01  4.992266700000E-01
      4 T   5 B     1.703822000000E-01  4.979143000000E-01 -4.945584400000E-01
      5 T   5 B     3.284894900000E-01  4.964818500000E-01 -4.905146000000E-01
      6 T   5 B     3.294514100000E-01 -3.428052800000E-01 -4.964801600000E-01
      7 T   1 H    -1.538827100000E-01  1.933104600000E-01 -4.954550200000E-01
      8 T   1 H     4.190454000000E-02 -4.221279900000E-01  4.929548000000E-01
      9 T   1 H    -1.524617600000E-01  4.806043900000E-01  4.928165100000E-01
     10 T   1 H     4.060652000000E-02  2.906236100000E-01 -4.958864400000E-01
     11 T   1 H    -4.638681200000E-01 -2.129377500000E-01 -4.957643800000E-01
     12 T   1 H     3.511072000000E-01 -1.530800000000E-02  4.945870000000E-01
     13 T   1 H     2.526159000000E-01 -2.093209100000E-01  4.958938300000E-01
     14 T   1 H    -3.655514700000E-01 -1.881892000000E-02 -4.976256800000E-01
     15 T   1 H    -4.635259500000E-01 -4.241172400000E-01  4.977912800000E-01
     16 T   1 H     3.482066200000E-01  1.923613400000E-01 -4.939257000000E-01
     17 T   1 H     2.508847400000E-01  2.883668700000E-01 -4.942905700000E-01
     18 T   1 H    -3.658424100000E-01  4.798084700000E-01  4.987247200000E-01
     19 T   6 C    -1.641375800000E-01  3.312461400000E-01 -4.995933700000E-01
     20 T   6 C    -1.098174600000E-01  2.776627900000E-01 -4.978273000000E-01
     21 T   6 C    -2.061640000000E-03  4.934718900000E-01  4.957798900000E-01
     22 T   6 C    -1.090790800000E-01  4.398693100000E-01  4.961170400000E-01
     23 T   6 C    -2.712430000000E-03  3.313760400000E-01 -4.984710000000E-01
     24 T   6 C     5.204116000000E-02  4.395511200000E-01  4.993457600000E-01
     25 T   6 C     3.886030400000E-01 -2.230532800000E-01 -4.981119300000E-01
     26 T   6 C     4.964312200000E-01 -1.686611200000E-01 -4.977217600000E-01
     27 T   6 C     3.905814500000E-01 -5.990048000000E-02  4.970019500000E-01
     28 T   6 C     3.363338700000E-01 -1.671134200000E-01  4.981206100000E-01
     29 T   6 C    -4.493193800000E-01 -6.146345000000E-02 -4.991591400000E-01
     30 T   6 C     4.981888300000E-01 -6.096010000000E-03  4.992166300000E-01
     31 T   6 C     3.884232700000E-01  4.383310200000E-01  4.999878300000E-01
     32 T   6 C     4.963361900000E-01  4.917130600000E-01  4.994363600000E-01
     33 T   6 C     3.889759000000E-01  2.766414900000E-01 -4.960401800000E-01
     34 T   6 C     3.351446900000E-01  3.298271500000E-01 -4.966481100000E-01
     35 T   6 C    -4.499586000000E-01  4.384323500000E-01 -4.996253000000E-01
     36 T   6 C     4.971432800000E-01  3.304229400000E-01 -4.983834700000E-01
     37 T   8 O    -4.952349200000E-01  1.657878000000E-01  4.996165300000E-01
     38 T   8 O    -3.364209900000E-01  1.653961600000E-01 -4.973934700000E-01
     39 T   8 O    -3.362902800000E-01  3.251812000000E-01  4.980868800000E-01
     40 T   8 O     2.235314900000E-01 -3.956046800000E-01 -4.972468000000E-01
     41 T   8 O     2.224264600000E-01  4.436086800000E-01 -4.897591600000E-01
     42 T   8 O     3.820543700000E-01 -3.964637600000E-01 -4.947751100000E-01

 T = ATOM BELONGING TO THE ASYMMETRIC UNIT

 ****    1 SYMMOPS - TRANSLATORS IN FRACTIONAL UNITS
 **** MATRICES AND TRANSLATORS IN THE CRYSTALLOGRAPHIC REFERENCE FRAME
   V INV                    ROTATION MATRICES                   TRANSLATORS
   1   1  1.00 -0.00  0.00  0.00  1.00  0.00  0.00  0.00  1.00  0.00  0.00  0.00

 DIRECT LATTICE VECTORS CARTESIAN COMPONENTS (ANGSTROM)
          X                    Y                    Z
   0.130013421718E+02  -0.752240388864E+01   0.000000000000E+00
   0.000000000000E+00   0.150443870000E+02   0.000000000000E+00
   0.150233507761E+01   0.259646542664E+01   0.380017801873E+01


 CARTESIAN COORDINATES - PRIMITIVE CELL
 *******************************************************************************
 *      ATOM          X(ANGSTROM)         Y(ANGSTROM)         Z(ANGSTROM)
 *******************************************************************************
    1     5 B    -6.499873632203E+00  3.726162867993E+00 -1.897631700250E+00
    2     5 B    -4.435528266190E+00  4.924219598382E+00 -1.897593736472E+00
    3     5 B     6.495588037013E+00 -1.405081826927E+00 -1.903027801030E+00
    4     5 B     1.472204789837E+00  4.925027807286E+00 -1.879410112663E+00
    5     5 B     3.533886969660E+00  3.724630272760E+00 -1.864042800784E+00
    6     5 B     2.035095873062E+00  3.523266137241E+00 -5.686891009490E+00
    7     1 H    -2.745021222956E+00  2.779373437601E+00 -1.882817276271E+00
    8     1 H     1.285398550809E+00 -5.385939624644E+00  1.873315995185E+00
    9     1 H    -1.241831980070E+00 -5.387528596755E+00  1.872790468567E+00
   10     1 H    -2.170483324002E-01  2.779243419225E+00 -1.884456749072E+00
   11     1 H    -5.273377291389E+00  1.595115786006E+00  1.916185119382E+00
   12     1 H     5.307900245205E+00 -1.587291596841E+00  1.879518645747E+00
   13     1 H     4.029344449512E+00 -3.761812420846E+00  1.884484832387E+00
   14     1 H    -3.997925179836E+00  3.771104237137E+00  1.909111848036E+00
   15     1 H    -5.278610180172E+00 -1.601256634962E+00  1.891695480169E+00
   16     1 H     3.785111508252E+00 -1.007853392919E+00 -1.877005588023E+00
   17     1 H     2.519248288572E+00  1.167638070762E+00 -1.878392158977E+00
   18     1 H    -4.007190712427E+00 -3.779026830937E+00  1.895242718339E+00
   19     6 C    -2.884565485121E+00  4.920927379897E+00 -1.898543742975E+00
   20     6 C    -2.175677789279E+00  3.710766383517E+00 -1.891832362581E+00
   21     6 C    -7.843116451665E-01  6.130300492503E+00 -1.916126178621E+00
   22     6 C    -6.728404110682E-01 -6.318135233448E+00  1.885333070123E+00
   23     6 C    -7.841356990204E-01  3.711490664584E+00 -1.894278537172E+00
   24     6 C    -7.554549833222E-02  4.921371106349E+00 -1.902575237829E+00
   25     6 C    -7.194977027145E+00  2.546610025267E+00  1.907264011474E+00
   26     6 C    -5.792479797128E+00  2.554792672451E+00  1.908746726932E+00
   27     6 C     5.824746540525E+00 -2.548829040769E+00  1.888695885653E+00
   28     6 C     5.121135793112E+00 -3.750805232782E+00  1.892946992796E+00
   29     6 C    -5.089324211509E+00  3.755697900438E+00  1.903284427051E+00
   30     6 C    -5.774228072211E+00  4.979314283175E+00  1.897112063908E+00
   31     6 C     4.298838018524E+00  2.374280469993E+00 -1.900135257529E+00
   32     6 C     5.701022323474E+00  2.364184096771E+00 -1.902230941701E+00
   33     6 C     4.311990210154E+00 -5.208336452583E-02 -1.885040988440E+00
   34     6 C     3.611198914859E+00  1.151423921572E+00 -1.887351230663E+00
   35     6 C    -5.098335257972E+00 -3.764465121997E+00  1.901512936066E+00
   36     6 C     5.714790922594E+00 -6.273740871050E-02 -1.893945907590E+00
   37     8 O     5.810879882203E+00 -2.602099357481E+00 -1.901546263627E+00
   38     8 O    -5.121176062114E+00  3.727513454459E+00 -1.890183731351E+00
   39     8 O    -2.121596530184E+00 -3.732793082068E+00  5.692996831516E+00
   40     8 O     6.568430001709E-01  3.523713394111E+00 -5.689804377966E+00
   41     8 O     2.156060148866E+00  3.728996264518E+00 -1.861171994301E+00
   42     8 O     2.721566511694E+00  2.324733590807E+00 -5.680411515959E+00

 *******************************************************************************
 STARTING BASIS SET HANDLING 
 *******************************************************************************

 Loading internal basis set: SOLDEF2MSVP         

 Please cite in your publication:
 L. Dona', J. G. Brandenburg and B. Civalleri, J. Chem. Phys., 151, 121101 (2019
 )                                                                              
                                                                                
                    

 *******************************************************************************
 LOCAL ATOMIC FUNCTIONS BASIS SET
 *******************************************************************************
   ATOM   X(AU)   Y(AU)   Z(AU)  N. TYPE  EXPONENT  S COEF   P COEF   D/F/G COEF
 *******************************************************************************
   1 B  -12.283   7.041  -3.586
                                  1 S  
                                         2.410E+03 1.755E-03 0.000E+00 0.000E+00
                                         3.619E+02 1.344E-02 0.000E+00 0.000E+00
                                         8.231E+01 6.637E-02 0.000E+00 0.000E+00
                                         2.311E+01 2.303E-01 0.000E+00 0.000E+00
                                         7.252E+00 5.150E-01 0.000E+00 0.000E+00
                                  2 S  
                                         2.367E+00 1.000E+00 0.000E+00 0.000E+00
                                  3 S  
                                         5.533E-01 1.000E+00 0.000E+00 0.000E+00
                                  4 S  
                                         1.716E-01 1.000E+00 0.000E+00 0.000E+00
                           5-     7 P  
                                         6.002E+00 0.000E+00-3.555E-02 0.000E+00
                                         1.240E+00 0.000E+00-1.983E-01 0.000E+00
                                         3.367E-01 0.000E+00-5.048E-01 0.000E+00
                           8-    10 P  
                                         1.256E-01 0.000E+00 1.000E+00 0.000E+00
                          11-    15 D  
                                         8.880E-01 0.000E+00 0.000E+00 1.000E+00
   2 B   -8.382   9.305  -3.586
   3 B   12.275  -2.655  -3.596
   4 B    2.782   9.307  -3.552
   5 B    6.678   7.039  -3.523
   6 B    3.846   6.658 -10.747
   7 H   -5.187   5.252  -3.558
                                 91 S  
                                         1.874E+01 1.968E-02 0.000E+00 0.000E+00
                                         2.826E+00 1.380E-01 0.000E+00 0.000E+00
                                         6.401E-01 4.783E-01 0.000E+00 0.000E+00
                                 92 S  
                                         1.756E-01 1.000E+00 0.000E+00 0.000E+00
   8 H    2.429 -10.178   3.540
   9 H   -2.347 -10.181   3.539
  10 H   -0.410   5.252  -3.561
  11 H   -9.965   3.014   3.621
  12 H   10.030  -3.000   3.552
  13 H    7.614  -7.109   3.561
  14 H   -7.555   7.126   3.608
  15 H   -9.975  -3.026   3.575
  16 H    7.153  -1.905  -3.547
  17 H    4.761   2.207  -3.550
  18 H   -7.572  -7.141   3.581
  19 C   -5.451   9.299  -3.588
                                115 S  
                                         3.624E+03 1.634E-03 0.000E+00 0.000E+00
                                         5.440E+02 1.252E-02 0.000E+00 0.000E+00
                                         1.237E+02 6.211E-02 0.000E+00 0.000E+00
                                         3.476E+01 2.182E-01 0.000E+00 0.000E+00
                                         1.093E+01 4.980E-01 0.000E+00 0.000E+00
                                116 S  
                                         3.574E+00 1.000E+00 0.000E+00 0.000E+00
                                117 S  
                                         7.742E-01 1.000E+00 0.000E+00 0.000E+00
                                118 S  
                                         2.330E-01 1.000E+00 0.000E+00 0.000E+00
                         119-   121 P  
                                         9.443E+00 0.000E+00 3.790E-02 0.000E+00
                                         2.002E+00 0.000E+00 2.082E-01 0.000E+00
                                         5.463E-01 0.000E+00 5.047E-01 0.000E+00
                         122-   124 P  
                                         1.820E-01 0.000E+00 1.000E+00 0.000E+00
                         125-   129 D  
                                         8.880E-01 0.000E+00 0.000E+00 1.000E+00
  20 C   -4.111   7.012  -3.575
  21 C   -1.482  11.585  -3.621
  22 C   -1.271 -11.940   3.563
  23 C   -1.482   7.014  -3.580
  24 C   -0.143   9.300  -3.595
  25 C  -13.597   4.812   3.604
  26 C  -10.946   4.828   3.607
  27 C   11.007  -4.817   3.569
  28 C    9.678  -7.088   3.577
  29 C   -9.617   7.097   3.597
  30 C  -10.912   9.410   3.585
  31 C    8.124   4.487  -3.591
  32 C   10.773   4.468  -3.595
  33 C    8.148  -0.098  -3.562
  34 C    6.824   2.176  -3.567
  35 C   -9.634  -7.114   3.593
  36 C   10.799  -0.119  -3.579
  37 O   10.981  -4.917  -3.593
                                385 S  
                                         6.773E+03 1.727E-03 0.000E+00 0.000E+00
                                         1.017E+03 1.325E-02 0.000E+00 0.000E+00
                                         2.313E+02 6.603E-02 0.000E+00 0.000E+00
                                         6.501E+01 2.353E-01 0.000E+00 0.000E+00
                                         2.050E+01 5.498E-01 0.000E+00 0.000E+00
                                386 S  
                                         6.716E+00 1.000E+00 0.000E+00 0.000E+00
                                387 S  
                                         1.147E+00 1.000E+00 0.000E+00 0.000E+00
                                388 S  
                                         3.342E-01 1.000E+00 0.000E+00 0.000E+00
                         389-   391 P  
                                         1.769E+01 0.000E+00 4.359E-02 0.000E+00
                                         3.854E+00 0.000E+00 2.318E-01 0.000E+00
                                         1.047E+00 0.000E+00 5.146E-01 0.000E+00
                         392-   394 P  
                                         2.759E-01 0.000E+00 1.000E+00 0.000E+00
                         395-   399 D  
                                         8.000E-01 0.000E+00 0.000E+00 1.000E+00
  38 O   -9.678   7.044  -3.572
  39 O   -4.009  -7.054  10.758
  40 O    1.241   6.659 -10.752
  41 O    4.074   7.047  -3.517
  42 O    5.143   4.393 -10.734

 *******************************************************************************
 FINISHED BASIS SET HANDLING 
 *******************************************************************************

 INFORMATION **** SET_MPP **** PCRYSTAL CALCULATION
 INFORMATION **** READM2 **** NEW DEFAULT: FOCK/KS MATRIX MIXING SET TO 30 %
 INFORMATION **** READM2 **** NEW DEFAULT: FULL DIRECT SCF MODE
 INFORMATION **** READM2 **** NEW DEFAULT: COULOMB BIPOLAR BUFFER SET TO 32 Mb
 INFORMATION **** READM2 **** NEW DEFAULT: EXCHANGE BIPOLAR BUFFER SET TO 32 Mb

 *******************************************************************************
 NEW DEFAULT: DFT INTEGRATION GRID INCREASED TO XLGRID
 NEW DEFAULT: DIIS ACCELERATOR ACTIVE
 USE KEYWORD NODIIS TO TURN IT OFF
 *******************************************************************************

 WARNING **** RDDFTP **** HSEsol-HJS ACTIVE
 RANGE SEPARATION - OMEGA:   0.110000000000000     
 WARNING **** RDDFTP **** HSEsol-3c has to be combined with sol-def2-mSVP basis set
 *******************************************************************************
 N. OF ATOMS PER CELL        42  COULOMB OVERLAP TOL         (T1) 10**   -6
 NUMBER OF SHELLS           234  COULOMB PENETRATION TOL     (T2) 10**   -6
 NUMBER OF AO               474  EXCHANGE OVERLAP TOL        (T3) 10**   -6
 N. OF ELECTRONS PER CELL   198  EXCHANGE PSEUDO OVP (F(G))  (T4) 10**   -6
 CORE ELECTRONS PER CELL     60  EXCHANGE PSEUDO OVP (P(G))  (T5) 10**  -12
 N. OF SYMMETRY OPERATORS     1  POLE ORDER IN MONO ZONE                  4
 *******************************************************************************
 TYPE OF CALCULATION :  RESTRICTED CLOSED SHELL
 KOHN-SHAM HAMILTONIAN

 (EXCHANGE)[CORRELATION] FUNCTIONAL:(HSEsol GGA)[PBEsol]

 RANGE-SEPARATED HYBRID FUNCTIONAL 
 OMEGA (SHORT-RANGE)[LONG-RANGE]:(    0.1100)[    0.0000]

 HYBRID EXCHANGE - PERCENTAGE OF FOCK EXCHANGE    25.0000

 CAPPA:IS1  2;IS2  2;IS3  8; K PTS MONK NET  20; SYMMOPS:K SPACE   2;G SPACE   1

 *******************************************************************************
 MAX NUMBER OF SCF CYCLES      50  CONVERGENCE ON DELTAP        10**-16
 WEIGHT OF F(I) IN F(I+1)      30% CONVERGENCE ON ENERGY        10**- 6
 SHRINK. FACT.(MONKH.)    2  2  8  NUMBER OF K POINTS IN THE IBZ     20
 SHRINKING FACTOR(GILAT NET)    8  NUMBER OF K POINTS(GILAT NET)   1028
 *******************************************************************************
 *** K POINTS COORDINATES (OBLIQUE COORDINATES IN UNITS OF IS =  2)
   1-R(  0  0  0)   2-R(  1  0  0)   3-R(  0  1  0)   4-R(  1  1  0)
   5-C(  0  0  1)   6-C(  1  0  1)   7-C(  0  1  1)   8-C(  1  1  1)
   9-C(  0  0  2)  10-C(  1  0  2)  11-C(  0  1  2)  12-C(  1  1  2)
  13-C(  0  0  3)  14-C(  1  0  3)  15-C(  0  1  3)  16-C(  1  1  3)
  17-R(  0  0  4)  18-R(  1  0  4)  19-R(  0  1  4)  20-R(  1  1  4)

 DIRECT LATTICE VECTORS COMPON. (A.U.)     RECIP. LATTICE VECTORS COMPON. (A.U.) 
        X            Y            Z              X            Y            Z
   24.5689761  -14.2152832    0.0000000      0.2557366    0.0000000   -0.1011011
    0.0000000   28.4297713    0.0000000      0.1278719    0.2210072   -0.2015548
    2.8390019    4.9066086    7.1812957      0.0000000    0.0000000    0.8749376

 DISK SPACE FOR EIGENVECTORS (FTN 10)     7189632 REALS

 SYMMETRY ADAPTION OF THE BLOCH FUNCTIONS DISABLED
 TTTTTTTTTTTTTTTTTTTTTTTTTTTTTT gordsh1     TELAPSE        0.04 TCPU        0.04

 MATRIX SIZE: P(G)  336716, F(G)   69517, P(G) IRR  169675, F(G) IRR   70177
 MAX G-VECTOR INDEX FOR 1- AND 2-ELECTRON INTEGRALS  79

 TTTTTTTTTTTTTTTTTTTTTTTTTTTTTT INPUT       TELAPSE        0.35 TCPU        0.34

 NEIGHBORS OF THE NON-EQUIVALENT ATOMS

 N = NUMBER OF NEIGHBORS AT DISTANCE R
    ATOM  N     R/ANG      R/AU   NEIGHBORS (ATOM LABELS AND CELL INDICES)
   1 B    1     1.3787     2.6054   38 O    0 0 0
   1 B    1     1.3795     2.6068   37 O   -1 0 0
   1 B    1     1.5517     2.9323   30 C    0 0-1
   1 B    1     2.3868     4.5104    2 B    0 0 0
   1 B    1     2.3912     4.5187    3 B   -1 0 0
   1 B    1     2.5629     4.8432   27 C   -1 0-1

   2 B    1     1.3792     2.6064   38 O    0 0 0
   2 B    1     1.3798     2.6075   39 O    0 1-2
   2 B    1     1.5510     2.9309   19 C    0 0 0
   2 B    1     2.3868     4.5104    1 B    0 0 0
   2 B    1     2.3894     4.5154    3 B   -1 0 0
   2 B    1     2.5618     4.8411   22 C    0 1-1

   3 B    1     1.3790     2.6060   37 O    0 0 0
   3 B    1     1.3795     2.6069   39 O    1 1-2
   3 B    1     1.5529     2.9346   36 C    0 0 0
   3 B    1     2.3894     4.5154    2 B    1 0 0
   3 B    1     2.3912     4.5187    1 B    1 0 0
   3 B    1     2.5679     4.8526   35 C    1 1-1

   4 B    1     1.3779     2.6038   41 O    0 0 0
   4 B    1     1.3786     2.6051   40 O    0 0 1
   4 B    1     1.5479     2.9252   24 C    0 0 0
   4 B    1     2.3857     4.5084    5 B    0 0 0
   4 B    1     2.3859     4.5087    6 B    0 0 1
   4 B    1     2.5585     4.8349   21 C    0 0 0

   5 B    1     1.3778     2.6037   41 O    0 0 0
   5 B    1     1.3814     2.6104   42 O    0 0 1
   5 B    1     1.5524     2.9336   31 C    0 0 0
   5 B    1     2.3857     4.5084    4 B    0 0 0
   5 B    1     2.3952     4.5263    6 B    0 0 1
   5 B    1     2.5591     4.8359   32 C    0 0 0

   6 B    1     1.3783     2.6045   40 O    0 0 0
   6 B    1     1.3812     2.6101   42 O    0 0 0
   6 B    1     1.5546     2.9377   25 C    1 1-2
   6 B    1     2.3859     4.5087    4 B    0 0-1
   6 B    1     2.3952     4.5263    5 B    0 0-1
   6 B    1     2.5605     4.8386   26 C    1 1-2

   7 H    1     1.0917     2.0629   20 C    0 0 0
   7 H    1     2.1462     4.0556   19 C    0 0 0
   7 H    1     2.1712     4.1029   23 C    0 0 0
   7 H    1     2.5280     4.7772   10 H    0 0 0
   7 H    1     2.5583     4.8346   38 O    0 0 0
   7 H    1     2.7310     5.1609    2 B    0 0 0

   8 H    1     1.0909     2.0615   21 C    0-1 1
   8 H    1     2.1454     4.0542   24 C    0-1 1
   8 H    1     2.1688     4.0985   22 C    0 0 0
   8 H    1     2.5272     4.7758    9 H    0 0 0
   8 H    1     2.5562     4.8306   40 O    0-1 2
   8 H    1     2.7243     5.1483    4 B    0-1 1

   9 H    1     1.0908     2.0614   22 C    0 0 0
   9 H    1     2.1443     4.0521   19 C    0-1 1
   9 H    1     2.1694     4.0995   21 C    0-1 1
   9 H    1     2.5272     4.7758    8 H    0 0 0
   9 H    1     2.5616     4.8407   39 O    0 0-1
   9 H    1     2.7249     5.1492    2 B    0-1 1

  10 H    1     1.0912     2.0621   23 C    0 0 0
  10 H    1     2.1469     4.0570   24 C    0 0 0
  10 H    1     2.1689     4.0986   20 C    0 0 0
  10 H    1     2.5280     4.7772    7 H    0 0 0
  10 H    1     2.5562     4.8305   41 O    0 0 0
  10 H    1     2.7309     5.1607    4 B    0 0 0

  11 H    1     1.0911     2.0619   26 C    0 0 0
  11 H    1     2.1443     4.0521   25 C    0 0 0
  11 H    1     2.1684     4.0978   29 C    0 0 0
  11 H    1     2.5223     4.7664   14 H    0 0 0
  11 H    1     2.5622     4.8419   42 O   -1-1 2
  11 H    1     2.7179     5.1361    6 B   -1-1 2

  12 H    1     1.0917     2.0630   27 C    0 0 0
  12 H    1     2.1441     4.0518   30 C    1 0 0
  12 H    1     2.1716     4.1037   28 C    0 0 0
  12 H    1     2.5226     4.7669   13 H    0 0 0
  12 H    1     2.5541     4.8265   37 O    0 0 1
  12 H    1     2.7237     5.1471    1 B    1 0 1

  13 H    1     1.0919     2.0634   28 C    0 0 0
  13 H    1     2.1522     4.0671   25 C    1 0 0
  13 H    1     2.1668     4.0946   27 C    0 0 0
  13 H    1     2.5226     4.7669   12 H    0 0 0
  13 H    1     2.5923     4.8987   40 O    0-1 2
  13 H    1     2.7583     5.2124    6 B    0-1 2

  14 H    1     1.0915     2.0627   29 C    0 0 0
  14 H    1     2.1483     4.0597   30 C    0 0 0
  14 H    1     2.1679     4.0968   26 C    0 0 0
  14 H    1     2.5223     4.7664   11 H    0 0 0
  14 H    1     2.5809     4.8771   38 O    0 0 1
  14 H    1     2.7404     5.1785    1 B    0 0 1

  15 H    1     1.0916     2.0628   32 C   -1-1 1
  15 H    1     2.1436     4.0508   31 C   -1-1 1
  15 H    1     2.1707     4.1021   35 C    0 0 0
  15 H    1     2.5217     4.7654   18 H    0 0 0
  15 H    1     2.5568     4.8316   42 O   -1-1 2
  15 H    1     2.7165     5.1335    5 B   -1-1 1

  16 H    1     1.0914     2.0625   33 C    0 0 0
  16 H    1     2.1488     4.0606   36 C    0 0 0
  16 H    1     2.1663     4.0937   34 C    0 0 0
  16 H    1     2.5170     4.7564   17 H    0 0 0
  16 H    1     2.5780     4.8717   37 O    0 0 0
  16 H    1     2.7396     5.1770    3 B    0 0 0

  17 H    1     1.0921     2.0638   34 C    0 0 0
  17 H    1     2.1502     4.0633   31 C    0 0 0
  17 H    1     2.1683     4.0976   33 C    0 0 0
  17 H    1     2.5170     4.7564   16 H    0 0 0
  17 H    1     2.5870     4.8888   41 O    0 0 0
  17 H    1     2.7510     5.1986    5 B    0 0 0

  18 H    1     1.0913     2.0622   35 C    0 0 0
  18 H    1     2.1495     4.0619   36 C   -1-1 1
  18 H    1     2.1656     4.0923   32 C   -1-1 1
  18 H    1     2.5217     4.7654   15 H    0 0 0
  18 H    1     2.5789     4.8734   39 O    0 0-1
  18 H    1     2.7392     5.1763    3 B   -1-1 1

  19 C    1     1.4017     2.6489   22 C    0 1-1
  19 C    1     1.4025     2.6504   20 C    0 0 0
  19 C    1     1.5510     2.9309    2 B    0 0 0
  19 C    1     2.1443     4.0521    9 H    0 1-1
  19 C    1     2.1462     4.0556    7 H    0 0 0
  19 C    1     2.4236     4.5800   21 C    0 0 0

  20 C    1     1.0917     2.0629    7 H    0 0 0
  20 C    1     1.3915     2.6296   23 C    0 0 0
  20 C    1     1.4025     2.6504   19 C    0 0 0
  20 C    1     2.1689     4.0986   10 H    0 0 0
  20 C    1     2.4191     4.5715   22 C    0 1-1
  20 C    1     2.4241     4.5809   24 C    0 0 0

  21 C    1     1.0909     2.0615    8 H    0 1-1
  21 C    1     1.3909     2.6284   22 C    0 1-1
  21 C    1     1.4014     2.6483   24 C    0 0 0
  21 C    1     2.1694     4.0995    9 H    0 1-1
  21 C    1     2.4189     4.5711   23 C    0 0 0
  21 C    1     2.4236     4.5800   19 C    0 0 0

  22 C    1     1.0908     2.0614    9 H    0 0 0
  22 C    1     1.3909     2.6284   21 C    0-1 1
  22 C    1     1.4017     2.6489   19 C    0-1 1
  22 C    1     2.1688     4.0985    8 H    0 0 0
  22 C    1     2.4191     4.5715   20 C    0-1 1
  22 C    1     2.4226     4.5780   24 C    0-1 1

  23 C    1     1.0912     2.0621   10 H    0 0 0
  23 C    1     1.3915     2.6296   20 C    0 0 0
  23 C    1     1.4021     2.6496   24 C    0 0 0
  23 C    1     2.1712     4.1029    7 H    0 0 0
  23 C    1     2.4189     4.5711   21 C    0 0 0
  23 C    1     2.4237     4.5802   19 C    0 0 0

  24 C    1     1.4014     2.6483   21 C    0 0 0
  24 C    1     1.4021     2.6496   23 C    0 0 0
  24 C    1     1.5479     2.9252    4 B    0 0 0
  24 C    1     2.1454     4.0542    8 H    0 1-1
  24 C    1     2.1469     4.0570   10 H    0 0 0
  24 C    1     2.4226     4.5780   22 C    0 1-1

  25 C    1     1.4025     2.6504   26 C    0 0 0
  25 C    1     1.4037     2.6526   28 C   -1 0 0
  25 C    1     1.5546     2.9377    6 B   -1-1 2
  25 C    1     2.1443     4.0521   11 H    0 0 0
  25 C    1     2.1522     4.0671   13 H   -1 0 0
  25 C    1     2.4271     4.5866   27 C   -1 0 0

  26 C    1     1.0911     2.0619   11 H    0 0 0
  26 C    1     1.3916     2.6298   29 C    0 0 0
  26 C    1     1.4025     2.6504   25 C    0 0 0
  26 C    1     2.1679     4.0968   14 H    0 0 0
  26 C    1     2.4165     4.5665   28 C   -1 0 0
  26 C    1     2.4246     4.5819   30 C    0 0 0

  27 C    1     1.0917     2.0630   12 H    0 0 0
  27 C    1     1.3928     2.6320   28 C    0 0 0
  27 C    1     1.4024     2.6502   30 C    1 0 0
  27 C    1     2.1668     4.0946   13 H    0 0 0
  27 C    1     2.4166     4.5668   29 C    1 0 0
  27 C    1     2.4271     4.5866   25 C    1 0 0

  28 C    1     1.0919     2.0634   13 H    0 0 0
  28 C    1     1.3928     2.6320   27 C    0 0 0
  28 C    1     1.4037     2.6526   25 C    1 0 0
  28 C    1     2.1716     4.1037   12 H    0 0 0
  28 C    1     2.4165     4.5665   26 C    1 0 0
  28 C    1     2.4277     4.5877   30 C    1 0 0

  29 C    1     1.0915     2.0627   14 H    0 0 0
  29 C    1     1.3916     2.6298   26 C    0 0 0
  29 C    1     1.4023     2.6499   30 C    0 0 0
  29 C    1     2.1684     4.0978   11 H    0 0 0
  29 C    1     2.4166     4.5668   27 C   -1 0 0
  29 C    1     2.4281     4.5884   25 C    0 0 0

  30 C    1     1.4023     2.6499   29 C    0 0 0
  30 C    1     1.4024     2.6502   27 C   -1 0 0
  30 C    1     1.5517     2.9323    1 B    0 0 1
  30 C    1     2.1441     4.0518   12 H   -1 0 0
  30 C    1     2.1483     4.0597   14 H    0 0 0
  30 C    1     2.4246     4.5819   26 C    0 0 0

  31 C    1     1.4022     2.6498   32 C    0 0 0
  31 C    1     1.4030     2.6513   34 C    0 0 0
  31 C    1     1.5524     2.9336    5 B    0 0 0
  31 C    1     2.1436     4.0508   15 H    1 1-1
  31 C    1     2.1502     4.0633   17 H    0 0 0
  31 C    1     2.4264     4.5853   33 C    0 0 0

  32 C    1     1.0916     2.0628   15 H    1 1-1
  32 C    1     1.3918     2.6301   35 C    1 1-1
  32 C    1     1.4022     2.6498   31 C    0 0 0
  32 C    1     2.1656     4.0923   18 H    1 1-1
  32 C    1     2.4163     4.5661   34 C    0 0 0
  32 C    1     2.4270     4.5863   36 C    0 0 0

  33 C    1     1.0914     2.0625   16 H    0 0 0
  33 C    1     1.3927     2.6318   34 C    0 0 0
  33 C    1     1.4029     2.6510   36 C    0 0 0
  33 C    1     2.1683     4.0976   17 H    0 0 0
  33 C    1     2.4155     4.5646   35 C    1 1-1
  33 C    1     2.4264     4.5853   31 C    0 0 0

  34 C    1     1.0921     2.0638   17 H    0 0 0
  34 C    1     1.3927     2.6318   33 C    0 0 0
  34 C    1     1.4030     2.6513   31 C    0 0 0
  34 C    1     2.1663     4.0937   16 H    0 0 0
  34 C    1     2.4163     4.5661   32 C    0 0 0
  34 C    1     2.4289     4.5899   36 C    0 0 0

  35 C    1     1.0913     2.0622   18 H    0 0 0
  35 C    1     1.3918     2.6301   32 C   -1-1 1
  35 C    1     1.4029     2.6511   36 C   -1-1 1
  35 C    1     2.1707     4.1021   15 H    0 0 0
  35 C    1     2.4155     4.5646   33 C   -1-1 1
  35 C    1     2.4269     4.5861   31 C   -1-1 1

  36 C    1     1.4029     2.6510   33 C    0 0 0
  36 C    1     1.4029     2.6511   35 C    1 1-1
  36 C    1     1.5529     2.9346    3 B    0 0 0
  36 C    1     2.1488     4.0606   16 H    0 0 0
  36 C    1     2.1495     4.0619   18 H    1 1-1
  36 C    1     2.4270     4.5863   32 C    0 0 0

  37 O    1     1.3790     2.6060    3 B    0 0 0
  37 O    1     1.3795     2.6068    1 B    1 0 0
  37 O    1     2.3868     4.5105   39 O    1 1-2
  37 O    1     2.3885     4.5136   38 O    1 0 0
  37 O    1     2.5389     4.7979   30 C    1 0-1
  37 O    1     2.5412     4.8022   36 C    0 0 0

  38 O    1     1.3787     2.6054    1 B    0 0 0
  38 O    1     1.3792     2.6064    2 B    0 0 0
  38 O    1     2.3885     4.5136   37 O   -1 0 0
  38 O    1     2.3912     4.5187   39 O    0 1-2
  38 O    1     2.5351     4.7906   19 C    0 0 0
  38 O    1     2.5405     4.8008   30 C    0 0-1

  39 O    1     1.3795     2.6069    3 B   -1-1 2
  39 O    1     1.3798     2.6075    2 B    0-1 2
  39 O    1     2.3868     4.5105   37 O   -1-1 2
  39 O    1     2.3912     4.5187   38 O    0-1 2
  39 O    1     2.5416     4.8030   19 C    0-1 2
  39 O    1     2.5427     4.8050   36 C   -1-1 2

  40 O    1     1.3783     2.6045    6 B    0 0 0
  40 O    1     1.3786     2.6051    4 B    0 0-1
  40 O    1     2.3876     4.5119   42 O    0 0 0
  40 O    1     2.3914     4.5190   41 O    0 0-1
  40 O    1     2.5354     4.7912   25 C    1 1-2
  40 O    1     2.5360     4.7923   24 C    0 0-1

  41 O    1     1.3778     2.6037    5 B    0 0 0
  41 O    1     1.3779     2.6038    4 B    0 0 0
  41 O    1     2.3870     4.5107   42 O    0 0 1
  41 O    1     2.3914     4.5190   40 O    0 0 1
  41 O    1     2.5305     4.7820   24 C    0 0 0
  41 O    1     2.5354     4.7912   31 C    0 0 0

  42 O    1     1.3812     2.6101    6 B    0 0 0
  42 O    1     1.3814     2.6104    5 B    0 0-1
  42 O    1     2.3870     4.5107   41 O    0 0-1
  42 O    1     2.3876     4.5119   40 O    0 0 0
  42 O    1     2.5481     4.8152   31 C    0 0-1
  42 O    1     2.5522     4.8230   25 C    1 1-2


 SYMMETRY ALLOWED INTERNAL DEGREE(S) OF FREEDOM: 123
 TTTTTTTTTTTTTTTTTTTTTTTTTTTTTT SYMM        TELAPSE        0.35 TCPU        0.35
 TTTTTTTTTTTTTTTTTTTTTTTTTTTTTT INT_SCREEN  TELAPSE        0.38 TCPU        0.38

 DFT PARAMETERS

     ATOM       ELECTRONS   NET CHARGE   R(ANGSTROM)
   1   5  B       5.0000      0.0000     0.89000000
   7   1  H       1.0000      0.0000     1.11000000
  19   6  C       6.0000      0.0000     0.77000000
  37   8  O       8.0000      0.0000     0.74000000

 SIZE OF GRID=    1297676
 TTTTTTTTTTTTTTTTTTTTTTTTTTTTTT MAKE_GRID2  TELAPSE        9.78 TCPU        9.77
 BECKE WEIGHT FUNCTION
 RADSAFE =     2.00
 TOLERANCES - DENSITY:10**- 6; POTENTIAL:10**- 9; GRID WGT:10**-14

 RADIAL INTEGRATION  - INTERVALS (POINTS,UPPER LIMIT):            1( 75,  4.0*R)

 ANGULAR INTEGRATION - INTERVALS (ACCURACY LEVEL [N. POINTS] UPPER LIMIT):
  1(  4[  86]   0.2)  2(  8[ 194]   0.5)  3( 12[ 350]   0.9)  4( 16[ 974]   3.5)
  5( 12[ 350]9999.0)
 TTTTTTTTTTTTTTTTTTTTTTTTTTTTTT INT_CALC    TELAPSE        9.88 TCPU        9.86
 EEEEEEEEEE INT_CALC TERMINATION  DATE 02 12 2025 TIME 08:02:09.9

 *******************************************************************************
 COF-5_z38_inc_L030                                                              
 CRYSTAL - SCF - TYPE OF CALCULATION :  RESTRICTED CLOSED SHELL
 *******************************************************************************

 CAPPA:IS1  2;IS2  2;IS3  8; K PTS MONK NET  20; SYMMOPS:K SPACE   2;G SPACE   1

 TTTTTTTTTTTTTTTTTTTTTTTTTTTTTT SDIK        TELAPSE       10.49 TCPU       17.86

 AAAAAAAAAAAAAAAAAAAAAAAAAAAAAAAAAAAAAAAAAAAAAAAAAAAAAAAAAAAAAAAAAAAAAAAAAAAAAAA
         ATOMIC WAVEFUNCTION(S)


 NUCLEAR CHARGE  5.0  SYMMETRY SPECIES            S    P
 N. ELECTRONS    5.0  NUMBER OF PRIMITIVE GTOS    8    4
                      NUMBER OF CONTRACTED GTOS   4    2
                      NUMBER OF CLOSED SHELLS     2    0
                      OPEN SHELL OCCUPATION       0    1

  ZNUC  SCFIT    TOTAL HF ENERGY   KINETIC ENERGY   VIRIAL THEOREM ACCURACY
   5.0    11    -2.451164084E+01  2.462155050E+01 -1.995536038E+00  1.5E-06

 NUCLEAR CHARGE  1.0  SYMMETRY SPECIES            S
 N. ELECTRONS    1.0  NUMBER OF PRIMITIVE GTOS    4
                      NUMBER OF CONTRACTED GTOS   2
                      NUMBER OF CLOSED SHELLS     0
                      OPEN SHELL OCCUPATION       1

  ZNUC  SCFIT    TOTAL HF ENERGY   KINETIC ENERGY   VIRIAL THEOREM ACCURACY
   1.0     1    -4.977266687E-01  5.190767460E-01 -1.958869132E+00  0.0E+00

 NUCLEAR CHARGE  6.0  SYMMETRY SPECIES            S    P
 N. ELECTRONS    6.0  NUMBER OF PRIMITIVE GTOS    8    4
                      NUMBER OF CONTRACTED GTOS   4    2
                      NUMBER OF CLOSED SHELLS     2    0
                      OPEN SHELL OCCUPATION       0    2

  ZNUC  SCFIT    TOTAL HF ENERGY   KINETIC ENERGY   VIRIAL THEOREM ACCURACY
   6.0     9    -3.766704647E+01  3.775180683E+01 -1.997754800E+00  1.1E-06

 NUCLEAR CHARGE  8.0  SYMMETRY SPECIES            S    P
 N. ELECTRONS    8.0  NUMBER OF PRIMITIVE GTOS    8    4
                      NUMBER OF CONTRACTED GTOS   4    2
                      NUMBER OF CLOSED SHELLS     2    0
                      OPEN SHELL OCCUPATION       0    4

  ZNUC  SCFIT    TOTAL HF ENERGY   KINETIC ENERGY   VIRIAL THEOREM ACCURACY
   8.0    12    -7.477373220E+01  7.477365593E+01 -2.000001020E+00  3.8E-06

 AAAAAAAAAAAAAAAAAAAAAAAAAAAAAAAAAAAAAAAAAAAAAAAAAAAAAAAAAAAAAAAAAAAAAAAAAAAAAAA

 CHARGE NORMALIZATION FACTOR   1.00000000
 TOTAL ATOMIC CHARGES:
   5.0000000   5.0000000   5.0000000   5.0000000   5.0000000   5.0000000
   1.0000000   1.0000000   1.0000000   1.0000000   1.0000000   1.0000000
   1.0000000   1.0000000   1.0000000   1.0000000   1.0000000   1.0000000
   6.0000000   6.0000000   6.0000000   6.0000000   6.0000000   6.0000000
   6.0000000   6.0000000   6.0000000   6.0000000   6.0000000   6.0000000
   6.0000000   6.0000000   6.0000000   6.0000000   6.0000000   6.0000000
   8.0000000   8.0000000   8.0000000   8.0000000   8.0000000   8.0000000
 TTTTTTTTTTTTTTTTTTTTTTTTTTTTTT MOQGAD      TELAPSE       10.54 TCPU       19.34
 TTTTTTTTTTTTTTTTTTTTTTTTTTTTTT SHELLXN     TELAPSE       18.28 TCPU      266.42
 TTTTTTTTTTTTTTTTTTTTTTTTTTTTTT MONMO3      TELAPSE       18.43 TCPU      271.20
 NUMERICALLY INTEGRATED DENSITY    197.9999724241
 TTTTTTTTTTTTTTTTTTTTTTTTTTTTTT NUMDFT      TELAPSE       19.01 TCPU      289.81
 CYC   0 ETOT(AU) -1.295951515700E+03 DETOT -1.30E+03 tst  0.00E+00 PX  1.00E+00
 TTTTTTTTTTTTTTTTTTTTTTTTTTTTTT DIIS        TELAPSE       19.04 TCPU      290.89
 TTTTTTTTTTTTTTTTTTTTTTTTTTTTTT FDIK        TELAPSE       19.53 TCPU      306.57
 INSULATING STATE
 TOP OF VALENCE BANDS -    BAND     99; K   17; EIG -3.1059476E-01 AU
 TOP OF VALENCE BANDS -    BAND     99; K    1; EIG -3.1288686E-01 AU
 BOTTOM OF VIRTUAL BANDS - BAND    100; K    1; EIG -1.6032396E-01 AU
 INDIRECT ENERGY BAND GAP:   4.0891 eV
 TTTTTTTTTTTTTTTTTTTTTTTTTTTTTT PDIG        TELAPSE       19.84 TCPU      312.73
 CHARGE NORMALIZATION FACTOR   1.00000000
 TOTAL ATOMIC CHARGES:
   4.1479518   4.1596349   4.1608269   4.1624179   4.1598015   4.1472503
   0.7853665   0.7853351   0.7850812   0.7850812   0.7858052   0.7857141
   0.7866845   0.7862542   0.7850854   0.7856674   0.7852440   0.7854876
   6.0442936   6.2662681   6.2663066   6.2658480   6.2645358   6.0466424
   6.0448475   6.2665031   6.2647543   6.2672404   6.2670864   6.0485044
   6.0435212   6.2663104   6.2671984   6.2653228   6.2669869   6.0409949
   8.6959466   8.6951472   8.6952515   8.6947148   8.6939710   8.6971140
 TTTTTTTTTTTTTTTTTTTTTTTTTTTTTT MOQGAD      TELAPSE       19.89 TCPU      312.78
 TTTTTTTTTTTTTTTTTTTTTTTTTTTTTT SHELLXN     TELAPSE       27.92 TCPU      569.06
 TTTTTTTTTTTTTTTTTTTTTTTTTTTTTT MONMO3      TELAPSE       28.07 TCPU      573.82
 NUMERICALLY INTEGRATED DENSITY    197.9999786641
 TTTTTTTTTTTTTTTTTTTTTTTTTTTTTT NUMDFT      TELAPSE       28.66 TCPU      592.70
 CYC   1 ETOT(AU) -1.288822209227E+03 DETOT  7.13E+00 tst  0.00E+00 PX  1.00E+00
 TTTTTTTTTTTTTTTTTTTTTTTTTTTTTT DIIS        TELAPSE       28.70 TCPU      594.04
 DIIS TEST: 0.10941E+01 AT SCF   CYCLE   1 - MIX   30 %
 TTTTTTTTTTTTTTTTTTTTTTTTTTTTTT FDIK        TELAPSE       29.20 TCPU      609.87
 INSULATING STATE
 TOP OF VALENCE BANDS -    BAND     99; K   17; EIG -2.2008386E-01 AU
 TOP OF VALENCE BANDS -    BAND     99; K    1; EIG -2.2658273E-01 AU
 BOTTOM OF VIRTUAL BANDS - BAND    100; K    1; EIG -8.2784585E-02 AU
 INDIRECT ENERGY BAND GAP:   3.7361 eV
 TTTTTTTTTTTTTTTTTTTTTTTTTTTTTT PDIG        TELAPSE       29.50 TCPU      616.02
 CHARGE NORMALIZATION FACTOR   1.00000000
 TOTAL ATOMIC CHARGES:
   4.6754061   4.6998897   4.7003050   4.7008367   4.7000884   4.6756574
   0.9085921   0.9089780   0.9172485   0.9173051   0.9061043   0.9056718
   0.9068096   0.9069782   0.9080952   0.9086461   0.9169716   0.9171221
   5.8680502   6.1251071   6.1232350   6.1452121   6.1476507   5.8640810
   5.8906749   6.1373140   6.1402485   6.1424526   6.1408581   5.8864840
   5.8699196   6.1199557   6.1230459   6.1479892   6.1443633   5.8704468
   8.3330183   8.3316250   8.3519074   8.3301675   8.3490046   8.3364830
 TTTTTTTTTTTTTTTTTTTTTTTTTTTTTT MOQGAD      TELAPSE       29.55 TCPU      616.07
 TTTTTTTTTTTTTTTTTTTTTTTTTTTTTT SHELLXN     TELAPSE       37.59 TCPU      872.55
 TTTTTTTTTTTTTTTTTTTTTTTTTTTTTT MONMO3      TELAPSE       37.74 TCPU      877.32
 NUMERICALLY INTEGRATED DENSITY    197.9999770769
 TTTTTTTTTTTTTTTTTTTTTTTTTTTTTT NUMDFT      TELAPSE       38.33 TCPU      896.24
 CYC   2 ETOT(AU) -1.289016344692E+03 DETOT -1.94E-01 tst  3.91E-03 PX  1.59E-01
 TTTTTTTTTTTTTTTTTTTTTTTTTTTTTT DIIS        TELAPSE       38.38 TCPU      897.69
 DIIS TEST: 0.45339E+00 AT SCF   CYCLE   2 - DIIS ACTIVE - HISTORY:     2 CYCLES
 TTTTTTTTTTTTTTTTTTTTTTTTTTTTTT FDIK        TELAPSE       38.87 TCPU      913.50
 INSULATING STATE
 TOP OF VALENCE BANDS -    BAND     99; K   17; EIG -2.3330735E-01 AU
 TOP OF VALENCE BANDS -    BAND     99; K    1; EIG -2.3745570E-01 AU
 BOTTOM OF VIRTUAL BANDS - BAND    100; K    1; EIG -7.8618017E-02 AU
 INDIRECT ENERGY BAND GAP:   4.2093 eV
 TTTTTTTTTTTTTTTTTTTTTTTTTTTTTT PDIG        TELAPSE       39.17 TCPU      919.66
 CHARGE NORMALIZATION FACTOR   1.00000000
 TOTAL ATOMIC CHARGES:
   4.4748210   4.4949396   4.4955603   4.4966836   4.4948288   4.4745595
   0.8869990   0.8868847   0.8932869   0.8935631   0.8858186   0.8856416
   0.8874155   0.8867860   0.8858512   0.8869792   0.8937353   0.8932115
   5.8897128   6.1621038   6.1629021   6.1585461   6.1585403   5.8913072
   5.9069555   6.1601795   6.1605515   6.1629194   6.1630011   5.9080304
   5.8904651   6.1619169   6.1622837   6.1592827   6.1601705   5.8899127
   8.5170175   8.5165102   8.5136450   8.5159679   8.5113817   8.5191309
 TTTTTTTTTTTTTTTTTTTTTTTTTTTTTT MOQGAD      TELAPSE       39.22 TCPU      919.71
 TTTTTTTTTTTTTTTTTTTTTTTTTTTTTT SHELLXN     TELAPSE       47.26 TCPU     1176.04
 TTTTTTTTTTTTTTTTTTTTTTTTTTTTTT MONMO3      TELAPSE       47.41 TCPU     1180.81
 NUMERICALLY INTEGRATED DENSITY    197.9999769608
 TTTTTTTTTTTTTTTTTTTTTTTTTTTTTT NUMDFT      TELAPSE       48.00 TCPU     1199.70
 CYC   3 ETOT(AU) -1.289110297151E+03 DETOT -9.40E-02 tst  6.73E-04 PX  6.56E-02
 TTTTTTTTTTTTTTTTTTTTTTTTTTTTTT DIIS        TELAPSE       48.05 TCPU     1201.38
 DIIS TEST: 0.13649E-01 AT SCF   CYCLE   3 - DIIS ACTIVE - HISTORY:     3 CYCLES
 TTTTTTTTTTTTTTTTTTTTTTTTTTTTTT FDIK        TELAPSE       48.55 TCPU     1217.23
 INSULATING STATE
 TOP OF VALENCE BANDS -    BAND     99; K   17; EIG -2.4331409E-01 AU
 TOP OF VALENCE BANDS -    BAND     99; K    1; EIG -2.4934817E-01 AU
 BOTTOM OF VIRTUAL BANDS - BAND    100; K    1; EIG -8.7116644E-02 AU
 INDIRECT ENERGY BAND GAP:   4.2504 eV
 TTTTTTTTTTTTTTTTTTTTTTTTTTTTTT PDIG        TELAPSE       48.85 TCPU     1223.39
 CHARGE NORMALIZATION FACTOR   1.00000000
 TOTAL ATOMIC CHARGES:
   4.4819846   4.4990630   4.4995175   4.5007725   4.4989006   4.4819335
   0.8703585   0.8707153   0.8754727   0.8756723   0.8670501   0.8668234
   0.8684019   0.8681557   0.8697959   0.8705351   0.8756808   0.8757589
   5.9392678   6.1611708   6.1593125   6.1743007   6.1749942   5.9369484
   5.9575449   6.1699988   6.1709596   6.1722419   6.1715423   5.9562150
   5.9398133   6.1581169   6.1603633   6.1757864   6.1735980   5.9386624
   8.4780810   8.4767763   8.4918123   8.4756278   8.4897061   8.4805670
 TTTTTTTTTTTTTTTTTTTTTTTTTTTTTT MOQGAD      TELAPSE       48.90 TCPU     1223.43
 TTTTTTTTTTTTTTTTTTTTTTTTTTTTTT SHELLXN     TELAPSE       56.93 TCPU     1479.77
 TTTTTTTTTTTTTTTTTTTTTTTTTTTTTT MONMO3      TELAPSE       57.08 TCPU     1484.54
 NUMERICALLY INTEGRATED DENSITY    197.9999770031
 TTTTTTTTTTTTTTTTTTTTTTTTTTTTTT NUMDFT      TELAPSE       57.68 TCPU     1503.48
 CYC   4 ETOT(AU) -1.289113181733E+03 DETOT -2.88E-03 tst  3.11E-05 PX  1.37E-02
 TTTTTTTTTTTTTTTTTTTTTTTTTTTTTT DIIS        TELAPSE       57.73 TCPU     1505.22
 DIIS TEST: 0.41740E-02 AT SCF   CYCLE   4 - DIIS ACTIVE - HISTORY:     4 CYCLES
 TTTTTTTTTTTTTTTTTTTTTTTTTTTTTT FDIK        TELAPSE       58.22 TCPU     1520.92
 INSULATING STATE
 TOP OF VALENCE BANDS -    BAND     99; K   17; EIG -2.4158220E-01 AU
 TOP OF VALENCE BANDS -    BAND     99; K    1; EIG -2.4696356E-01 AU
 BOTTOM OF VIRTUAL BANDS - BAND    100; K    1; EIG -8.6659643E-02 AU
 INDIRECT ENERGY BAND GAP:   4.2157 eV
 TTTTTTTTTTTTTTTTTTTTTTTTTTTTTT PDIG        TELAPSE       58.52 TCPU     1527.08
 CHARGE NORMALIZATION FACTOR   1.00000000
 TOTAL ATOMIC CHARGES:
   4.4813817   4.5020236   4.5026173   4.5036451   4.5019454   4.4812318
   0.8730072   0.8730046   0.8791480   0.8793278   0.8708822   0.8706253
   0.8722666   0.8718132   0.8721020   0.8730866   0.8794602   0.8791693
   5.9205104   6.1638515   6.1640116   6.1705991   6.1711050   5.9208511
   5.9376463   6.1689853   6.1699600   6.1717182   6.1714913   5.9376541
   5.9214764   6.1625633   6.1635735   6.1714681   6.1713848   5.9211384
   8.4912644   8.4903945   8.4953509   8.4896728   8.4930115   8.4935792
 TTTTTTTTTTTTTTTTTTTTTTTTTTTTTT MOQGAD      TELAPSE       58.57 TCPU     1527.13
 TTTTTTTTTTTTTTTTTTTTTTTTTTTTTT SHELLXN     TELAPSE       66.61 TCPU     1783.64
 TTTTTTTTTTTTTTTTTTTTTTTTTTTTTT MONMO3      TELAPSE       66.76 TCPU     1788.41
 NUMERICALLY INTEGRATED DENSITY    197.9999771104
 TTTTTTTTTTTTTTTTTTTTTTTTTTTTTT NUMDFT      TELAPSE       67.35 TCPU     1807.27
 CYC   5 ETOT(AU) -1.289114136343E+03 DETOT -9.55E-04 tst  6.03E-06 PX  6.63E-03
 TTTTTTTTTTTTTTTTTTTTTTTTTTTTTT DIIS        TELAPSE       67.41 TCPU     1809.29
 DIIS TEST: 0.68543E-04 AT SCF   CYCLE   5 - DIIS ACTIVE - HISTORY:     5 CYCLES
 TTTTTTTTTTTTTTTTTTTTTTTTTTTTTT FDIK        TELAPSE       67.91 TCPU     1825.13
 INSULATING STATE
 TOP OF VALENCE BANDS -    BAND     99; K   17; EIG -2.4129775E-01 AU
 TOP OF VALENCE BANDS -    BAND     99; K    1; EIG -2.4670101E-01 AU
 BOTTOM OF VIRTUAL BANDS - BAND    100; K    1; EIG -8.6129952E-02 AU
 INDIRECT ENERGY BAND GAP:   4.2223 eV
 TTTTTTTTTTTTTTTTTTTTTTTTTTTTTT PDIG        TELAPSE       68.21 TCPU     1831.29
 CHARGE NORMALIZATION FACTOR   1.00000000
 TOTAL ATOMIC CHARGES:
   4.4823669   4.5012198   4.5017315   4.5029058   4.5011251   4.4822793
   0.8739533   0.8741936   0.8800517   0.8802922   0.8718599   0.8716568
   0.8732490   0.8729005   0.8732497   0.8740842   0.8802887   0.8802463
   5.9208165   6.1637075   6.1623545   6.1703896   6.1708434   5.9194473
   5.9385926   6.1682836   6.1688675   6.1706748   6.1702980   5.9379313
   5.9214355   6.1613237   6.1630831   6.1718899   6.1702648   5.9201099
   8.4897391   8.4887527   8.4978990   8.4876742   8.4958227   8.4921446
 TTTTTTTTTTTTTTTTTTTTTTTTTTTTTT MOQGAD      TELAPSE       68.26 TCPU     1831.33
 TTTTTTTTTTTTTTTTTTTTTTTTTTTTTT SHELLXN     TELAPSE       76.30 TCPU     2087.79
 TTTTTTTTTTTTTTTTTTTTTTTTTTTTTT MONMO3      TELAPSE       76.45 TCPU     2092.57
 NUMERICALLY INTEGRATED DENSITY    197.9999770848
 TTTTTTTTTTTTTTTTTTTTTTTTTTTTTT NUMDFT      TELAPSE       77.04 TCPU     2111.55
 CYC   6 ETOT(AU) -1.289114153357E+03 DETOT -1.70E-05 tst  1.50E-07 PX  1.09E-03
 TTTTTTTTTTTTTTTTTTTTTTTTTTTTTT DIIS        TELAPSE       77.11 TCPU     2113.69
 DIIS TEST: 0.17922E-04 AT SCF   CYCLE   6 - DIIS ACTIVE - HISTORY:     6 CYCLES
 TTTTTTTTTTTTTTTTTTTTTTTTTTTTTT FDIK        TELAPSE       77.60 TCPU     2129.50
 INSULATING STATE
 TOP OF VALENCE BANDS -    BAND     99; K   17; EIG -2.4133023E-01 AU
 TOP OF VALENCE BANDS -    BAND     99; K    1; EIG -2.4671070E-01 AU
 BOTTOM OF VIRTUAL BANDS - BAND    100; K    1; EIG -8.6170244E-02 AU
 INDIRECT ENERGY BAND GAP:   4.2221 eV
 TTTTTTTTTTTTTTTTTTTTTTTTTTTTTT PDIG        TELAPSE       77.90 TCPU     2135.66
 CHARGE NORMALIZATION FACTOR   1.00000000
 TOTAL ATOMIC CHARGES:
   4.4819180   4.5016219   4.5021980   4.5032860   4.5015330   4.4817681
   0.8739910   0.8740600   0.8799971   0.8801906   0.8717893   0.8715355
   0.8731781   0.8727655   0.8731440   0.8740877   0.8803070   0.8800625
   5.9206048   6.1631725   6.1629836   6.1700871   6.1705593   5.9204808
   5.9381543   6.1681505   6.1691565   6.1708838   6.1704611   5.9379525
   5.9213823   6.1615925   6.1628585   6.1710263   6.1706502   5.9209867
   8.4904651   8.4894849   8.4961356   8.4887266   8.4938367   8.4927746
 TTTTTTTTTTTTTTTTTTTTTTTTTTTTTT MOQGAD      TELAPSE       77.95 TCPU     2135.71
 TTTTTTTTTTTTTTTTTTTTTTTTTTTTTT SHELLXN     TELAPSE       85.99 TCPU     2392.11
 TTTTTTTTTTTTTTTTTTTTTTTTTTTTTT MONMO3      TELAPSE       86.14 TCPU     2396.88
 NUMERICALLY INTEGRATED DENSITY    197.9999770852
 TTTTTTTTTTTTTTTTTTTTTTTTTTTTTT NUMDFT      TELAPSE       86.73 TCPU     2415.78
 CYC   7 ETOT(AU) -1.289114156649E+03 DETOT -3.29E-06 tst  5.82E-08 PX  7.25E-04
 TTTTTTTTTTTTTTTTTTTTTTTTTTTTTT DIIS        TELAPSE       86.81 TCPU     2418.18
 DIIS TEST: 0.11538E-05 AT SCF   CYCLE   7 - DIIS ACTIVE - HISTORY:     7 CYCLES
 TTTTTTTTTTTTTTTTTTTTTTTTTTTTTT FDIK        TELAPSE       87.31 TCPU     2434.11
 INSULATING STATE
 TOP OF VALENCE BANDS -    BAND     99; K   17; EIG -2.4133040E-01 AU
 TOP OF VALENCE BANDS -    BAND     99; K    1; EIG -2.4672608E-01 AU
 BOTTOM OF VIRTUAL BANDS - BAND    100; K    1; EIG -8.6196237E-02 AU
 INDIRECT ENERGY BAND GAP:   4.2214 eV
 TTTTTTTTTTTTTTTTTTTTTTTTTTTTTT PDIG        TELAPSE       87.61 TCPU     2440.26
 CHARGE NORMALIZATION FACTOR   1.00000000
 TOTAL ATOMIC CHARGES:
   4.4819938   4.5016690   4.5022228   4.5033297   4.5015795   4.4818759
   0.8739297   0.8740508   0.8799694   0.8801783   0.8717389   0.8715160
   0.8731426   0.8727300   0.8731237   0.8740356   0.8802455   0.8800808
   5.9207190   6.1633235   6.1627039   6.1701443   6.1706591   5.9202041
   5.9381656   6.1683308   6.1690422   6.1708042   6.1705820   5.9378315
   5.9215641   6.1614926   6.1628396   6.1713597   6.1704638   5.9206460
   8.4903435   8.4894470   8.4964375   8.4885176   8.4942354   8.4927312
 TTTTTTTTTTTTTTTTTTTTTTTTTTTTTT MOQGAD      TELAPSE       87.66 TCPU     2440.31
 TTTTTTTTTTTTTTTTTTTTTTTTTTTTTT SHELLXN     TELAPSE       95.70 TCPU     2696.81
 TTTTTTTTTTTTTTTTTTTTTTTTTTTTTT MONMO3      TELAPSE       95.85 TCPU     2701.58
 NUMERICALLY INTEGRATED DENSITY    197.9999770855
 TTTTTTTTTTTTTTTTTTTTTTTTTTTTTT NUMDFT      TELAPSE       96.44 TCPU     2720.47
 CYC   8 ETOT(AU) -1.289114156690E+03 DETOT -4.14E-08 tst  3.06E-09 PX  1.54E-04
 TTTTTTTTTTTTTTTTTTTTTTTTTTTTTT DIIS        TELAPSE       96.52 TCPU     2722.98
 DIIS TEST: 0.10179E-06 AT SCF   CYCLE   8 - DIIS ACTIVE - HISTORY:     8 CYCLES
 TTTTTTTTTTTTTTTTTTTTTTTTTTTTTT FDIK        TELAPSE       97.01 TCPU     2738.75
 INSULATING STATE
 TOP OF VALENCE BANDS -    BAND     99; K   17; EIG -2.4133398E-01 AU
 TOP OF VALENCE BANDS -    BAND     99; K    1; EIG -2.4672528E-01 AU
 BOTTOM OF VIRTUAL BANDS - BAND    100; K    1; EIG -8.6193133E-02 AU
 INDIRECT ENERGY BAND GAP:   4.2216 eV
 TTTTTTTTTTTTTTTTTTTTTTTTTTTTTT PDIG        TELAPSE       97.31 TCPU     2744.90
 CHARGE NORMALIZATION FACTOR   1.00000000
 TOTAL ATOMIC CHARGES:
   4.4820147   4.5016429   4.5022010   4.5033027   4.5015493   4.4818809
   0.8739287   0.8740342   0.8799678   0.8801735   0.8717533   0.8715079
   0.8731381   0.8727418   0.8731118   0.8740308   0.8802601   0.8800616
   5.9206406   6.1632830   6.1628447   6.1701766   6.1706266   5.9202378
   5.9381853   6.1682010   6.1691398   6.1708852   6.1704603   5.9378991
   5.9213728   6.1615238   6.1629109   6.1712345   6.1705840   5.9207897
   8.4903604   8.4893767   8.4964897   8.4885540   8.4942391   8.4926832
 TTTTTTTTTTTTTTTTTTTTTTTTTTTTTT MOQGAD      TELAPSE       97.36 TCPU     2744.94
 TTTTTTTTTTTTTTTTTTTTTTTTTTTTTT SHELLXN     TELAPSE      105.39 TCPU     3001.34
 +++ ENERGIES IN A.U. +++
 ::: EXT EL-POLE                                  -1.3542098963044E+03
 ::: EXT EL-SPHEROPOLE                             1.5070740113142E+01
 ::: BIELET ZONE E-E                               2.1731111623605E+03
 ::: TOTAL E-E                                     8.3397200616918E+02
 ::: TOTAL E-N + N-E                              -3.4959031878916E+03
 ::: TOTAL N-N                                     2.2662688072916E+02
 ::: KINETIC ENERGY                                1.2799000452864E+03
 ::: PSEUDO TOTAL   ENERGY                        -1.1554042557069E+03
 ::: VIRIAL COEFFICIENT                            1.0511212457222E+00
 TTTTTTTTTTTTTTTTTTTTTTTTTTTTTT MONMO3      TELAPSE      105.54 TCPU     3006.11
 NUMERICALLY INTEGRATED DENSITY    197.9999770852
 EXCHANGE ENERGY: -0.126018658239E+03  CORRELATION ENERGY: -0.769124279960E+01
 TTTTTTTTTTTTTTTTTTTTTTTTTTTTTT NUMDFT      TELAPSE      106.13 TCPU     3025.03
 CYC   9 ETOT(AU) -1.289114156746E+03 DETOT -5.54E-08 tst  1.01E-09 PX  1.54E-04

 == SCF ENDED - CONVERGENCE ON ENERGY      E(AU) -1.2891141567456E+03 CYCLES   9


 ENERGY EXPRESSION=HARTREE+FOCK EXCH*0.00000+(HSESOL     EXCH)*1.00000+PBESOL     CORR


 TOTAL ENERGY(DFT)(AU)(  9) -1.2891141567456E+03 DE-5.5E-08 tester 1.0E-09
 TTTTTTTTTTTTTTTTTTTTTTTTTTTTTT EDFT        TELAPSE      106.13 TCPU     3025.04
 
 INFORMATION **** DFTD3 ENERGY **** CALCULATE DFTD3 ENERGY

           DFT-D V3(BJ)
 DF                                         hsesol3c  
 parameters
 s6       :    1.0000
 s8       :    0.0000
 a1       :    0.5196
 a2       :    4.9385
 k1 k3    :   16.0000   -4.0000
 Cutoff   :   50.2022
 CN-Cutoff:   21.1671
 ABC-Cutoff:   21.1671
 
 Edisp /kcal,au:   -26.4269 -0.04211398

 E6    /kcal :   -28.0969
 E8    /kcal :     0.0000
 E6(ABC) "   :   1.670011
 
 INFORMATION **** DFTD3 ENERGY **** NORMAL TERMINATION OF DFTD3 MODULE

 GCP ENERGY CALCULATION
  level        hsesol3c            basis:hsesol3c
  Nbf            474
  Atoms           42

  Parameters: 
  sigma     1.0000
  eta       1.4281
  alpha     0.2936
  beta      1.9467

  dmp_scal      4.0000
  dmp_exp       6.0000
 cutoffs: 
   distance [bohr] 60.0
   noise    [a.u.] 2.2E-16
 SR-damping   T
 ** gCP correction **
  Egcp:        0.0830598344 / (a.u.) ||      52.1208 / (kcal/mol)
 INFORMATION **** GCP **** NORMAL TERMINATION OF GCP MODULE

 *******************************************************************************

 DFT-D3-GCP DISPERSION AND COUNTERPOISE CORRECTION

 D3 DISPERSION ENERGY (AU)      -4.2113977359264E-02
 GCP ENERGY (AU)                 8.3059834435244E-02
 TOTAL ENERGY + DISP + GCP (AU) -1.2890732108885E+03

 *******************************************************************************

 EIGENVECTORS IN FORTRAN UNIT 10
 TTTTTTTTTTTTTTTTTTTTTTTTTTTTTT END         TELAPSE      107.43 TCPU     3032.31
 EEEEEEEEEE TERMINATION  DATE 02 12 2025 TIME 08:03:47.5
