 Default number of threads is:           32

         
 *******************************************************************************
 *                                                                             *
 *                               CRYSTAL23                                     *
 *                      public : 1.0.1 - October 2022                          *
 *                       HTTP://WWW.CRYSTAL.UNITO.IT                           *
 *                                                                             *
 *                              MAIN AUTHORS                                   *
 *                                                                             *
 *  R. DOVESI(1,11), V.R. SAUNDERS(2), C. ROETTI(1,11), R. ORLANDO(1,11),      *
 *  C.M. ZICOVICH-WILSON(1,3), F. PASCALE(4), B. CIVALLERI(1,11),              *
 *  K. DOLL(5), N.M. HARRISON(6), I.J. BUSH(7), Ph. D'ARCO(8),                 *
 *  M. LLUNELL(9), M. CAUSA'(10), Y. NOEL(8), L. MASCHIO(1,11), A. ERBA(1,11)  *
 *  M. RE'RAT(14), S. CASASSA(1,11), B.G. SEARLE(2), J.K. DESMARAIS(1)         *
 *                                                                             *
 *        CONTRIBUTIONS TO THE CODE HAVE ALSO BEEN GIVEN BY                    *
 *                                                                             *
 *  M. FERRABONE(1,11), M. DE LA PIERRE(1,11), M. FERRERO(1,11),               *
 *  J. BAIMA(1,11), E. ALBANESE(1,11), M.F. PEINTINGER(12), R. BAST(13),       *
 *  B. KIRTMAN(15), V. LACIVITA(1,11), R. DEMICHELIS(1,16)                     *
 *  G. BRANDEBURG(17), S. SALUSTRO(1,11), G. SANSONE(1,11)                     *
 *  M.T. RUGGIERO(18), L.E. DAGA(1), L. DONA'(1), A. COSSARD(1)                *
 *                                                                             *
 * (1) THEORETICAL CHEMISTRY GROUP - UNIVERSITA' DI TORINO - TORINO (ITALY)    *
 * (2) SCIENTIFIC COMPUTING DEPARTMENT - STFC DARESBURY (UK)                   *
 * (3) UNIVERSIDAD AUTONOMA DEL ESTADO DE MORELOS - CUERNAVACA (MEXICO)        *
 * (4) UNIVERSITE' DE LORRAINE - NANCY (FRANCE)                                *
 * (5) UNIVERSITAET STUTTGART- STUTTGART (GERMANY)                             *
 * (6) IMPERIAL COLLEGE - LONDON (UK)                                          *
 * (7) SCIENTIFIC COMPUTING DEPARTMENT - STFC RAL (UK)                         *
 * (8) UPMC - SORBONNE UNIVERSITES - PARIS (FRANCE)                            *
 * (9) UNIVERSIDAD DE BARCELONA - BARCELONA (SPAIN)                            *
 *(10) UNIVERSITA' DI NAPOLI "FEDERICO II" - NAPOLI (ITALY)                    *
 *(11) NIS - NANOSTRUCTURED INTERFACES AND SURFACES - TORINO (ITALY)           *
 *(12) MPI FUER CHEMISCHE ENERGIEKONVERSION - MUELHEIM AN DER RUHR (GERMANY)   *
 *(13) UNIVERSITY OF TROMSO - TROMSO (NORWAY)                                  *
 *(14) UNIVERSITE' DE PAU ET DES PAYS DE L'ADOUR - PAU (FRANCE)                *
 *(15) UNIVERSITY OF CALIFORNIA SANTA BARBARA - SANTA BARBARA (USA)            *
 *(16) CURTIN UNIVERSITY - PERTH (AUSTRALIA)                                   *
 *(17) UNIVERSITY COLLEGE LONDON - LONDON (UK)                                 *
 *(18) UNIVERSITY OF VERMONT - BURLINGTON (USA)                                *
 *                                                                             *
 *******************************************************************************
 EEEEEEEEEE STARTING  DATE 19 02 2026 TIME 20:04:19.8
 cof-1_z34_L050_serr                                                             

 CRYSTAL CALCULATION
 (INPUT ACCORDING TO THE INTERNATIONAL TABLES FOR X-RAY CRYSTALLOGRAPHY)
 CRYSTAL FAMILY                       :  TRICLINIC   
 CRYSTAL CLASS  (GROTH - 1921)        :  TRICLINIC PEDIAL                     

 SPACE GROUP (NONCENTROSYMMETRIC)     :  P 1             

 LATTICE PARAMETERS  (ANGSTROMS AND DEGREES) - CONVENTIONAL CELL
        A           B           C        ALPHA        BETA       GAMMA
    15.02361    15.02392     6.80000    90.00032    89.99994   119.99596


 NUMBER OF IRREDUCIBLE ATOMS IN THE CONVENTIONAL CELL:   84

 INPUT COORDINATES

 ATOM AT. N.              COORDINATES
   1   5     6.136805400000E-01  2.273182200000E-01  2.507024600000E-01
   2   5     8.057969300000E-01  6.115900500000E-01  7.507024600000E-01
   3   5     7.727362000000E-01  3.863778800000E-01  2.507024700000E-01
   4   5     9.648525900000E-01  7.706497100000E-01  7.507024700000E-01
   5   5     6.136762700000E-01  3.863606700000E-01  2.492255300000E-01
   6   5     8.057926600000E-01  7.706325000000E-01  7.492255200000E-01
   7   5     2.272552500000E-01  6.136332200000E-01  2.507024600000E-01
   8   5     4.193716400000E-01  9.979050500000E-01  7.507024600000E-01
   9   5     3.863632200000E-01  6.136124500000E-01  2.507024600000E-01
  10   5     5.784796100000E-01  9.978842800000E-01  7.507024600000E-01
  11   5     3.863435000000E-01  7.727516500000E-01  2.492255300000E-01
  12   5     5.784598900000E-01  1.570234800000E-01  7.492255300000E-01
  13   1     9.030436200000E-01  3.089300500000E-01  2.476404700000E-01
  14   1     9.516001000000E-02  6.932018800000E-01  7.476404800000E-01
  15   1     9.663453000000E-02  6.910534400000E-01  2.471722500000E-01
  16   1     2.887509200000E-01  7.532527000000E-02  7.471722500000E-01
  17   1     9.029714200000E-01  5.940724300000E-01  2.471001800000E-01
  18   1     9.508781000000E-02  9.783442600000E-01  7.471001800000E-01
  19   1     9.673618000000E-02  4.056849400000E-01  2.471181600000E-01
  20   1     2.888525700000E-01  7.899567700000E-01  7.471181600000E-01
  21   1     6.910324000000E-01  9.700412000000E-02  2.523595500000E-01
  22   1     8.831487900000E-01  4.812759500000E-01  7.523595500000E-01
  23   1     3.089297200000E-01  9.034373100000E-01  2.528278100000E-01
  24   1     5.010461100000E-01  2.877091400000E-01  7.528278100000E-01
  25   1     4.058699900000E-01  9.704998000000E-02  2.528999100000E-01
  26   1     5.979863800000E-01  4.813218100000E-01  7.528999100000E-01
  27   1     5.943122100000E-01  9.033473200000E-01  2.528818200000E-01
  28   1     7.864286000000E-01  2.876191500000E-01  7.528818200000E-01
  29   1     6.910727400000E-01  5.940542100000E-01  2.476405000000E-01
  30   1     8.831891300000E-01  9.783260400000E-01  7.476405000000E-01
  31   1     3.089618300000E-01  4.056093300000E-01  2.471722200000E-01
  32   1     5.010782200000E-01  7.898811600000E-01  7.471722100000E-01
  33   1     4.058405700000E-01  3.088232500000E-01  2.471001300000E-01
  34   1     5.979569600000E-01  6.930950800000E-01  7.471001300000E-01
  35   1     5.942908800000E-01  6.909579300000E-01  2.471182100000E-01
  36   1     7.864072700000E-01  7.522976000000E-02  7.471182100000E-01
  37   6     8.918903100000E-01  4.459436900000E-01  2.491714900000E-01
  38   6     8.400670000000E-02  8.302155200000E-01  7.491714900000E-01
  39   6     9.464891100000E-01  3.927856300000E-01  2.477125300000E-01
  40   6     1.386055000000E-01  7.770574600000E-01  7.477125300000E-01
  41   6     5.338812000000E-02  6.071853000000E-01  2.475864900000E-01
  42   6     2.455045100000E-01  9.914571300000E-01  7.475864900000E-01
  43   6     9.464521100000E-01  5.536921900000E-01  2.479647300000E-01
  44   6     1.385685000000E-01  9.379640200000E-01  7.479647300000E-01
  45   6     5.342634000000E-02  4.462499700000E-01  2.469920800000E-01
  46   6     2.455427300000E-01  8.305218000000E-01  7.469920700000E-01
  47   6     1.080358900000E-01  5.540356300000E-01  2.479827300000E-01
  48   6     3.001522800000E-01  9.383074600000E-01  7.479827300000E-01
  49   6     5.540394200000E-01  1.081684600000E-01  2.508285600000E-01
  50   6     7.461558100000E-01  4.924402900000E-01  7.508285600000E-01
  51   6     6.071778500000E-01  5.355594000000E-02  2.522874800000E-01
  52   6     7.992942400000E-01  4.378277700000E-01  7.522874800000E-01
  53   6     3.927986700000E-01  9.466631600000E-01  2.524135600000E-01
  54   6     5.849150600000E-01  3.309349900000E-01  7.524135600000E-01
  55   6     4.462875800000E-01  5.360286000000E-02  2.520353400000E-01
  56   6     6.384039700000E-01  4.378746900000E-01  7.520353300000E-01
  57   6     5.537168500000E-01  9.466235600000E-01  2.530079300000E-01
  58   6     7.458332400000E-01  3.308953900000E-01  7.530079300000E-01
  59   6     4.459279100000E-01  8.919920600000E-01  2.520173100000E-01
  60   6     6.380443000000E-01  2.762638900000E-01  7.520173000000E-01
  61   6     5.540448700000E-01  4.458745500000E-01  2.491714900000E-01
  62   6     7.461612600000E-01  8.301463800000E-01  7.491714800000E-01
  63   6     6.072102200000E-01  5.536257800000E-01  2.477125600000E-01
  64   6     7.993266100000E-01  9.378976100000E-01  7.477125600000E-01
  65   6     3.928233700000E-01  4.461720300000E-01  2.475864700000E-01
  66   6     5.849397600000E-01  8.304438600000E-01  7.475864700000E-01
  67   6     4.462872600000E-01  3.926899900000E-01  2.479647000000E-01
  68   6     6.384036500000E-01  7.769618200000E-01  7.479647000000E-01
  69   6     5.537429600000E-01  6.070980000000E-01  2.469921100000E-01
  70   6     7.458593500000E-01  9.913698300000E-01  7.469921100000E-01
  71   6     4.459599800000E-01  5.539582300000E-01  2.479827300000E-01
  72   6     6.380763700000E-01  9.382300600000E-01  7.479827300000E-01
  73   8     5.607366800000E-01  2.803706300000E-01  2.496217700000E-01
  74   8     7.528530700000E-01  6.646424600000E-01  7.496217700000E-01
  75   8     7.196817000000E-01  2.803783300000E-01  2.527377600000E-01
  76   8     9.117980900000E-01  6.646501600000E-01  7.527377600000E-01
  77   8     7.196794200000E-01  4.393234600000E-01  2.480367700000E-01
  78   8     9.117958100000E-01  8.235952900000E-01  7.480367700000E-01
  79   8     2.803245100000E-01  7.196511100000E-01  2.496217900000E-01
  80   8     4.724409000000E-01  1.039229400000E-01  7.496217900000E-01
  81   8     2.803439700000E-01  5.606956100000E-01  2.527377600000E-01
  82   8     4.724603600000E-01  9.449674400000E-01  7.527377600000E-01
  83   8     4.392638400000E-01  7.196354200000E-01  2.480367600000E-01
  84   8     6.313802300000E-01  1.039072500000E-01  7.480367600000E-01

 *******************************************************************************

 << INFORMATION >>: FROM NOW ON, ALL COORDINATES REFER TO THE PRIMITIVE CELL

 *******************************************************************************

 LATTICE PARAMETERS  (ANGSTROMS AND DEGREES) - PRIMITIVE CELL
       A          B          C        ALPHA      BETA     GAMMA        VOLUME
   15.02361   15.02392    6.80000    90.00032  89.99994 119.99596   1329.274527

 COORDINATES OF THE EQUIVALENT ATOMS (FRACTIONAL UNITS)

 N. ATOM EQUIV AT. N.          X                  Y                  Z

   1   1   1    5 B    -3.86319460000E-01  2.27318220000E-01  2.50702460000E-01

   2   2   1    5 B    -1.94203070000E-01 -3.88409950000E-01 -2.49297540000E-01

   3   3   1    5 B    -2.27263800000E-01  3.86377880000E-01  2.50702470000E-01

   4   4   1    5 B    -3.51474100000E-02 -2.29350290000E-01 -2.49297530000E-01

   5   5   1    5 B    -3.86323730000E-01  3.86360670000E-01  2.49225530000E-01

   6   6   1    5 B    -1.94207340000E-01 -2.29367500000E-01 -2.50774480000E-01

   7   7   1    5 B     2.27255250000E-01 -3.86366780000E-01  2.50702460000E-01

   8   8   1    5 B     4.19371640000E-01 -2.09495000000E-03 -2.49297540000E-01

   9   9   1    5 B     3.86363220000E-01 -3.86387550000E-01  2.50702460000E-01

  10  10   1    5 B    -4.21520390000E-01 -2.11572000000E-03 -2.49297540000E-01

  11  11   1    5 B     3.86343500000E-01 -2.27248350000E-01  2.49225530000E-01

  12  12   1    5 B    -4.21540110000E-01  1.57023480000E-01 -2.50774470000E-01

  13  13   1    1 H    -9.69563800000E-02  3.08930050000E-01  2.47640470000E-01

  14  14   1    1 H     9.51600100000E-02 -3.06798120000E-01 -2.52359520000E-01

  15  15   1    1 H     9.66345300000E-02 -3.08946560000E-01  2.47172250000E-01

  16  16   1    1 H     2.88750920000E-01  7.53252700000E-02 -2.52827750000E-01

  17  17   1    1 H    -9.70285800000E-02 -4.05927570000E-01  2.47100180000E-01

  18  18   1    1 H     9.50878100000E-02 -2.16557400000E-02 -2.52899820000E-01

  19  19   1    1 H     9.67361800000E-02  4.05684940000E-01  2.47118160000E-01

  20  20   1    1 H     2.88852570000E-01 -2.10043230000E-01 -2.52881840000E-01

  21  21   1    1 H    -3.08967600000E-01  9.70041200000E-02  2.52359550000E-01

  22  22   1    1 H    -1.16851210000E-01  4.81275950000E-01 -2.47640450000E-01

  23  23   1    1 H     3.08929720000E-01 -9.65626900000E-02  2.52827810000E-01

  24  24   1    1 H    -4.98953890000E-01  2.87709140000E-01 -2.47172190000E-01

  25  25   1    1 H     4.05869990000E-01  9.70499800000E-02  2.52899910000E-01

  26  26   1    1 H    -4.02013620000E-01  4.81321810000E-01 -2.47100090000E-01

  27  27   1    1 H    -4.05687790000E-01 -9.66526800000E-02  2.52881820000E-01

  28  28   1    1 H    -2.13571400000E-01  2.87619150000E-01 -2.47118180000E-01

  29  29   1    1 H    -3.08927260000E-01 -4.05945790000E-01  2.47640500000E-01

  30  30   1    1 H    -1.16810870000E-01 -2.16739600000E-02 -2.52359500000E-01

  31  31   1    1 H     3.08961830000E-01  4.05609330000E-01  2.47172220000E-01

  32  32   1    1 H    -4.98921780000E-01 -2.10118840000E-01 -2.52827790000E-01

  33  33   1    1 H     4.05840570000E-01  3.08823250000E-01  2.47100130000E-01

  34  34   1    1 H    -4.02043040000E-01 -3.06904920000E-01 -2.52899870000E-01

  35  35   1    1 H    -4.05709120000E-01 -3.09042070000E-01  2.47118210000E-01

  36  36   1    1 H    -2.13592730000E-01  7.52297600000E-02 -2.52881790000E-01

  37  37   1    6 C    -1.08109690000E-01  4.45943690000E-01  2.49171490000E-01

  38  38   1    6 C     8.40067000000E-02 -1.69784480000E-01 -2.50828510000E-01

  39  39   1    6 C    -5.35108900000E-02  3.92785630000E-01  2.47712530000E-01

  40  40   1    6 C     1.38605500000E-01 -2.22942540000E-01 -2.52287470000E-01

  41  41   1    6 C     5.33881200000E-02 -3.92814700000E-01  2.47586490000E-01

  42  42   1    6 C     2.45504510000E-01 -8.54287000000E-03 -2.52413510000E-01

  43  43   1    6 C    -5.35478900000E-02 -4.46307810000E-01  2.47964730000E-01

  44  44   1    6 C     1.38568500000E-01 -6.20359800000E-02 -2.52035270000E-01

  45  45   1    6 C     5.34263400000E-02  4.46249970000E-01  2.46992080000E-01

  46  46   1    6 C     2.45542730000E-01 -1.69478200000E-01 -2.53007930000E-01

  47  47   1    6 C     1.08035890000E-01 -4.45964370000E-01  2.47982730000E-01

  48  48   1    6 C     3.00152280000E-01 -6.16925400000E-02 -2.52017270000E-01

  49  49   1    6 C    -4.45960580000E-01  1.08168460000E-01  2.50828560000E-01

  50  50   1    6 C    -2.53844190000E-01  4.92440290000E-01 -2.49171440000E-01

  51  51   1    6 C    -3.92822150000E-01  5.35559400000E-02  2.52287480000E-01

  52  52   1    6 C    -2.00705760000E-01  4.37827770000E-01 -2.47712520000E-01

  53  53   1    6 C     3.92798670000E-01 -5.33368400000E-02  2.52413560000E-01

  54  54   1    6 C    -4.15084940000E-01  3.30934990000E-01 -2.47586440000E-01

  55  55   1    6 C     4.46287580000E-01  5.36028600000E-02  2.52035340000E-01

  56  56   1    6 C    -3.61596030000E-01  4.37874690000E-01 -2.47964670000E-01

  57  57   1    6 C    -4.46283150000E-01 -5.33764400000E-02  2.53007930000E-01

  58  58   1    6 C    -2.54166760000E-01  3.30895390000E-01 -2.46992070000E-01

  59  59   1    6 C     4.45927910000E-01 -1.08007940000E-01  2.52017310000E-01

  60  60   1    6 C    -3.61955700000E-01  2.76263890000E-01 -2.47982700000E-01

  61  61   1    6 C    -4.45955130000E-01  4.45874550000E-01  2.49171490000E-01

  62  62   1    6 C    -2.53838740000E-01 -1.69853620000E-01 -2.50828520000E-01

  63  63   1    6 C    -3.92789780000E-01 -4.46374220000E-01  2.47712560000E-01

  64  64   1    6 C    -2.00673390000E-01 -6.21023900000E-02 -2.52287440000E-01

  65  65   1    6 C     3.92823370000E-01  4.46172030000E-01  2.47586470000E-01

  66  66   1    6 C    -4.15060240000E-01 -1.69556140000E-01 -2.52413530000E-01

  67  67   1    6 C     4.46287260000E-01  3.92689990000E-01  2.47964700000E-01

  68  68   1    6 C    -3.61596350000E-01 -2.23038180000E-01 -2.52035300000E-01

  69  69   1    6 C    -4.46257040000E-01 -3.92902000000E-01  2.46992110000E-01

  70  70   1    6 C    -2.54140650000E-01 -8.63017000000E-03 -2.53007890000E-01

  71  71   1    6 C     4.45959980000E-01 -4.46041770000E-01  2.47982730000E-01

  72  72   1    6 C    -3.61923630000E-01 -6.17699400000E-02 -2.52017270000E-01

  73  73   1    8 O    -4.39263320000E-01  2.80370630000E-01  2.49621770000E-01

  74  74   1    8 O    -2.47146930000E-01 -3.35357540000E-01 -2.50378230000E-01

  75  75   1    8 O    -2.80318300000E-01  2.80378330000E-01  2.52737760000E-01

  76  76   1    8 O    -8.82019100000E-02 -3.35349840000E-01 -2.47262240000E-01

  77  77   1    8 O    -2.80320580000E-01  4.39323460000E-01  2.48036770000E-01

  78  78   1    8 O    -8.82041900000E-02 -1.76404710000E-01 -2.51963230000E-01

  79  79   1    8 O     2.80324510000E-01 -2.80348890000E-01  2.49621790000E-01

  80  80   1    8 O     4.72440900000E-01  1.03922940000E-01 -2.50378210000E-01

  81  81   1    8 O     2.80343970000E-01 -4.39304390000E-01  2.52737760000E-01

  82  82   1    8 O     4.72460360000E-01 -5.50325600000E-02 -2.47262240000E-01

  83  83   1    8 O     4.39263840000E-01 -2.80364580000E-01  2.48036760000E-01

  84  84   1    8 O    -3.68619770000E-01  1.03907250000E-01 -2.51963240000E-01

 NUMBER OF SYMMETRY OPERATORS         :    1
 *******************************************************************************
 * GEOMETRY EDITING - INPUT COORDINATES ARE GIVEN IN ANGSTROM         
 *******************************************************************************

 GCALCO - MAX INDICES DIRECT LATTICE VECTOR    11    11    22
 NO.OF VECTORS CREATED 6999 STARS 3500 RMAX   247.51041 BOHR

 GEOMETRY FOR WAVE FUNCTION - DIMENSIONALITY OF THE SYSTEM    3
 (NON PERIODIC DIRECTION: LATTICE PARAMETER FORMALLY SET TO 500)
 *******************************************************************************
 LATTICE PARAMETERS (ANGSTROMS AND DEGREES) - BOHR = 0.5291772083 ANGSTROM
 PRIMITIVE CELL - CENTRING CODE 1/0 VOLUME=  1329.274527 - DENSITY  0.975 g/cm^3
         A              B              C           ALPHA      BETA       GAMMA 
    15.02361100    15.02391600     6.80000000    90.000323  89.999944 119.995964
 *******************************************************************************
 ATOMS IN THE ASYMMETRIC UNIT   84 - ATOMS IN THE UNIT CELL:   84
     ATOM                 X/A                 Y/B                 Z/C    
 *******************************************************************************
      1 T   5 B    -3.863194600000E-01  2.273182200000E-01  2.507024600000E-01
      2 T   5 B    -1.942030700000E-01 -3.884099500000E-01 -2.492975400000E-01
      3 T   5 B    -2.272638000000E-01  3.863778800000E-01  2.507024700000E-01
      4 T   5 B    -3.514741000000E-02 -2.293502900000E-01 -2.492975300000E-01
      5 T   5 B    -3.863237300000E-01  3.863606700000E-01  2.492255300000E-01
      6 T   5 B    -1.942073400000E-01 -2.293675000000E-01 -2.507744800000E-01
      7 T   5 B     2.272552500000E-01 -3.863667800000E-01  2.507024600000E-01
      8 T   5 B     4.193716400000E-01 -2.094950000000E-03 -2.492975400000E-01
      9 T   5 B     3.863632200000E-01 -3.863875500000E-01  2.507024600000E-01
     10 T   5 B    -4.215203900000E-01 -2.115720000000E-03 -2.492975400000E-01
     11 T   5 B     3.863435000000E-01 -2.272483500000E-01  2.492255300000E-01
     12 T   5 B    -4.215401100000E-01  1.570234800000E-01 -2.507744700000E-01
     13 T   1 H    -9.695638000000E-02  3.089300500000E-01  2.476404700000E-01
     14 T   1 H     9.516001000000E-02 -3.067981200000E-01 -2.523595200000E-01
     15 T   1 H     9.663453000000E-02 -3.089465600000E-01  2.471722500000E-01
     16 T   1 H     2.887509200000E-01  7.532527000000E-02 -2.528277500000E-01
     17 T   1 H    -9.702858000000E-02 -4.059275700000E-01  2.471001800000E-01
     18 T   1 H     9.508781000000E-02 -2.165574000000E-02 -2.528998200000E-01
     19 T   1 H     9.673618000000E-02  4.056849400000E-01  2.471181600000E-01
     20 T   1 H     2.888525700000E-01 -2.100432300000E-01 -2.528818400000E-01
     21 T   1 H    -3.089676000000E-01  9.700412000000E-02  2.523595500000E-01
     22 T   1 H    -1.168512100000E-01  4.812759500000E-01 -2.476404500000E-01
     23 T   1 H     3.089297200000E-01 -9.656269000000E-02  2.528278100000E-01
     24 T   1 H    -4.989538900000E-01  2.877091400000E-01 -2.471721900000E-01
     25 T   1 H     4.058699900000E-01  9.704998000000E-02  2.528999100000E-01
     26 T   1 H    -4.020136200000E-01  4.813218100000E-01 -2.471000900000E-01
     27 T   1 H    -4.056877900000E-01 -9.665268000000E-02  2.528818200000E-01
     28 T   1 H    -2.135714000000E-01  2.876191500000E-01 -2.471181800000E-01
     29 T   1 H    -3.089272600000E-01 -4.059457900000E-01  2.476405000000E-01
     30 T   1 H    -1.168108700000E-01 -2.167396000000E-02 -2.523595000000E-01
     31 T   1 H     3.089618300000E-01  4.056093300000E-01  2.471722200000E-01
     32 T   1 H    -4.989217800000E-01 -2.101188400000E-01 -2.528277900000E-01
     33 T   1 H     4.058405700000E-01  3.088232500000E-01  2.471001300000E-01
     34 T   1 H    -4.020430400000E-01 -3.069049200000E-01 -2.528998700000E-01
     35 T   1 H    -4.057091200000E-01 -3.090420700000E-01  2.471182100000E-01
     36 T   1 H    -2.135927300000E-01  7.522976000000E-02 -2.528817900000E-01
     37 T   6 C    -1.081096900000E-01  4.459436900000E-01  2.491714900000E-01
     38 T   6 C     8.400670000000E-02 -1.697844800000E-01 -2.508285100000E-01
     39 T   6 C    -5.351089000000E-02  3.927856300000E-01  2.477125300000E-01
     40 T   6 C     1.386055000000E-01 -2.229425400000E-01 -2.522874700000E-01
     41 T   6 C     5.338812000000E-02 -3.928147000000E-01  2.475864900000E-01
     42 T   6 C     2.455045100000E-01 -8.542870000000E-03 -2.524135100000E-01
     43 T   6 C    -5.354789000000E-02 -4.463078100000E-01  2.479647300000E-01
     44 T   6 C     1.385685000000E-01 -6.203598000000E-02 -2.520352700000E-01
     45 T   6 C     5.342634000000E-02  4.462499700000E-01  2.469920800000E-01
     46 T   6 C     2.455427300000E-01 -1.694782000000E-01 -2.530079300000E-01
     47 T   6 C     1.080358900000E-01 -4.459643700000E-01  2.479827300000E-01
     48 T   6 C     3.001522800000E-01 -6.169254000000E-02 -2.520172700000E-01
     49 T   6 C    -4.459605800000E-01  1.081684600000E-01  2.508285600000E-01
     50 T   6 C    -2.538441900000E-01  4.924402900000E-01 -2.491714400000E-01
     51 T   6 C    -3.928221500000E-01  5.355594000000E-02  2.522874800000E-01
     52 T   6 C    -2.007057600000E-01  4.378277700000E-01 -2.477125200000E-01
     53 T   6 C     3.927986700000E-01 -5.333684000000E-02  2.524135600000E-01
     54 T   6 C    -4.150849400000E-01  3.309349900000E-01 -2.475864400000E-01
     55 T   6 C     4.462875800000E-01  5.360286000000E-02  2.520353400000E-01
     56 T   6 C    -3.615960300000E-01  4.378746900000E-01 -2.479646700000E-01
     57 T   6 C    -4.462831500000E-01 -5.337644000000E-02  2.530079300000E-01
     58 T   6 C    -2.541667600000E-01  3.308953900000E-01 -2.469920700000E-01
     59 T   6 C     4.459279100000E-01 -1.080079400000E-01  2.520173100000E-01
     60 T   6 C    -3.619557000000E-01  2.762638900000E-01 -2.479827000000E-01
     61 T   6 C    -4.459551300000E-01  4.458745500000E-01  2.491714900000E-01
     62 T   6 C    -2.538387400000E-01 -1.698536200000E-01 -2.508285200000E-01
     63 T   6 C    -3.927897800000E-01 -4.463742200000E-01  2.477125600000E-01
     64 T   6 C    -2.006733900000E-01 -6.210239000000E-02 -2.522874400000E-01
     65 T   6 C     3.928233700000E-01  4.461720300000E-01  2.475864700000E-01
     66 T   6 C    -4.150602400000E-01 -1.695561400000E-01 -2.524135300000E-01
     67 T   6 C     4.462872600000E-01  3.926899900000E-01  2.479647000000E-01
     68 T   6 C    -3.615963500000E-01 -2.230381800000E-01 -2.520353000000E-01
     69 T   6 C    -4.462570400000E-01 -3.929020000000E-01  2.469921100000E-01
     70 T   6 C    -2.541406500000E-01 -8.630170000000E-03 -2.530078900000E-01
     71 T   6 C     4.459599800000E-01 -4.460417700000E-01  2.479827300000E-01
     72 T   6 C    -3.619236300000E-01 -6.176994000000E-02 -2.520172700000E-01
     73 T   8 O    -4.392633200000E-01  2.803706300000E-01  2.496217700000E-01
     74 T   8 O    -2.471469300000E-01 -3.353575400000E-01 -2.503782300000E-01
     75 T   8 O    -2.803183000000E-01  2.803783300000E-01  2.527377600000E-01
     76 T   8 O    -8.820191000000E-02 -3.353498400000E-01 -2.472622400000E-01
     77 T   8 O    -2.803205800000E-01  4.393234600000E-01  2.480367700000E-01
     78 T   8 O    -8.820419000000E-02 -1.764047100000E-01 -2.519632300000E-01
     79 T   8 O     2.803245100000E-01 -2.803488900000E-01  2.496217900000E-01
     80 T   8 O     4.724409000000E-01  1.039229400000E-01 -2.503782100000E-01
     81 T   8 O     2.803439700000E-01 -4.393043900000E-01  2.527377600000E-01
     82 T   8 O     4.724603600000E-01 -5.503256000000E-02 -2.472622400000E-01
     83 T   8 O     4.392638400000E-01 -2.803645800000E-01  2.480367600000E-01
     84 T   8 O    -3.686197700000E-01  1.039072500000E-01 -2.519632400000E-01

 T = ATOM BELONGING TO THE ASYMMETRIC UNIT

 ****    1 SYMMOPS - TRANSLATORS IN FRACTIONAL UNITS
 **** MATRICES AND TRANSLATORS IN THE CRYSTALLOGRAPHIC REFERENCE FRAME
   V INV                    ROTATION MATRICES                   TRANSLATORS
   1   1  1.00  0.00  0.00  0.00  1.00  0.00  0.00 -0.00  1.00  0.00  0.00  0.00

 DIRECT LATTICE VECTORS CARTESIAN COMPONENTS (ANGSTROM)
          X                    Y                    Z
   0.130113578931E+02  -0.751088897922E+01   0.000000000000E+00
   0.000000000000E+00   0.150239160000E+02   0.000000000000E+00
  -0.144547080487E-04  -0.383344116893E-04   0.679999999988E+01


 CARTESIAN COORDINATES - PRIMITIVE CELL
 *******************************************************************************
 *      ATOM          X(ANGSTROM)         Y(ANGSTROM)         Z(ANGSTROM)
 *******************************************************************************
    1     5 B    -5.026544378943E+00  6.316802806589E+00  1.704776727969E+00
    2     5 B    -2.526842044177E+00 -4.376791207497E+00 -1.695223271969E+00
    3     5 B    -2.957014261767E+00  7.511852373641E+00  1.704776795969E+00
    4     5 B    -4.573119270010E-01 -3.181741640444E+00 -1.695223203969E+00
    5     5 B    -5.026599916093E+00 -6.317640656064E+00  1.694733603969E+00
    6     5 B    -2.526897581327E+00 -1.987318670149E+00 -1.705266463969E+00
    7     5 B     2.956895766995E+00 -7.511640611136E+00  1.704776727969E+00
    8     5 B     5.456598101761E+00 -3.181318625222E+00 -1.695223271969E+00
    9     5 B     5.027106508303E+00  6.316921043750E+00  1.704776727969E+00
   10     5 B    -5.484549049988E+00  3.134216008881E+00 -1.695223271969E+00
   11     5 B     5.026849945674E+00 -6.315952811795E+00  1.694733603969E+00
   12     5 B     7.526552280440E+00 -1.985630825880E+00 -1.705266395969E+00
   13     1 H    -1.261537739766E+00  5.369558233931E+00  1.683955195969E+00
   14     1 H     1.238164595000E+00 -5.324035780155E+00 -1.716044735969E+00
   15     1 H     1.257342881855E+00 -5.367407867521E+00  1.680771299969E+00
   16     1 H     3.757045216621E+00 -1.037085881606E+00 -1.719228699969E+00
   17     1 H    -1.262477151996E+00 -5.369860294013E+00  1.680281223970E+00
   18     1 H     1.237225182770E+00 -1.039538308099E+00 -1.719718775969E+00
   19     1 H     1.258665487166E+00  5.368392279642E+00  1.680403487970E+00
   20     1 H     3.758367821932E+00 -5.325201734443E+00 -1.719596511969E+00
   21     1 H    -4.020091668742E+00  3.777993418254E+00  1.716044939969E+00
   22     1 H    -1.520389333976E+00 -6.915600595832E+00 -1.683955059969E+00
   23     1 H     4.019591496170E+00 -3.771096264600E+00  1.719229107969E+00
   24     1 H     6.519293830936E+00  5.592257213145E-01 -1.680770891969E+00
   25     1 H     5.280916042347E+00 -1.590383382333E+00  1.719719387969E+00
   26     1 H    -5.230739515944E+00 -4.773088417203E+00 -1.680280611970E+00
   27     1 H    -5.278552683866E+00  1.594964511343E+00  1.719596375969E+00
   28     1 H    -2.778850349100E+00  5.925286497257E+00 -1.680403623970E+00
   29     1 H    -4.019566722352E+00 -3.778586590153E+00  1.683955399969E+00
   30     1 H    -1.519864387586E+00  5.517353957613E-01 -1.716044599969E+00
   31     1 H     4.020009372621E+00  3.773253023589E+00  1.680771095969E+00
   32     1 H    -6.491646185669E+00  5.905479887202E-01 -1.719228971969E+00
   33     1 H     5.280533332032E+00  1.591501629877E+00  1.680280883970E+00
   34     1 H    -5.231122226259E+00 -1.591203404992E+00 -1.719719115969E+00
   35     1 H    -5.278830132819E+00 -1.595795415102E+00  1.680403827970E+00
   36     1 H    -2.779127798053E+00  2.734526570813E+00 -1.719596171969E+00
   37     6 C    -1.406657469999E+00  7.511810866615E+00  1.694366131969E+00
   38     6 C     1.093044864768E+00 -3.181783147471E+00 -1.705633867969E+00
   39     6 C    -6.962529215783E-01  6.303083169182E+00  1.684445203969E+00
   40     6 C     1.803449413188E+00 -4.390510844904E+00 -1.715554795969E+00
   41     6 C     6.946483577670E-01 -6.302616789577E+00  1.683588131969E+00
   42     6 C     3.194350692533E+00 -1.972294803662E+00 -1.716411867969E+00
   43     6 C    -6.967343454658E-01 -6.303108296305E+00  1.686160163969E+00
   44     6 C     1.802967989300E+00 -1.972786310390E+00 -1.713839835969E+00
   45     6 C     6.951456604577E-01  6.303133287681E+00  1.679546143970E+00
   46     6 C     3.194847995224E+00 -4.390460726405E+00 -1.720453923969E+00
   47     6 C     1.405690045567E+00 -7.511586315706E+00  1.686282563969E+00
   48     6 C     3.905392380333E+00 -3.181264329792E+00 -1.713717435969E+00
   49     6 C     7.208801554828E+00 -2.536224332205E+00  1.705634207969E+00
   50     6 C    -3.302854003463E+00 -5.718929367075E+00 -1.694365791969E+00
   51     6 C    -5.111153228712E+00  3.755053829796E+00  1.715554863969E+00
   52     6 C    -2.611450893946E+00 -6.938540184290E+00 -1.684445135969E+00
   53     6 C     5.110840426722E+00 -3.751605081545E+00  1.716412207969E+00
   54     6 C     7.610542761488E+00  5.787169043696E-01 -1.683587791969E+00
   55     6 C     5.806803783509E+00 -2.546701261810E+00  1.713840311969E+00
   56     6 C    -4.704851774782E+00 -5.729406296679E+00 -1.686159755969E+00
   57     6 C    -5.806753443446E+00  2.550050343096E+00  1.720453923969E+00
   58     6 C    -3.307051108680E+00  6.880372329010E+00 -1.679546075970E+00
   59     6 C     5.802123988676E+00 -4.972026903572E+00  1.713717707969E+00
   60     6 C     8.301826323442E+00 -6.417049176577E-01 -1.686282359969E+00
   61     6 C     7.208872490681E+00  2.537402725821E+00  1.694366131969E+00
   62     6 C    -3.302783067610E+00 -6.453023090480E-01 -1.705633935969E+00
   63     6 C    -5.110731984928E+00 -3.756097852010E+00  1.684445407969E+00
   64     6 C    -2.611029650162E+00  5.742241339044E-01 -1.715554591969E+00
   65     6 C     5.111161877036E+00  3.752788888676E+00  1.683587995969E+00
   66     6 C    -5.400493681254E+00  5.700838538069E-01 -1.716412003969E+00
   67     6 C     5.806799678714E+00  2.547717855521E+00  1.686159959969E+00
   68     6 C    -4.704855879576E+00 -6.349871793480E-01 -1.713840039969E+00
   69     6 C    -5.806413629935E+00 -2.551149028895E+00  1.679546347970E+00
   70     6 C    -3.306711295169E+00  1.779172957019E+00 -1.720453651969E+00
   71     6 C     5.802541321242E+00  4.973056509803E+00  1.686282563969E+00
   72     6 C    -4.709114237048E+00  1.790351474934E+00 -1.713717435969E+00
   73     8 O     7.295942019035E+00  6.242748289573E-04  1.697428035969E+00
   74     8 O    -3.215713539256E+00 -3.182080760040E+00 -1.702571963969E+00
   75     8 O    -3.647325378524E+00  6.317810419730E+00  1.718616767969E+00
   76     8 O    -1.147623043758E+00 -4.375783594356E+00 -1.681383231969E+00
   77     8 O    -3.647354976468E+00 -6.318109993505E+00  1.686650035969E+00
   78     8 O    -1.147652641702E+00 -1.987788007590E+00 -1.713349963969E+00
   79     8 O     3.647398917596E+00 -6.317434015921E+00  1.697428171969E+00
   80     8 O     6.147101252362E+00 -1.987112030007E+00 -1.702571827969E+00
   81     8 O     3.647652073580E+00  6.318201622993E+00  1.718616767969E+00
   82     8 O     6.147354408346E+00 -4.375392391093E+00 -1.681383231969E+00
   83     8 O    -7.295942446637E+00 -5.563632463949E-04  1.686649967969E+00
   84     8 O    -4.796240111871E+00  4.329765622668E+00 -1.713350031969E+00

 *******************************************************************************
 STARTING BASIS SET HANDLING 
 *******************************************************************************

 Loading internal basis set: SOLDEF2MSVP         

 Please cite in your publication:
 L. Dona', J. G. Brandenburg and B. Civalleri, J. Chem. Phys., 151, 121101 (2019
 )                                                                              
                                                                                
                    

 *******************************************************************************
 LOCAL ATOMIC FUNCTIONS BASIS SET
 *******************************************************************************
   ATOM   X(AU)   Y(AU)   Z(AU)  N. TYPE  EXPONENT  S COEF   P COEF   D/F/G COEF
 *******************************************************************************
   1 B   -9.499  11.937   3.222
                                  1 S  
                                         2.410E+03 1.755E-03 0.000E+00 0.000E+00
                                         3.619E+02 1.344E-02 0.000E+00 0.000E+00
                                         8.231E+01 6.637E-02 0.000E+00 0.000E+00
                                         2.311E+01 2.303E-01 0.000E+00 0.000E+00
                                         7.252E+00 5.150E-01 0.000E+00 0.000E+00
                                  2 S  
                                         2.367E+00 1.000E+00 0.000E+00 0.000E+00
                                  3 S  
                                         5.533E-01 1.000E+00 0.000E+00 0.000E+00
                                  4 S  
                                         1.716E-01 1.000E+00 0.000E+00 0.000E+00
                           5-     7 P  
                                         6.002E+00 0.000E+00-3.555E-02 0.000E+00
                                         1.240E+00 0.000E+00-1.983E-01 0.000E+00
                                         3.367E-01 0.000E+00-5.048E-01 0.000E+00
                           8-    10 P  
                                         1.256E-01 0.000E+00 1.000E+00 0.000E+00
                          11-    15 D  
                                         8.880E-01 0.000E+00 0.000E+00 1.000E+00
   2 B   -4.775  -8.271  -3.204
   3 B   -5.588  14.195   3.222
   4 B   -0.864  -6.013  -3.204
   5 B   -9.499 -11.939   3.203
   6 B   -4.775  -3.755  -3.222
   7 B    5.588 -14.195   3.222
   8 B   10.311  -6.012  -3.204
   9 B    9.500  11.937   3.222
  10 B  -10.364   5.923  -3.204
  11 B    9.499 -11.935   3.203
  12 B   14.223  -3.752  -3.222
  13 H   -2.384  10.147   3.182
                                181 S  
                                         1.874E+01 1.968E-02 0.000E+00 0.000E+00
                                         2.826E+00 1.380E-01 0.000E+00 0.000E+00
                                         6.401E-01 4.783E-01 0.000E+00 0.000E+00
                                182 S  
                                         1.756E-01 1.000E+00 0.000E+00 0.000E+00
  14 H    2.340 -10.061  -3.243
  15 H    2.376 -10.143   3.176
  16 H    7.100  -1.960  -3.249
  17 H   -2.386 -10.148   3.175
  18 H    2.338  -1.964  -3.250
  19 H    2.379  10.145   3.176
  20 H    7.102 -10.063  -3.250
  21 H   -7.597   7.139   3.243
  22 H   -2.873 -13.069  -3.182
  23 H    7.596  -7.126   3.249
  24 H   12.320   1.057  -3.176
  25 H    9.979  -3.005   3.250
  26 H   -9.885  -9.020  -3.175
  27 H   -9.975   3.014   3.250
  28 H   -5.251  11.197  -3.176
  29 H   -7.596  -7.140   3.182
  30 H   -2.872   1.043  -3.243
  31 H    7.597   7.130   3.176
  32 H  -12.267   1.116  -3.249
  33 H    9.979   3.008   3.175
  34 H   -9.885  -3.007  -3.250
  35 H   -9.976  -3.016   3.176
  36 H   -5.252   5.168  -3.250
  37 C   -2.658  14.195   3.202
                                229 S  
                                         3.624E+03 1.634E-03 0.000E+00 0.000E+00
                                         5.440E+02 1.252E-02 0.000E+00 0.000E+00
                                         1.237E+02 6.211E-02 0.000E+00 0.000E+00
                                         3.476E+01 2.182E-01 0.000E+00 0.000E+00
                                         1.093E+01 4.980E-01 0.000E+00 0.000E+00
                                230 S  
                                         3.574E+00 1.000E+00 0.000E+00 0.000E+00
                                231 S  
                                         7.742E-01 1.000E+00 0.000E+00 0.000E+00
                                232 S  
                                         2.330E-01 1.000E+00 0.000E+00 0.000E+00
                         233-   235 P  
                                         9.443E+00 0.000E+00 3.790E-02 0.000E+00
                                         2.002E+00 0.000E+00 2.082E-01 0.000E+00
                                         5.463E-01 0.000E+00 5.047E-01 0.000E+00
                         236-   238 P  
                                         1.820E-01 0.000E+00 1.000E+00 0.000E+00
                         239-   243 D  
                                         8.880E-01 0.000E+00 0.000E+00 1.000E+00
  38 C    2.066  -6.013  -3.223
  39 C   -1.316  11.911   3.183
  40 C    3.408  -8.297  -3.242
  41 C    1.313 -11.910   3.182
  42 C    6.036  -3.727  -3.244
  43 C   -1.317 -11.911   3.186
  44 C    3.407  -3.728  -3.239
  45 C    1.314  11.911   3.174
  46 C    6.037  -8.297  -3.251
  47 C    2.656 -14.195   3.187
  48 C    7.380  -6.012  -3.238
  49 C   13.623  -4.793   3.223
  50 C   -6.241 -10.807  -3.202
  51 C   -9.659   7.096   3.242
  52 C   -4.935 -13.112  -3.183
  53 C    9.658  -7.090   3.244
  54 C   14.382   1.094  -3.182
  55 C   10.973  -4.813   3.239
  56 C   -8.891 -10.827  -3.186
  57 C  -10.973   4.819   3.251
  58 C   -6.249  13.002  -3.174
  59 C   10.964  -9.396   3.238
  60 C   15.688  -1.213  -3.187
  61 C   13.623   4.795   3.202
  62 C   -6.241  -1.219  -3.223
  63 C   -9.658  -7.098   3.183
  64 C   -4.934   1.085  -3.242
  65 C    9.659   7.092   3.182
  66 C  -10.205   1.077  -3.244
  67 C   10.973   4.814   3.186
  68 C   -8.891  -1.200  -3.239
  69 C  -10.973  -4.821   3.174
  70 C   -6.249   3.362  -3.251
  71 C   10.965   9.398   3.187
  72 C   -8.899   3.383  -3.238
  73 O   13.787   0.001   3.208
                                769 S  
                                         6.773E+03 1.727E-03 0.000E+00 0.000E+00
                                         1.017E+03 1.325E-02 0.000E+00 0.000E+00
                                         2.313E+02 6.603E-02 0.000E+00 0.000E+00
                                         6.501E+01 2.353E-01 0.000E+00 0.000E+00
                                         2.050E+01 5.498E-01 0.000E+00 0.000E+00
                                770 S  
                                         6.716E+00 1.000E+00 0.000E+00 0.000E+00
                                771 S  
                                         1.147E+00 1.000E+00 0.000E+00 0.000E+00
                                772 S  
                                         3.342E-01 1.000E+00 0.000E+00 0.000E+00
                         773-   775 P  
                                         1.769E+01 0.000E+00 4.359E-02 0.000E+00
                                         3.854E+00 0.000E+00 2.318E-01 0.000E+00
                                         1.047E+00 0.000E+00 5.146E-01 0.000E+00
                         776-   778 P  
                                         2.759E-01 0.000E+00 1.000E+00 0.000E+00
                         779-   783 D  
                                         8.000E-01 0.000E+00 0.000E+00 1.000E+00
  74 O   -6.077  -6.013  -3.217
  75 O   -6.892  11.939   3.248
  76 O   -2.169  -8.269  -3.177
  77 O   -6.893 -11.939   3.187
  78 O   -2.169  -3.756  -3.238
  79 O    6.893 -11.938   3.208
  80 O   11.616  -3.755  -3.217
  81 O    6.893  11.940   3.248
  82 O   11.617  -8.268  -3.177
  83 O  -13.787  -0.001   3.187
  84 O   -9.064   8.182  -3.238

 *******************************************************************************
 FINISHED BASIS SET HANDLING 
 *******************************************************************************

 INFORMATION **** SET_MPP **** PCRYSTAL CALCULATION
 INFORMATION **** READM2 **** NEW DEFAULT: FOCK/KS MATRIX MIXING SET TO 30 %
 INFORMATION **** READM2 **** NEW DEFAULT: FULL DIRECT SCF MODE
 INFORMATION **** READM2 **** NEW DEFAULT: COULOMB BIPOLAR BUFFER SET TO 32 Mb
 INFORMATION **** READM2 **** NEW DEFAULT: EXCHANGE BIPOLAR BUFFER SET TO 32 Mb

 *******************************************************************************
 NEW DEFAULT: DFT INTEGRATION GRID INCREASED TO XLGRID
 NEW DEFAULT: DIIS ACCELERATOR ACTIVE
 USE KEYWORD NODIIS TO TURN IT OFF
 *******************************************************************************

 WARNING **** RDDFTP **** HSEsol-HJS ACTIVE
 RANGE SEPARATION - OMEGA:   0.110000000000000     
 WARNING **** RDDFTP **** HSEsol-3c has to be combined with sol-def2-mSVP basis set
 *******************************************************************************
 N. OF ATOMS PER CELL        84  COULOMB OVERLAP TOL         (T1) 10**   -6
 NUMBER OF SHELLS           468  COULOMB PENETRATION TOL     (T2) 10**   -6
 NUMBER OF AO               948  EXCHANGE OVERLAP TOL        (T3) 10**   -6
 N. OF ELECTRONS PER CELL   396  EXCHANGE PSEUDO OVP (F(G))  (T4) 10**   -6
 CORE ELECTRONS PER CELL    120  EXCHANGE PSEUDO OVP (P(G))  (T5) 10**  -12
 N. OF SYMMETRY OPERATORS     1  POLE ORDER IN MONO ZONE                  4
 *******************************************************************************
 TYPE OF CALCULATION :  RESTRICTED CLOSED SHELL
 KOHN-SHAM HAMILTONIAN

 (EXCHANGE)[CORRELATION] FUNCTIONAL:(HSEsol GGA)[PBEsol]

 RANGE-SEPARATED HYBRID FUNCTIONAL 
 OMEGA (SHORT-RANGE)[LONG-RANGE]:(    0.1100)[    0.0000]

 HYBRID EXCHANGE - PERCENTAGE OF FOCK EXCHANGE    25.0000

 CAPPA:IS1  2;IS2  2;IS3  8; K PTS MONK NET  20; SYMMOPS:K SPACE   2;G SPACE   1

 *******************************************************************************
 MAX NUMBER OF SCF CYCLES      50  CONVERGENCE ON DELTAP        10**-16
 WEIGHT OF F(I) IN F(I+1)      30% CONVERGENCE ON ENERGY        10**- 6
 SHRINK. FACT.(MONKH.)    2  2  8  NUMBER OF K POINTS IN THE IBZ     20
 SHRINKING FACTOR(GILAT NET)    8  NUMBER OF K POINTS(GILAT NET)   1028
 *******************************************************************************
 *** K POINTS COORDINATES (OBLIQUE COORDINATES IN UNITS OF IS =  2)
   1-R(  0  0  0)   2-R(  1  0  0)   3-R(  0  1  0)   4-R(  1  1  0)
   5-C(  0  0  1)   6-C(  1  0  1)   7-C(  0  1  1)   8-C(  1  1  1)
   9-C(  0  0  2)  10-C(  1  0  2)  11-C(  0  1  2)  12-C(  1  1  2)
  13-C(  0  0  3)  14-C(  1  0  3)  15-C(  0  1  3)  16-C(  1  1  3)
  17-R(  0  0  4)  18-R(  1  0  4)  19-R(  0  1  4)  20-R(  1  1  4)

 DIRECT LATTICE VECTORS COMPON. (A.U.)     RECIP. LATTICE VECTORS COMPON. (A.U.) 
        X            Y            Z              X            Y            Z
   24.5879030  -14.1935232    0.0000000      0.2555397    0.0000000    0.0000005
    0.0000000   28.3910867    0.0000000      0.1277517    0.2213084    0.0000015
   -0.0000273   -0.0000724   12.8501377      0.0000000    0.0000000    0.4889586

 DISK SPACE FOR EIGENVECTORS (FTN 10)    28758528 REALS

 SYMMETRY ADAPTION OF THE BLOCH FUNCTIONS DISABLED
 TTTTTTTTTTTTTTTTTTTTTTTTTTTTTT gordsh1     TELAPSE        0.05 TCPU        0.05

 MATRIX SIZE: P(G)  742494, F(G)  141469, P(G) IRR  373305, F(G) IRR  142501
 MAX G-VECTOR INDEX FOR 1- AND 2-ELECTRON INTEGRALS  55

 TTTTTTTTTTTTTTTTTTTTTTTTTTTTTT INPUT       TELAPSE        2.74 TCPU        2.74

 NEIGHBORS OF THE NON-EQUIVALENT ATOMS

 N = NUMBER OF NEIGHBORS AT DISTANCE R
    ATOM  N     R/ANG      R/AU   NEIGHBORS (ATOM LABELS AND CELL INDICES)
   1 B    1     1.3791     2.6061   73 O   -1 0 0
   1 B    1     1.3793     2.6065   75 O    0 0 0
   1 B    1     1.5503     2.9297   49 C   -1 0 0
   1 B    1     2.3895     4.5155    5 B    0 1 0
   1 B    1     2.3898     4.5160    3 B    0 0 0
   1 B    1     2.5632     4.8437   51 C    0 0 0

   2 B    1     1.3791     2.6061   74 O    0 0 0
   2 B    1     1.3793     2.6065   76 O    0 0 0
   2 B    1     1.5503     2.9297   50 C    0 0 0
   2 B    1     2.3895     4.5155    6 B    0 0 0
   2 B    1     2.3898     4.5160    4 B    0 0 0
   2 B    1     2.5632     4.8437   52 C    0 0 0

   3 B    1     1.3793     2.6065   77 O    0 1 0
   3 B    1     1.3793     2.6065   75 O    0 0 0
   3 B    1     1.5504     2.9298   37 C    0 0 0
   3 B    1     2.3895     4.5156    5 B    0 1 0
   3 B    1     2.3898     4.5160    1 B    0 0 0
   3 B    1     2.5634     4.8440   43 C    0 1 0

   4 B    1     1.3793     2.6065   78 O    0 0 0
   4 B    1     1.3793     2.6065   76 O    0 0 0
   4 B    1     1.5504     2.9298   38 C    0 0 0
   4 B    1     2.3895     4.5156    6 B    0 0 0
   4 B    1     2.3898     4.5160    2 B    0 0 0
   4 B    1     2.5634     4.8440   44 C    0 0 0

   5 B    1     1.3791     2.6061   73 O   -1-1 0
   5 B    1     1.3793     2.6064   77 O    0 0 0
   5 B    1     1.5502     2.9294   61 C   -1-1 0
   5 B    1     2.3895     4.5155    1 B    0-1 0
   5 B    1     2.3895     4.5156    3 B    0-1 0
   5 B    1     2.5629     4.8433   63 C    0 0 0

   6 B    1     1.3791     2.6061   74 O    0 0 0
   6 B    1     1.3793     2.6064   78 O    0 0 0
   6 B    1     1.5502     2.9294   62 C    0 0 0
   6 B    1     2.3895     4.5155    2 B    0 0 0
   6 B    1     2.3895     4.5156    4 B    0 0 0
   6 B    1     2.5629     4.8433   64 C    0 0 0

   7 B    1     1.3795     2.6068   79 O    0 0 0
   7 B    1     1.3795     2.6070   81 O    0-1 0
   7 B    1     1.5513     2.9316   47 C    0 0 0
   7 B    1     2.3905     4.5174   11 B    0 0 0
   7 B    1     2.3905     4.5175    9 B    0-1 0
   7 B    1     2.5648     4.8468   45 C    0-1 0

   8 B    1     1.3795     2.6068   80 O    0 0 0
   8 B    1     1.3795     2.6070   82 O    0 0 0
   8 B    1     1.5513     2.9316   48 C    0 0 0
   8 B    1     2.3905     4.5174   12 B    0 0 0
   8 B    1     2.3905     4.5175   10 B    1 0 0
   8 B    1     2.5648     4.8468   46 C    0 0 0

   9 B    1     1.3795     2.6069   81 O    0 0 0
   9 B    1     1.3797     2.6072   83 O    1 1 0
   9 B    1     1.5516     2.9322   71 C    0 0 0
   9 B    1     2.3905     4.5175    7 B    0 1 0
   9 B    1     2.3911     4.5185   11 B    0 1 0
   9 B    1     2.5651     4.8473   69 C    1 1 0

  10 B    1     1.3795     2.6069   82 O   -1 0 0
  10 B    1     1.3797     2.6072   84 O    0 0 0
  10 B    1     1.5516     2.9322   72 C    0 0 0
  10 B    1     2.3905     4.5175    8 B   -1 0 0
  10 B    1     2.3911     4.5185   12 B   -1 0 0
  10 B    1     2.5651     4.8473   70 C    0 0 0

  11 B    1     1.3795     2.6068   79 O    0 0 0
  11 B    1     1.3796     2.6071   83 O    1 0 0
  11 B    1     1.5516     2.9322   59 C    0 0 0
  11 B    1     2.3905     4.5174    7 B    0 0 0
  11 B    1     2.3911     4.5185    9 B    0-1 0
  11 B    1     2.5651     4.8473   57 C    1 0 0

  12 B    1     1.3795     2.6068   80 O    0 0 0
  12 B    1     1.3796     2.6071   84 O    1 0 0
  12 B    1     1.5516     2.9322   60 C    0 0 0
  12 B    1     2.3905     4.5174    8 B    0 0 0
  12 B    1     2.3911     4.5185   10 B    1 0 0
  12 B    1     2.5651     4.8473   58 C    1 0 0

  13 H    1     1.0913     2.0623   39 C    0 0 0
  13 H    1     2.1472     4.0576   37 C    0 0 0
  13 H    1     2.1680     4.0969   45 C    0 0 0
  13 H    1     2.5202     4.7625   19 H    0 0 0
  13 H    1     2.5676     4.8520   75 O    0 0 0
  13 H    1     2.7321     5.1630    3 B    0 0 0

  14 H    1     1.0913     2.0623   40 C    0 0 0
  14 H    1     2.1472     4.0576   38 C    0 0 0
  14 H    1     2.1680     4.0969   46 C    0 0 0
  14 H    1     2.5202     4.7625   20 H    0 0 0
  14 H    1     2.5676     4.8520   76 O    0 0 0
  14 H    1     2.7321     5.1630    4 B    0 0 0

  15 H    1     1.0914     2.0625   41 C    0 0 0
  15 H    1     2.1493     4.0616   47 C    0 0 0
  15 H    1     2.1666     4.0942   43 C    0 0 0
  15 H    1     2.5198     4.7618   17 H    0 0 0
  15 H    1     2.5720     4.8604   79 O    0 0 0
  15 H    1     2.7362     5.1707    7 B    0 0 0

  16 H    1     1.0914     2.0625   42 C    0 0 0
  16 H    1     2.1493     4.0616   48 C    0 0 0
  16 H    1     2.1666     4.0942   44 C    0 0 0
  16 H    1     2.5198     4.7618   18 H    0 0 0
  16 H    1     2.5720     4.8604   80 O    0 0 0
  16 H    1     2.7362     5.1707    8 B    0 0 0

  17 H    1     1.0914     2.0624   43 C    0 0 0
  17 H    1     2.1471     4.0575   37 C    0-1 0
  17 H    1     2.1680     4.0970   41 C    0 0 0
  17 H    1     2.5198     4.7618   15 H    0 0 0
  17 H    1     2.5665     4.8500   77 O    0 0 0
  17 H    1     2.7315     5.1618    3 B    0-1 0

  18 H    1     1.0914     2.0624   44 C    0 0 0
  18 H    1     2.1471     4.0575   38 C    0 0 0
  18 H    1     2.1680     4.0970   42 C    0 0 0
  18 H    1     2.5198     4.7618   16 H    0 0 0
  18 H    1     2.5665     4.8500   78 O    0 0 0
  18 H    1     2.7315     5.1618    4 B    0 0 0

  19 H    1     1.0915     2.0626   45 C    0 0 0
  19 H    1     2.1490     4.0610   47 C    0 1 0
  19 H    1     2.1669     4.0948   39 C    0 0 0
  19 H    1     2.5202     4.7625   13 H    0 0 0
  19 H    1     2.5712     4.8588   81 O    0 0 0
  19 H    1     2.7351     5.1686    7 B    0 1 0

  20 H    1     1.0915     2.0626   46 C    0 0 0
  20 H    1     2.1490     4.0610   48 C    0 0 0
  20 H    1     2.1669     4.0948   40 C    0 0 0
  20 H    1     2.5202     4.7625   14 H    0 0 0
  20 H    1     2.5712     4.8588   82 O    0 0 0
  20 H    1     2.7351     5.1686    8 B    0 0 0

  21 H    1     1.0913     2.0623   51 C    0 0 0
  21 H    1     2.1469     4.0571   49 C   -1 0 0
  21 H    1     2.1680     4.0968   57 C    0 0 0
  21 H    1     2.5198     4.7617   27 H    0 0 0
  21 H    1     2.5670     4.8510   75 O    0 0 0
  21 H    1     2.7310     5.1609    1 B    0 0 0

  22 H    1     1.0913     2.0623   52 C    0 0 0
  22 H    1     2.1469     4.0571   50 C    0 0 0
  22 H    1     2.1680     4.0968   58 C    0-1 0
  22 H    1     2.5198     4.7617   28 H    0-1 0
  22 H    1     2.5670     4.8510   76 O    0 0 0
  22 H    1     2.7310     5.1609    2 B    0 0 0

  23 H    1     1.0914     2.0625   53 C    0 0 0
  23 H    1     2.1493     4.0617   59 C    0 0 0
  23 H    1     2.1664     4.0939   55 C    0 0 0
  23 H    1     2.5192     4.7606   25 H    0 0 0
  23 H    1     2.5735     4.8632   79 O    0 0 0
  23 H    1     2.7371     5.1723   11 B    0 0 0

  24 H    1     1.0914     2.0625   54 C    0 0 0
  24 H    1     2.1493     4.0617   60 C    0 0 0
  24 H    1     2.1664     4.0939   56 C    1 1 0
  24 H    1     2.5192     4.7606   26 H    1 1 0
  24 H    1     2.5735     4.8632   80 O    0 0 0
  24 H    1     2.7371     5.1723   12 B    0 0 0

  25 H    1     1.0914     2.0624   55 C    0 0 0
  25 H    1     2.1475     4.0581   49 C    0 0 0
  25 H    1     2.1679     4.0967   53 C    0 0 0
  25 H    1     2.5192     4.7606   23 H    0 0 0
  25 H    1     2.5675     4.8519   73 O    0 0 0
  25 H    1     2.7328     5.1643    1 B    1 0 0

  26 H    1     1.0914     2.0624   56 C    0 0 0
  26 H    1     2.1475     4.0581   50 C    0 0 0
  26 H    1     2.1679     4.0967   54 C   -1-1 0
  26 H    1     2.5192     4.7606   24 H   -1-1 0
  26 H    1     2.5675     4.8519   74 O    0 0 0
  26 H    1     2.7328     5.1643    2 B    0 0 0

  27 H    1     1.0914     2.0625   57 C    0 0 0
  27 H    1     2.1491     4.0612   59 C   -1 0 0
  27 H    1     2.1666     4.0942   51 C    0 0 0
  27 H    1     2.5198     4.7617   21 H    0 0 0
  27 H    1     2.5723     4.8609   83 O    0 0 0
  27 H    1     2.7355     5.1693   11 B   -1 0 0

  28 H    1     1.0914     2.0625   58 C    0 0 0
  28 H    1     2.1491     4.0612   60 C   -1 0 0
  28 H    1     2.1666     4.0942   52 C    0 1 0
  28 H    1     2.5198     4.7617   22 H    0 1 0
  28 H    1     2.5723     4.8609   84 O    0 0 0
  28 H    1     2.7355     5.1693   12 B   -1 0 0

  29 H    1     1.0914     2.0624   63 C    0 0 0
  29 H    1     2.1475     4.0582   61 C   -1-1 0
  29 H    1     2.1678     4.0966   69 C    0 0 0
  29 H    1     2.5200     4.7621   35 H    0 0 0
  29 H    1     2.5667     4.8503   77 O    0 0 0
  29 H    1     2.7315     5.1618    5 B    0 0 0

  30 H    1     1.0914     2.0624   64 C    0 0 0
  30 H    1     2.1475     4.0582   62 C    0 0 0
  30 H    1     2.1678     4.0966   70 C    0 0 0
  30 H    1     2.5200     4.7621   36 H    0 0 0
  30 H    1     2.5667     4.8503   78 O    0 0 0
  30 H    1     2.7315     5.1618    6 B    0 0 0

  31 H    1     1.0913     2.0623   65 C    0 0 0
  31 H    1     2.1487     4.0605   71 C    0 0 0
  31 H    1     2.1667     4.0945   67 C    0 0 0
  31 H    1     2.5197     4.7616   33 H    0 0 0
  31 H    1     2.5723     4.8610   81 O    0 0 0
  31 H    1     2.7359     5.1701    9 B    0 0 0

  32 H    1     1.0913     2.0623   66 C    0 0 0
  32 H    1     2.1487     4.0605   72 C    0 0 0
  32 H    1     2.1667     4.0945   68 C    0 0 0
  32 H    1     2.5197     4.7616   34 H    0 0 0
  32 H    1     2.5723     4.8610   82 O   -1 0 0
  32 H    1     2.7359     5.1701   10 B    0 0 0

  33 H    1     1.0915     2.0626   67 C    0 0 0
  33 H    1     2.1479     4.0589   61 C    0 0 0
  33 H    1     2.1679     4.0968   65 C    0 0 0
  33 H    1     2.5197     4.7616   31 H    0 0 0
  33 H    1     2.5677     4.8522   73 O    0 0 0
  33 H    1     2.7331     5.1648    5 B    1 1 0

  34 H    1     1.0915     2.0626   68 C    0 0 0
  34 H    1     2.1479     4.0589   62 C    0 0 0
  34 H    1     2.1679     4.0968   66 C    0 0 0
  34 H    1     2.5197     4.7616   32 H    0 0 0
  34 H    1     2.5677     4.8522   74 O    0 0 0
  34 H    1     2.7331     5.1648    6 B    0 0 0

  35 H    1     1.0914     2.0624   69 C    0 0 0
  35 H    1     2.1486     4.0602   71 C   -1-1 0
  35 H    1     2.1668     4.0947   63 C    0 0 0
  35 H    1     2.5200     4.7621   29 H    0 0 0
  35 H    1     2.5717     4.8598   83 O    0 0 0
  35 H    1     2.7349     5.1682    9 B   -1-1 0

  36 H    1     1.0914     2.0624   70 C    0 0 0
  36 H    1     2.1486     4.0602   72 C    0 0 0
  36 H    1     2.1668     4.0947   64 C    0 0 0
  36 H    1     2.5200     4.7621   30 H    0 0 0
  36 H    1     2.5717     4.8598   84 O    0 0 0
  36 H    1     2.7349     5.1682   10 B    0 0 0

  37 C    1     1.4020     2.6495   43 C    0 1 0
  37 C    1     1.4021     2.6495   39 C    0 0 0
  37 C    1     1.5504     2.9298    3 B    0 0 0
  37 C    1     2.1471     4.0575   17 H    0 1 0
  37 C    1     2.1472     4.0576   13 H    0 0 0
  37 C    1     2.4246     4.5817   41 C    0 1 0

  38 C    1     1.4020     2.6495   44 C    0 0 0
  38 C    1     1.4021     2.6495   40 C    0 0 0
  38 C    1     1.5504     2.9298    4 B    0 0 0
  38 C    1     2.1471     4.0575   18 H    0 0 0
  38 C    1     2.1472     4.0576   14 H    0 0 0
  38 C    1     2.4246     4.5817   42 C    0 0 0

  39 C    1     1.0913     2.0623   13 H    0 0 0
  39 C    1     1.3914     2.6294   45 C    0 0 0
  39 C    1     1.4021     2.6495   37 C    0 0 0
  39 C    1     2.1669     4.0948   19 H    0 0 0
  39 C    1     2.4177     4.5688   43 C    0 1 0
  39 C    1     2.4250     4.5825   47 C    0 1 0

  40 C    1     1.0913     2.0623   14 H    0 0 0
  40 C    1     1.3914     2.6294   46 C    0 0 0
  40 C    1     1.4021     2.6495   38 C    0 0 0
  40 C    1     2.1669     4.0948   20 H    0 0 0
  40 C    1     2.4177     4.5688   44 C    0 0 0
  40 C    1     2.4250     4.5825   48 C    0 0 0

  41 C    1     1.0914     2.0625   15 H    0 0 0
  41 C    1     1.3914     2.6293   43 C    0 0 0
  41 C    1     1.4026     2.6505   47 C    0 0 0
  41 C    1     2.1680     4.0970   17 H    0 0 0
  41 C    1     2.4182     4.5697   45 C    0-1 0
  41 C    1     2.4246     4.5817   37 C    0-1 0

  42 C    1     1.0914     2.0625   16 H    0 0 0
  42 C    1     1.3914     2.6293   44 C    0 0 0
  42 C    1     1.4026     2.6505   48 C    0 0 0
  42 C    1     2.1680     4.0970   18 H    0 0 0
  42 C    1     2.4182     4.5697   46 C    0 0 0
  42 C    1     2.4246     4.5817   38 C    0 0 0

  43 C    1     1.0914     2.0624   17 H    0 0 0
  43 C    1     1.3914     2.6293   41 C    0 0 0
  43 C    1     1.4020     2.6495   37 C    0-1 0
  43 C    1     2.1666     4.0942   15 H    0 0 0
  43 C    1     2.4177     4.5688   39 C    0-1 0
  43 C    1     2.4250     4.5826   47 C    0 0 0

  44 C    1     1.0914     2.0624   18 H    0 0 0
  44 C    1     1.3914     2.6293   42 C    0 0 0
  44 C    1     1.4020     2.6495   38 C    0 0 0
  44 C    1     2.1666     4.0942   16 H    0 0 0
  44 C    1     2.4177     4.5688   40 C    0 0 0
  44 C    1     2.4250     4.5826   48 C    0 0 0

  45 C    1     1.0915     2.0626   19 H    0 0 0
  45 C    1     1.3914     2.6294   39 C    0 0 0
  45 C    1     1.4025     2.6504   47 C    0 1 0
  45 C    1     2.1680     4.0969   13 H    0 0 0
  45 C    1     2.4182     4.5697   41 C    0 1 0
  45 C    1     2.4246     4.5818   37 C    0 0 0

  46 C    1     1.0915     2.0626   20 H    0 0 0
  46 C    1     1.3914     2.6294   40 C    0 0 0
  46 C    1     1.4025     2.6504   48 C    0 0 0
  46 C    1     2.1680     4.0969   14 H    0 0 0
  46 C    1     2.4182     4.5697   42 C    0 0 0
  46 C    1     2.4246     4.5818   38 C    0 0 0

  47 C    1     1.4025     2.6504   45 C    0-1 0
  47 C    1     1.4026     2.6505   41 C    0 0 0
  47 C    1     1.5513     2.9316    7 B    0 0 0
  47 C    1     2.1490     4.0610   19 H    0-1 0
  47 C    1     2.1493     4.0616   15 H    0 0 0
  47 C    1     2.4250     4.5825   39 C    0-1 0

  48 C    1     1.4025     2.6504   46 C    0 0 0
  48 C    1     1.4026     2.6505   42 C    0 0 0
  48 C    1     1.5513     2.9316    8 B    0 0 0
  48 C    1     2.1490     4.0610   20 H    0 0 0
  48 C    1     2.1493     4.0616   16 H    0 0 0
  48 C    1     2.4250     4.5825   40 C    0 0 0

  49 C    1     1.4020     2.6494   51 C    1 0 0
  49 C    1     1.4021     2.6495   55 C    0 0 0
  49 C    1     1.5503     2.9297    1 B    1 0 0
  49 C    1     2.1469     4.0571   21 H    1 0 0
  49 C    1     2.1475     4.0581   25 H    0 0 0
  49 C    1     2.4246     4.5818   53 C    0 0 0

  50 C    1     1.4020     2.6494   52 C    0 0 0
  50 C    1     1.4021     2.6495   56 C    0 0 0
  50 C    1     1.5503     2.9297    2 B    0 0 0
  50 C    1     2.1469     4.0571   22 H    0 0 0
  50 C    1     2.1475     4.0581   26 H    0 0 0
  50 C    1     2.4246     4.5818   54 C   -1-1 0

  51 C    1     1.0913     2.0623   21 H    0 0 0
  51 C    1     1.3914     2.6293   57 C    0 0 0
  51 C    1     1.4020     2.6494   49 C   -1 0 0
  51 C    1     2.1666     4.0942   27 H    0 0 0
  51 C    1     2.4175     4.5684   55 C   -1 0 0
  51 C    1     2.4251     4.5828   59 C   -1 0 0

  52 C    1     1.0913     2.0623   22 H    0 0 0
  52 C    1     1.3914     2.6293   58 C    0-1 0
  52 C    1     1.4020     2.6494   50 C    0 0 0
  52 C    1     2.1666     4.0942   28 H    0-1 0
  52 C    1     2.4175     4.5684   56 C    0 0 0
  52 C    1     2.4251     4.5828   60 C   -1-1 0

  53 C    1     1.0914     2.0625   23 H    0 0 0
  53 C    1     1.3915     2.6295   55 C    0 0 0
  53 C    1     1.4026     2.6505   59 C    0 0 0
  53 C    1     2.1679     4.0967   25 H    0 0 0
  53 C    1     2.4179     4.5691   57 C    1 0 0
  53 C    1     2.4246     4.5818   49 C    0 0 0

  54 C    1     1.0914     2.0625   24 H    0 0 0
  54 C    1     1.3915     2.6295   56 C    1 1 0
  54 C    1     1.4026     2.6505   60 C    0 0 0
  54 C    1     2.1679     4.0967   26 H    1 1 0
  54 C    1     2.4179     4.5691   58 C    1 0 0
  54 C    1     2.4246     4.5818   50 C    1 1 0

  55 C    1     1.0914     2.0624   25 H    0 0 0
  55 C    1     1.3915     2.6295   53 C    0 0 0
  55 C    1     1.4021     2.6495   49 C    0 0 0
  55 C    1     2.1664     4.0939   23 H    0 0 0
  55 C    1     2.4175     4.5684   51 C    1 0 0
  55 C    1     2.4253     4.5832   59 C    0 0 0

  56 C    1     1.0914     2.0624   26 H    0 0 0
  56 C    1     1.3915     2.6295   54 C   -1-1 0
  56 C    1     1.4021     2.6495   50 C    0 0 0
  56 C    1     2.1664     4.0939   24 H   -1-1 0
  56 C    1     2.4175     4.5684   52 C    0 0 0
  56 C    1     2.4253     4.5832   60 C   -1-1 0

  57 C    1     1.0914     2.0625   27 H    0 0 0
  57 C    1     1.3914     2.6293   51 C    0 0 0
  57 C    1     1.4025     2.6504   59 C   -1 0 0
  57 C    1     2.1680     4.0968   21 H    0 0 0
  57 C    1     2.4179     4.5691   53 C   -1 0 0
  57 C    1     2.4247     4.5819   49 C   -1 0 0

  58 C    1     1.0914     2.0625   28 H    0 0 0
  58 C    1     1.3914     2.6293   52 C    0 1 0
  58 C    1     1.4025     2.6504   60 C   -1 0 0
  58 C    1     2.1680     4.0968   22 H    0 1 0
  58 C    1     2.4179     4.5691   54 C   -1 0 0
  58 C    1     2.4247     4.5819   50 C    0 1 0

  59 C    1     1.4025     2.6504   57 C    1 0 0
  59 C    1     1.4026     2.6505   53 C    0 0 0
  59 C    1     1.5516     2.9322   11 B    0 0 0
  59 C    1     2.1491     4.0612   27 H    1 0 0
  59 C    1     2.1493     4.0617   23 H    0 0 0
  59 C    1     2.4251     4.5828   51 C    1 0 0

  60 C    1     1.4025     2.6504   58 C    1 0 0
  60 C    1     1.4026     2.6505   54 C    0 0 0
  60 C    1     1.5516     2.9322   12 B    0 0 0
  60 C    1     2.1491     4.0612   28 H    1 0 0
  60 C    1     2.1493     4.0617   24 H    0 0 0
  60 C    1     2.4251     4.5828   52 C    1 1 0

  61 C    1     1.4021     2.6496   63 C    1 1 0
  61 C    1     1.4021     2.6497   67 C    0 0 0
  61 C    1     1.5502     2.9294    5 B    1 1 0
  61 C    1     2.1475     4.0582   29 H    1 1 0
  61 C    1     2.1479     4.0589   33 H    0 0 0
  61 C    1     2.4244     4.5814   65 C    0 0 0

  62 C    1     1.4021     2.6496   64 C    0 0 0
  62 C    1     1.4021     2.6497   68 C    0 0 0
  62 C    1     1.5502     2.9294    6 B    0 0 0
  62 C    1     2.1475     4.0582   30 H    0 0 0
  62 C    1     2.1479     4.0589   34 H    0 0 0
  62 C    1     2.4244     4.5814   66 C    0 0 0

  63 C    1     1.0914     2.0624   29 H    0 0 0
  63 C    1     1.3914     2.6293   69 C    0 0 0
  63 C    1     1.4021     2.6496   61 C   -1-1 0
  63 C    1     2.1668     4.0947   35 H    0 0 0
  63 C    1     2.4179     4.5692   67 C   -1-1 0
  63 C    1     2.4251     4.5827   71 C   -1-1 0

  64 C    1     1.0914     2.0624   30 H    0 0 0
  64 C    1     1.3914     2.6293   70 C    0 0 0
  64 C    1     1.4021     2.6496   62 C    0 0 0
  64 C    1     2.1668     4.0947   36 H    0 0 0
  64 C    1     2.4179     4.5692   68 C    0 0 0
  64 C    1     2.4251     4.5827   72 C    0 0 0

  65 C    1     1.0913     2.0623   31 H    0 0 0
  65 C    1     1.3914     2.6294   67 C    0 0 0
  65 C    1     1.4025     2.6504   71 C    0 0 0
  65 C    1     2.1679     4.0968   33 H    0 0 0
  65 C    1     2.4178     4.5690   69 C    1 1 0
  65 C    1     2.4244     4.5814   61 C    0 0 0

  66 C    1     1.0913     2.0623   32 H    0 0 0
  66 C    1     1.3914     2.6294   68 C    0 0 0
  66 C    1     1.4025     2.6504   72 C    0 0 0
  66 C    1     2.1679     4.0968   34 H    0 0 0
  66 C    1     2.4178     4.5690   70 C    0 0 0
  66 C    1     2.4244     4.5814   62 C    0 0 0

  67 C    1     1.0915     2.0626   33 H    0 0 0
  67 C    1     1.3914     2.6294   65 C    0 0 0
  67 C    1     1.4021     2.6497   61 C    0 0 0
  67 C    1     2.1667     4.0945   31 H    0 0 0
  67 C    1     2.4179     4.5692   63 C    1 1 0
  67 C    1     2.4253     4.5832   71 C    0 0 0

  68 C    1     1.0915     2.0626   34 H    0 0 0
  68 C    1     1.3914     2.6294   66 C    0 0 0
  68 C    1     1.4021     2.6497   62 C    0 0 0
  68 C    1     2.1667     4.0945   32 H    0 0 0
  68 C    1     2.4179     4.5692   64 C    0 0 0
  68 C    1     2.4253     4.5832   72 C    0 0 0

  69 C    1     1.0914     2.0624   35 H    0 0 0
  69 C    1     1.3914     2.6293   63 C    0 0 0
  69 C    1     1.4025     2.6503   71 C   -1-1 0
  69 C    1     2.1678     4.0966   29 H    0 0 0
  69 C    1     2.4178     4.5690   65 C   -1-1 0
  69 C    1     2.4245     4.5817   61 C   -1-1 0

  70 C    1     1.0914     2.0624   36 H    0 0 0
  70 C    1     1.3914     2.6293   64 C    0 0 0
  70 C    1     1.4025     2.6503   72 C    0 0 0
  70 C    1     2.1678     4.0966   30 H    0 0 0
  70 C    1     2.4178     4.5690   66 C    0 0 0
  70 C    1     2.4245     4.5817   62 C    0 0 0

  71 C    1     1.4025     2.6503   69 C    1 1 0
  71 C    1     1.4025     2.6504   65 C    0 0 0
  71 C    1     1.5516     2.9322    9 B    0 0 0
  71 C    1     2.1486     4.0602   35 H    1 1 0
  71 C    1     2.1487     4.0605   31 H    0 0 0
  71 C    1     2.4251     4.5827   63 C    1 1 0

  72 C    1     1.4025     2.6503   70 C    0 0 0
  72 C    1     1.4025     2.6504   66 C    0 0 0
  72 C    1     1.5516     2.9322   10 B    0 0 0
  72 C    1     2.1486     4.0602   36 H    0 0 0
  72 C    1     2.1487     4.0605   32 H    0 0 0
  72 C    1     2.4251     4.5827   64 C    0 0 0

  73 O    1     1.3791     2.6061    1 B    1 0 0
  73 O    1     1.3791     2.6061    5 B    1 1 0
  73 O    1     2.3880     4.5126   75 O    1 0 0
  73 O    1     2.3882     4.5130   77 O    1 1 0
  73 O    1     2.5383     4.7966   61 C    0 0 0
  73 O    1     2.5384     4.7968   49 C    0 0 0

  74 O    1     1.3791     2.6061    2 B    0 0 0
  74 O    1     1.3791     2.6061    6 B    0 0 0
  74 O    1     2.3880     4.5126   76 O    0 0 0
  74 O    1     2.3882     4.5130   78 O    0 0 0
  74 O    1     2.5383     4.7966   62 C    0 0 0
  74 O    1     2.5384     4.7968   50 C    0 0 0

  75 O    1     1.3793     2.6065    1 B    0 0 0
  75 O    1     1.3793     2.6065    3 B    0 0 0
  75 O    1     2.3880     4.5126   73 O   -1 0 0
  75 O    1     2.3882     4.5131   77 O    0 1 0
  75 O    1     2.5391     4.7981   37 C    0 0 0
  75 O    1     2.5395     4.7990   49 C   -1 0 0

  76 O    1     1.3793     2.6065    2 B    0 0 0
  76 O    1     1.3793     2.6065    4 B    0 0 0
  76 O    1     2.3880     4.5126   74 O    0 0 0
  76 O    1     2.3882     4.5131   78 O    0 0 0
  76 O    1     2.5391     4.7981   38 C    0 0 0
  76 O    1     2.5395     4.7990   50 C    0 0 0

  77 O    1     1.3793     2.6064    5 B    0 0 0
  77 O    1     1.3793     2.6065    3 B    0-1 0
  77 O    1     2.3882     4.5130   73 O   -1-1 0
  77 O    1     2.3882     4.5131   75 O    0-1 0
  77 O    1     2.5390     4.7980   37 C    0-1 0
  77 O    1     2.5391     4.7982   61 C   -1-1 0

  78 O    1     1.3793     2.6064    6 B    0 0 0
  78 O    1     1.3793     2.6065    4 B    0 0 0
  78 O    1     2.3882     4.5130   74 O    0 0 0
  78 O    1     2.3882     4.5131   76 O    0 0 0
  78 O    1     2.5390     4.7980   38 C    0 0 0
  78 O    1     2.5391     4.7982   62 C    0 0 0

  79 O    1     1.3795     2.6068   11 B    0 0 0
  79 O    1     1.3795     2.6068    7 B    0 0 0
  79 O    1     2.3880     4.5126   83 O    1 0 0
  79 O    1     2.3884     4.5134   81 O    0-1 0
  79 O    1     2.5400     4.7998   47 C    0 0 0
  79 O    1     2.5403     4.8005   59 C    0 0 0

  80 O    1     1.3795     2.6068   12 B    0 0 0
  80 O    1     1.3795     2.6068    8 B    0 0 0
  80 O    1     2.3880     4.5126   84 O    1 0 0
  80 O    1     2.3884     4.5134   82 O    0 0 0
  80 O    1     2.5400     4.7998   48 C    0 0 0
  80 O    1     2.5403     4.8005   60 C    0 0 0

  81 O    1     1.3795     2.6069    9 B    0 0 0
  81 O    1     1.3795     2.6070    7 B    0 1 0
  81 O    1     2.3881     4.5128   83 O    1 1 0
  81 O    1     2.3884     4.5134   79 O    0 1 0
  81 O    1     2.5404     4.8006   47 C    0 1 0
  81 O    1     2.5405     4.8008   71 C    0 0 0

  82 O    1     1.3795     2.6069   10 B    1 0 0
  82 O    1     1.3795     2.6070    8 B    0 0 0
  82 O    1     2.3881     4.5128   84 O    1 0 0
  82 O    1     2.3884     4.5134   80 O    0 0 0
  82 O    1     2.5404     4.8006   48 C    0 0 0
  82 O    1     2.5405     4.8008   72 C    1 0 0

  83 O    1     1.3796     2.6071   11 B   -1 0 0
  83 O    1     1.3797     2.6072    9 B   -1-1 0
  83 O    1     2.3880     4.5126   79 O   -1 0 0
  83 O    1     2.3881     4.5128   81 O   -1-1 0
  83 O    1     2.5409     4.8016   71 C   -1-1 0
  83 O    1     2.5410     4.8019   59 C   -1 0 0

  84 O    1     1.3796     2.6071   12 B   -1 0 0
  84 O    1     1.3797     2.6072   10 B    0 0 0
  84 O    1     2.3880     4.5126   80 O   -1 0 0
  84 O    1     2.3881     4.5128   82 O   -1 0 0
  84 O    1     2.5409     4.8016   72 C    0 0 0
  84 O    1     2.5410     4.8019   60 C   -1 0 0


 SYMMETRY ALLOWED INTERNAL DEGREE(S) OF FREEDOM: 249
 TTTTTTTTTTTTTTTTTTTTTTTTTTTTTT SYMM        TELAPSE        2.75 TCPU        2.74
 TTTTTTTTTTTTTTTTTTTTTTTTTTTTTT INT_SCREEN  TELAPSE        2.96 TCPU        2.96

 DFT PARAMETERS

     ATOM       ELECTRONS   NET CHARGE   R(ANGSTROM)
   1   5  B       5.0000      0.0000     0.89000000
  13   1  H       1.0000      0.0000     1.11000000
  37   6  C       6.0000      0.0000     0.77000000
  73   8  O       8.0000      0.0000     0.74000000

 SIZE OF GRID=    2544300
 TTTTTTTTTTTTTTTTTTTTTTTTTTTTTT MAKE_GRID2  TELAPSE       24.57 TCPU       24.54
 BECKE WEIGHT FUNCTION
 RADSAFE =     2.00
 TOLERANCES - DENSITY:10**- 6; POTENTIAL:10**- 9; GRID WGT:10**-14

 RADIAL INTEGRATION  - INTERVALS (POINTS,UPPER LIMIT):            1( 75,  4.0*R)

 ANGULAR INTEGRATION - INTERVALS (ACCURACY LEVEL [N. POINTS] UPPER LIMIT):
  1(  4[  86]   0.2)  2(  8[ 194]   0.5)  3( 12[ 350]   0.9)  4( 16[ 974]   3.5)
  5( 12[ 350]9999.0)
 TTTTTTTTTTTTTTTTTTTTTTTTTTTTTT INT_CALC    TELAPSE       24.84 TCPU       24.81
 EEEEEEEEEE INT_CALC TERMINATION  DATE 19 02 2026 TIME 20:04:44.6

 *******************************************************************************
 cof-1_z34_L050_serr                                                             
 CRYSTAL - SCF - TYPE OF CALCULATION :  RESTRICTED CLOSED SHELL
 *******************************************************************************

 CAPPA:IS1  2;IS2  2;IS3  8; K PTS MONK NET  20; SYMMOPS:K SPACE   2;G SPACE   1

 TTTTTTTTTTTTTTTTTTTTTTTTTTTTTT SDIK        TELAPSE       26.71 TCPU       51.50

 AAAAAAAAAAAAAAAAAAAAAAAAAAAAAAAAAAAAAAAAAAAAAAAAAAAAAAAAAAAAAAAAAAAAAAAAAAAAAAA
         ATOMIC WAVEFUNCTION(S)


 NUCLEAR CHARGE  5.0  SYMMETRY SPECIES            S    P
 N. ELECTRONS    5.0  NUMBER OF PRIMITIVE GTOS    8    4
                      NUMBER OF CONTRACTED GTOS   4    2
                      NUMBER OF CLOSED SHELLS     2    0
                      OPEN SHELL OCCUPATION       0    1

  ZNUC  SCFIT    TOTAL HF ENERGY   KINETIC ENERGY   VIRIAL THEOREM ACCURACY
   5.0    11    -2.451164084E+01  2.462155050E+01 -1.995536038E+00  1.5E-06

 NUCLEAR CHARGE  1.0  SYMMETRY SPECIES            S
 N. ELECTRONS    1.0  NUMBER OF PRIMITIVE GTOS    4
                      NUMBER OF CONTRACTED GTOS   2
                      NUMBER OF CLOSED SHELLS     0
                      OPEN SHELL OCCUPATION       1

  ZNUC  SCFIT    TOTAL HF ENERGY   KINETIC ENERGY   VIRIAL THEOREM ACCURACY
   1.0     1    -4.977266687E-01  5.190767460E-01 -1.958869132E+00  0.0E+00

 NUCLEAR CHARGE  6.0  SYMMETRY SPECIES            S    P
 N. ELECTRONS    6.0  NUMBER OF PRIMITIVE GTOS    8    4
                      NUMBER OF CONTRACTED GTOS   4    2
                      NUMBER OF CLOSED SHELLS     2    0
                      OPEN SHELL OCCUPATION       0    2

  ZNUC  SCFIT    TOTAL HF ENERGY   KINETIC ENERGY   VIRIAL THEOREM ACCURACY
   6.0     9    -3.766704647E+01  3.775180683E+01 -1.997754800E+00  1.1E-06

 NUCLEAR CHARGE  8.0  SYMMETRY SPECIES            S    P
 N. ELECTRONS    8.0  NUMBER OF PRIMITIVE GTOS    8    4
                      NUMBER OF CONTRACTED GTOS   4    2
                      NUMBER OF CLOSED SHELLS     2    0
                      OPEN SHELL OCCUPATION       0    4

  ZNUC  SCFIT    TOTAL HF ENERGY   KINETIC ENERGY   VIRIAL THEOREM ACCURACY
   8.0    12    -7.477373220E+01  7.477365593E+01 -2.000001020E+00  3.8E-06

 AAAAAAAAAAAAAAAAAAAAAAAAAAAAAAAAAAAAAAAAAAAAAAAAAAAAAAAAAAAAAAAAAAAAAAAAAAAAAAA

 CHARGE NORMALIZATION FACTOR   1.00000000
 TOTAL ATOMIC CHARGES:
   5.0000000   5.0000000   5.0000000   5.0000000   5.0000000   5.0000000
   5.0000000   5.0000000   5.0000000   5.0000000   5.0000000   5.0000000
   1.0000000   1.0000000   1.0000000   1.0000000   1.0000000   1.0000000
   1.0000000   1.0000000   1.0000000   1.0000000   1.0000000   1.0000000
   1.0000000   1.0000000   1.0000000   1.0000000   1.0000000   1.0000000
   1.0000000   1.0000000   1.0000000   1.0000000   1.0000000   1.0000000
   6.0000000   6.0000000   6.0000000   6.0000000   6.0000000   6.0000000
   6.0000000   6.0000000   6.0000000   6.0000000   6.0000000   6.0000000
   6.0000000   6.0000000   6.0000000   6.0000000   6.0000000   6.0000000
   6.0000000   6.0000000   6.0000000   6.0000000   6.0000000   6.0000000
   6.0000000   6.0000000   6.0000000   6.0000000   6.0000000   6.0000000
   6.0000000   6.0000000   6.0000000   6.0000000   6.0000000   6.0000000
   8.0000000   8.0000000   8.0000000   8.0000000   8.0000000   8.0000000
   8.0000000   8.0000000   8.0000000   8.0000000   8.0000000   8.0000000
 TTTTTTTTTTTTTTTTTTTTTTTTTTTTTT MOQGAD      TELAPSE       26.81 TCPU       54.60
 TTTTTTTTTTTTTTTTTTTTTTTTTTTTTT SHELLXN     TELAPSE       46.24 TCPU      675.53
 TTTTTTTTTTTTTTTTTTTTTTTTTTTTTT MONMO3      TELAPSE       46.85 TCPU      694.98
 NUMERICALLY INTEGRATED DENSITY    395.9998497152
 TTTTTTTTTTTTTTTTTTTTTTTTTTTTTT NUMDFT      TELAPSE       48.31 TCPU      741.89
 CYC   0 ETOT(AU) -2.591951748174E+03 DETOT -2.59E+03 tst  0.00E+00 PX  1.00E+00
 TTTTTTTTTTTTTTTTTTTTTTTTTTTTTT DIIS        TELAPSE       48.42 TCPU      745.27
 TTTTTTTTTTTTTTTTTTTTTTTTTTTTTT FDIK        TELAPSE       50.17 TCPU      801.24
 INSULATING STATE
 TOP OF VALENCE BANDS -    BAND    198; K    4; EIG -3.0960143E-01 AU
 TOP OF VALENCE BANDS -    BAND    198; K    1; EIG -3.1036501E-01 AU
 BOTTOM OF VIRTUAL BANDS - BAND    199; K    1; EIG -1.7421892E-01 AU
 INDIRECT ENERGY BAND GAP:   3.6839 eV
 TTTTTTTTTTTTTTTTTTTTTTTTTTTTTT PDIG        TELAPSE       51.73 TCPU      808.16
 CHARGE NORMALIZATION FACTOR   1.00000000
 TOTAL ATOMIC CHARGES:
   4.1196729   4.1546997   4.1585108   4.1657916   4.1587311   4.1660661
   4.1656447   4.1583873   4.1654193   4.1581669   4.1543390   4.1193433
   0.7857210   0.7852695   0.7853793   0.7858370   0.7837386   0.7850648
   0.7851835   0.7838530   0.7860688   0.7860697   0.7862401   0.7862309
   0.7860586   0.7860594   0.7862010   0.7861904   0.7837416   0.7850667
   0.7852484   0.7839233   0.7856749   0.7852215   0.7853743   0.7858300
   6.0483051   6.0434277   6.2701477   6.2674008   6.2673793   6.2701055
   6.2678679   6.2642953   6.2642334   6.2678188   6.0426960   6.0475627
   6.0577931   6.0424638   6.2594037   6.2600901   6.2601642   6.2594646
   6.2593181   6.2599883   6.2601945   6.2594817   6.0412352   6.0564828
   6.0486796   6.0437708   6.2676485   6.2640584   6.2646042   6.2681980
   6.2697869   6.2670276   6.2676559   6.2703844   6.0422322   6.0470859
   8.7074851   8.6921879   8.7075796   8.6922969   8.7021248   8.6907759
   8.6926167   8.7078990   8.6911821   8.7025201   8.6927837   8.7080764
 TTTTTTTTTTTTTTTTTTTTTTTTTTTTTT MOQGAD      TELAPSE       51.83 TCPU      808.26
 TTTTTTTTTTTTTTTTTTTTTTTTTTTTTT SHELLXN     TELAPSE       72.04 TCPU     1453.05
 TTTTTTTTTTTTTTTTTTTTTTTTTTTTTT MONMO3      TELAPSE       72.65 TCPU     1472.49
 NUMERICALLY INTEGRATED DENSITY    395.9998912135
 TTTTTTTTTTTTTTTTTTTTTTTTTTTTTT NUMDFT      TELAPSE       74.14 TCPU     1520.23
 CYC   1 ETOT(AU) -2.577658220628E+03 DETOT  1.43E+01 tst  0.00E+00 PX  1.00E+00
 TTTTTTTTTTTTTTTTTTTTTTTTTTTTTT DIIS        TELAPSE       74.27 TCPU     1524.41
 DIIS TEST: 0.21755E+01 AT SCF   CYCLE   1 - MIX   30 %
 TTTTTTTTTTTTTTTTTTTTTTTTTTTTTT FDIK        TELAPSE       76.05 TCPU     1581.29
 INSULATING STATE
 TOP OF VALENCE BANDS -    BAND    198; K    4; EIG -2.2356405E-01 AU
 TOP OF VALENCE BANDS -    BAND    198; K    1; EIG -2.2556747E-01 AU
 BOTTOM OF VIRTUAL BANDS - BAND    199; K    1; EIG -1.0089041E-01 AU
 INDIRECT ENERGY BAND GAP:   3.3381 eV
 TTTTTTTTTTTTTTTTTTTTTTTTTTTTTT PDIG        TELAPSE       77.65 TCPU     1588.26
 CHARGE NORMALIZATION FACTOR   1.00000000
 TOTAL ATOMIC CHARGES:
   4.6477674   4.6856422   4.6669896   4.7197280   4.6669295   4.7197599
   4.7199468   4.6672071   4.7198913   4.6672101   4.6857461   4.6476644
   0.9129351   0.8994475   0.8995181   0.9129261   0.9185738   0.9145558
   0.9145950   0.9187220   0.8994296   0.8893670   0.8892633   0.8995364
   0.8994080   0.8893511   0.8892475   0.8994885   0.9185799   0.9145465
   0.9146678   0.9187978   0.9128690   0.8994174   0.8995196   0.9129182
   5.8562172   5.8836143   6.1521323   6.1362127   6.1366076   6.1525427
   6.1279317   6.1472241   6.1478511   6.1287581   5.8863092   5.8588263
   5.9298858   5.8664264   6.1553168   6.1338476   6.1348659   6.1559602
   6.1555009   6.1339750   6.1348250   6.1559818   5.8695744   5.9329362
   5.8561421   5.8835491   6.1279673   6.1472777   6.1477360   6.1286852
   6.1523494   6.1363960   6.1364095   6.1522665   5.8865181   5.8589821
   8.3497011   8.3258890   8.3500775   8.3262503   8.3394342   8.3392817
   8.3257380   8.3494901   8.3390006   8.3393941   8.3261125   8.3498656
 TTTTTTTTTTTTTTTTTTTTTTTTTTTTTT MOQGAD      TELAPSE       77.74 TCPU     1588.36
 TTTTTTTTTTTTTTTTTTTTTTTTTTTTTT SHELLXN     TELAPSE       97.95 TCPU     2233.16
 TTTTTTTTTTTTTTTTTTTTTTTTTTTTTT MONMO3      TELAPSE       98.56 TCPU     2252.62
 NUMERICALLY INTEGRATED DENSITY    395.9998669007
 TTTTTTTTTTTTTTTTTTTTTTTTTTTTTT NUMDFT      TELAPSE      100.06 TCPU     2300.37
 CYC   2 ETOT(AU) -2.578041056420E+03 DETOT -3.83E-01 tst  3.12E-03 PX  1.59E-01
 TTTTTTTTTTTTTTTTTTTTTTTTTTTTTT DIIS        TELAPSE      100.21 TCPU     2305.30
 DIIS TEST: 0.90028E+00 AT SCF   CYCLE   2 - DIIS ACTIVE - HISTORY:     2 CYCLES
 TTTTTTTTTTTTTTTTTTTTTTTTTTTTTT FDIK        TELAPSE      101.99 TCPU     2362.14
 INSULATING STATE
 TOP OF VALENCE BANDS -    BAND    198; K    4; EIG -2.3459072E-01 AU
 TOP OF VALENCE BANDS -    BAND    198; K    1; EIG -2.3660507E-01 AU
 BOTTOM OF VIRTUAL BANDS - BAND    199; K    1; EIG -9.7722486E-02 AU
 INDIRECT ENERGY BAND GAP:   3.7244 eV
 TTTTTTTTTTTTTTTTTTTTTTTTTTTTTT PDIG        TELAPSE      103.55 TCPU     2369.08
 CHARGE NORMALIZATION FACTOR   1.00000000
 TOTAL ATOMIC CHARGES:
   4.4372647   4.4840827   4.4830847   4.5112483   4.4831928   4.5113733
   4.5109902   4.4829233   4.5107750   4.4827689   4.4835816   4.4370661
   0.8907044   0.8805671   0.8806761   0.8909558   0.8932584   0.8931130
   0.8932536   0.8932727   0.8820743   0.8718454   0.8722617   0.8821114
   0.8821006   0.8718457   0.8722172   0.8820374   0.8932625   0.8931166
   0.8933045   0.8933458   0.8906914   0.8806136   0.8806218   0.8908931
   5.9171556   5.8812842   6.1620742   6.1682908   6.1680033   6.1619558
   6.1661553   6.1458287   6.1450605   6.1650361   5.8803786   5.9160921
   5.9124908   5.9032428   6.1583104   6.1761507   6.1756739   6.1581741
   6.1584433   6.1762829   6.1755513   6.1580331   5.9018970   5.9115646
   5.9174782   5.8815995   6.1660794   6.1457621   6.1452238   6.1651482
   6.1620095   6.1680993   6.1680743   6.1620142   5.8800417   5.9157619
   8.5237534   8.5135516   8.5238894   8.5137238   8.5293577   8.5017968
   8.5137477   8.5241338   8.5019360   8.5289518   8.5139226   8.5243176
 TTTTTTTTTTTTTTTTTTTTTTTTTTTTTT MOQGAD      TELAPSE      103.65 TCPU     2369.18
 TTTTTTTTTTTTTTTTTTTTTTTTTTTTTT SHELLXN     TELAPSE      123.85 TCPU     3013.79
 TTTTTTTTTTTTTTTTTTTTTTTTTTTTTT MONMO3      TELAPSE      124.46 TCPU     3033.24
 NUMERICALLY INTEGRATED DENSITY    395.9998684856
 TTTTTTTTTTTTTTTTTTTTTTTTTTTTTT NUMDFT      TELAPSE      125.95 TCPU     3081.00
 CYC   3 ETOT(AU) -2.578225830723E+03 DETOT -1.85E-01 tst  6.05E-04 PX  6.84E-02
 TTTTTTTTTTTTTTTTTTTTTTTTTTTTTT DIIS        TELAPSE      126.12 TCPU     3086.49
 DIIS TEST: 0.35417E-01 AT SCF   CYCLE   3 - DIIS ACTIVE - HISTORY:     3 CYCLES
 TTTTTTTTTTTTTTTTTTTTTTTTTTTTTT FDIK        TELAPSE      127.90 TCPU     3143.39
 INSULATING STATE
 TOP OF VALENCE BANDS -    BAND    198; K    4; EIG -2.4485834E-01 AU
 TOP OF VALENCE BANDS -    BAND    198; K    1; EIG -2.4654225E-01 AU
 BOTTOM OF VIRTUAL BANDS - BAND    199; K    1; EIG -1.0541739E-01 AU
 INDIRECT ENERGY BAND GAP:   3.7944 eV
 TTTTTTTTTTTTTTTTTTTTTTTTTTTTTT PDIG        TELAPSE      129.46 TCPU     3150.33
 CHARGE NORMALIZATION FACTOR   1.00000000
 TOTAL ATOMIC CHARGES:
   4.4528637   4.4822371   4.4859814   4.5127671   4.4860578   4.5128888
   4.5128533   4.4860690   4.5126375   4.4859448   4.4821796   4.4526618
   0.8740110   0.8651922   0.8653571   0.8740305   0.8801427   0.8729559
   0.8729601   0.8802206   0.8624128   0.8579169   0.8577675   0.8626588
   0.8624319   0.8579433   0.8577067   0.8625718   0.8801775   0.8729613
   0.8730205   0.8802650   0.8739926   0.8652037   0.8653213   0.8739840
   5.9241799   5.9504523   6.1817904   6.1660634   6.1663089   6.1818776
   6.1502099   6.1824796   6.1835930   6.1519927   5.9532105   5.9266837
   6.0013507   5.9158337   6.1830354   6.1638704   6.1649746   6.1836764
   6.1829894   6.1637472   6.1650847   6.1838175   5.9186064   6.0036797
   5.9241584   5.9504895   6.1500718   6.1823606   6.1837216   6.1521608
   6.1816813   6.1659392   6.1664184   6.1819225   5.9532330   5.9266534
   8.4962885   8.4734684   8.4965820   8.4737404   8.4809193   8.4864600
   8.4735285   8.4960945   8.4864430   8.4815404   8.4738431   8.4964256
 TTTTTTTTTTTTTTTTTTTTTTTTTTTTTT MOQGAD      TELAPSE      129.56 TCPU     3150.43
 TTTTTTTTTTTTTTTTTTTTTTTTTTTTTT SHELLXN     TELAPSE      149.76 TCPU     3795.11
 TTTTTTTTTTTTTTTTTTTTTTTTTTTTTT MONMO3      TELAPSE      150.37 TCPU     3814.55
 NUMERICALLY INTEGRATED DENSITY    395.9998703635
 TTTTTTTTTTTTTTTTTTTTTTTTTTTTTT NUMDFT      TELAPSE      151.87 TCPU     3862.28
 CYC   4 ETOT(AU) -2.578232145769E+03 DETOT -6.32E-03 tst  5.80E-05 PX  2.12E-02
 TTTTTTTTTTTTTTTTTTTTTTTTTTTTTT DIIS        TELAPSE      152.06 TCPU     3868.57
 DIIS TEST: 0.14653E-01 AT SCF   CYCLE   4 - DIIS ACTIVE - HISTORY:     4 CYCLES
 TTTTTTTTTTTTTTTTTTTTTTTTTTTTTT FDIK        TELAPSE      153.84 TCPU     3925.40
 INSULATING STATE
 TOP OF VALENCE BANDS -    BAND    198; K    4; EIG -2.4394587E-01 AU
 TOP OF VALENCE BANDS -    BAND    198; K    1; EIG -2.4573598E-01 AU
 BOTTOM OF VIRTUAL BANDS - BAND    199; K    1; EIG -1.0535892E-01 AU
 INDIRECT ENERGY BAND GAP:   3.7711 eV
 TTTTTTTTTTTTTTTTTTTTTTTTTTTTTT PDIG        TELAPSE      155.40 TCPU     3932.34
 CHARGE NORMALIZATION FACTOR   1.00000000
 TOTAL ATOMIC CHARGES:
   4.4486228   4.4888277   4.4862944   4.5189426   4.4863874   4.5190587
   4.5188952   4.4863372   4.5186918   4.4861997   4.4885481   4.4484763
   0.8753167   0.8659588   0.8660688   0.8754668   0.8802353   0.8770318
   0.8772079   0.8803483   0.8656294   0.8571389   0.8574219   0.8657075
   0.8656362   0.8571304   0.8573864   0.8656427   0.8802454   0.8770329
   0.8772675   0.8804198   0.8752843   0.8659803   0.8660336   0.8754252
   5.9319399   5.9262724   6.1722716   6.1738987   6.1738334   6.1724041
   6.1720765   6.1615990   6.1609098   6.1711507   5.9258937   5.9314295
   5.9547931   5.9380233   6.1705902   6.1788004   6.1786951   6.1705743
   6.1707336   6.1789249   6.1785938   6.1704738   5.9375276   5.9546307
   5.9321449   5.9264882   6.1720016   6.1615436   6.1610134   6.1712405
   6.1722730   6.1737981   6.1738504   6.1723869   5.9256969   5.9312115
   8.4970107   8.4846843   8.4972039   8.4848954   8.4995061   8.4806087
   8.4847544   8.4972501   8.4805895   8.4990479   8.4849828   8.4974783
 TTTTTTTTTTTTTTTTTTTTTTTTTTTTTT MOQGAD      TELAPSE      155.50 TCPU     3932.43
 TTTTTTTTTTTTTTTTTTTTTTTTTTTTTT SHELLXN     TELAPSE      175.73 TCPU     4578.00
 TTTTTTTTTTTTTTTTTTTTTTTTTTTTTT MONMO3      TELAPSE      176.34 TCPU     4597.48
 NUMERICALLY INTEGRATED DENSITY    395.9998700407
 TTTTTTTTTTTTTTTTTTTTTTTTTTTTTT NUMDFT      TELAPSE      177.84 TCPU     4645.38
 CYC   5 ETOT(AU) -2.578235072602E+03 DETOT -2.93E-03 tst  3.91E-05 PX  1.13E-02
 TTTTTTTTTTTTTTTTTTTTTTTTTTTTTT DIIS        TELAPSE      178.07 TCPU     4652.23
 DIIS TEST: 0.23587E-02 AT SCF   CYCLE   5 - DIIS ACTIVE - HISTORY:     5 CYCLES
 TTTTTTTTTTTTTTTTTTTTTTTTTTTTTT FDIK        TELAPSE      179.93 TCPU     4711.22
 INSULATING STATE
 TOP OF VALENCE BANDS -    BAND    198; K    4; EIG -2.4311934E-01 AU
 TOP OF VALENCE BANDS -    BAND    198; K    1; EIG -2.4493436E-01 AU
 BOTTOM OF VIRTUAL BANDS - BAND    199; K    1; EIG -1.0517858E-01 AU
 INDIRECT ENERGY BAND GAP:   3.7536 eV
 TTTTTTTTTTTTTTTTTTTTTTTTTTTTTT PDIG        TELAPSE      181.51 TCPU     4718.16
 CHARGE NORMALIZATION FACTOR   1.00000000
 TOTAL ATOMIC CHARGES:
   4.4506932   4.4880238   4.4866405   4.5182235   4.4867214   4.5183420
   4.5181949   4.4866456   4.5179891   4.4865190   4.4878174   4.4505116
   0.8771077   0.8675283   0.8676755   0.8772268   0.8821216   0.8780607
   0.8781310   0.8821938   0.8668119   0.8589384   0.8590426   0.8669627
   0.8668272   0.8589465   0.8589943   0.8668877   0.8821403   0.8780626
   0.8781906   0.8822548   0.8770840   0.8675504   0.8676378   0.8771801
   5.9260596   5.9218319   6.1779516   6.1685609   6.1685415   6.1779531
   6.1608674   6.1684226   6.1686967   6.1613188   5.9229030   5.9269311
   5.9652784   5.9158207   6.1759990   6.1718672   6.1722601   6.1762739
   6.1760484   6.1718714   6.1722581   6.1762788   5.9166854   5.9661303
   5.9261956   5.9219926   6.1607669   6.1683432   6.1688221   6.1614459
   6.1778872   6.1684206   6.1686133   6.1779846   5.9227667   5.9267690
   8.5031795   8.4853851   8.5034047   8.4856166   8.4966044   8.4871823
   8.4854895   8.5032354   8.4872294   8.4967347   8.4857421   8.5034997
 TTTTTTTTTTTTTTTTTTTTTTTTTTTTTT MOQGAD      TELAPSE      181.60 TCPU     4718.26
 TTTTTTTTTTTTTTTTTTTTTTTTTTTTTT SHELLXN     TELAPSE      201.85 TCPU     5364.14
 TTTTTTTTTTTTTTTTTTTTTTTTTTTTTT MONMO3      TELAPSE      202.46 TCPU     5383.63
 NUMERICALLY INTEGRATED DENSITY    395.9998700718
 TTTTTTTTTTTTTTTTTTTTTTTTTTTTTT NUMDFT      TELAPSE      203.96 TCPU     5431.54
 CYC   6 ETOT(AU) -2.578235577420E+03 DETOT -5.05E-04 tst  1.01E-05 PX  5.26E-03
 TTTTTTTTTTTTTTTTTTTTTTTTTTTTTT DIIS        TELAPSE      204.21 TCPU     5438.42
 DIIS TEST: 0.37119E-03 AT SCF   CYCLE   6 - DIIS ACTIVE - HISTORY:     6 CYCLES
 TTTTTTTTTTTTTTTTTTTTTTTTTTTTTT FDIK        TELAPSE      206.07 TCPU     5497.32
 INSULATING STATE
 TOP OF VALENCE BANDS -    BAND    198; K    4; EIG -2.4304228E-01 AU
 TOP OF VALENCE BANDS -    BAND    198; K    1; EIG -2.4481231E-01 AU
 BOTTOM OF VIRTUAL BANDS - BAND    199; K    1; EIG -1.0476060E-01 AU
 INDIRECT ENERGY BAND GAP:   3.7628 eV
 TTTTTTTTTTTTTTTTTTTTTTTTTTTTTT PDIG        TELAPSE      207.68 TCPU     5504.30
 CHARGE NORMALIZATION FACTOR   1.00000000
 TOTAL ATOMIC CHARGES:
   4.4501779   4.4880513   4.4870479   4.5178443   4.4871339   4.5179628
   4.5178043   4.4870624   4.5175975   4.4869319   4.4878120   4.4499942
   0.8774923   0.8674219   0.8675524   0.8776084   0.8822268   0.8782526
   0.8783533   0.8823114   0.8672907   0.8593894   0.8595266   0.8674235
   0.8673054   0.8593954   0.8594806   0.8673495   0.8822451   0.8782561
   0.8784112   0.8823724   0.8774689   0.8674442   0.8675141   0.8775618
   5.9241867   5.9255677   6.1739206   6.1714985   6.1715183   6.1739946
   6.1627850   6.1673860   6.1673925   6.1628854   5.9263338   5.9247653
   5.9618057   5.9210256   6.1734425   6.1733630   6.1736671   6.1736655
   6.1735084   6.1733924   6.1736449   6.1736515   5.9216619   5.9624944
   5.9243272   5.9257329   6.1626840   6.1673006   6.1675213   6.1630147
   6.1738614   6.1713695   6.1715836   6.1740168   5.9261960   5.9245966
   8.5013556   8.4851877   8.5015778   8.4854150   8.4975557   8.4862634
   8.4852847   8.5014560   8.4862764   8.4975389   8.4855365   8.5017156
 TTTTTTTTTTTTTTTTTTTTTTTTTTTTTT MOQGAD      TELAPSE      207.77 TCPU     5504.40
 TTTTTTTTTTTTTTTTTTTTTTTTTTTTTT SHELLXN     TELAPSE      228.03 TCPU     6150.46
 TTTTTTTTTTTTTTTTTTTTTTTTTTTTTT MONMO3      TELAPSE      228.64 TCPU     6169.96
 NUMERICALLY INTEGRATED DENSITY    395.9998699797
 TTTTTTTTTTTTTTTTTTTTTTTTTTTTTT NUMDFT      TELAPSE      230.14 TCPU     6218.06
 CYC   7 ETOT(AU) -2.578235656458E+03 DETOT -7.90E-05 tst  1.02E-06 PX  1.25E-03
 TTTTTTTTTTTTTTTTTTTTTTTTTTTTTT DIIS        TELAPSE      230.41 TCPU     6224.93
 DIIS TEST: 0.45105E-04 AT SCF   CYCLE   7 - DIIS ACTIVE - HISTORY:     7 CYCLES
 TTTTTTTTTTTTTTTTTTTTTTTTTTTTTT FDIK        TELAPSE      232.27 TCPU     6283.85
 INSULATING STATE
 TOP OF VALENCE BANDS -    BAND    198; K    4; EIG -2.4316182E-01 AU
 TOP OF VALENCE BANDS -    BAND    198; K    1; EIG -2.4495454E-01 AU
 BOTTOM OF VIRTUAL BANDS - BAND    199; K    1; EIG -1.0491518E-01 AU
 INDIRECT ENERGY BAND GAP:   3.7619 eV
 TTTTTTTTTTTTTTTTTTTTTTTTTTTTTT PDIG        TELAPSE      233.84 TCPU     6290.79
 CHARGE NORMALIZATION FACTOR   1.00000000
 TOTAL ATOMIC CHARGES:
   4.4502181   4.4880998   4.4870554   4.5180131   4.4871416   4.5181314
   4.5179738   4.4870704   4.5177675   4.4869395   4.4878636   4.4500413
   0.8773352   0.8675726   0.8677059   0.8774578   0.8821027   0.8782986
   0.8783992   0.8821845   0.8671174   0.8591455   0.8592929   0.8672479
   0.8671315   0.8591503   0.8592476   0.8671745   0.8821199   0.8783012
   0.8784578   0.8822471   0.8773107   0.8675953   0.8676679   0.8774114
   5.9263097   5.9238946   6.1751932   6.1702161   6.1702075   6.1752498
   6.1631905   6.1666606   6.1666579   6.1632606   5.9245991   5.9268314
   5.9624849   5.9211329   6.1738431   6.1733342   6.1736082   6.1740498
   6.1739162   6.1733692   6.1735802   6.1740284   5.9216835   5.9631060
   5.9264598   5.9240664   6.1630931   6.1665827   6.1667814   6.1633830
   6.1751425   6.1700867   6.1702673   6.1752692   5.9244517   5.9266569
   8.5013406   8.4851343   8.5015591   8.4853611   8.4972913   8.4857707
   8.4852291   8.5014454   8.4857916   8.4972580   8.4854777   8.5017018
 TTTTTTTTTTTTTTTTTTTTTTTTTTTTTT MOQGAD      TELAPSE      233.94 TCPU     6290.89
 TTTTTTTTTTTTTTTTTTTTTTTTTTTTTT SHELLXN     TELAPSE      254.18 TCPU     6936.59
 TTTTTTTTTTTTTTTTTTTTTTTTTTTTTT MONMO3      TELAPSE      254.79 TCPU     6956.08
 NUMERICALLY INTEGRATED DENSITY    395.9998699833
 TTTTTTTTTTTTTTTTTTTTTTTTTTTTTT NUMDFT      TELAPSE      256.29 TCPU     7004.00
 CYC   8 ETOT(AU) -2.578235667713E+03 DETOT -1.13E-05 tst  1.32E-07 PX  5.12E-04
 TTTTTTTTTTTTTTTTTTTTTTTTTTTTTT DIIS        TELAPSE      256.59 TCPU     7010.92
 DIIS TEST: 0.87776E-06 AT SCF   CYCLE   8 - DIIS ACTIVE - HISTORY:     8 CYCLES
 TTTTTTTTTTTTTTTTTTTTTTTTTTTTTT FDIK        TELAPSE      258.45 TCPU     7070.05
 INSULATING STATE
 TOP OF VALENCE BANDS -    BAND    198; K    4; EIG -2.4315515E-01 AU
 TOP OF VALENCE BANDS -    BAND    198; K    1; EIG -2.4494670E-01 AU
 BOTTOM OF VIRTUAL BANDS - BAND    199; K    1; EIG -1.0491889E-01 AU
 INDIRECT ENERGY BAND GAP:   3.7616 eV
 TTTTTTTTTTTTTTTTTTTTTTTTTTTTTT PDIG        TELAPSE      260.02 TCPU     7077.00
 CHARGE NORMALIZATION FACTOR   1.00000000
 TOTAL ATOMIC CHARGES:
   4.4502429   4.4881376   4.4869701   4.5181393   4.4870552   4.5182574
   4.5181029   4.4869849   4.5178969   4.4868549   4.4879072   4.4500667
   0.8772982   0.8675479   0.8676834   0.8774206   0.8821373   0.8782595
   0.8783560   0.8822180   0.8670823   0.8591463   0.8592881   0.8672162
   0.8670966   0.8591517   0.8592422   0.8671426   0.8821547   0.8782620
   0.8784149   0.8822803   0.8772738   0.8675703   0.8676455   0.8773742
   5.9259918   5.9240328   6.1751805   6.1702978   6.1702859   6.1752281
   6.1631096   6.1667164   6.1667508   6.1632310   5.9247828   5.9265557
   5.9623370   5.9212376   6.1738778   6.1732532   6.1735408   6.1740902
   6.1739459   6.1732841   6.1735175   6.1740740   5.9218251   5.9629828
   5.9261385   5.9242028   6.1630128   6.1666383   6.1668738   6.1633530
   6.1751274   6.1701676   6.1703477   6.1752493   5.9246378   5.9263841
   8.5014166   8.4851556   8.5016369   8.4853829   8.4973242   8.4857839
   8.4852510   8.5015147   8.4858077   8.4973127   8.4855002   8.5017726
 TTTTTTTTTTTTTTTTTTTTTTTTTTTTTT MOQGAD      TELAPSE      260.12 TCPU     7077.10
 TTTTTTTTTTTTTTTTTTTTTTTTTTTTTT SHELLXN     TELAPSE      280.37 TCPU     7722.90
 TTTTTTTTTTTTTTTTTTTTTTTTTTTTTT MONMO3      TELAPSE      280.98 TCPU     7742.39
 NUMERICALLY INTEGRATED DENSITY    395.9998699794
 TTTTTTTTTTTTTTTTTTTTTTTTTTTTTT NUMDFT      TELAPSE      282.48 TCPU     7790.28
 CYC   9 ETOT(AU) -2.578235667690E+03 DETOT  2.29E-08 tst  3.74E-09 PX  8.44E-05
 TTTTTTTTTTTTTTTTTTTTTTTTTTTTTT DIIS        TELAPSE      282.80 TCPU     7797.22
 DIIS TEST: 0.58483E-07 AT SCF   CYCLE   9 - DIIS ACTIVE - HISTORY:     9 CYCLES
 TTTTTTTTTTTTTTTTTTTTTTTTTTTTTT FDIK        TELAPSE      284.66 TCPU     7856.34
 INSULATING STATE
 TOP OF VALENCE BANDS -    BAND    198; K    4; EIG -2.4315876E-01 AU
 TOP OF VALENCE BANDS -    BAND    198; K    1; EIG -2.4495033E-01 AU
 BOTTOM OF VIRTUAL BANDS - BAND    199; K    1; EIG -1.0491838E-01 AU
 INDIRECT ENERGY BAND GAP:   3.7617 eV
 TTTTTTTTTTTTTTTTTTTTTTTTTTTTTT PDIG        TELAPSE      286.23 TCPU     7863.29
 CHARGE NORMALIZATION FACTOR   1.00000000
 TOTAL ATOMIC CHARGES:
   4.4502464   4.4881318   4.4869925   4.5180923   4.4870784   4.5182105
   4.5180537   4.4870079   4.5178475   4.4868773   4.4878961   4.4500691
   0.8773093   0.8675366   0.8676693   0.8774312   0.8821214   0.8782558
   0.8783576   0.8822047   0.8670863   0.8591357   0.8592836   0.8672164
   0.8671002   0.8591404   0.8592384   0.8671432   0.8821388   0.8782586
   0.8784161   0.8822671   0.8772847   0.8675591   0.8676314   0.8773850
   5.9260889   5.9240427   6.1751045   6.1703437   6.1703385   6.1751650
   6.1631360   6.1667545   6.1667446   6.1631976   5.9247400   5.9266038
   5.9624165   5.9211371   6.1738606   6.1733243   6.1735979   6.1740671
   6.1739342   6.1733597   6.1735697   6.1740454   5.9216828   5.9630355
   5.9262386   5.9242143   6.1630383   6.1666758   6.1668685   6.1633206
   6.1750536   6.1702150   6.1703984   6.1751841   5.9245930   5.9264292
   8.5013823   8.4851471   8.5016006   8.4853736   8.4973548   8.4858216
   8.4852422   8.5014882   8.4858407   8.4973190   8.4854909   8.5017443
 TTTTTTTTTTTTTTTTTTTTTTTTTTTTTT MOQGAD      TELAPSE      286.33 TCPU     7863.39
 TTTTTTTTTTTTTTTTTTTTTTTTTTTTTT SHELLXN     TELAPSE      306.58 TCPU     8509.29
 +++ ENERGIES IN A.U. +++
 ::: EXT EL-POLE                                  -2.9442079174323E+03
 ::: EXT EL-SPHEROPOLE                             3.3730844608784E+01
 ::: BIELET ZONE E-E                               4.4584893272980E+03
 ::: TOTAL E-E                                     1.5480122544745E+03
 ::: TOTAL E-N + N-E                              -6.7451649067111E+03
 ::: TOTAL N-N                                     3.2648160491259E+02
 ::: KINETIC ENERGY                                2.5598777157399E+03
 ::: PSEUDO TOTAL   ENERGY                        -2.3107933315840E+03
 ::: VIRIAL COEFFICIENT                            1.0511396441549E+00
 TTTTTTTTTTTTTTTTTTTTTTTTTTTTTT MONMO3      TELAPSE      307.19 TCPU     8528.77
 NUMERICALLY INTEGRATED DENSITY    395.9998699782
 EXCHANGE ENERGY: -0.252044711923E+03  CORRELATION ENERGY: -0.153976242113E+02
 TTTTTTTTTTTTTTTTTTTTTTTTTTTTTT NUMDFT      TELAPSE      308.69 TCPU     8576.67
 CYC  10 ETOT(AU) -2.578235667719E+03 DETOT -2.84E-08 tst  2.43E-10 PX  8.44E-05

 == SCF ENDED - CONVERGENCE ON ENERGY      E(AU) -2.5782356677186E+03 CYCLES  10


 ENERGY EXPRESSION=HARTREE+FOCK EXCH*0.00000+(HSESOL     EXCH)*1.00000+PBESOL     CORR


 TOTAL ENERGY(DFT)(AU)( 10) -2.5782356677186E+03 DE-2.8E-08 tester 2.4E-10
 TTTTTTTTTTTTTTTTTTTTTTTTTTTTTT EDFT        TELAPSE      308.69 TCPU     8576.68
 
 INFORMATION **** DFTD3 ENERGY **** CALCULATE DFTD3 ENERGY

           DFT-D V3(BJ)
 DF                                         hsesol3c  
 parameters
 s6       :    1.0000
 s8       :    0.0000
 a1       :    0.5196
 a2       :    4.9385
 k1 k3    :   16.0000   -4.0000
 Cutoff   :   50.2022
 CN-Cutoff:   21.1671
 ABC-Cutoff:   21.1671
 
 Edisp /kcal,au:   -56.1830 -0.08953326

 E6    /kcal :   -60.1540
 E8    /kcal :     0.0000
 E6(ABC) "   :   3.971002
 
 INFORMATION **** DFTD3 ENERGY **** NORMAL TERMINATION OF DFTD3 MODULE

 GCP ENERGY CALCULATION
  level        hsesol3c            basis:hsesol3c
  Nbf            948
  Atoms           84

  Parameters: 
  sigma     1.0000
  eta       1.4281
  alpha     0.2936
  beta      1.9467

  dmp_scal      4.0000
  dmp_exp       6.0000
 cutoffs: 
   distance [bohr] 60.0
   noise    [a.u.] 2.2E-16
 SR-damping   T
 ** gCP correction **
  Egcp:        0.1671169748 / (a.u.) ||     104.8675 / (kcal/mol)
 INFORMATION **** GCP **** NORMAL TERMINATION OF GCP MODULE

 *******************************************************************************

 DFT-D3-GCP DISPERSION AND COUNTERPOISE CORRECTION

 D3 DISPERSION ENERGY (AU)      -8.9533259662886E-02
 GCP ENERGY (AU)                 1.6711697482369E-01
 TOTAL ENERGY + DISP + GCP (AU) -2.5781580840034E+03

 *******************************************************************************

 EIGENVECTORS IN FORTRAN UNIT  8
 TTTTTTTTTTTTTTTTTTTTTTTTTTTTTT END         TELAPSE      312.14 TCPU     8586.07
 EEEEEEEEEE TERMINATION  DATE 19 02 2026 TIME 20:09:31.9
