 Default number of threads is:           32

         
 *******************************************************************************
 *                                                                             *
 *                               CRYSTAL23                                     *
 *                      public : 1.0.1 - October 2022                          *
 *                       HTTP://WWW.CRYSTAL.UNITO.IT                           *
 *                                                                             *
 *                              MAIN AUTHORS                                   *
 *                                                                             *
 *  R. DOVESI(1,11), V.R. SAUNDERS(2), C. ROETTI(1,11), R. ORLANDO(1,11),      *
 *  C.M. ZICOVICH-WILSON(1,3), F. PASCALE(4), B. CIVALLERI(1,11),              *
 *  K. DOLL(5), N.M. HARRISON(6), I.J. BUSH(7), Ph. D'ARCO(8),                 *
 *  M. LLUNELL(9), M. CAUSA'(10), Y. NOEL(8), L. MASCHIO(1,11), A. ERBA(1,11)  *
 *  M. RE'RAT(14), S. CASASSA(1,11), B.G. SEARLE(2), J.K. DESMARAIS(1)         *
 *                                                                             *
 *        CONTRIBUTIONS TO THE CODE HAVE ALSO BEEN GIVEN BY                    *
 *                                                                             *
 *  M. FERRABONE(1,11), M. DE LA PIERRE(1,11), M. FERRERO(1,11),               *
 *  J. BAIMA(1,11), E. ALBANESE(1,11), M.F. PEINTINGER(12), R. BAST(13),       *
 *  B. KIRTMAN(15), V. LACIVITA(1,11), R. DEMICHELIS(1,16)                     *
 *  G. BRANDEBURG(17), S. SALUSTRO(1,11), G. SANSONE(1,11)                     *
 *  M.T. RUGGIERO(18), L.E. DAGA(1), L. DONA'(1), A. COSSARD(1)                *
 *                                                                             *
 * (1) THEORETICAL CHEMISTRY GROUP - UNIVERSITA' DI TORINO - TORINO (ITALY)    *
 * (2) SCIENTIFIC COMPUTING DEPARTMENT - STFC DARESBURY (UK)                   *
 * (3) UNIVERSIDAD AUTONOMA DEL ESTADO DE MORELOS - CUERNAVACA (MEXICO)        *
 * (4) UNIVERSITE' DE LORRAINE - NANCY (FRANCE)                                *
 * (5) UNIVERSITAET STUTTGART- STUTTGART (GERMANY)                             *
 * (6) IMPERIAL COLLEGE - LONDON (UK)                                          *
 * (7) SCIENTIFIC COMPUTING DEPARTMENT - STFC RAL (UK)                         *
 * (8) UPMC - SORBONNE UNIVERSITES - PARIS (FRANCE)                            *
 * (9) UNIVERSIDAD DE BARCELONA - BARCELONA (SPAIN)                            *
 *(10) UNIVERSITA' DI NAPOLI "FEDERICO II" - NAPOLI (ITALY)                    *
 *(11) NIS - NANOSTRUCTURED INTERFACES AND SURFACES - TORINO (ITALY)           *
 *(12) MPI FUER CHEMISCHE ENERGIEKONVERSION - MUELHEIM AN DER RUHR (GERMANY)   *
 *(13) UNIVERSITY OF TROMSO - TROMSO (NORWAY)                                  *
 *(14) UNIVERSITE' DE PAU ET DES PAYS DE L'ADOUR - PAU (FRANCE)                *
 *(15) UNIVERSITY OF CALIFORNIA SANTA BARBARA - SANTA BARBARA (USA)            *
 *(16) CURTIN UNIVERSITY - PERTH (AUSTRALIA)                                   *
 *(17) UNIVERSITY COLLEGE LONDON - LONDON (UK)                                 *
 *(18) UNIVERSITY OF VERMONT - BURLINGTON (USA)                                *
 *                                                                             *
 *******************************************************************************
 EEEEEEEEEE STARTING  DATE 19 02 2026 TIME 19:11:56.2
 cof-1_z41_L080_incl                                                             

 CRYSTAL CALCULATION
 (INPUT ACCORDING TO THE INTERNATIONAL TABLES FOR X-RAY CRYSTALLOGRAPHY)
 CRYSTAL FAMILY                       :  TRICLINIC   
 CRYSTAL CLASS  (GROTH - 1921)        :  TRICLINIC PEDIAL                     

 SPACE GROUP (NONCENTROSYMMETRIC)     :  P 1             

 LATTICE PARAMETERS  (ANGSTROMS AND DEGREES) - CONVENTIONAL CELL
        A           B           C        ALPHA        BETA       GAMMA
    15.02361    15.02392     8.98944    39.58019    89.99997   119.99596


 NUMBER OF IRREDUCIBLE ATOMS IN THE CONVENTIONAL CELL:   42

 INPUT COORDINATES

 ATOM AT. N.              COORDINATES
   1   5     4.596310900000E-01 -8.081200000000E-02  5.011592600000E-01
   2   5     6.186867500000E-01  7.824765000000E-02  5.011592700000E-01
   3   5     4.603797700000E-01  7.973650000000E-02  4.987097400000E-01
   4   5     7.320580000000E-02  3.055029900000E-01  5.011592700000E-01
   5   5     2.323137700000E-01  3.054822300000E-01  5.011592600000E-01
   6   5     2.330470000000E-01  4.661274800000E-01  4.987097400000E-01
   7   1     7.505551900000E-01  3.922180000000E-03  4.960809000000E-01
   8   1    -5.561520000000E-02  3.865230400000E-01  4.953043300000E-01
   9   1     7.507584300000E-01  2.896155100000E-01  4.951848100000E-01
  10   1    -5.548597000000E-02  1.012096900000E-01  4.952146200000E-01
  11   1     5.361381600000E-01 -2.128158600000E-01  5.039075700000E-01
  12   1     1.537967500000E-01  5.931398400000E-01  5.046841900000E-01
  13   1     2.507002600000E-01 -2.133210200000E-01  5.048037800000E-01
  14   1     4.391517100000E-01  5.929947700000E-01  5.047737700000E-01
  15   1     5.385843000000E-01  2.890463200000E-01  4.960809400000E-01
  16   1     1.567121200000E-01  1.010789600000E-01  4.953042800000E-01
  17   1     2.536276100000E-01  4.366390000000E-03  4.951847200000E-01
  18   1     4.420687000000E-01  3.864826200000E-01  4.952147200000E-01
  19   6     7.386213600000E-01  1.393746300000E-01  4.986201100000E-01
  20   6     7.939639400000E-01  8.770428000000E-02  4.962004100000E-01
  21   6    -9.907280000000E-02  3.022324700000E-01  4.959913800000E-01
  22   6     7.937983700000E-01  2.483536700000E-01  4.966186900000E-01
  23   6    -9.873153000000E-02  1.419032900000E-01  4.950055100000E-01
  24   6    -4.462703000000E-02  2.486787600000E-01  4.966485300000E-01
  25   6     3.999256900000E-01 -2.000903400000E-01  5.013683900000E-01
  26   6     4.523203500000E-01 -2.561905500000E-01  5.037880400000E-01
  27   6     2.378768900000E-01  6.367881100000E-01  5.039971500000E-01
  28   6     2.915586200000E-01 -2.558865100000E-01  5.033698500000E-01
  29   6     3.984920600000E-01  6.361424200000E-01  5.049829200000E-01
  30   6     2.912081500000E-01  5.825210800000E-01  5.033399400000E-01
  31   6     4.007759200000E-01  1.393054900000E-01  4.986201100000E-01
  32   6     4.546850400000E-01  2.485444000000E-01  4.962004600000E-01
  33   6     2.403624700000E-01  1.412192300000E-01  4.959913300000E-01
  34   6     2.936335400000E-01  8.735151000000E-02  4.966186200000E-01
  35   6     4.015850700000E-01  3.027512800000E-01  4.950055800000E-01
  36   6     2.932970600000E-01  2.486013600000E-01  4.966485300000E-01
  37   8     4.072381700000E-01 -2.665760000000E-02  4.993669200000E-01
  38   8     5.645946500000E-01 -2.982731000000E-02  5.045348300000E-01
  39   8     5.669889500000E-01  1.339114800000E-01  4.967381700000E-01
  40   8     1.268259900000E-01  4.126228700000E-01  4.993669400000E-01
  41   8     1.252569200000E-01  2.504899700000E-01  5.045348300000E-01
  42   8     2.865733800000E-01  4.142234500000E-01  4.967381500000E-01

 *******************************************************************************

 << INFORMATION >>: FROM NOW ON, ALL COORDINATES REFER TO THE PRIMITIVE CELL

 *******************************************************************************

 LATTICE PARAMETERS  (ANGSTROMS AND DEGREES) - PRIMITIVE CELL
       A          B          C        ALPHA      BETA     GAMMA        VOLUME
   15.02361   15.02392    8.98944    39.58019  89.99997 119.99596    801.483602

 COORDINATES OF THE EQUIVALENT ATOMS (FRACTIONAL UNITS)

 N. ATOM EQUIV AT. N.          X                  Y                  Z

   1   1   1    5 B     4.59631090000E-01 -8.08120000000E-02 -4.98840740000E-01

   2   2   1    5 B    -3.81313250000E-01  7.82476500000E-02 -4.98840730000E-01

   3   3   1    5 B     4.60379770000E-01  7.97365000000E-02  4.98709740000E-01

   4   4   1    5 B     7.32058000000E-02  3.05502990000E-01 -4.98840730000E-01

   5   5   1    5 B     2.32313770000E-01  3.05482230000E-01 -4.98840740000E-01

   6   6   1    5 B     2.33047000000E-01  4.66127480000E-01  4.98709740000E-01

   7   7   1    1 H    -2.49444810000E-01  3.92218000000E-03  4.96080900000E-01

   8   8   1    1 H    -5.56152000000E-02  3.86523040000E-01  4.95304330000E-01

   9   9   1    1 H    -2.49241570000E-01  2.89615510000E-01  4.95184810000E-01

  10  10   1    1 H    -5.54859700000E-02  1.01209690000E-01  4.95214620000E-01

  11  11   1    1 H    -4.63861840000E-01 -2.12815860000E-01 -4.96092430000E-01

  12  12   1    1 H     1.53796750000E-01 -4.06860160000E-01 -4.95315810000E-01

  13  13   1    1 H     2.50700260000E-01 -2.13321020000E-01 -4.95196220000E-01

  14  14   1    1 H     4.39151710000E-01 -4.07005230000E-01 -4.95226230000E-01

  15  15   1    1 H    -4.61415700000E-01  2.89046320000E-01  4.96080940000E-01

  16  16   1    1 H     1.56712120000E-01  1.01078960000E-01  4.95304280000E-01

  17  17   1    1 H     2.53627610000E-01  4.36639000000E-03  4.95184720000E-01

  18  18   1    1 H     4.42068700000E-01  3.86482620000E-01  4.95214720000E-01

  19  19   1    6 C    -2.61378640000E-01  1.39374630000E-01  4.98620110000E-01

  20  20   1    6 C    -2.06036060000E-01  8.77042800000E-02  4.96200410000E-01

  21  21   1    6 C    -9.90728000000E-02  3.02232470000E-01  4.95991380000E-01

  22  22   1    6 C    -2.06201630000E-01  2.48353670000E-01  4.96618690000E-01

  23  23   1    6 C    -9.87315300000E-02  1.41903290000E-01  4.95005510000E-01

  24  24   1    6 C    -4.46270300000E-02  2.48678760000E-01  4.96648530000E-01

  25  25   1    6 C     3.99925690000E-01 -2.00090340000E-01 -4.98631610000E-01

  26  26   1    6 C     4.52320350000E-01 -2.56190550000E-01 -4.96211960000E-01

  27  27   1    6 C     2.37876890000E-01 -3.63211890000E-01 -4.96002850000E-01

  28  28   1    6 C     2.91558620000E-01 -2.55886510000E-01 -4.96630150000E-01

  29  29   1    6 C     3.98492060000E-01 -3.63857580000E-01 -4.95017080000E-01

  30  30   1    6 C     2.91208150000E-01 -4.17478920000E-01 -4.96660060000E-01

  31  31   1    6 C     4.00775920000E-01  1.39305490000E-01  4.98620110000E-01

  32  32   1    6 C     4.54685040000E-01  2.48544400000E-01  4.96200460000E-01

  33  33   1    6 C     2.40362470000E-01  1.41219230000E-01  4.95991330000E-01

  34  34   1    6 C     2.93633540000E-01  8.73515100000E-02  4.96618620000E-01

  35  35   1    6 C     4.01585070000E-01  3.02751280000E-01  4.95005580000E-01

  36  36   1    6 C     2.93297060000E-01  2.48601360000E-01  4.96648530000E-01

  37  37   1    8 O     4.07238170000E-01 -2.66576000000E-02  4.99366920000E-01

  38  38   1    8 O    -4.35405350000E-01 -2.98273100000E-02 -4.95465170000E-01

  39  39   1    8 O    -4.33011050000E-01  1.33911480000E-01  4.96738170000E-01

  40  40   1    8 O     1.26825990000E-01  4.12622870000E-01  4.99366940000E-01

  41  41   1    8 O     1.25256920000E-01  2.50489970000E-01 -4.95465170000E-01

  42  42   1    8 O     2.86573380000E-01  4.14223450000E-01  4.96738150000E-01

 NUMBER OF SYMMETRY OPERATORS         :    1
 *******************************************************************************
 * GEOMETRY EDITING - INPUT COORDINATES ARE GIVEN IN ANGSTROM         
 *******************************************************************************

 GCALCO - MAX INDICES DIRECT LATTICE VECTOR     9    15    22
 NO.OF VECTORS CREATED 6999 STARS 3500 RMAX   219.54611 BOHR

 GEOMETRY FOR WAVE FUNCTION - DIMENSIONALITY OF THE SYSTEM    3
 (NON PERIODIC DIRECTION: LATTICE PARAMETER FORMALLY SET TO 500)
 *******************************************************************************
 LATTICE PARAMETERS (ANGSTROMS AND DEGREES) - BOHR = 0.5291772083 ANGSTROM
 PRIMITIVE CELL - CENTRING CODE 1/0 VOLUME=   801.483602 - DENSITY  0.808 g/cm^3
         A              B              C           ALPHA      BETA       GAMMA 
    15.02361100    15.02391600     8.98943800    39.580191  89.999974 119.995964
 *******************************************************************************
 ATOMS IN THE ASYMMETRIC UNIT   42 - ATOMS IN THE UNIT CELL:   42
     ATOM                 X/A                 Y/B                 Z/C    
 *******************************************************************************
      1 T   5 B     4.596310900000E-01 -8.081200000000E-02 -4.988407400000E-01
      2 T   5 B    -3.813132500000E-01  7.824765000000E-02 -4.988407300000E-01
      3 T   5 B     4.603797700000E-01  7.973650000000E-02  4.987097400000E-01
      4 T   5 B     7.320580000000E-02  3.055029900000E-01 -4.988407300000E-01
      5 T   5 B     2.323137700000E-01  3.054822300000E-01 -4.988407400000E-01
      6 T   5 B     2.330470000000E-01  4.661274800000E-01  4.987097400000E-01
      7 T   1 H    -2.494448100000E-01  3.922180000000E-03  4.960809000000E-01
      8 T   1 H    -5.561520000000E-02  3.865230400000E-01  4.953043300000E-01
      9 T   1 H    -2.492415700000E-01  2.896155100000E-01  4.951848100000E-01
     10 T   1 H    -5.548597000000E-02  1.012096900000E-01  4.952146200000E-01
     11 T   1 H    -4.638618400000E-01 -2.128158600000E-01 -4.960924300000E-01
     12 T   1 H     1.537967500000E-01 -4.068601600000E-01 -4.953158100000E-01
     13 T   1 H     2.507002600000E-01 -2.133210200000E-01 -4.951962200000E-01
     14 T   1 H     4.391517100000E-01 -4.070052300000E-01 -4.952262300000E-01
     15 T   1 H    -4.614157000000E-01  2.890463200000E-01  4.960809400000E-01
     16 T   1 H     1.567121200000E-01  1.010789600000E-01  4.953042800000E-01
     17 T   1 H     2.536276100000E-01  4.366390000000E-03  4.951847200000E-01
     18 T   1 H     4.420687000000E-01  3.864826200000E-01  4.952147200000E-01
     19 T   6 C    -2.613786400000E-01  1.393746300000E-01  4.986201100000E-01
     20 T   6 C    -2.060360600000E-01  8.770428000000E-02  4.962004100000E-01
     21 T   6 C    -9.907280000000E-02  3.022324700000E-01  4.959913800000E-01
     22 T   6 C    -2.062016300000E-01  2.483536700000E-01  4.966186900000E-01
     23 T   6 C    -9.873153000000E-02  1.419032900000E-01  4.950055100000E-01
     24 T   6 C    -4.462703000000E-02  2.486787600000E-01  4.966485300000E-01
     25 T   6 C     3.999256900000E-01 -2.000903400000E-01 -4.986316100000E-01
     26 T   6 C     4.523203500000E-01 -2.561905500000E-01 -4.962119600000E-01
     27 T   6 C     2.378768900000E-01 -3.632118900000E-01 -4.960028500000E-01
     28 T   6 C     2.915586200000E-01 -2.558865100000E-01 -4.966301500000E-01
     29 T   6 C     3.984920600000E-01 -3.638575800000E-01 -4.950170800000E-01
     30 T   6 C     2.912081500000E-01 -4.174789200000E-01 -4.966600600000E-01
     31 T   6 C     4.007759200000E-01  1.393054900000E-01  4.986201100000E-01
     32 T   6 C     4.546850400000E-01  2.485444000000E-01  4.962004600000E-01
     33 T   6 C     2.403624700000E-01  1.412192300000E-01  4.959913300000E-01
     34 T   6 C     2.936335400000E-01  8.735151000000E-02  4.966186200000E-01
     35 T   6 C     4.015850700000E-01  3.027512800000E-01  4.950055800000E-01
     36 T   6 C     2.932970600000E-01  2.486013600000E-01  4.966485300000E-01
     37 T   8 O     4.072381700000E-01 -2.665760000000E-02  4.993669200000E-01
     38 T   8 O    -4.354053500000E-01 -2.982731000000E-02 -4.954651700000E-01
     39 T   8 O    -4.330110500000E-01  1.339114800000E-01  4.967381700000E-01
     40 T   8 O     1.268259900000E-01  4.126228700000E-01  4.993669400000E-01
     41 T   8 O     1.252569200000E-01  2.504899700000E-01 -4.954651700000E-01
     42 T   8 O     2.865733800000E-01  4.142234500000E-01  4.967381500000E-01

 T = ATOM BELONGING TO THE ASYMMETRIC UNIT

 ****    1 SYMMOPS - TRANSLATORS IN FRACTIONAL UNITS
 **** MATRICES AND TRANSLATORS IN THE CRYSTALLOGRAPHIC REFERENCE FRAME
   V INV                    ROTATION MATRICES                   TRANSLATORS
   1   1  1.00 -0.00  0.00  0.00  1.00  0.00 -0.00  0.00  1.00  0.00  0.00  0.00

 DIRECT LATTICE VECTORS CARTESIAN COMPONENTS (ANGSTROM)
          X                    Y                    Z
   0.130113578931E+02  -0.751088897922E+01   0.000000000000E+00
   0.000000000000E+00   0.150239160000E+02   0.000000000000E+00
   0.399950322057E+01   0.692846168487E+01   0.410004734433E+01


 CARTESIAN COORDINATES - PRIMITIVE CELL
 *******************************************************************************
 *      ATOM          X(ANGSTROM)         Y(ANGSTROM)         Z(ANGSTROM)
 *******************************************************************************
    1     5 B    -1.419375598925E-02 -2.709542699156E-02 -6.145317995612E+00
    2     5 B     2.055336401182E+00  1.167954059106E+00 -6.145317954611E+00
    3     5 B    -1.027097507030E+00  6.108191269358E-01  6.144780889410E+00
    4     5 B    -1.042608242540E+00  5.838117384162E-01 -2.045270610281E+00
    5     5 B     1.027602458773E+00 -6.115425257431E-01 -2.045270651281E+00
    6     5 B     1.027345913592E+00  1.779499601463E+00 -2.055313799252E+00
    7     1 H    -5.261041760833E+00 -1.558905399416E+00 -2.066092167713E+00
    8     1 H    -2.742161229068E+00  2.728044665666E+00 -2.069276141479E+00
    9     1 H    -1.262478026724E+00 -5.369862161172E+00  2.030281165193E+00
   10     1 H    -2.740838566721E+00 -1.560071322893E+00 -2.069643956726E+00
   11     1 H    -4.020092464086E+00  3.777991469289E+00  2.066044894167E+00
   12     1 H     2.008737974358E-02  4.324356206303E+00 -2.030818271396E+00
   13     1 H     5.280915150609E+00 -1.590385257327E+00  2.069719397597E+00
   14     1 H     3.733301166361E+00  2.179527914178E+00 -2.030450989154E+00
   15     1 H    -4.019567492981E+00 -3.778588486859E+00  2.033955340620E+00
   16     1 H     2.050532195058E-02 -3.155210489149E+00 -2.069276346481E+00
   17     1 H     1.281029267116E+00 -5.336961869608E+00 -2.069766548142E+00
   18     1 H     3.733023715961E+00 -1.011231980113E+00 -2.069643546721E+00
   19     6 C    -5.406161515426E+00  5.833473228000E-01 -2.055681286495E+00
   20     6 C    -4.695756998263E+00 -6.253804482329E-01 -2.065602171054E+00
   21     6 C    -3.304855757153E+00  1.792835630898E+00 -2.066459203951E+00
   22     6 C    -4.696238376583E+00  1.792344107420E+00 -2.063887203251E+00
   23     6 C    -3.304358361285E+00 -6.253303053740E-01 -2.070501317626E+00
   24     6 C    -2.593814084379E+00  5.838660951080E-01 -2.063764857839E+00
   25     6 C    -7.902056674288E-01 -1.369233607719E+00 -6.144460552711E+00
   26     6 C     3.900700624056E+00  4.339617212481E+00 -2.034492528823E+00
   27     6 C     1.111336354289E+00  4.343847421116E+00 -2.033635167923E+00
   28     6 C     1.807299667267E+00  5.548751176647E+00 -2.036207127622E+00
   29     6 C     3.205100404503E+00  3.134613788221E+00 -2.029593464252E+00
   30     6 C     1.802619951525E+00  3.123425493541E+00 -2.036329760038E+00
   31     6 C     3.209368445254E+00 -4.391060817994E+00 -2.055681286495E+00
   32     6 C     3.901121901306E+00 -3.171534477826E+00 -2.065601966052E+00
   33     6 C     1.111657822368E+00 -3.175674736773E+00 -2.066459408953E+00
   34     6 C     1.807295627859E+00 -4.380745775009E+00 -2.063887490255E+00
   35     6 C     3.205440261117E+00 -1.966585566912E+00 -2.070501030623E+00
   36     6 C     1.803037191296E+00 -1.955407079383E+00 -2.063764857839E+00
   37     8 O    -1.715913490114E+00 -5.839429901318E-01  6.147475358523E+00
   38     8 O     1.365025291986E+00 -2.608786575924E-02 -6.131477998798E+00
   39     8 O     3.521473880703E-01  6.103498134082E-01  6.136697359067E+00
   40     8 O    -3.521051897637E-01  1.778018433600E+00 -2.052619248137E+00
   41     8 O    -3.518519283944E-01 -6.102619984090E-01 -2.031430654467E+00
   42     8 O     1.715911419937E+00  5.840070312692E-01 -2.063397411596E+00

 *******************************************************************************
 STARTING BASIS SET HANDLING 
 *******************************************************************************

 Loading internal basis set: SOLDEF2MSVP         

 Please cite in your publication:
 L. Dona', J. G. Brandenburg and B. Civalleri, J. Chem. Phys., 151, 121101 (2019
 )                                                                              
                                                                                
                    

 *******************************************************************************
 LOCAL ATOMIC FUNCTIONS BASIS SET
 *******************************************************************************
   ATOM   X(AU)   Y(AU)   Z(AU)  N. TYPE  EXPONENT  S COEF   P COEF   D/F/G COEF
 *******************************************************************************
   1 B   -0.027  -0.051 -11.613
                                  1 S  
                                         2.410E+03 1.755E-03 0.000E+00 0.000E+00
                                         3.619E+02 1.344E-02 0.000E+00 0.000E+00
                                         8.231E+01 6.637E-02 0.000E+00 0.000E+00
                                         2.311E+01 2.303E-01 0.000E+00 0.000E+00
                                         7.252E+00 5.150E-01 0.000E+00 0.000E+00
                                  2 S  
                                         2.367E+00 1.000E+00 0.000E+00 0.000E+00
                                  3 S  
                                         5.533E-01 1.000E+00 0.000E+00 0.000E+00
                                  4 S  
                                         1.716E-01 1.000E+00 0.000E+00 0.000E+00
                           5-     7 P  
                                         6.002E+00 0.000E+00-3.555E-02 0.000E+00
                                         1.240E+00 0.000E+00-1.983E-01 0.000E+00
                                         3.367E-01 0.000E+00-5.048E-01 0.000E+00
                           8-    10 P  
                                         1.256E-01 0.000E+00 1.000E+00 0.000E+00
                          11-    15 D  
                                         8.880E-01 0.000E+00 0.000E+00 1.000E+00
   2 B    3.884   2.207 -11.613
   3 B   -1.941   1.154  11.612
   4 B   -1.970   1.103  -3.865
   5 B    1.942  -1.156  -3.865
   6 B    1.941   3.363  -3.884
   7 H   -9.942  -2.946  -3.904
                                 91 S  
                                         1.874E+01 1.968E-02 0.000E+00 0.000E+00
                                         2.826E+00 1.380E-01 0.000E+00 0.000E+00
                                         6.401E-01 4.783E-01 0.000E+00 0.000E+00
                                 92 S  
                                         1.756E-01 1.000E+00 0.000E+00 0.000E+00
   8 H   -5.182   5.155  -3.910
   9 H   -2.386 -10.148   3.837
  10 H   -5.179  -2.948  -3.911
  11 H   -7.597   7.139   3.904
  12 H    0.038   8.172  -3.838
  13 H    9.979  -3.005   3.911
  14 H    7.055   4.119  -3.837
  15 H   -7.596  -7.140   3.844
  16 H    0.039  -5.962  -3.910
  17 H    2.421 -10.085  -3.911
  18 H    7.054  -1.911  -3.911
  19 C  -10.216   1.102  -3.885
                                115 S  
                                         3.624E+03 1.634E-03 0.000E+00 0.000E+00
                                         5.440E+02 1.252E-02 0.000E+00 0.000E+00
                                         1.237E+02 6.211E-02 0.000E+00 0.000E+00
                                         3.476E+01 2.182E-01 0.000E+00 0.000E+00
                                         1.093E+01 4.980E-01 0.000E+00 0.000E+00
                                116 S  
                                         3.574E+00 1.000E+00 0.000E+00 0.000E+00
                                117 S  
                                         7.742E-01 1.000E+00 0.000E+00 0.000E+00
                                118 S  
                                         2.330E-01 1.000E+00 0.000E+00 0.000E+00
                         119-   121 P  
                                         9.443E+00 0.000E+00 3.790E-02 0.000E+00
                                         2.002E+00 0.000E+00 2.082E-01 0.000E+00
                                         5.463E-01 0.000E+00 5.047E-01 0.000E+00
                         122-   124 P  
                                         1.820E-01 0.000E+00 1.000E+00 0.000E+00
                         125-   129 D  
                                         8.880E-01 0.000E+00 0.000E+00 1.000E+00
  20 C   -8.874  -1.182  -3.903
  21 C   -6.245   3.388  -3.905
  22 C   -8.875   3.387  -3.900
  23 C   -6.244  -1.182  -3.913
  24 C   -4.902   1.103  -3.900
  25 C   -1.493  -2.587 -11.611
  26 C    7.371   8.201  -3.845
  27 C    2.100   8.209  -3.843
  28 C    3.415  10.486  -3.848
  29 C    6.057   5.924  -3.835
  30 C    3.406   5.902  -3.848
  31 C    6.065  -8.298  -3.885
  32 C    7.372  -5.993  -3.903
  33 C    2.101  -6.001  -3.905
  34 C    3.415  -8.278  -3.900
  35 C    6.057  -3.716  -3.913
  36 C    3.407  -3.695  -3.900
  37 O   -3.243  -1.103  11.617
                                385 S  
                                         6.773E+03 1.727E-03 0.000E+00 0.000E+00
                                         1.017E+03 1.325E-02 0.000E+00 0.000E+00
                                         2.313E+02 6.603E-02 0.000E+00 0.000E+00
                                         6.501E+01 2.353E-01 0.000E+00 0.000E+00
                                         2.050E+01 5.498E-01 0.000E+00 0.000E+00
                                386 S  
                                         6.716E+00 1.000E+00 0.000E+00 0.000E+00
                                387 S  
                                         1.147E+00 1.000E+00 0.000E+00 0.000E+00
                                388 S  
                                         3.342E-01 1.000E+00 0.000E+00 0.000E+00
                         389-   391 P  
                                         1.769E+01 0.000E+00 4.359E-02 0.000E+00
                                         3.854E+00 0.000E+00 2.318E-01 0.000E+00
                                         1.047E+00 0.000E+00 5.146E-01 0.000E+00
                         392-   394 P  
                                         2.759E-01 0.000E+00 1.000E+00 0.000E+00
                         395-   399 D  
                                         8.000E-01 0.000E+00 0.000E+00 1.000E+00
  38 O    2.580  -0.049 -11.587
  39 O    0.665   1.153  11.597
  40 O   -0.665   3.360  -3.879
  41 O   -0.665  -1.153  -3.839
  42 O    3.243   1.104  -3.899

 *******************************************************************************
 FINISHED BASIS SET HANDLING 
 *******************************************************************************

 INFORMATION **** SET_MPP **** PCRYSTAL CALCULATION
 INFORMATION **** READM2 **** NEW DEFAULT: FOCK/KS MATRIX MIXING SET TO 30 %
 INFORMATION **** READM2 **** NEW DEFAULT: FULL DIRECT SCF MODE
 INFORMATION **** READM2 **** NEW DEFAULT: COULOMB BIPOLAR BUFFER SET TO 32 Mb
 INFORMATION **** READM2 **** NEW DEFAULT: EXCHANGE BIPOLAR BUFFER SET TO 32 Mb

 *******************************************************************************
 NEW DEFAULT: DFT INTEGRATION GRID INCREASED TO XLGRID
 NEW DEFAULT: DIIS ACCELERATOR ACTIVE
 USE KEYWORD NODIIS TO TURN IT OFF
 *******************************************************************************

 WARNING **** RDDFTP **** HSEsol-HJS ACTIVE
 RANGE SEPARATION - OMEGA:   0.110000000000000     
 WARNING **** RDDFTP **** HSEsol-3c has to be combined with sol-def2-mSVP basis set
 *******************************************************************************
 N. OF ATOMS PER CELL        42  COULOMB OVERLAP TOL         (T1) 10**   -6
 NUMBER OF SHELLS           234  COULOMB PENETRATION TOL     (T2) 10**   -6
 NUMBER OF AO               474  EXCHANGE OVERLAP TOL        (T3) 10**   -6
 N. OF ELECTRONS PER CELL   198  EXCHANGE PSEUDO OVP (F(G))  (T4) 10**   -6
 CORE ELECTRONS PER CELL     60  EXCHANGE PSEUDO OVP (P(G))  (T5) 10**  -12
 N. OF SYMMETRY OPERATORS     1  POLE ORDER IN MONO ZONE                  4
 *******************************************************************************
 TYPE OF CALCULATION :  RESTRICTED CLOSED SHELL
 KOHN-SHAM HAMILTONIAN

 (EXCHANGE)[CORRELATION] FUNCTIONAL:(HSEsol GGA)[PBEsol]

 RANGE-SEPARATED HYBRID FUNCTIONAL 
 OMEGA (SHORT-RANGE)[LONG-RANGE]:(    0.1100)[    0.0000]

 HYBRID EXCHANGE - PERCENTAGE OF FOCK EXCHANGE    25.0000

 CAPPA:IS1  2;IS2  2;IS3  8; K PTS MONK NET  20; SYMMOPS:K SPACE   2;G SPACE   1

 *******************************************************************************
 MAX NUMBER OF SCF CYCLES      50  CONVERGENCE ON DELTAP        10**-16
 WEIGHT OF F(I) IN F(I+1)      30% CONVERGENCE ON ENERGY        10**- 6
 SHRINK. FACT.(MONKH.)    2  2  8  NUMBER OF K POINTS IN THE IBZ     20
 SHRINKING FACTOR(GILAT NET)    8  NUMBER OF K POINTS(GILAT NET)   1028
 *******************************************************************************
 *** K POINTS COORDINATES (OBLIQUE COORDINATES IN UNITS OF IS =  2)
   1-R(  0  0  0)   2-R(  1  0  0)   3-R(  0  1  0)   4-R(  1  1  0)
   5-C(  0  0  1)   6-C(  1  0  1)   7-C(  0  1  1)   8-C(  1  1  1)
   9-C(  0  0  2)  10-C(  1  0  2)  11-C(  0  1  2)  12-C(  1  1  2)
  13-C(  0  0  3)  14-C(  1  0  3)  15-C(  0  1  3)  16-C(  1  1  3)
  17-R(  0  0  4)  18-R(  1  0  4)  19-R(  0  1  4)  20-R(  1  1  4)

 DIRECT LATTICE VECTORS COMPON. (A.U.)     RECIP. LATTICE VECTORS COMPON. (A.U.) 
        X            Y            Z              X            Y            Z
   24.5879030  -14.1935232    0.0000000      0.2555397    0.0000000   -0.2492732
    0.0000000   28.3910867    0.0000000      0.1277517    0.2213084   -0.4985966
    7.5579658   13.0928951    7.7479666      0.0000000    0.0000000    0.8109464

 DISK SPACE FOR EIGENVECTORS (FTN 10)     7189632 REALS

 SYMMETRY ADAPTION OF THE BLOCH FUNCTIONS DISABLED
 TTTTTTTTTTTTTTTTTTTTTTTTTTTTTT gordsh1     TELAPSE        0.04 TCPU        0.04

 MATRIX SIZE: P(G)  287288, F(G)   56826, P(G) IRR  144703, F(G) IRR   57306
 MAX G-VECTOR INDEX FOR 1- AND 2-ELECTRON INTEGRALS  55

 TTTTTTTTTTTTTTTTTTTTTTTTTTTTTT INPUT       TELAPSE        0.41 TCPU        0.40

 NEIGHBORS OF THE NON-EQUIVALENT ATOMS

 N = NUMBER OF NEIGHBORS AT DISTANCE R
    ATOM  N     R/ANG      R/AU   NEIGHBORS (ATOM LABELS AND CELL INDICES)
   1 B    1     1.3791     2.6061   37 O    1 2-3
   1 B    1     1.3793     2.6065   38 O    0 0 0
   1 B    1     1.5503     2.9297   25 C    0 0 0
   1 B    1     2.3895     4.5155    3 B    1 2-3
   1 B    1     2.3898     4.5160    2 B    0 0 0
   1 B    1     2.5632     4.8437   26 C    0 0-1

   2 B    1     1.3793     2.6065   39 O    1 2-3
   2 B    1     1.3793     2.6065   38 O    0 0 0
   2 B    1     1.5504     2.9298   19 C    1 1-1
   2 B    1     2.3895     4.5156    3 B    1 2-3
   2 B    1     2.3898     4.5160    1 B    0 0 0
   2 B    1     2.5634     4.8440   22 C    1 1-1

   3 B    1     1.3791     2.6061   37 O    0 0 0
   3 B    1     1.3793     2.6064   39 O    0 0 0
   3 B    1     1.5502     2.9294   31 C   -1-1 2
   3 B    1     2.3895     4.5155    1 B   -1-2 3
   3 B    1     2.3895     4.5156    2 B   -1-2 3
   3 B    1     2.5629     4.8433   32 C   -1-1 2

   4 B    1     1.3795     2.6068   40 O    0 0 0
   4 B    1     1.3795     2.6070   41 O    0 0 0
   4 B    1     1.5513     2.9316   24 C    0 0 0
   4 B    1     2.3905     4.5174    6 B    0 0 0
   4 B    1     2.3905     4.5175    5 B    0 0 0
   4 B    1     2.5648     4.8468   23 C    0 0 0

   5 B    1     1.3795     2.6069   41 O    0 0 0
   5 B    1     1.3797     2.6072   42 O    0 0 0
   5 B    1     1.5516     2.9322   36 C    0 0 0
   5 B    1     2.3905     4.5175    4 B    0 0 0
   5 B    1     2.3911     4.5185    6 B    0 0 0
   5 B    1     2.5651     4.8473   35 C    0 0 0

   6 B    1     1.3795     2.6068   40 O    0 0 0
   6 B    1     1.3796     2.6071   42 O    0 0 0
   6 B    1     1.5516     2.9322   30 C    0 0 0
   6 B    1     2.3905     4.5174    4 B    0 0 0
   6 B    1     2.3911     4.5185    5 B    0 0 0
   6 B    1     2.5651     4.8473   29 C    0 0 0

   7 H    1     1.0913     2.0623   20 C    0 0 0
   7 H    1     2.1472     4.0576   19 C    0 0 0
   7 H    1     2.1680     4.0969   23 C    0 0 0
   7 H    1     2.5202     4.7625   10 H    0 0 0
   7 H    1     2.5676     4.8520   38 O   -1-1 1
   7 H    1     2.7321     5.1630    2 B   -1-1 1

   8 H    1     1.0914     2.0625   21 C    0 0 0
   8 H    1     2.1493     4.0616   24 C    0 0 0
   8 H    1     2.1666     4.0942   22 C    0 0 0
   8 H    1     2.5198     4.7618    9 H    0 1-1
   8 H    1     2.5720     4.8604   40 O    0 0 0
   8 H    1     2.7362     5.1707    4 B    0 0 0

   9 H    1     1.0914     2.0624   22 C    0-1 1
   9 H    1     2.1471     4.0575   19 C    0-1 1
   9 H    1     2.1680     4.0970   21 C    0-1 1
   9 H    1     2.5198     4.7618    8 H    0-1 1
   9 H    1     2.5665     4.8500   39 O    0 0-1
   9 H    1     2.7315     5.1618    2 B   -1-2 2

  10 H    1     1.0915     2.0626   23 C    0 0 0
  10 H    1     2.1490     4.0610   24 C    0 0 0
  10 H    1     2.1669     4.0948   20 C    0 0 0
  10 H    1     2.5202     4.7625    7 H    0 0 0
  10 H    1     2.5712     4.8588   41 O    0 0 0
  10 H    1     2.7351     5.1686    4 B    0 0 0

  11 H    1     1.0913     2.0623   26 C   -1-1 1
  11 H    1     2.1469     4.0571   25 C   -1-1 2
  11 H    1     2.1680     4.0968   29 C   -1-1 1
  11 H    1     2.5198     4.7617   14 H   -1-1 1
  11 H    1     2.5670     4.8510   38 O   -1-1 2
  11 H    1     2.7310     5.1609    1 B   -1-1 2

  12 H    1     1.0914     2.0625   27 C    0 0 0
  12 H    1     2.1493     4.0617   30 C    0 0 0
  12 H    1     2.1664     4.0939   28 C    0 0 0
  12 H    1     2.5192     4.7606   13 H    0 1-1
  12 H    1     2.5735     4.8632   40 O    0 0 0
  12 H    1     2.7371     5.1723    6 B    0 0 0

  13 H    1     1.0914     2.0624   28 C    0-1 1
  13 H    1     2.1475     4.0581   25 C    0-1 2
  13 H    1     2.1679     4.0967   27 C    0-1 1
  13 H    1     2.5192     4.7606   12 H    0-1 1
  13 H    1     2.5675     4.8519   37 O    1 1-1
  13 H    1     2.7328     5.1643    1 B    0-1 2

  14 H    1     1.0914     2.0625   29 C    0 0 0
  14 H    1     2.1491     4.0612   30 C    0 0 0
  14 H    1     2.1666     4.0942   26 C    0 0 0
  14 H    1     2.5198     4.7617   11 H    1 1-1
  14 H    1     2.5723     4.8609   42 O    0 0 0
  14 H    1     2.7355     5.1693    6 B    0 0 0

  15 H    1     1.0914     2.0624   32 C   -1-1 1
  15 H    1     2.1475     4.0582   31 C   -1-1 1
  15 H    1     2.1678     4.0966   35 C   -1-1 1
  15 H    1     2.5200     4.7621   18 H   -1-1 1
  15 H    1     2.5667     4.8503   39 O    0 0-1
  15 H    1     2.7315     5.1618    3 B    0 0-1

  16 H    1     1.0913     2.0623   33 C    0 0 0
  16 H    1     2.1487     4.0605   36 C    0 0 0
  16 H    1     2.1667     4.0945   34 C    0 0 0
  16 H    1     2.5197     4.7616   17 H    0 0 0
  16 H    1     2.5723     4.8610   41 O    0 0 0
  16 H    1     2.7359     5.1701    5 B    0 0 0

  17 H    1     1.0915     2.0626   34 C    0 0 0
  17 H    1     2.1479     4.0589   31 C    0 0 0
  17 H    1     2.1679     4.0968   33 C    0 0 0
  17 H    1     2.5197     4.7616   16 H    0 0 0
  17 H    1     2.5677     4.8522   37 O    1 1-2
  17 H    1     2.7331     5.1648    3 B    1 1-2

  18 H    1     1.0914     2.0624   35 C    0 0 0
  18 H    1     2.1486     4.0602   36 C    0 0 0
  18 H    1     2.1668     4.0947   32 C    0 0 0
  18 H    1     2.5200     4.7621   15 H    1 1-1
  18 H    1     2.5717     4.8598   42 O    0 0 0
  18 H    1     2.7349     5.1682    5 B    0 0 0

  19 C    1     1.4020     2.6495   22 C    0 0 0
  19 C    1     1.4021     2.6495   20 C    0 0 0
  19 C    1     1.5504     2.9298    2 B   -1-1 1
  19 C    1     2.1471     4.0575    9 H    0 1-1
  19 C    1     2.1472     4.0576    7 H    0 0 0
  19 C    1     2.4246     4.5817   21 C    0 0 0

  20 C    1     1.0913     2.0623    7 H    0 0 0
  20 C    1     1.3914     2.6294   23 C    0 0 0
  20 C    1     1.4021     2.6495   19 C    0 0 0
  20 C    1     2.1669     4.0948   10 H    0 0 0
  20 C    1     2.4177     4.5688   22 C    0 0 0
  20 C    1     2.4250     4.5825   24 C    0 0 0

  21 C    1     1.0914     2.0625    8 H    0 0 0
  21 C    1     1.3914     2.6293   22 C    0 0 0
  21 C    1     1.4026     2.6505   24 C    0 0 0
  21 C    1     2.1680     4.0970    9 H    0 1-1
  21 C    1     2.4182     4.5697   23 C    0 0 0
  21 C    1     2.4246     4.5817   19 C    0 0 0

  22 C    1     1.0914     2.0624    9 H    0 1-1
  22 C    1     1.3914     2.6293   21 C    0 0 0
  22 C    1     1.4020     2.6495   19 C    0 0 0
  22 C    1     2.1666     4.0942    8 H    0 0 0
  22 C    1     2.4177     4.5688   20 C    0 0 0
  22 C    1     2.4250     4.5826   24 C    0 0 0

  23 C    1     1.0915     2.0626   10 H    0 0 0
  23 C    1     1.3914     2.6294   20 C    0 0 0
  23 C    1     1.4025     2.6504   24 C    0 0 0
  23 C    1     2.1680     4.0969    7 H    0 0 0
  23 C    1     2.4182     4.5697   21 C    0 0 0
  23 C    1     2.4246     4.5818   19 C    0 0 0

  24 C    1     1.4025     2.6504   23 C    0 0 0
  24 C    1     1.4026     2.6505   21 C    0 0 0
  24 C    1     1.5513     2.9316    4 B    0 0 0
  24 C    1     2.1490     4.0610   10 H    0 0 0
  24 C    1     2.1493     4.0616    8 H    0 0 0
  24 C    1     2.4250     4.5825   20 C    0 0 0

  25 C    1     1.4020     2.6494   26 C    0 0-1
  25 C    1     1.4021     2.6495   28 C    0 0-1
  25 C    1     1.5503     2.9297    1 B    0 0 0
  25 C    1     2.1469     4.0571   11 H    1 1-2
  25 C    1     2.1475     4.0581   13 H    0 1-2
  25 C    1     2.4246     4.5818   27 C    0 0-1

  26 C    1     1.0913     2.0623   11 H    1 1-1
  26 C    1     1.3914     2.6293   29 C    0 0 0
  26 C    1     1.4020     2.6494   25 C    0 0 1
  26 C    1     2.1666     4.0942   14 H    0 0 0
  26 C    1     2.4175     4.5684   28 C    0 0 0
  26 C    1     2.4251     4.5828   30 C    0 0 0

  27 C    1     1.0914     2.0625   12 H    0 0 0
  27 C    1     1.3915     2.6295   28 C    0 0 0
  27 C    1     1.4026     2.6505   30 C    0 0 0
  27 C    1     2.1679     4.0967   13 H    0 1-1
  27 C    1     2.4179     4.5691   29 C    0 0 0
  27 C    1     2.4246     4.5818   25 C    0 0 1

  28 C    1     1.0914     2.0624   13 H    0 1-1
  28 C    1     1.3915     2.6295   27 C    0 0 0
  28 C    1     1.4021     2.6495   25 C    0 0 1
  28 C    1     2.1664     4.0939   12 H    0 0 0
  28 C    1     2.4175     4.5684   26 C    0 0 0
  28 C    1     2.4253     4.5832   30 C    0 0 0

  29 C    1     1.0914     2.0625   14 H    0 0 0
  29 C    1     1.3914     2.6293   26 C    0 0 0
  29 C    1     1.4025     2.6504   30 C    0 0 0
  29 C    1     2.1680     4.0968   11 H    1 1-1
  29 C    1     2.4179     4.5691   27 C    0 0 0
  29 C    1     2.4247     4.5819   25 C    0 0 1

  30 C    1     1.4025     2.6504   29 C    0 0 0
  30 C    1     1.4026     2.6505   27 C    0 0 0
  30 C    1     1.5516     2.9322    6 B    0 0 0
  30 C    1     2.1491     4.0612   14 H    0 0 0
  30 C    1     2.1493     4.0617   12 H    0 0 0
  30 C    1     2.4251     4.5828   26 C    0 0 0

  31 C    1     1.4021     2.6496   32 C    0 0 0
  31 C    1     1.4021     2.6497   34 C    0 0 0
  31 C    1     1.5502     2.9294    3 B    1 1-2
  31 C    1     2.1475     4.0582   15 H    1 1-1
  31 C    1     2.1479     4.0589   17 H    0 0 0
  31 C    1     2.4244     4.5814   33 C    0 0 0

  32 C    1     1.0914     2.0624   15 H    1 1-1
  32 C    1     1.3914     2.6293   35 C    0 0 0
  32 C    1     1.4021     2.6496   31 C    0 0 0
  32 C    1     2.1668     4.0947   18 H    0 0 0
  32 C    1     2.4179     4.5692   34 C    0 0 0
  32 C    1     2.4251     4.5827   36 C    0 0 0

  33 C    1     1.0913     2.0623   16 H    0 0 0
  33 C    1     1.3914     2.6294   34 C    0 0 0
  33 C    1     1.4025     2.6504   36 C    0 0 0
  33 C    1     2.1679     4.0968   17 H    0 0 0
  33 C    1     2.4178     4.5690   35 C    0 0 0
  33 C    1     2.4244     4.5814   31 C    0 0 0

  34 C    1     1.0915     2.0626   17 H    0 0 0
  34 C    1     1.3914     2.6294   33 C    0 0 0
  34 C    1     1.4021     2.6497   31 C    0 0 0
  34 C    1     2.1667     4.0945   16 H    0 0 0
  34 C    1     2.4179     4.5692   32 C    0 0 0
  34 C    1     2.4253     4.5832   36 C    0 0 0

  35 C    1     1.0914     2.0624   18 H    0 0 0
  35 C    1     1.3914     2.6293   32 C    0 0 0
  35 C    1     1.4025     2.6503   36 C    0 0 0
  35 C    1     2.1678     4.0966   15 H    1 1-1
  35 C    1     2.4178     4.5690   33 C    0 0 0
  35 C    1     2.4245     4.5817   31 C    0 0 0

  36 C    1     1.4025     2.6503   35 C    0 0 0
  36 C    1     1.4025     2.6504   33 C    0 0 0
  36 C    1     1.5516     2.9322    5 B    0 0 0
  36 C    1     2.1486     4.0602   18 H    0 0 0
  36 C    1     2.1487     4.0605   16 H    0 0 0
  36 C    1     2.4251     4.5827   32 C    0 0 0

  37 O    1     1.3791     2.6061    1 B   -1-2 3
  37 O    1     1.3791     2.6061    3 B    0 0 0
  37 O    1     2.3880     4.5126   38 O   -1-2 3
  37 O    1     2.3882     4.5130   39 O    0 0 0
  37 O    1     2.5383     4.7966   31 C   -1-1 2
  37 O    1     2.5384     4.7968   25 C   -1-2 3

  38 O    1     1.3793     2.6065    1 B    0 0 0
  38 O    1     1.3793     2.6065    2 B    0 0 0
  38 O    1     2.3880     4.5126   37 O    1 2-3
  38 O    1     2.3882     4.5131   39 O    1 2-3
  38 O    1     2.5391     4.7981   19 C    1 1-1
  38 O    1     2.5395     4.7990   25 C    0 0 0

  39 O    1     1.3793     2.6064    3 B    0 0 0
  39 O    1     1.3793     2.6065    2 B   -1-2 3
  39 O    1     2.3882     4.5130   37 O    0 0 0
  39 O    1     2.3882     4.5131   38 O   -1-2 3
  39 O    1     2.5390     4.7980   19 C    0-1 2
  39 O    1     2.5391     4.7982   31 C   -1-1 2

  40 O    1     1.3795     2.6068    6 B    0 0 0
  40 O    1     1.3795     2.6068    4 B    0 0 0
  40 O    1     2.3880     4.5126   42 O    0 0 0
  40 O    1     2.3884     4.5134   41 O    0 0 0
  40 O    1     2.5400     4.7998   24 C    0 0 0
  40 O    1     2.5403     4.8005   30 C    0 0 0

  41 O    1     1.3795     2.6069    5 B    0 0 0
  41 O    1     1.3795     2.6070    4 B    0 0 0
  41 O    1     2.3881     4.5128   42 O    0 0 0
  41 O    1     2.3884     4.5134   40 O    0 0 0
  41 O    1     2.5404     4.8006   24 C    0 0 0
  41 O    1     2.5405     4.8008   36 C    0 0 0

  42 O    1     1.3796     2.6071    6 B    0 0 0
  42 O    1     1.3797     2.6072    5 B    0 0 0
  42 O    1     2.3880     4.5126   40 O    0 0 0
  42 O    1     2.3881     4.5128   41 O    0 0 0
  42 O    1     2.5409     4.8016   36 C    0 0 0
  42 O    1     2.5410     4.8019   30 C    0 0 0


 SYMMETRY ALLOWED INTERNAL DEGREE(S) OF FREEDOM: 123
 TTTTTTTTTTTTTTTTTTTTTTTTTTTTTT SYMM        TELAPSE        0.41 TCPU        0.41
 TTTTTTTTTTTTTTTTTTTTTTTTTTTTTT INT_SCREEN  TELAPSE        0.44 TCPU        0.44

 DFT PARAMETERS

     ATOM       ELECTRONS   NET CHARGE   R(ANGSTROM)
   1   5  B       5.0000      0.0000     0.89000000
   7   1  H       1.0000      0.0000     1.11000000
  19   6  C       6.0000      0.0000     0.77000000
  37   8  O       8.0000      0.0000     0.74000000

 SIZE OF GRID=    1331289
 TTTTTTTTTTTTTTTTTTTTTTTTTTTTTT MAKE_GRID2  TELAPSE        7.94 TCPU        7.93
 BECKE WEIGHT FUNCTION
 RADSAFE =     2.00
 TOLERANCES - DENSITY:10**- 6; POTENTIAL:10**- 9; GRID WGT:10**-14

 RADIAL INTEGRATION  - INTERVALS (POINTS,UPPER LIMIT):            1( 75,  4.0*R)

 ANGULAR INTEGRATION - INTERVALS (ACCURACY LEVEL [N. POINTS] UPPER LIMIT):
  1(  4[  86]   0.2)  2(  8[ 194]   0.5)  3( 12[ 350]   0.9)  4( 16[ 974]   3.5)
  5( 12[ 350]9999.0)
 TTTTTTTTTTTTTTTTTTTTTTTTTTTTTT INT_CALC    TELAPSE        8.01 TCPU        7.99
 EEEEEEEEEE INT_CALC TERMINATION  DATE 19 02 2026 TIME 19:12:04.2

 *******************************************************************************
 cof-1_z41_L080_incl                                                             
 CRYSTAL - SCF - TYPE OF CALCULATION :  RESTRICTED CLOSED SHELL
 *******************************************************************************

 CAPPA:IS1  2;IS2  2;IS3  8; K PTS MONK NET  20; SYMMOPS:K SPACE   2;G SPACE   1

 TTTTTTTTTTTTTTTTTTTTTTTTTTTTTT SDIK        TELAPSE        8.64 TCPU       16.43

 AAAAAAAAAAAAAAAAAAAAAAAAAAAAAAAAAAAAAAAAAAAAAAAAAAAAAAAAAAAAAAAAAAAAAAAAAAAAAAA
         ATOMIC WAVEFUNCTION(S)


 NUCLEAR CHARGE  5.0  SYMMETRY SPECIES            S    P
 N. ELECTRONS    5.0  NUMBER OF PRIMITIVE GTOS    8    4
                      NUMBER OF CONTRACTED GTOS   4    2
                      NUMBER OF CLOSED SHELLS     2    0
                      OPEN SHELL OCCUPATION       0    1

  ZNUC  SCFIT    TOTAL HF ENERGY   KINETIC ENERGY   VIRIAL THEOREM ACCURACY
   5.0    11    -2.451164084E+01  2.462155050E+01 -1.995536038E+00  1.5E-06

 NUCLEAR CHARGE  1.0  SYMMETRY SPECIES            S
 N. ELECTRONS    1.0  NUMBER OF PRIMITIVE GTOS    4
                      NUMBER OF CONTRACTED GTOS   2
                      NUMBER OF CLOSED SHELLS     0
                      OPEN SHELL OCCUPATION       1

  ZNUC  SCFIT    TOTAL HF ENERGY   KINETIC ENERGY   VIRIAL THEOREM ACCURACY
   1.0     1    -4.977266687E-01  5.190767460E-01 -1.958869132E+00  0.0E+00

 NUCLEAR CHARGE  6.0  SYMMETRY SPECIES            S    P
 N. ELECTRONS    6.0  NUMBER OF PRIMITIVE GTOS    8    4
                      NUMBER OF CONTRACTED GTOS   4    2
                      NUMBER OF CLOSED SHELLS     2    0
                      OPEN SHELL OCCUPATION       0    2

  ZNUC  SCFIT    TOTAL HF ENERGY   KINETIC ENERGY   VIRIAL THEOREM ACCURACY
   6.0     9    -3.766704647E+01  3.775180683E+01 -1.997754800E+00  1.1E-06

 NUCLEAR CHARGE  8.0  SYMMETRY SPECIES            S    P
 N. ELECTRONS    8.0  NUMBER OF PRIMITIVE GTOS    8    4
                      NUMBER OF CONTRACTED GTOS   4    2
                      NUMBER OF CLOSED SHELLS     2    0
                      OPEN SHELL OCCUPATION       0    4

  ZNUC  SCFIT    TOTAL HF ENERGY   KINETIC ENERGY   VIRIAL THEOREM ACCURACY
   8.0    12    -7.477373220E+01  7.477365593E+01 -2.000001020E+00  3.8E-06

 AAAAAAAAAAAAAAAAAAAAAAAAAAAAAAAAAAAAAAAAAAAAAAAAAAAAAAAAAAAAAAAAAAAAAAAAAAAAAAA

 CHARGE NORMALIZATION FACTOR   1.00000000
 TOTAL ATOMIC CHARGES:
   5.0000000   5.0000000   5.0000000   5.0000000   5.0000000   5.0000000
   1.0000000   1.0000000   1.0000000   1.0000000   1.0000000   1.0000000
   1.0000000   1.0000000   1.0000000   1.0000000   1.0000000   1.0000000
   6.0000000   6.0000000   6.0000000   6.0000000   6.0000000   6.0000000
   6.0000000   6.0000000   6.0000000   6.0000000   6.0000000   6.0000000
   6.0000000   6.0000000   6.0000000   6.0000000   6.0000000   6.0000000
   8.0000000   8.0000000   8.0000000   8.0000000   8.0000000   8.0000000
 TTTTTTTTTTTTTTTTTTTTTTTTTTTTTT MOQGAD      TELAPSE        8.68 TCPU       17.69
 TTTTTTTTTTTTTTTTTTTTTTTTTTTTTT SHELLXN     TELAPSE       13.80 TCPU      181.40
 TTTTTTTTTTTTTTTTTTTTTTTTTTTTTT MONMO3      TELAPSE       13.93 TCPU      185.48
 NUMERICALLY INTEGRATED DENSITY    197.9999698621
 TTTTTTTTTTTTTTTTTTTTTTTTTTTTTT NUMDFT      TELAPSE       14.49 TCPU      203.27
 CYC   0 ETOT(AU) -1.295954801653E+03 DETOT -1.30E+03 tst  0.00E+00 PX  1.00E+00
 TTTTTTTTTTTTTTTTTTTTTTTTTTTTTT DIIS        TELAPSE       14.53 TCPU      204.46
 TTTTTTTTTTTTTTTTTTTTTTTTTTTTTT FDIK        TELAPSE       15.03 TCPU      220.57
 INSULATING STATE
 TOP OF VALENCE BANDS -    BAND     99; K    1; EIG -3.1282040E-01 AU
 BOTTOM OF VIRTUAL BANDS - BAND    100; K    1; EIG -1.5773349E-01 AU
 DIRECT ENERGY BAND GAP:   4.2201 eV
 TTTTTTTTTTTTTTTTTTTTTTTTTTTTTT PDIG        TELAPSE       15.35 TCPU      226.39
 CHARGE NORMALIZATION FACTOR   1.00000000
 TOTAL ATOMIC CHARGES:
   4.1592893   4.1634878   4.1638241   4.1633373   4.1630564   4.1587874
   0.7851824   0.7853012   0.7851563   0.7852988   0.7852925   0.7854452
   0.7852818   0.7854082   0.7851602   0.7853674   0.7851325   0.7852940
   6.0432777   6.2654471   6.2654155   6.2652023   6.2651764   6.0426565
   6.0449820   6.2654839   6.2655689   6.2654008   6.2655716   6.0436948
   6.0436812   6.2649585   6.2655467   6.2650685   6.2656949   6.0422172
   8.6930026   8.6932108   8.6930350   8.6934615   8.6934195   8.6937234
 TTTTTTTTTTTTTTTTTTTTTTTTTTTTTT MOQGAD      TELAPSE       15.40 TCPU      226.43
 TTTTTTTTTTTTTTTTTTTTTTTTTTTTTT SHELLXN     TELAPSE       20.73 TCPU      396.48
 TTTTTTTTTTTTTTTTTTTTTTTTTTTTTT MONMO3      TELAPSE       20.86 TCPU      400.56
 NUMERICALLY INTEGRATED DENSITY    197.9999911604
 TTTTTTTTTTTTTTTTTTTTTTTTTTTTTT NUMDFT      TELAPSE       21.43 TCPU      418.64
 CYC   1 ETOT(AU) -1.288811327923E+03 DETOT  7.14E+00 tst  0.00E+00 PX  1.00E+00
 TTTTTTTTTTTTTTTTTTTTTTTTTTTTTT DIIS        TELAPSE       21.48 TCPU      420.18
 DIIS TEST: 0.11164E+01 AT SCF   CYCLE   1 - MIX   30 %
 TTTTTTTTTTTTTTTTTTTTTTTTTTTTTT FDIK        TELAPSE       21.99 TCPU      436.47
 INSULATING STATE
 TOP OF VALENCE BANDS -    BAND     99; K    1; EIG -2.2453534E-01 AU
 BOTTOM OF VIRTUAL BANDS - BAND    100; K    1; EIG -8.2638438E-02 AU
 DIRECT ENERGY BAND GAP:   3.8612 eV
 TTTTTTTTTTTTTTTTTTTTTTTTTTTTTT PDIG        TELAPSE       22.32 TCPU      442.31
 CHARGE NORMALIZATION FACTOR   1.00000000
 TOTAL ATOMIC CHARGES:
   4.7153113   4.7106903   4.7111704   4.7111218   4.7106128   4.7157218
   0.9076767   0.9077717   0.9078080   0.9075569   0.9071933   0.9074606
   0.9071988   0.9073542   0.9077327   0.9076523   0.9077271   0.9077799
   5.8708299   6.1359711   6.1364338   6.1307942   6.1311804   5.8735817
   5.8772074   6.1284846   6.1297526   6.1289426   6.1297227   5.8805919
   5.8709246   6.1309415   6.1311177   6.1362845   6.1359470   5.8734406
   8.3345991   8.3350158   8.3317516   8.3346302   8.3311833   8.3351302
 TTTTTTTTTTTTTTTTTTTTTTTTTTTTTT MOQGAD      TELAPSE       22.36 TCPU      442.35
 TTTTTTTTTTTTTTTTTTTTTTTTTTTTTT SHELLXN     TELAPSE       27.70 TCPU      612.47
 TTTTTTTTTTTTTTTTTTTTTTTTTTTTTT MONMO3      TELAPSE       27.83 TCPU      616.54
 NUMERICALLY INTEGRATED DENSITY    197.9999884324
 TTTTTTTTTTTTTTTTTTTTTTTTTTTTTT NUMDFT      TELAPSE       28.40 TCPU      634.64
 CYC   2 ETOT(AU) -1.289006282386E+03 DETOT -1.95E-01 tst  3.63E-03 PX  1.59E-01
 TTTTTTTTTTTTTTTTTTTTTTTTTTTTTT DIIS        TELAPSE       28.44 TCPU      636.18
 DIIS TEST: 0.46353E+00 AT SCF   CYCLE   2 - DIIS ACTIVE - HISTORY:     2 CYCLES
 TTTTTTTTTTTTTTTTTTTTTTTTTTTTTT FDIK        TELAPSE       28.95 TCPU      652.26
 INSULATING STATE
 TOP OF VALENCE BANDS -    BAND     99; K    1; EIG -2.3783649E-01 AU
 BOTTOM OF VIRTUAL BANDS - BAND    100; K    1; EIG -7.7084901E-02 AU
 DIRECT ENERGY BAND GAP:   4.3743 eV
 TTTTTTTTTTTTTTTTTTTTTTTTTTTTTT PDIG        TELAPSE       29.27 TCPU      658.09
 CHARGE NORMALIZATION FACTOR   1.00000000
 TOTAL ATOMIC CHARGES:
   4.5049120   4.5031523   4.5036023   4.5035192   4.5030238   4.5049124
   0.8863800   0.8865999   0.8865670   0.8864887   0.8853850   0.8858768
   0.8854371   0.8857365   0.8865128   0.8865749   0.8864906   0.8865197
   5.8899711   6.1617222   6.1612438   6.1614398   6.1615652   5.8896590
   5.8903482   6.1618460   6.1612430   6.1618127   6.1613689   5.8891503
   5.8899711   6.1614337   6.1617277   6.1614231   6.1614094   5.8895551
   8.5101848   8.5105447   8.5116648   8.5103811   8.5118985   8.5107448
 TTTTTTTTTTTTTTTTTTTTTTTTTTTTTT MOQGAD      TELAPSE       29.32 TCPU      658.13
 TTTTTTTTTTTTTTTTTTTTTTTTTTTTTT SHELLXN     TELAPSE       34.66 TCPU      828.29
 TTTTTTTTTTTTTTTTTTTTTTTTTTTTTT MONMO3      TELAPSE       34.79 TCPU      832.37
 NUMERICALLY INTEGRATED DENSITY    197.9999898318
 TTTTTTTTTTTTTTTTTTTTTTTTTTTTTT NUMDFT      TELAPSE       35.35 TCPU      850.44
 CYC   3 ETOT(AU) -1.289101806819E+03 DETOT -9.55E-02 tst  6.84E-04 PX  6.34E-02
 TTTTTTTTTTTTTTTTTTTTTTTTTTTTTT DIIS        TELAPSE       35.41 TCPU      852.31
 DIIS TEST: 0.13260E-01 AT SCF   CYCLE   3 - DIIS ACTIVE - HISTORY:     3 CYCLES
 TTTTTTTTTTTTTTTTTTTTTTTTTTTTTT FDIK        TELAPSE       35.92 TCPU      868.52
 INSULATING STATE
 TOP OF VALENCE BANDS -    BAND     99; K    1; EIG -2.4700879E-01 AU
 BOTTOM OF VIRTUAL BANDS - BAND    100; K    1; EIG -8.5494706E-02 AU
 DIRECT ENERGY BAND GAP:   4.3950 eV
 TTTTTTTTTTTTTTTTTTTTTTTTTTTTTT PDIG        TELAPSE       36.24 TCPU      874.35
 CHARGE NORMALIZATION FACTOR   1.00000000
 TOTAL ATOMIC CHARGES:
   4.5106632   4.5083213   4.5087921   4.5085639   4.5079913   4.5105962
   0.8695193   0.8695795   0.8698120   0.8697120   0.8690692   0.8692527
   0.8690804   0.8691474   0.8697699   0.8698106   0.8695652   0.8695672
   5.9401737   6.1678514   6.1684429   6.1646730   6.1649928   5.9418845
   5.9440692   6.1634910   6.1645151   6.1637622   6.1644608   5.9464790
   5.9404510   6.1646562   6.1650956   6.1679520   6.1682305   5.9415211
   8.4787520   8.4790696   8.4763788   8.4789313   8.4760290   8.4793241
 TTTTTTTTTTTTTTTTTTTTTTTTTTTTTT MOQGAD      TELAPSE       36.28 TCPU      874.39
 TTTTTTTTTTTTTTTTTTTTTTTTTTTTTT SHELLXN     TELAPSE       41.62 TCPU     1044.43
 TTTTTTTTTTTTTTTTTTTTTTTTTTTTTT MONMO3      TELAPSE       41.74 TCPU     1048.52
 NUMERICALLY INTEGRATED DENSITY    197.9999895997
 TTTTTTTTTTTTTTTTTTTTTTTTTTTTTT NUMDFT      TELAPSE       42.31 TCPU     1066.56
 CYC   4 ETOT(AU) -1.289104588854E+03 DETOT -2.78E-03 tst  2.97E-05 PX  1.31E-02
 TTTTTTTTTTTTTTTTTTTTTTTTTTTTTT DIIS        TELAPSE       42.37 TCPU     1068.48
 DIIS TEST: 0.38937E-02 AT SCF   CYCLE   4 - DIIS ACTIVE - HISTORY:     4 CYCLES
 TTTTTTTTTTTTTTTTTTTTTTTTTTTTTT FDIK        TELAPSE       42.87 TCPU     1084.53
 INSULATING STATE
 TOP OF VALENCE BANDS -    BAND     99; K    1; EIG -2.4537039E-01 AU
 BOTTOM OF VIRTUAL BANDS - BAND    100; K    1; EIG -8.5283534E-02 AU
 DIRECT ENERGY BAND GAP:   4.3562 eV
 TTTTTTTTTTTTTTTTTTTTTTTTTTTTTT PDIG        TELAPSE       43.20 TCPU     1090.36
 CHARGE NORMALIZATION FACTOR   1.00000000
 TOTAL ATOMIC CHARGES:
   4.5136085   4.5106360   4.5111138   4.5110309   4.5104881   4.5137031
   0.8724254   0.8726225   0.8726360   0.8725458   0.8716780   0.8720974
   0.8717125   0.8719684   0.8725836   0.8726383   0.8725129   0.8725703
   5.9213463   6.1682658   6.1679890   6.1660596   6.1661968   5.9216514
   5.9240636   6.1656729   6.1654827   6.1657376   6.1655999   5.9238415
   5.9213533   6.1660654   6.1663208   6.1680792   6.1680462   5.9215442
   8.4878433   8.4882235   8.4878057   8.4879922   8.4878414   8.4884060
 TTTTTTTTTTTTTTTTTTTTTTTTTTTTTT MOQGAD      TELAPSE       43.24 TCPU     1090.40
 TTTTTTTTTTTTTTTTTTTTTTTTTTTTTT SHELLXN     TELAPSE       48.58 TCPU     1260.42
 TTTTTTTTTTTTTTTTTTTTTTTTTTTTTT MONMO3      TELAPSE       48.70 TCPU     1264.49
 NUMERICALLY INTEGRATED DENSITY    197.9999897125
 TTTTTTTTTTTTTTTTTTTTTTTTTTTTTT NUMDFT      TELAPSE       49.27 TCPU     1282.57
 CYC   5 ETOT(AU) -1.289105482853E+03 DETOT -8.94E-04 tst  6.82E-06 PX  6.59E-03
 TTTTTTTTTTTTTTTTTTTTTTTTTTTTTT DIIS        TELAPSE       49.34 TCPU     1284.82
 DIIS TEST: 0.67926E-04 AT SCF   CYCLE   5 - DIIS ACTIVE - HISTORY:     5 CYCLES
 TTTTTTTTTTTTTTTTTTTTTTTTTTTTTT FDIK        TELAPSE       49.85 TCPU     1301.00
 INSULATING STATE
 TOP OF VALENCE BANDS -    BAND     99; K    1; EIG -2.4524595E-01 AU
 BOTTOM OF VIRTUAL BANDS - BAND    100; K    1; EIG -8.4712694E-02 AU
 DIRECT ENERGY BAND GAP:   4.3683 eV
 TTTTTTTTTTTTTTTTTTTTTTTTTTTTTT PDIG        TELAPSE       50.17 TCPU     1306.83
 CHARGE NORMALIZATION FACTOR   1.00000000
 TOTAL ATOMIC CHARGES:
   4.5129802   4.5105431   4.5110129   4.5108079   4.5102683   4.5129046
   0.8733453   0.8734287   0.8735322   0.8734217   0.8726619   0.8729163
   0.8726747   0.8728090   0.8734805   0.8735134   0.8734009   0.8734086
   5.9210128   6.1675543   6.1679626   6.1654342   6.1657418   5.9222698
   5.9231920   6.1647167   6.1654694   6.1649428   6.1654221   5.9248824
   5.9212645   6.1654301   6.1658681   6.1675842   6.1678082   5.9219189
   8.4876305   8.4879327   8.4865146   8.4878396   8.4863033   8.4881943
 TTTTTTTTTTTTTTTTTTTTTTTTTTTTTT MOQGAD      TELAPSE       50.21 TCPU     1306.87
 TTTTTTTTTTTTTTTTTTTTTTTTTTTTTT SHELLXN     TELAPSE       55.55 TCPU     1476.91
 TTTTTTTTTTTTTTTTTTTTTTTTTTTTTT MONMO3      TELAPSE       55.68 TCPU     1480.98
 NUMERICALLY INTEGRATED DENSITY    197.9999896949
 TTTTTTTTTTTTTTTTTTTTTTTTTTTTTT NUMDFT      TELAPSE       56.24 TCPU     1499.12
 CYC   6 ETOT(AU) -1.289105503115E+03 DETOT -2.03E-05 tst  2.14E-07 PX  9.83E-04
 TTTTTTTTTTTTTTTTTTTTTTTTTTTTTT DIIS        TELAPSE       56.31 TCPU     1501.27
 DIIS TEST: 0.49534E-05 AT SCF   CYCLE   6 - DIIS ACTIVE - HISTORY:     6 CYCLES
 TTTTTTTTTTTTTTTTTTTTTTTTTTTTTT FDIK        TELAPSE       56.81 TCPU     1517.34
 INSULATING STATE
 TOP OF VALENCE BANDS -    BAND     99; K    1; EIG -2.4521000E-01 AU
 BOTTOM OF VIRTUAL BANDS - BAND    100; K    1; EIG -8.4801979E-02 AU
 DIRECT ENERGY BAND GAP:   4.3649 eV
 TTTTTTTTTTTTTTTTTTTTTTTTTTTTTT PDIG        TELAPSE       57.14 TCPU     1523.17
 CHARGE NORMALIZATION FACTOR   1.00000000
 TOTAL ATOMIC CHARGES:
   4.5133271   4.5105258   4.5110026   4.5109193   4.5103743   4.5134040
   0.8732823   0.8734721   0.8735181   0.8734270   0.8725451   0.8729654
   0.8725817   0.8728335   0.8734667   0.8735183   0.8733725   0.8734173
   5.9216849   6.1675668   6.1673069   6.1653094   6.1654583   5.9220405
   5.9245014   6.1649250   6.1647181   6.1649796   6.1648458   5.9243303
   5.9216783   6.1653077   6.1655865   6.1673718   6.1673751   5.9219485
   8.4874210   8.4878104   8.4871501   8.4875624   8.4871778   8.4879901
 TTTTTTTTTTTTTTTTTTTTTTTTTTTTTT MOQGAD      TELAPSE       57.18 TCPU     1523.21
 TTTTTTTTTTTTTTTTTTTTTTTTTTTTTT SHELLXN     TELAPSE       62.52 TCPU     1693.25
 TTTTTTTTTTTTTTTTTTTTTTTTTTTTTT MONMO3      TELAPSE       62.64 TCPU     1697.33
 NUMERICALLY INTEGRATED DENSITY    197.9999897003
 TTTTTTTTTTTTTTTTTTTTTTTTTTTTTT NUMDFT      TELAPSE       63.21 TCPU     1715.36
 CYC   7 ETOT(AU) -1.289105503224E+03 DETOT -1.09E-07 tst  2.23E-08 PX  3.54E-04
 TTTTTTTTTTTTTTTTTTTTTTTTTTTTTT DIIS        TELAPSE       63.29 TCPU     1717.93
 DIIS TEST: 0.10869E-05 AT SCF   CYCLE   7 - DIIS ACTIVE - HISTORY:     7 CYCLES
 TTTTTTTTTTTTTTTTTTTTTTTTTTTTTT FDIK        TELAPSE       63.79 TCPU     1734.10
 INSULATING STATE
 TOP OF VALENCE BANDS -    BAND     99; K    1; EIG -2.4522464E-01 AU
 BOTTOM OF VIRTUAL BANDS - BAND    100; K    1; EIG -8.4801762E-02 AU
 DIRECT ENERGY BAND GAP:   4.3653 eV
 TTTTTTTTTTTTTTTTTTTTTTTTTTTTTT PDIG        TELAPSE       64.12 TCPU     1739.93
 CHARGE NORMALIZATION FACTOR   1.00000000
 TOTAL ATOMIC CHARGES:
   4.5133202   4.5106249   4.5110975   4.5109475   4.5104057   4.5133223
   0.8732746   0.8734092   0.8734848   0.8733843   0.8725649   0.8728930
   0.8725872   0.8727758   0.8734324   0.8734768   0.8733447   0.8733747
   5.9213256   6.1675220   6.1676198   6.1653336   6.1655577   5.9221480
   5.9238046   6.1647539   6.1650851   6.1649123   6.1651085   5.9246347
   5.9214741   6.1653361   6.1656801   6.1674588   6.1675563   5.9219010
   8.4875485   8.4878839   8.4869477   8.4877313   8.4868456   8.4881102
 TTTTTTTTTTTTTTTTTTTTTTTTTTTTTT MOQGAD      TELAPSE       64.16 TCPU     1739.97
 TTTTTTTTTTTTTTTTTTTTTTTTTTTTTT SHELLXN     TELAPSE       69.49 TCPU     1910.02
 +++ ENERGIES IN A.U. +++
 ::: EXT EL-POLE                                  -1.2915443365339E+03
 ::: EXT EL-SPHEROPOLE                             1.3939785570617E+01
 ::: BIELET ZONE E-E                               1.9803165271412E+03
 ::: TOTAL E-E                                     7.0271197617790E+02
 ::: TOTAL E-N + N-E                              -3.2358451167227E+03
 ::: TOTAL N-N                                     9.7795188744635E+01
 ::: KINETIC ENERGY                                1.2799532559801E+03
 ::: PSEUDO TOTAL   ENERGY                        -1.1553846958201E+03
 ::: VIRIAL COEFFICIENT                            1.0511504204449E+00
 TTTTTTTTTTTTTTTTTTTTTTTTTTTTTT MONMO3      TELAPSE       69.62 TCPU     1914.10
 NUMERICALLY INTEGRATED DENSITY    197.9999896990
 EXCHANGE ENERGY: -0.126030931683E+03  CORRELATION ENERGY: -0.768987601116E+01
 TTTTTTTTTTTTTTTTTTTTTTTTTTTTTT NUMDFT      TELAPSE       70.19 TCPU     1932.17
 CYC   8 ETOT(AU) -1.289105503514E+03 DETOT -2.90E-07 tst  6.62E-09 PX  3.54E-04

 == SCF ENDED - CONVERGENCE ON ENERGY      E(AU) -1.2891055035140E+03 CYCLES   8


 ENERGY EXPRESSION=HARTREE+FOCK EXCH*0.00000+(HSESOL     EXCH)*1.00000+PBESOL     CORR


 TOTAL ENERGY(DFT)(AU)(  8) -1.2891055035140E+03 DE-2.9E-07 tester 6.6E-09
 TTTTTTTTTTTTTTTTTTTTTTTTTTTTTT EDFT        TELAPSE       70.19 TCPU     1932.18
 
 INFORMATION **** DFTD3 ENERGY **** CALCULATE DFTD3 ENERGY

           DFT-D V3(BJ)
 DF                                         hsesol3c  
 parameters
 s6       :    1.0000
 s8       :    0.0000
 a1       :    0.5196
 a2       :    4.9385
 k1 k3    :   16.0000   -4.0000
 Cutoff   :   50.2022
 CN-Cutoff:   21.1671
 ABC-Cutoff:   21.1671
 
 Edisp /kcal,au:   -22.5163 -0.03588194

 E6    /kcal :   -23.6074
 E8    /kcal :     0.0000
 E6(ABC) "   :   1.091106
 
 INFORMATION **** DFTD3 ENERGY **** NORMAL TERMINATION OF DFTD3 MODULE

 GCP ENERGY CALCULATION
  level        hsesol3c            basis:hsesol3c
  Nbf            474
  Atoms           42

  Parameters: 
  sigma     1.0000
  eta       1.4281
  alpha     0.2936
  beta      1.9467

  dmp_scal      4.0000
  dmp_exp       6.0000
 cutoffs: 
   distance [bohr] 60.0
   noise    [a.u.] 2.2E-16
 SR-damping   T
 ** gCP correction **
  Egcp:        0.0829355767 / (a.u.) ||      52.0429 / (kcal/mol)
 INFORMATION **** GCP **** NORMAL TERMINATION OF GCP MODULE

 *******************************************************************************

 DFT-D3-GCP DISPERSION AND COUNTERPOISE CORRECTION

 D3 DISPERSION ENERGY (AU)      -3.5881938926022E-02
 GCP ENERGY (AU)                 8.2935576662428E-02
 TOTAL ENERGY + DISP + GCP (AU) -1.2890584498762E+03

 *******************************************************************************

 EIGENVECTORS IN FORTRAN UNIT  8
 TTTTTTTTTTTTTTTTTTTTTTTTTTTTTT END         TELAPSE       71.67 TCPU     1939.24
 EEEEEEEEEE TERMINATION  DATE 19 02 2026 TIME 19:13:07.9
