 Default number of threads is:           32

         
 *******************************************************************************
 *                                                                             *
 *                               CRYSTAL23                                     *
 *                      public : 1.0.1 - October 2022                          *
 *                       HTTP://WWW.CRYSTAL.UNITO.IT                           *
 *                                                                             *
 *                              MAIN AUTHORS                                   *
 *                                                                             *
 *  R. DOVESI(1,11), V.R. SAUNDERS(2), C. ROETTI(1,11), R. ORLANDO(1,11),      *
 *  C.M. ZICOVICH-WILSON(1,3), F. PASCALE(4), B. CIVALLERI(1,11),              *
 *  K. DOLL(5), N.M. HARRISON(6), I.J. BUSH(7), Ph. D'ARCO(8),                 *
 *  M. LLUNELL(9), M. CAUSA'(10), Y. NOEL(8), L. MASCHIO(1,11), A. ERBA(1,11)  *
 *  M. RE'RAT(14), S. CASASSA(1,11), B.G. SEARLE(2), J.K. DESMARAIS(1)         *
 *                                                                             *
 *        CONTRIBUTIONS TO THE CODE HAVE ALSO BEEN GIVEN BY                    *
 *                                                                             *
 *  M. FERRABONE(1,11), M. DE LA PIERRE(1,11), M. FERRERO(1,11),               *
 *  J. BAIMA(1,11), E. ALBANESE(1,11), M.F. PEINTINGER(12), R. BAST(13),       *
 *  B. KIRTMAN(15), V. LACIVITA(1,11), R. DEMICHELIS(1,16)                     *
 *  G. BRANDEBURG(17), S. SALUSTRO(1,11), G. SANSONE(1,11)                     *
 *  M.T. RUGGIERO(18), L.E. DAGA(1), L. DONA'(1), A. COSSARD(1)                *
 *                                                                             *
 * (1) THEORETICAL CHEMISTRY GROUP - UNIVERSITA' DI TORINO - TORINO (ITALY)    *
 * (2) SCIENTIFIC COMPUTING DEPARTMENT - STFC DARESBURY (UK)                   *
 * (3) UNIVERSIDAD AUTONOMA DEL ESTADO DE MORELOS - CUERNAVACA (MEXICO)        *
 * (4) UNIVERSITE' DE LORRAINE - NANCY (FRANCE)                                *
 * (5) UNIVERSITAET STUTTGART- STUTTGART (GERMANY)                             *
 * (6) IMPERIAL COLLEGE - LONDON (UK)                                          *
 * (7) SCIENTIFIC COMPUTING DEPARTMENT - STFC RAL (UK)                         *
 * (8) UPMC - SORBONNE UNIVERSITES - PARIS (FRANCE)                            *
 * (9) UNIVERSIDAD DE BARCELONA - BARCELONA (SPAIN)                            *
 *(10) UNIVERSITA' DI NAPOLI "FEDERICO II" - NAPOLI (ITALY)                    *
 *(11) NIS - NANOSTRUCTURED INTERFACES AND SURFACES - TORINO (ITALY)           *
 *(12) MPI FUER CHEMISCHE ENERGIEKONVERSION - MUELHEIM AN DER RUHR (GERMANY)   *
 *(13) UNIVERSITY OF TROMSO - TROMSO (NORWAY)                                  *
 *(14) UNIVERSITE' DE PAU ET DES PAYS DE L'ADOUR - PAU (FRANCE)                *
 *(15) UNIVERSITY OF CALIFORNIA SANTA BARBARA - SANTA BARBARA (USA)            *
 *(16) CURTIN UNIVERSITY - PERTH (AUSTRALIA)                                   *
 *(17) UNIVERSITY COLLEGE LONDON - LONDON (UK)                                 *
 *(18) UNIVERSITY OF VERMONT - BURLINGTON (USA)                                *
 *                                                                             *
 *******************************************************************************
 EEEEEEEEEE STARTING  DATE 19 02 2026 TIME 19:56:22.1
 cof-1_z33_L040_serr                                                             

 CRYSTAL CALCULATION
 (INPUT ACCORDING TO THE INTERNATIONAL TABLES FOR X-RAY CRYSTALLOGRAPHY)
 CRYSTAL FAMILY                       :  TRICLINIC   
 CRYSTAL CLASS  (GROTH - 1921)        :  TRICLINIC PEDIAL                     

 SPACE GROUP (NONCENTROSYMMETRIC)     :  P 1             

 LATTICE PARAMETERS  (ANGSTROMS AND DEGREES) - CONVENTIONAL CELL
        A           B           C        ALPHA        BETA       GAMMA
    15.02361    15.02392     6.60000    90.00032    89.99994   119.99596


 NUMBER OF IRREDUCIBLE ATOMS IN THE CONVENTIONAL CELL:   84

 INPUT COORDINATES

 ATOM AT. N.              COORDINATES
   1   5     6.136805400000E-01  2.273182200000E-01  2.507237400000E-01
   2   5     7.673736500000E-01  5.347356900000E-01  7.507237400000E-01
   3   5     7.727362000000E-01  3.863778800000E-01  2.507237500000E-01
   4   5     9.264293100000E-01  6.937953500000E-01  7.507237500000E-01
   5   5     6.136762700000E-01  3.863606700000E-01  2.492020600000E-01
   6   5     7.673693800000E-01  6.937781400000E-01  7.492020600000E-01
   7   5     2.272552500000E-01  6.136332200000E-01  2.507237500000E-01
   8   5     3.809483600000E-01  9.210506900000E-01  7.507237500000E-01
   9   5     3.863632200000E-01  6.136124500000E-01  2.507237500000E-01
  10   5     5.400563300000E-01  9.210299200000E-01  7.507237500000E-01
  11   5     3.863435000000E-01  7.727516500000E-01  2.492020600000E-01
  12   5     5.400366100000E-01  8.016912000000E-02  7.492020600000E-01
  13   1     9.030436200000E-01  3.089300500000E-01  2.475689700000E-01
  14   1     5.673673000000E-02  6.163475200000E-01  7.475689700000E-01
  15   1     9.663453000000E-02  6.910534400000E-01  2.470865600000E-01
  16   1     2.503276400000E-01  9.984709100000E-01  7.470865500000E-01
  17   1     9.029714200000E-01  5.940724300000E-01  2.470123000000E-01
  18   1     5.666453000000E-02  9.014899000000E-01  7.470123000000E-01
  19   1     9.673618000000E-02  4.056849400000E-01  2.470308300000E-01
  20   1     2.504292900000E-01  7.131024100000E-01  7.470308200000E-01
  21   1     6.910324000000E-01  9.700412000000E-02  2.524310500000E-01
  22   1     8.447255100000E-01  4.044215900000E-01  7.524310500000E-01
  23   1     3.089297200000E-01  9.034373100000E-01  2.529135000000E-01
  24   1     4.626228300000E-01  2.108547800000E-01  7.529135000000E-01
  25   1     4.058699900000E-01  9.704998000000E-02  2.529877900000E-01
  26   1     5.595631000000E-01  4.044674500000E-01  7.529877900000E-01
  27   1     5.943122100000E-01  9.033473200000E-01  2.529691500000E-01
  28   1     7.480053200000E-01  2.107647900000E-01  7.529691500000E-01
  29   1     6.910727400000E-01  5.940542100000E-01  2.475690000000E-01
  30   1     8.447658500000E-01  9.014716800000E-01  7.475690000000E-01
  31   1     3.089618300000E-01  4.056093300000E-01  2.470865300000E-01
  32   1     4.626549400000E-01  7.130268000000E-01  7.470865200000E-01
  33   1     4.058405700000E-01  3.088232500000E-01  2.470122500000E-01
  34   1     5.595336800000E-01  6.162407200000E-01  7.470122500000E-01
  35   1     5.942908800000E-01  6.909579300000E-01  2.470308900000E-01
  36   1     7.479839900000E-01  9.983754000000E-01  7.470308800000E-01
  37   6     8.918903100000E-01  4.459436900000E-01  2.491463800000E-01
  38   6     4.558342000000E-02  7.533611600000E-01  7.491463800000E-01
  39   6     9.464891100000E-01  3.927856300000E-01  2.476432100000E-01
  40   6     1.001822200000E-01  7.002031000000E-01  7.476432100000E-01
  41   6     5.338812000000E-02  6.071853000000E-01  2.475133600000E-01
  42   6     2.070812300000E-01  9.146027700000E-01  7.475133600000E-01
  43   6     9.464521100000E-01  5.536921900000E-01  2.479030600000E-01
  44   6     1.001452200000E-01  8.611096600000E-01  7.479030600000E-01
  45   6     5.342634000000E-02  4.462499700000E-01  2.469009200000E-01
  46   6     2.071194500000E-01  7.536674400000E-01  7.469009300000E-01
  47   6     1.080358900000E-01  5.540356300000E-01  2.479216000000E-01
  48   6     2.617290000000E-01  8.614531000000E-01  7.479216000000E-01
  49   6     5.540394200000E-01  1.081684600000E-01  2.508536600000E-01
  50   6     7.077325300000E-01  4.155859300000E-01  7.508536600000E-01
  51   6     6.071778500000E-01  5.355594000000E-02  2.523568000000E-01
  52   6     7.608709600000E-01  3.609734100000E-01  7.523568000000E-01
  53   6     3.927986700000E-01  9.466631600000E-01  2.524867000000E-01
  54   6     5.464917800000E-01  2.540806300000E-01  7.524867000000E-01
  55   6     4.462875800000E-01  5.360286000000E-02  2.520970100000E-01
  56   6     5.999806900000E-01  3.610203300000E-01  7.520970100000E-01
  57   6     5.537168500000E-01  9.466235600000E-01  2.530990800000E-01
  58   6     7.074099600000E-01  2.540410300000E-01  7.530990800000E-01
  59   6     4.459279100000E-01  8.919920600000E-01  2.520784300000E-01
  60   6     5.996210200000E-01  1.994095300000E-01  7.520784300000E-01
  61   6     5.540448700000E-01  4.458745500000E-01  2.491463800000E-01
  62   6     7.077379800000E-01  7.532920200000E-01  7.491463800000E-01
  63   6     6.072102200000E-01  5.536257800000E-01  2.476432500000E-01
  64   6     7.609033300000E-01  8.610432500000E-01  7.476432500000E-01
  65   6     3.928233700000E-01  4.461720300000E-01  2.475133300000E-01
  66   6     5.465164800000E-01  7.535895000000E-01  7.475133300000E-01
  67   6     4.462872600000E-01  3.926899900000E-01  2.479030200000E-01
  68   6     5.999803700000E-01  7.001074600000E-01  7.479030200000E-01
  69   6     5.537429600000E-01  6.070980000000E-01  2.469009700000E-01
  70   6     7.074360700000E-01  9.145154700000E-01  7.469009600000E-01
  71   6     4.459599800000E-01  5.539582300000E-01  2.479216000000E-01
  72   6     5.996530900000E-01  8.613757000000E-01  7.479216000000E-01
  73   8     5.607366800000E-01  2.803706300000E-01  2.496103100000E-01
  74   8     7.144297900000E-01  5.877881000000E-01  7.496103100000E-01
  75   8     7.196817000000E-01  2.803783300000E-01  2.528207200000E-01
  76   8     8.733748100000E-01  5.877958000000E-01  7.528207200000E-01
  77   8     7.196794200000E-01  4.393234600000E-01  2.479772800000E-01
  78   8     8.733725300000E-01  7.467409300000E-01  7.479772800000E-01
  79   8     2.803245100000E-01  7.196511100000E-01  2.496103300000E-01
  80   8     4.340176200000E-01  2.706858000000E-02  7.496103300000E-01
  81   8     2.803439700000E-01  5.606956100000E-01  2.528207100000E-01
  82   8     4.340370800000E-01  8.681130800000E-01  7.528207100000E-01
  83   8     4.392638400000E-01  7.196354200000E-01  2.479772700000E-01
  84   8     5.929569500000E-01  2.705289000000E-02  7.479772800000E-01

 *******************************************************************************

 << INFORMATION >>: FROM NOW ON, ALL COORDINATES REFER TO THE PRIMITIVE CELL

 *******************************************************************************

 LATTICE PARAMETERS  (ANGSTROMS AND DEGREES) - PRIMITIVE CELL
       A          B          C        ALPHA      BETA     GAMMA        VOLUME
   15.02361   15.02392    6.60000    90.00032  89.99994 119.99596   1290.178217

 COORDINATES OF THE EQUIVALENT ATOMS (FRACTIONAL UNITS)

 N. ATOM EQUIV AT. N.          X                  Y                  Z

   1   1   1    5 B    -3.86319460000E-01  2.27318220000E-01  2.50723740000E-01

   2   2   1    5 B    -2.32626350000E-01 -4.65264310000E-01 -2.49276260000E-01

   3   3   1    5 B    -2.27263800000E-01  3.86377880000E-01  2.50723750000E-01

   4   4   1    5 B    -7.35706900000E-02 -3.06204650000E-01 -2.49276250000E-01

   5   5   1    5 B    -3.86323730000E-01  3.86360670000E-01  2.49202060000E-01

   6   6   1    5 B    -2.32630620000E-01 -3.06221860000E-01 -2.50797940000E-01

   7   7   1    5 B     2.27255250000E-01 -3.86366780000E-01  2.50723750000E-01

   8   8   1    5 B     3.80948360000E-01 -7.89493100000E-02 -2.49276250000E-01

   9   9   1    5 B     3.86363220000E-01 -3.86387550000E-01  2.50723750000E-01

  10  10   1    5 B    -4.59943670000E-01 -7.89700800000E-02 -2.49276250000E-01

  11  11   1    5 B     3.86343500000E-01 -2.27248350000E-01  2.49202060000E-01

  12  12   1    5 B    -4.59963390000E-01  8.01691200000E-02 -2.50797940000E-01

  13  13   1    1 H    -9.69563800000E-02  3.08930050000E-01  2.47568970000E-01

  14  14   1    1 H     5.67367300000E-02 -3.83652480000E-01 -2.52431030000E-01

  15  15   1    1 H     9.66345300000E-02 -3.08946560000E-01  2.47086560000E-01

  16  16   1    1 H     2.50327640000E-01 -1.52909000000E-03 -2.52913450000E-01

  17  17   1    1 H    -9.70285800000E-02 -4.05927570000E-01  2.47012300000E-01

  18  18   1    1 H     5.66645300000E-02 -9.85101000000E-02 -2.52987700000E-01

  19  19   1    1 H     9.67361800000E-02  4.05684940000E-01  2.47030830000E-01

  20  20   1    1 H     2.50429290000E-01 -2.86897590000E-01 -2.52969180000E-01

  21  21   1    1 H    -3.08967600000E-01  9.70041200000E-02  2.52431050000E-01

  22  22   1    1 H    -1.55274490000E-01  4.04421590000E-01 -2.47568950000E-01

  23  23   1    1 H     3.08929720000E-01 -9.65626900000E-02  2.52913500000E-01

  24  24   1    1 H     4.62622830000E-01  2.10854780000E-01 -2.47086500000E-01

  25  25   1    1 H     4.05869990000E-01  9.70499800000E-02  2.52987790000E-01

  26  26   1    1 H    -4.40436900000E-01  4.04467450000E-01 -2.47012210000E-01

  27  27   1    1 H    -4.05687790000E-01 -9.66526800000E-02  2.52969150000E-01

  28  28   1    1 H    -2.51994680000E-01  2.10764790000E-01 -2.47030850000E-01

  29  29   1    1 H    -3.08927260000E-01 -4.05945790000E-01  2.47569000000E-01

  30  30   1    1 H    -1.55234150000E-01 -9.85283200000E-02 -2.52431000000E-01

  31  31   1    1 H     3.08961830000E-01  4.05609330000E-01  2.47086530000E-01

  32  32   1    1 H     4.62654940000E-01 -2.86973200000E-01 -2.52913480000E-01

  33  33   1    1 H     4.05840570000E-01  3.08823250000E-01  2.47012250000E-01

  34  34   1    1 H    -4.40466320000E-01 -3.83759280000E-01 -2.52987750000E-01

  35  35   1    1 H    -4.05709120000E-01 -3.09042070000E-01  2.47030890000E-01

  36  36   1    1 H    -2.52016010000E-01 -1.62460000000E-03 -2.52969120000E-01

  37  37   1    6 C    -1.08109690000E-01  4.45943690000E-01  2.49146380000E-01

  38  38   1    6 C     4.55834200000E-02 -2.46638840000E-01 -2.50853620000E-01

  39  39   1    6 C    -5.35108900000E-02  3.92785630000E-01  2.47643210000E-01

  40  40   1    6 C     1.00182220000E-01 -2.99796900000E-01 -2.52356790000E-01

  41  41   1    6 C     5.33881200000E-02 -3.92814700000E-01  2.47513360000E-01

  42  42   1    6 C     2.07081230000E-01 -8.53972300000E-02 -2.52486640000E-01

  43  43   1    6 C    -5.35478900000E-02 -4.46307810000E-01  2.47903060000E-01

  44  44   1    6 C     1.00145220000E-01 -1.38890340000E-01 -2.52096940000E-01

  45  45   1    6 C     5.34263400000E-02  4.46249970000E-01  2.46900920000E-01

  46  46   1    6 C     2.07119450000E-01 -2.46332560000E-01 -2.53099070000E-01

  47  47   1    6 C     1.08035890000E-01 -4.45964370000E-01  2.47921600000E-01

  48  48   1    6 C     2.61729000000E-01 -1.38546900000E-01 -2.52078400000E-01

  49  49   1    6 C    -4.45960580000E-01  1.08168460000E-01  2.50853660000E-01

  50  50   1    6 C    -2.92267470000E-01  4.15585930000E-01 -2.49146340000E-01

  51  51   1    6 C    -3.92822150000E-01  5.35559400000E-02  2.52356800000E-01

  52  52   1    6 C    -2.39129040000E-01  3.60973410000E-01 -2.47643200000E-01

  53  53   1    6 C     3.92798670000E-01 -5.33368400000E-02  2.52486700000E-01

  54  54   1    6 C    -4.53508220000E-01  2.54080630000E-01 -2.47513300000E-01

  55  55   1    6 C     4.46287580000E-01  5.36028600000E-02  2.52097010000E-01

  56  56   1    6 C    -4.00019310000E-01  3.61020330000E-01 -2.47902990000E-01

  57  57   1    6 C    -4.46283150000E-01 -5.33764400000E-02  2.53099080000E-01

  58  58   1    6 C    -2.92590040000E-01  2.54041030000E-01 -2.46900920000E-01

  59  59   1    6 C     4.45927910000E-01 -1.08007940000E-01  2.52078430000E-01

  60  60   1    6 C    -4.00378980000E-01  1.99409530000E-01 -2.47921570000E-01

  61  61   1    6 C    -4.45955130000E-01  4.45874550000E-01  2.49146380000E-01

  62  62   1    6 C    -2.92262020000E-01 -2.46707980000E-01 -2.50853620000E-01

  63  63   1    6 C    -3.92789780000E-01 -4.46374220000E-01  2.47643250000E-01

  64  64   1    6 C    -2.39096670000E-01 -1.38956750000E-01 -2.52356750000E-01

  65  65   1    6 C     3.92823370000E-01  4.46172030000E-01  2.47513330000E-01

  66  66   1    6 C    -4.53483520000E-01 -2.46410500000E-01 -2.52486670000E-01

  67  67   1    6 C     4.46287260000E-01  3.92689990000E-01  2.47903020000E-01

  68  68   1    6 C    -4.00019630000E-01 -2.99892540000E-01 -2.52096980000E-01

  69  69   1    6 C    -4.46257040000E-01 -3.92902000000E-01  2.46900970000E-01

  70  70   1    6 C    -2.92563930000E-01 -8.54845300000E-02 -2.53099040000E-01

  71  71   1    6 C     4.45959980000E-01 -4.46041770000E-01  2.47921600000E-01

  72  72   1    6 C    -4.00346910000E-01 -1.38624300000E-01 -2.52078400000E-01

  73  73   1    8 O    -4.39263320000E-01  2.80370630000E-01  2.49610310000E-01

  74  74   1    8 O    -2.85570210000E-01 -4.12211900000E-01 -2.50389690000E-01

  75  75   1    8 O    -2.80318300000E-01  2.80378330000E-01  2.52820720000E-01

  76  76   1    8 O    -1.26625190000E-01 -4.12204200000E-01 -2.47179280000E-01

  77  77   1    8 O    -2.80320580000E-01  4.39323460000E-01  2.47977280000E-01

  78  78   1    8 O    -1.26627470000E-01 -2.53259070000E-01 -2.52022720000E-01

  79  79   1    8 O     2.80324510000E-01 -2.80348890000E-01  2.49610330000E-01

  80  80   1    8 O     4.34017620000E-01  2.70685800000E-02 -2.50389670000E-01

  81  81   1    8 O     2.80343970000E-01 -4.39304390000E-01  2.52820710000E-01

  82  82   1    8 O     4.34037080000E-01 -1.31886920000E-01 -2.47179290000E-01

  83  83   1    8 O     4.39263840000E-01 -2.80364580000E-01  2.47977270000E-01

  84  84   1    8 O    -4.07043050000E-01  2.70528900000E-02 -2.52022720000E-01

 NUMBER OF SYMMETRY OPERATORS         :    1
 *******************************************************************************
 * GEOMETRY EDITING - INPUT COORDINATES ARE GIVEN IN ANGSTROM         
 *******************************************************************************

 GCALCO - MAX INDICES DIRECT LATTICE VECTOR    11    11    23
 NO.OF VECTORS CREATED 6999 STARS 3500 RMAX   244.92321 BOHR

 GEOMETRY FOR WAVE FUNCTION - DIMENSIONALITY OF THE SYSTEM    3
 (NON PERIODIC DIRECTION: LATTICE PARAMETER FORMALLY SET TO 500)
 *******************************************************************************
 LATTICE PARAMETERS (ANGSTROMS AND DEGREES) - BOHR = 0.5291772083 ANGSTROM
 PRIMITIVE CELL - CENTRING CODE 1/0 VOLUME=  1290.178217 - DENSITY  1.004 g/cm^3
         A              B              C           ALPHA      BETA       GAMMA 
    15.02361100    15.02391600     6.60000000    90.000323  89.999944 119.995964
 *******************************************************************************
 ATOMS IN THE ASYMMETRIC UNIT   84 - ATOMS IN THE UNIT CELL:   84
     ATOM                 X/A                 Y/B                 Z/C    
 *******************************************************************************
      1 T   5 B    -3.863194600000E-01  2.273182200000E-01  2.507237400000E-01
      2 T   5 B    -2.326263500000E-01 -4.652643100000E-01 -2.492762600000E-01
      3 T   5 B    -2.272638000000E-01  3.863778800000E-01  2.507237500000E-01
      4 T   5 B    -7.357069000000E-02 -3.062046500000E-01 -2.492762500000E-01
      5 T   5 B    -3.863237300000E-01  3.863606700000E-01  2.492020600000E-01
      6 T   5 B    -2.326306200000E-01 -3.062218600000E-01 -2.507979400000E-01
      7 T   5 B     2.272552500000E-01 -3.863667800000E-01  2.507237500000E-01
      8 T   5 B     3.809483600000E-01 -7.894931000000E-02 -2.492762500000E-01
      9 T   5 B     3.863632200000E-01 -3.863875500000E-01  2.507237500000E-01
     10 T   5 B    -4.599436700000E-01 -7.897008000000E-02 -2.492762500000E-01
     11 T   5 B     3.863435000000E-01 -2.272483500000E-01  2.492020600000E-01
     12 T   5 B    -4.599633900000E-01  8.016912000000E-02 -2.507979400000E-01
     13 T   1 H    -9.695638000000E-02  3.089300500000E-01  2.475689700000E-01
     14 T   1 H     5.673673000000E-02 -3.836524800000E-01 -2.524310300000E-01
     15 T   1 H     9.663453000000E-02 -3.089465600000E-01  2.470865600000E-01
     16 T   1 H     2.503276400000E-01 -1.529090000000E-03 -2.529134500000E-01
     17 T   1 H    -9.702858000000E-02 -4.059275700000E-01  2.470123000000E-01
     18 T   1 H     5.666453000000E-02 -9.851010000000E-02 -2.529877000000E-01
     19 T   1 H     9.673618000000E-02  4.056849400000E-01  2.470308300000E-01
     20 T   1 H     2.504292900000E-01 -2.868975900000E-01 -2.529691800000E-01
     21 T   1 H    -3.089676000000E-01  9.700412000000E-02  2.524310500000E-01
     22 T   1 H    -1.552744900000E-01  4.044215900000E-01 -2.475689500000E-01
     23 T   1 H     3.089297200000E-01 -9.656269000000E-02  2.529135000000E-01
     24 T   1 H     4.626228300000E-01  2.108547800000E-01 -2.470865000000E-01
     25 T   1 H     4.058699900000E-01  9.704998000000E-02  2.529877900000E-01
     26 T   1 H    -4.404369000000E-01  4.044674500000E-01 -2.470122100000E-01
     27 T   1 H    -4.056877900000E-01 -9.665268000000E-02  2.529691500000E-01
     28 T   1 H    -2.519946800000E-01  2.107647900000E-01 -2.470308500000E-01
     29 T   1 H    -3.089272600000E-01 -4.059457900000E-01  2.475690000000E-01
     30 T   1 H    -1.552341500000E-01 -9.852832000000E-02 -2.524310000000E-01
     31 T   1 H     3.089618300000E-01  4.056093300000E-01  2.470865300000E-01
     32 T   1 H     4.626549400000E-01 -2.869732000000E-01 -2.529134800000E-01
     33 T   1 H     4.058405700000E-01  3.088232500000E-01  2.470122500000E-01
     34 T   1 H    -4.404663200000E-01 -3.837592800000E-01 -2.529877500000E-01
     35 T   1 H    -4.057091200000E-01 -3.090420700000E-01  2.470308900000E-01
     36 T   1 H    -2.520160100000E-01 -1.624600000000E-03 -2.529691200000E-01
     37 T   6 C    -1.081096900000E-01  4.459436900000E-01  2.491463800000E-01
     38 T   6 C     4.558342000000E-02 -2.466388400000E-01 -2.508536200000E-01
     39 T   6 C    -5.351089000000E-02  3.927856300000E-01  2.476432100000E-01
     40 T   6 C     1.001822200000E-01 -2.997969000000E-01 -2.523567900000E-01
     41 T   6 C     5.338812000000E-02 -3.928147000000E-01  2.475133600000E-01
     42 T   6 C     2.070812300000E-01 -8.539723000000E-02 -2.524866400000E-01
     43 T   6 C    -5.354789000000E-02 -4.463078100000E-01  2.479030600000E-01
     44 T   6 C     1.001452200000E-01 -1.388903400000E-01 -2.520969400000E-01
     45 T   6 C     5.342634000000E-02  4.462499700000E-01  2.469009200000E-01
     46 T   6 C     2.071194500000E-01 -2.463325600000E-01 -2.530990700000E-01
     47 T   6 C     1.080358900000E-01 -4.459643700000E-01  2.479216000000E-01
     48 T   6 C     2.617290000000E-01 -1.385469000000E-01 -2.520784000000E-01
     49 T   6 C    -4.459605800000E-01  1.081684600000E-01  2.508536600000E-01
     50 T   6 C    -2.922674700000E-01  4.155859300000E-01 -2.491463400000E-01
     51 T   6 C    -3.928221500000E-01  5.355594000000E-02  2.523568000000E-01
     52 T   6 C    -2.391290400000E-01  3.609734100000E-01 -2.476432000000E-01
     53 T   6 C     3.927986700000E-01 -5.333684000000E-02  2.524867000000E-01
     54 T   6 C    -4.535082200000E-01  2.540806300000E-01 -2.475133000000E-01
     55 T   6 C     4.462875800000E-01  5.360286000000E-02  2.520970100000E-01
     56 T   6 C    -4.000193100000E-01  3.610203300000E-01 -2.479029900000E-01
     57 T   6 C    -4.462831500000E-01 -5.337644000000E-02  2.530990800000E-01
     58 T   6 C    -2.925900400000E-01  2.540410300000E-01 -2.469009200000E-01
     59 T   6 C     4.459279100000E-01 -1.080079400000E-01  2.520784300000E-01
     60 T   6 C    -4.003789800000E-01  1.994095300000E-01 -2.479215700000E-01
     61 T   6 C    -4.459551300000E-01  4.458745500000E-01  2.491463800000E-01
     62 T   6 C    -2.922620200000E-01 -2.467079800000E-01 -2.508536200000E-01
     63 T   6 C    -3.927897800000E-01 -4.463742200000E-01  2.476432500000E-01
     64 T   6 C    -2.390966700000E-01 -1.389567500000E-01 -2.523567500000E-01
     65 T   6 C     3.928233700000E-01  4.461720300000E-01  2.475133300000E-01
     66 T   6 C    -4.534835200000E-01 -2.464105000000E-01 -2.524866700000E-01
     67 T   6 C     4.462872600000E-01  3.926899900000E-01  2.479030200000E-01
     68 T   6 C    -4.000196300000E-01 -2.998925400000E-01 -2.520969800000E-01
     69 T   6 C    -4.462570400000E-01 -3.929020000000E-01  2.469009700000E-01
     70 T   6 C    -2.925639300000E-01 -8.548453000000E-02 -2.530990400000E-01
     71 T   6 C     4.459599800000E-01 -4.460417700000E-01  2.479216000000E-01
     72 T   6 C    -4.003469100000E-01 -1.386243000000E-01 -2.520784000000E-01
     73 T   8 O    -4.392633200000E-01  2.803706300000E-01  2.496103100000E-01
     74 T   8 O    -2.855702100000E-01 -4.122119000000E-01 -2.503896900000E-01
     75 T   8 O    -2.803183000000E-01  2.803783300000E-01  2.528207200000E-01
     76 T   8 O    -1.266251900000E-01 -4.122042000000E-01 -2.471792800000E-01
     77 T   8 O    -2.803205800000E-01  4.393234600000E-01  2.479772800000E-01
     78 T   8 O    -1.266274700000E-01 -2.532590700000E-01 -2.520227200000E-01
     79 T   8 O     2.803245100000E-01 -2.803488900000E-01  2.496103300000E-01
     80 T   8 O     4.340176200000E-01  2.706858000000E-02 -2.503896700000E-01
     81 T   8 O     2.803439700000E-01 -4.393043900000E-01  2.528207100000E-01
     82 T   8 O     4.340370800000E-01 -1.318869200000E-01 -2.471792900000E-01
     83 T   8 O     4.392638400000E-01 -2.803645800000E-01  2.479772700000E-01
     84 T   8 O    -4.070430500000E-01  2.705289000000E-02 -2.520227200000E-01

 T = ATOM BELONGING TO THE ASYMMETRIC UNIT

 ****    1 SYMMOPS - TRANSLATORS IN FRACTIONAL UNITS
 **** MATRICES AND TRANSLATORS IN THE CRYSTALLOGRAPHIC REFERENCE FRAME
   V INV                    ROTATION MATRICES                   TRANSLATORS
   1   1  1.00 -0.00  0.00  0.00  1.00  0.00  0.00  0.00  1.00  0.00  0.00  0.00

 DIRECT LATTICE VECTORS CARTESIAN COMPONENTS (ANGSTROM)
          X                    Y                    Z
   0.130113578931E+02  -0.751088897922E+01   0.000000000000E+00
   0.000000000000E+00   0.150239160000E+02   0.000000000000E+00
  -0.140295695767E-04  -0.372069289925E-04   0.659999999988E+01


 CARTESIAN COORDINATES - PRIMITIVE CELL
 *******************************************************************************
 *      ATOM          X(ANGSTROM)         Y(ANGSTROM)         Z(ANGSTROM)
 *******************************************************************************
    1     5 B    -5.026544272659E+00  6.316803088460E+00  1.654776683970E+00
    2     5 B    -3.026781197967E+00 -5.242851947944E+00 -1.645223315970E+00
    3     5 B    -2.957014155482E+00  7.511852655512E+00  1.654776749970E+00
    4     5 B    -9.572510807906E-01 -4.047802380891E+00 -1.645223249970E+00
    5     5 B    -5.026599809808E+00 -6.317640374193E+00  1.644733595970E+00
    6     5 B    -3.026836735116E+00 -2.853379410596E+00 -1.655266403970E+00
    7     5 B     2.956895873280E+00 -7.511640329265E+00  1.654776749970E+00
    8     5 B     4.956658947971E+00 -4.047379365669E+00 -1.645223249970E+00
    9     5 B     5.027106614587E+00  6.316921325621E+00  1.654776749970E+00
   10     5 B    -5.984488203777E+00  2.268155268434E+00 -1.645223249970E+00
   11     5 B     5.026850051958E+00 -6.315952529924E+00  1.644733595970E+00
   12     5 B     7.026613126650E+00 -2.851691566327E+00 -1.655266403970E+00
   13     1 H    -1.261537633481E+00  5.369558515801E+00  1.633955201970E+00
   14     1 H     7.382254412104E-01 -6.190096520602E+00 -1.666044797970E+00
   15     1 H     1.257342988139E+00 -5.367407585650E+00  1.630771295970E+00
   16     1 H     3.257106062831E+00 -1.903146622053E+00 -1.669228769970E+00
   17     1 H    -1.262477045711E+00 -5.369860012142E+00  1.630281179970E+00
   18     1 H     7.372860289804E-01 -1.905599048546E+00 -1.669718819970E+00
   19     1 H     1.258665593451E+00  5.368392561513E+00  1.630403477970E+00
   20     1 H     3.258428668143E+00 -6.191262474890E+00 -1.669596587970E+00
   21     1 H    -4.020091562458E+00  3.777993700125E+00  1.666044929970E+00
   22     1 H    -2.020328487766E+00  7.242254663721E+00 -1.633955069970E+00
   23     1 H     4.019591602454E+00 -3.771095982729E+00  1.669229099970E+00
   24     1 H     6.019354677146E+00 -3.068350191326E-01 -1.630770899970E+00
   25     1 H     5.280916148631E+00 -1.590383100463E+00  1.669719413970E+00
   26     1 H     7.280679223323E+00  1.873877863134E+00 -1.630280585970E+00
   27     1 H    -5.278552577581E+00  1.594964793214E+00  1.669596389970E+00
   28     1 H    -3.278789502890E+00  5.059225756810E+00 -1.630403609970E+00
   29     1 H    -4.019566616068E+00 -3.778586308282E+00  1.633955399970E+00
   30     1 H    -2.019803541376E+00 -3.143253446858E-01 -1.666044599970E+00
   31     1 H     4.020009478906E+00  3.773253305460E+00  1.630771097970E+00
   32     1 H    -6.991585339459E+00 -2.755127517269E-01 -1.669228967970E+00
   33     1 H     5.280533438317E+00  1.591501911748E+00  1.630280849970E+00
   34     1 H    -5.731061380048E+00 -2.457264145439E+00 -1.669719149970E+00
   35     1 H    -5.278830026534E+00 -1.595795133231E+00  1.630403873970E+00
   36     1 H    -3.279066951842E+00  1.868465830366E+00 -1.669596191970E+00
   37     6 C    -1.406657363714E+00  7.511811148486E+00  1.644366107970E+00
   38     6 C     5.931057109778E-01 -4.047843887918E+00 -1.655633891970E+00
   39     6 C    -6.962528152936E-01  6.303083451053E+00  1.634445185970E+00
   40     6 C     1.303510259398E+00 -5.256571585351E+00 -1.665554813970E+00
   41     6 C     6.946484640515E-01 -6.302616507706E+00  1.633588175970E+00
   42     6 C     2.694411538743E+00 -2.838355544110E+00 -1.666411823970E+00
   43     6 C    -6.967342391813E-01 -6.303108014434E+00  1.636160195970E+00
   44     6 C     1.303028835510E+00 -2.838847050838E+00 -1.663839803970E+00
   45     6 C     6.951457667425E-01  6.303133569552E+00  1.629546071970E+00
   46     6 C     2.694908841434E+00 -5.256521466852E+00 -1.670453861970E+00
   47     6 C     1.405690151852E+00 -7.511586033835E+00  1.636282559970E+00
   48     6 C     3.405453226543E+00 -4.047325070239E+00 -1.663717439970E+00
   49     6 C     7.208801661113E+00 -2.536224050334E+00  1.655634155970E+00
   50     6 C    -3.802793157252E+00 -6.584990107521E+00 -1.644365843970E+00
   51     6 C    -5.111153122427E+00  3.755054111667E+00  1.665554879970E+00
   52     6 C    -3.111390047736E+00  7.219315075263E+00 -1.634445119970E+00
   53     6 C     5.110840533007E+00 -3.751604799674E+00  1.666412219970E+00
   54     6 C     7.110603607699E+00 -2.873438360775E-01 -1.633587779970E+00
   55     6 C     5.806803889794E+00 -2.546700979939E+00  1.663840265970E+00
   56     6 C     7.806566964485E+00  9.175599836575E-01 -1.636159733970E+00
   57     6 C    -5.806753337162E+00  2.550050624966E+00  1.670453927970E+00
   58     6 C    -3.806990262470E+00  6.014311588563E+00 -1.629546071970E+00
   59     6 C     5.802124094961E+00 -4.972026621701E+00  1.663717637970E+00
   60     6 C     7.801887169653E+00 -1.507765658105E+00 -1.636282361970E+00
   61     6 C     7.208872596966E+00  2.537403007692E+00  1.644366107970E+00
   62     6 C    -3.802722221399E+00 -1.511363049495E+00 -1.655633891970E+00
   63     6 C    -5.110731878643E+00 -3.756097570139E+00  1.634445449970E+00
   64     6 C    -3.110968803951E+00 -2.918366065430E-01 -1.665554549970E+00
   65     6 C     5.111161983321E+00  3.752789170547E+00  1.633587977970E+00
   66     6 C    -5.900432835044E+00 -2.959768866401E-01 -1.666412021970E+00
   67     6 C     5.806799784999E+00  2.547718137392E+00  1.636159931970E+00
   68     6 C    -5.204795033366E+00 -1.501047919795E+00 -1.663840067970E+00
   69     6 C    -5.806413523650E+00 -2.551148747025E+00  1.629546401970E+00
   70     6 C    -3.806650448959E+00  9.131122165718E-01 -1.670453663970E+00
   71     6 C     5.802541427527E+00  4.973056791674E+00  1.636282559970E+00
   72     6 C    -5.209053390838E+00  9.242907344867E-01 -1.663717439970E+00
   73     8 O     7.295942125319E+00  6.245566995733E-04  1.647428045970E+00
   74     8 O    -3.715652693046E+00 -4.048141500487E+00 -1.652571953970E+00
   75     8 O    -3.647325272239E+00  6.317810701600E+00  1.668616751970E+00
   76     8 O    -1.647562197547E+00 -5.241844334803E+00 -1.631383247970E+00
   77     8 O    -3.647354870184E+00 -6.318109711634E+00  1.636650047970E+00
   78     8 O    -1.647591795492E+00 -2.853848748038E+00 -1.663349951970E+00
   79     8 O     3.647399023880E+00 -6.317433734050E+00  1.647428177970E+00
   80     8 O     5.647162098572E+00 -2.853172770454E+00 -1.652571821970E+00
   81     8 O     3.647652179865E+00  6.318201904864E+00  1.668616685970E+00
   82     8 O     5.647415254556E+00 -5.241453131540E+00 -1.631383313970E+00
   83     8 O    -7.295942340353E+00 -5.560813757980E-04  1.636649981970E+00
   84     8 O    -5.296179265661E+00  3.463704882220E+00 -1.663349951970E+00

 *******************************************************************************
 STARTING BASIS SET HANDLING 
 *******************************************************************************

 Loading internal basis set: SOLDEF2MSVP         

 Please cite in your publication:
 L. Dona', J. G. Brandenburg and B. Civalleri, J. Chem. Phys., 151, 121101 (2019
 )                                                                              
                                                                                
                    

 *******************************************************************************
 LOCAL ATOMIC FUNCTIONS BASIS SET
 *******************************************************************************
   ATOM   X(AU)   Y(AU)   Z(AU)  N. TYPE  EXPONENT  S COEF   P COEF   D/F/G COEF
 *******************************************************************************
   1 B   -9.499  11.937   3.127
                                  1 S  
                                         2.410E+03 1.755E-03 0.000E+00 0.000E+00
                                         3.619E+02 1.344E-02 0.000E+00 0.000E+00
                                         8.231E+01 6.637E-02 0.000E+00 0.000E+00
                                         2.311E+01 2.303E-01 0.000E+00 0.000E+00
                                         7.252E+00 5.150E-01 0.000E+00 0.000E+00
                                  2 S  
                                         2.367E+00 1.000E+00 0.000E+00 0.000E+00
                                  3 S  
                                         5.533E-01 1.000E+00 0.000E+00 0.000E+00
                                  4 S  
                                         1.716E-01 1.000E+00 0.000E+00 0.000E+00
                           5-     7 P  
                                         6.002E+00 0.000E+00-3.555E-02 0.000E+00
                                         1.240E+00 0.000E+00-1.983E-01 0.000E+00
                                         3.367E-01 0.000E+00-5.048E-01 0.000E+00
                           8-    10 P  
                                         1.256E-01 0.000E+00 1.000E+00 0.000E+00
                          11-    15 D  
                                         8.880E-01 0.000E+00 0.000E+00 1.000E+00
   2 B   -5.720  -9.908  -3.109
   3 B   -5.588  14.195   3.127
   4 B   -1.809  -7.649  -3.109
   5 B   -9.499 -11.939   3.108
   6 B   -5.720  -5.392  -3.128
   7 B    5.588 -14.195   3.127
   8 B    9.367  -7.648  -3.109
   9 B    9.500  11.937   3.127
  10 B  -11.309   4.286  -3.109
  11 B    9.499 -11.935   3.108
  12 B   13.278  -5.389  -3.128
  13 H   -2.384  10.147   3.088
                                181 S  
                                         1.874E+01 1.968E-02 0.000E+00 0.000E+00
                                         2.826E+00 1.380E-01 0.000E+00 0.000E+00
                                         6.401E-01 4.783E-01 0.000E+00 0.000E+00
                                182 S  
                                         1.756E-01 1.000E+00 0.000E+00 0.000E+00
  14 H    1.395 -11.698  -3.148
  15 H    2.376 -10.143   3.082
  16 H    6.155  -3.596  -3.154
  17 H   -2.386 -10.148   3.081
  18 H    1.393  -3.601  -3.155
  19 H    2.379  10.145   3.081
  20 H    6.158 -11.700  -3.155
  21 H   -7.597   7.139   3.148
  22 H   -3.818  13.686  -3.088
  23 H    7.596  -7.126   3.154
  24 H   11.375  -0.580  -3.082
  25 H    9.979  -3.005   3.155
  26 H   13.758   3.541  -3.081
  27 H   -9.975   3.014   3.155
  28 H   -6.196   9.561  -3.081
  29 H   -7.596  -7.140   3.088
  30 H   -3.817  -0.594  -3.148
  31 H    7.597   7.130   3.082
  32 H  -13.212  -0.521  -3.154
  33 H    9.979   3.008   3.081
  34 H  -10.830  -4.644  -3.155
  35 H   -9.976  -3.016   3.081
  36 H   -6.197   3.531  -3.155
  37 C   -2.658  14.195   3.107
                                229 S  
                                         3.624E+03 1.634E-03 0.000E+00 0.000E+00
                                         5.440E+02 1.252E-02 0.000E+00 0.000E+00
                                         1.237E+02 6.211E-02 0.000E+00 0.000E+00
                                         3.476E+01 2.182E-01 0.000E+00 0.000E+00
                                         1.093E+01 4.980E-01 0.000E+00 0.000E+00
                                230 S  
                                         3.574E+00 1.000E+00 0.000E+00 0.000E+00
                                231 S  
                                         7.742E-01 1.000E+00 0.000E+00 0.000E+00
                                232 S  
                                         2.330E-01 1.000E+00 0.000E+00 0.000E+00
                         233-   235 P  
                                         9.443E+00 0.000E+00 3.790E-02 0.000E+00
                                         2.002E+00 0.000E+00 2.082E-01 0.000E+00
                                         5.463E-01 0.000E+00 5.047E-01 0.000E+00
                         236-   238 P  
                                         1.820E-01 0.000E+00 1.000E+00 0.000E+00
                         239-   243 D  
                                         8.880E-01 0.000E+00 0.000E+00 1.000E+00
  38 C    1.121  -7.649  -3.129
  39 C   -1.316  11.911   3.089
  40 C    2.463  -9.933  -3.147
  41 C    1.313 -11.910   3.087
  42 C    5.092  -5.364  -3.149
  43 C   -1.317 -11.911   3.092
  44 C    2.462  -5.365  -3.144
  45 C    1.314  11.911   3.079
  46 C    5.093  -9.933  -3.157
  47 C    2.656 -14.195   3.092
  48 C    6.435  -7.648  -3.144
  49 C   13.623  -4.793   3.129
  50 C   -7.186 -12.444  -3.107
  51 C   -9.659   7.096   3.147
  52 C   -5.880  13.643  -3.089
  53 C    9.658  -7.090   3.149
  54 C   13.437  -0.543  -3.087
  55 C   10.973  -4.813   3.144
  56 C   14.752   1.734  -3.092
  57 C  -10.973   4.819   3.157
  58 C   -7.194  11.365  -3.079
  59 C   10.964  -9.396   3.144
  60 C   14.743  -2.849  -3.092
  61 C   13.623   4.795   3.107
  62 C   -7.186  -2.856  -3.129
  63 C   -9.658  -7.098   3.089
  64 C   -5.879  -0.551  -3.147
  65 C    9.659   7.092   3.087
  66 C  -11.150  -0.559  -3.149
  67 C   10.973   4.814   3.092
  68 C   -9.836  -2.837  -3.144
  69 C  -10.973  -4.821   3.079
  70 C   -7.194   1.726  -3.157
  71 C   10.965   9.398   3.092
  72 C   -9.844   1.747  -3.144
  73 O   13.787   0.001   3.113
                                769 S  
                                         6.773E+03 1.727E-03 0.000E+00 0.000E+00
                                         1.017E+03 1.325E-02 0.000E+00 0.000E+00
                                         2.313E+02 6.603E-02 0.000E+00 0.000E+00
                                         6.501E+01 2.353E-01 0.000E+00 0.000E+00
                                         2.050E+01 5.498E-01 0.000E+00 0.000E+00
                                770 S  
                                         6.716E+00 1.000E+00 0.000E+00 0.000E+00
                                771 S  
                                         1.147E+00 1.000E+00 0.000E+00 0.000E+00
                                772 S  
                                         3.342E-01 1.000E+00 0.000E+00 0.000E+00
                         773-   775 P  
                                         1.769E+01 0.000E+00 4.359E-02 0.000E+00
                                         3.854E+00 0.000E+00 2.318E-01 0.000E+00
                                         1.047E+00 0.000E+00 5.146E-01 0.000E+00
                         776-   778 P  
                                         2.759E-01 0.000E+00 1.000E+00 0.000E+00
                         779-   783 D  
                                         8.000E-01 0.000E+00 0.000E+00 1.000E+00
  74 O   -7.022  -7.650  -3.123
  75 O   -6.892  11.939   3.153
  76 O   -3.113  -9.906  -3.083
  77 O   -6.893 -11.939   3.093
  78 O   -3.113  -5.393  -3.143
  79 O    6.893 -11.938   3.113
  80 O   10.672  -5.392  -3.123
  81 O    6.893  11.940   3.153
  82 O   10.672  -9.905  -3.083
  83 O  -13.787  -0.001   3.093
  84 O  -10.008   6.545  -3.143

 *******************************************************************************
 FINISHED BASIS SET HANDLING 
 *******************************************************************************

 INFORMATION **** SET_MPP **** PCRYSTAL CALCULATION
 INFORMATION **** READM2 **** NEW DEFAULT: FOCK/KS MATRIX MIXING SET TO 30 %
 INFORMATION **** READM2 **** NEW DEFAULT: FULL DIRECT SCF MODE
 INFORMATION **** READM2 **** NEW DEFAULT: COULOMB BIPOLAR BUFFER SET TO 32 Mb
 INFORMATION **** READM2 **** NEW DEFAULT: EXCHANGE BIPOLAR BUFFER SET TO 32 Mb

 *******************************************************************************
 NEW DEFAULT: DFT INTEGRATION GRID INCREASED TO XLGRID
 NEW DEFAULT: DIIS ACCELERATOR ACTIVE
 USE KEYWORD NODIIS TO TURN IT OFF
 *******************************************************************************

 WARNING **** RDDFTP **** HSEsol-HJS ACTIVE
 RANGE SEPARATION - OMEGA:   0.110000000000000     
 WARNING **** RDDFTP **** HSEsol-3c has to be combined with sol-def2-mSVP basis set
 *******************************************************************************
 N. OF ATOMS PER CELL        84  COULOMB OVERLAP TOL         (T1) 10**   -6
 NUMBER OF SHELLS           468  COULOMB PENETRATION TOL     (T2) 10**   -6
 NUMBER OF AO               948  EXCHANGE OVERLAP TOL        (T3) 10**   -6
 N. OF ELECTRONS PER CELL   396  EXCHANGE PSEUDO OVP (F(G))  (T4) 10**   -6
 CORE ELECTRONS PER CELL    120  EXCHANGE PSEUDO OVP (P(G))  (T5) 10**  -12
 N. OF SYMMETRY OPERATORS     1  POLE ORDER IN MONO ZONE                  4
 *******************************************************************************
 TYPE OF CALCULATION :  RESTRICTED CLOSED SHELL
 KOHN-SHAM HAMILTONIAN

 (EXCHANGE)[CORRELATION] FUNCTIONAL:(HSEsol GGA)[PBEsol]

 RANGE-SEPARATED HYBRID FUNCTIONAL 
 OMEGA (SHORT-RANGE)[LONG-RANGE]:(    0.1100)[    0.0000]

 HYBRID EXCHANGE - PERCENTAGE OF FOCK EXCHANGE    25.0000

 CAPPA:IS1  2;IS2  2;IS3  8; K PTS MONK NET  20; SYMMOPS:K SPACE   2;G SPACE   1

 *******************************************************************************
 MAX NUMBER OF SCF CYCLES      50  CONVERGENCE ON DELTAP        10**-16
 WEIGHT OF F(I) IN F(I+1)      30% CONVERGENCE ON ENERGY        10**- 6
 SHRINK. FACT.(MONKH.)    2  2  8  NUMBER OF K POINTS IN THE IBZ     20
 SHRINKING FACTOR(GILAT NET)    8  NUMBER OF K POINTS(GILAT NET)   1028
 *******************************************************************************
 *** K POINTS COORDINATES (OBLIQUE COORDINATES IN UNITS OF IS =  2)
   1-R(  0  0  0)   2-R(  1  0  0)   3-R(  0  1  0)   4-R(  1  1  0)
   5-C(  0  0  1)   6-C(  1  0  1)   7-C(  0  1  1)   8-C(  1  1  1)
   9-C(  0  0  2)  10-C(  1  0  2)  11-C(  0  1  2)  12-C(  1  1  2)
  13-C(  0  0  3)  14-C(  1  0  3)  15-C(  0  1  3)  16-C(  1  1  3)
  17-R(  0  0  4)  18-R(  1  0  4)  19-R(  0  1  4)  20-R(  1  1  4)

 DIRECT LATTICE VECTORS COMPON. (A.U.)     RECIP. LATTICE VECTORS COMPON. (A.U.) 
        X            Y            Z              X            Y            Z
   24.5879030  -14.1935232    0.0000000      0.2555397    0.0000000    0.0000005
    0.0000000   28.3910867    0.0000000      0.1277517    0.2213084    0.0000015
   -0.0000265   -0.0000703   12.4721925      0.0000000    0.0000000    0.5037755

 DISK SPACE FOR EIGENVECTORS (FTN 10)    28758528 REALS

 SYMMETRY ADAPTION OF THE BLOCH FUNCTIONS DISABLED
 TTTTTTTTTTTTTTTTTTTTTTTTTTTTTT gordsh1     TELAPSE        0.05 TCPU        0.05

 MATRIX SIZE: P(G)  786914, F(G)  150844, P(G) IRR  395623, F(G) IRR  151876
 MAX G-VECTOR INDEX FOR 1- AND 2-ELECTRON INTEGRALS  55

 TTTTTTTTTTTTTTTTTTTTTTTTTTTTTT INPUT       TELAPSE        2.88 TCPU        2.87

 NEIGHBORS OF THE NON-EQUIVALENT ATOMS

 N = NUMBER OF NEIGHBORS AT DISTANCE R
    ATOM  N     R/ANG      R/AU   NEIGHBORS (ATOM LABELS AND CELL INDICES)
   1 B    1     1.3791     2.6061   73 O   -1 0 0
   1 B    1     1.3793     2.6065   75 O    0 0 0
   1 B    1     1.5503     2.9297   49 C   -1 0 0
   1 B    1     2.3895     4.5155    5 B    0 1 0
   1 B    1     2.3898     4.5160    3 B    0 0 0
   1 B    1     2.5632     4.8437   51 C    0 0 0

   2 B    1     1.3791     2.6061   74 O    0 0 0
   2 B    1     1.3793     2.6065   76 O    0 0 0
   2 B    1     1.5503     2.9297   50 C    0 0 0
   2 B    1     2.3895     4.5155    6 B    0 0 0
   2 B    1     2.3898     4.5160    4 B    0 0 0
   2 B    1     2.5632     4.8437   52 C    0-1 0

   3 B    1     1.3793     2.6065   77 O    0 1 0
   3 B    1     1.3793     2.6065   75 O    0 0 0
   3 B    1     1.5504     2.9298   37 C    0 0 0
   3 B    1     2.3895     4.5156    5 B    0 1 0
   3 B    1     2.3898     4.5160    1 B    0 0 0
   3 B    1     2.5634     4.8440   43 C    0 1 0

   4 B    1     1.3793     2.6065   78 O    0 0 0
   4 B    1     1.3793     2.6065   76 O    0 0 0
   4 B    1     1.5504     2.9298   38 C    0 0 0
   4 B    1     2.3895     4.5156    6 B    0 0 0
   4 B    1     2.3898     4.5160    2 B    0 0 0
   4 B    1     2.5634     4.8440   44 C    0 0 0

   5 B    1     1.3791     2.6061   73 O   -1-1 0
   5 B    1     1.3793     2.6064   77 O    0 0 0
   5 B    1     1.5502     2.9294   61 C   -1-1 0
   5 B    1     2.3895     4.5155    1 B    0-1 0
   5 B    1     2.3895     4.5156    3 B    0-1 0
   5 B    1     2.5629     4.8433   63 C    0 0 0

   6 B    1     1.3791     2.6061   74 O    0 0 0
   6 B    1     1.3793     2.6064   78 O    0 0 0
   6 B    1     1.5502     2.9294   62 C    0 0 0
   6 B    1     2.3895     4.5155    2 B    0 0 0
   6 B    1     2.3895     4.5156    4 B    0 0 0
   6 B    1     2.5629     4.8433   64 C    0 0 0

   7 B    1     1.3795     2.6068   79 O    0 0 0
   7 B    1     1.3795     2.6070   81 O    0-1 0
   7 B    1     1.5513     2.9316   47 C    0 0 0
   7 B    1     2.3905     4.5174   11 B    0 0 0
   7 B    1     2.3905     4.5175    9 B    0-1 0
   7 B    1     2.5648     4.8468   45 C    0-1 0

   8 B    1     1.3795     2.6068   80 O    0 0 0
   8 B    1     1.3795     2.6070   82 O    0 0 0
   8 B    1     1.5513     2.9316   48 C    0 0 0
   8 B    1     2.3905     4.5174   12 B    0 0 0
   8 B    1     2.3905     4.5175   10 B    1 0 0
   8 B    1     2.5648     4.8468   46 C    0 0 0

   9 B    1     1.3795     2.6069   81 O    0 0 0
   9 B    1     1.3797     2.6072   83 O    1 1 0
   9 B    1     1.5516     2.9322   71 C    0 0 0
   9 B    1     2.3905     4.5175    7 B    0 1 0
   9 B    1     2.3911     4.5185   11 B    0 1 0
   9 B    1     2.5651     4.8473   69 C    1 1 0

  10 B    1     1.3795     2.6069   82 O   -1 0 0
  10 B    1     1.3797     2.6072   84 O    0 0 0
  10 B    1     1.5516     2.9322   72 C    0 0 0
  10 B    1     2.3905     4.5175    8 B   -1 0 0
  10 B    1     2.3911     4.5185   12 B   -1 0 0
  10 B    1     2.5651     4.8473   70 C    0 0 0

  11 B    1     1.3795     2.6068   79 O    0 0 0
  11 B    1     1.3796     2.6071   83 O    1 0 0
  11 B    1     1.5516     2.9322   59 C    0 0 0
  11 B    1     2.3905     4.5174    7 B    0 0 0
  11 B    1     2.3911     4.5185    9 B    0-1 0
  11 B    1     2.5651     4.8473   57 C    1 0 0

  12 B    1     1.3795     2.6068   80 O    0 0 0
  12 B    1     1.3796     2.6071   84 O    1 0 0
  12 B    1     1.5516     2.9322   60 C    0 0 0
  12 B    1     2.3905     4.5174    8 B    0 0 0
  12 B    1     2.3911     4.5185   10 B    1 0 0
  12 B    1     2.5651     4.8473   58 C    1 0 0

  13 H    1     1.0913     2.0623   39 C    0 0 0
  13 H    1     2.1472     4.0576   37 C    0 0 0
  13 H    1     2.1680     4.0969   45 C    0 0 0
  13 H    1     2.5202     4.7625   19 H    0 0 0
  13 H    1     2.5676     4.8520   75 O    0 0 0
  13 H    1     2.7321     5.1630    3 B    0 0 0

  14 H    1     1.0913     2.0623   40 C    0 0 0
  14 H    1     2.1472     4.0576   38 C    0 0 0
  14 H    1     2.1680     4.0969   46 C    0 0 0
  14 H    1     2.5202     4.7625   20 H    0 0 0
  14 H    1     2.5676     4.8520   76 O    0 0 0
  14 H    1     2.7321     5.1630    4 B    0 0 0

  15 H    1     1.0914     2.0625   41 C    0 0 0
  15 H    1     2.1493     4.0616   47 C    0 0 0
  15 H    1     2.1666     4.0942   43 C    0 0 0
  15 H    1     2.5198     4.7618   17 H    0 0 0
  15 H    1     2.5720     4.8604   79 O    0 0 0
  15 H    1     2.7362     5.1707    7 B    0 0 0

  16 H    1     1.0914     2.0625   42 C    0 0 0
  16 H    1     2.1493     4.0616   48 C    0 0 0
  16 H    1     2.1666     4.0942   44 C    0 0 0
  16 H    1     2.5198     4.7618   18 H    0 0 0
  16 H    1     2.5720     4.8604   80 O    0 0 0
  16 H    1     2.7362     5.1707    8 B    0 0 0

  17 H    1     1.0914     2.0624   43 C    0 0 0
  17 H    1     2.1471     4.0575   37 C    0-1 0
  17 H    1     2.1680     4.0970   41 C    0 0 0
  17 H    1     2.5198     4.7618   15 H    0 0 0
  17 H    1     2.5665     4.8500   77 O    0 0 0
  17 H    1     2.7315     5.1618    3 B    0-1 0

  18 H    1     1.0914     2.0624   44 C    0 0 0
  18 H    1     2.1471     4.0575   38 C    0 0 0
  18 H    1     2.1680     4.0970   42 C    0 0 0
  18 H    1     2.5198     4.7618   16 H    0 0 0
  18 H    1     2.5665     4.8500   78 O    0 0 0
  18 H    1     2.7315     5.1618    4 B    0 0 0

  19 H    1     1.0915     2.0626   45 C    0 0 0
  19 H    1     2.1490     4.0610   47 C    0 1 0
  19 H    1     2.1669     4.0948   39 C    0 0 0
  19 H    1     2.5202     4.7625   13 H    0 0 0
  19 H    1     2.5712     4.8588   81 O    0 0 0
  19 H    1     2.7351     5.1686    7 B    0 1 0

  20 H    1     1.0915     2.0626   46 C    0 0 0
  20 H    1     2.1490     4.0610   48 C    0 0 0
  20 H    1     2.1669     4.0948   40 C    0 0 0
  20 H    1     2.5202     4.7625   14 H    0 0 0
  20 H    1     2.5712     4.8588   82 O    0 0 0
  20 H    1     2.7351     5.1686    8 B    0 0 0

  21 H    1     1.0913     2.0623   51 C    0 0 0
  21 H    1     2.1469     4.0571   49 C   -1 0 0
  21 H    1     2.1680     4.0968   57 C    0 0 0
  21 H    1     2.5198     4.7617   27 H    0 0 0
  21 H    1     2.5670     4.8510   75 O    0 0 0
  21 H    1     2.7310     5.1609    1 B    0 0 0

  22 H    1     1.0913     2.0623   52 C    0 0 0
  22 H    1     2.1469     4.0571   50 C    0 1 0
  22 H    1     2.1680     4.0968   58 C    0 0 0
  22 H    1     2.5198     4.7617   28 H    0 0 0
  22 H    1     2.5670     4.8510   76 O    0 1 0
  22 H    1     2.7310     5.1609    2 B    0 1 0

  23 H    1     1.0914     2.0625   53 C    0 0 0
  23 H    1     2.1493     4.0617   59 C    0 0 0
  23 H    1     2.1664     4.0939   55 C    0 0 0
  23 H    1     2.5192     4.7606   25 H    0 0 0
  23 H    1     2.5735     4.8632   79 O    0 0 0
  23 H    1     2.7371     5.1723   11 B    0 0 0

  24 H    1     1.0914     2.0625   54 C    0 0 0
  24 H    1     2.1493     4.0617   60 C    0 0 0
  24 H    1     2.1664     4.0939   56 C    0 0 0
  24 H    1     2.5192     4.7606   26 H    0 0 0
  24 H    1     2.5735     4.8632   80 O    0 0 0
  24 H    1     2.7371     5.1723   12 B    0 0 0

  25 H    1     1.0914     2.0624   55 C    0 0 0
  25 H    1     2.1475     4.0581   49 C    0 0 0
  25 H    1     2.1679     4.0967   53 C    0 0 0
  25 H    1     2.5192     4.7606   23 H    0 0 0
  25 H    1     2.5675     4.8519   73 O    0 0 0
  25 H    1     2.7328     5.1643    1 B    1 0 0

  26 H    1     1.0914     2.0624   56 C    0 0 0
  26 H    1     2.1475     4.0581   50 C    1 1 0
  26 H    1     2.1679     4.0967   54 C    0 0 0
  26 H    1     2.5192     4.7606   24 H    0 0 0
  26 H    1     2.5675     4.8519   74 O    1 1 0
  26 H    1     2.7328     5.1643    2 B    1 1 0

  27 H    1     1.0914     2.0625   57 C    0 0 0
  27 H    1     2.1491     4.0612   59 C   -1 0 0
  27 H    1     2.1666     4.0942   51 C    0 0 0
  27 H    1     2.5198     4.7617   21 H    0 0 0
  27 H    1     2.5723     4.8609   83 O    0 0 0
  27 H    1     2.7355     5.1693   11 B   -1 0 0

  28 H    1     1.0914     2.0625   58 C    0 0 0
  28 H    1     2.1491     4.0612   60 C   -1 0 0
  28 H    1     2.1666     4.0942   52 C    0 0 0
  28 H    1     2.5198     4.7617   22 H    0 0 0
  28 H    1     2.5723     4.8609   84 O    0 0 0
  28 H    1     2.7355     5.1693   12 B   -1 0 0

  29 H    1     1.0914     2.0624   63 C    0 0 0
  29 H    1     2.1475     4.0582   61 C   -1-1 0
  29 H    1     2.1678     4.0966   69 C    0 0 0
  29 H    1     2.5200     4.7621   35 H    0 0 0
  29 H    1     2.5667     4.8503   77 O    0 0 0
  29 H    1     2.7315     5.1618    5 B    0 0 0

  30 H    1     1.0914     2.0624   64 C    0 0 0
  30 H    1     2.1475     4.0582   62 C    0 0 0
  30 H    1     2.1678     4.0966   70 C    0 0 0
  30 H    1     2.5200     4.7621   36 H    0 0 0
  30 H    1     2.5667     4.8503   78 O    0 0 0
  30 H    1     2.7315     5.1618    6 B    0 0 0

  31 H    1     1.0913     2.0623   65 C    0 0 0
  31 H    1     2.1487     4.0605   71 C    0 0 0
  31 H    1     2.1667     4.0945   67 C    0 0 0
  31 H    1     2.5197     4.7616   33 H    0 0 0
  31 H    1     2.5723     4.8610   81 O    0 0 0
  31 H    1     2.7359     5.1701    9 B    0 0 0

  32 H    1     1.0913     2.0623   66 C    0 0 0
  32 H    1     2.1487     4.0605   72 C    0 0 0
  32 H    1     2.1667     4.0945   68 C    0 0 0
  32 H    1     2.5197     4.7616   34 H    0 0 0
  32 H    1     2.5723     4.8610   82 O   -1 0 0
  32 H    1     2.7359     5.1701   10 B    0 0 0

  33 H    1     1.0915     2.0626   67 C    0 0 0
  33 H    1     2.1479     4.0589   61 C    0 0 0
  33 H    1     2.1679     4.0968   65 C    0 0 0
  33 H    1     2.5197     4.7616   31 H    0 0 0
  33 H    1     2.5677     4.8522   73 O    0 0 0
  33 H    1     2.7331     5.1648    5 B    1 1 0

  34 H    1     1.0915     2.0626   68 C    0 0 0
  34 H    1     2.1479     4.0589   62 C    0 0 0
  34 H    1     2.1679     4.0968   66 C    0 0 0
  34 H    1     2.5197     4.7616   32 H    0 0 0
  34 H    1     2.5677     4.8522   74 O    0 0 0
  34 H    1     2.7331     5.1648    6 B    0 0 0

  35 H    1     1.0914     2.0624   69 C    0 0 0
  35 H    1     2.1486     4.0602   71 C   -1-1 0
  35 H    1     2.1668     4.0947   63 C    0 0 0
  35 H    1     2.5200     4.7621   29 H    0 0 0
  35 H    1     2.5717     4.8598   83 O    0 0 0
  35 H    1     2.7349     5.1682    9 B   -1-1 0

  36 H    1     1.0914     2.0624   70 C    0 0 0
  36 H    1     2.1486     4.0602   72 C    0 0 0
  36 H    1     2.1668     4.0947   64 C    0 0 0
  36 H    1     2.5200     4.7621   30 H    0 0 0
  36 H    1     2.5717     4.8598   84 O    0 0 0
  36 H    1     2.7349     5.1682   10 B    0 0 0

  37 C    1     1.4020     2.6495   43 C    0 1 0
  37 C    1     1.4021     2.6495   39 C    0 0 0
  37 C    1     1.5504     2.9298    3 B    0 0 0
  37 C    1     2.1471     4.0575   17 H    0 1 0
  37 C    1     2.1472     4.0576   13 H    0 0 0
  37 C    1     2.4246     4.5817   41 C    0 1 0

  38 C    1     1.4020     2.6495   44 C    0 0 0
  38 C    1     1.4021     2.6495   40 C    0 0 0
  38 C    1     1.5504     2.9298    4 B    0 0 0
  38 C    1     2.1471     4.0575   18 H    0 0 0
  38 C    1     2.1472     4.0576   14 H    0 0 0
  38 C    1     2.4246     4.5817   42 C    0 0 0

  39 C    1     1.0913     2.0623   13 H    0 0 0
  39 C    1     1.3914     2.6294   45 C    0 0 0
  39 C    1     1.4021     2.6495   37 C    0 0 0
  39 C    1     2.1669     4.0948   19 H    0 0 0
  39 C    1     2.4177     4.5688   43 C    0 1 0
  39 C    1     2.4250     4.5825   47 C    0 1 0

  40 C    1     1.0913     2.0623   14 H    0 0 0
  40 C    1     1.3914     2.6294   46 C    0 0 0
  40 C    1     1.4021     2.6495   38 C    0 0 0
  40 C    1     2.1669     4.0948   20 H    0 0 0
  40 C    1     2.4177     4.5688   44 C    0 0 0
  40 C    1     2.4250     4.5825   48 C    0 0 0

  41 C    1     1.0914     2.0625   15 H    0 0 0
  41 C    1     1.3914     2.6293   43 C    0 0 0
  41 C    1     1.4026     2.6505   47 C    0 0 0
  41 C    1     2.1680     4.0970   17 H    0 0 0
  41 C    1     2.4182     4.5697   45 C    0-1 0
  41 C    1     2.4246     4.5817   37 C    0-1 0

  42 C    1     1.0914     2.0625   16 H    0 0 0
  42 C    1     1.3914     2.6293   44 C    0 0 0
  42 C    1     1.4026     2.6505   48 C    0 0 0
  42 C    1     2.1680     4.0970   18 H    0 0 0
  42 C    1     2.4182     4.5697   46 C    0 0 0
  42 C    1     2.4246     4.5817   38 C    0 0 0

  43 C    1     1.0914     2.0624   17 H    0 0 0
  43 C    1     1.3914     2.6293   41 C    0 0 0
  43 C    1     1.4020     2.6495   37 C    0-1 0
  43 C    1     2.1666     4.0942   15 H    0 0 0
  43 C    1     2.4177     4.5688   39 C    0-1 0
  43 C    1     2.4250     4.5826   47 C    0 0 0

  44 C    1     1.0914     2.0624   18 H    0 0 0
  44 C    1     1.3914     2.6293   42 C    0 0 0
  44 C    1     1.4020     2.6495   38 C    0 0 0
  44 C    1     2.1666     4.0942   16 H    0 0 0
  44 C    1     2.4177     4.5688   40 C    0 0 0
  44 C    1     2.4250     4.5826   48 C    0 0 0

  45 C    1     1.0915     2.0626   19 H    0 0 0
  45 C    1     1.3914     2.6294   39 C    0 0 0
  45 C    1     1.4025     2.6504   47 C    0 1 0
  45 C    1     2.1680     4.0969   13 H    0 0 0
  45 C    1     2.4182     4.5697   41 C    0 1 0
  45 C    1     2.4246     4.5818   37 C    0 0 0

  46 C    1     1.0915     2.0626   20 H    0 0 0
  46 C    1     1.3914     2.6294   40 C    0 0 0
  46 C    1     1.4025     2.6504   48 C    0 0 0
  46 C    1     2.1680     4.0969   14 H    0 0 0
  46 C    1     2.4182     4.5697   42 C    0 0 0
  46 C    1     2.4246     4.5818   38 C    0 0 0

  47 C    1     1.4025     2.6504   45 C    0-1 0
  47 C    1     1.4026     2.6505   41 C    0 0 0
  47 C    1     1.5513     2.9316    7 B    0 0 0
  47 C    1     2.1490     4.0610   19 H    0-1 0
  47 C    1     2.1493     4.0616   15 H    0 0 0
  47 C    1     2.4250     4.5825   39 C    0-1 0

  48 C    1     1.4025     2.6504   46 C    0 0 0
  48 C    1     1.4026     2.6505   42 C    0 0 0
  48 C    1     1.5513     2.9316    8 B    0 0 0
  48 C    1     2.1490     4.0610   20 H    0 0 0
  48 C    1     2.1493     4.0616   16 H    0 0 0
  48 C    1     2.4250     4.5825   40 C    0 0 0

  49 C    1     1.4020     2.6494   51 C    1 0 0
  49 C    1     1.4021     2.6495   55 C    0 0 0
  49 C    1     1.5503     2.9297    1 B    1 0 0
  49 C    1     2.1469     4.0571   21 H    1 0 0
  49 C    1     2.1475     4.0581   25 H    0 0 0
  49 C    1     2.4246     4.5818   53 C    0 0 0

  50 C    1     1.4020     2.6494   52 C    0-1 0
  50 C    1     1.4021     2.6495   56 C   -1-1 0
  50 C    1     1.5503     2.9297    2 B    0 0 0
  50 C    1     2.1469     4.0571   22 H    0-1 0
  50 C    1     2.1475     4.0581   26 H   -1-1 0
  50 C    1     2.4246     4.5818   54 C   -1-1 0

  51 C    1     1.0913     2.0623   21 H    0 0 0
  51 C    1     1.3914     2.6293   57 C    0 0 0
  51 C    1     1.4020     2.6494   49 C   -1 0 0
  51 C    1     2.1666     4.0942   27 H    0 0 0
  51 C    1     2.4175     4.5684   55 C   -1 0 0
  51 C    1     2.4251     4.5828   59 C   -1 0 0

  52 C    1     1.0913     2.0623   22 H    0 0 0
  52 C    1     1.3914     2.6293   58 C    0 0 0
  52 C    1     1.4020     2.6494   50 C    0 1 0
  52 C    1     2.1666     4.0942   28 H    0 0 0
  52 C    1     2.4175     4.5684   56 C   -1 0 0
  52 C    1     2.4251     4.5828   60 C   -1 0 0

  53 C    1     1.0914     2.0625   23 H    0 0 0
  53 C    1     1.3915     2.6295   55 C    0 0 0
  53 C    1     1.4026     2.6505   59 C    0 0 0
  53 C    1     2.1679     4.0967   25 H    0 0 0
  53 C    1     2.4179     4.5691   57 C    1 0 0
  53 C    1     2.4246     4.5818   49 C    0 0 0

  54 C    1     1.0914     2.0625   24 H    0 0 0
  54 C    1     1.3915     2.6295   56 C    0 0 0
  54 C    1     1.4026     2.6505   60 C    0 0 0
  54 C    1     2.1679     4.0967   26 H    0 0 0
  54 C    1     2.4179     4.5691   58 C    1 0 0
  54 C    1     2.4246     4.5818   50 C    1 1 0

  55 C    1     1.0914     2.0624   25 H    0 0 0
  55 C    1     1.3915     2.6295   53 C    0 0 0
  55 C    1     1.4021     2.6495   49 C    0 0 0
  55 C    1     2.1664     4.0939   23 H    0 0 0
  55 C    1     2.4175     4.5684   51 C    1 0 0
  55 C    1     2.4253     4.5832   59 C    0 0 0

  56 C    1     1.0914     2.0624   26 H    0 0 0
  56 C    1     1.3915     2.6295   54 C    0 0 0
  56 C    1     1.4021     2.6495   50 C    1 1 0
  56 C    1     2.1664     4.0939   24 H    0 0 0
  56 C    1     2.4175     4.5684   52 C    1 0 0
  56 C    1     2.4253     4.5832   60 C    0 0 0

  57 C    1     1.0914     2.0625   27 H    0 0 0
  57 C    1     1.3914     2.6293   51 C    0 0 0
  57 C    1     1.4025     2.6504   59 C   -1 0 0
  57 C    1     2.1680     4.0968   21 H    0 0 0
  57 C    1     2.4179     4.5691   53 C   -1 0 0
  57 C    1     2.4247     4.5819   49 C   -1 0 0

  58 C    1     1.0914     2.0625   28 H    0 0 0
  58 C    1     1.3914     2.6293   52 C    0 0 0
  58 C    1     1.4025     2.6504   60 C   -1 0 0
  58 C    1     2.1680     4.0968   22 H    0 0 0
  58 C    1     2.4179     4.5691   54 C   -1 0 0
  58 C    1     2.4247     4.5819   50 C    0 1 0

  59 C    1     1.4025     2.6504   57 C    1 0 0
  59 C    1     1.4026     2.6505   53 C    0 0 0
  59 C    1     1.5516     2.9322   11 B    0 0 0
  59 C    1     2.1491     4.0612   27 H    1 0 0
  59 C    1     2.1493     4.0617   23 H    0 0 0
  59 C    1     2.4251     4.5828   51 C    1 0 0

  60 C    1     1.4025     2.6504   58 C    1 0 0
  60 C    1     1.4026     2.6505   54 C    0 0 0
  60 C    1     1.5516     2.9322   12 B    0 0 0
  60 C    1     2.1491     4.0612   28 H    1 0 0
  60 C    1     2.1493     4.0617   24 H    0 0 0
  60 C    1     2.4251     4.5828   52 C    1 0 0

  61 C    1     1.4021     2.6496   63 C    1 1 0
  61 C    1     1.4021     2.6497   67 C    0 0 0
  61 C    1     1.5502     2.9294    5 B    1 1 0
  61 C    1     2.1475     4.0582   29 H    1 1 0
  61 C    1     2.1479     4.0589   33 H    0 0 0
  61 C    1     2.4244     4.5814   65 C    0 0 0

  62 C    1     1.4021     2.6496   64 C    0 0 0
  62 C    1     1.4021     2.6497   68 C    0 0 0
  62 C    1     1.5502     2.9294    6 B    0 0 0
  62 C    1     2.1475     4.0582   30 H    0 0 0
  62 C    1     2.1479     4.0589   34 H    0 0 0
  62 C    1     2.4244     4.5814   66 C    0 0 0

  63 C    1     1.0914     2.0624   29 H    0 0 0
  63 C    1     1.3914     2.6293   69 C    0 0 0
  63 C    1     1.4021     2.6496   61 C   -1-1 0
  63 C    1     2.1668     4.0947   35 H    0 0 0
  63 C    1     2.4179     4.5692   67 C   -1-1 0
  63 C    1     2.4251     4.5827   71 C   -1-1 0

  64 C    1     1.0914     2.0624   30 H    0 0 0
  64 C    1     1.3914     2.6293   70 C    0 0 0
  64 C    1     1.4021     2.6496   62 C    0 0 0
  64 C    1     2.1668     4.0947   36 H    0 0 0
  64 C    1     2.4179     4.5692   68 C    0 0 0
  64 C    1     2.4251     4.5827   72 C    0 0 0

  65 C    1     1.0913     2.0623   31 H    0 0 0
  65 C    1     1.3914     2.6294   67 C    0 0 0
  65 C    1     1.4025     2.6504   71 C    0 0 0
  65 C    1     2.1679     4.0968   33 H    0 0 0
  65 C    1     2.4178     4.5690   69 C    1 1 0
  65 C    1     2.4244     4.5814   61 C    0 0 0

  66 C    1     1.0913     2.0623   32 H    0 0 0
  66 C    1     1.3914     2.6294   68 C    0 0 0
  66 C    1     1.4025     2.6504   72 C    0 0 0
  66 C    1     2.1679     4.0968   34 H    0 0 0
  66 C    1     2.4178     4.5690   70 C    0 0 0
  66 C    1     2.4244     4.5814   62 C    0 0 0

  67 C    1     1.0915     2.0626   33 H    0 0 0
  67 C    1     1.3914     2.6294   65 C    0 0 0
  67 C    1     1.4021     2.6497   61 C    0 0 0
  67 C    1     2.1667     4.0945   31 H    0 0 0
  67 C    1     2.4179     4.5692   63 C    1 1 0
  67 C    1     2.4253     4.5832   71 C    0 0 0

  68 C    1     1.0915     2.0626   34 H    0 0 0
  68 C    1     1.3914     2.6294   66 C    0 0 0
  68 C    1     1.4021     2.6497   62 C    0 0 0
  68 C    1     2.1667     4.0945   32 H    0 0 0
  68 C    1     2.4179     4.5692   64 C    0 0 0
  68 C    1     2.4253     4.5832   72 C    0 0 0

  69 C    1     1.0914     2.0624   35 H    0 0 0
  69 C    1     1.3914     2.6293   63 C    0 0 0
  69 C    1     1.4025     2.6503   71 C   -1-1 0
  69 C    1     2.1678     4.0966   29 H    0 0 0
  69 C    1     2.4178     4.5690   65 C   -1-1 0
  69 C    1     2.4245     4.5817   61 C   -1-1 0

  70 C    1     1.0914     2.0624   36 H    0 0 0
  70 C    1     1.3914     2.6293   64 C    0 0 0
  70 C    1     1.4025     2.6503   72 C    0 0 0
  70 C    1     2.1678     4.0966   30 H    0 0 0
  70 C    1     2.4178     4.5690   66 C    0 0 0
  70 C    1     2.4245     4.5817   62 C    0 0 0

  71 C    1     1.4025     2.6503   69 C    1 1 0
  71 C    1     1.4025     2.6504   65 C    0 0 0
  71 C    1     1.5516     2.9322    9 B    0 0 0
  71 C    1     2.1486     4.0602   35 H    1 1 0
  71 C    1     2.1487     4.0605   31 H    0 0 0
  71 C    1     2.4251     4.5827   63 C    1 1 0

  72 C    1     1.4025     2.6503   70 C    0 0 0
  72 C    1     1.4025     2.6504   66 C    0 0 0
  72 C    1     1.5516     2.9322   10 B    0 0 0
  72 C    1     2.1486     4.0602   36 H    0 0 0
  72 C    1     2.1487     4.0605   32 H    0 0 0
  72 C    1     2.4251     4.5827   64 C    0 0 0

  73 O    1     1.3791     2.6061    1 B    1 0 0
  73 O    1     1.3791     2.6061    5 B    1 1 0
  73 O    1     2.3880     4.5126   75 O    1 0 0
  73 O    1     2.3882     4.5130   77 O    1 1 0
  73 O    1     2.5383     4.7966   61 C    0 0 0
  73 O    1     2.5384     4.7968   49 C    0 0 0

  74 O    1     1.3791     2.6061    2 B    0 0 0
  74 O    1     1.3791     2.6061    6 B    0 0 0
  74 O    1     2.3880     4.5126   76 O    0 0 0
  74 O    1     2.3882     4.5130   78 O    0 0 0
  74 O    1     2.5383     4.7966   62 C    0 0 0
  74 O    1     2.5384     4.7968   50 C    0 0 0

  75 O    1     1.3793     2.6065    1 B    0 0 0
  75 O    1     1.3793     2.6065    3 B    0 0 0
  75 O    1     2.3880     4.5126   73 O   -1 0 0
  75 O    1     2.3882     4.5131   77 O    0 1 0
  75 O    1     2.5391     4.7981   37 C    0 0 0
  75 O    1     2.5395     4.7990   49 C   -1 0 0

  76 O    1     1.3793     2.6065    2 B    0 0 0
  76 O    1     1.3793     2.6065    4 B    0 0 0
  76 O    1     2.3880     4.5126   74 O    0 0 0
  76 O    1     2.3882     4.5131   78 O    0 0 0
  76 O    1     2.5391     4.7981   38 C    0 0 0
  76 O    1     2.5395     4.7990   50 C    0 0 0

  77 O    1     1.3793     2.6064    5 B    0 0 0
  77 O    1     1.3793     2.6065    3 B    0-1 0
  77 O    1     2.3882     4.5130   73 O   -1-1 0
  77 O    1     2.3882     4.5131   75 O    0-1 0
  77 O    1     2.5390     4.7980   37 C    0-1 0
  77 O    1     2.5391     4.7982   61 C   -1-1 0

  78 O    1     1.3793     2.6064    6 B    0 0 0
  78 O    1     1.3793     2.6065    4 B    0 0 0
  78 O    1     2.3882     4.5130   74 O    0 0 0
  78 O    1     2.3882     4.5131   76 O    0 0 0
  78 O    1     2.5390     4.7980   38 C    0 0 0
  78 O    1     2.5391     4.7982   62 C    0 0 0

  79 O    1     1.3795     2.6068   11 B    0 0 0
  79 O    1     1.3795     2.6068    7 B    0 0 0
  79 O    1     2.3880     4.5126   83 O    1 0 0
  79 O    1     2.3884     4.5134   81 O    0-1 0
  79 O    1     2.5400     4.7998   47 C    0 0 0
  79 O    1     2.5403     4.8005   59 C    0 0 0

  80 O    1     1.3795     2.6068   12 B    0 0 0
  80 O    1     1.3795     2.6068    8 B    0 0 0
  80 O    1     2.3880     4.5126   84 O    1 0 0
  80 O    1     2.3884     4.5134   82 O    0 0 0
  80 O    1     2.5400     4.7998   48 C    0 0 0
  80 O    1     2.5403     4.8005   60 C    0 0 0

  81 O    1     1.3795     2.6069    9 B    0 0 0
  81 O    1     1.3795     2.6070    7 B    0 1 0
  81 O    1     2.3881     4.5128   83 O    1 1 0
  81 O    1     2.3884     4.5134   79 O    0 1 0
  81 O    1     2.5404     4.8006   47 C    0 1 0
  81 O    1     2.5405     4.8008   71 C    0 0 0

  82 O    1     1.3795     2.6069   10 B    1 0 0
  82 O    1     1.3795     2.6070    8 B    0 0 0
  82 O    1     2.3881     4.5128   84 O    1 0 0
  82 O    1     2.3884     4.5134   80 O    0 0 0
  82 O    1     2.5404     4.8006   48 C    0 0 0
  82 O    1     2.5405     4.8008   72 C    1 0 0

  83 O    1     1.3796     2.6071   11 B   -1 0 0
  83 O    1     1.3797     2.6072    9 B   -1-1 0
  83 O    1     2.3880     4.5126   79 O   -1 0 0
  83 O    1     2.3881     4.5128   81 O   -1-1 0
  83 O    1     2.5409     4.8016   71 C   -1-1 0
  83 O    1     2.5410     4.8019   59 C   -1 0 0

  84 O    1     1.3796     2.6071   12 B   -1 0 0
  84 O    1     1.3797     2.6072   10 B    0 0 0
  84 O    1     2.3880     4.5126   80 O   -1 0 0
  84 O    1     2.3881     4.5128   82 O   -1 0 0
  84 O    1     2.5409     4.8016   72 C    0 0 0
  84 O    1     2.5410     4.8019   60 C   -1 0 0


 SYMMETRY ALLOWED INTERNAL DEGREE(S) OF FREEDOM: 249
 TTTTTTTTTTTTTTTTTTTTTTTTTTTTTT SYMM        TELAPSE        2.88 TCPU        2.88
 TTTTTTTTTTTTTTTTTTTTTTTTTTTTTT INT_SCREEN  TELAPSE        3.10 TCPU        3.09

 DFT PARAMETERS

     ATOM       ELECTRONS   NET CHARGE   R(ANGSTROM)
   1   5  B       5.0000      0.0000     0.89000000
  13   1  H       1.0000      0.0000     1.11000000
  37   6  C       6.0000      0.0000     0.77000000
  73   8  O       8.0000      0.0000     0.74000000

 SIZE OF GRID=    2510205
 TTTTTTTTTTTTTTTTTTTTTTTTTTTTTT MAKE_GRID2  TELAPSE       26.52 TCPU       26.48
 BECKE WEIGHT FUNCTION
 RADSAFE =     2.00
 TOLERANCES - DENSITY:10**- 6; POTENTIAL:10**- 9; GRID WGT:10**-14

 RADIAL INTEGRATION  - INTERVALS (POINTS,UPPER LIMIT):            1( 75,  4.0*R)

 ANGULAR INTEGRATION - INTERVALS (ACCURACY LEVEL [N. POINTS] UPPER LIMIT):
  1(  4[  86]   0.2)  2(  8[ 194]   0.5)  3( 12[ 350]   0.9)  4( 16[ 974]   3.5)
  5( 12[ 350]9999.0)
 TTTTTTTTTTTTTTTTTTTTTTTTTTTTTT INT_CALC    TELAPSE       26.81 TCPU       26.78
 EEEEEEEEEE INT_CALC TERMINATION  DATE 19 02 2026 TIME 19:56:48.9

 *******************************************************************************
 cof-1_z33_L040_serr                                                             
 CRYSTAL - SCF - TYPE OF CALCULATION :  RESTRICTED CLOSED SHELL
 *******************************************************************************

 CAPPA:IS1  2;IS2  2;IS3  8; K PTS MONK NET  20; SYMMOPS:K SPACE   2;G SPACE   1

 TTTTTTTTTTTTTTTTTTTTTTTTTTTTTT SDIK        TELAPSE       29.37 TCPU       53.05

 AAAAAAAAAAAAAAAAAAAAAAAAAAAAAAAAAAAAAAAAAAAAAAAAAAAAAAAAAAAAAAAAAAAAAAAAAAAAAAA
         ATOMIC WAVEFUNCTION(S)


 NUCLEAR CHARGE  5.0  SYMMETRY SPECIES            S    P
 N. ELECTRONS    5.0  NUMBER OF PRIMITIVE GTOS    8    4
                      NUMBER OF CONTRACTED GTOS   4    2
                      NUMBER OF CLOSED SHELLS     2    0
                      OPEN SHELL OCCUPATION       0    1

  ZNUC  SCFIT    TOTAL HF ENERGY   KINETIC ENERGY   VIRIAL THEOREM ACCURACY
   5.0    11    -2.451164084E+01  2.462155050E+01 -1.995536038E+00  1.5E-06

 NUCLEAR CHARGE  1.0  SYMMETRY SPECIES            S
 N. ELECTRONS    1.0  NUMBER OF PRIMITIVE GTOS    4
                      NUMBER OF CONTRACTED GTOS   2
                      NUMBER OF CLOSED SHELLS     0
                      OPEN SHELL OCCUPATION       1

  ZNUC  SCFIT    TOTAL HF ENERGY   KINETIC ENERGY   VIRIAL THEOREM ACCURACY
   1.0     1    -4.977266687E-01  5.190767460E-01 -1.958869132E+00  0.0E+00

 NUCLEAR CHARGE  6.0  SYMMETRY SPECIES            S    P
 N. ELECTRONS    6.0  NUMBER OF PRIMITIVE GTOS    8    4
                      NUMBER OF CONTRACTED GTOS   4    2
                      NUMBER OF CLOSED SHELLS     2    0
                      OPEN SHELL OCCUPATION       0    2

  ZNUC  SCFIT    TOTAL HF ENERGY   KINETIC ENERGY   VIRIAL THEOREM ACCURACY
   6.0     9    -3.766704647E+01  3.775180683E+01 -1.997754800E+00  1.1E-06

 NUCLEAR CHARGE  8.0  SYMMETRY SPECIES            S    P
 N. ELECTRONS    8.0  NUMBER OF PRIMITIVE GTOS    8    4
                      NUMBER OF CONTRACTED GTOS   4    2
                      NUMBER OF CLOSED SHELLS     2    0
                      OPEN SHELL OCCUPATION       0    4

  ZNUC  SCFIT    TOTAL HF ENERGY   KINETIC ENERGY   VIRIAL THEOREM ACCURACY
   8.0    12    -7.477373220E+01  7.477365593E+01 -2.000001020E+00  3.8E-06

 AAAAAAAAAAAAAAAAAAAAAAAAAAAAAAAAAAAAAAAAAAAAAAAAAAAAAAAAAAAAAAAAAAAAAAAAAAAAAAA

 CHARGE NORMALIZATION FACTOR   1.00000000
 TOTAL ATOMIC CHARGES:
   5.0000000   5.0000000   5.0000000   5.0000000   5.0000000   5.0000000
   5.0000000   5.0000000   5.0000000   5.0000000   5.0000000   5.0000000
   1.0000000   1.0000000   1.0000000   1.0000000   1.0000000   1.0000000
   1.0000000   1.0000000   1.0000000   1.0000000   1.0000000   1.0000000
   1.0000000   1.0000000   1.0000000   1.0000000   1.0000000   1.0000000
   1.0000000   1.0000000   1.0000000   1.0000000   1.0000000   1.0000000
   6.0000000   6.0000000   6.0000000   6.0000000   6.0000000   6.0000000
   6.0000000   6.0000000   6.0000000   6.0000000   6.0000000   6.0000000
   6.0000000   6.0000000   6.0000000   6.0000000   6.0000000   6.0000000
   6.0000000   6.0000000   6.0000000   6.0000000   6.0000000   6.0000000
   6.0000000   6.0000000   6.0000000   6.0000000   6.0000000   6.0000000
   6.0000000   6.0000000   6.0000000   6.0000000   6.0000000   6.0000000
   8.0000000   8.0000000   8.0000000   8.0000000   8.0000000   8.0000000
   8.0000000   8.0000000   8.0000000   8.0000000   8.0000000   8.0000000
 TTTTTTTTTTTTTTTTTTTTTTTTTTTTTT MOQGAD      TELAPSE       29.55 TCPU       55.74
 TTTTTTTTTTTTTTTTTTTTTTTTTTTTTT SHELLXN     TELAPSE       56.91 TCPU      801.61
 TTTTTTTTTTTTTTTTTTTTTTTTTTTTTT MONMO3      TELAPSE       57.53 TCPU      821.68
 NUMERICALLY INTEGRATED DENSITY    395.9999608964
 TTTTTTTTTTTTTTTTTTTTTTTTTTTTTT NUMDFT      TELAPSE       59.14 TCPU      873.00
 CYC   0 ETOT(AU) -2.591978305453E+03 DETOT -2.59E+03 tst  0.00E+00 PX  1.00E+00
 TTTTTTTTTTTTTTTTTTTTTTTTTTTTTT DIIS        TELAPSE       59.27 TCPU      877.02
 TTTTTTTTTTTTTTTTTTTTTTTTTTTTTT FDIK        TELAPSE       61.14 TCPU      936.86
 INSULATING STATE
 TOP OF VALENCE BANDS -    BAND    198; K    3; EIG -3.0809828E-01 AU
 TOP OF VALENCE BANDS -    BAND    198; K    1; EIG -3.0839031E-01 AU
 BOTTOM OF VIRTUAL BANDS - BAND    199; K    1; EIG -1.6584685E-01 AU
 INDIRECT ENERGY BAND GAP:   3.8709 eV
 TTTTTTTTTTTTTTTTTTTTTTTTTTTTTT PDIG        TELAPSE       62.76 TCPU      943.85
 CHARGE NORMALIZATION FACTOR   1.00000000
 TOTAL ATOMIC CHARGES:
   4.1442043   4.1330418   4.1498887   4.1623160   4.1500914   4.1625885
   4.1621981   4.1497578   4.1619713   4.1495524   4.1328029   4.1438844
   0.7858476   0.7858040   0.7859154   0.7859620   0.7831499   0.7852662
   0.7853852   0.7832751   0.7863083   0.7858202   0.7859918   0.7864729
   0.7862987   0.7858114   0.7859456   0.7864330   0.7831559   0.7852678
   0.7854498   0.7833407   0.7858005   0.7857557   0.7859114   0.7859549
   6.0474028   6.0435687   6.2697284   6.2679299   6.2678991   6.2696915
   6.2679250   6.2658092   6.2657583   6.2678812   6.0428291   6.0466379
   6.0510924   6.0495671   6.2570794   6.2642269   6.2642807   6.2571059
   6.2569888   6.2641508   6.2643024   6.2571048   6.0482943   6.0498608
   6.0477992   6.0439366   6.2677001   6.2655686   6.2661280   6.2682536
   6.2693597   6.2675446   6.2681679   6.2699675   6.0423592   6.0461661
   8.7065413   8.6960358   8.7066528   8.6961532   8.7107960   8.6912073
   8.6964656   8.7069492   8.6915804   8.7111567   8.6966391   8.7071345
 TTTTTTTTTTTTTTTTTTTTTTTTTTTTTT MOQGAD      TELAPSE       62.87 TCPU      943.96
 TTTTTTTTTTTTTTTTTTTTTTTTTTTTTT SHELLXN     TELAPSE       87.55 TCPU     1731.43
 TTTTTTTTTTTTTTTTTTTTTTTTTTTTTT MONMO3      TELAPSE       88.19 TCPU     1751.93
 NUMERICALLY INTEGRATED DENSITY    395.9999823498
 TTTTTTTTTTTTTTTTTTTTTTTTTTTTTT NUMDFT      TELAPSE       89.85 TCPU     1804.98
 CYC   1 ETOT(AU) -2.577664856836E+03 DETOT  1.43E+01 tst  0.00E+00 PX  1.00E+00
 TTTTTTTTTTTTTTTTTTTTTTTTTTTTTT DIIS        TELAPSE       90.08 TCPU     1811.99
 DIIS TEST: 0.21628E+01 AT SCF   CYCLE   1 - MIX   30 %
 TTTTTTTTTTTTTTTTTTTTTTTTTTTTTT FDIK        TELAPSE       92.01 TCPU     1873.63
 INSULATING STATE
 TOP OF VALENCE BANDS -    BAND    198; K    2; EIG -2.1956231E-01 AU
 TOP OF VALENCE BANDS -    BAND    198; K    1; EIG -2.1973979E-01 AU
 BOTTOM OF VIRTUAL BANDS - BAND    199; K    1; EIG -9.0282137E-02 AU
 INDIRECT ENERGY BAND GAP:   3.5179 eV
 TTTTTTTTTTTTTTTTTTTTTTTTTTTTTT PDIG        TELAPSE       93.65 TCPU     1880.66
 CHARGE NORMALIZATION FACTOR   1.00000000
 TOTAL ATOMIC CHARGES:
   4.6380582   4.6480452   4.6658636   4.7122799   4.6657636   4.7123416
   4.7125494   4.6662625   4.7124994   4.6662623   4.6483754   4.6379335
   0.9136406   0.8965158   0.8966198   0.9136268   0.9235816   0.9154262
   0.9154795   0.9236890   0.9050782   0.8858864   0.8858537   0.9052215
   0.9050705   0.8858683   0.8858346   0.9051660   0.9235793   0.9154114
   0.9155495   0.9237462   0.9135799   0.8964587   0.8966279   0.9136098
   5.8643674   5.8811760   6.1546287   6.1127906   6.1132132   6.1551015
   6.1317107   6.1529050   6.1536017   6.1325533   5.8838798   5.8670189
   5.8998499   5.9173359   6.1347148   6.1652080   6.1661010   6.1354230
   6.1348769   6.1653704   6.1660570   6.1355510   5.9207184   5.9028051
   5.8643247   5.8811348   6.1317870   6.1529286   6.1534586   6.1325023
   6.1548424   6.1129782   6.1129269   6.1548118   5.8841623   5.8672415
   8.3427178   8.3269201   8.3431143   8.3273090   8.3693139   8.3424292
   8.3267997   8.3424977   8.3421481   8.3692746   8.3272001   8.3428625
 TTTTTTTTTTTTTTTTTTTTTTTTTTTTTT MOQGAD      TELAPSE       93.76 TCPU     1880.76
 TTTTTTTTTTTTTTTTTTTTTTTTTTTTTT SHELLXN     TELAPSE      118.97 TCPU     2660.01
 TTTTTTTTTTTTTTTTTTTTTTTTTTTTTT MONMO3      TELAPSE      119.60 TCPU     2680.03
 NUMERICALLY INTEGRATED DENSITY    395.9999691034
 TTTTTTTTTTTTTTTTTTTTTTTTTTTTTT NUMDFT      TELAPSE      121.24 TCPU     2732.22
 CYC   2 ETOT(AU) -2.578046945208E+03 DETOT -3.82E-01 tst  3.83E-03 PX  1.60E-01
 TTTTTTTTTTTTTTTTTTTTTTTTTTTTTT DIIS        TELAPSE      121.42 TCPU     2737.93
 DIIS TEST: 0.88993E+00 AT SCF   CYCLE   2 - DIIS ACTIVE - HISTORY:     2 CYCLES
 TTTTTTTTTTTTTTTTTTTTTTTTTTTTTT FDIK        TELAPSE      123.32 TCPU     2798.59
 INSULATING STATE
 TOP OF VALENCE BANDS -    BAND    198; K    3; EIG -2.3200771E-01 AU
 TOP OF VALENCE BANDS -    BAND    198; K    1; EIG -2.3228658E-01 AU
 BOTTOM OF VIRTUAL BANDS - BAND    199; K    1; EIG -8.5924963E-02 AU
 INDIRECT ENERGY BAND GAP:   3.9751 eV
 TTTTTTTTTTTTTTTTTTTTTTTTTTTTTT PDIG        TELAPSE      124.92 TCPU     2805.56
 CHARGE NORMALIZATION FACTOR   1.00000000
 TOTAL ATOMIC CHARGES:
   4.4562708   4.4399157   4.4744933   4.5052351   4.4745644   4.5053971
   4.5048680   4.4740160   4.5046733   4.4738231   4.4393366   4.4559400
   0.8943959   0.8749791   0.8750047   0.8946732   0.8950321   0.8942035
   0.8943232   0.8950407   0.8860309   0.8745123   0.8749361   0.8860442
   0.8860708   0.8745194   0.8748827   0.8859798   0.8950312   0.8941991
   0.8943745   0.8951029   0.8943925   0.8749994   0.8749575   0.8946072
   5.9059263   5.8915732   6.1602607   6.1754409   6.1751231   6.1600900
   6.1610951   6.1475964   6.1467930   6.1598370   5.8902759   5.9044970
   5.9313284   5.9142645   6.1546911   6.1729885   6.1723440   6.1543024
   6.1547936   6.1732452   6.1721904   6.1543107   5.9126152   5.9302808
   5.9063192   5.8919213   6.1610901   6.1475089   6.1469121   6.1599239
   6.1601702   6.1752809   6.1750665   6.1601346   5.8900201   5.9042087
   8.5261316   8.5199311   8.5262681   8.5201170   8.5333155   8.5031918
   8.5200644   8.5265042   8.5033821   8.5328911   8.5202372   8.5267195
 TTTTTTTTTTTTTTTTTTTTTTTTTTTTTT MOQGAD      TELAPSE      125.02 TCPU     2805.67
 TTTTTTTTTTTTTTTTTTTTTTTTTTTTTT SHELLXN     TELAPSE      149.62 TCPU     3590.07
 TTTTTTTTTTTTTTTTTTTTTTTTTTTTTT MONMO3      TELAPSE      150.24 TCPU     3610.17
 NUMERICALLY INTEGRATED DENSITY    395.9999718673
 TTTTTTTTTTTTTTTTTTTTTTTTTTTTTT NUMDFT      TELAPSE      151.88 TCPU     3662.46
 CYC   3 ETOT(AU) -2.578230495536E+03 DETOT -1.84E-01 tst  6.08E-04 PX  6.71E-02
 TTTTTTTTTTTTTTTTTTTTTTTTTTTTTT DIIS        TELAPSE      152.07 TCPU     3668.63
 DIIS TEST: 0.32497E-01 AT SCF   CYCLE   3 - DIIS ACTIVE - HISTORY:     3 CYCLES
 TTTTTTTTTTTTTTTTTTTTTTTTTTTTTT FDIK        TELAPSE      153.99 TCPU     3729.76
 INSULATING STATE
 TOP OF VALENCE BANDS -    BAND    198; K    3; EIG -2.4136719E-01 AU
 TOP OF VALENCE BANDS -    BAND    198; K    1; EIG -2.4153294E-01 AU
 BOTTOM OF VIRTUAL BANDS - BAND    199; K    1; EIG -9.4451413E-02 AU
 INDIRECT ENERGY BAND GAP:   3.9978 eV
 TTTTTTTTTTTTTTTTTTTTTTTTTTTTTT PDIG        TELAPSE      155.60 TCPU     3736.76
 CHARGE NORMALIZATION FACTOR   1.00000000
 TOTAL ATOMIC CHARGES:
   4.4589545   4.4472329   4.4803445   4.5064669   4.4803738   4.5066225
   4.5067078   4.4807117   4.5065138   4.4805614   4.4475091   4.4587074
   0.8737029   0.8637814   0.8639851   0.8736598   0.8828633   0.8731081
   0.8731286   0.8829455   0.8677151   0.8549496   0.8547674   0.8680081
   0.8677494   0.8549756   0.8547045   0.8679300   0.8828948   0.8731062
   0.8731883   0.8829693   0.8736878   0.8637587   0.8639613   0.8736109
   5.9355080   5.9447188   6.1817807   6.1512631   6.1517197   6.1820260
   6.1574390   6.1830627   6.1845231   6.1596092   5.9481569   5.9388837
   5.9611216   5.9758566   6.1576513   6.1940117   6.1952771   6.1585483
   6.1575351   6.1939683   6.1953857   6.1588671   5.9796962   5.9638992
   5.9355227   5.9447539   6.1573483   6.1829099   6.1846108   6.1597923
   6.1816377   6.1511451   6.1517269   6.1820594   5.9482960   5.9389627
   8.4869530   8.4762589   8.4872783   8.4765690   8.5083207   8.4867465
   8.4764264   8.4867142   8.4866944   8.5090704   8.4767774   8.4870578
 TTTTTTTTTTTTTTTTTTTTTTTTTTTTTT MOQGAD      TELAPSE      155.71 TCPU     3736.86
 TTTTTTTTTTTTTTTTTTTTTTTTTTTTTT SHELLXN     TELAPSE      180.37 TCPU     4523.39
 TTTTTTTTTTTTTTTTTTTTTTTTTTTTTT MONMO3      TELAPSE      180.99 TCPU     4543.16
 NUMERICALLY INTEGRATED DENSITY    395.9999720742
 TTTTTTTTTTTTTTTTTTTTTTTTTTTTTT NUMDFT      TELAPSE      182.62 TCPU     4595.22
 CYC   4 ETOT(AU) -2.578237318482E+03 DETOT -6.82E-03 tst  3.15E-05 PX  1.64E-02
 TTTTTTTTTTTTTTTTTTTTTTTTTTTTTT DIIS        TELAPSE      182.82 TCPU     4601.88
 DIIS TEST: 0.96216E-02 AT SCF   CYCLE   4 - DIIS ACTIVE - HISTORY:     4 CYCLES
 TTTTTTTTTTTTTTTTTTTTTTTTTTTTTT FDIK        TELAPSE      184.70 TCPU     4661.84
 INSULATING STATE
 TOP OF VALENCE BANDS -    BAND    198; K    3; EIG -2.4023569E-01 AU
 TOP OF VALENCE BANDS -    BAND    198; K    1; EIG -2.4043777E-01 AU
 BOTTOM OF VIRTUAL BANDS - BAND    199; K    1; EIG -9.4354669E-02 AU
 INDIRECT ENERGY BAND GAP:   3.9696 eV
 TTTTTTTTTTTTTTTTTTTTTTTTTTTTTT PDIG        TELAPSE      186.32 TCPU     4668.81
 CHARGE NORMALIZATION FACTOR   1.00000000
 TOTAL ATOMIC CHARGES:
   4.4591666   4.4491169   4.4805595   4.5132799   4.4806090   4.5134309
   4.5130700   4.4802866   4.5128877   4.4801154   4.4486997   4.4589437
   0.8784706   0.8624220   0.8624534   0.8787020   0.8833482   0.8784365
   0.8786388   0.8834501   0.8698950   0.8578573   0.8582852   0.8699163
   0.8699126   0.8578496   0.8582471   0.8698650   0.8833482   0.8784299
   0.8786971   0.8835135   0.8784436   0.8624178   0.8624253   0.8786567
   5.9285096   5.9281151   6.1730574   6.1688568   6.1686067   6.1731154
   6.1692499   6.1654732   6.1642001   6.1673007   5.9262762   5.9266149
   5.9594397   5.9524279   6.1639746   6.1863127   6.1856544   6.1634887
   6.1641499   6.1865926   6.1854764   6.1634750   5.9506169   5.9583309
   5.9288278   5.9284020   6.1692428   6.1654017   6.1642585   6.1673660
   6.1730686   6.1687881   6.1684824   6.1730604   5.9261185   5.9264185
   8.4982855   8.4900811   8.4984548   8.4902945   8.5126035   8.4839887
   8.4900626   8.4986413   8.4840316   8.5118194   8.4902773   8.4988611
 TTTTTTTTTTTTTTTTTTTTTTTTTTTTTT MOQGAD      TELAPSE      186.43 TCPU     4668.91
 TTTTTTTTTTTTTTTTTTTTTTTTTTTTTT SHELLXN     TELAPSE      210.92 TCPU     5450.17
 TTTTTTTTTTTTTTTTTTTTTTTTTTTTTT MONMO3      TELAPSE      211.55 TCPU     5470.18
 NUMERICALLY INTEGRATED DENSITY    395.9999721470
 TTTTTTTTTTTTTTTTTTTTTTTTTTTTTT NUMDFT      TELAPSE      213.18 TCPU     5522.35
 CYC   5 ETOT(AU) -2.578239472611E+03 DETOT -2.15E-03 tst  7.87E-06 PX  8.54E-03
 TTTTTTTTTTTTTTTTTTTTTTTTTTTTTT DIIS        TELAPSE      213.41 TCPU     5529.28
 DIIS TEST: 0.53312E-03 AT SCF   CYCLE   5 - DIIS ACTIVE - HISTORY:     5 CYCLES
 TTTTTTTTTTTTTTTTTTTTTTTTTTTTTT FDIK        TELAPSE      215.29 TCPU     5589.02
 INSULATING STATE
 TOP OF VALENCE BANDS -    BAND    198; K    3; EIG -2.3967792E-01 AU
 TOP OF VALENCE BANDS -    BAND    198; K    1; EIG -2.3987597E-01 AU
 BOTTOM OF VIRTUAL BANDS - BAND    199; K    1; EIG -9.3531382E-02 AU
 INDIRECT ENERGY BAND GAP:   3.9769 eV
 TTTTTTTTTTTTTTTTTTTTTTTTTTTTTT PDIG        TELAPSE      216.93 TCPU     5596.02
 CHARGE NORMALIZATION FACTOR   1.00000000
 TOTAL ATOMIC CHARGES:
   4.4593492   4.4491654   4.4810942   4.5110222   4.4811193   4.5111757
   4.5112185   4.4813487   4.5110310   4.4812019   4.4493959   4.4590744
   0.8788512   0.8645381   0.8647507   0.8788477   0.8855412   0.8786836
   0.8786444   0.8855790   0.8722456   0.8589094   0.8587417   0.8725292
   0.8722863   0.8589348   0.8586757   0.8724522   0.8855652   0.8786776
   0.8787054   0.8856113   0.8788407   0.8645238   0.8647242   0.8787937
   5.9238141   5.9237446   6.1776655   6.1607163   6.1610560   6.1777298
   6.1585535   6.1727287   6.1745560   6.1612132   5.9274917   5.9274235
   5.9482720   5.9524742   6.1589126   6.1885512   6.1897887   6.1598365
   6.1587725   6.1885281   6.1898917   6.1601462   5.9562579   5.9509871
   5.9239026   5.9238466   6.1584925   6.1725919   6.1746564   6.1613667
   6.1774940   6.1605598   6.1610731   6.1778040   5.9275433   5.9274311
   8.4992172   8.4886965   8.4995166   8.4889863   8.5139442   8.4902197
   8.4889416   8.4989853   8.4902795   8.5149158   8.4892539   8.4993207
 TTTTTTTTTTTTTTTTTTTTTTTTTTTTTT MOQGAD      TELAPSE      217.03 TCPU     5596.12
 TTTTTTTTTTTTTTTTTTTTTTTTTTTTTT SHELLXN     TELAPSE      241.56 TCPU     6378.58
 TTTTTTTTTTTTTTTTTTTTTTTTTTTTTT MONMO3      TELAPSE      242.19 TCPU     6398.60
 NUMERICALLY INTEGRATED DENSITY    395.9999720909
 TTTTTTTTTTTTTTTTTTTTTTTTTTTTTT NUMDFT      TELAPSE      243.82 TCPU     6450.67
 CYC   6 ETOT(AU) -2.578239528457E+03 DETOT -5.58E-05 tst  2.53E-06 PX  2.80E-03
 TTTTTTTTTTTTTTTTTTTTTTTTTTTTTT DIIS        TELAPSE      244.07 TCPU     6457.53
 DIIS TEST: 0.36215E-03 AT SCF   CYCLE   6 - DIIS ACTIVE - HISTORY:     6 CYCLES
 TTTTTTTTTTTTTTTTTTTTTTTTTTTTTT FDIK        TELAPSE      245.94 TCPU     6517.13
 INSULATING STATE
 TOP OF VALENCE BANDS -    BAND    198; K    3; EIG -2.3984871E-01 AU
 TOP OF VALENCE BANDS -    BAND    198; K    1; EIG -2.4005208E-01 AU
 BOTTOM OF VIRTUAL BANDS - BAND    199; K    1; EIG -9.3649775E-02 AU
 INDIRECT ENERGY BAND GAP:   3.9783 eV
 TTTTTTTTTTTTTTTTTTTTTTTTTTTTTT PDIG        TELAPSE      247.55 TCPU     6524.11
 CHARGE NORMALIZATION FACTOR   1.00000000
 TOTAL ATOMIC CHARGES:
   4.4600148   4.4490496   4.4811471   4.5116665   4.4811918   4.5118188
   4.5115422   4.4810094   4.5113567   4.4808438   4.4487729   4.4597621
   0.8792570   0.8640742   0.8641444   0.8794125   0.8848545   0.8790058
   0.8791586   0.8849445   0.8718599   0.8588865   0.8591533   0.8719478
   0.8718855   0.8588908   0.8591065   0.8718868   0.8848646   0.8790028
   0.8792150   0.8849940   0.8792375   0.8640676   0.8641146   0.8793637
   5.9264799   5.9268278   6.1745263   6.1644577   6.1644260   6.1746440
   6.1636955   6.1697913   6.1692211   6.1628160   5.9263967   5.9260073
   5.9536469   5.9535291   6.1603045   6.1876647   6.1875217   6.1601988
   6.1603852   6.1878455   6.1874294   6.1602867   5.9532676   5.9536092
   5.9267126   5.9270419   6.1636543   6.1696836   6.1693039   6.1629337
   6.1744731   6.1643630   6.1643544   6.1746267   5.9263226   5.9258833
   8.4982093   8.4892025   8.4984208   8.4894422   8.5139317   8.4877484
   8.4892579   8.4984238   8.4877663   8.5135718   8.4895113   8.4986780
 TTTTTTTTTTTTTTTTTTTTTTTTTTTTTT MOQGAD      TELAPSE      247.65 TCPU     6524.22
 TTTTTTTTTTTTTTTTTTTTTTTTTTTTTT SHELLXN     TELAPSE      272.06 TCPU     7302.68
 TTTTTTTTTTTTTTTTTTTTTTTTTTTTTT MONMO3      TELAPSE      272.68 TCPU     7322.62
 NUMERICALLY INTEGRATED DENSITY    395.9999720849
 TTTTTTTTTTTTTTTTTTTTTTTTTTTTTT NUMDFT      TELAPSE      274.31 TCPU     7374.70
 CYC   7 ETOT(AU) -2.578239617507E+03 DETOT -8.91E-05 tst  5.78E-07 PX  1.37E-03
 TTTTTTTTTTTTTTTTTTTTTTTTTTTTTT DIIS        TELAPSE      274.60 TCPU     7381.61
 DIIS TEST: 0.10191E-04 AT SCF   CYCLE   7 - DIIS ACTIVE - HISTORY:     7 CYCLES
 TTTTTTTTTTTTTTTTTTTTTTTTTTTTTT FDIK        TELAPSE      276.49 TCPU     7441.52
 INSULATING STATE
 TOP OF VALENCE BANDS -    BAND    198; K    3; EIG -2.3984535E-01 AU
 TOP OF VALENCE BANDS -    BAND    198; K    1; EIG -2.4004678E-01 AU
 BOTTOM OF VIRTUAL BANDS - BAND    199; K    1; EIG -9.3697735E-02 AU
 INDIRECT ENERGY BAND GAP:   3.9769 eV
 TTTTTTTTTTTTTTTTTTTTTTTTTTTTTT PDIG        TELAPSE      278.10 TCPU     7448.51
 CHARGE NORMALIZATION FACTOR   1.00000000
 TOTAL ATOMIC CHARGES:
   4.4598428   4.4489784   4.4810810   4.5118141   4.4811197   4.5119664
   4.5118120   4.4810838   4.5116263   4.4809236   4.4488966   4.4595899
   0.8792325   0.8640605   0.8641865   0.8793392   0.8848478   0.8790398
   0.8791137   0.8849120   0.8716807   0.8589161   0.8590276   0.8718394
   0.8717109   0.8589265   0.8589747   0.8717741   0.8848606   0.8790341
   0.8791730   0.8849589   0.8792150   0.8640522   0.8641585   0.8792886
   5.9259225   5.9258369   6.1748333   6.1642066   6.1642699   6.1748986
   6.1631932   6.1690368   6.1693958   6.1636683   5.9269522   5.9269406
   5.9534665   5.9525312   6.1605555   6.1872098   6.1875563   6.1608199
   6.1605694   6.1873330   6.1875225   6.1609728   5.9536891   5.9543849
   5.9261215   5.9260270   6.1631561   6.1689303   6.1694768   6.1637815
   6.1747501   6.1640916   6.1642193   6.1749105   5.9269036   5.9268505
   8.4984608   8.4892510   8.4986978   8.4895043   8.5133657   8.4874138
   8.4893685   8.4985060   8.4874656   8.5135042   8.4896347   8.4987856
 TTTTTTTTTTTTTTTTTTTTTTTTTTTTTT MOQGAD      TELAPSE      278.21 TCPU     7448.61
 TTTTTTTTTTTTTTTTTTTTTTTTTTTTTT SHELLXN     TELAPSE      302.63 TCPU     8227.76
 TTTTTTTTTTTTTTTTTTTTTTTTTTTTTT MONMO3      TELAPSE      303.26 TCPU     8247.74
 NUMERICALLY INTEGRATED DENSITY    395.9999720876
 TTTTTTTTTTTTTTTTTTTTTTTTTTTTTT NUMDFT      TELAPSE      304.89 TCPU     8299.85
 CYC   8 ETOT(AU) -2.578239619222E+03 DETOT -1.71E-06 tst  3.76E-08 PX  2.63E-04
 TTTTTTTTTTTTTTTTTTTTTTTTTTTTTT DIIS        TELAPSE      305.18 TCPU     8306.75
 DIIS TEST: 0.19482E-05 AT SCF   CYCLE   8 - DIIS ACTIVE - HISTORY:     8 CYCLES
 TTTTTTTTTTTTTTTTTTTTTTTTTTTTTT FDIK        TELAPSE      307.08 TCPU     8366.95
 INSULATING STATE
 TOP OF VALENCE BANDS -    BAND    198; K    3; EIG -2.3984682E-01 AU
 TOP OF VALENCE BANDS -    BAND    198; K    1; EIG -2.4004822E-01 AU
 BOTTOM OF VIRTUAL BANDS - BAND    199; K    1; EIG -9.3700826E-02 AU
 INDIRECT ENERGY BAND GAP:   3.9768 eV
 TTTTTTTTTTTTTTTTTTTTTTTTTTTTTT PDIG        TELAPSE      308.68 TCPU     8373.93
 CHARGE NORMALIZATION FACTOR   1.00000000
 TOTAL ATOMIC CHARGES:
   4.4597366   4.4490752   4.4811162   4.5118919   4.4811557   4.5120441
   4.5118499   4.4810713   4.5116645   4.4809104   4.4489279   4.4594844
   0.8791746   0.8640735   0.8641804   0.8792977   0.8848826   0.8789842
   0.8790860   0.8849573   0.8716792   0.8588662   0.8590322   0.8718142
   0.8717082   0.8588749   0.8589809   0.8717500   0.8848948   0.8789792
   0.8791445   0.8850045   0.8791565   0.8640653   0.8641519   0.8792478
   5.9260878   5.9261198   6.1749082   6.1641191   6.1641488   6.1749913
   6.1633447   6.1693383   6.1693732   6.1633479   5.9266918   5.9265818
   5.9533605   5.9529200   6.1606025   6.1873840   6.1875554   6.1607315
   6.1606327   6.1875214   6.1875075   6.1608684   5.9535810   5.9539448
   5.9262942   5.9263156   6.1633065   6.1692309   6.1694546   6.1634628
   6.1748323   6.1640104   6.1640933   6.1749952   5.9266380   5.9264837
   8.4984723   8.4892503   8.4987029   8.4895003   8.5135097   8.4874856
   8.4893480   8.4985766   8.4875234   8.5134755   8.4896112   8.4988496
 TTTTTTTTTTTTTTTTTTTTTTTTTTTTTT MOQGAD      TELAPSE      308.78 TCPU     8374.03
 TTTTTTTTTTTTTTTTTTTTTTTTTTTTTT SHELLXN     TELAPSE      333.28 TCPU     9155.50
 TTTTTTTTTTTTTTTTTTTTTTTTTTTTTT MONMO3      TELAPSE      333.91 TCPU     9175.52
 NUMERICALLY INTEGRATED DENSITY    395.9999720867
 TTTTTTTTTTTTTTTTTTTTTTTTTTTTTT NUMDFT      TELAPSE      335.54 TCPU     9227.66
 CYC   9 ETOT(AU) -2.578239619544E+03 DETOT -3.22E-07 tst  4.39E-09 PX  1.16E-04
 TTTTTTTTTTTTTTTTTTTTTTTTTTTTTT DIIS        TELAPSE      335.86 TCPU     9234.64
 DIIS TEST: 0.10643E-06 AT SCF   CYCLE   9 - DIIS ACTIVE - HISTORY:     9 CYCLES
 TTTTTTTTTTTTTTTTTTTTTTTTTTTTTT FDIK        TELAPSE      337.75 TCPU     9294.70
 INSULATING STATE
 TOP OF VALENCE BANDS -    BAND    198; K    3; EIG -2.3984931E-01 AU
 TOP OF VALENCE BANDS -    BAND    198; K    1; EIG -2.4005097E-01 AU
 BOTTOM OF VIRTUAL BANDS - BAND    199; K    1; EIG -9.3698175E-02 AU
 INDIRECT ENERGY BAND GAP:   3.9770 eV
 TTTTTTTTTTTTTTTTTTTTTTTTTTTTTT PDIG        TELAPSE      339.36 TCPU     9301.69
 CHARGE NORMALIZATION FACTOR   1.00000000
 TOTAL ATOMIC CHARGES:
   4.4598017   4.4490601   4.4810952   4.5118500   4.4811352   4.5120022
   4.5118133   4.4810578   4.5116278   4.4808963   4.4489222   4.4595492
   0.8791873   0.8640523   0.8641619   0.8793078   0.8848756   0.8789839
   0.8790819   0.8849485   0.8716875   0.8588749   0.8590322   0.8718253
   0.8717162   0.8588832   0.8589813   0.8717614   0.8848877   0.8789791
   0.8791403   0.8849960   0.8791690   0.8640443   0.8641334   0.8792579
   5.9260445   5.9261074   6.1748245   6.1642164   6.1642537   6.1749083
   6.1632931   6.1693381   6.1694195   6.1633634   5.9267614   5.9266190
   5.9534514   5.9528444   6.1605302   6.1873747   6.1875781   6.1606863
   6.1605648   6.1875156   6.1875262   6.1608191   5.9535804   5.9540865
   5.9262536   5.9263045   6.1632544   6.1692308   6.1695013   6.1634785
   6.1747505   6.1641081   6.1641965   6.1749110   5.9267056   5.9265187
   8.4984351   8.4892343   8.4986641   8.4894835   8.5135568   8.4875375
   8.4893340   8.4985307   8.4875779   8.5135470   8.4895964   8.4988023
 TTTTTTTTTTTTTTTTTTTTTTTTTTTTTT MOQGAD      TELAPSE      339.47 TCPU     9301.79
 TTTTTTTTTTTTTTTTTTTTTTTTTTTTTT SHELLXN     TELAPSE      363.96 TCPU    10083.45
 +++ ENERGIES IN A.U. +++
 ::: EXT EL-POLE                                  -3.0233095635150E+03
 ::: EXT EL-SPHEROPOLE                             3.4772355560723E+01
 ::: BIELET ZONE E-E                               4.6468283722217E+03
 ::: TOTAL E-E                                     1.6582911642673E+03
 ::: TOTAL E-N + N-E                              -6.9634440184494E+03
 ::: TOTAL N-N                                     4.3446082644098E+02
 ::: KINETIC ENERGY                                2.5599056499034E+03
 ::: PSEUDO TOTAL   ENERGY                        -2.3107863778376E+03
 ::: VIRIAL COEFFICIENT                            1.0511465866959E+00
 TTTTTTTTTTTTTTTTTTTTTTTTTTTTTT MONMO3      TELAPSE      364.59 TCPU    10103.46
 NUMERICALLY INTEGRATED DENSITY    395.9999720851
 EXCHANGE ENERGY: -0.252045091428E+03  CORRELATION ENERGY: -0.154081503179E+02
 TTTTTTTTTTTTTTTTTTTTTTTTTTTTTT NUMDFT      TELAPSE      366.22 TCPU    10155.60
 CYC  10 ETOT(AU) -2.578239619584E+03 DETOT -3.96E-08 tst  2.02E-10 PX  1.16E-04

 == SCF ENDED - CONVERGENCE ON ENERGY      E(AU) -2.5782396195839E+03 CYCLES  10


 ENERGY EXPRESSION=HARTREE+FOCK EXCH*0.00000+(HSESOL     EXCH)*1.00000+PBESOL     CORR


 TOTAL ENERGY(DFT)(AU)( 10) -2.5782396195839E+03 DE-4.0E-08 tester 2.0E-10
 TTTTTTTTTTTTTTTTTTTTTTTTTTTTTT EDFT        TELAPSE      366.22 TCPU    10155.61
 
 INFORMATION **** DFTD3 ENERGY **** CALCULATE DFTD3 ENERGY

           DFT-D V3(BJ)
 DF                                         hsesol3c  
 parameters
 s6       :    1.0000
 s8       :    0.0000
 a1       :    0.5196
 a2       :    4.9385
 k1 k3    :   16.0000   -4.0000
 Cutoff   :   50.2022
 CN-Cutoff:   21.1671
 ABC-Cutoff:   21.1671
 
 Edisp /kcal,au:   -59.6312 -0.09502836

 E6    /kcal :   -64.0811
 E8    /kcal :     0.0000
 E6(ABC) "   :   4.449882
 
 INFORMATION **** DFTD3 ENERGY **** NORMAL TERMINATION OF DFTD3 MODULE

 GCP ENERGY CALCULATION
  level        hsesol3c            basis:hsesol3c
  Nbf            948
  Atoms           84

  Parameters: 
  sigma     1.0000
  eta       1.4281
  alpha     0.2936
  beta      1.9467

  dmp_scal      4.0000
  dmp_exp       6.0000
 cutoffs: 
   distance [bohr] 60.0
   noise    [a.u.] 2.2E-16
 SR-damping   T
 ** gCP correction **
  Egcp:        0.1683338464 / (a.u.) ||     105.6311 / (kcal/mol)
 INFORMATION **** GCP **** NORMAL TERMINATION OF GCP MODULE

 *******************************************************************************

 DFT-D3-GCP DISPERSION AND COUNTERPOISE CORRECTION

 D3 DISPERSION ENERGY (AU)      -9.5028362479871E-02
 GCP ENERGY (AU)                 1.6833384641187E-01
 TOTAL ENERGY + DISP + GCP (AU) -2.5781663141000E+03

 *******************************************************************************

 EIGENVECTORS IN FORTRAN UNIT  8
 TTTTTTTTTTTTTTTTTTTTTTTTTTTTTT END         TELAPSE      369.82 TCPU    10165.11
 EEEEEEEEEE TERMINATION  DATE 19 02 2026 TIME 20:02:31.9
