 Default number of threads is:           32

         
 *******************************************************************************
 *                                                                             *
 *                               CRYSTAL23                                     *
 *                      public : 1.0.1 - October 2022                          *
 *                       HTTP://WWW.CRYSTAL.UNITO.IT                           *
 *                                                                             *
 *                              MAIN AUTHORS                                   *
 *                                                                             *
 *  R. DOVESI(1,11), V.R. SAUNDERS(2), C. ROETTI(1,11), R. ORLANDO(1,11),      *
 *  C.M. ZICOVICH-WILSON(1,3), F. PASCALE(4), B. CIVALLERI(1,11),              *
 *  K. DOLL(5), N.M. HARRISON(6), I.J. BUSH(7), Ph. D'ARCO(8),                 *
 *  M. LLUNELL(9), M. CAUSA'(10), Y. NOEL(8), L. MASCHIO(1,11), A. ERBA(1,11)  *
 *  M. RE'RAT(14), S. CASASSA(1,11), B.G. SEARLE(2), J.K. DESMARAIS(1)         *
 *                                                                             *
 *        CONTRIBUTIONS TO THE CODE HAVE ALSO BEEN GIVEN BY                    *
 *                                                                             *
 *  M. FERRABONE(1,11), M. DE LA PIERRE(1,11), M. FERRERO(1,11),               *
 *  J. BAIMA(1,11), E. ALBANESE(1,11), M.F. PEINTINGER(12), R. BAST(13),       *
 *  B. KIRTMAN(15), V. LACIVITA(1,11), R. DEMICHELIS(1,16)                     *
 *  G. BRANDEBURG(17), S. SALUSTRO(1,11), G. SANSONE(1,11)                     *
 *  M.T. RUGGIERO(18), L.E. DAGA(1), L. DONA'(1), A. COSSARD(1)                *
 *                                                                             *
 * (1) THEORETICAL CHEMISTRY GROUP - UNIVERSITA' DI TORINO - TORINO (ITALY)    *
 * (2) SCIENTIFIC COMPUTING DEPARTMENT - STFC DARESBURY (UK)                   *
 * (3) UNIVERSIDAD AUTONOMA DEL ESTADO DE MORELOS - CUERNAVACA (MEXICO)        *
 * (4) UNIVERSITE' DE LORRAINE - NANCY (FRANCE)                                *
 * (5) UNIVERSITAET STUTTGART- STUTTGART (GERMANY)                             *
 * (6) IMPERIAL COLLEGE - LONDON (UK)                                          *
 * (7) SCIENTIFIC COMPUTING DEPARTMENT - STFC RAL (UK)                         *
 * (8) UPMC - SORBONNE UNIVERSITES - PARIS (FRANCE)                            *
 * (9) UNIVERSIDAD DE BARCELONA - BARCELONA (SPAIN)                            *
 *(10) UNIVERSITA' DI NAPOLI "FEDERICO II" - NAPOLI (ITALY)                    *
 *(11) NIS - NANOSTRUCTURED INTERFACES AND SURFACES - TORINO (ITALY)           *
 *(12) MPI FUER CHEMISCHE ENERGIEKONVERSION - MUELHEIM AN DER RUHR (GERMANY)   *
 *(13) UNIVERSITY OF TROMSO - TROMSO (NORWAY)                                  *
 *(14) UNIVERSITE' DE PAU ET DES PAYS DE L'ADOUR - PAU (FRANCE)                *
 *(15) UNIVERSITY OF CALIFORNIA SANTA BARBARA - SANTA BARBARA (USA)            *
 *(16) CURTIN UNIVERSITY - PERTH (AUSTRALIA)                                   *
 *(17) UNIVERSITY COLLEGE LONDON - LONDON (UK)                                 *
 *(18) UNIVERSITY OF VERMONT - BURLINGTON (USA)                                *
 *                                                                             *
 *******************************************************************************
 EEEEEEEEEE STARTING  DATE 19 02 2026 TIME 20:29:08.5
 cof-1_z44_L087_serr                                                             

 CRYSTAL CALCULATION
 (INPUT ACCORDING TO THE INTERNATIONAL TABLES FOR X-RAY CRYSTALLOGRAPHY)
 CRYSTAL FAMILY                       :  TRICLINIC   
 CRYSTAL CLASS  (GROTH - 1921)        :  TRICLINIC PEDIAL                     

 SPACE GROUP (NONCENTROSYMMETRIC)     :  P 1             

 LATTICE PARAMETERS  (ANGSTROMS AND DEGREES) - CONVENTIONAL CELL
        A           B           C        ALPHA        BETA       GAMMA
    15.02361    15.02392     8.80000    90.00032    89.99994   119.99596


 NUMBER OF IRREDUCIBLE ATOMS IN THE CONVENTIONAL CELL:   84

 INPUT COORDINATES

 ATOM AT. N.              COORDINATES
   1   5     6.136805400000E-01  2.273182200000E-01  2.505428100000E-01
   2   5     9.469833800000E-01  8.939916600000E-01  7.505428100000E-01
   3   5     7.727362000000E-01  3.863778800000E-01  2.505428100000E-01
   4   5     1.060390400000E-01  5.305132000000E-02  7.505428200000E-01
   5   5     6.136762700000E-01  3.863606700000E-01  2.494015500000E-01
   6   5     9.469791100000E-01  5.303411000000E-02  7.494015500000E-01
   7   5     2.272552500000E-01  6.136332200000E-01  2.505428100000E-01
   8   5     5.605580900000E-01  2.803066600000E-01  7.505428100000E-01
   9   5     3.863632200000E-01  6.136124500000E-01  2.505428100000E-01
  10   5     7.196660600000E-01  2.802858900000E-01  7.505428100000E-01
  11   5     3.863435000000E-01  7.727516500000E-01  2.494015500000E-01
  12   5     7.196463400000E-01  4.394250900000E-01  7.494015500000E-01
  13   1     9.030436200000E-01  3.089300500000E-01  2.481767300000E-01
  14   1     2.363464600000E-01  9.756034900000E-01  7.481767300000E-01
  15   1     9.663453000000E-02  6.910534400000E-01  2.478149100000E-01
  16   1     4.299373700000E-01  3.577268800000E-01  7.478149100000E-01
  17   1     9.029714200000E-01  5.940724300000E-01  2.477592300000E-01
  18   1     2.362742600000E-01  2.607458700000E-01  7.477592300000E-01
  19   1     9.673618000000E-02  4.056849400000E-01  2.477731200000E-01
  20   1     4.300390200000E-01  7.235838000000E-02  7.477731200000E-01
  21   1     6.910324000000E-01  9.700412000000E-02  2.518232900000E-01
  22   1     2.433524000000E-02  7.636775600000E-01  7.518232900000E-01
  23   1     3.089297200000E-01  9.034373100000E-01  2.521851300000E-01
  24   1     6.422325600000E-01  5.701107500000E-01  7.521851300000E-01
  25   1     4.058699900000E-01  9.704998000000E-02  2.522408400000E-01
  26   1     7.391728300000E-01  7.637234200000E-01  7.522408400000E-01
  27   1     5.943122100000E-01  9.033473200000E-01  2.522268600000E-01
  28   1     9.276150500000E-01  5.700207600000E-01  7.522268600000E-01
  29   1     6.910727400000E-01  5.940542100000E-01  2.481767500000E-01
  30   1     2.437558000000E-02  2.607276500000E-01  7.481767500000E-01
  31   1     3.089618300000E-01  4.056093300000E-01  2.478148900000E-01
  32   1     6.422646700000E-01  7.228277000000E-02  7.478148900000E-01
  33   1     4.058405700000E-01  3.088232500000E-01  2.477591800000E-01
  34   1     7.391434100000E-01  9.754966900000E-01  7.477591900000E-01
  35   1     5.942908800000E-01  6.909579300000E-01  2.477731700000E-01
  36   1     9.275937200000E-01  3.576313700000E-01  7.477731700000E-01
  37   6     8.918903100000E-01  4.459436900000E-01  2.493597900000E-01
  38   6     2.251931500000E-01  1.126171300000E-01  7.493597900000E-01
  39   6     9.464891100000E-01  3.927856300000E-01  2.482324100000E-01
  40   6     2.797919500000E-01  5.945907000000E-02  7.482324100000E-01
  41   6     5.338812000000E-02  6.071853000000E-01  2.481350200000E-01
  42   6     3.866909600000E-01  2.738587400000E-01  7.481350200000E-01
  43   6     9.464521100000E-01  5.536921900000E-01  2.484272900000E-01
  44   6     2.797549500000E-01  2.203656300000E-01  7.484273000000E-01
  45   6     5.342634000000E-02  4.462499700000E-01  2.476757000000E-01
  46   6     3.867291800000E-01  1.129234100000E-01  7.476757000000E-01
  47   6     1.080358900000E-01  5.540356300000E-01  2.484412000000E-01
  48   6     4.413387300000E-01  2.207090700000E-01  7.484412000000E-01
  49   6     5.540394200000E-01  1.081684600000E-01  2.506402400000E-01
  50   6     8.873422600000E-01  7.748419000000E-01  7.506402500000E-01
  51   6     6.071778500000E-01  5.355594000000E-02  2.517676000000E-01
  52   6     9.404806900000E-01  7.202293800000E-01  7.517676000000E-01
  53   6     3.927986700000E-01  9.466631600000E-01  2.518650300000E-01
  54   6     7.261015100000E-01  6.133366000000E-01  7.518650200000E-01
  55   6     4.462875800000E-01  5.360286000000E-02  2.515727600000E-01
  56   6     7.795904200000E-01  7.202763000000E-01  7.515727600000E-01
  57   6     5.537168500000E-01  9.466235600000E-01  2.523243100000E-01
  58   6     8.870196900000E-01  6.132970000000E-01  7.523243100000E-01
  59   6     4.459279100000E-01  8.919920600000E-01  2.515588200000E-01
  60   6     7.792307500000E-01  5.586655000000E-01  7.515588300000E-01
  61   6     5.540448700000E-01  4.458745500000E-01  2.493597900000E-01
  62   6     8.873477100000E-01  1.125479900000E-01  7.493597900000E-01
  63   6     6.072102200000E-01  5.536257800000E-01  2.482324400000E-01
  64   6     9.405130600000E-01  2.202992200000E-01  7.482324400000E-01
  65   6     3.928233700000E-01  4.461720300000E-01  2.481349900000E-01
  66   6     7.261262100000E-01  1.128454700000E-01  7.481349900000E-01
  67   6     4.462872600000E-01  3.926899900000E-01  2.484272700000E-01
  68   6     7.795901000000E-01  5.936343000000E-02  7.484272700000E-01
  69   6     5.537429600000E-01  6.070980000000E-01  2.476757300000E-01
  70   6     8.870458000000E-01  2.737714400000E-01  7.476757300000E-01
  71   6     4.459599800000E-01  5.539582300000E-01  2.484412000000E-01
  72   6     7.792628200000E-01  2.206316700000E-01  7.484412000000E-01
  73   8     5.607366800000E-01  2.803706300000E-01  2.497077300000E-01
  74   8     8.940395200000E-01  9.470440700000E-01  7.497077300000E-01
  75   8     7.196817000000E-01  2.803783300000E-01  2.521155400000E-01
  76   8     5.298454000000E-02  9.470517700000E-01  7.521155400000E-01
  77   8     7.196794200000E-01  4.393234600000E-01  2.484829700000E-01
  78   8     5.298226000000E-02  1.059969000000E-01  7.484829700000E-01
  79   8     2.803245100000E-01  7.196511100000E-01  2.497077500000E-01
  80   8     6.136273500000E-01  3.863245500000E-01  7.497077500000E-01
  81   8     2.803439700000E-01  5.606956100000E-01  2.521155400000E-01
  82   8     6.136468100000E-01  2.273690500000E-01  7.521155400000E-01
  83   8     4.392638400000E-01  7.196354200000E-01  2.484829600000E-01
  84   8     7.725666800000E-01  3.863088600000E-01  7.484829600000E-01

 *******************************************************************************

 << INFORMATION >>: FROM NOW ON, ALL COORDINATES REFER TO THE PRIMITIVE CELL

 *******************************************************************************

 LATTICE PARAMETERS  (ANGSTROMS AND DEGREES) - PRIMITIVE CELL
       A          B          C        ALPHA      BETA     GAMMA        VOLUME
   15.02361   15.02392    8.80000    90.00032  89.99994 119.99596   1720.237623

 COORDINATES OF THE EQUIVALENT ATOMS (FRACTIONAL UNITS)

 N. ATOM EQUIV AT. N.          X                  Y                  Z

   1   1   1    5 B    -3.86319460000E-01  2.27318220000E-01  2.50542810000E-01

   2   2   1    5 B    -5.30166200000E-02 -1.06008340000E-01 -2.49457190000E-01

   3   3   1    5 B    -2.27263800000E-01  3.86377880000E-01  2.50542810000E-01

   4   4   1    5 B     1.06039040000E-01  5.30513200000E-02 -2.49457180000E-01

   5   5   1    5 B    -3.86323730000E-01  3.86360670000E-01  2.49401550000E-01

   6   6   1    5 B    -5.30208900000E-02  5.30341100000E-02 -2.50598450000E-01

   7   7   1    5 B     2.27255250000E-01 -3.86366780000E-01  2.50542810000E-01

   8   8   1    5 B    -4.39441910000E-01  2.80306660000E-01 -2.49457190000E-01

   9   9   1    5 B     3.86363220000E-01 -3.86387550000E-01  2.50542810000E-01

  10  10   1    5 B    -2.80333940000E-01  2.80285890000E-01 -2.49457190000E-01

  11  11   1    5 B     3.86343500000E-01 -2.27248350000E-01  2.49401550000E-01

  12  12   1    5 B    -2.80353660000E-01  4.39425090000E-01 -2.50598450000E-01

  13  13   1    1 H    -9.69563800000E-02  3.08930050000E-01  2.48176730000E-01

  14  14   1    1 H     2.36346460000E-01 -2.43965100000E-02 -2.51823270000E-01

  15  15   1    1 H     9.66345300000E-02 -3.08946560000E-01  2.47814910000E-01

  16  16   1    1 H     4.29937370000E-01  3.57726880000E-01 -2.52185090000E-01

  17  17   1    1 H    -9.70285800000E-02 -4.05927570000E-01  2.47759230000E-01

  18  18   1    1 H     2.36274260000E-01  2.60745870000E-01 -2.52240770000E-01

  19  19   1    1 H     9.67361800000E-02  4.05684940000E-01  2.47773120000E-01

  20  20   1    1 H     4.30039020000E-01  7.23583800000E-02 -2.52226880000E-01

  21  21   1    1 H    -3.08967600000E-01  9.70041200000E-02  2.51823290000E-01

  22  22   1    1 H     2.43352400000E-02 -2.36322440000E-01 -2.48176710000E-01

  23  23   1    1 H     3.08929720000E-01 -9.65626900000E-02  2.52185130000E-01

  24  24   1    1 H    -3.57767440000E-01 -4.29889250000E-01 -2.47814870000E-01

  25  25   1    1 H     4.05869990000E-01  9.70499800000E-02  2.52240840000E-01

  26  26   1    1 H    -2.60827170000E-01 -2.36276580000E-01 -2.47759160000E-01

  27  27   1    1 H    -4.05687790000E-01 -9.66526800000E-02  2.52226860000E-01

  28  28   1    1 H    -7.23849500000E-02 -4.29979240000E-01 -2.47773140000E-01

  29  29   1    1 H    -3.08927260000E-01 -4.05945790000E-01  2.48176750000E-01

  30  30   1    1 H     2.43755800000E-02  2.60727650000E-01 -2.51823250000E-01

  31  31   1    1 H     3.08961830000E-01  4.05609330000E-01  2.47814890000E-01

  32  32   1    1 H    -3.57735330000E-01  7.22827700000E-02 -2.52185110000E-01

  33  33   1    1 H     4.05840570000E-01  3.08823250000E-01  2.47759180000E-01

  34  34   1    1 H    -2.60856590000E-01 -2.45033100000E-02 -2.52240810000E-01

  35  35   1    1 H    -4.05709120000E-01 -3.09042070000E-01  2.47773170000E-01

  36  36   1    1 H    -7.24062800000E-02  3.57631370000E-01 -2.52226830000E-01

  37  37   1    6 C    -1.08109690000E-01  4.45943690000E-01  2.49359790000E-01

  38  38   1    6 C     2.25193150000E-01  1.12617130000E-01 -2.50640210000E-01

  39  39   1    6 C    -5.35108900000E-02  3.92785630000E-01  2.48232410000E-01

  40  40   1    6 C     2.79791950000E-01  5.94590700000E-02 -2.51767590000E-01

  41  41   1    6 C     5.33881200000E-02 -3.92814700000E-01  2.48135020000E-01

  42  42   1    6 C     3.86690960000E-01  2.73858740000E-01 -2.51864980000E-01

  43  43   1    6 C    -5.35478900000E-02 -4.46307810000E-01  2.48427290000E-01

  44  44   1    6 C     2.79754950000E-01  2.20365630000E-01 -2.51572700000E-01

  45  45   1    6 C     5.34263400000E-02  4.46249970000E-01  2.47675700000E-01

  46  46   1    6 C     3.86729180000E-01  1.12923410000E-01 -2.52324300000E-01

  47  47   1    6 C     1.08035890000E-01 -4.45964370000E-01  2.48441200000E-01

  48  48   1    6 C     4.41338730000E-01  2.20709070000E-01 -2.51558800000E-01

  49  49   1    6 C    -4.45960580000E-01  1.08168460000E-01  2.50640240000E-01

  50  50   1    6 C    -1.12657740000E-01 -2.25158100000E-01 -2.49359750000E-01

  51  51   1    6 C    -3.92822150000E-01  5.35559400000E-02  2.51767600000E-01

  52  52   1    6 C    -5.95193100000E-02 -2.79770620000E-01 -2.48232400000E-01

  53  53   1    6 C     3.92798670000E-01 -5.33368400000E-02  2.51865030000E-01

  54  54   1    6 C    -2.73898490000E-01 -3.86663400000E-01 -2.48134980000E-01

  55  55   1    6 C     4.46287580000E-01  5.36028600000E-02  2.51572760000E-01

  56  56   1    6 C    -2.20409580000E-01 -2.79723700000E-01 -2.48427240000E-01

  57  57   1    6 C    -4.46283150000E-01 -5.33764400000E-02  2.52324310000E-01

  58  58   1    6 C    -1.12980310000E-01 -3.86703000000E-01 -2.47675690000E-01

  59  59   1    6 C     4.45927910000E-01 -1.08007940000E-01  2.51558820000E-01

  60  60   1    6 C    -2.20769250000E-01 -4.41334500000E-01 -2.48441170000E-01

  61  61   1    6 C    -4.45955130000E-01  4.45874550000E-01  2.49359790000E-01

  62  62   1    6 C    -1.12652290000E-01  1.12547990000E-01 -2.50640210000E-01

  63  63   1    6 C    -3.92789780000E-01 -4.46374220000E-01  2.48232440000E-01

  64  64   1    6 C    -5.94869400000E-02  2.20299220000E-01 -2.51767560000E-01

  65  65   1    6 C     3.92823370000E-01  4.46172030000E-01  2.48134990000E-01

  66  66   1    6 C    -2.73873790000E-01  1.12845470000E-01 -2.51865010000E-01

  67  67   1    6 C     4.46287260000E-01  3.92689990000E-01  2.48427270000E-01

  68  68   1    6 C    -2.20409900000E-01  5.93634300000E-02 -2.51572730000E-01

  69  69   1    6 C    -4.46257040000E-01 -3.92902000000E-01  2.47675730000E-01

  70  70   1    6 C    -1.12954200000E-01  2.73771440000E-01 -2.52324270000E-01

  71  71   1    6 C     4.45959980000E-01 -4.46041770000E-01  2.48441200000E-01

  72  72   1    6 C    -2.20737180000E-01  2.20631670000E-01 -2.51558800000E-01

  73  73   1    8 O    -4.39263320000E-01  2.80370630000E-01  2.49707730000E-01

  74  74   1    8 O    -1.05960480000E-01 -5.29559300000E-02 -2.50292270000E-01

  75  75   1    8 O    -2.80318300000E-01  2.80378330000E-01  2.52115540000E-01

  76  76   1    8 O     5.29845400000E-02 -5.29482300000E-02 -2.47884460000E-01

  77  77   1    8 O    -2.80320580000E-01  4.39323460000E-01  2.48482970000E-01

  78  78   1    8 O     5.29822600000E-02  1.05996900000E-01 -2.51517030000E-01

  79  79   1    8 O     2.80324510000E-01 -2.80348890000E-01  2.49707750000E-01

  80  80   1    8 O    -3.86372650000E-01  3.86324550000E-01 -2.50292250000E-01

  81  81   1    8 O     2.80343970000E-01 -4.39304390000E-01  2.52115540000E-01

  82  82   1    8 O    -3.86353190000E-01  2.27369050000E-01 -2.47884460000E-01

  83  83   1    8 O     4.39263840000E-01 -2.80364580000E-01  2.48482960000E-01

  84  84   1    8 O    -2.27433320000E-01  3.86308860000E-01 -2.51517040000E-01

 NUMBER OF SYMMETRY OPERATORS         :    1
 *******************************************************************************
 * GEOMETRY EDITING - INPUT COORDINATES ARE GIVEN IN ANGSTROM         
 *******************************************************************************

 GCALCO - MAX INDICES DIRECT LATTICE VECTOR    12    12    19
 NO.OF VECTORS CREATED 6999 STARS 3500 RMAX   269.05559 BOHR

 GEOMETRY FOR WAVE FUNCTION - DIMENSIONALITY OF THE SYSTEM    3
 (NON PERIODIC DIRECTION: LATTICE PARAMETER FORMALLY SET TO 500)
 *******************************************************************************
 LATTICE PARAMETERS (ANGSTROMS AND DEGREES) - BOHR = 0.5291772083 ANGSTROM
 PRIMITIVE CELL - CENTRING CODE 1/0 VOLUME=  1720.237623 - DENSITY  0.753 g/cm^3
         A              B              C           ALPHA      BETA       GAMMA 
    15.02361100    15.02391600     8.80000000    90.000323  89.999944 119.995964
 *******************************************************************************
 ATOMS IN THE ASYMMETRIC UNIT   84 - ATOMS IN THE UNIT CELL:   84
     ATOM                 X/A                 Y/B                 Z/C    
 *******************************************************************************
      1 T   5 B    -3.863194600000E-01  2.273182200000E-01  2.505428100000E-01
      2 T   5 B    -5.301662000000E-02 -1.060083400000E-01 -2.494571900000E-01
      3 T   5 B    -2.272638000000E-01  3.863778800000E-01  2.505428100000E-01
      4 T   5 B     1.060390400000E-01  5.305132000000E-02 -2.494571800000E-01
      5 T   5 B    -3.863237300000E-01  3.863606700000E-01  2.494015500000E-01
      6 T   5 B    -5.302089000000E-02  5.303411000000E-02 -2.505984500000E-01
      7 T   5 B     2.272552500000E-01 -3.863667800000E-01  2.505428100000E-01
      8 T   5 B    -4.394419100000E-01  2.803066600000E-01 -2.494571900000E-01
      9 T   5 B     3.863632200000E-01 -3.863875500000E-01  2.505428100000E-01
     10 T   5 B    -2.803339400000E-01  2.802858900000E-01 -2.494571900000E-01
     11 T   5 B     3.863435000000E-01 -2.272483500000E-01  2.494015500000E-01
     12 T   5 B    -2.803536600000E-01  4.394250900000E-01 -2.505984500000E-01
     13 T   1 H    -9.695638000000E-02  3.089300500000E-01  2.481767300000E-01
     14 T   1 H     2.363464600000E-01 -2.439651000000E-02 -2.518232700000E-01
     15 T   1 H     9.663453000000E-02 -3.089465600000E-01  2.478149100000E-01
     16 T   1 H     4.299373700000E-01  3.577268800000E-01 -2.521850900000E-01
     17 T   1 H    -9.702858000000E-02 -4.059275700000E-01  2.477592300000E-01
     18 T   1 H     2.362742600000E-01  2.607458700000E-01 -2.522407700000E-01
     19 T   1 H     9.673618000000E-02  4.056849400000E-01  2.477731200000E-01
     20 T   1 H     4.300390200000E-01  7.235838000000E-02 -2.522268800000E-01
     21 T   1 H    -3.089676000000E-01  9.700412000000E-02  2.518232900000E-01
     22 T   1 H     2.433524000000E-02 -2.363224400000E-01 -2.481767100000E-01
     23 T   1 H     3.089297200000E-01 -9.656269000000E-02  2.521851300000E-01
     24 T   1 H    -3.577674400000E-01 -4.298892500000E-01 -2.478148700000E-01
     25 T   1 H     4.058699900000E-01  9.704998000000E-02  2.522408400000E-01
     26 T   1 H    -2.608271700000E-01 -2.362765800000E-01 -2.477591600000E-01
     27 T   1 H    -4.056877900000E-01 -9.665268000000E-02  2.522268600000E-01
     28 T   1 H    -7.238495000000E-02 -4.299792400000E-01 -2.477731400000E-01
     29 T   1 H    -3.089272600000E-01 -4.059457900000E-01  2.481767500000E-01
     30 T   1 H     2.437558000000E-02  2.607276500000E-01 -2.518232500000E-01
     31 T   1 H     3.089618300000E-01  4.056093300000E-01  2.478148900000E-01
     32 T   1 H    -3.577353300000E-01  7.228277000000E-02 -2.521851100000E-01
     33 T   1 H     4.058405700000E-01  3.088232500000E-01  2.477591800000E-01
     34 T   1 H    -2.608565900000E-01 -2.450331000000E-02 -2.522408100000E-01
     35 T   1 H    -4.057091200000E-01 -3.090420700000E-01  2.477731700000E-01
     36 T   1 H    -7.240628000000E-02  3.576313700000E-01 -2.522268300000E-01
     37 T   6 C    -1.081096900000E-01  4.459436900000E-01  2.493597900000E-01
     38 T   6 C     2.251931500000E-01  1.126171300000E-01 -2.506402100000E-01
     39 T   6 C    -5.351089000000E-02  3.927856300000E-01  2.482324100000E-01
     40 T   6 C     2.797919500000E-01  5.945907000000E-02 -2.517675900000E-01
     41 T   6 C     5.338812000000E-02 -3.928147000000E-01  2.481350200000E-01
     42 T   6 C     3.866909600000E-01  2.738587400000E-01 -2.518649800000E-01
     43 T   6 C    -5.354789000000E-02 -4.463078100000E-01  2.484272900000E-01
     44 T   6 C     2.797549500000E-01  2.203656300000E-01 -2.515727000000E-01
     45 T   6 C     5.342634000000E-02  4.462499700000E-01  2.476757000000E-01
     46 T   6 C     3.867291800000E-01  1.129234100000E-01 -2.523243000000E-01
     47 T   6 C     1.080358900000E-01 -4.459643700000E-01  2.484412000000E-01
     48 T   6 C     4.413387300000E-01  2.207090700000E-01 -2.515588000000E-01
     49 T   6 C    -4.459605800000E-01  1.081684600000E-01  2.506402400000E-01
     50 T   6 C    -1.126577400000E-01 -2.251581000000E-01 -2.493597500000E-01
     51 T   6 C    -3.928221500000E-01  5.355594000000E-02  2.517676000000E-01
     52 T   6 C    -5.951931000000E-02 -2.797706200000E-01 -2.482324000000E-01
     53 T   6 C     3.927986700000E-01 -5.333684000000E-02  2.518650300000E-01
     54 T   6 C    -2.738984900000E-01 -3.866634000000E-01 -2.481349800000E-01
     55 T   6 C     4.462875800000E-01  5.360286000000E-02  2.515727600000E-01
     56 T   6 C    -2.204095800000E-01 -2.797237000000E-01 -2.484272400000E-01
     57 T   6 C    -4.462831500000E-01 -5.337644000000E-02  2.523243100000E-01
     58 T   6 C    -1.129803100000E-01 -3.867030000000E-01 -2.476756900000E-01
     59 T   6 C     4.459279100000E-01 -1.080079400000E-01  2.515588200000E-01
     60 T   6 C    -2.207692500000E-01 -4.413345000000E-01 -2.484411700000E-01
     61 T   6 C    -4.459551300000E-01  4.458745500000E-01  2.493597900000E-01
     62 T   6 C    -1.126522900000E-01  1.125479900000E-01 -2.506402100000E-01
     63 T   6 C    -3.927897800000E-01 -4.463742200000E-01  2.482324400000E-01
     64 T   6 C    -5.948694000000E-02  2.202992200000E-01 -2.517675600000E-01
     65 T   6 C     3.928233700000E-01  4.461720300000E-01  2.481349900000E-01
     66 T   6 C    -2.738737900000E-01  1.128454700000E-01 -2.518650100000E-01
     67 T   6 C     4.462872600000E-01  3.926899900000E-01  2.484272700000E-01
     68 T   6 C    -2.204099000000E-01  5.936343000000E-02 -2.515727300000E-01
     69 T   6 C    -4.462570400000E-01 -3.929020000000E-01  2.476757300000E-01
     70 T   6 C    -1.129542000000E-01  2.737714400000E-01 -2.523242700000E-01
     71 T   6 C     4.459599800000E-01 -4.460417700000E-01  2.484412000000E-01
     72 T   6 C    -2.207371800000E-01  2.206316700000E-01 -2.515588000000E-01
     73 T   8 O    -4.392633200000E-01  2.803706300000E-01  2.497077300000E-01
     74 T   8 O    -1.059604800000E-01 -5.295593000000E-02 -2.502922700000E-01
     75 T   8 O    -2.803183000000E-01  2.803783300000E-01  2.521155400000E-01
     76 T   8 O     5.298454000000E-02 -5.294823000000E-02 -2.478844600000E-01
     77 T   8 O    -2.803205800000E-01  4.393234600000E-01  2.484829700000E-01
     78 T   8 O     5.298226000000E-02  1.059969000000E-01 -2.515170300000E-01
     79 T   8 O     2.803245100000E-01 -2.803488900000E-01  2.497077500000E-01
     80 T   8 O    -3.863726500000E-01  3.863245500000E-01 -2.502922500000E-01
     81 T   8 O     2.803439700000E-01 -4.393043900000E-01  2.521155400000E-01
     82 T   8 O    -3.863531900000E-01  2.273690500000E-01 -2.478844600000E-01
     83 T   8 O     4.392638400000E-01 -2.803645800000E-01  2.484829600000E-01
     84 T   8 O    -2.274333200000E-01  3.863088600000E-01 -2.515170400000E-01

 T = ATOM BELONGING TO THE ASYMMETRIC UNIT

 ****    1 SYMMOPS - TRANSLATORS IN FRACTIONAL UNITS
 **** MATRICES AND TRANSLATORS IN THE CRYSTALLOGRAPHIC REFERENCE FRAME
   V INV                    ROTATION MATRICES                   TRANSLATORS
   1   1  1.00 -0.00  0.00  0.00  1.00  0.00 -0.00 -0.00  1.00  0.00  0.00  0.00

 DIRECT LATTICE VECTORS CARTESIAN COMPONENTS (ANGSTROM)
          X                    Y                    Z
   0.130113578931E+02  -0.751088897922E+01   0.000000000000E+00
   0.000000000000E+00   0.150239160000E+02   0.000000000000E+00
  -0.187060927689E-04  -0.496092386567E-04   0.879999999984E+01


 CARTESIAN COORDINATES - PRIMITIVE CELL
 *******************************************************************************
 *      ATOM          X(ANGSTROM)         Y(ANGSTROM)         Z(ANGSTROM)
 *******************************************************************************
    1     5 B    -5.026545441789E+00  6.316799987882E+00  2.204776727960E+00
    2     5 B    -6.898135507308E-01 -1.194446073205E+00 -2.195223271960E+00
    3     5 B    -2.957015324613E+00  7.511849554935E+00  2.204776727960E+00
    4     5 B     1.379716566445E+00  6.034938472041E-04 -2.195223183960E+00
    5     5 B    -5.026600978939E+00 -6.317643474770E+00  2.194733639960E+00
    6     5 B    -6.898690878805E-01  1.195026464142E+00 -2.205266359960E+00
    7     5 B     2.956894704149E+00 -7.511643429843E+00  2.204776727960E+00
    8     5 B     7.293626595208E+00  1.026509070205E-03 -2.195223271960E+00
    9     5 B     5.027105445457E+00  6.316918225044E+00  2.204776727960E+00
   10     5 B    -3.647520556541E+00  6.316561143173E+00 -2.195223271960E+00
   11     5 B     5.026848882828E+00 -6.315955630502E+00  2.194733639960E+00
   12     5 B    -3.647777119170E+00 -6.316312712372E+00 -2.205266359960E+00
   13     1 H    -1.261538802612E+00  5.369555415224E+00  2.183955223960E+00
   14     1 H     3.075193088446E+00 -2.141690645863E+00 -2.216044775960E+00
   15     1 H     1.257341819009E+00 -5.367410686227E+00  2.180771207960E+00
   16     1 H     5.594073710067E+00  2.145259252686E+00 -2.219228791960E+00
   17     1 H    -1.262478214842E+00 -5.369863112720E+00  2.180281223960E+00
   18     1 H     3.074253676216E+00  2.142806826193E+00 -2.219718775960E+00
   19     1 H     1.258664424320E+00  5.368389460936E+00  2.180403455960E+00
   20     1 H     5.595396315379E+00 -2.142856600151E+00 -2.219596543960E+00
   21     1 H    -4.020092731589E+00  3.777990599547E+00  2.216044951960E+00
   22     1 H     3.166391594700E-01 -3.733255461540E+00 -2.183955047960E+00
   23     1 H     4.019590433323E+00 -3.771099083307E+00  2.219229143960E+00
   24     1 H    -4.655035568675E+00 -3.771456165177E+00 -2.180770855960E+00
   25     1 H     5.280914979501E+00 -1.590386201040E+00  2.219719391960E+00
   26     1 H    -3.393711022497E+00 -1.590743282911E+00 -2.180280607960E+00
   27     1 H    -5.278553746712E+00  1.594961692636E+00  2.219596367960E+00
   28     1 H    -9.418218556537E-01 -5.916284368451E+00 -2.180403631960E+00
   29     1 H    -4.019567785199E+00 -3.778589408860E+00  2.183955399960E+00
   30     1 H     3.171641058599E-01  3.734080530053E+00 -2.216044599960E+00
   31     1 H     4.020008309775E+00  3.773250204883E+00  2.180771031960E+00
   32     1 H    -4.654617692223E+00  3.772893123012E+00 -2.219228967960E+00
   33     1 H     5.280532269186E+00  1.591498811171E+00  2.180280783960E+00
   34     1 H    -3.394093732812E+00  1.591141729300E+00 -2.219719127960E+00
   35     1 H    -5.278831195665E+00 -1.595798233809E+00  2.180403895960E+00
   36     1 H    -9.420993046064E-01  5.916871705104E+00 -2.219596103960E+00
   37     6 C    -1.406658532845E+00  7.511808047908E+00  2.194366151960E+00
   38     6 C     2.930073358214E+00  5.619868210364E-04 -2.205633847960E+00
   39     6 C    -6.962539844245E-01  6.303080350475E+00  2.184445207960E+00
   40     6 C     3.640477906634E+00 -1.208165710612E+00 -2.215554791960E+00
   41     6 C     6.946472949207E-01 -6.302619608284E+00  2.183588175960E+00
   42     6 C     5.031379185979E+00  1.210050330629E+00 -2.216411823960E+00
   43     6 C    -6.967354083120E-01 -6.303111115011E+00  2.186160151960E+00
   44     6 C     3.639996482746E+00  1.209558823901E+00 -2.213839759960E+00
   45     6 C     6.951445976115E-01  6.303130468974E+00  2.179546159960E+00
   46     6 C     5.031876488670E+00 -1.208115592113E+00 -2.220453839960E+00
   47     6 C     1.405688982721E+00 -7.511589134413E+00  2.186282559960E+00
   48     6 C     5.742420873779E+00  1.080804500278E-03 -2.213717439960E+00
   49     6 C     7.208800491982E+00 -2.536227150912E+00  2.205634111960E+00
   50     6 C    -1.465825510016E+00 -2.536584232783E+00 -2.194365799960E+00
   51     6 C    -5.111154291558E+00  3.755051011089E+00  2.215554879960E+00
   52     6 C    -7.744224004995E-01 -3.756195049998E+00 -2.184445119960E+00
   53     6 C     5.110839363876E+00 -3.751607900252E+00  2.216412263960E+00
   54     6 C    -3.563786638122E+00 -3.751964982122E+00 -2.183587823960E+00
   55     6 C     5.806802720663E+00 -2.546704080517E+00  2.213840287960E+00
   56     6 C    -2.867823281335E+00 -2.547061162387E+00 -2.186159711960E+00
   57     6 C    -5.806754506293E+00  2.550047524389E+00  2.220453927960E+00
   58     6 C    -1.470022615234E+00 -4.961198536698E+00 -2.179546071960E+00
   59     6 C     5.802122925830E+00 -4.972029722279E+00  2.213717615960E+00
   60     6 C    -2.872503076168E+00 -4.972386804150E+00 -2.186282295960E+00
   61     6 C     7.208871427835E+00  2.537399907114E+00  2.194366151960E+00
   62     6 C    -1.465754574163E+00  2.537042825243E+00 -2.205633847960E+00
   63     6 C    -5.110733047774E+00 -3.756100670717E+00  2.184445471960E+00
   64     6 C    -7.740011567154E-01  3.756569268196E+00 -2.215554527960E+00
   65     6 C     5.111160814190E+00  3.752786069970E+00  2.183587911960E+00
   66     6 C    -3.563465187808E+00  3.752428988099E+00 -2.216412087960E+00
   67     6 C     5.806798615868E+00  2.547715036814E+00  2.186159975960E+00
   68     6 C    -2.867827386130E+00  2.547357954944E+00 -2.213840023960E+00
   69     6 C    -5.806414692781E+00 -2.551151847603E+00  2.179546423960E+00
   70     6 C    -1.469682801723E+00  4.961518091310E+00 -2.220453575960E+00
   71     6 C     5.802540258396E+00  4.973053691096E+00  2.186282559960E+00
   72     6 C    -2.872085743602E+00  4.972696609226E+00 -2.213717439960E+00
   73     8 O     7.295940956188E+00  6.214561222829E-04  2.197428023960E+00
   74     8 O    -1.378685045810E+00  2.643742515626E-04 -2.202571975960E+00
   75     8 O    -3.647326441370E+00  6.317807601023E+00  2.218616751960E+00
   76     8 O     6.894054496887E-01 -1.193438460064E+00 -2.181383247960E+00
   77     8 O    -3.647356039315E+00 -6.318112812212E+00  2.186650135960E+00
   78     8 O     6.893758517439E-01  1.194557126701E+00 -2.213349863960E+00
   79     8 O     3.647397854749E+00 -6.317436834628E+00  2.197428199960E+00
   80     8 O     7.984129745808E+00  1.195233104285E+00 -2.202571799960E+00
   81     8 O     3.647651010734E+00  6.318198804286E+00  2.218616751960E+00
   82     8 O     7.984382901792E+00 -1.193047256801E+00 -2.181383247960E+00
   83     8 O    -7.295943509484E+00 -5.591819535882E-04  2.186650047960E+00
   84     8 O    -2.959211618425E+00 -7.511805243041E+00 -2.213349951960E+00

 *******************************************************************************
 STARTING BASIS SET HANDLING 
 *******************************************************************************

 Loading internal basis set: SOLDEF2MSVP         

 Please cite in your publication:
 L. Dona', J. G. Brandenburg and B. Civalleri, J. Chem. Phys., 151, 121101 (2019
 )                                                                              
                                                                                
                    

 *******************************************************************************
 LOCAL ATOMIC FUNCTIONS BASIS SET
 *******************************************************************************
   ATOM   X(AU)   Y(AU)   Z(AU)  N. TYPE  EXPONENT  S COEF   P COEF   D/F/G COEF
 *******************************************************************************
   1 B   -9.499  11.937   4.166
                                  1 S  
                                         2.410E+03 1.755E-03 0.000E+00 0.000E+00
                                         3.619E+02 1.344E-02 0.000E+00 0.000E+00
                                         8.231E+01 6.637E-02 0.000E+00 0.000E+00
                                         2.311E+01 2.303E-01 0.000E+00 0.000E+00
                                         7.252E+00 5.150E-01 0.000E+00 0.000E+00
                                  2 S  
                                         2.367E+00 1.000E+00 0.000E+00 0.000E+00
                                  3 S  
                                         5.533E-01 1.000E+00 0.000E+00 0.000E+00
                                  4 S  
                                         1.716E-01 1.000E+00 0.000E+00 0.000E+00
                           5-     7 P  
                                         6.002E+00 0.000E+00-3.555E-02 0.000E+00
                                         1.240E+00 0.000E+00-1.983E-01 0.000E+00
                                         3.367E-01 0.000E+00-5.048E-01 0.000E+00
                           8-    10 P  
                                         1.256E-01 0.000E+00 1.000E+00 0.000E+00
                          11-    15 D  
                                         8.880E-01 0.000E+00 0.000E+00 1.000E+00
   2 B   -1.304  -2.257  -4.148
   3 B   -5.588  14.195   4.166
   4 B    2.607   0.001  -4.148
   5 B   -9.499 -11.939   4.147
   6 B   -1.304   2.258  -4.167
   7 B    5.588 -14.195   4.166
   8 B   13.783   0.002  -4.148
   9 B    9.500  11.937   4.166
  10 B   -6.893  11.937  -4.148
  11 B    9.499 -11.935   4.147
  12 B   -6.893 -11.936  -4.167
  13 H   -2.384  10.147   4.127
                                181 S  
                                         1.874E+01 1.968E-02 0.000E+00 0.000E+00
                                         2.826E+00 1.380E-01 0.000E+00 0.000E+00
                                         6.401E-01 4.783E-01 0.000E+00 0.000E+00
                                182 S  
                                         1.756E-01 1.000E+00 0.000E+00 0.000E+00
  14 H    5.811  -4.047  -4.188
  15 H    2.376 -10.143   4.121
  16 H   10.571   4.054  -4.194
  17 H   -2.386 -10.148   4.120
  18 H    5.809   4.049  -4.195
  19 H    2.379  10.145   4.120
  20 H   10.574  -4.049  -4.194
  21 H   -7.597   7.139   4.188
  22 H    0.598  -7.055  -4.127
  23 H    7.596  -7.126   4.194
  24 H   -8.797  -7.127  -4.121
  25 H    9.979  -3.005   4.195
  26 H   -6.413  -3.006  -4.120
  27 H   -9.975   3.014   4.194
  28 H   -1.780 -11.180  -4.120
  29 H   -7.596  -7.140   4.127
  30 H    0.599   7.056  -4.188
  31 H    7.597   7.130   4.121
  32 H   -8.796   7.130  -4.194
  33 H    9.979   3.007   4.120
  34 H   -6.414   3.007  -4.195
  35 H   -9.976  -3.016   4.120
  36 H   -1.780  11.181  -4.194
  37 C   -2.658  14.195   4.147
                                229 S  
                                         3.624E+03 1.634E-03 0.000E+00 0.000E+00
                                         5.440E+02 1.252E-02 0.000E+00 0.000E+00
                                         1.237E+02 6.211E-02 0.000E+00 0.000E+00
                                         3.476E+01 2.182E-01 0.000E+00 0.000E+00
                                         1.093E+01 4.980E-01 0.000E+00 0.000E+00
                                230 S  
                                         3.574E+00 1.000E+00 0.000E+00 0.000E+00
                                231 S  
                                         7.742E-01 1.000E+00 0.000E+00 0.000E+00
                                232 S  
                                         2.330E-01 1.000E+00 0.000E+00 0.000E+00
                         233-   235 P  
                                         9.443E+00 0.000E+00 3.790E-02 0.000E+00
                                         2.002E+00 0.000E+00 2.082E-01 0.000E+00
                                         5.463E-01 0.000E+00 5.047E-01 0.000E+00
                         236-   238 P  
                                         1.820E-01 0.000E+00 1.000E+00 0.000E+00
                         239-   243 D  
                                         8.880E-01 0.000E+00 0.000E+00 1.000E+00
  38 C    5.537   0.001  -4.168
  39 C   -1.316  11.911   4.128
  40 C    6.880  -2.283  -4.187
  41 C    1.313 -11.910   4.126
  42 C    9.508   2.287  -4.188
  43 C   -1.317 -11.911   4.131
  44 C    6.879   2.286  -4.184
  45 C    1.314  11.911   4.119
  46 C    9.509  -2.283  -4.196
  47 C    2.656 -14.195   4.131
  48 C   10.852   0.002  -4.183
  49 C   13.623  -4.793   4.168
  50 C   -2.770  -4.793  -4.147
  51 C   -9.659   7.096   4.187
  52 C   -1.463  -7.098  -4.128
  53 C    9.658  -7.090   4.188
  54 C   -6.735  -7.090  -4.126
  55 C   10.973  -4.813   4.184
  56 C   -5.419  -4.813  -4.131
  57 C  -10.973   4.819   4.196
  58 C   -2.778  -9.375  -4.119
  59 C   10.964  -9.396   4.183
  60 C   -5.428  -9.396  -4.131
  61 C   13.623   4.795   4.147
  62 C   -2.770   4.794  -4.168
  63 C   -9.658  -7.098   4.128
  64 C   -1.463   7.099  -4.187
  65 C    9.659   7.092   4.126
  66 C   -6.734   7.091  -4.188
  67 C   10.973   4.814   4.131
  68 C   -5.419   4.814  -4.184
  69 C  -10.973  -4.821   4.119
  70 C   -2.777   9.376  -4.196
  71 C   10.965   9.398   4.131
  72 C   -5.427   9.397  -4.183
  73 O   13.787   0.001   4.153
                                769 S  
                                         6.773E+03 1.727E-03 0.000E+00 0.000E+00
                                         1.017E+03 1.325E-02 0.000E+00 0.000E+00
                                         2.313E+02 6.603E-02 0.000E+00 0.000E+00
                                         6.501E+01 2.353E-01 0.000E+00 0.000E+00
                                         2.050E+01 5.498E-01 0.000E+00 0.000E+00
                                770 S  
                                         6.716E+00 1.000E+00 0.000E+00 0.000E+00
                                771 S  
                                         1.147E+00 1.000E+00 0.000E+00 0.000E+00
                                772 S  
                                         3.342E-01 1.000E+00 0.000E+00 0.000E+00
                         773-   775 P  
                                         1.769E+01 0.000E+00 4.359E-02 0.000E+00
                                         3.854E+00 0.000E+00 2.318E-01 0.000E+00
                                         1.047E+00 0.000E+00 5.146E-01 0.000E+00
                         776-   778 P  
                                         2.759E-01 0.000E+00 1.000E+00 0.000E+00
                         779-   783 D  
                                         8.000E-01 0.000E+00 0.000E+00 1.000E+00
  74 O   -2.605   0.000  -4.162
  75 O   -6.892  11.939   4.193
  76 O    1.303  -2.255  -4.122
  77 O   -6.893 -11.940   4.132
  78 O    1.303   2.257  -4.183
  79 O    6.893 -11.938   4.153
  80 O   15.088   2.259  -4.162
  81 O    6.893  11.940   4.193
  82 O   15.088  -2.255  -4.122
  83 O  -13.787  -0.001   4.132
  84 O   -5.592 -14.195  -4.183

 *******************************************************************************
 FINISHED BASIS SET HANDLING 
 *******************************************************************************

 INFORMATION **** SET_MPP **** PCRYSTAL CALCULATION
 INFORMATION **** READM2 **** NEW DEFAULT: FOCK/KS MATRIX MIXING SET TO 30 %
 INFORMATION **** READM2 **** NEW DEFAULT: FULL DIRECT SCF MODE
 INFORMATION **** READM2 **** NEW DEFAULT: COULOMB BIPOLAR BUFFER SET TO 32 Mb
 INFORMATION **** READM2 **** NEW DEFAULT: EXCHANGE BIPOLAR BUFFER SET TO 32 Mb

 *******************************************************************************
 NEW DEFAULT: DFT INTEGRATION GRID INCREASED TO XLGRID
 NEW DEFAULT: DIIS ACCELERATOR ACTIVE
 USE KEYWORD NODIIS TO TURN IT OFF
 *******************************************************************************

 WARNING **** RDDFTP **** HSEsol-HJS ACTIVE
 RANGE SEPARATION - OMEGA:   0.110000000000000     
 WARNING **** RDDFTP **** HSEsol-3c has to be combined with sol-def2-mSVP basis set
 *******************************************************************************
 N. OF ATOMS PER CELL        84  COULOMB OVERLAP TOL         (T1) 10**   -6
 NUMBER OF SHELLS           468  COULOMB PENETRATION TOL     (T2) 10**   -6
 NUMBER OF AO               948  EXCHANGE OVERLAP TOL        (T3) 10**   -6
 N. OF ELECTRONS PER CELL   396  EXCHANGE PSEUDO OVP (F(G))  (T4) 10**   -6
 CORE ELECTRONS PER CELL    120  EXCHANGE PSEUDO OVP (P(G))  (T5) 10**  -12
 N. OF SYMMETRY OPERATORS     1  POLE ORDER IN MONO ZONE                  4
 *******************************************************************************
 TYPE OF CALCULATION :  RESTRICTED CLOSED SHELL
 KOHN-SHAM HAMILTONIAN

 (EXCHANGE)[CORRELATION] FUNCTIONAL:(HSEsol GGA)[PBEsol]

 RANGE-SEPARATED HYBRID FUNCTIONAL 
 OMEGA (SHORT-RANGE)[LONG-RANGE]:(    0.1100)[    0.0000]

 HYBRID EXCHANGE - PERCENTAGE OF FOCK EXCHANGE    25.0000

 CAPPA:IS1  2;IS2  2;IS3  8; K PTS MONK NET  20; SYMMOPS:K SPACE   2;G SPACE   1

 *******************************************************************************
 MAX NUMBER OF SCF CYCLES      50  CONVERGENCE ON DELTAP        10**-16
 WEIGHT OF F(I) IN F(I+1)      30% CONVERGENCE ON ENERGY        10**- 6
 SHRINK. FACT.(MONKH.)    2  2  8  NUMBER OF K POINTS IN THE IBZ     20
 SHRINKING FACTOR(GILAT NET)    8  NUMBER OF K POINTS(GILAT NET)   1028
 *******************************************************************************
 *** K POINTS COORDINATES (OBLIQUE COORDINATES IN UNITS OF IS =  2)
   1-R(  0  0  0)   2-R(  1  0  0)   3-R(  0  1  0)   4-R(  1  1  0)
   5-C(  0  0  1)   6-C(  1  0  1)   7-C(  0  1  1)   8-C(  1  1  1)
   9-C(  0  0  2)  10-C(  1  0  2)  11-C(  0  1  2)  12-C(  1  1  2)
  13-C(  0  0  3)  14-C(  1  0  3)  15-C(  0  1  3)  16-C(  1  1  3)
  17-R(  0  0  4)  18-R(  1  0  4)  19-R(  0  1  4)  20-R(  1  1  4)

 DIRECT LATTICE VECTORS COMPON. (A.U.)     RECIP. LATTICE VECTORS COMPON. (A.U.) 
        X            Y            Z              X            Y            Z
   24.5879030  -14.1935232    0.0000000      0.2555397    0.0000000    0.0000005
    0.0000000   28.3910867    0.0000000      0.1277517    0.2213084    0.0000015
   -0.0000353   -0.0000937   16.6295900      0.0000000    0.0000000    0.3778316

 DISK SPACE FOR EIGENVECTORS (FTN 10)    28758528 REALS

 SYMMETRY ADAPTION OF THE BLOCH FUNCTIONS DISABLED
 TTTTTTTTTTTTTTTTTTTTTTTTTTTTTT gordsh1     TELAPSE        0.07 TCPU        0.06

 MATRIX SIZE: P(G)  544304, F(G)  105480, P(G) IRR  274054, F(G) IRR  106440
 MAX G-VECTOR INDEX FOR 1- AND 2-ELECTRON INTEGRALS  41

 TTTTTTTTTTTTTTTTTTTTTTTTTTTTTT INPUT       TELAPSE        2.36 TCPU        2.35

 NEIGHBORS OF THE NON-EQUIVALENT ATOMS

 N = NUMBER OF NEIGHBORS AT DISTANCE R
    ATOM  N     R/ANG      R/AU   NEIGHBORS (ATOM LABELS AND CELL INDICES)
   1 B    1     1.3791     2.6061   73 O   -1 0 0
   1 B    1     1.3793     2.6065   75 O    0 0 0
   1 B    1     1.5503     2.9297   49 C   -1 0 0
   1 B    1     2.3895     4.5155    5 B    0 1 0
   1 B    1     2.3898     4.5160    3 B    0 0 0
   1 B    1     2.5632     4.8437   51 C    0 0 0

   2 B    1     1.3791     2.6061   74 O    0 0 0
   2 B    1     1.3793     2.6065   76 O    0 0 0
   2 B    1     1.5503     2.9297   50 C    0 0 0
   2 B    1     2.3895     4.5155    6 B    0 0 0
   2 B    1     2.3898     4.5160    4 B    0 0 0
   2 B    1     2.5632     4.8437   52 C    0 0 0

   3 B    1     1.3793     2.6065   77 O    0 1 0
   3 B    1     1.3793     2.6065   75 O    0 0 0
   3 B    1     1.5504     2.9298   37 C    0 0 0
   3 B    1     2.3895     4.5156    5 B    0 1 0
   3 B    1     2.3898     4.5160    1 B    0 0 0
   3 B    1     2.5634     4.8440   43 C    0 1 0

   4 B    1     1.3793     2.6065   78 O    0 0 0
   4 B    1     1.3793     2.6065   76 O    0 0 0
   4 B    1     1.5504     2.9298   38 C    0 0 0
   4 B    1     2.3895     4.5156    6 B    0 0 0
   4 B    1     2.3898     4.5160    2 B    0 0 0
   4 B    1     2.5634     4.8440   44 C    0 0 0

   5 B    1     1.3791     2.6061   73 O   -1-1 0
   5 B    1     1.3793     2.6064   77 O    0 0 0
   5 B    1     1.5502     2.9294   61 C   -1-1 0
   5 B    1     2.3895     4.5155    1 B    0-1 0
   5 B    1     2.3895     4.5156    3 B    0-1 0
   5 B    1     2.5629     4.8433   63 C    0 0 0

   6 B    1     1.3791     2.6061   74 O    0 0 0
   6 B    1     1.3793     2.6064   78 O    0 0 0
   6 B    1     1.5502     2.9294   62 C    0 0 0
   6 B    1     2.3895     4.5155    2 B    0 0 0
   6 B    1     2.3895     4.5156    4 B    0 0 0
   6 B    1     2.5629     4.8433   64 C    0 0 0

   7 B    1     1.3795     2.6068   79 O    0 0 0
   7 B    1     1.3795     2.6070   81 O    0-1 0
   7 B    1     1.5513     2.9316   47 C    0 0 0
   7 B    1     2.3905     4.5174   11 B    0 0 0
   7 B    1     2.3905     4.5175    9 B    0-1 0
   7 B    1     2.5648     4.8468   45 C    0-1 0

   8 B    1     1.3795     2.6068   80 O    0 0 0
   8 B    1     1.3795     2.6070   82 O    0 0 0
   8 B    1     1.5513     2.9316   48 C    0 0 0
   8 B    1     2.3905     4.5174   12 B    1 1 0
   8 B    1     2.3905     4.5175   10 B    1 0 0
   8 B    1     2.5648     4.8468   46 C    0 0 0

   9 B    1     1.3795     2.6069   81 O    0 0 0
   9 B    1     1.3797     2.6072   83 O    1 1 0
   9 B    1     1.5516     2.9322   71 C    0 0 0
   9 B    1     2.3905     4.5175    7 B    0 1 0
   9 B    1     2.3911     4.5185   11 B    0 1 0
   9 B    1     2.5651     4.8473   69 C    1 1 0

  10 B    1     1.3795     2.6069   82 O   -1 0 0
  10 B    1     1.3797     2.6072   84 O    0 1 0
  10 B    1     1.5516     2.9322   72 C    0 0 0
  10 B    1     2.3905     4.5175    8 B   -1 0 0
  10 B    1     2.3911     4.5185   12 B    0 1 0
  10 B    1     2.5651     4.8473   70 C    0 0 0

  11 B    1     1.3795     2.6068   79 O    0 0 0
  11 B    1     1.3796     2.6071   83 O    1 0 0
  11 B    1     1.5516     2.9322   59 C    0 0 0
  11 B    1     2.3905     4.5174    7 B    0 0 0
  11 B    1     2.3911     4.5185    9 B    0-1 0
  11 B    1     2.5651     4.8473   57 C    1 0 0

  12 B    1     1.3795     2.6068   80 O   -1-1 0
  12 B    1     1.3796     2.6071   84 O    0 0 0
  12 B    1     1.5516     2.9322   60 C    0 0 0
  12 B    1     2.3905     4.5174    8 B   -1-1 0
  12 B    1     2.3911     4.5185   10 B    0-1 0
  12 B    1     2.5651     4.8473   58 C    0 0 0

  13 H    1     1.0913     2.0623   39 C    0 0 0
  13 H    1     2.1472     4.0576   37 C    0 0 0
  13 H    1     2.1680     4.0969   45 C    0 0 0
  13 H    1     2.5202     4.7625   19 H    0 0 0
  13 H    1     2.5676     4.8520   75 O    0 0 0
  13 H    1     2.7321     5.1630    3 B    0 0 0

  14 H    1     1.0913     2.0623   40 C    0 0 0
  14 H    1     2.1472     4.0576   38 C    0 0 0
  14 H    1     2.1680     4.0969   46 C    0 0 0
  14 H    1     2.5202     4.7625   20 H    0 0 0
  14 H    1     2.5676     4.8520   76 O    0 0 0
  14 H    1     2.7321     5.1630    4 B    0 0 0

  15 H    1     1.0914     2.0625   41 C    0 0 0
  15 H    1     2.1493     4.0616   47 C    0 0 0
  15 H    1     2.1666     4.0942   43 C    0 0 0
  15 H    1     2.5198     4.7618   17 H    0 0 0
  15 H    1     2.5720     4.8604   79 O    0 0 0
  15 H    1     2.7362     5.1707    7 B    0 0 0

  16 H    1     1.0914     2.0625   42 C    0 0 0
  16 H    1     2.1493     4.0616   48 C    0 0 0
  16 H    1     2.1666     4.0942   44 C    0 0 0
  16 H    1     2.5198     4.7618   18 H    0 0 0
  16 H    1     2.5720     4.8604   80 O    0 0 0
  16 H    1     2.7362     5.1707    8 B    0 0 0

  17 H    1     1.0914     2.0624   43 C    0 0 0
  17 H    1     2.1471     4.0575   37 C    0-1 0
  17 H    1     2.1680     4.0970   41 C    0 0 0
  17 H    1     2.5198     4.7618   15 H    0 0 0
  17 H    1     2.5665     4.8500   77 O    0 0 0
  17 H    1     2.7315     5.1618    3 B    0-1 0

  18 H    1     1.0914     2.0624   44 C    0 0 0
  18 H    1     2.1471     4.0575   38 C    0 0 0
  18 H    1     2.1680     4.0970   42 C    0 0 0
  18 H    1     2.5198     4.7618   16 H    0 0 0
  18 H    1     2.5665     4.8500   78 O    0 0 0
  18 H    1     2.7315     5.1618    4 B    0 0 0

  19 H    1     1.0915     2.0626   45 C    0 0 0
  19 H    1     2.1490     4.0610   47 C    0 1 0
  19 H    1     2.1669     4.0948   39 C    0 0 0
  19 H    1     2.5202     4.7625   13 H    0 0 0
  19 H    1     2.5712     4.8588   81 O    0 0 0
  19 H    1     2.7351     5.1686    7 B    0 1 0

  20 H    1     1.0915     2.0626   46 C    0 0 0
  20 H    1     2.1490     4.0610   48 C    0 0 0
  20 H    1     2.1669     4.0948   40 C    0 0 0
  20 H    1     2.5202     4.7625   14 H    0 0 0
  20 H    1     2.5712     4.8588   82 O    0 0 0
  20 H    1     2.7351     5.1686    8 B    0 0 0

  21 H    1     1.0913     2.0623   51 C    0 0 0
  21 H    1     2.1469     4.0571   49 C   -1 0 0
  21 H    1     2.1680     4.0968   57 C    0 0 0
  21 H    1     2.5198     4.7617   27 H    0 0 0
  21 H    1     2.5670     4.8510   75 O    0 0 0
  21 H    1     2.7310     5.1609    1 B    0 0 0

  22 H    1     1.0913     2.0623   52 C    0 0 0
  22 H    1     2.1469     4.0571   50 C    0 0 0
  22 H    1     2.1680     4.0968   58 C    0 0 0
  22 H    1     2.5198     4.7617   28 H    0 0 0
  22 H    1     2.5670     4.8510   76 O    0 0 0
  22 H    1     2.7310     5.1609    2 B    0 0 0

  23 H    1     1.0914     2.0625   53 C    0 0 0
  23 H    1     2.1493     4.0617   59 C    0 0 0
  23 H    1     2.1664     4.0939   55 C    0 0 0
  23 H    1     2.5192     4.7606   25 H    0 0 0
  23 H    1     2.5735     4.8632   79 O    0 0 0
  23 H    1     2.7371     5.1723   11 B    0 0 0

  24 H    1     1.0914     2.0625   54 C    0 0 0
  24 H    1     2.1493     4.0617   60 C    0 0 0
  24 H    1     2.1664     4.0939   56 C    0 0 0
  24 H    1     2.5192     4.7606   26 H    0 0 0
  24 H    1     2.5735     4.8632   80 O   -1-1 0
  24 H    1     2.7371     5.1723   12 B    0 0 0

  25 H    1     1.0914     2.0624   55 C    0 0 0
  25 H    1     2.1475     4.0581   49 C    0 0 0
  25 H    1     2.1679     4.0967   53 C    0 0 0
  25 H    1     2.5192     4.7606   23 H    0 0 0
  25 H    1     2.5675     4.8519   73 O    0 0 0
  25 H    1     2.7328     5.1643    1 B    1 0 0

  26 H    1     1.0914     2.0624   56 C    0 0 0
  26 H    1     2.1475     4.0581   50 C    0 0 0
  26 H    1     2.1679     4.0967   54 C    0 0 0
  26 H    1     2.5192     4.7606   24 H    0 0 0
  26 H    1     2.5675     4.8519   74 O    0 0 0
  26 H    1     2.7328     5.1643    2 B    0 0 0

  27 H    1     1.0914     2.0625   57 C    0 0 0
  27 H    1     2.1491     4.0612   59 C   -1 0 0
  27 H    1     2.1666     4.0942   51 C    0 0 0
  27 H    1     2.5198     4.7617   21 H    0 0 0
  27 H    1     2.5723     4.8609   83 O    0 0 0
  27 H    1     2.7355     5.1693   11 B   -1 0 0

  28 H    1     1.0914     2.0625   58 C    0 0 0
  28 H    1     2.1491     4.0612   60 C    0 0 0
  28 H    1     2.1666     4.0942   52 C    0 0 0
  28 H    1     2.5198     4.7617   22 H    0 0 0
  28 H    1     2.5723     4.8609   84 O    0 0 0
  28 H    1     2.7355     5.1693   12 B    0 0 0

  29 H    1     1.0914     2.0624   63 C    0 0 0
  29 H    1     2.1475     4.0582   61 C   -1-1 0
  29 H    1     2.1678     4.0966   69 C    0 0 0
  29 H    1     2.5200     4.7621   35 H    0 0 0
  29 H    1     2.5667     4.8503   77 O    0 0 0
  29 H    1     2.7315     5.1618    5 B    0 0 0

  30 H    1     1.0914     2.0624   64 C    0 0 0
  30 H    1     2.1475     4.0582   62 C    0 0 0
  30 H    1     2.1678     4.0966   70 C    0 0 0
  30 H    1     2.5200     4.7621   36 H    0 0 0
  30 H    1     2.5667     4.8503   78 O    0 0 0
  30 H    1     2.7315     5.1618    6 B    0 0 0

  31 H    1     1.0913     2.0623   65 C    0 0 0
  31 H    1     2.1487     4.0605   71 C    0 0 0
  31 H    1     2.1667     4.0945   67 C    0 0 0
  31 H    1     2.5197     4.7616   33 H    0 0 0
  31 H    1     2.5723     4.8610   81 O    0 0 0
  31 H    1     2.7359     5.1701    9 B    0 0 0

  32 H    1     1.0913     2.0623   66 C    0 0 0
  32 H    1     2.1487     4.0605   72 C    0 0 0
  32 H    1     2.1667     4.0945   68 C    0 0 0
  32 H    1     2.5197     4.7616   34 H    0 0 0
  32 H    1     2.5723     4.8610   82 O   -1 0 0
  32 H    1     2.7359     5.1701   10 B    0 0 0

  33 H    1     1.0915     2.0626   67 C    0 0 0
  33 H    1     2.1479     4.0589   61 C    0 0 0
  33 H    1     2.1679     4.0968   65 C    0 0 0
  33 H    1     2.5197     4.7616   31 H    0 0 0
  33 H    1     2.5677     4.8522   73 O    0 0 0
  33 H    1     2.7331     5.1648    5 B    1 1 0

  34 H    1     1.0915     2.0626   68 C    0 0 0
  34 H    1     2.1479     4.0589   62 C    0 0 0
  34 H    1     2.1679     4.0968   66 C    0 0 0
  34 H    1     2.5197     4.7616   32 H    0 0 0
  34 H    1     2.5677     4.8522   74 O    0 0 0
  34 H    1     2.7331     5.1648    6 B    0 0 0

  35 H    1     1.0914     2.0624   69 C    0 0 0
  35 H    1     2.1486     4.0602   71 C   -1-1 0
  35 H    1     2.1668     4.0947   63 C    0 0 0
  35 H    1     2.5200     4.7621   29 H    0 0 0
  35 H    1     2.5717     4.8598   83 O    0 0 0
  35 H    1     2.7349     5.1682    9 B   -1-1 0

  36 H    1     1.0914     2.0624   70 C    0 0 0
  36 H    1     2.1486     4.0602   72 C    0 0 0
  36 H    1     2.1668     4.0947   64 C    0 0 0
  36 H    1     2.5200     4.7621   30 H    0 0 0
  36 H    1     2.5717     4.8598   84 O    0 1 0
  36 H    1     2.7349     5.1682   10 B    0 0 0

  37 C    1     1.4020     2.6495   43 C    0 1 0
  37 C    1     1.4021     2.6495   39 C    0 0 0
  37 C    1     1.5504     2.9298    3 B    0 0 0
  37 C    1     2.1471     4.0575   17 H    0 1 0
  37 C    1     2.1472     4.0576   13 H    0 0 0
  37 C    1     2.4246     4.5817   41 C    0 1 0

  38 C    1     1.4020     2.6495   44 C    0 0 0
  38 C    1     1.4021     2.6495   40 C    0 0 0
  38 C    1     1.5504     2.9298    4 B    0 0 0
  38 C    1     2.1471     4.0575   18 H    0 0 0
  38 C    1     2.1472     4.0576   14 H    0 0 0
  38 C    1     2.4246     4.5817   42 C    0 0 0

  39 C    1     1.0913     2.0623   13 H    0 0 0
  39 C    1     1.3914     2.6294   45 C    0 0 0
  39 C    1     1.4021     2.6495   37 C    0 0 0
  39 C    1     2.1669     4.0948   19 H    0 0 0
  39 C    1     2.4177     4.5688   43 C    0 1 0
  39 C    1     2.4250     4.5825   47 C    0 1 0

  40 C    1     1.0913     2.0623   14 H    0 0 0
  40 C    1     1.3914     2.6294   46 C    0 0 0
  40 C    1     1.4021     2.6495   38 C    0 0 0
  40 C    1     2.1669     4.0948   20 H    0 0 0
  40 C    1     2.4177     4.5688   44 C    0 0 0
  40 C    1     2.4250     4.5825   48 C    0 0 0

  41 C    1     1.0914     2.0625   15 H    0 0 0
  41 C    1     1.3914     2.6293   43 C    0 0 0
  41 C    1     1.4026     2.6505   47 C    0 0 0
  41 C    1     2.1680     4.0970   17 H    0 0 0
  41 C    1     2.4182     4.5697   45 C    0-1 0
  41 C    1     2.4246     4.5817   37 C    0-1 0

  42 C    1     1.0914     2.0625   16 H    0 0 0
  42 C    1     1.3914     2.6293   44 C    0 0 0
  42 C    1     1.4026     2.6505   48 C    0 0 0
  42 C    1     2.1680     4.0970   18 H    0 0 0
  42 C    1     2.4182     4.5697   46 C    0 0 0
  42 C    1     2.4246     4.5817   38 C    0 0 0

  43 C    1     1.0914     2.0624   17 H    0 0 0
  43 C    1     1.3914     2.6293   41 C    0 0 0
  43 C    1     1.4020     2.6495   37 C    0-1 0
  43 C    1     2.1666     4.0942   15 H    0 0 0
  43 C    1     2.4177     4.5688   39 C    0-1 0
  43 C    1     2.4250     4.5826   47 C    0 0 0

  44 C    1     1.0914     2.0624   18 H    0 0 0
  44 C    1     1.3914     2.6293   42 C    0 0 0
  44 C    1     1.4020     2.6495   38 C    0 0 0
  44 C    1     2.1666     4.0942   16 H    0 0 0
  44 C    1     2.4177     4.5688   40 C    0 0 0
  44 C    1     2.4250     4.5826   48 C    0 0 0

  45 C    1     1.0915     2.0626   19 H    0 0 0
  45 C    1     1.3914     2.6294   39 C    0 0 0
  45 C    1     1.4025     2.6504   47 C    0 1 0
  45 C    1     2.1680     4.0969   13 H    0 0 0
  45 C    1     2.4182     4.5697   41 C    0 1 0
  45 C    1     2.4246     4.5818   37 C    0 0 0

  46 C    1     1.0915     2.0626   20 H    0 0 0
  46 C    1     1.3914     2.6294   40 C    0 0 0
  46 C    1     1.4025     2.6504   48 C    0 0 0
  46 C    1     2.1680     4.0969   14 H    0 0 0
  46 C    1     2.4182     4.5697   42 C    0 0 0
  46 C    1     2.4246     4.5818   38 C    0 0 0

  47 C    1     1.4025     2.6504   45 C    0-1 0
  47 C    1     1.4026     2.6505   41 C    0 0 0
  47 C    1     1.5513     2.9316    7 B    0 0 0
  47 C    1     2.1490     4.0610   19 H    0-1 0
  47 C    1     2.1493     4.0616   15 H    0 0 0
  47 C    1     2.4250     4.5825   39 C    0-1 0

  48 C    1     1.4025     2.6504   46 C    0 0 0
  48 C    1     1.4026     2.6505   42 C    0 0 0
  48 C    1     1.5513     2.9316    8 B    0 0 0
  48 C    1     2.1490     4.0610   20 H    0 0 0
  48 C    1     2.1493     4.0616   16 H    0 0 0
  48 C    1     2.4250     4.5825   40 C    0 0 0

  49 C    1     1.4020     2.6494   51 C    1 0 0
  49 C    1     1.4021     2.6495   55 C    0 0 0
  49 C    1     1.5503     2.9297    1 B    1 0 0
  49 C    1     2.1469     4.0571   21 H    1 0 0
  49 C    1     2.1475     4.0581   25 H    0 0 0
  49 C    1     2.4246     4.5818   53 C    0 0 0

  50 C    1     1.4020     2.6494   52 C    0 0 0
  50 C    1     1.4021     2.6495   56 C    0 0 0
  50 C    1     1.5503     2.9297    2 B    0 0 0
  50 C    1     2.1469     4.0571   22 H    0 0 0
  50 C    1     2.1475     4.0581   26 H    0 0 0
  50 C    1     2.4246     4.5818   54 C    0 0 0

  51 C    1     1.0913     2.0623   21 H    0 0 0
  51 C    1     1.3914     2.6293   57 C    0 0 0
  51 C    1     1.4020     2.6494   49 C   -1 0 0
  51 C    1     2.1666     4.0942   27 H    0 0 0
  51 C    1     2.4175     4.5684   55 C   -1 0 0
  51 C    1     2.4251     4.5828   59 C   -1 0 0

  52 C    1     1.0913     2.0623   22 H    0 0 0
  52 C    1     1.3914     2.6293   58 C    0 0 0
  52 C    1     1.4020     2.6494   50 C    0 0 0
  52 C    1     2.1666     4.0942   28 H    0 0 0
  52 C    1     2.4175     4.5684   56 C    0 0 0
  52 C    1     2.4251     4.5828   60 C    0 0 0

  53 C    1     1.0914     2.0625   23 H    0 0 0
  53 C    1     1.3915     2.6295   55 C    0 0 0
  53 C    1     1.4026     2.6505   59 C    0 0 0
  53 C    1     2.1679     4.0967   25 H    0 0 0
  53 C    1     2.4179     4.5691   57 C    1 0 0
  53 C    1     2.4246     4.5818   49 C    0 0 0

  54 C    1     1.0914     2.0625   24 H    0 0 0
  54 C    1     1.3915     2.6295   56 C    0 0 0
  54 C    1     1.4026     2.6505   60 C    0 0 0
  54 C    1     2.1679     4.0967   26 H    0 0 0
  54 C    1     2.4179     4.5691   58 C    0 0 0
  54 C    1     2.4246     4.5818   50 C    0 0 0

  55 C    1     1.0914     2.0624   25 H    0 0 0
  55 C    1     1.3915     2.6295   53 C    0 0 0
  55 C    1     1.4021     2.6495   49 C    0 0 0
  55 C    1     2.1664     4.0939   23 H    0 0 0
  55 C    1     2.4175     4.5684   51 C    1 0 0
  55 C    1     2.4253     4.5832   59 C    0 0 0

  56 C    1     1.0914     2.0624   26 H    0 0 0
  56 C    1     1.3915     2.6295   54 C    0 0 0
  56 C    1     1.4021     2.6495   50 C    0 0 0
  56 C    1     2.1664     4.0939   24 H    0 0 0
  56 C    1     2.4175     4.5684   52 C    0 0 0
  56 C    1     2.4253     4.5832   60 C    0 0 0

  57 C    1     1.0914     2.0625   27 H    0 0 0
  57 C    1     1.3914     2.6293   51 C    0 0 0
  57 C    1     1.4025     2.6504   59 C   -1 0 0
  57 C    1     2.1680     4.0968   21 H    0 0 0
  57 C    1     2.4179     4.5691   53 C   -1 0 0
  57 C    1     2.4247     4.5819   49 C   -1 0 0

  58 C    1     1.0914     2.0625   28 H    0 0 0
  58 C    1     1.3914     2.6293   52 C    0 0 0
  58 C    1     1.4025     2.6504   60 C    0 0 0
  58 C    1     2.1680     4.0968   22 H    0 0 0
  58 C    1     2.4179     4.5691   54 C    0 0 0
  58 C    1     2.4247     4.5819   50 C    0 0 0

  59 C    1     1.4025     2.6504   57 C    1 0 0
  59 C    1     1.4026     2.6505   53 C    0 0 0
  59 C    1     1.5516     2.9322   11 B    0 0 0
  59 C    1     2.1491     4.0612   27 H    1 0 0
  59 C    1     2.1493     4.0617   23 H    0 0 0
  59 C    1     2.4251     4.5828   51 C    1 0 0

  60 C    1     1.4025     2.6504   58 C    0 0 0
  60 C    1     1.4026     2.6505   54 C    0 0 0
  60 C    1     1.5516     2.9322   12 B    0 0 0
  60 C    1     2.1491     4.0612   28 H    0 0 0
  60 C    1     2.1493     4.0617   24 H    0 0 0
  60 C    1     2.4251     4.5828   52 C    0 0 0

  61 C    1     1.4021     2.6496   63 C    1 1 0
  61 C    1     1.4021     2.6497   67 C    0 0 0
  61 C    1     1.5502     2.9294    5 B    1 1 0
  61 C    1     2.1475     4.0582   29 H    1 1 0
  61 C    1     2.1479     4.0589   33 H    0 0 0
  61 C    1     2.4244     4.5814   65 C    0 0 0

  62 C    1     1.4021     2.6496   64 C    0 0 0
  62 C    1     1.4021     2.6497   68 C    0 0 0
  62 C    1     1.5502     2.9294    6 B    0 0 0
  62 C    1     2.1475     4.0582   30 H    0 0 0
  62 C    1     2.1479     4.0589   34 H    0 0 0
  62 C    1     2.4244     4.5814   66 C    0 0 0

  63 C    1     1.0914     2.0624   29 H    0 0 0
  63 C    1     1.3914     2.6293   69 C    0 0 0
  63 C    1     1.4021     2.6496   61 C   -1-1 0
  63 C    1     2.1668     4.0947   35 H    0 0 0
  63 C    1     2.4179     4.5692   67 C   -1-1 0
  63 C    1     2.4251     4.5827   71 C   -1-1 0

  64 C    1     1.0914     2.0624   30 H    0 0 0
  64 C    1     1.3914     2.6293   70 C    0 0 0
  64 C    1     1.4021     2.6496   62 C    0 0 0
  64 C    1     2.1668     4.0947   36 H    0 0 0
  64 C    1     2.4179     4.5692   68 C    0 0 0
  64 C    1     2.4251     4.5827   72 C    0 0 0

  65 C    1     1.0913     2.0623   31 H    0 0 0
  65 C    1     1.3914     2.6294   67 C    0 0 0
  65 C    1     1.4025     2.6504   71 C    0 0 0
  65 C    1     2.1679     4.0968   33 H    0 0 0
  65 C    1     2.4178     4.5690   69 C    1 1 0
  65 C    1     2.4244     4.5814   61 C    0 0 0

  66 C    1     1.0913     2.0623   32 H    0 0 0
  66 C    1     1.3914     2.6294   68 C    0 0 0
  66 C    1     1.4025     2.6504   72 C    0 0 0
  66 C    1     2.1679     4.0968   34 H    0 0 0
  66 C    1     2.4178     4.5690   70 C    0 0 0
  66 C    1     2.4244     4.5814   62 C    0 0 0

  67 C    1     1.0915     2.0626   33 H    0 0 0
  67 C    1     1.3914     2.6294   65 C    0 0 0
  67 C    1     1.4021     2.6497   61 C    0 0 0
  67 C    1     2.1667     4.0945   31 H    0 0 0
  67 C    1     2.4179     4.5692   63 C    1 1 0
  67 C    1     2.4253     4.5832   71 C    0 0 0

  68 C    1     1.0915     2.0626   34 H    0 0 0
  68 C    1     1.3914     2.6294   66 C    0 0 0
  68 C    1     1.4021     2.6497   62 C    0 0 0
  68 C    1     2.1667     4.0945   32 H    0 0 0
  68 C    1     2.4179     4.5692   64 C    0 0 0
  68 C    1     2.4253     4.5832   72 C    0 0 0

  69 C    1     1.0914     2.0624   35 H    0 0 0
  69 C    1     1.3914     2.6293   63 C    0 0 0
  69 C    1     1.4025     2.6503   71 C   -1-1 0
  69 C    1     2.1678     4.0966   29 H    0 0 0
  69 C    1     2.4178     4.5690   65 C   -1-1 0
  69 C    1     2.4245     4.5817   61 C   -1-1 0

  70 C    1     1.0914     2.0624   36 H    0 0 0
  70 C    1     1.3914     2.6293   64 C    0 0 0
  70 C    1     1.4025     2.6503   72 C    0 0 0
  70 C    1     2.1678     4.0966   30 H    0 0 0
  70 C    1     2.4178     4.5690   66 C    0 0 0
  70 C    1     2.4245     4.5817   62 C    0 0 0

  71 C    1     1.4025     2.6503   69 C    1 1 0
  71 C    1     1.4025     2.6504   65 C    0 0 0
  71 C    1     1.5516     2.9322    9 B    0 0 0
  71 C    1     2.1486     4.0602   35 H    1 1 0
  71 C    1     2.1487     4.0605   31 H    0 0 0
  71 C    1     2.4251     4.5827   63 C    1 1 0

  72 C    1     1.4025     2.6503   70 C    0 0 0
  72 C    1     1.4025     2.6504   66 C    0 0 0
  72 C    1     1.5516     2.9322   10 B    0 0 0
  72 C    1     2.1486     4.0602   36 H    0 0 0
  72 C    1     2.1487     4.0605   32 H    0 0 0
  72 C    1     2.4251     4.5827   64 C    0 0 0

  73 O    1     1.3791     2.6061    1 B    1 0 0
  73 O    1     1.3791     2.6061    5 B    1 1 0
  73 O    1     2.3880     4.5126   75 O    1 0 0
  73 O    1     2.3882     4.5130   77 O    1 1 0
  73 O    1     2.5383     4.7966   61 C    0 0 0
  73 O    1     2.5384     4.7968   49 C    0 0 0

  74 O    1     1.3791     2.6061    2 B    0 0 0
  74 O    1     1.3791     2.6061    6 B    0 0 0
  74 O    1     2.3880     4.5126   76 O    0 0 0
  74 O    1     2.3882     4.5130   78 O    0 0 0
  74 O    1     2.5383     4.7966   62 C    0 0 0
  74 O    1     2.5384     4.7968   50 C    0 0 0

  75 O    1     1.3793     2.6065    1 B    0 0 0
  75 O    1     1.3793     2.6065    3 B    0 0 0
  75 O    1     2.3880     4.5126   73 O   -1 0 0
  75 O    1     2.3882     4.5131   77 O    0 1 0
  75 O    1     2.5391     4.7981   37 C    0 0 0
  75 O    1     2.5395     4.7990   49 C   -1 0 0

  76 O    1     1.3793     2.6065    2 B    0 0 0
  76 O    1     1.3793     2.6065    4 B    0 0 0
  76 O    1     2.3880     4.5126   74 O    0 0 0
  76 O    1     2.3882     4.5131   78 O    0 0 0
  76 O    1     2.5391     4.7981   38 C    0 0 0
  76 O    1     2.5395     4.7990   50 C    0 0 0

  77 O    1     1.3793     2.6064    5 B    0 0 0
  77 O    1     1.3793     2.6065    3 B    0-1 0
  77 O    1     2.3882     4.5130   73 O   -1-1 0
  77 O    1     2.3882     4.5131   75 O    0-1 0
  77 O    1     2.5390     4.7980   37 C    0-1 0
  77 O    1     2.5391     4.7982   61 C   -1-1 0

  78 O    1     1.3793     2.6064    6 B    0 0 0
  78 O    1     1.3793     2.6065    4 B    0 0 0
  78 O    1     2.3882     4.5130   74 O    0 0 0
  78 O    1     2.3882     4.5131   76 O    0 0 0
  78 O    1     2.5390     4.7980   38 C    0 0 0
  78 O    1     2.5391     4.7982   62 C    0 0 0

  79 O    1     1.3795     2.6068   11 B    0 0 0
  79 O    1     1.3795     2.6068    7 B    0 0 0
  79 O    1     2.3880     4.5126   83 O    1 0 0
  79 O    1     2.3884     4.5134   81 O    0-1 0
  79 O    1     2.5400     4.7998   47 C    0 0 0
  79 O    1     2.5403     4.8005   59 C    0 0 0

  80 O    1     1.3795     2.6068   12 B    1 1 0
  80 O    1     1.3795     2.6068    8 B    0 0 0
  80 O    1     2.3880     4.5126   84 O    1 1 0
  80 O    1     2.3884     4.5134   82 O    0 0 0
  80 O    1     2.5400     4.7998   48 C    0 0 0
  80 O    1     2.5403     4.8005   60 C    1 1 0

  81 O    1     1.3795     2.6069    9 B    0 0 0
  81 O    1     1.3795     2.6070    7 B    0 1 0
  81 O    1     2.3881     4.5128   83 O    1 1 0
  81 O    1     2.3884     4.5134   79 O    0 1 0
  81 O    1     2.5404     4.8006   47 C    0 1 0
  81 O    1     2.5405     4.8008   71 C    0 0 0

  82 O    1     1.3795     2.6069   10 B    1 0 0
  82 O    1     1.3795     2.6070    8 B    0 0 0
  82 O    1     2.3881     4.5128   84 O    1 1 0
  82 O    1     2.3884     4.5134   80 O    0 0 0
  82 O    1     2.5404     4.8006   48 C    0 0 0
  82 O    1     2.5405     4.8008   72 C    1 0 0

  83 O    1     1.3796     2.6071   11 B   -1 0 0
  83 O    1     1.3797     2.6072    9 B   -1-1 0
  83 O    1     2.3880     4.5126   79 O   -1 0 0
  83 O    1     2.3881     4.5128   81 O   -1-1 0
  83 O    1     2.5409     4.8016   71 C   -1-1 0
  83 O    1     2.5410     4.8019   59 C   -1 0 0

  84 O    1     1.3796     2.6071   12 B    0 0 0
  84 O    1     1.3797     2.6072   10 B    0-1 0
  84 O    1     2.3880     4.5126   80 O   -1-1 0
  84 O    1     2.3881     4.5128   82 O   -1-1 0
  84 O    1     2.5409     4.8016   72 C    0-1 0
  84 O    1     2.5410     4.8019   60 C    0 0 0


 SYMMETRY ALLOWED INTERNAL DEGREE(S) OF FREEDOM: 249
 TTTTTTTTTTTTTTTTTTTTTTTTTTTTTT SYMM        TELAPSE        2.36 TCPU        2.36
 TTTTTTTTTTTTTTTTTTTTTTTTTTTTTT INT_SCREEN  TELAPSE        2.54 TCPU        2.54

 DFT PARAMETERS

     ATOM       ELECTRONS   NET CHARGE   R(ANGSTROM)
   1   5  B       5.0000      0.0000     0.89000000
  13   1  H       1.0000      0.0000     1.11000000
  37   6  C       6.0000      0.0000     0.77000000
  73   8  O       8.0000      0.0000     0.74000000

 SIZE OF GRID=    2683921
 TTTTTTTTTTTTTTTTTTTTTTTTTTTTTT MAKE_GRID2  TELAPSE       17.52 TCPU       17.49
 BECKE WEIGHT FUNCTION
 RADSAFE =     2.00
 TOLERANCES - DENSITY:10**- 6; POTENTIAL:10**- 9; GRID WGT:10**-14

 RADIAL INTEGRATION  - INTERVALS (POINTS,UPPER LIMIT):            1( 75,  4.0*R)

 ANGULAR INTEGRATION - INTERVALS (ACCURACY LEVEL [N. POINTS] UPPER LIMIT):
  1(  4[  86]   0.2)  2(  8[ 194]   0.5)  3( 12[ 350]   0.9)  4( 16[ 974]   3.5)
  5( 12[ 350]9999.0)
 TTTTTTTTTTTTTTTTTTTTTTTTTTTTTT INT_CALC    TELAPSE       17.72 TCPU       17.68
 EEEEEEEEEE INT_CALC TERMINATION  DATE 19 02 2026 TIME 20:29:26.2

 *******************************************************************************
 cof-1_z44_L087_serr                                                             
 CRYSTAL - SCF - TYPE OF CALCULATION :  RESTRICTED CLOSED SHELL
 *******************************************************************************

 CAPPA:IS1  2;IS2  2;IS3  8; K PTS MONK NET  20; SYMMOPS:K SPACE   2;G SPACE   1

 TTTTTTTTTTTTTTTTTTTTTTTTTTTTTT SDIK        TELAPSE       19.78 TCPU       47.55

 AAAAAAAAAAAAAAAAAAAAAAAAAAAAAAAAAAAAAAAAAAAAAAAAAAAAAAAAAAAAAAAAAAAAAAAAAAAAAAA
         ATOMIC WAVEFUNCTION(S)


 NUCLEAR CHARGE  5.0  SYMMETRY SPECIES            S    P
 N. ELECTRONS    5.0  NUMBER OF PRIMITIVE GTOS    8    4
                      NUMBER OF CONTRACTED GTOS   4    2
                      NUMBER OF CLOSED SHELLS     2    0
                      OPEN SHELL OCCUPATION       0    1

  ZNUC  SCFIT    TOTAL HF ENERGY   KINETIC ENERGY   VIRIAL THEOREM ACCURACY
   5.0    11    -2.451164084E+01  2.462155050E+01 -1.995536038E+00  1.5E-06

 NUCLEAR CHARGE  1.0  SYMMETRY SPECIES            S
 N. ELECTRONS    1.0  NUMBER OF PRIMITIVE GTOS    4
                      NUMBER OF CONTRACTED GTOS   2
                      NUMBER OF CLOSED SHELLS     0
                      OPEN SHELL OCCUPATION       1

  ZNUC  SCFIT    TOTAL HF ENERGY   KINETIC ENERGY   VIRIAL THEOREM ACCURACY
   1.0     1    -4.977266687E-01  5.190767460E-01 -1.958869132E+00  0.0E+00

 NUCLEAR CHARGE  6.0  SYMMETRY SPECIES            S    P
 N. ELECTRONS    6.0  NUMBER OF PRIMITIVE GTOS    8    4
                      NUMBER OF CONTRACTED GTOS   4    2
                      NUMBER OF CLOSED SHELLS     2    0
                      OPEN SHELL OCCUPATION       0    2

  ZNUC  SCFIT    TOTAL HF ENERGY   KINETIC ENERGY   VIRIAL THEOREM ACCURACY
   6.0     9    -3.766704647E+01  3.775180683E+01 -1.997754800E+00  1.1E-06

 NUCLEAR CHARGE  8.0  SYMMETRY SPECIES            S    P
 N. ELECTRONS    8.0  NUMBER OF PRIMITIVE GTOS    8    4
                      NUMBER OF CONTRACTED GTOS   4    2
                      NUMBER OF CLOSED SHELLS     2    0
                      OPEN SHELL OCCUPATION       0    4

  ZNUC  SCFIT    TOTAL HF ENERGY   KINETIC ENERGY   VIRIAL THEOREM ACCURACY
   8.0    12    -7.477373220E+01  7.477365593E+01 -2.000001020E+00  3.8E-06

 AAAAAAAAAAAAAAAAAAAAAAAAAAAAAAAAAAAAAAAAAAAAAAAAAAAAAAAAAAAAAAAAAAAAAAAAAAAAAAA

 CHARGE NORMALIZATION FACTOR   1.00000000
 TOTAL ATOMIC CHARGES:
   5.0000000   5.0000000   5.0000000   5.0000000   5.0000000   5.0000000
   5.0000000   5.0000000   5.0000000   5.0000000   5.0000000   5.0000000
   1.0000000   1.0000000   1.0000000   1.0000000   1.0000000   1.0000000
   1.0000000   1.0000000   1.0000000   1.0000000   1.0000000   1.0000000
   1.0000000   1.0000000   1.0000000   1.0000000   1.0000000   1.0000000
   1.0000000   1.0000000   1.0000000   1.0000000   1.0000000   1.0000000
   6.0000000   6.0000000   6.0000000   6.0000000   6.0000000   6.0000000
   6.0000000   6.0000000   6.0000000   6.0000000   6.0000000   6.0000000
   6.0000000   6.0000000   6.0000000   6.0000000   6.0000000   6.0000000
   6.0000000   6.0000000   6.0000000   6.0000000   6.0000000   6.0000000
   6.0000000   6.0000000   6.0000000   6.0000000   6.0000000   6.0000000
   6.0000000   6.0000000   6.0000000   6.0000000   6.0000000   6.0000000
   8.0000000   8.0000000   8.0000000   8.0000000   8.0000000   8.0000000
   8.0000000   8.0000000   8.0000000   8.0000000   8.0000000   8.0000000
 TTTTTTTTTTTTTTTTTTTTTTTTTTTTTT MOQGAD      TELAPSE       19.86 TCPU       50.11
 TTTTTTTTTTTTTTTTTTTTTTTTTTTTTT SHELLXN     TELAPSE       29.58 TCPU      360.75
 TTTTTTTTTTTTTTTTTTTTTTTTTTTTTT MONMO3      TELAPSE       30.05 TCPU      375.83
 NUMERICALLY INTEGRATED DENSITY    395.9998932203
 TTTTTTTTTTTTTTTTTTTTTTTTTTTTTT NUMDFT      TELAPSE       31.36 TCPU      417.57
 CYC   0 ETOT(AU) -2.591907900757E+03 DETOT -2.59E+03 tst  0.00E+00 PX  1.00E+00
 TTTTTTTTTTTTTTTTTTTTTTTTTTTTTT DIIS        TELAPSE       31.48 TCPU      421.35
 TTTTTTTTTTTTTTTTTTTTTTTTTTTTTT FDIK        TELAPSE       33.50 TCPU      486.02
 INSULATING STATE
 TOP OF VALENCE BANDS -    BAND    198; K    2; EIG -3.1404913E-01 AU
 TOP OF VALENCE BANDS -    BAND    198; K    1; EIG -3.1410868E-01 AU
 BOTTOM OF VIRTUAL BANDS - BAND    199; K    1; EIG -1.5620095E-01 AU
 INDIRECT ENERGY BAND GAP:   4.2953 eV
 TTTTTTTTTTTTTTTTTTTTTTTTTTTTTT PDIG        TELAPSE       34.99 TCPU      492.91
 CHARGE NORMALIZATION FACTOR   1.00000000
 TOTAL ATOMIC CHARGES:
   4.1629928   4.1661564   4.1628288   4.1659885   4.1630604   4.1662347
   4.1658198   4.1626528   4.1655937   4.1624203   4.1657660   4.1625973
   0.7852037   0.7850514   0.7851666   0.7853195   0.7851636   0.7850094
   0.7851290   0.7852815   0.7851842   0.7850306   0.7851963   0.7853496
   0.7851741   0.7850203   0.7851593   0.7853124   0.7851658   0.7850118
   0.7851938   0.7853472   0.7851555   0.7850038   0.7851602   0.7853125
   6.0436552   6.0430096   6.2654586   6.2649791   6.2649437   6.2654264
   6.2654045   6.2649251   6.2648686   6.2653477   6.0422881   6.0429322
   6.0437099   6.0430631   6.2654401   6.2649578   6.2650356   6.2655194
   6.2653498   6.2648650   6.2650501   6.2655397   6.0418656   6.0425039
   6.0440171   6.0433659   6.2651763   6.2646937   6.2652376   6.2657257
   6.2650919   6.2646051   6.2652181   6.2657070   6.0418251   6.0424700
   8.6927592   8.6907751   8.6928696   8.6908839   8.6928149   8.6908271
   8.6912037   8.6931882   8.6912329   8.6932176   8.6913800   8.6933619
 TTTTTTTTTTTTTTTTTTTTTTTTTTTTTT MOQGAD      TELAPSE       35.07 TCPU      492.99
 TTTTTTTTTTTTTTTTTTTTTTTTTTTTTT SHELLXN     TELAPSE       45.22 TCPU      816.32
 TTTTTTTTTTTTTTTTTTTTTTTTTTTTTT MONMO3      TELAPSE       45.69 TCPU      831.48
 NUMERICALLY INTEGRATED DENSITY    395.9999608223
 TTTTTTTTTTTTTTTTTTTTTTTTTTTTTT NUMDFT      TELAPSE       47.02 TCPU      873.84
 CYC   1 ETOT(AU) -2.577617999965E+03 DETOT  1.43E+01 tst  0.00E+00 PX  1.00E+00
 TTTTTTTTTTTTTTTTTTTTTTTTTTTTTT DIIS        TELAPSE       47.17 TCPU      878.50
 DIIS TEST: 0.22353E+01 AT SCF   CYCLE   1 - MIX   30 %
 TTTTTTTTTTTTTTTTTTTTTTTTTTTTTT FDIK        TELAPSE       49.24 TCPU      944.72
 INSULATING STATE
 TOP OF VALENCE BANDS -    BAND    198; K    2; EIG -2.2597843E-01 AU
 TOP OF VALENCE BANDS -    BAND    198; K    1; EIG -2.2608159E-01 AU
 BOTTOM OF VIRTUAL BANDS - BAND    199; K    1; EIG -7.9739548E-02 AU
 INDIRECT ENERGY BAND GAP:   3.9794 eV
 TTTTTTTTTTTTTTTTTTTTTTTTTTTTTT PDIG        TELAPSE       50.74 TCPU      951.62
 CHARGE NORMALIZATION FACTOR   1.00000000
 TOTAL ATOMIC CHARGES:
   4.7135548   4.7144535   4.7134605   4.7143821   4.7134841   4.7143876
   4.7144783   4.7134065   4.7144543   4.7134308   4.7144891   4.7134939
   0.9055804   0.9115998   0.9115770   0.9056499   0.9055479   0.9115666
   0.9115273   0.9055815   0.9055815   0.9115992   0.9115836   0.9056424
   0.9055487   0.9115799   0.9115640   0.9056128   0.9055479   0.9115583
   0.9116083   0.9056589   0.9055303   0.9115415   0.9115924   0.9056587
   5.8668027   5.8751970   6.1256412   6.1381106   6.1385592   6.1260630
   6.1254457   6.1379604   6.1385049   6.1260645   5.8777250   5.8692309
   5.8666606   5.8750393   6.1253284   6.1378498   6.1385552   6.1260359
   6.1255245   6.1380889   6.1383858   6.1259181   5.8782117   5.8696643
   5.8667446   5.8751572   6.1255308   6.1380195   6.1383389   6.1258976
   6.1258043   6.1383230   6.1382934   6.1258316   5.8779182   5.8693764
   8.3312830   8.3335597   8.3316533   8.3339214   8.3316237   8.3338685
   8.3333960   8.3311424   8.3335876   8.3313360   8.3337783   8.3315325
 TTTTTTTTTTTTTTTTTTTTTTTTTTTTTT MOQGAD      TELAPSE       50.82 TCPU      951.70
 TTTTTTTTTTTTTTTTTTTTTTTTTTTTTT SHELLXN     TELAPSE       60.96 TCPU     1274.56
 TTTTTTTTTTTTTTTTTTTTTTTTTTTTTT MONMO3      TELAPSE       61.43 TCPU     1289.67
 NUMERICALLY INTEGRATED DENSITY    395.9999389310
 TTTTTTTTTTTTTTTTTTTTTTTTTTTTTT NUMDFT      TELAPSE       62.76 TCPU     1332.06
 CYC   2 ETOT(AU) -2.578008606166E+03 DETOT -3.91E-01 tst  3.12E-03 PX  1.59E-01
 TTTTTTTTTTTTTTTTTTTTTTTTTTTTTT DIIS        TELAPSE       62.93 TCPU     1337.48
 DIIS TEST: 0.92697E+00 AT SCF   CYCLE   2 - DIIS ACTIVE - HISTORY:     2 CYCLES
 TTTTTTTTTTTTTTTTTTTTTTTTTTTTTT FDIK        TELAPSE       64.99 TCPU     1403.30
 INSULATING STATE
 TOP OF VALENCE BANDS -    BAND    198; K    2; EIG -2.3948937E-01 AU
 TOP OF VALENCE BANDS -    BAND    198; K    1; EIG -2.3956395E-01 AU
 BOTTOM OF VIRTUAL BANDS - BAND    199; K    1; EIG -7.4910825E-02 AU
 INDIRECT ENERGY BAND GAP:   4.4784 eV
 TTTTTTTTTTTTTTTTTTTTTTTTTTTTTT PDIG        TELAPSE       66.48 TCPU     1410.20
 CHARGE NORMALIZATION FACTOR   1.00000000
 TOTAL ATOMIC CHARGES:
   4.5049278   4.5081476   4.5047746   4.5080292   4.5049094   4.5081351
   4.5079101   4.5047597   4.5077477   4.5046410   4.5077987   4.5047203
   0.8839279   0.8891540   0.8893511   0.8840370   0.8838864   0.8891057
   0.8893051   0.8839745   0.8838705   0.8891049   0.8893806   0.8840608
   0.8838879   0.8891355   0.8893154   0.8839783   0.8838884   0.8891136
   0.8893549   0.8840317   0.8839237   0.8891464   0.8893127   0.8840027
   5.8971883   5.8820310   6.1632162   6.1587333   6.1584993   6.1628649
   6.1630471   6.1586547   6.1583538   6.1627970   5.8816009   5.8969660
   5.8973808   5.8821666   6.1631414   6.1587506   6.1584703   6.1628164
   6.1631369   6.1587376   6.1583550   6.1627663   5.8814339   5.8967440
   5.8974596   5.8823270   6.1629869   6.1585602   6.1584936   6.1629308
   6.1631141   6.1586291   6.1585148   6.1629250   5.8813183   5.8966239
   8.5101549   8.5083392   8.5103272   8.5085241   8.5102994   8.5084959
   8.5085852   8.5103655   8.5086693   8.5104293   8.5087944   8.5105294
 TTTTTTTTTTTTTTTTTTTTTTTTTTTTTT MOQGAD      TELAPSE       66.56 TCPU     1410.28
 TTTTTTTTTTTTTTTTTTTTTTTTTTTTTT SHELLXN     TELAPSE       76.70 TCPU     1733.16
 TTTTTTTTTTTTTTTTTTTTTTTTTTTTTT MONMO3      TELAPSE       77.17 TCPU     1748.28
 NUMERICALLY INTEGRATED DENSITY    395.9999448215
 TTTTTTTTTTTTTTTTTTTTTTTTTTTTTT NUMDFT      TELAPSE       78.50 TCPU     1790.71
 CYC   3 ETOT(AU) -2.578199848116E+03 DETOT -1.91E-01 tst  6.39E-04 PX  6.32E-02
 TTTTTTTTTTTTTTTTTTTTTTTTTTTTTT DIIS        TELAPSE       78.69 TCPU     1796.82
 DIIS TEST: 0.26838E-01 AT SCF   CYCLE   3 - DIIS ACTIVE - HISTORY:     3 CYCLES
 TTTTTTTTTTTTTTTTTTTTTTTTTTTTTT FDIK        TELAPSE       80.75 TCPU     1862.70
 INSULATING STATE
 TOP OF VALENCE BANDS -    BAND    198; K    2; EIG -2.4847947E-01 AU
 TOP OF VALENCE BANDS -    BAND    198; K    1; EIG -2.4855815E-01 AU
 BOTTOM OF VIRTUAL BANDS - BAND    199; K    1; EIG -8.2771668E-02 AU
 INDIRECT ENERGY BAND GAP:   4.5091 eV
 TTTTTTTTTTTTTTTTTTTTTTTTTTTTTT PDIG        TELAPSE       82.25 TCPU     1869.60
 CHARGE NORMALIZATION FACTOR   1.00000000
 TOTAL ATOMIC CHARGES:
   4.5110608   4.5112609   4.5109216   4.5111571   4.5110531   4.5112621
   4.5110842   4.5107789   4.5109235   4.5106734   4.5109883   4.5107709
   0.8687558   0.8716590   0.8716827   0.8688390   0.8687197   0.8716152
   0.8716239   0.8687632   0.8687422   0.8716434   0.8716902   0.8688291
   0.8687403   0.8716528   0.8716357   0.8687628   0.8687349   0.8716234
   0.8716877   0.8688173   0.8687540   0.8716375   0.8716553   0.8688051
   5.9314015   5.9473605   6.1597498   6.1715060   6.1718757   6.1601345
   6.1595547   6.1714008   6.1718070   6.1601457   5.9491222   5.9329036
   5.9312523   5.9472002   6.1595201   6.1713429   6.1719698   6.1601839
   6.1595052   6.1714106   6.1718339   6.1601413   5.9493942   5.9331172
   5.9314125   5.9474184   6.1595088   6.1712894   6.1718819   6.1602049
   6.1596155   6.1714393   6.1718900   6.1602109   5.9491271   5.9328590
   8.4764130   8.4769641   8.4767024   8.4772245   8.4766672   8.4771706
   8.4769695   8.4764603   8.4771002   8.4765806   8.4772804   8.4767714
 TTTTTTTTTTTTTTTTTTTTTTTTTTTTTT MOQGAD      TELAPSE       82.33 TCPU     1869.68
 TTTTTTTTTTTTTTTTTTTTTTTTTTTTTT SHELLXN     TELAPSE       92.45 TCPU     2191.71
 TTTTTTTTTTTTTTTTTTTTTTTTTTTTTT MONMO3      TELAPSE       92.92 TCPU     2206.80
 NUMERICALLY INTEGRATED DENSITY    395.9999451891
 TTTTTTTTTTTTTTTTTTTTTTTTTTTTTT NUMDFT      TELAPSE       94.25 TCPU     2249.29
 CYC   4 ETOT(AU) -2.578205251045E+03 DETOT -5.40E-03 tst  2.50E-05 PX  1.53E-02
 TTTTTTTTTTTTTTTTTTTTTTTTTTTTTT DIIS        TELAPSE       94.49 TCPU     2256.24
 DIIS TEST: 0.88002E-02 AT SCF   CYCLE   4 - DIIS ACTIVE - HISTORY:     4 CYCLES
 TTTTTTTTTTTTTTTTTTTTTTTTTTTTTT FDIK        TELAPSE       96.56 TCPU     2322.00
 INSULATING STATE
 TOP OF VALENCE BANDS -    BAND    198; K    2; EIG -2.4705907E-01 AU
 TOP OF VALENCE BANDS -    BAND    198; K    1; EIG -2.4713405E-01 AU
 BOTTOM OF VIRTUAL BANDS - BAND    199; K    1; EIG -8.3004948E-02 AU
 INDIRECT ENERGY BAND GAP:   4.4641 eV
 TTTTTTTTTTTTTTTTTTTTTTTTTTTTTT PDIG        TELAPSE       98.05 TCPU     2328.89
 CHARGE NORMALIZATION FACTOR   1.00000000
 TOTAL ATOMIC CHARGES:
   4.5134770   4.5147097   4.5133365   4.5146027   4.5134654   4.5147028
   4.5145774   4.5133362   4.5144278   4.5132397   4.5144834   4.5133242
   0.8702465   0.8750212   0.8751665   0.8703616   0.8702048   0.8749722
   0.8751168   0.8702969   0.8702045   0.8749834   0.8751935   0.8703778
   0.8702040   0.8749985   0.8751382   0.8703081   0.8702086   0.8749756
   0.8751793   0.8703597   0.8702284   0.8749943   0.8751459   0.8703421
   5.9280279   5.9164380   6.1664120   6.1659866   6.1659088   6.1662322
   6.1662347   6.1659035   6.1657903   6.1661958   5.9166031   5.9283005
   5.9281540   5.9165122   6.1662823   6.1659535   6.1658877   6.1661854
   6.1663114   6.1659857   6.1657495   6.1661227   5.9165838   5.9282301
   5.9282200   5.9166590   6.1661986   6.1658338   6.1658608   6.1662577
   6.1663639   6.1659528   6.1658647   6.1662408   5.9164225   5.9280658
   8.4862218   8.4857776   8.4864336   8.4860016   8.4863986   8.4859599
   8.4859055   8.4863250   8.4860165   8.4864197   8.4861570   8.4865403
 TTTTTTTTTTTTTTTTTTTTTTTTTTTTTT MOQGAD      TELAPSE       98.13 TCPU     2328.97
 TTTTTTTTTTTTTTTTTTTTTTTTTTTTTT SHELLXN     TELAPSE      108.24 TCPU     2650.57
 TTTTTTTTTTTTTTTTTTTTTTTTTTTTTT MONMO3      TELAPSE      108.71 TCPU     2665.72
 NUMERICALLY INTEGRATED DENSITY    395.9999454419
 TTTTTTTTTTTTTTTTTTTTTTTTTTTTTT NUMDFT      TELAPSE      110.03 TCPU     2707.94
 CYC   5 ETOT(AU) -2.578207192838E+03 DETOT -1.94E-03 tst  8.57E-06 PX  8.19E-03
 TTTTTTTTTTTTTTTTTTTTTTTTTTTTTT DIIS        TELAPSE      110.26 TCPU     2714.83
 DIIS TEST: 0.66891E-03 AT SCF   CYCLE   5 - DIIS ACTIVE - HISTORY:     5 CYCLES
 TTTTTTTTTTTTTTTTTTTTTTTTTTTTTT FDIK        TELAPSE      112.32 TCPU     2780.20
 INSULATING STATE
 TOP OF VALENCE BANDS -    BAND    198; K    2; EIG -2.4669768E-01 AU
 TOP OF VALENCE BANDS -    BAND    198; K    1; EIG -2.4677364E-01 AU
 BOTTOM OF VIRTUAL BANDS - BAND    199; K    1; EIG -8.2243620E-02 AU
 INDIRECT ENERGY BAND GAP:   4.4750 eV
 TTTTTTTTTTTTTTTTTTTTTTTTTTTTTT PDIG        TELAPSE      113.81 TCPU     2787.10
 CHARGE NORMALIZATION FACTOR   1.00000000
 TOTAL ATOMIC CHARGES:
   4.5126911   4.5146291   4.5125470   4.5145218   4.5126781   4.5146235
   4.5144353   4.5124414   4.5142810   4.5123421   4.5143386   4.5124307
   0.8717159   0.8758218   0.8759029   0.8718142   0.8716775   0.8757758
   0.8758505   0.8717450   0.8716863   0.8757935   0.8759196   0.8718157
   0.8716894   0.8758087   0.8758623   0.8717456   0.8716877   0.8757824
   0.8759105   0.8717999   0.8717115   0.8758021   0.8758743   0.8717824
   5.9153053   5.9238999   6.1623595   6.1697650   6.1699292   6.1624828
   6.1621701   6.1696683   6.1698228   6.1624585   5.9248729   5.9161838
   5.9152797   5.9238478   6.1621831   6.1696650   6.1699733   6.1624926
   6.1621653   6.1697060   6.1698478   6.1624481   5.9249929   5.9162443
   5.9154061   5.9240432   6.1621221   6.1695638   6.1699208   6.1625447
   6.1622310   6.1696863   6.1699448   6.1625536   5.9247769   5.9160318
   8.4865370   8.4864923   8.4867887   8.4867246   8.4867583   8.4866822
   8.4865933   8.4866592   8.4867042   8.4867551   8.4868657   8.4869151
 TTTTTTTTTTTTTTTTTTTTTTTTTTTTTT MOQGAD      TELAPSE      113.89 TCPU     2787.18
 TTTTTTTTTTTTTTTTTTTTTTTTTTTTTT SHELLXN     TELAPSE      124.00 TCPU     3109.03
 TTTTTTTTTTTTTTTTTTTTTTTTTTTTTT MONMO3      TELAPSE      124.47 TCPU     3124.10
 NUMERICALLY INTEGRATED DENSITY    395.9999452605
 TTTTTTTTTTTTTTTTTTTTTTTTTTTTTT NUMDFT      TELAPSE      125.80 TCPU     3166.57
 CYC   6 ETOT(AU) -2.578207247240E+03 DETOT -5.44E-05 tst  4.87E-06 PX  3.14E-03
 TTTTTTTTTTTTTTTTTTTTTTTTTTTTTT DIIS        TELAPSE      126.08 TCPU     3173.58
 DIIS TEST: 0.50725E-03 AT SCF   CYCLE   6 - DIIS ACTIVE - HISTORY:     6 CYCLES
 TTTTTTTTTTTTTTTTTTTTTTTTTTTTTT FDIK        TELAPSE      128.14 TCPU     3239.22
 INSULATING STATE
 TOP OF VALENCE BANDS -    BAND    198; K    2; EIG -2.4678174E-01 AU
 TOP OF VALENCE BANDS -    BAND    198; K    1; EIG -2.4685780E-01 AU
 BOTTOM OF VIRTUAL BANDS - BAND    199; K    1; EIG -8.2303093E-02 AU
 INDIRECT ENERGY BAND GAP:   4.4757 eV
 TTTTTTTTTTTTTTTTTTTTTTTTTTTTTT PDIG        TELAPSE      129.64 TCPU     3246.12
 CHARGE NORMALIZATION FACTOR   1.00000000
 TOTAL ATOMIC CHARGES:
   4.5129658   4.5146083   4.5128223   4.5145001   4.5129531   4.5146020
   4.5144317   4.5127505   4.5142782   4.5126508   4.5143357   4.5127389
   0.8715513   0.8759755   0.8760766   0.8716519   0.8715124   0.8759291
   0.8760243   0.8715837   0.8715182   0.8759451   0.8760954   0.8716579
   0.8715199   0.8759604   0.8760394   0.8715880   0.8715205   0.8759353
   0.8760845   0.8716414   0.8715423   0.8759543   0.8760503   0.8716244
   5.9216878   5.9202722   6.1639084   6.1674782   6.1675689   6.1639425
   6.1637214   6.1673836   6.1674625   6.1639178   5.9210211   5.9224061
   5.9217090   5.9202572   6.1637431   6.1673976   6.1675962   6.1639364
   6.1637478   6.1674356   6.1674621   6.1638834   5.9210981   5.9224290
   5.9218188   5.9204401   6.1636754   6.1672904   6.1675523   6.1639953
   6.1638108   6.1674135   6.1675629   6.1639910   5.9208969   5.9222287
   8.4860760   8.4857600   8.4863135   8.4859921   8.4862804   8.4859482
   8.4858648   8.4861829   8.4859785   8.4862814   8.4861328   8.4864277
 TTTTTTTTTTTTTTTTTTTTTTTTTTTTTT MOQGAD      TELAPSE      129.72 TCPU     3246.20
 TTTTTTTTTTTTTTTTTTTTTTTTTTTTTT SHELLXN     TELAPSE      139.83 TCPU     3567.92
 TTTTTTTTTTTTTTTTTTTTTTTTTTTTTT MONMO3      TELAPSE      140.31 TCPU     3583.15
 NUMERICALLY INTEGRATED DENSITY    395.9999452855
 TTTTTTTTTTTTTTTTTTTTTTTTTTTTTT NUMDFT      TELAPSE      141.63 TCPU     3625.59
 CYC   7 ETOT(AU) -2.578207386448E+03 DETOT -1.39E-04 tst  1.21E-06 PX  1.49E-03
 TTTTTTTTTTTTTTTTTTTTTTTTTTTTTT DIIS        TELAPSE      141.92 TCPU     3632.59
 DIIS TEST: 0.16835E-05 AT SCF   CYCLE   7 - DIIS ACTIVE - HISTORY:     7 CYCLES
 TTTTTTTTTTTTTTTTTTTTTTTTTTTTTT FDIK        TELAPSE      143.98 TCPU     3698.15
 INSULATING STATE
 TOP OF VALENCE BANDS -    BAND    198; K    2; EIG -2.4676699E-01 AU
 TOP OF VALENCE BANDS -    BAND    198; K    1; EIG -2.4684284E-01 AU
 BOTTOM OF VIRTUAL BANDS - BAND    199; K    1; EIG -8.2341657E-02 AU
 INDIRECT ENERGY BAND GAP:   4.4742 eV
 TTTTTTTTTTTTTTTTTTTTTTTTTTTTTT PDIG        TELAPSE      145.47 TCPU     3705.05
 CHARGE NORMALIZATION FACTOR   1.00000000
 TOTAL ATOMIC CHARGES:
   4.5131076   4.5146473   4.5129645   4.5145397   4.5130948   4.5146408
   4.5144829   4.5129146   4.5143306   4.5128165   4.5143871   4.5129031
   0.8715331   0.8759244   0.8760386   0.8716388   0.8714931   0.8758770
   0.8759874   0.8715716   0.8714970   0.8758914   0.8760604   0.8716477
   0.8714990   0.8759068   0.8760039   0.8715774   0.8715001   0.8758822
   0.8760485   0.8716305   0.8715224   0.8759016   0.8760137   0.8716128
   5.9216172   5.9205669   6.1638032   6.1675010   6.1675395   6.1637709
   6.1636199   6.1674117   6.1674279   6.1637414   5.9211337   5.9221900
   5.9216678   5.9205786   6.1636508   6.1674350   6.1675507   6.1637516
   6.1636566   6.1674729   6.1674185   6.1636975   5.9211843   5.9221851
   5.9217639   5.9207496   6.1635786   6.1673246   6.1675110   6.1638140
   6.1637162   6.1674468   6.1675243   6.1638090   5.9209953   5.9219965
   8.4861154   8.4858666   8.4863478   8.4860953   8.4863146   8.4860529
   8.4859784   8.4862243   8.4860902   8.4863208   8.4862413   8.4864608
 TTTTTTTTTTTTTTTTTTTTTTTTTTTTTT MOQGAD      TELAPSE      145.56 TCPU     3705.13
 TTTTTTTTTTTTTTTTTTTTTTTTTTTTTT SHELLXN     TELAPSE      155.66 TCPU     4026.78
 TTTTTTTTTTTTTTTTTTTTTTTTTTTTTT MONMO3      TELAPSE      156.14 TCPU     4041.98
 NUMERICALLY INTEGRATED DENSITY    395.9999452881
 TTTTTTTTTTTTTTTTTTTTTTTTTTTTTT NUMDFT      TELAPSE      157.47 TCPU     4084.53
 CYC   8 ETOT(AU) -2.578207386090E+03 DETOT  3.58E-07 tst  2.31E-09 PX  7.58E-05
 TTTTTTTTTTTTTTTTTTTTTTTTTTTTTT DIIS        TELAPSE      157.79 TCPU     4091.62
 DIIS TEST: 0.13919E-06 AT SCF   CYCLE   8 - DIIS ACTIVE - HISTORY:     8 CYCLES
 TTTTTTTTTTTTTTTTTTTTTTTTTTTTTT FDIK        TELAPSE      159.87 TCPU     4157.76
 INSULATING STATE
 TOP OF VALENCE BANDS -    BAND    198; K    2; EIG -2.4677793E-01 AU
 TOP OF VALENCE BANDS -    BAND    198; K    1; EIG -2.4685386E-01 AU
 BOTTOM OF VIRTUAL BANDS - BAND    199; K    1; EIG -8.2334237E-02 AU
 INDIRECT ENERGY BAND GAP:   4.4747 eV
 TTTTTTTTTTTTTTTTTTTTTTTTTTTTTT PDIG        TELAPSE      161.37 TCPU     4164.65
 CHARGE NORMALIZATION FACTOR   1.00000000
 TOTAL ATOMIC CHARGES:
   4.5130762   4.5146750   4.5129332   4.5145674   4.5130637   4.5146689
   4.5144991   4.5128599   4.5143460   4.5127609   4.5144032   4.5128486
   0.8715174   0.8759194   0.8760198   0.8716183   0.8714783   0.8758729
   0.8759677   0.8715502   0.8714843   0.8758888   0.8760389   0.8716242
   0.8714860   0.8759042   0.8759827   0.8715542   0.8714865   0.8758789
   0.8760280   0.8716078   0.8715086   0.8758981   0.8759935   0.8715905
   5.9214822   5.9203813   6.1638519   6.1675265   6.1676199   6.1638883
   6.1636655   6.1674323   6.1675127   6.1638629   5.9211298   5.9221993
   5.9215031   5.9203661   6.1636868   6.1674462   6.1676463   6.1638818
   6.1636901   6.1674833   6.1675138   6.1638304   5.9212075   5.9222228
   5.9216120   5.9205482   6.1636198   6.1673396   6.1676017   6.1639400
   6.1637531   6.1674614   6.1676148   6.1639380   5.9210068   5.9220229
   8.4861164   8.4858297   8.4863545   8.4860616   8.4863219   8.4860182
   8.4859358   8.4862258   8.4860486   8.4863233   8.4862032   8.4864703
 TTTTTTTTTTTTTTTTTTTTTTTTTTTTTT MOQGAD      TELAPSE      161.45 TCPU     4164.73
 TTTTTTTTTTTTTTTTTTTTTTTTTTTTTT SHELLXN     TELAPSE      171.54 TCPU     4486.02
 +++ ENERGIES IN A.U. +++
 ::: EXT EL-POLE                                  -2.3946145775732E+03
 ::: EXT EL-SPHEROPOLE                             2.5964610863128E+01
 ::: BIELET ZONE E-E                               3.8579132158220E+03
 ::: TOTAL E-E                                     1.4892632491120E+03
 ::: TOTAL E-N + N-E                              -6.6431045601640E+03
 ::: TOTAL N-N                                     2.8315921572196E+02
 ::: KINETIC ENERGY                                2.5599194446989E+03
 ::: PSEUDO TOTAL   ENERGY                        -2.3107626506312E+03
 ::: VIRIAL COEFFICIENT                            1.0511543946394E+00
 TTTTTTTTTTTTTTTTTTTTTTTTTTTTTT MONMO3      TELAPSE      172.02 TCPU     4501.09
 NUMERICALLY INTEGRATED DENSITY    395.9999452863
 EXCHANGE ENERGY: -0.252065104564E+03  CORRELATION ENERGY: -0.153796311229E+02
 TTTTTTTTTTTTTTTTTTTTTTTTTTTTTT NUMDFT      TELAPSE      173.35 TCPU     4543.62
 CYC   9 ETOT(AU) -2.578207386318E+03 DETOT -2.28E-07 tst  3.47E-10 PX  7.58E-05

 == SCF ENDED - CONVERGENCE ON ENERGY      E(AU) -2.5782073863177E+03 CYCLES   9


 ENERGY EXPRESSION=HARTREE+FOCK EXCH*0.00000+(HSESOL     EXCH)*1.00000+PBESOL     CORR


 TOTAL ENERGY(DFT)(AU)(  9) -2.5782073863177E+03 DE-2.3E-07 tester 3.5E-10
 TTTTTTTTTTTTTTTTTTTTTTTTTTTTTT EDFT        TELAPSE      173.35 TCPU     4543.64
 
 INFORMATION **** DFTD3 ENERGY **** CALCULATE DFTD3 ENERGY

           DFT-D V3(BJ)
 DF                                         hsesol3c  
 parameters
 s6       :    1.0000
 s8       :    0.0000
 a1       :    0.5196
 a2       :    4.9385
 k1 k3    :   16.0000   -4.0000
 Cutoff   :   50.2022
 CN-Cutoff:   21.1671
 ABC-Cutoff:   21.1671
 
 Edisp /kcal,au:   -42.4343 -0.06762340

 E6    /kcal :   -44.3877
 E8    /kcal :     0.0000
 E6(ABC) "   :   1.953329
 
 INFORMATION **** DFTD3 ENERGY **** NORMAL TERMINATION OF DFTD3 MODULE

 GCP ENERGY CALCULATION
  level        hsesol3c            basis:hsesol3c
  Nbf            948
  Atoms           84

  Parameters: 
  sigma     1.0000
  eta       1.4281
  alpha     0.2936
  beta      1.9467

  dmp_scal      4.0000
  dmp_exp       6.0000
 cutoffs: 
   distance [bohr] 60.0
   noise    [a.u.] 2.2E-16
 SR-damping   T
 ** gCP correction **
  Egcp:        0.1658404373 / (a.u.) ||     104.0665 / (kcal/mol)
 INFORMATION **** GCP **** NORMAL TERMINATION OF GCP MODULE

 *******************************************************************************

 DFT-D3-GCP DISPERSION AND COUNTERPOISE CORRECTION

 D3 DISPERSION ENERGY (AU)      -6.7623398622018E-02
 GCP ENERGY (AU)                 1.6584043727353E-01
 TOTAL ENERGY + DISP + GCP (AU) -2.5781091692791E+03

 *******************************************************************************

 EIGENVECTORS IN FORTRAN UNIT 10
 TTTTTTTTTTTTTTTTTTTTTTTTTTTTTT END         TELAPSE      175.62 TCPU     4551.90
 EEEEEEEEEE TERMINATION  DATE 19 02 2026 TIME 20:32:04.1
