 Default number of threads is:           32

         
 *******************************************************************************
 *                                                                             *
 *                               CRYSTAL23                                     *
 *                      public : 1.0.1 - October 2022                          *
 *                       HTTP://WWW.CRYSTAL.UNITO.IT                           *
 *                                                                             *
 *                              MAIN AUTHORS                                   *
 *                                                                             *
 *  R. DOVESI(1,11), V.R. SAUNDERS(2), C. ROETTI(1,11), R. ORLANDO(1,11),      *
 *  C.M. ZICOVICH-WILSON(1,3), F. PASCALE(4), B. CIVALLERI(1,11),              *
 *  K. DOLL(5), N.M. HARRISON(6), I.J. BUSH(7), Ph. D'ARCO(8),                 *
 *  M. LLUNELL(9), M. CAUSA'(10), Y. NOEL(8), L. MASCHIO(1,11), A. ERBA(1,11)  *
 *  M. RE'RAT(14), S. CASASSA(1,11), B.G. SEARLE(2), J.K. DESMARAIS(1)         *
 *                                                                             *
 *        CONTRIBUTIONS TO THE CODE HAVE ALSO BEEN GIVEN BY                    *
 *                                                                             *
 *  M. FERRABONE(1,11), M. DE LA PIERRE(1,11), M. FERRERO(1,11),               *
 *  J. BAIMA(1,11), E. ALBANESE(1,11), M.F. PEINTINGER(12), R. BAST(13),       *
 *  B. KIRTMAN(15), V. LACIVITA(1,11), R. DEMICHELIS(1,16)                     *
 *  G. BRANDEBURG(17), S. SALUSTRO(1,11), G. SANSONE(1,11)                     *
 *  M.T. RUGGIERO(18), L.E. DAGA(1), L. DONA'(1), A. COSSARD(1)                *
 *                                                                             *
 * (1) THEORETICAL CHEMISTRY GROUP - UNIVERSITA' DI TORINO - TORINO (ITALY)    *
 * (2) SCIENTIFIC COMPUTING DEPARTMENT - STFC DARESBURY (UK)                   *
 * (3) UNIVERSIDAD AUTONOMA DEL ESTADO DE MORELOS - CUERNAVACA (MEXICO)        *
 * (4) UNIVERSITE' DE LORRAINE - NANCY (FRANCE)                                *
 * (5) UNIVERSITAET STUTTGART- STUTTGART (GERMANY)                             *
 * (6) IMPERIAL COLLEGE - LONDON (UK)                                          *
 * (7) SCIENTIFIC COMPUTING DEPARTMENT - STFC RAL (UK)                         *
 * (8) UPMC - SORBONNE UNIVERSITES - PARIS (FRANCE)                            *
 * (9) UNIVERSIDAD DE BARCELONA - BARCELONA (SPAIN)                            *
 *(10) UNIVERSITA' DI NAPOLI "FEDERICO II" - NAPOLI (ITALY)                    *
 *(11) NIS - NANOSTRUCTURED INTERFACES AND SURFACES - TORINO (ITALY)           *
 *(12) MPI FUER CHEMISCHE ENERGIEKONVERSION - MUELHEIM AN DER RUHR (GERMANY)   *
 *(13) UNIVERSITY OF TROMSO - TROMSO (NORWAY)                                  *
 *(14) UNIVERSITE' DE PAU ET DES PAYS DE L'ADOUR - PAU (FRANCE)                *
 *(15) UNIVERSITY OF CALIFORNIA SANTA BARBARA - SANTA BARBARA (USA)            *
 *(16) CURTIN UNIVERSITY - PERTH (AUSTRALIA)                                   *
 *(17) UNIVERSITY COLLEGE LONDON - LONDON (UK)                                 *
 *(18) UNIVERSITY OF VERMONT - BURLINGTON (USA)                                *
 *                                                                             *
 *******************************************************************************
 EEEEEEEEEE STARTING  DATE 19 02 2026 TIME 20:28:18.4
 cof-1_z44_L000_serr                                                             

 CRYSTAL CALCULATION
 (INPUT ACCORDING TO THE INTERNATIONAL TABLES FOR X-RAY CRYSTALLOGRAPHY)
 CRYSTAL FAMILY                       :  TRICLINIC   
 CRYSTAL CLASS  (GROTH - 1921)        :  TRICLINIC PEDIAL                     

 SPACE GROUP (NONCENTROSYMMETRIC)     :  P 1             

 LATTICE PARAMETERS  (ANGSTROMS AND DEGREES) - CONVENTIONAL CELL
        A           B           C        ALPHA        BETA       GAMMA
    15.02361    15.02392     8.80000    90.00032    89.99994   119.99596


 NUMBER OF IRREDUCIBLE ATOMS IN THE CONVENTIONAL CELL:   84

 INPUT COORDINATES

 ATOM AT. N.              COORDINATES
   1   5     6.136805400000E-01  2.273182200000E-01  2.505428100000E-01
   2   5     6.136805400000E-01  2.273182200000E-01  7.505428100000E-01
   3   5     7.727362000000E-01  3.863778800000E-01  2.505428100000E-01
   4   5     7.727362000000E-01  3.863778800000E-01  7.505428200000E-01
   5   5     6.136762700000E-01  3.863606700000E-01  2.494015500000E-01
   6   5     6.136762700000E-01  3.863606700000E-01  7.494015500000E-01
   7   5     2.272552500000E-01  6.136332200000E-01  2.505428100000E-01
   8   5     2.272552500000E-01  6.136332200000E-01  7.505428100000E-01
   9   5     3.863632200000E-01  6.136124500000E-01  2.505428100000E-01
  10   5     3.863632200000E-01  6.136124500000E-01  7.505428100000E-01
  11   5     3.863435000000E-01  7.727516500000E-01  2.494015500000E-01
  12   5     3.863435000000E-01  7.727516500000E-01  7.494015500000E-01
  13   1     9.030436200000E-01  3.089300500000E-01  2.481767300000E-01
  14   1     9.030436200000E-01  3.089300500000E-01  7.481767300000E-01
  15   1     9.663453000000E-02  6.910534400000E-01  2.478149100000E-01
  16   1     9.663453000000E-02  6.910534400000E-01  7.478149100000E-01
  17   1     9.029714200000E-01  5.940724300000E-01  2.477592300000E-01
  18   1     9.029714200000E-01  5.940724300000E-01  7.477592300000E-01
  19   1     9.673618000000E-02  4.056849400000E-01  2.477731200000E-01
  20   1     9.673618000000E-02  4.056849400000E-01  7.477731200000E-01
  21   1     6.910324000000E-01  9.700412000000E-02  2.518232900000E-01
  22   1     6.910324000000E-01  9.700412000000E-02  7.518232900000E-01
  23   1     3.089297200000E-01  9.034373100000E-01  2.521851300000E-01
  24   1     3.089297200000E-01  9.034373100000E-01  7.521851300000E-01
  25   1     4.058699900000E-01  9.704998000000E-02  2.522408400000E-01
  26   1     4.058699900000E-01  9.704998000000E-02  7.522408400000E-01
  27   1     5.943122100000E-01  9.033473200000E-01  2.522268600000E-01
  28   1     5.943122100000E-01  9.033473200000E-01  7.522268600000E-01
  29   1     6.910727400000E-01  5.940542100000E-01  2.481767500000E-01
  30   1     6.910727400000E-01  5.940542100000E-01  7.481767500000E-01
  31   1     3.089618300000E-01  4.056093300000E-01  2.478148900000E-01
  32   1     3.089618300000E-01  4.056093300000E-01  7.478148900000E-01
  33   1     4.058405700000E-01  3.088232500000E-01  2.477591800000E-01
  34   1     4.058405700000E-01  3.088232500000E-01  7.477591900000E-01
  35   1     5.942908800000E-01  6.909579300000E-01  2.477731700000E-01
  36   1     5.942908800000E-01  6.909579300000E-01  7.477731700000E-01
  37   6     8.918903100000E-01  4.459436900000E-01  2.493597900000E-01
  38   6     8.918903100000E-01  4.459436900000E-01  7.493597900000E-01
  39   6     9.464891100000E-01  3.927856300000E-01  2.482324100000E-01
  40   6     9.464891100000E-01  3.927856300000E-01  7.482324100000E-01
  41   6     5.338812000000E-02  6.071853000000E-01  2.481350200000E-01
  42   6     5.338812000000E-02  6.071853000000E-01  7.481350200000E-01
  43   6     9.464521100000E-01  5.536921900000E-01  2.484272900000E-01
  44   6     9.464521100000E-01  5.536921900000E-01  7.484273000000E-01
  45   6     5.342634000000E-02  4.462499700000E-01  2.476757000000E-01
  46   6     5.342634000000E-02  4.462499700000E-01  7.476757000000E-01
  47   6     1.080358900000E-01  5.540356300000E-01  2.484412000000E-01
  48   6     1.080358900000E-01  5.540356300000E-01  7.484412000000E-01
  49   6     5.540394200000E-01  1.081684600000E-01  2.506402400000E-01
  50   6     5.540394200000E-01  1.081684600000E-01  7.506402500000E-01
  51   6     6.071778500000E-01  5.355594000000E-02  2.517676000000E-01
  52   6     6.071778500000E-01  5.355594000000E-02  7.517676000000E-01
  53   6     3.927986700000E-01  9.466631600000E-01  2.518650300000E-01
  54   6     3.927986700000E-01  9.466631600000E-01  7.518650200000E-01
  55   6     4.462875800000E-01  5.360286000000E-02  2.515727600000E-01
  56   6     4.462875800000E-01  5.360286000000E-02  7.515727600000E-01
  57   6     5.537168500000E-01  9.466235600000E-01  2.523243100000E-01
  58   6     5.537168500000E-01  9.466235600000E-01  7.523243100000E-01
  59   6     4.459279100000E-01  8.919920600000E-01  2.515588200000E-01
  60   6     4.459279100000E-01  8.919920600000E-01  7.515588300000E-01
  61   6     5.540448700000E-01  4.458745500000E-01  2.493597900000E-01
  62   6     5.540448700000E-01  4.458745500000E-01  7.493597900000E-01
  63   6     6.072102200000E-01  5.536257800000E-01  2.482324400000E-01
  64   6     6.072102200000E-01  5.536257800000E-01  7.482324400000E-01
  65   6     3.928233700000E-01  4.461720300000E-01  2.481349900000E-01
  66   6     3.928233700000E-01  4.461720300000E-01  7.481349900000E-01
  67   6     4.462872600000E-01  3.926899900000E-01  2.484272700000E-01
  68   6     4.462872600000E-01  3.926899900000E-01  7.484272700000E-01
  69   6     5.537429600000E-01  6.070980000000E-01  2.476757300000E-01
  70   6     5.537429600000E-01  6.070980000000E-01  7.476757300000E-01
  71   6     4.459599800000E-01  5.539582300000E-01  2.484412000000E-01
  72   6     4.459599800000E-01  5.539582300000E-01  7.484412000000E-01
  73   8     5.607366800000E-01  2.803706300000E-01  2.497077300000E-01
  74   8     5.607366800000E-01  2.803706300000E-01  7.497077300000E-01
  75   8     7.196817000000E-01  2.803783300000E-01  2.521155400000E-01
  76   8     7.196817000000E-01  2.803783300000E-01  7.521155400000E-01
  77   8     7.196794200000E-01  4.393234600000E-01  2.484829700000E-01
  78   8     7.196794200000E-01  4.393234600000E-01  7.484829700000E-01
  79   8     2.803245100000E-01  7.196511100000E-01  2.497077500000E-01
  80   8     2.803245100000E-01  7.196511100000E-01  7.497077500000E-01
  81   8     2.803439700000E-01  5.606956100000E-01  2.521155400000E-01
  82   8     2.803439700000E-01  5.606956100000E-01  7.521155400000E-01
  83   8     4.392638400000E-01  7.196354200000E-01  2.484829600000E-01
  84   8     4.392638400000E-01  7.196354200000E-01  7.484829600000E-01

 *******************************************************************************

 << INFORMATION >>: FROM NOW ON, ALL COORDINATES REFER TO THE PRIMITIVE CELL

 *******************************************************************************

 LATTICE PARAMETERS  (ANGSTROMS AND DEGREES) - PRIMITIVE CELL
       A          B          C        ALPHA      BETA     GAMMA        VOLUME
   15.02361   15.02392    8.80000    90.00032  89.99994 119.99596   1720.237623

 COORDINATES OF THE EQUIVALENT ATOMS (FRACTIONAL UNITS)

 N. ATOM EQUIV AT. N.          X                  Y                  Z

   1   1   1    5 B    -3.86319460000E-01  2.27318220000E-01  2.50542810000E-01

   2   2   1    5 B    -3.86319460000E-01  2.27318220000E-01 -2.49457190000E-01

   3   3   1    5 B    -2.27263800000E-01  3.86377880000E-01  2.50542810000E-01

   4   4   1    5 B    -2.27263800000E-01  3.86377880000E-01 -2.49457180000E-01

   5   5   1    5 B    -3.86323730000E-01  3.86360670000E-01  2.49401550000E-01

   6   6   1    5 B    -3.86323730000E-01  3.86360670000E-01 -2.50598450000E-01

   7   7   1    5 B     2.27255250000E-01 -3.86366780000E-01  2.50542810000E-01

   8   8   1    5 B     2.27255250000E-01 -3.86366780000E-01 -2.49457190000E-01

   9   9   1    5 B     3.86363220000E-01 -3.86387550000E-01  2.50542810000E-01

  10  10   1    5 B     3.86363220000E-01 -3.86387550000E-01 -2.49457190000E-01

  11  11   1    5 B     3.86343500000E-01 -2.27248350000E-01  2.49401550000E-01

  12  12   1    5 B     3.86343500000E-01 -2.27248350000E-01 -2.50598450000E-01

  13  13   1    1 H    -9.69563800000E-02  3.08930050000E-01  2.48176730000E-01

  14  14   1    1 H    -9.69563800000E-02  3.08930050000E-01 -2.51823270000E-01

  15  15   1    1 H     9.66345300000E-02 -3.08946560000E-01  2.47814910000E-01

  16  16   1    1 H     9.66345300000E-02 -3.08946560000E-01 -2.52185090000E-01

  17  17   1    1 H    -9.70285800000E-02 -4.05927570000E-01  2.47759230000E-01

  18  18   1    1 H    -9.70285800000E-02 -4.05927570000E-01 -2.52240770000E-01

  19  19   1    1 H     9.67361800000E-02  4.05684940000E-01  2.47773120000E-01

  20  20   1    1 H     9.67361800000E-02  4.05684940000E-01 -2.52226880000E-01

  21  21   1    1 H    -3.08967600000E-01  9.70041200000E-02  2.51823290000E-01

  22  22   1    1 H    -3.08967600000E-01  9.70041200000E-02 -2.48176710000E-01

  23  23   1    1 H     3.08929720000E-01 -9.65626900000E-02  2.52185130000E-01

  24  24   1    1 H     3.08929720000E-01 -9.65626900000E-02 -2.47814870000E-01

  25  25   1    1 H     4.05869990000E-01  9.70499800000E-02  2.52240840000E-01

  26  26   1    1 H     4.05869990000E-01  9.70499800000E-02 -2.47759160000E-01

  27  27   1    1 H    -4.05687790000E-01 -9.66526800000E-02  2.52226860000E-01

  28  28   1    1 H    -4.05687790000E-01 -9.66526800000E-02 -2.47773140000E-01

  29  29   1    1 H    -3.08927260000E-01 -4.05945790000E-01  2.48176750000E-01

  30  30   1    1 H    -3.08927260000E-01 -4.05945790000E-01 -2.51823250000E-01

  31  31   1    1 H     3.08961830000E-01  4.05609330000E-01  2.47814890000E-01

  32  32   1    1 H     3.08961830000E-01  4.05609330000E-01 -2.52185110000E-01

  33  33   1    1 H     4.05840570000E-01  3.08823250000E-01  2.47759180000E-01

  34  34   1    1 H     4.05840570000E-01  3.08823250000E-01 -2.52240810000E-01

  35  35   1    1 H    -4.05709120000E-01 -3.09042070000E-01  2.47773170000E-01

  36  36   1    1 H    -4.05709120000E-01 -3.09042070000E-01 -2.52226830000E-01

  37  37   1    6 C    -1.08109690000E-01  4.45943690000E-01  2.49359790000E-01

  38  38   1    6 C    -1.08109690000E-01  4.45943690000E-01 -2.50640210000E-01

  39  39   1    6 C    -5.35108900000E-02  3.92785630000E-01  2.48232410000E-01

  40  40   1    6 C    -5.35108900000E-02  3.92785630000E-01 -2.51767590000E-01

  41  41   1    6 C     5.33881200000E-02 -3.92814700000E-01  2.48135020000E-01

  42  42   1    6 C     5.33881200000E-02 -3.92814700000E-01 -2.51864980000E-01

  43  43   1    6 C    -5.35478900000E-02 -4.46307810000E-01  2.48427290000E-01

  44  44   1    6 C    -5.35478900000E-02 -4.46307810000E-01 -2.51572700000E-01

  45  45   1    6 C     5.34263400000E-02  4.46249970000E-01  2.47675700000E-01

  46  46   1    6 C     5.34263400000E-02  4.46249970000E-01 -2.52324300000E-01

  47  47   1    6 C     1.08035890000E-01 -4.45964370000E-01  2.48441200000E-01

  48  48   1    6 C     1.08035890000E-01 -4.45964370000E-01 -2.51558800000E-01

  49  49   1    6 C    -4.45960580000E-01  1.08168460000E-01  2.50640240000E-01

  50  50   1    6 C    -4.45960580000E-01  1.08168460000E-01 -2.49359750000E-01

  51  51   1    6 C    -3.92822150000E-01  5.35559400000E-02  2.51767600000E-01

  52  52   1    6 C    -3.92822150000E-01  5.35559400000E-02 -2.48232400000E-01

  53  53   1    6 C     3.92798670000E-01 -5.33368400000E-02  2.51865030000E-01

  54  54   1    6 C     3.92798670000E-01 -5.33368400000E-02 -2.48134980000E-01

  55  55   1    6 C     4.46287580000E-01  5.36028600000E-02  2.51572760000E-01

  56  56   1    6 C     4.46287580000E-01  5.36028600000E-02 -2.48427240000E-01

  57  57   1    6 C    -4.46283150000E-01 -5.33764400000E-02  2.52324310000E-01

  58  58   1    6 C    -4.46283150000E-01 -5.33764400000E-02 -2.47675690000E-01

  59  59   1    6 C     4.45927910000E-01 -1.08007940000E-01  2.51558820000E-01

  60  60   1    6 C     4.45927910000E-01 -1.08007940000E-01 -2.48441170000E-01

  61  61   1    6 C    -4.45955130000E-01  4.45874550000E-01  2.49359790000E-01

  62  62   1    6 C    -4.45955130000E-01  4.45874550000E-01 -2.50640210000E-01

  63  63   1    6 C    -3.92789780000E-01 -4.46374220000E-01  2.48232440000E-01

  64  64   1    6 C    -3.92789780000E-01 -4.46374220000E-01 -2.51767560000E-01

  65  65   1    6 C     3.92823370000E-01  4.46172030000E-01  2.48134990000E-01

  66  66   1    6 C     3.92823370000E-01  4.46172030000E-01 -2.51865010000E-01

  67  67   1    6 C     4.46287260000E-01  3.92689990000E-01  2.48427270000E-01

  68  68   1    6 C     4.46287260000E-01  3.92689990000E-01 -2.51572730000E-01

  69  69   1    6 C    -4.46257040000E-01 -3.92902000000E-01  2.47675730000E-01

  70  70   1    6 C    -4.46257040000E-01 -3.92902000000E-01 -2.52324270000E-01

  71  71   1    6 C     4.45959980000E-01 -4.46041770000E-01  2.48441200000E-01

  72  72   1    6 C     4.45959980000E-01 -4.46041770000E-01 -2.51558800000E-01

  73  73   1    8 O    -4.39263320000E-01  2.80370630000E-01  2.49707730000E-01

  74  74   1    8 O    -4.39263320000E-01  2.80370630000E-01 -2.50292270000E-01

  75  75   1    8 O    -2.80318300000E-01  2.80378330000E-01  2.52115540000E-01

  76  76   1    8 O    -2.80318300000E-01  2.80378330000E-01 -2.47884460000E-01

  77  77   1    8 O    -2.80320580000E-01  4.39323460000E-01  2.48482970000E-01

  78  78   1    8 O    -2.80320580000E-01  4.39323460000E-01 -2.51517030000E-01

  79  79   1    8 O     2.80324510000E-01 -2.80348890000E-01  2.49707750000E-01

  80  80   1    8 O     2.80324510000E-01 -2.80348890000E-01 -2.50292250000E-01

  81  81   1    8 O     2.80343970000E-01 -4.39304390000E-01  2.52115540000E-01

  82  82   1    8 O     2.80343970000E-01 -4.39304390000E-01 -2.47884460000E-01

  83  83   1    8 O     4.39263840000E-01 -2.80364580000E-01  2.48482960000E-01

  84  84   1    8 O     4.39263840000E-01 -2.80364580000E-01 -2.51517040000E-01

 NUMBER OF SYMMETRY OPERATORS         :    1
 *******************************************************************************
 * GEOMETRY EDITING - INPUT COORDINATES ARE GIVEN IN ANGSTROM         
 *******************************************************************************

 GCALCO - MAX INDICES DIRECT LATTICE VECTOR    12    12    19
 NO.OF VECTORS CREATED 6999 STARS 3500 RMAX   269.05559 BOHR

 GEOMETRY FOR WAVE FUNCTION - DIMENSIONALITY OF THE SYSTEM    3
 (NON PERIODIC DIRECTION: LATTICE PARAMETER FORMALLY SET TO 500)
 *******************************************************************************
 LATTICE PARAMETERS (ANGSTROMS AND DEGREES) - BOHR = 0.5291772083 ANGSTROM
 PRIMITIVE CELL - CENTRING CODE 1/0 VOLUME=  1720.237623 - DENSITY  0.753 g/cm^3
         A              B              C           ALPHA      BETA       GAMMA 
    15.02361100    15.02391600     8.80000000    90.000323  89.999944 119.995964
 *******************************************************************************
 ATOMS IN THE ASYMMETRIC UNIT   84 - ATOMS IN THE UNIT CELL:   84
     ATOM                 X/A                 Y/B                 Z/C    
 *******************************************************************************
      1 T   5 B    -3.863194600000E-01  2.273182200000E-01  2.505428100000E-01
      2 T   5 B    -3.863194600000E-01  2.273182200000E-01 -2.494571900000E-01
      3 T   5 B    -2.272638000000E-01  3.863778800000E-01  2.505428100000E-01
      4 T   5 B    -2.272638000000E-01  3.863778800000E-01 -2.494571800000E-01
      5 T   5 B    -3.863237300000E-01  3.863606700000E-01  2.494015500000E-01
      6 T   5 B    -3.863237300000E-01  3.863606700000E-01 -2.505984500000E-01
      7 T   5 B     2.272552500000E-01 -3.863667800000E-01  2.505428100000E-01
      8 T   5 B     2.272552500000E-01 -3.863667800000E-01 -2.494571900000E-01
      9 T   5 B     3.863632200000E-01 -3.863875500000E-01  2.505428100000E-01
     10 T   5 B     3.863632200000E-01 -3.863875500000E-01 -2.494571900000E-01
     11 T   5 B     3.863435000000E-01 -2.272483500000E-01  2.494015500000E-01
     12 T   5 B     3.863435000000E-01 -2.272483500000E-01 -2.505984500000E-01
     13 T   1 H    -9.695638000000E-02  3.089300500000E-01  2.481767300000E-01
     14 T   1 H    -9.695638000000E-02  3.089300500000E-01 -2.518232700000E-01
     15 T   1 H     9.663453000000E-02 -3.089465600000E-01  2.478149100000E-01
     16 T   1 H     9.663453000000E-02 -3.089465600000E-01 -2.521850900000E-01
     17 T   1 H    -9.702858000000E-02 -4.059275700000E-01  2.477592300000E-01
     18 T   1 H    -9.702858000000E-02 -4.059275700000E-01 -2.522407700000E-01
     19 T   1 H     9.673618000000E-02  4.056849400000E-01  2.477731200000E-01
     20 T   1 H     9.673618000000E-02  4.056849400000E-01 -2.522268800000E-01
     21 T   1 H    -3.089676000000E-01  9.700412000000E-02  2.518232900000E-01
     22 T   1 H    -3.089676000000E-01  9.700412000000E-02 -2.481767100000E-01
     23 T   1 H     3.089297200000E-01 -9.656269000000E-02  2.521851300000E-01
     24 T   1 H     3.089297200000E-01 -9.656269000000E-02 -2.478148700000E-01
     25 T   1 H     4.058699900000E-01  9.704998000000E-02  2.522408400000E-01
     26 T   1 H     4.058699900000E-01  9.704998000000E-02 -2.477591600000E-01
     27 T   1 H    -4.056877900000E-01 -9.665268000000E-02  2.522268600000E-01
     28 T   1 H    -4.056877900000E-01 -9.665268000000E-02 -2.477731400000E-01
     29 T   1 H    -3.089272600000E-01 -4.059457900000E-01  2.481767500000E-01
     30 T   1 H    -3.089272600000E-01 -4.059457900000E-01 -2.518232500000E-01
     31 T   1 H     3.089618300000E-01  4.056093300000E-01  2.478148900000E-01
     32 T   1 H     3.089618300000E-01  4.056093300000E-01 -2.521851100000E-01
     33 T   1 H     4.058405700000E-01  3.088232500000E-01  2.477591800000E-01
     34 T   1 H     4.058405700000E-01  3.088232500000E-01 -2.522408100000E-01
     35 T   1 H    -4.057091200000E-01 -3.090420700000E-01  2.477731700000E-01
     36 T   1 H    -4.057091200000E-01 -3.090420700000E-01 -2.522268300000E-01
     37 T   6 C    -1.081096900000E-01  4.459436900000E-01  2.493597900000E-01
     38 T   6 C    -1.081096900000E-01  4.459436900000E-01 -2.506402100000E-01
     39 T   6 C    -5.351089000000E-02  3.927856300000E-01  2.482324100000E-01
     40 T   6 C    -5.351089000000E-02  3.927856300000E-01 -2.517675900000E-01
     41 T   6 C     5.338812000000E-02 -3.928147000000E-01  2.481350200000E-01
     42 T   6 C     5.338812000000E-02 -3.928147000000E-01 -2.518649800000E-01
     43 T   6 C    -5.354789000000E-02 -4.463078100000E-01  2.484272900000E-01
     44 T   6 C    -5.354789000000E-02 -4.463078100000E-01 -2.515727000000E-01
     45 T   6 C     5.342634000000E-02  4.462499700000E-01  2.476757000000E-01
     46 T   6 C     5.342634000000E-02  4.462499700000E-01 -2.523243000000E-01
     47 T   6 C     1.080358900000E-01 -4.459643700000E-01  2.484412000000E-01
     48 T   6 C     1.080358900000E-01 -4.459643700000E-01 -2.515588000000E-01
     49 T   6 C    -4.459605800000E-01  1.081684600000E-01  2.506402400000E-01
     50 T   6 C    -4.459605800000E-01  1.081684600000E-01 -2.493597500000E-01
     51 T   6 C    -3.928221500000E-01  5.355594000000E-02  2.517676000000E-01
     52 T   6 C    -3.928221500000E-01  5.355594000000E-02 -2.482324000000E-01
     53 T   6 C     3.927986700000E-01 -5.333684000000E-02  2.518650300000E-01
     54 T   6 C     3.927986700000E-01 -5.333684000000E-02 -2.481349800000E-01
     55 T   6 C     4.462875800000E-01  5.360286000000E-02  2.515727600000E-01
     56 T   6 C     4.462875800000E-01  5.360286000000E-02 -2.484272400000E-01
     57 T   6 C    -4.462831500000E-01 -5.337644000000E-02  2.523243100000E-01
     58 T   6 C    -4.462831500000E-01 -5.337644000000E-02 -2.476756900000E-01
     59 T   6 C     4.459279100000E-01 -1.080079400000E-01  2.515588200000E-01
     60 T   6 C     4.459279100000E-01 -1.080079400000E-01 -2.484411700000E-01
     61 T   6 C    -4.459551300000E-01  4.458745500000E-01  2.493597900000E-01
     62 T   6 C    -4.459551300000E-01  4.458745500000E-01 -2.506402100000E-01
     63 T   6 C    -3.927897800000E-01 -4.463742200000E-01  2.482324400000E-01
     64 T   6 C    -3.927897800000E-01 -4.463742200000E-01 -2.517675600000E-01
     65 T   6 C     3.928233700000E-01  4.461720300000E-01  2.481349900000E-01
     66 T   6 C     3.928233700000E-01  4.461720300000E-01 -2.518650100000E-01
     67 T   6 C     4.462872600000E-01  3.926899900000E-01  2.484272700000E-01
     68 T   6 C     4.462872600000E-01  3.926899900000E-01 -2.515727300000E-01
     69 T   6 C    -4.462570400000E-01 -3.929020000000E-01  2.476757300000E-01
     70 T   6 C    -4.462570400000E-01 -3.929020000000E-01 -2.523242700000E-01
     71 T   6 C     4.459599800000E-01 -4.460417700000E-01  2.484412000000E-01
     72 T   6 C     4.459599800000E-01 -4.460417700000E-01 -2.515588000000E-01
     73 T   8 O    -4.392633200000E-01  2.803706300000E-01  2.497077300000E-01
     74 T   8 O    -4.392633200000E-01  2.803706300000E-01 -2.502922700000E-01
     75 T   8 O    -2.803183000000E-01  2.803783300000E-01  2.521155400000E-01
     76 T   8 O    -2.803183000000E-01  2.803783300000E-01 -2.478844600000E-01
     77 T   8 O    -2.803205800000E-01  4.393234600000E-01  2.484829700000E-01
     78 T   8 O    -2.803205800000E-01  4.393234600000E-01 -2.515170300000E-01
     79 T   8 O     2.803245100000E-01 -2.803488900000E-01  2.497077500000E-01
     80 T   8 O     2.803245100000E-01 -2.803488900000E-01 -2.502922500000E-01
     81 T   8 O     2.803439700000E-01 -4.393043900000E-01  2.521155400000E-01
     82 T   8 O     2.803439700000E-01 -4.393043900000E-01 -2.478844600000E-01
     83 T   8 O     4.392638400000E-01 -2.803645800000E-01  2.484829600000E-01
     84 T   8 O     4.392638400000E-01 -2.803645800000E-01 -2.515170400000E-01

 T = ATOM BELONGING TO THE ASYMMETRIC UNIT

 ****    1 SYMMOPS - TRANSLATORS IN FRACTIONAL UNITS
 **** MATRICES AND TRANSLATORS IN THE CRYSTALLOGRAPHIC REFERENCE FRAME
   V INV                    ROTATION MATRICES                   TRANSLATORS
   1   1  1.00 -0.00  0.00  0.00  1.00  0.00 -0.00 -0.00  1.00  0.00  0.00  0.00

 DIRECT LATTICE VECTORS CARTESIAN COMPONENTS (ANGSTROM)
          X                    Y                    Z
   0.130113578931E+02  -0.751088897922E+01   0.000000000000E+00
   0.000000000000E+00   0.150239160000E+02   0.000000000000E+00
  -0.187060927689E-04  -0.496092386567E-04   0.879999999984E+01


 CARTESIAN COORDINATES - PRIMITIVE CELL
 *******************************************************************************
 *      ATOM          X(ANGSTROM)         Y(ANGSTROM)         Z(ANGSTROM)
 *******************************************************************************
    1     5 B    -5.026545441789E+00  6.316799987882E+00  2.204776727960E+00
    2     5 B    -5.026536088743E+00  6.316824792502E+00 -2.195223271960E+00
    3     5 B    -2.957015324613E+00  7.511849554935E+00  2.204776727960E+00
    4     5 B    -2.957005971567E+00  7.511874359554E+00 -2.195223183960E+00
    5     5 B    -5.026600978939E+00 -6.317643474770E+00  2.194733639960E+00
    6     5 B    -5.026591625893E+00 -6.317618670151E+00 -2.205266359960E+00
    7     5 B     2.956894704149E+00 -7.511643429843E+00  2.204776727960E+00
    8     5 B     2.956904057195E+00 -7.511618625223E+00 -2.195223271960E+00
    9     5 B     5.027105445457E+00  6.316918225044E+00  2.204776727960E+00
   10     5 B     5.027114798503E+00  6.316943029663E+00 -2.195223271960E+00
   11     5 B     5.026848882828E+00 -6.315955630502E+00  2.194733639960E+00
   12     5 B     5.026858235874E+00 -6.315930825882E+00 -2.205266359960E+00
   13     1 H    -1.261538802612E+00  5.369555415224E+00  2.183955223960E+00
   14     1 H    -1.261529449566E+00  5.369580219843E+00 -2.216044775960E+00
   15     1 H     1.257341819009E+00 -5.367410686227E+00  2.180771207960E+00
   16     1 H     1.257351172055E+00 -5.367385881607E+00 -2.219228791960E+00
   17     1 H    -1.262478214842E+00 -5.369863112720E+00  2.180281223960E+00
   18     1 H    -1.262468861796E+00 -5.369838308101E+00 -2.219718775960E+00
   19     1 H     1.258664424320E+00  5.368389460936E+00  2.180403455960E+00
   20     1 H     1.258673777367E+00  5.368414265555E+00 -2.219596543960E+00
   21     1 H    -4.020092731589E+00  3.777990599547E+00  2.216044951960E+00
   22     1 H    -4.020083378542E+00  3.778015404167E+00 -2.183955047960E+00
   23     1 H     4.019590433323E+00 -3.771099083307E+00  2.219229143960E+00
   24     1 H     4.019599786370E+00 -3.771074278687E+00 -2.180770855960E+00
   25     1 H     5.280914979501E+00 -1.590386201040E+00  2.219719391960E+00
   26     1 H     5.280924332547E+00 -1.590361396421E+00 -2.180280607960E+00
   27     1 H    -5.278553746712E+00  1.594961692636E+00  2.219596367960E+00
   28     1 H    -5.278544393666E+00  1.594986497256E+00 -2.180403631960E+00
   29     1 H    -4.019567785199E+00 -3.778589408860E+00  2.183955399960E+00
   30     1 H    -4.019558432152E+00 -3.778564604240E+00 -2.216044599960E+00
   31     1 H     4.020008309775E+00  3.773250204883E+00  2.180771031960E+00
   32     1 H     4.020017662822E+00  3.773275009502E+00 -2.219228967960E+00
   33     1 H     5.280532269186E+00  1.591498811171E+00  2.180280783960E+00
   34     1 H     5.280541622232E+00  1.591523615790E+00 -2.219719127960E+00
   35     1 H    -5.278831195665E+00 -1.595798233809E+00  2.180403895960E+00
   36     1 H    -5.278821842619E+00 -1.595773429190E+00 -2.219596103960E+00
   37     6 C    -1.406658532845E+00  7.511808047908E+00  2.194366151960E+00
   38     6 C    -1.406649179798E+00  7.511832852528E+00 -2.205633847960E+00
   39     6 C    -6.962539844245E-01  6.303080350475E+00  2.184445207960E+00
   40     6 C    -6.962446313781E-01  6.303105155095E+00 -2.215554791960E+00
   41     6 C     6.946472949207E-01 -6.302619608284E+00  2.183588175960E+00
   42     6 C     6.946566479671E-01 -6.302594803664E+00 -2.216411823960E+00
   43     6 C    -6.967354083120E-01 -6.303111115011E+00  2.186160151960E+00
   44     6 C    -6.967260552658E-01 -6.303086310393E+00 -2.213839759960E+00
   45     6 C     6.951445976115E-01  6.303130468974E+00  2.179546159960E+00
   46     6 C     6.951539506579E-01  6.303155273593E+00 -2.220453839960E+00
   47     6 C     1.405688982721E+00 -7.511589134413E+00  2.186282559960E+00
   48     6 C     1.405698335767E+00 -7.511564329793E+00 -2.213717439960E+00
   49     6 C     7.208800491982E+00 -2.536227150912E+00  2.205634111960E+00
   50     6 C     7.208809845028E+00 -2.536202346293E+00 -2.194365799960E+00
   51     6 C    -5.111154291558E+00  3.755051011089E+00  2.215554879960E+00
   52     6 C    -5.111144938512E+00  3.755075815709E+00 -2.184445119960E+00
   53     6 C     5.110839363876E+00 -3.751607900252E+00  2.216412263960E+00
   54     6 C     5.110848716923E+00 -3.751583095632E+00 -2.183587823960E+00
   55     6 C     5.806802720663E+00 -2.546704080517E+00  2.213840287960E+00
   56     6 C     5.806812073709E+00 -2.546679275897E+00 -2.186159711960E+00
   57     6 C    -5.806754506293E+00  2.550047524389E+00  2.220453927960E+00
   58     6 C    -5.806745153246E+00  2.550072329008E+00 -2.179546071960E+00
   59     6 C     5.802122925830E+00 -4.972029722279E+00  2.213717615960E+00
   60     6 C     5.802132278876E+00 -4.972004917660E+00 -2.186282295960E+00
   61     6 C     7.208871427835E+00  2.537399907114E+00  2.194366151960E+00
   62     6 C     7.208880780881E+00  2.537424711733E+00 -2.205633847960E+00
   63     6 C    -5.110733047774E+00 -3.756100670717E+00  2.184445471960E+00
   64     6 C    -5.110723694728E+00 -3.756075866098E+00 -2.215554527960E+00
   65     6 C     5.111160814190E+00  3.752786069970E+00  2.183587911960E+00
   66     6 C     5.111170167237E+00  3.752810874589E+00 -2.216412087960E+00
   67     6 C     5.806798615868E+00  2.547715036814E+00  2.186159975960E+00
   68     6 C     5.806807968914E+00  2.547739841434E+00 -2.213840023960E+00
   69     6 C    -5.806414692781E+00 -2.551151847603E+00  2.179546423960E+00
   70     6 C    -5.806405339735E+00 -2.551127042983E+00 -2.220453575960E+00
   71     6 C     5.802540258396E+00  4.973053691096E+00  2.186282559960E+00
   72     6 C     5.802549611443E+00  4.973078495716E+00 -2.213717439960E+00
   73     8 O     7.295940956188E+00  6.214561222829E-04  2.197428023960E+00
   74     8 O     7.295950309235E+00  6.462607416121E-04 -2.202571975960E+00
   75     8 O    -3.647326441370E+00  6.317807601023E+00  2.218616751960E+00
   76     8 O    -3.647317088323E+00  6.317832405642E+00 -2.181383247960E+00
   77     8 O    -3.647356039315E+00 -6.318112812212E+00  2.186650135960E+00
   78     8 O    -3.647346686268E+00 -6.318088007593E+00 -2.213349863960E+00
   79     8 O     3.647397854749E+00 -6.317436834628E+00  2.197428199960E+00
   80     8 O     3.647407207796E+00 -6.317412030009E+00 -2.202571799960E+00
   81     8 O     3.647651010734E+00  6.318198804286E+00  2.218616751960E+00
   82     8 O     3.647660363780E+00  6.318223608905E+00 -2.181383247960E+00
   83     8 O    -7.295943509484E+00 -5.591819535882E-04  2.186650047960E+00
   84     8 O    -7.295934156437E+00 -5.343773342611E-04 -2.213349951960E+00

 *******************************************************************************
 STARTING BASIS SET HANDLING 
 *******************************************************************************

 Loading internal basis set: SOLDEF2MSVP         

 Please cite in your publication:
 L. Dona', J. G. Brandenburg and B. Civalleri, J. Chem. Phys., 151, 121101 (2019
 )                                                                              
                                                                                
                    

 *******************************************************************************
 LOCAL ATOMIC FUNCTIONS BASIS SET
 *******************************************************************************
   ATOM   X(AU)   Y(AU)   Z(AU)  N. TYPE  EXPONENT  S COEF   P COEF   D/F/G COEF
 *******************************************************************************
   1 B   -9.499  11.937   4.166
                                  1 S  
                                         2.410E+03 1.755E-03 0.000E+00 0.000E+00
                                         3.619E+02 1.344E-02 0.000E+00 0.000E+00
                                         8.231E+01 6.637E-02 0.000E+00 0.000E+00
                                         2.311E+01 2.303E-01 0.000E+00 0.000E+00
                                         7.252E+00 5.150E-01 0.000E+00 0.000E+00
                                  2 S  
                                         2.367E+00 1.000E+00 0.000E+00 0.000E+00
                                  3 S  
                                         5.533E-01 1.000E+00 0.000E+00 0.000E+00
                                  4 S  
                                         1.716E-01 1.000E+00 0.000E+00 0.000E+00
                           5-     7 P  
                                         6.002E+00 0.000E+00-3.555E-02 0.000E+00
                                         1.240E+00 0.000E+00-1.983E-01 0.000E+00
                                         3.367E-01 0.000E+00-5.048E-01 0.000E+00
                           8-    10 P  
                                         1.256E-01 0.000E+00 1.000E+00 0.000E+00
                          11-    15 D  
                                         8.880E-01 0.000E+00 0.000E+00 1.000E+00
   2 B   -9.499  11.937  -4.148
   3 B   -5.588  14.195   4.166
   4 B   -5.588  14.195  -4.148
   5 B   -9.499 -11.939   4.147
   6 B   -9.499 -11.939  -4.167
   7 B    5.588 -14.195   4.166
   8 B    5.588 -14.195  -4.148
   9 B    9.500  11.937   4.166
  10 B    9.500  11.937  -4.148
  11 B    9.499 -11.935   4.147
  12 B    9.499 -11.935  -4.167
  13 H   -2.384  10.147   4.127
                                181 S  
                                         1.874E+01 1.968E-02 0.000E+00 0.000E+00
                                         2.826E+00 1.380E-01 0.000E+00 0.000E+00
                                         6.401E-01 4.783E-01 0.000E+00 0.000E+00
                                182 S  
                                         1.756E-01 1.000E+00 0.000E+00 0.000E+00
  14 H   -2.384  10.147  -4.188
  15 H    2.376 -10.143   4.121
  16 H    2.376 -10.143  -4.194
  17 H   -2.386 -10.148   4.120
  18 H   -2.386 -10.148  -4.195
  19 H    2.379  10.145   4.120
  20 H    2.379  10.145  -4.194
  21 H   -7.597   7.139   4.188
  22 H   -7.597   7.139  -4.127
  23 H    7.596  -7.126   4.194
  24 H    7.596  -7.126  -4.121
  25 H    9.979  -3.005   4.195
  26 H    9.980  -3.005  -4.120
  27 H   -9.975   3.014   4.194
  28 H   -9.975   3.014  -4.120
  29 H   -7.596  -7.140   4.127
  30 H   -7.596  -7.140  -4.188
  31 H    7.597   7.130   4.121
  32 H    7.597   7.130  -4.194
  33 H    9.979   3.007   4.120
  34 H    9.979   3.008  -4.195
  35 H   -9.976  -3.016   4.120
  36 H   -9.976  -3.016  -4.194
  37 C   -2.658  14.195   4.147
                                229 S  
                                         3.624E+03 1.634E-03 0.000E+00 0.000E+00
                                         5.440E+02 1.252E-02 0.000E+00 0.000E+00
                                         1.237E+02 6.211E-02 0.000E+00 0.000E+00
                                         3.476E+01 2.182E-01 0.000E+00 0.000E+00
                                         1.093E+01 4.980E-01 0.000E+00 0.000E+00
                                230 S  
                                         3.574E+00 1.000E+00 0.000E+00 0.000E+00
                                231 S  
                                         7.742E-01 1.000E+00 0.000E+00 0.000E+00
                                232 S  
                                         2.330E-01 1.000E+00 0.000E+00 0.000E+00
                         233-   235 P  
                                         9.443E+00 0.000E+00 3.790E-02 0.000E+00
                                         2.002E+00 0.000E+00 2.082E-01 0.000E+00
                                         5.463E-01 0.000E+00 5.047E-01 0.000E+00
                         236-   238 P  
                                         1.820E-01 0.000E+00 1.000E+00 0.000E+00
                         239-   243 D  
                                         8.880E-01 0.000E+00 0.000E+00 1.000E+00
  38 C   -2.658  14.195  -4.168
  39 C   -1.316  11.911   4.128
  40 C   -1.316  11.911  -4.187
  41 C    1.313 -11.910   4.126
  42 C    1.313 -11.910  -4.188
  43 C   -1.317 -11.911   4.131
  44 C   -1.317 -11.911  -4.184
  45 C    1.314  11.911   4.119
  46 C    1.314  11.911  -4.196
  47 C    2.656 -14.195   4.131
  48 C    2.656 -14.195  -4.183
  49 C   13.623  -4.793   4.168
  50 C   13.623  -4.793  -4.147
  51 C   -9.659   7.096   4.187
  52 C   -9.659   7.096  -4.128
  53 C    9.658  -7.090   4.188
  54 C    9.658  -7.089  -4.126
  55 C   10.973  -4.813   4.184
  56 C   10.973  -4.813  -4.131
  57 C  -10.973   4.819   4.196
  58 C  -10.973   4.819  -4.119
  59 C   10.964  -9.396   4.183
  60 C   10.964  -9.396  -4.131
  61 C   13.623   4.795   4.147
  62 C   13.623   4.795  -4.168
  63 C   -9.658  -7.098   4.128
  64 C   -9.658  -7.098  -4.187
  65 C    9.659   7.092   4.126
  66 C    9.659   7.092  -4.188
  67 C   10.973   4.814   4.131
  68 C   10.973   4.815  -4.184
  69 C  -10.973  -4.821   4.119
  70 C  -10.973  -4.821  -4.196
  71 C   10.965   9.398   4.131
  72 C   10.965   9.398  -4.183
  73 O   13.787   0.001   4.153
                                769 S  
                                         6.773E+03 1.727E-03 0.000E+00 0.000E+00
                                         1.017E+03 1.325E-02 0.000E+00 0.000E+00
                                         2.313E+02 6.603E-02 0.000E+00 0.000E+00
                                         6.501E+01 2.353E-01 0.000E+00 0.000E+00
                                         2.050E+01 5.498E-01 0.000E+00 0.000E+00
                                770 S  
                                         6.716E+00 1.000E+00 0.000E+00 0.000E+00
                                771 S  
                                         1.147E+00 1.000E+00 0.000E+00 0.000E+00
                                772 S  
                                         3.342E-01 1.000E+00 0.000E+00 0.000E+00
                         773-   775 P  
                                         1.769E+01 0.000E+00 4.359E-02 0.000E+00
                                         3.854E+00 0.000E+00 2.318E-01 0.000E+00
                                         1.047E+00 0.000E+00 5.146E-01 0.000E+00
                         776-   778 P  
                                         2.759E-01 0.000E+00 1.000E+00 0.000E+00
                         779-   783 D  
                                         8.000E-01 0.000E+00 0.000E+00 1.000E+00
  74 O   13.787   0.001  -4.162
  75 O   -6.892  11.939   4.193
  76 O   -6.892  11.939  -4.122
  77 O   -6.893 -11.940   4.132
  78 O   -6.892 -11.939  -4.183
  79 O    6.893 -11.938   4.153
  80 O    6.893 -11.938  -4.162
  81 O    6.893  11.940   4.193
  82 O    6.893  11.940  -4.122
  83 O  -13.787  -0.001   4.132
  84 O  -13.787  -0.001  -4.183

 *******************************************************************************
 FINISHED BASIS SET HANDLING 
 *******************************************************************************

 INFORMATION **** SET_MPP **** PCRYSTAL CALCULATION
 INFORMATION **** READM2 **** NEW DEFAULT: FOCK/KS MATRIX MIXING SET TO 30 %
 INFORMATION **** READM2 **** NEW DEFAULT: FULL DIRECT SCF MODE
 INFORMATION **** READM2 **** NEW DEFAULT: COULOMB BIPOLAR BUFFER SET TO 32 Mb
 INFORMATION **** READM2 **** NEW DEFAULT: EXCHANGE BIPOLAR BUFFER SET TO 32 Mb

 *******************************************************************************
 NEW DEFAULT: DFT INTEGRATION GRID INCREASED TO XLGRID
 NEW DEFAULT: DIIS ACCELERATOR ACTIVE
 USE KEYWORD NODIIS TO TURN IT OFF
 *******************************************************************************

 WARNING **** RDDFTP **** HSEsol-HJS ACTIVE
 RANGE SEPARATION - OMEGA:   0.110000000000000     
 WARNING **** RDDFTP **** HSEsol-3c has to be combined with sol-def2-mSVP basis set
 *******************************************************************************
 N. OF ATOMS PER CELL        84  COULOMB OVERLAP TOL         (T1) 10**   -6
 NUMBER OF SHELLS           468  COULOMB PENETRATION TOL     (T2) 10**   -6
 NUMBER OF AO               948  EXCHANGE OVERLAP TOL        (T3) 10**   -6
 N. OF ELECTRONS PER CELL   396  EXCHANGE PSEUDO OVP (F(G))  (T4) 10**   -6
 CORE ELECTRONS PER CELL    120  EXCHANGE PSEUDO OVP (P(G))  (T5) 10**  -12
 N. OF SYMMETRY OPERATORS     1  POLE ORDER IN MONO ZONE                  4
 *******************************************************************************
 TYPE OF CALCULATION :  RESTRICTED CLOSED SHELL
 KOHN-SHAM HAMILTONIAN

 (EXCHANGE)[CORRELATION] FUNCTIONAL:(HSEsol GGA)[PBEsol]

 RANGE-SEPARATED HYBRID FUNCTIONAL 
 OMEGA (SHORT-RANGE)[LONG-RANGE]:(    0.1100)[    0.0000]

 HYBRID EXCHANGE - PERCENTAGE OF FOCK EXCHANGE    25.0000

 CAPPA:IS1  2;IS2  2;IS3  8; K PTS MONK NET  20; SYMMOPS:K SPACE   2;G SPACE   1

 *******************************************************************************
 MAX NUMBER OF SCF CYCLES      50  CONVERGENCE ON DELTAP        10**-16
 WEIGHT OF F(I) IN F(I+1)      30% CONVERGENCE ON ENERGY        10**- 6
 SHRINK. FACT.(MONKH.)    2  2  8  NUMBER OF K POINTS IN THE IBZ     20
 SHRINKING FACTOR(GILAT NET)    8  NUMBER OF K POINTS(GILAT NET)   1028
 *******************************************************************************
 *** K POINTS COORDINATES (OBLIQUE COORDINATES IN UNITS OF IS =  2)
   1-R(  0  0  0)   2-R(  1  0  0)   3-R(  0  1  0)   4-R(  1  1  0)
   5-C(  0  0  1)   6-C(  1  0  1)   7-C(  0  1  1)   8-C(  1  1  1)
   9-C(  0  0  2)  10-C(  1  0  2)  11-C(  0  1  2)  12-C(  1  1  2)
  13-C(  0  0  3)  14-C(  1  0  3)  15-C(  0  1  3)  16-C(  1  1  3)
  17-R(  0  0  4)  18-R(  1  0  4)  19-R(  0  1  4)  20-R(  1  1  4)

 DIRECT LATTICE VECTORS COMPON. (A.U.)     RECIP. LATTICE VECTORS COMPON. (A.U.) 
        X            Y            Z              X            Y            Z
   24.5879030  -14.1935232    0.0000000      0.2555397    0.0000000    0.0000005
    0.0000000   28.3910867    0.0000000      0.1277517    0.2213084    0.0000015
   -0.0000353   -0.0000937   16.6295900      0.0000000    0.0000000    0.3778316

 DISK SPACE FOR EIGENVECTORS (FTN 10)    28758528 REALS

 SYMMETRY ADAPTION OF THE BLOCH FUNCTIONS DISABLED
 TTTTTTTTTTTTTTTTTTTTTTTTTTTTTT gordsh1     TELAPSE        0.06 TCPU        0.05

 MATRIX SIZE: P(G)  606856, F(G)  124248, P(G) IRR  305330, F(G) IRR  125208
 MAX G-VECTOR INDEX FOR 1- AND 2-ELECTRON INTEGRALS  47

 TTTTTTTTTTTTTTTTTTTTTTTTTTTTTT INPUT       TELAPSE        3.06 TCPU        3.06

 NEIGHBORS OF THE NON-EQUIVALENT ATOMS

 N = NUMBER OF NEIGHBORS AT DISTANCE R
    ATOM  N     R/ANG      R/AU   NEIGHBORS (ATOM LABELS AND CELL INDICES)
   1 B    1     1.3791     2.6061   73 O   -1 0 0
   1 B    1     1.3793     2.6065   75 O    0 0 0
   1 B    1     1.5503     2.9297   49 C   -1 0 0
   1 B    1     2.3895     4.5155    5 B    0 1 0
   1 B    1     2.3898     4.5160    3 B    0 0 0
   1 B    1     2.5632     4.8437   51 C    0 0 0

   2 B    1     1.3791     2.6061   74 O   -1 0 0
   2 B    1     1.3793     2.6065   76 O    0 0 0
   2 B    1     1.5503     2.9297   50 C   -1 0 0
   2 B    1     2.3895     4.5155    6 B    0 1 0
   2 B    1     2.3898     4.5160    4 B    0 0 0
   2 B    1     2.5632     4.8437   52 C    0 0 0

   3 B    1     1.3793     2.6065   77 O    0 1 0
   3 B    1     1.3793     2.6065   75 O    0 0 0
   3 B    1     1.5504     2.9298   37 C    0 0 0
   3 B    1     2.3895     4.5156    5 B    0 1 0
   3 B    1     2.3898     4.5160    1 B    0 0 0
   3 B    1     2.5634     4.8440   43 C    0 1 0

   4 B    1     1.3793     2.6065   78 O    0 1 0
   4 B    1     1.3793     2.6065   76 O    0 0 0
   4 B    1     1.5504     2.9298   38 C    0 0 0
   4 B    1     2.3895     4.5156    6 B    0 1 0
   4 B    1     2.3898     4.5160    2 B    0 0 0
   4 B    1     2.5634     4.8440   44 C    0 1 0

   5 B    1     1.3791     2.6061   73 O   -1-1 0
   5 B    1     1.3793     2.6064   77 O    0 0 0
   5 B    1     1.5502     2.9294   61 C   -1-1 0
   5 B    1     2.3895     4.5155    1 B    0-1 0
   5 B    1     2.3895     4.5156    3 B    0-1 0
   5 B    1     2.5629     4.8433   63 C    0 0 0

   6 B    1     1.3791     2.6061   74 O   -1-1 0
   6 B    1     1.3793     2.6064   78 O    0 0 0
   6 B    1     1.5502     2.9294   62 C   -1-1 0
   6 B    1     2.3895     4.5155    2 B    0-1 0
   6 B    1     2.3895     4.5156    4 B    0-1 0
   6 B    1     2.5629     4.8433   64 C    0 0 0

   7 B    1     1.3795     2.6068   79 O    0 0 0
   7 B    1     1.3795     2.6070   81 O    0-1 0
   7 B    1     1.5513     2.9316   47 C    0 0 0
   7 B    1     2.3905     4.5174   11 B    0 0 0
   7 B    1     2.3905     4.5175    9 B    0-1 0
   7 B    1     2.5648     4.8468   45 C    0-1 0

   8 B    1     1.3795     2.6068   80 O    0 0 0
   8 B    1     1.3795     2.6070   82 O    0-1 0
   8 B    1     1.5513     2.9316   48 C    0 0 0
   8 B    1     2.3905     4.5174   12 B    0 0 0
   8 B    1     2.3905     4.5175   10 B    0-1 0
   8 B    1     2.5648     4.8468   46 C    0-1 0

   9 B    1     1.3795     2.6069   81 O    0 0 0
   9 B    1     1.3797     2.6072   83 O    1 1 0
   9 B    1     1.5516     2.9322   71 C    0 0 0
   9 B    1     2.3905     4.5175    7 B    0 1 0
   9 B    1     2.3911     4.5185   11 B    0 1 0
   9 B    1     2.5651     4.8473   69 C    1 1 0

  10 B    1     1.3795     2.6069   82 O    0 0 0
  10 B    1     1.3797     2.6072   84 O    1 1 0
  10 B    1     1.5516     2.9322   72 C    0 0 0
  10 B    1     2.3905     4.5175    8 B    0 1 0
  10 B    1     2.3911     4.5185   12 B    0 1 0
  10 B    1     2.5651     4.8473   70 C    1 1 0

  11 B    1     1.3795     2.6068   79 O    0 0 0
  11 B    1     1.3796     2.6071   83 O    1 0 0
  11 B    1     1.5516     2.9322   59 C    0 0 0
  11 B    1     2.3905     4.5174    7 B    0 0 0
  11 B    1     2.3911     4.5185    9 B    0-1 0
  11 B    1     2.5651     4.8473   57 C    1 0 0

  12 B    1     1.3795     2.6068   80 O    0 0 0
  12 B    1     1.3796     2.6071   84 O    1 0 0
  12 B    1     1.5516     2.9322   60 C    0 0 0
  12 B    1     2.3905     4.5174    8 B    0 0 0
  12 B    1     2.3911     4.5185   10 B    0-1 0
  12 B    1     2.5651     4.8473   58 C    1 0 0

  13 H    1     1.0913     2.0623   39 C    0 0 0
  13 H    1     2.1472     4.0576   37 C    0 0 0
  13 H    1     2.1680     4.0969   45 C    0 0 0
  13 H    1     2.5202     4.7625   19 H    0 0 0
  13 H    1     2.5676     4.8520   75 O    0 0 0
  13 H    1     2.7321     5.1630    3 B    0 0 0

  14 H    1     1.0913     2.0623   40 C    0 0 0
  14 H    1     2.1472     4.0576   38 C    0 0 0
  14 H    1     2.1680     4.0969   46 C    0 0 0
  14 H    1     2.5202     4.7625   20 H    0 0 0
  14 H    1     2.5676     4.8520   76 O    0 0 0
  14 H    1     2.7321     5.1630    4 B    0 0 0

  15 H    1     1.0914     2.0625   41 C    0 0 0
  15 H    1     2.1493     4.0616   47 C    0 0 0
  15 H    1     2.1666     4.0942   43 C    0 0 0
  15 H    1     2.5198     4.7618   17 H    0 0 0
  15 H    1     2.5720     4.8604   79 O    0 0 0
  15 H    1     2.7362     5.1707    7 B    0 0 0

  16 H    1     1.0914     2.0625   42 C    0 0 0
  16 H    1     2.1493     4.0616   48 C    0 0 0
  16 H    1     2.1666     4.0942   44 C    0 0 0
  16 H    1     2.5198     4.7618   18 H    0 0 0
  16 H    1     2.5720     4.8604   80 O    0 0 0
  16 H    1     2.7362     5.1707    8 B    0 0 0

  17 H    1     1.0914     2.0624   43 C    0 0 0
  17 H    1     2.1471     4.0575   37 C    0-1 0
  17 H    1     2.1680     4.0970   41 C    0 0 0
  17 H    1     2.5198     4.7618   15 H    0 0 0
  17 H    1     2.5665     4.8500   77 O    0 0 0
  17 H    1     2.7315     5.1618    3 B    0-1 0

  18 H    1     1.0914     2.0624   44 C    0 0 0
  18 H    1     2.1471     4.0575   38 C    0-1 0
  18 H    1     2.1680     4.0970   42 C    0 0 0
  18 H    1     2.5198     4.7618   16 H    0 0 0
  18 H    1     2.5665     4.8500   78 O    0 0 0
  18 H    1     2.7315     5.1618    4 B    0-1 0

  19 H    1     1.0915     2.0626   45 C    0 0 0
  19 H    1     2.1490     4.0610   47 C    0 1 0
  19 H    1     2.1669     4.0948   39 C    0 0 0
  19 H    1     2.5202     4.7625   13 H    0 0 0
  19 H    1     2.5712     4.8588   81 O    0 0 0
  19 H    1     2.7351     5.1686    7 B    0 1 0

  20 H    1     1.0915     2.0626   46 C    0 0 0
  20 H    1     2.1490     4.0610   48 C    0 1 0
  20 H    1     2.1669     4.0948   40 C    0 0 0
  20 H    1     2.5202     4.7625   14 H    0 0 0
  20 H    1     2.5712     4.8588   82 O    0 0 0
  20 H    1     2.7351     5.1686    8 B    0 1 0

  21 H    1     1.0913     2.0623   51 C    0 0 0
  21 H    1     2.1469     4.0571   49 C   -1 0 0
  21 H    1     2.1680     4.0968   57 C    0 0 0
  21 H    1     2.5198     4.7617   27 H    0 0 0
  21 H    1     2.5670     4.8510   75 O    0 0 0
  21 H    1     2.7310     5.1609    1 B    0 0 0

  22 H    1     1.0913     2.0623   52 C    0 0 0
  22 H    1     2.1469     4.0571   50 C   -1 0 0
  22 H    1     2.1680     4.0968   58 C    0 0 0
  22 H    1     2.5198     4.7617   28 H    0 0 0
  22 H    1     2.5670     4.8510   76 O    0 0 0
  22 H    1     2.7310     5.1609    2 B    0 0 0

  23 H    1     1.0914     2.0625   53 C    0 0 0
  23 H    1     2.1493     4.0617   59 C    0 0 0
  23 H    1     2.1664     4.0939   55 C    0 0 0
  23 H    1     2.5192     4.7606   25 H    0 0 0
  23 H    1     2.5735     4.8632   79 O    0 0 0
  23 H    1     2.7371     5.1723   11 B    0 0 0

  24 H    1     1.0914     2.0625   54 C    0 0 0
  24 H    1     2.1493     4.0617   60 C    0 0 0
  24 H    1     2.1664     4.0939   56 C    0 0 0
  24 H    1     2.5192     4.7606   26 H    0 0 0
  24 H    1     2.5735     4.8632   80 O    0 0 0
  24 H    1     2.7371     5.1723   12 B    0 0 0

  25 H    1     1.0914     2.0624   55 C    0 0 0
  25 H    1     2.1475     4.0581   49 C    0 0 0
  25 H    1     2.1679     4.0967   53 C    0 0 0
  25 H    1     2.5192     4.7606   23 H    0 0 0
  25 H    1     2.5675     4.8519   73 O    0 0 0
  25 H    1     2.7328     5.1643    1 B    1 0 0

  26 H    1     1.0914     2.0624   56 C    0 0 0
  26 H    1     2.1475     4.0581   50 C    0 0 0
  26 H    1     2.1679     4.0967   54 C    0 0 0
  26 H    1     2.5192     4.7606   24 H    0 0 0
  26 H    1     2.5675     4.8519   74 O    0 0 0
  26 H    1     2.7328     5.1643    2 B    1 0 0

  27 H    1     1.0914     2.0625   57 C    0 0 0
  27 H    1     2.1491     4.0612   59 C   -1 0 0
  27 H    1     2.1666     4.0942   51 C    0 0 0
  27 H    1     2.5198     4.7617   21 H    0 0 0
  27 H    1     2.5723     4.8609   83 O    0 0 0
  27 H    1     2.7355     5.1693   11 B   -1 0 0

  28 H    1     1.0914     2.0625   58 C    0 0 0
  28 H    1     2.1491     4.0612   60 C   -1 0 0
  28 H    1     2.1666     4.0942   52 C    0 0 0
  28 H    1     2.5198     4.7617   22 H    0 0 0
  28 H    1     2.5723     4.8609   84 O    0 0 0
  28 H    1     2.7355     5.1693   12 B   -1 0 0

  29 H    1     1.0914     2.0624   63 C    0 0 0
  29 H    1     2.1475     4.0582   61 C   -1-1 0
  29 H    1     2.1678     4.0966   69 C    0 0 0
  29 H    1     2.5200     4.7621   35 H    0 0 0
  29 H    1     2.5667     4.8503   77 O    0 0 0
  29 H    1     2.7315     5.1618    5 B    0 0 0

  30 H    1     1.0914     2.0624   64 C    0 0 0
  30 H    1     2.1475     4.0582   62 C   -1-1 0
  30 H    1     2.1678     4.0966   70 C    0 0 0
  30 H    1     2.5200     4.7621   36 H    0 0 0
  30 H    1     2.5667     4.8503   78 O    0 0 0
  30 H    1     2.7315     5.1618    6 B    0 0 0

  31 H    1     1.0913     2.0623   65 C    0 0 0
  31 H    1     2.1487     4.0605   71 C    0 0 0
  31 H    1     2.1667     4.0945   67 C    0 0 0
  31 H    1     2.5197     4.7616   33 H    0 0 0
  31 H    1     2.5723     4.8610   81 O    0 0 0
  31 H    1     2.7359     5.1701    9 B    0 0 0

  32 H    1     1.0913     2.0623   66 C    0 0 0
  32 H    1     2.1487     4.0605   72 C    0 0 0
  32 H    1     2.1667     4.0945   68 C    0 0 0
  32 H    1     2.5197     4.7616   34 H    0 0 0
  32 H    1     2.5723     4.8610   82 O    0 0 0
  32 H    1     2.7359     5.1701   10 B    0 0 0

  33 H    1     1.0915     2.0626   67 C    0 0 0
  33 H    1     2.1479     4.0589   61 C    0 0 0
  33 H    1     2.1679     4.0968   65 C    0 0 0
  33 H    1     2.5197     4.7616   31 H    0 0 0
  33 H    1     2.5677     4.8522   73 O    0 0 0
  33 H    1     2.7331     5.1648    5 B    1 1 0

  34 H    1     1.0915     2.0626   68 C    0 0 0
  34 H    1     2.1479     4.0589   62 C    0 0 0
  34 H    1     2.1679     4.0968   66 C    0 0 0
  34 H    1     2.5197     4.7616   32 H    0 0 0
  34 H    1     2.5677     4.8522   74 O    0 0 0
  34 H    1     2.7331     5.1648    6 B    1 1 0

  35 H    1     1.0914     2.0624   69 C    0 0 0
  35 H    1     2.1486     4.0602   71 C   -1-1 0
  35 H    1     2.1668     4.0947   63 C    0 0 0
  35 H    1     2.5200     4.7621   29 H    0 0 0
  35 H    1     2.5717     4.8598   83 O    0 0 0
  35 H    1     2.7349     5.1682    9 B   -1-1 0

  36 H    1     1.0914     2.0624   70 C    0 0 0
  36 H    1     2.1486     4.0602   72 C   -1-1 0
  36 H    1     2.1668     4.0947   64 C    0 0 0
  36 H    1     2.5200     4.7621   30 H    0 0 0
  36 H    1     2.5717     4.8598   84 O    0 0 0
  36 H    1     2.7349     5.1682   10 B   -1-1 0

  37 C    1     1.4020     2.6495   43 C    0 1 0
  37 C    1     1.4021     2.6495   39 C    0 0 0
  37 C    1     1.5504     2.9298    3 B    0 0 0
  37 C    1     2.1471     4.0575   17 H    0 1 0
  37 C    1     2.1472     4.0576   13 H    0 0 0
  37 C    1     2.4246     4.5817   41 C    0 1 0

  38 C    1     1.4020     2.6495   44 C    0 1 0
  38 C    1     1.4021     2.6495   40 C    0 0 0
  38 C    1     1.5504     2.9298    4 B    0 0 0
  38 C    1     2.1471     4.0575   18 H    0 1 0
  38 C    1     2.1472     4.0576   14 H    0 0 0
  38 C    1     2.4246     4.5817   42 C    0 1 0

  39 C    1     1.0913     2.0623   13 H    0 0 0
  39 C    1     1.3914     2.6294   45 C    0 0 0
  39 C    1     1.4021     2.6495   37 C    0 0 0
  39 C    1     2.1669     4.0948   19 H    0 0 0
  39 C    1     2.4177     4.5688   43 C    0 1 0
  39 C    1     2.4250     4.5825   47 C    0 1 0

  40 C    1     1.0913     2.0623   14 H    0 0 0
  40 C    1     1.3914     2.6294   46 C    0 0 0
  40 C    1     1.4021     2.6495   38 C    0 0 0
  40 C    1     2.1669     4.0948   20 H    0 0 0
  40 C    1     2.4177     4.5688   44 C    0 1 0
  40 C    1     2.4250     4.5825   48 C    0 1 0

  41 C    1     1.0914     2.0625   15 H    0 0 0
  41 C    1     1.3914     2.6293   43 C    0 0 0
  41 C    1     1.4026     2.6505   47 C    0 0 0
  41 C    1     2.1680     4.0970   17 H    0 0 0
  41 C    1     2.4182     4.5697   45 C    0-1 0
  41 C    1     2.4246     4.5817   37 C    0-1 0

  42 C    1     1.0914     2.0625   16 H    0 0 0
  42 C    1     1.3914     2.6293   44 C    0 0 0
  42 C    1     1.4026     2.6505   48 C    0 0 0
  42 C    1     2.1680     4.0970   18 H    0 0 0
  42 C    1     2.4182     4.5697   46 C    0-1 0
  42 C    1     2.4246     4.5817   38 C    0-1 0

  43 C    1     1.0914     2.0624   17 H    0 0 0
  43 C    1     1.3914     2.6293   41 C    0 0 0
  43 C    1     1.4020     2.6495   37 C    0-1 0
  43 C    1     2.1666     4.0942   15 H    0 0 0
  43 C    1     2.4177     4.5688   39 C    0-1 0
  43 C    1     2.4250     4.5826   47 C    0 0 0

  44 C    1     1.0914     2.0624   18 H    0 0 0
  44 C    1     1.3914     2.6293   42 C    0 0 0
  44 C    1     1.4020     2.6495   38 C    0-1 0
  44 C    1     2.1666     4.0942   16 H    0 0 0
  44 C    1     2.4177     4.5688   40 C    0-1 0
  44 C    1     2.4250     4.5826   48 C    0 0 0

  45 C    1     1.0915     2.0626   19 H    0 0 0
  45 C    1     1.3914     2.6294   39 C    0 0 0
  45 C    1     1.4025     2.6504   47 C    0 1 0
  45 C    1     2.1680     4.0969   13 H    0 0 0
  45 C    1     2.4182     4.5697   41 C    0 1 0
  45 C    1     2.4246     4.5818   37 C    0 0 0

  46 C    1     1.0915     2.0626   20 H    0 0 0
  46 C    1     1.3914     2.6294   40 C    0 0 0
  46 C    1     1.4025     2.6504   48 C    0 1 0
  46 C    1     2.1680     4.0969   14 H    0 0 0
  46 C    1     2.4182     4.5697   42 C    0 1 0
  46 C    1     2.4246     4.5818   38 C    0 0 0

  47 C    1     1.4025     2.6504   45 C    0-1 0
  47 C    1     1.4026     2.6505   41 C    0 0 0
  47 C    1     1.5513     2.9316    7 B    0 0 0
  47 C    1     2.1490     4.0610   19 H    0-1 0
  47 C    1     2.1493     4.0616   15 H    0 0 0
  47 C    1     2.4250     4.5825   39 C    0-1 0

  48 C    1     1.4025     2.6504   46 C    0-1 0
  48 C    1     1.4026     2.6505   42 C    0 0 0
  48 C    1     1.5513     2.9316    8 B    0 0 0
  48 C    1     2.1490     4.0610   20 H    0-1 0
  48 C    1     2.1493     4.0616   16 H    0 0 0
  48 C    1     2.4250     4.5825   40 C    0-1 0

  49 C    1     1.4020     2.6494   51 C    1 0 0
  49 C    1     1.4021     2.6495   55 C    0 0 0
  49 C    1     1.5503     2.9297    1 B    1 0 0
  49 C    1     2.1469     4.0571   21 H    1 0 0
  49 C    1     2.1475     4.0581   25 H    0 0 0
  49 C    1     2.4246     4.5818   53 C    0 0 0

  50 C    1     1.4020     2.6494   52 C    1 0 0
  50 C    1     1.4021     2.6495   56 C    0 0 0
  50 C    1     1.5503     2.9297    2 B    1 0 0
  50 C    1     2.1469     4.0571   22 H    1 0 0
  50 C    1     2.1475     4.0581   26 H    0 0 0
  50 C    1     2.4246     4.5818   54 C    0 0 0

  51 C    1     1.0913     2.0623   21 H    0 0 0
  51 C    1     1.3914     2.6293   57 C    0 0 0
  51 C    1     1.4020     2.6494   49 C   -1 0 0
  51 C    1     2.1666     4.0942   27 H    0 0 0
  51 C    1     2.4175     4.5684   55 C   -1 0 0
  51 C    1     2.4251     4.5828   59 C   -1 0 0

  52 C    1     1.0913     2.0623   22 H    0 0 0
  52 C    1     1.3914     2.6293   58 C    0 0 0
  52 C    1     1.4020     2.6494   50 C   -1 0 0
  52 C    1     2.1666     4.0942   28 H    0 0 0
  52 C    1     2.4175     4.5684   56 C   -1 0 0
  52 C    1     2.4251     4.5828   60 C   -1 0 0

  53 C    1     1.0914     2.0625   23 H    0 0 0
  53 C    1     1.3915     2.6295   55 C    0 0 0
  53 C    1     1.4026     2.6505   59 C    0 0 0
  53 C    1     2.1679     4.0967   25 H    0 0 0
  53 C    1     2.4179     4.5691   57 C    1 0 0
  53 C    1     2.4246     4.5818   49 C    0 0 0

  54 C    1     1.0914     2.0625   24 H    0 0 0
  54 C    1     1.3915     2.6295   56 C    0 0 0
  54 C    1     1.4026     2.6505   60 C    0 0 0
  54 C    1     2.1679     4.0967   26 H    0 0 0
  54 C    1     2.4179     4.5691   58 C    1 0 0
  54 C    1     2.4246     4.5818   50 C    0 0 0

  55 C    1     1.0914     2.0624   25 H    0 0 0
  55 C    1     1.3915     2.6295   53 C    0 0 0
  55 C    1     1.4021     2.6495   49 C    0 0 0
  55 C    1     2.1664     4.0939   23 H    0 0 0
  55 C    1     2.4175     4.5684   51 C    1 0 0
  55 C    1     2.4253     4.5832   59 C    0 0 0

  56 C    1     1.0914     2.0624   26 H    0 0 0
  56 C    1     1.3915     2.6295   54 C    0 0 0
  56 C    1     1.4021     2.6495   50 C    0 0 0
  56 C    1     2.1664     4.0939   24 H    0 0 0
  56 C    1     2.4175     4.5684   52 C    1 0 0
  56 C    1     2.4253     4.5832   60 C    0 0 0

  57 C    1     1.0914     2.0625   27 H    0 0 0
  57 C    1     1.3914     2.6293   51 C    0 0 0
  57 C    1     1.4025     2.6504   59 C   -1 0 0
  57 C    1     2.1680     4.0968   21 H    0 0 0
  57 C    1     2.4179     4.5691   53 C   -1 0 0
  57 C    1     2.4247     4.5819   49 C   -1 0 0

  58 C    1     1.0914     2.0625   28 H    0 0 0
  58 C    1     1.3914     2.6293   52 C    0 0 0
  58 C    1     1.4025     2.6504   60 C   -1 0 0
  58 C    1     2.1680     4.0968   22 H    0 0 0
  58 C    1     2.4179     4.5691   54 C   -1 0 0
  58 C    1     2.4247     4.5819   50 C   -1 0 0

  59 C    1     1.4025     2.6504   57 C    1 0 0
  59 C    1     1.4026     2.6505   53 C    0 0 0
  59 C    1     1.5516     2.9322   11 B    0 0 0
  59 C    1     2.1491     4.0612   27 H    1 0 0
  59 C    1     2.1493     4.0617   23 H    0 0 0
  59 C    1     2.4251     4.5828   51 C    1 0 0

  60 C    1     1.4025     2.6504   58 C    1 0 0
  60 C    1     1.4026     2.6505   54 C    0 0 0
  60 C    1     1.5516     2.9322   12 B    0 0 0
  60 C    1     2.1491     4.0612   28 H    1 0 0
  60 C    1     2.1493     4.0617   24 H    0 0 0
  60 C    1     2.4251     4.5828   52 C    1 0 0

  61 C    1     1.4021     2.6496   63 C    1 1 0
  61 C    1     1.4021     2.6497   67 C    0 0 0
  61 C    1     1.5502     2.9294    5 B    1 1 0
  61 C    1     2.1475     4.0582   29 H    1 1 0
  61 C    1     2.1479     4.0589   33 H    0 0 0
  61 C    1     2.4244     4.5814   65 C    0 0 0

  62 C    1     1.4021     2.6496   64 C    1 1 0
  62 C    1     1.4021     2.6497   68 C    0 0 0
  62 C    1     1.5502     2.9294    6 B    1 1 0
  62 C    1     2.1475     4.0582   30 H    1 1 0
  62 C    1     2.1479     4.0589   34 H    0 0 0
  62 C    1     2.4244     4.5814   66 C    0 0 0

  63 C    1     1.0914     2.0624   29 H    0 0 0
  63 C    1     1.3914     2.6293   69 C    0 0 0
  63 C    1     1.4021     2.6496   61 C   -1-1 0
  63 C    1     2.1668     4.0947   35 H    0 0 0
  63 C    1     2.4179     4.5692   67 C   -1-1 0
  63 C    1     2.4251     4.5827   71 C   -1-1 0

  64 C    1     1.0914     2.0624   30 H    0 0 0
  64 C    1     1.3914     2.6293   70 C    0 0 0
  64 C    1     1.4021     2.6496   62 C   -1-1 0
  64 C    1     2.1668     4.0947   36 H    0 0 0
  64 C    1     2.4179     4.5692   68 C   -1-1 0
  64 C    1     2.4251     4.5827   72 C   -1-1 0

  65 C    1     1.0913     2.0623   31 H    0 0 0
  65 C    1     1.3914     2.6294   67 C    0 0 0
  65 C    1     1.4025     2.6504   71 C    0 0 0
  65 C    1     2.1679     4.0968   33 H    0 0 0
  65 C    1     2.4178     4.5690   69 C    1 1 0
  65 C    1     2.4244     4.5814   61 C    0 0 0

  66 C    1     1.0913     2.0623   32 H    0 0 0
  66 C    1     1.3914     2.6294   68 C    0 0 0
  66 C    1     1.4025     2.6504   72 C    0 0 0
  66 C    1     2.1679     4.0968   34 H    0 0 0
  66 C    1     2.4178     4.5690   70 C    1 1 0
  66 C    1     2.4244     4.5814   62 C    0 0 0

  67 C    1     1.0915     2.0626   33 H    0 0 0
  67 C    1     1.3914     2.6294   65 C    0 0 0
  67 C    1     1.4021     2.6497   61 C    0 0 0
  67 C    1     2.1667     4.0945   31 H    0 0 0
  67 C    1     2.4179     4.5692   63 C    1 1 0
  67 C    1     2.4253     4.5832   71 C    0 0 0

  68 C    1     1.0915     2.0626   34 H    0 0 0
  68 C    1     1.3914     2.6294   66 C    0 0 0
  68 C    1     1.4021     2.6497   62 C    0 0 0
  68 C    1     2.1667     4.0945   32 H    0 0 0
  68 C    1     2.4179     4.5692   64 C    1 1 0
  68 C    1     2.4253     4.5832   72 C    0 0 0

  69 C    1     1.0914     2.0624   35 H    0 0 0
  69 C    1     1.3914     2.6293   63 C    0 0 0
  69 C    1     1.4025     2.6503   71 C   -1-1 0
  69 C    1     2.1678     4.0966   29 H    0 0 0
  69 C    1     2.4178     4.5690   65 C   -1-1 0
  69 C    1     2.4245     4.5817   61 C   -1-1 0

  70 C    1     1.0914     2.0624   36 H    0 0 0
  70 C    1     1.3914     2.6293   64 C    0 0 0
  70 C    1     1.4025     2.6503   72 C   -1-1 0
  70 C    1     2.1678     4.0966   30 H    0 0 0
  70 C    1     2.4178     4.5690   66 C   -1-1 0
  70 C    1     2.4245     4.5817   62 C   -1-1 0

  71 C    1     1.4025     2.6503   69 C    1 1 0
  71 C    1     1.4025     2.6504   65 C    0 0 0
  71 C    1     1.5516     2.9322    9 B    0 0 0
  71 C    1     2.1486     4.0602   35 H    1 1 0
  71 C    1     2.1487     4.0605   31 H    0 0 0
  71 C    1     2.4251     4.5827   63 C    1 1 0

  72 C    1     1.4025     2.6503   70 C    1 1 0
  72 C    1     1.4025     2.6504   66 C    0 0 0
  72 C    1     1.5516     2.9322   10 B    0 0 0
  72 C    1     2.1486     4.0602   36 H    1 1 0
  72 C    1     2.1487     4.0605   32 H    0 0 0
  72 C    1     2.4251     4.5827   64 C    1 1 0

  73 O    1     1.3791     2.6061    1 B    1 0 0
  73 O    1     1.3791     2.6061    5 B    1 1 0
  73 O    1     2.3880     4.5126   75 O    1 0 0
  73 O    1     2.3882     4.5130   77 O    1 1 0
  73 O    1     2.5383     4.7966   61 C    0 0 0
  73 O    1     2.5384     4.7968   49 C    0 0 0

  74 O    1     1.3791     2.6061    2 B    1 0 0
  74 O    1     1.3791     2.6061    6 B    1 1 0
  74 O    1     2.3880     4.5126   76 O    1 0 0
  74 O    1     2.3882     4.5130   78 O    1 1 0
  74 O    1     2.5383     4.7966   62 C    0 0 0
  74 O    1     2.5384     4.7968   50 C    0 0 0

  75 O    1     1.3793     2.6065    1 B    0 0 0
  75 O    1     1.3793     2.6065    3 B    0 0 0
  75 O    1     2.3880     4.5126   73 O   -1 0 0
  75 O    1     2.3882     4.5131   77 O    0 1 0
  75 O    1     2.5391     4.7981   37 C    0 0 0
  75 O    1     2.5395     4.7990   49 C   -1 0 0

  76 O    1     1.3793     2.6065    2 B    0 0 0
  76 O    1     1.3793     2.6065    4 B    0 0 0
  76 O    1     2.3880     4.5126   74 O   -1 0 0
  76 O    1     2.3882     4.5131   78 O    0 1 0
  76 O    1     2.5391     4.7981   38 C    0 0 0
  76 O    1     2.5395     4.7990   50 C   -1 0 0

  77 O    1     1.3793     2.6064    5 B    0 0 0
  77 O    1     1.3793     2.6065    3 B    0-1 0
  77 O    1     2.3882     4.5130   73 O   -1-1 0
  77 O    1     2.3882     4.5131   75 O    0-1 0
  77 O    1     2.5390     4.7980   37 C    0-1 0
  77 O    1     2.5391     4.7982   61 C   -1-1 0

  78 O    1     1.3793     2.6064    6 B    0 0 0
  78 O    1     1.3793     2.6065    4 B    0-1 0
  78 O    1     2.3882     4.5130   74 O   -1-1 0
  78 O    1     2.3882     4.5131   76 O    0-1 0
  78 O    1     2.5390     4.7980   38 C    0-1 0
  78 O    1     2.5391     4.7982   62 C   -1-1 0

  79 O    1     1.3795     2.6068   11 B    0 0 0
  79 O    1     1.3795     2.6068    7 B    0 0 0
  79 O    1     2.3880     4.5126   83 O    1 0 0
  79 O    1     2.3884     4.5134   81 O    0-1 0
  79 O    1     2.5400     4.7998   47 C    0 0 0
  79 O    1     2.5403     4.8005   59 C    0 0 0

  80 O    1     1.3795     2.6068   12 B    0 0 0
  80 O    1     1.3795     2.6068    8 B    0 0 0
  80 O    1     2.3880     4.5126   84 O    1 0 0
  80 O    1     2.3884     4.5134   82 O    0-1 0
  80 O    1     2.5400     4.7998   48 C    0 0 0
  80 O    1     2.5403     4.8005   60 C    0 0 0

  81 O    1     1.3795     2.6069    9 B    0 0 0
  81 O    1     1.3795     2.6070    7 B    0 1 0
  81 O    1     2.3881     4.5128   83 O    1 1 0
  81 O    1     2.3884     4.5134   79 O    0 1 0
  81 O    1     2.5404     4.8006   47 C    0 1 0
  81 O    1     2.5405     4.8008   71 C    0 0 0

  82 O    1     1.3795     2.6069   10 B    0 0 0
  82 O    1     1.3795     2.6070    8 B    0 1 0
  82 O    1     2.3881     4.5128   84 O    1 1 0
  82 O    1     2.3884     4.5134   80 O    0 1 0
  82 O    1     2.5404     4.8006   48 C    0 1 0
  82 O    1     2.5405     4.8008   72 C    0 0 0

  83 O    1     1.3796     2.6071   11 B   -1 0 0
  83 O    1     1.3797     2.6072    9 B   -1-1 0
  83 O    1     2.3880     4.5126   79 O   -1 0 0
  83 O    1     2.3881     4.5128   81 O   -1-1 0
  83 O    1     2.5409     4.8016   71 C   -1-1 0
  83 O    1     2.5410     4.8019   59 C   -1 0 0

  84 O    1     1.3796     2.6071   12 B   -1 0 0
  84 O    1     1.3797     2.6072   10 B   -1-1 0
  84 O    1     2.3880     4.5126   80 O   -1 0 0
  84 O    1     2.3881     4.5128   82 O   -1-1 0
  84 O    1     2.5409     4.8016   72 C   -1-1 0
  84 O    1     2.5410     4.8019   60 C   -1 0 0


 SYMMETRY ALLOWED INTERNAL DEGREE(S) OF FREEDOM: 249
 TTTTTTTTTTTTTTTTTTTTTTTTTTTTTT SYMM        TELAPSE        3.07 TCPU        3.06
 TTTTTTTTTTTTTTTTTTTTTTTTTTTTTT INT_SCREEN  TELAPSE        3.26 TCPU        3.25

 DFT PARAMETERS

     ATOM       ELECTRONS   NET CHARGE   R(ANGSTROM)
   1   5  B       5.0000      0.0000     0.89000000
  13   1  H       1.0000      0.0000     1.11000000
  37   6  C       6.0000      0.0000     0.77000000
  73   8  O       8.0000      0.0000     0.74000000

 SIZE OF GRID=    2663070
 TTTTTTTTTTTTTTTTTTTTTTTTTTTTTT MAKE_GRID2  TELAPSE       21.74 TCPU       21.71
 BECKE WEIGHT FUNCTION
 RADSAFE =     2.00
 TOLERANCES - DENSITY:10**- 6; POTENTIAL:10**- 9; GRID WGT:10**-14

 RADIAL INTEGRATION  - INTERVALS (POINTS,UPPER LIMIT):            1( 75,  4.0*R)

 ANGULAR INTEGRATION - INTERVALS (ACCURACY LEVEL [N. POINTS] UPPER LIMIT):
  1(  4[  86]   0.2)  2(  8[ 194]   0.5)  3( 12[ 350]   0.9)  4( 16[ 974]   3.5)
  5( 12[ 350]9999.0)
 TTTTTTTTTTTTTTTTTTTTTTTTTTTTTT INT_CALC    TELAPSE       22.09 TCPU       22.05
 EEEEEEEEEE INT_CALC TERMINATION  DATE 19 02 2026 TIME 20:28:40.5

 *******************************************************************************
 cof-1_z44_L000_serr                                                             
 CRYSTAL - SCF - TYPE OF CALCULATION :  RESTRICTED CLOSED SHELL
 *******************************************************************************

 CAPPA:IS1  2;IS2  2;IS3  8; K PTS MONK NET  20; SYMMOPS:K SPACE   2;G SPACE   1

 TTTTTTTTTTTTTTTTTTTTTTTTTTTTTT SDIK        TELAPSE       24.32 TCPU       51.84

 AAAAAAAAAAAAAAAAAAAAAAAAAAAAAAAAAAAAAAAAAAAAAAAAAAAAAAAAAAAAAAAAAAAAAAAAAAAAAAA
         ATOMIC WAVEFUNCTION(S)


 NUCLEAR CHARGE  5.0  SYMMETRY SPECIES            S    P
 N. ELECTRONS    5.0  NUMBER OF PRIMITIVE GTOS    8    4
                      NUMBER OF CONTRACTED GTOS   4    2
                      NUMBER OF CLOSED SHELLS     2    0
                      OPEN SHELL OCCUPATION       0    1

  ZNUC  SCFIT    TOTAL HF ENERGY   KINETIC ENERGY   VIRIAL THEOREM ACCURACY
   5.0    11    -2.451164084E+01  2.462155050E+01 -1.995536038E+00  1.5E-06

 NUCLEAR CHARGE  1.0  SYMMETRY SPECIES            S
 N. ELECTRONS    1.0  NUMBER OF PRIMITIVE GTOS    4
                      NUMBER OF CONTRACTED GTOS   2
                      NUMBER OF CLOSED SHELLS     0
                      OPEN SHELL OCCUPATION       1

  ZNUC  SCFIT    TOTAL HF ENERGY   KINETIC ENERGY   VIRIAL THEOREM ACCURACY
   1.0     1    -4.977266687E-01  5.190767460E-01 -1.958869132E+00  0.0E+00

 NUCLEAR CHARGE  6.0  SYMMETRY SPECIES            S    P
 N. ELECTRONS    6.0  NUMBER OF PRIMITIVE GTOS    8    4
                      NUMBER OF CONTRACTED GTOS   4    2
                      NUMBER OF CLOSED SHELLS     2    0
                      OPEN SHELL OCCUPATION       0    2

  ZNUC  SCFIT    TOTAL HF ENERGY   KINETIC ENERGY   VIRIAL THEOREM ACCURACY
   6.0     9    -3.766704647E+01  3.775180683E+01 -1.997754800E+00  1.1E-06

 NUCLEAR CHARGE  8.0  SYMMETRY SPECIES            S    P
 N. ELECTRONS    8.0  NUMBER OF PRIMITIVE GTOS    8    4
                      NUMBER OF CONTRACTED GTOS   4    2
                      NUMBER OF CLOSED SHELLS     2    0
                      OPEN SHELL OCCUPATION       0    4

  ZNUC  SCFIT    TOTAL HF ENERGY   KINETIC ENERGY   VIRIAL THEOREM ACCURACY
   8.0    12    -7.477373220E+01  7.477365593E+01 -2.000001020E+00  3.8E-06

 AAAAAAAAAAAAAAAAAAAAAAAAAAAAAAAAAAAAAAAAAAAAAAAAAAAAAAAAAAAAAAAAAAAAAAAAAAAAAAA

 CHARGE NORMALIZATION FACTOR   1.00000000
 TOTAL ATOMIC CHARGES:
   5.0000000   5.0000000   5.0000000   5.0000000   5.0000000   5.0000000
   5.0000000   5.0000000   5.0000000   5.0000000   5.0000000   5.0000000
   1.0000000   1.0000000   1.0000000   1.0000000   1.0000000   1.0000000
   1.0000000   1.0000000   1.0000000   1.0000000   1.0000000   1.0000000
   1.0000000   1.0000000   1.0000000   1.0000000   1.0000000   1.0000000
   1.0000000   1.0000000   1.0000000   1.0000000   1.0000000   1.0000000
   6.0000000   6.0000000   6.0000000   6.0000000   6.0000000   6.0000000
   6.0000000   6.0000000   6.0000000   6.0000000   6.0000000   6.0000000
   6.0000000   6.0000000   6.0000000   6.0000000   6.0000000   6.0000000
   6.0000000   6.0000000   6.0000000   6.0000000   6.0000000   6.0000000
   6.0000000   6.0000000   6.0000000   6.0000000   6.0000000   6.0000000
   6.0000000   6.0000000   6.0000000   6.0000000   6.0000000   6.0000000
   8.0000000   8.0000000   8.0000000   8.0000000   8.0000000   8.0000000
   8.0000000   8.0000000   8.0000000   8.0000000   8.0000000   8.0000000
 TTTTTTTTTTTTTTTTTTTTTTTTTTTTTT MOQGAD      TELAPSE       24.43 TCPU       55.39
 TTTTTTTTTTTTTTTTTTTTTTTTTTTTTT SHELLXN     TELAPSE       40.88 TCPU      581.41
 TTTTTTTTTTTTTTTTTTTTTTTTTTTTTT MONMO3      TELAPSE       41.45 TCPU      599.36
 NUMERICALLY INTEGRATED DENSITY    395.9999056738
 TTTTTTTTTTTTTTTTTTTTTTTTTTTTTT NUMDFT      TELAPSE       43.01 TCPU      649.29
 CYC   0 ETOT(AU) -2.591909565036E+03 DETOT -2.59E+03 tst  0.00E+00 PX  1.00E+00
 TTTTTTTTTTTTTTTTTTTTTTTTTTTTTT DIIS        TELAPSE       43.11 TCPU      652.64
 TTTTTTTTTTTTTTTTTTTTTTTTTTTTTT FDIK        TELAPSE       45.08 TCPU      715.31
 INSULATING STATE
 TOP OF VALENCE BANDS -    BAND    198; K    1; EIG -3.1108942E-01 AU
 BOTTOM OF VIRTUAL BANDS - BAND    199; K    1; EIG -1.6200576E-01 AU
 DIRECT ENERGY BAND GAP:   4.0568 eV
 TTTTTTTTTTTTTTTTTTTTTTTTTTTTTT PDIG        TELAPSE       47.12 TCPU      722.25
 CHARGE NORMALIZATION FACTOR   1.00000000
 TOTAL ATOMIC CHARGES:
   4.1598270   4.1598269   4.1596525   4.1596526   4.1599055   4.1599055
   4.1595233   4.1595233   4.1592942   4.1592941   4.1594806   4.1594805
   0.7852800   0.7852800   0.7853945   0.7853945   0.7852383   0.7852383
   0.7853565   0.7853565   0.7852595   0.7852596   0.7854236   0.7854237
   0.7852486   0.7852486   0.7853867   0.7853867   0.7852408   0.7852408
   0.7854214   0.7854214   0.7852319   0.7852319   0.7853877   0.7853877
   6.0452501   6.0452500   6.2660342   6.2660342   6.2659953   6.2659952
   6.2659815   6.2659815   6.2659211   6.2659211   6.0445119   6.0445119
   6.0452992   6.0452993   6.2660152   6.2660152   6.2660872   6.2660871
   6.2659255   6.2659255   6.2661042   6.2661041   6.0440835   6.0440836
   6.0456067   6.0456068   6.2657483   6.2657483   6.2662911   6.2662911
   6.2656639   6.2656639   6.2662737   6.2662736   6.0440460   6.0440461
   8.6926583   8.6926583   8.6927713   8.6927713   8.6927161   8.6927161
   8.6930844   8.6930844   8.6931161   8.6931161   8.6932627   8.6932627
 TTTTTTTTTTTTTTTTTTTTTTTTTTTTTT MOQGAD      TELAPSE       47.24 TCPU      722.36
 TTTTTTTTTTTTTTTTTTTTTTTTTTTTTT SHELLXN     TELAPSE       64.38 TCPU     1268.98
 TTTTTTTTTTTTTTTTTTTTTTTTTTTTTT MONMO3      TELAPSE       64.94 TCPU     1286.94
 NUMERICALLY INTEGRATED DENSITY    395.9999202082
 TTTTTTTTTTTTTTTTTTTTTTTTTTTTTT NUMDFT      TELAPSE       66.54 TCPU     1338.18
 CYC   1 ETOT(AU) -2.577609462252E+03 DETOT  1.43E+01 tst  0.00E+00 PX  1.00E+00
 TTTTTTTTTTTTTTTTTTTTTTTTTTTTTT DIIS        TELAPSE       66.68 TCPU     1342.47
 DIIS TEST: 0.22753E+01 AT SCF   CYCLE   1 - MIX   30 %
 TTTTTTTTTTTTTTTTTTTTTTTTTTTTTT FDIK        TELAPSE       68.68 TCPU     1406.51
 INSULATING STATE
 TOP OF VALENCE BANDS -    BAND    198; K    1; EIG -2.1694283E-01 AU
 BOTTOM OF VIRTUAL BANDS - BAND    199; K    1; EIG -8.4733493E-02 AU
 DIRECT ENERGY BAND GAP:   3.5976 eV
 TTTTTTTTTTTTTTTTTTTTTTTTTTTTTT PDIG        TELAPSE       70.65 TCPU     1413.38
 CHARGE NORMALIZATION FACTOR   1.00000000
 TOTAL ATOMIC CHARGES:
   4.7165692   4.7165691   4.7164536   4.7164536   4.7164779   4.7164779
   4.7168013   4.7168013   4.7167761   4.7167761   4.7168393   4.7168393
   0.9171537   0.9171537   0.9172157   0.9172157   0.9171296   0.9171296
   0.9171628   0.9171629   0.9171551   0.9171551   0.9172193   0.9172193
   0.9171396   0.9171397   0.9172016   0.9172016   0.9171151   0.9171151
   0.9172352   0.9172352   0.9170990   0.9170990   0.9172265   0.9172265
   5.8615657   5.8615657   6.1253166   6.1253166   6.1258452   6.1258451
   6.1251647   6.1251647   6.1258041   6.1258041   5.8643730   5.8643729
   5.8613821   5.8613822   6.1250388   6.1250387   6.1258314   6.1258314
   6.1252632   6.1252632   6.1256825   6.1256825   5.8648325   5.8648325
   5.8615004   5.8615005   6.1252743   6.1252744   6.1256502   6.1256501
   6.1255205   6.1255205   6.1255449   6.1255448   5.8645848   5.8645849
   8.3348158   8.3348159   8.3351971   8.3351971   8.3351560   8.3351560
   8.3346959   8.3346959   8.3348874   8.3348874   8.3351024   8.3351024
 TTTTTTTTTTTTTTTTTTTTTTTTTTTTTT MOQGAD      TELAPSE       70.76 TCPU     1413.49
 TTTTTTTTTTTTTTTTTTTTTTTTTTTTTT SHELLXN     TELAPSE       88.01 TCPU     1963.34
 TTTTTTTTTTTTTTTTTTTTTTTTTTTTTT MONMO3      TELAPSE       88.56 TCPU     1981.11
 NUMERICALLY INTEGRATED DENSITY    395.9998980006
 TTTTTTTTTTTTTTTTTTTTTTTTTTTTTT NUMDFT      TELAPSE       90.13 TCPU     2031.25
 CYC   2 ETOT(AU) -2.578000768946E+03 DETOT -3.91E-01 tst  4.60E-03 PX  1.58E-01
 TTTTTTTTTTTTTTTTTTTTTTTTTTTTTT DIIS        TELAPSE       90.29 TCPU     2036.33
 DIIS TEST: 0.96168E+00 AT SCF   CYCLE   2 - DIIS ACTIVE - HISTORY:     2 CYCLES
 TTTTTTTTTTTTTTTTTTTTTTTTTTTTTT FDIK        TELAPSE       92.29 TCPU     2100.28
 INSULATING STATE
 TOP OF VALENCE BANDS -    BAND    198; K    1; EIG -2.3192257E-01 AU
 BOTTOM OF VIRTUAL BANDS - BAND    199; K    1; EIG -8.0459883E-02 AU
 DIRECT ENERGY BAND GAP:   4.1215 eV
 TTTTTTTTTTTTTTTTTTTTTTTTTTTTTT PDIG        TELAPSE       94.32 TCPU     2107.21
 CHARGE NORMALIZATION FACTOR   1.00000000
 TOTAL ATOMIC CHARGES:
   4.5045505   4.5045504   4.5043542   4.5043542   4.5044928   4.5044927
   4.5039199   4.5039199   4.5037426   4.5037426   4.5038005   4.5038005
   0.8910598   0.8910598   0.8911930   0.8911930   0.8910260   0.8910260
   0.8911500   0.8911500   0.8910098   0.8910098   0.8912339   0.8912339
   0.8910563   0.8910563   0.8911617   0.8911618   0.8910230   0.8910230
   0.8912029   0.8912029   0.8910661   0.8910661   0.8911576   0.8911576
   5.8888331   5.8888331   6.1594054   6.1594054   6.1586910   6.1586909
   6.1593012   6.1593012   6.1585661   6.1585661   5.8874916   5.8874915
   5.8889657   5.8889658   6.1593978   6.1593978   6.1586435   6.1586435
   6.1593895   6.1593894   6.1585760   6.1585760   5.8872280   5.8872281
   5.8891221   5.8891222   6.1592703   6.1592704   6.1587236   6.1587236
   6.1592909   6.1592909   6.1586472   6.1586471   5.8871970   5.8871971
   8.5073248   8.5073248   8.5075020   8.5075020   8.5074803   8.5074803
   8.5074911   8.5074911   8.5075750   8.5075750   8.5076862   8.5076862
 TTTTTTTTTTTTTTTTTTTTTTTTTTTTTT MOQGAD      TELAPSE       94.44 TCPU     2107.32
 TTTTTTTTTTTTTTTTTTTTTTTTTTTTTT SHELLXN     TELAPSE      111.63 TCPU     2655.52
 TTTTTTTTTTTTTTTTTTTTTTTTTTTTTT MONMO3      TELAPSE      112.19 TCPU     2673.62
 NUMERICALLY INTEGRATED DENSITY    395.9998999233
 TTTTTTTTTTTTTTTTTTTTTTTTTTTTTT NUMDFT      TELAPSE      113.78 TCPU     2724.16
 CYC   3 ETOT(AU) -2.578200051313E+03 DETOT -1.99E-01 tst  7.42E-04 PX  6.07E-02
 TTTTTTTTTTTTTTTTTTTTTTTTTTTTTT DIIS        TELAPSE      113.96 TCPU     2729.99
 DIIS TEST: 0.22367E-01 AT SCF   CYCLE   3 - DIIS ACTIVE - HISTORY:     3 CYCLES
 TTTTTTTTTTTTTTTTTTTTTTTTTTTTTT FDIK        TELAPSE      115.94 TCPU     2793.29
 INSULATING STATE
 TOP OF VALENCE BANDS -    BAND    198; K    1; EIG -2.4205592E-01 AU
 BOTTOM OF VIRTUAL BANDS - BAND    199; K    1; EIG -8.9639107E-02 AU
 DIRECT ENERGY BAND GAP:   4.1475 eV
 TTTTTTTTTTTTTTTTTTTTTTTTTTTTTT PDIG        TELAPSE      117.97 TCPU     2800.22
 CHARGE NORMALIZATION FACTOR   1.00000000
 TOTAL ATOMIC CHARGES:
   4.5111560   4.5111559   4.5109889   4.5109889   4.5111128   4.5111127
   4.5113222   4.5113222   4.5111607   4.5111607   4.5112420   4.5112420
   0.8743843   0.8743843   0.8744214   0.8744214   0.8743567   0.8743567
   0.8743679   0.8743680   0.8743793   0.8743793   0.8744275   0.8744275
   0.8743973   0.8743974   0.8743797   0.8743798   0.8743596   0.8743596
   0.8744219   0.8744219   0.8743768   0.8743768   0.8743962   0.8743962
   5.9382103   5.9382103   6.1606974   6.1606974   6.1618588   6.1618587
   6.1605633   6.1605634   6.1618191   6.1618191   5.9422049   5.9422049
   5.9379538   5.9379539   6.1604911   6.1604911   6.1619472   6.1619472
   6.1605023   6.1605023   6.1618919   6.1618918   5.9424683   5.9424683
   5.9382002   5.9382003   6.1605281   6.1605282   6.1619061   6.1619060
   6.1605665   6.1605665   6.1618544   6.1618543   5.9422605   5.9422606
   8.4771561   8.4771561   8.4774570   8.4774570   8.4774149   8.4774149
   8.4773045   8.4773045   8.4774363   8.4774363   8.4776557   8.4776557
 TTTTTTTTTTTTTTTTTTTTTTTTTTTTTT MOQGAD      TELAPSE      118.08 TCPU     2800.33
 TTTTTTTTTTTTTTTTTTTTTTTTTTTTTT SHELLXN     TELAPSE      135.24 TCPU     3347.66
 TTTTTTTTTTTTTTTTTTTTTTTTTTTTTT MONMO3      TELAPSE      135.81 TCPU     3365.63
 NUMERICALLY INTEGRATED DENSITY    395.9999021530
 TTTTTTTTTTTTTTTTTTTTTTTTTTTTTT NUMDFT      TELAPSE      137.42 TCPU     3417.12
 CYC   4 ETOT(AU) -2.578204561447E+03 DETOT -4.51E-03 tst  2.83E-05 PX  1.19E-02
 TTTTTTTTTTTTTTTTTTTTTTTTTTTTTT DIIS        TELAPSE      137.63 TCPU     3423.57
 DIIS TEST: 0.78510E-02 AT SCF   CYCLE   4 - DIIS ACTIVE - HISTORY:     4 CYCLES
 TTTTTTTTTTTTTTTTTTTTTTTTTTTTTT FDIK        TELAPSE      139.63 TCPU     3487.18
 INSULATING STATE
 TOP OF VALENCE BANDS -    BAND    198; K    1; EIG -2.4022070E-01 AU
 BOTTOM OF VIRTUAL BANDS - BAND    199; K    1; EIG -8.8781476E-02 AU
 DIRECT ENERGY BAND GAP:   4.1209 eV
 TTTTTTTTTTTTTTTTTTTTTTTTTTTTTT PDIG        TELAPSE      141.60 TCPU     3494.04
 CHARGE NORMALIZATION FACTOR   1.00000000
 TOTAL ATOMIC CHARGES:
   4.5130279   4.5130278   4.5128432   4.5128433   4.5129715   4.5129714
   4.5125746   4.5125746   4.5124152   4.5124152   4.5124795   4.5124795
   0.8777881   0.8777881   0.8779679   0.8779679   0.8777526   0.8777526
   0.8779258   0.8779259   0.8777502   0.8777502   0.8780033   0.8780033
   0.8777750   0.8777751   0.8779498   0.8779499   0.8777466   0.8777466
   0.8779851   0.8779851   0.8777711   0.8777711   0.8779527   0.8779527
   5.9187801   5.9187801   6.1637688   6.1637688   6.1627071   6.1627070
   6.1636610   6.1636611   6.1626068   6.1626067   5.9166158   5.9166158
   5.9188735   5.9188736   6.1637092   6.1637092   6.1626676   6.1626676
   6.1637609   6.1637608   6.1625587   6.1625587   5.9164784   5.9164785
   5.9190096   5.9190097   6.1636533   6.1636533   6.1627016   6.1627015
   6.1637372   6.1637371   6.1625925   6.1625924   5.9164106   5.9164107
   8.4873688   8.4873688   8.4875818   8.4875818   8.4875478   8.4875478
   8.4873933   8.4873933   8.4875036   8.4875036   8.4876318   8.4876319
 TTTTTTTTTTTTTTTTTTTTTTTTTTTTTT MOQGAD      TELAPSE      141.71 TCPU     3494.16
 TTTTTTTTTTTTTTTTTTTTTTTTTTTTTT SHELLXN     TELAPSE      158.87 TCPU     4041.50
 TTTTTTTTTTTTTTTTTTTTTTTTTTTTTT MONMO3      TELAPSE      159.43 TCPU     4059.32
 NUMERICALLY INTEGRATED DENSITY    395.9999018310
 TTTTTTTTTTTTTTTTTTTTTTTTTTTTTT NUMDFT      TELAPSE      161.02 TCPU     4110.33
 CYC   5 ETOT(AU) -2.578206312000E+03 DETOT -1.75E-03 tst  5.87E-06 PX  7.03E-03
 TTTTTTTTTTTTTTTTTTTTTTTTTTTTTT DIIS        TELAPSE      161.26 TCPU     4116.76
 DIIS TEST: 0.20090E-03 AT SCF   CYCLE   5 - DIIS ACTIVE - HISTORY:     5 CYCLES
 TTTTTTTTTTTTTTTTTTTTTTTTTTTTTT FDIK        TELAPSE      163.26 TCPU     4180.42
 INSULATING STATE
 TOP OF VALENCE BANDS -    BAND    198; K    1; EIG -2.4000222E-01 AU
 BOTTOM OF VIRTUAL BANDS - BAND    199; K    1; EIG -8.8176312E-02 AU
 DIRECT ENERGY BAND GAP:   4.1314 eV
 TTTTTTTTTTTTTTTTTTTTTTTTTTTTTT PDIG        TELAPSE      165.29 TCPU     4187.35
 CHARGE NORMALIZATION FACTOR   1.00000000
 TOTAL ATOMIC CHARGES:
   4.5123560   4.5123559   4.5121798   4.5121799   4.5123050   4.5123050
   4.5125381   4.5125381   4.5123782   4.5123782   4.5124513   4.5124512
   0.8788572   0.8788572   0.8788354   0.8788354   0.8788291   0.8788291
   0.8787859   0.8787860   0.8788410   0.8788410   0.8788491   0.8788491
   0.8788702   0.8788703   0.8787927   0.8787927   0.8788307   0.8788307
   0.8788384   0.8788384   0.8788583   0.8788583   0.8788042   0.8788042
   5.9155286   5.9155286   6.1615759   6.1615759   6.1634132   6.1634131
   6.1614455   6.1614456   6.1633385   6.1633384   5.9211745   5.9211745
   5.9153213   5.9153214   6.1614181   6.1614181   6.1634736   6.1634736
   6.1613771   6.1613771   6.1634526   6.1634526   5.9213386   5.9213387
   5.9155684   5.9155685   6.1614108   6.1614108   6.1634594   6.1634593
   6.1613921   6.1613921   6.1634456   6.1634455   5.9211612   5.9211614
   8.4864483   8.4864484   8.4867275   8.4867275   8.4866978   8.4866978
   8.4867349   8.4867350   8.4868444   8.4868444   8.4870513   8.4870514
 TTTTTTTTTTTTTTTTTTTTTTTTTTTTTT MOQGAD      TELAPSE      165.40 TCPU     4187.46
 TTTTTTTTTTTTTTTTTTTTTTTTTTTTTT SHELLXN     TELAPSE      182.61 TCPU     4736.26
 TTTTTTTTTTTTTTTTTTTTTTTTTTTTTT MONMO3      TELAPSE      183.17 TCPU     4754.14
 NUMERICALLY INTEGRATED DENSITY    395.9999017417
 TTTTTTTTTTTTTTTTTTTTTTTTTTTTTT NUMDFT      TELAPSE      184.73 TCPU     4804.06
 CYC   6 ETOT(AU) -2.578206320603E+03 DETOT -8.60E-06 tst  9.26E-07 PX  1.11E-03
 TTTTTTTTTTTTTTTTTTTTTTTTTTTTTT DIIS        TELAPSE      184.99 TCPU     4810.55
 DIIS TEST: 0.15641E-03 AT SCF   CYCLE   6 - DIIS ACTIVE - HISTORY:     6 CYCLES
 TTTTTTTTTTTTTTTTTTTTTTTTTTTTTT FDIK        TELAPSE      186.99 TCPU     4874.27
 INSULATING STATE
 TOP OF VALENCE BANDS -    BAND    198; K    1; EIG -2.3999675E-01 AU
 BOTTOM OF VIRTUAL BANDS - BAND    199; K    1; EIG -8.8213898E-02 AU
 DIRECT ENERGY BAND GAP:   4.1302 eV
 TTTTTTTTTTTTTTTTTTTTTTTTTTTTTT PDIG        TELAPSE      188.96 TCPU     4881.14
 CHARGE NORMALIZATION FACTOR   1.00000000
 TOTAL ATOMIC CHARGES:
   4.5127168   4.5127167   4.5125352   4.5125353   4.5126628   4.5126627
   4.5124194   4.5124194   4.5122586   4.5122586   4.5123275   4.5123275
   0.8787691   0.8787691   0.8788995   0.8788995   0.8787376   0.8787376
   0.8788531   0.8788532   0.8787424   0.8787424   0.8789237   0.8789237
   0.8787679   0.8787679   0.8788704   0.8788705   0.8787359   0.8787359
   0.8789085   0.8789085   0.8787600   0.8787600   0.8788773   0.8788773
   5.9186431   5.9186431   6.1625199   6.1625199   6.1621816   6.1621815
   6.1623981   6.1623981   6.1620992   6.1620991   5.9184993   5.9184993
   5.9186072   5.9186073   6.1624078   6.1624078   6.1621948   6.1621948
   6.1624376   6.1624376   6.1621073   6.1621073   5.9184927   5.9184927
   5.9187944   5.9187945   6.1623726   6.1623727   6.1622093   6.1622092
   6.1624333   6.1624333   6.1621208   6.1621206   5.9183740   5.9183741
   8.4865418   8.4865418   8.4867805   8.4867805   8.4867458   8.4867458
   8.4866292   8.4866292   8.4867428   8.4867428   8.4869014   8.4869014
 TTTTTTTTTTTTTTTTTTTTTTTTTTTTTT MOQGAD      TELAPSE      189.08 TCPU     4881.25
 TTTTTTTTTTTTTTTTTTTTTTTTTTTTTT SHELLXN     TELAPSE      206.30 TCPU     5430.56
 TTTTTTTTTTTTTTTTTTTTTTTTTTTTTT MONMO3      TELAPSE      206.87 TCPU     5448.70
 NUMERICALLY INTEGRATED DENSITY    395.9999017363
 TTTTTTTTTTTTTTTTTTTTTTTTTTTTTT NUMDFT      TELAPSE      208.46 TCPU     5499.54
 CYC   7 ETOT(AU) -2.578206360823E+03 DETOT -4.02E-05 tst  5.01E-07 PX  7.98E-04
 TTTTTTTTTTTTTTTTTTTTTTTTTTTTTT DIIS        TELAPSE      208.74 TCPU     5505.96
 DIIS TEST: 0.56350E-05 AT SCF   CYCLE   7 - DIIS ACTIVE - HISTORY:     7 CYCLES
 TTTTTTTTTTTTTTTTTTTTTTTTTTTTTT FDIK        TELAPSE      210.72 TCPU     5569.01
 INSULATING STATE
 TOP OF VALENCE BANDS -    BAND    198; K    1; EIG -2.4000168E-01 AU
 BOTTOM OF VIRTUAL BANDS - BAND    199; K    1; EIG -8.8275112E-02 AU
 DIRECT ENERGY BAND GAP:   4.1287 eV
 TTTTTTTTTTTTTTTTTTTTTTTTTTTTTT PDIG        TELAPSE      212.75 TCPU     5575.94
 CHARGE NORMALIZATION FACTOR   1.00000000
 TOTAL ATOMIC CHARGES:
   4.5128250   4.5128249   4.5126426   4.5126426   4.5127701   4.5127701
   4.5126036   4.5126035   4.5124432   4.5124432   4.5125107   4.5125107
   0.8787239   0.8787239   0.8788269   0.8788269   0.8786910   0.8786910
   0.8787820   0.8787821   0.8786934   0.8786934   0.8788549   0.8788549
   0.8787204   0.8787204   0.8788001   0.8788001   0.8786877   0.8786877
   0.8788390   0.8788390   0.8787137   0.8787137   0.8788058   0.8788058
   5.9181456   5.9181456   6.1623200   6.1623200   6.1623343   6.1623341
   6.1622052   6.1622052   6.1622440   6.1622440   5.9188926   5.9188926
   5.9181354   5.9181355   6.1622270   6.1622270   6.1623285   6.1623285
   6.1622478   6.1622477   6.1622493   6.1622492   5.9188610   5.9188610
   5.9183097   5.9183098   6.1621889   6.1621889   6.1623456   6.1623455
   6.1622383   6.1622383   6.1622685   6.1622684   5.9187545   5.9187546
   8.4865995   8.4865995   8.4868368   8.4868368   8.4868035   8.4868035
   8.4867171   8.4867171   8.4868285   8.4868285   8.4869845   8.4869845
 TTTTTTTTTTTTTTTTTTTTTTTTTTTTTT MOQGAD      TELAPSE      212.86 TCPU     5576.05
 TTTTTTTTTTTTTTTTTTTTTTTTTTTTTT SHELLXN     TELAPSE      230.08 TCPU     6125.06
 TTTTTTTTTTTTTTTTTTTTTTTTTTTTTT MONMO3      TELAPSE      230.64 TCPU     6143.21
 NUMERICALLY INTEGRATED DENSITY    395.9999017324
 TTTTTTTTTTTTTTTTTTTTTTTTTTTTTT NUMDFT      TELAPSE      232.25 TCPU     6194.56
 CYC   8 ETOT(AU) -2.578206361855E+03 DETOT -1.03E-06 tst  1.08E-08 PX  1.35E-04
 TTTTTTTTTTTTTTTTTTTTTTTTTTTTTT DIIS        TELAPSE      232.56 TCPU     6201.09
 DIIS TEST: 0.99384E-07 AT SCF   CYCLE   8 - DIIS ACTIVE - HISTORY:     8 CYCLES
 TTTTTTTTTTTTTTTTTTTTTTTTTTTTTT FDIK        TELAPSE      234.55 TCPU     6264.35
 INSULATING STATE
 TOP OF VALENCE BANDS -    BAND    198; K    1; EIG -2.4001399E-01 AU
 BOTTOM OF VIRTUAL BANDS - BAND    199; K    1; EIG -8.8264899E-02 AU
 DIRECT ENERGY BAND GAP:   4.1293 eV
 TTTTTTTTTTTTTTTTTTTTTTTTTTTTTT PDIG        TELAPSE      236.58 TCPU     6271.28
 CHARGE NORMALIZATION FACTOR   1.00000000
 TOTAL ATOMIC CHARGES:
   4.5128013   4.5128012   4.5126215   4.5126215   4.5127480   4.5127480
   4.5125763   4.5125763   4.5124163   4.5124163   4.5124858   4.5124858
   0.8787038   0.8787038   0.8788139   0.8788139   0.8786729   0.8786729
   0.8787671   0.8787671   0.8786790   0.8786790   0.8788362   0.8788362
   0.8787051   0.8787052   0.8787824   0.8787824   0.8786717   0.8786717
   0.8788219   0.8788219   0.8786965   0.8786965   0.8787901   0.8787901
   5.9181243   5.9181243   6.1624180   6.1624180   6.1623827   6.1623826
   6.1622947   6.1622948   6.1623014   6.1623014   5.9187800   5.9187800
   5.9180556   5.9180557   6.1622975   6.1622975   6.1624045   6.1624044
   6.1623125   6.1623125   6.1623313   6.1623313   5.9188063   5.9188064
   5.9182533   5.9182534   6.1622681   6.1622681   6.1624129   6.1624128
   6.1623124   6.1623124   6.1623406   6.1623405   5.9186770   5.9186771
   8.4865725   8.4865725   8.4868188   8.4868188   8.4867856   8.4867856
   8.4866893   8.4866893   8.4868014   8.4868014   8.4869692   8.4869692
 TTTTTTTTTTTTTTTTTTTTTTTTTTTTTT MOQGAD      TELAPSE      236.70 TCPU     6271.39
 TTTTTTTTTTTTTTTTTTTTTTTTTTTTTT SHELLXN     TELAPSE      253.88 TCPU     6819.35
 TTTTTTTTTTTTTTTTTTTTTTTTTTTTTT MONMO3      TELAPSE      254.45 TCPU     6837.57
 NUMERICALLY INTEGRATED DENSITY    395.9999017320
 TTTTTTTTTTTTTTTTTTTTTTTTTTTTTT NUMDFT      TELAPSE      256.07 TCPU     6889.17
 CYC   9 ETOT(AU) -2.578206362034E+03 DETOT -1.79E-07 tst  3.11E-10 PX  2.73E-05
 TTTTTTTTTTTTTTTTTTTTTTTTTTTTTT DIIS        TELAPSE      256.40 TCPU     6895.51
 DIIS TEST: 0.38568E-07 AT SCF   CYCLE   9 - DIIS ACTIVE - HISTORY:     9 CYCLES
 TTTTTTTTTTTTTTTTTTTTTTTTTTTTTT FDIK        TELAPSE      258.40 TCPU     6959.14
 INSULATING STATE
 TOP OF VALENCE BANDS -    BAND    198; K    1; EIG -2.4000809E-01 AU
 BOTTOM OF VIRTUAL BANDS - BAND    199; K    1; EIG -8.8265159E-02 AU
 DIRECT ENERGY BAND GAP:   4.1291 eV
 TTTTTTTTTTTTTTTTTTTTTTTTTTTTTT PDIG        TELAPSE      260.43 TCPU     6966.06
 CHARGE NORMALIZATION FACTOR   1.00000000
 TOTAL ATOMIC CHARGES:
   4.5127939   4.5127938   4.5126121   4.5126121   4.5127395   4.5127394
   4.5125687   4.5125686   4.5124082   4.5124082   4.5124764   4.5124764
   0.8787142   0.8787142   0.8788197   0.8788197   0.8786820   0.8786819
   0.8787741   0.8787742   0.8786856   0.8786856   0.8788458   0.8788458
   0.8787119   0.8787119   0.8787917   0.8787918   0.8786794   0.8786794
   0.8788303   0.8788303   0.8787047   0.8787047   0.8787981   0.8787981
   5.9181428   5.9181428   6.1623725   6.1623725   6.1623656   6.1623654
   6.1622543   6.1622544   6.1622789   6.1622788   5.9188501   5.9188501
   5.9181181   5.9181182   6.1622701   6.1622701   6.1623693   6.1623692
   6.1622936   6.1622935   6.1622873   6.1622873   5.9188325   5.9188326
   5.9182993   5.9182994   6.1622337   6.1622337   6.1623847   6.1623846
   6.1622866   6.1622866   6.1623037   6.1623036   5.9187195   5.9187197
   8.4865882   8.4865882   8.4868268   8.4868268   8.4867929   8.4867929
   8.4867036   8.4867036   8.4868160   8.4868160   8.4869739   8.4869740
 TTTTTTTTTTTTTTTTTTTTTTTTTTTTTT MOQGAD      TELAPSE      260.54 TCPU     6966.17
 TTTTTTTTTTTTTTTTTTTTTTTTTTTTTT SHELLXN     TELAPSE      277.73 TCPU     7514.41
 +++ ENERGIES IN A.U. +++
 ::: EXT EL-POLE                                  -2.2469369298623E+03
 ::: EXT EL-SPHEROPOLE                             2.5971431898103E+01
 ::: BIELET ZONE E-E                               4.0754314502210E+03
 ::: TOTAL E-E                                     1.8544659522568E+03
 ::: TOTAL E-N + N-E                              -7.3727105872005E+03
 ::: TOTAL N-N                                     6.4758624932242E+02
 ::: KINETIC ENERGY                                2.5598851080757E+03
 ::: PSEUDO TOTAL   ENERGY                        -2.3107732775457E+03
 ::: VIRIAL COEFFICIENT                            1.0511454121409E+00
 TTTTTTTTTTTTTTTTTTTTTTTTTTTTTT MONMO3      TELAPSE      278.28 TCPU     7532.17
 NUMERICALLY INTEGRATED DENSITY    395.9999017316
 EXCHANGE ENERGY: -0.252054899918E+03  CORRELATION ENERGY: -0.153781845328E+02
 TTTTTTTTTTTTTTTTTTTTTTTTTTTTTT NUMDFT      TELAPSE      279.85 TCPU     7582.34
 CYC  10 ETOT(AU) -2.578206361997E+03 DETOT  3.68E-08 tst  4.33E-11 PX  2.73E-05

 == SCF ENDED - CONVERGENCE ON ENERGY      E(AU) -2.5782063619968E+03 CYCLES  10


 ENERGY EXPRESSION=HARTREE+FOCK EXCH*0.00000+(HSESOL     EXCH)*1.00000+PBESOL     CORR


 TOTAL ENERGY(DFT)(AU)( 10) -2.5782063619968E+03 DE 3.7E-08 tester 4.3E-11
 TTTTTTTTTTTTTTTTTTTTTTTTTTTTTT EDFT        TELAPSE      279.85 TCPU     7582.35
 
 INFORMATION **** DFTD3 ENERGY **** CALCULATE DFTD3 ENERGY

           DFT-D V3(BJ)
 DF                                         hsesol3c  
 parameters
 s6       :    1.0000
 s8       :    0.0000
 a1       :    0.5196
 a2       :    4.9385
 k1 k3    :   16.0000   -4.0000
 Cutoff   :   50.2022
 CN-Cutoff:   21.1671
 ABC-Cutoff:   21.1671
 
 Edisp /kcal,au:   -46.9089 -0.07475411

 E6    /kcal :   -49.8447
 E8    /kcal :     0.0000
 E6(ABC) "   :   2.935821
 
 INFORMATION **** DFTD3 ENERGY **** NORMAL TERMINATION OF DFTD3 MODULE

 GCP ENERGY CALCULATION
  level        hsesol3c            basis:hsesol3c
  Nbf            948
  Atoms           84

  Parameters: 
  sigma     1.0000
  eta       1.4281
  alpha     0.2936
  beta      1.9467

  dmp_scal      4.0000
  dmp_exp       6.0000
 cutoffs: 
   distance [bohr] 60.0
   noise    [a.u.] 2.2E-16
 SR-damping   T
 ** gCP correction **
  Egcp:        0.1658517691 / (a.u.) ||     104.0736 / (kcal/mol)
 INFORMATION **** GCP **** NORMAL TERMINATION OF GCP MODULE

 *******************************************************************************

 DFT-D3-GCP DISPERSION AND COUNTERPOISE CORRECTION

 D3 DISPERSION ENERGY (AU)      -7.4754110107045E-02
 GCP ENERGY (AU)                 1.6585176910509E-01
 TOTAL ENERGY + DISP + GCP (AU) -2.5781152643378E+03

 *******************************************************************************

 EIGENVECTORS IN FORTRAN UNIT  8
 TTTTTTTTTTTTTTTTTTTTTTTTTTTTTT END         TELAPSE      282.52 TCPU     7590.57
 EEEEEEEEEE TERMINATION  DATE 19 02 2026 TIME 20:33:00.9
