 Default number of threads is:           32

         
 *******************************************************************************
 *                                                                             *
 *                               CRYSTAL23                                     *
 *                      public : 1.0.1 - October 2022                          *
 *                       HTTP://WWW.CRYSTAL.UNITO.IT                           *
 *                                                                             *
 *                              MAIN AUTHORS                                   *
 *                                                                             *
 *  R. DOVESI(1,11), V.R. SAUNDERS(2), C. ROETTI(1,11), R. ORLANDO(1,11),      *
 *  C.M. ZICOVICH-WILSON(1,3), F. PASCALE(4), B. CIVALLERI(1,11),              *
 *  K. DOLL(5), N.M. HARRISON(6), I.J. BUSH(7), Ph. D'ARCO(8),                 *
 *  M. LLUNELL(9), M. CAUSA'(10), Y. NOEL(8), L. MASCHIO(1,11), A. ERBA(1,11)  *
 *  M. RE'RAT(14), S. CASASSA(1,11), B.G. SEARLE(2), J.K. DESMARAIS(1)         *
 *                                                                             *
 *        CONTRIBUTIONS TO THE CODE HAVE ALSO BEEN GIVEN BY                    *
 *                                                                             *
 *  M. FERRABONE(1,11), M. DE LA PIERRE(1,11), M. FERRERO(1,11),               *
 *  J. BAIMA(1,11), E. ALBANESE(1,11), M.F. PEINTINGER(12), R. BAST(13),       *
 *  B. KIRTMAN(15), V. LACIVITA(1,11), R. DEMICHELIS(1,16)                     *
 *  G. BRANDEBURG(17), S. SALUSTRO(1,11), G. SANSONE(1,11)                     *
 *  M.T. RUGGIERO(18), L.E. DAGA(1), L. DONA'(1), A. COSSARD(1)                *
 *                                                                             *
 * (1) THEORETICAL CHEMISTRY GROUP - UNIVERSITA' DI TORINO - TORINO (ITALY)    *
 * (2) SCIENTIFIC COMPUTING DEPARTMENT - STFC DARESBURY (UK)                   *
 * (3) UNIVERSIDAD AUTONOMA DEL ESTADO DE MORELOS - CUERNAVACA (MEXICO)        *
 * (4) UNIVERSITE' DE LORRAINE - NANCY (FRANCE)                                *
 * (5) UNIVERSITAET STUTTGART- STUTTGART (GERMANY)                             *
 * (6) IMPERIAL COLLEGE - LONDON (UK)                                          *
 * (7) SCIENTIFIC COMPUTING DEPARTMENT - STFC RAL (UK)                         *
 * (8) UPMC - SORBONNE UNIVERSITES - PARIS (FRANCE)                            *
 * (9) UNIVERSIDAD DE BARCELONA - BARCELONA (SPAIN)                            *
 *(10) UNIVERSITA' DI NAPOLI "FEDERICO II" - NAPOLI (ITALY)                    *
 *(11) NIS - NANOSTRUCTURED INTERFACES AND SURFACES - TORINO (ITALY)           *
 *(12) MPI FUER CHEMISCHE ENERGIEKONVERSION - MUELHEIM AN DER RUHR (GERMANY)   *
 *(13) UNIVERSITY OF TROMSO - TROMSO (NORWAY)                                  *
 *(14) UNIVERSITE' DE PAU ET DES PAYS DE L'ADOUR - PAU (FRANCE)                *
 *(15) UNIVERSITY OF CALIFORNIA SANTA BARBARA - SANTA BARBARA (USA)            *
 *(16) CURTIN UNIVERSITY - PERTH (AUSTRALIA)                                   *
 *(17) UNIVERSITY COLLEGE LONDON - LONDON (UK)                                 *
 *(18) UNIVERSITY OF VERMONT - BURLINGTON (USA)                                *
 *                                                                             *
 *******************************************************************************
 EEEEEEEEEE STARTING  DATE 19 02 2026 TIME 18:33:37.7
 cof-1_z35_L087_incl                                                             

 CRYSTAL CALCULATION
 (INPUT ACCORDING TO THE INTERNATIONAL TABLES FOR X-RAY CRYSTALLOGRAPHY)
 CRYSTAL FAMILY                       :  TRICLINIC   
 CRYSTAL CLASS  (GROTH - 1921)        :  TRICLINIC PEDIAL                     

 SPACE GROUP (NONCENTROSYMMETRIC)     :  P 1             

 LATTICE PARAMETERS  (ANGSTROMS AND DEGREES) - CONVENTIONAL CELL
        A           B           C        ALPHA        BETA       GAMMA
    15.02361    15.02392     9.35398    36.56830    89.99998   119.99596


 NUMBER OF IRREDUCIBLE ATOMS IN THE CONVENTIONAL CELL:   42

 INPUT COORDINATES

 ATOM AT. N.              COORDINATES
   1   5     4.465766900000E-01 -1.069234500000E-01  5.013574100000E-01
   2   5     6.056323500000E-01  5.213620000000E-02  5.013574300000E-01
   3   5     4.475288100000E-01  5.403197000000E-02  4.984879800000E-01
   4   5     6.015140000000E-02  2.793915500000E-01  5.013574200000E-01
   5   5     2.192593700000E-01  2.793707800000E-01  5.013574100000E-01
   6   5     2.201960400000E-01  4.404229500000E-01  4.984879800000E-01
   7   1     7.379225600000E-01 -2.134564000000E-02  4.954085000000E-01
   8   1    -6.818332000000E-02  3.613842200000E-01  4.944988000000E-01
   9   1     7.382002300000E-01  2.644965500000E-01  4.943588000000E-01
  10   1    -6.804665000000E-02  7.608578000000E-02  4.943937200000E-01
  11   1     5.228555100000E-01 -2.393838600000E-01  5.045768400000E-01
  12   1     1.404496000000E-01  5.664428200000E-01  5.054866000000E-01
  13   1     2.373431800000E-01 -2.400379000000E-01  5.056266900000E-01
  14   1     4.257971200000E-01  5.662828700000E-01  5.055915400000E-01
  15   1     5.259516700000E-01  2.637784900000E-01  4.954085500000E-01
  16   1     1.441439900000E-01  7.594015000000E-02  4.944987500000E-01
  17   1     2.410694200000E-01 -2.075255000000E-02  4.943586800000E-01
  18   1     4.295080100000E-01  3.613586900000E-01  4.943938300000E-01
  19   6     7.257778400000E-01  1.136849900000E-01  4.983829900000E-01
  20   6     7.813213900000E-01  6.241662000000E-02  4.955484900000E-01
  21   6    -1.116979800000E-01  2.769795300000E-01  4.953036300000E-01
  22   6     7.811210800000E-01  2.229965100000E-01  4.960384800000E-01
  23   6    -1.112748500000E-01  1.168141100000E-01  4.941487700000E-01
  24   6    -5.730679000000E-02  2.233166500000E-01  4.960734400000E-01
  25   6     3.868539200000E-01 -2.262365300000E-01  5.016023900000E-01
  26   6     4.390476200000E-01 -2.827387000000E-01  5.044368300000E-01
  27   6     2.245868000000E-01  6.102052200000E-01  5.046817900000E-01
  28   6     2.783206300000E-01 -2.823651900000E-01  5.039469600000E-01
  29   6     3.851201000000E-01  6.093957800000E-01  5.058365300000E-01
  30   6     2.779726400000E-01  5.560473700000E-01  5.039119200000E-01
  31   6     3.879324100000E-01  1.136158500000E-01  4.983829800000E-01
  32   6     4.420424800000E-01  2.232567300000E-01  4.955485500000E-01
  33   6     2.277372900000E-01  1.159663000000E-01  4.953035700000E-01
  34   6     2.809562500000E-01  6.199437000000E-02  4.960384000000E-01
  35   6     3.890417500000E-01  2.776621000000E-01  4.941488400000E-01
  36   6     2.806173000000E-01  2.232392500000E-01  4.960734400000E-01
  37   8     3.943326300000E-01 -5.247130000000E-02  4.992578200000E-01
  38   8     5.512599000000E-01 -5.649952000000E-02  5.053116400000E-01
  39   8     5.543017400000E-01  1.085344700000E-01  4.961784500000E-01
  40   8     1.139204500000E-01  3.868091600000E-01  4.992578500000E-01
  41   8     1.119221700000E-01  2.238177600000E-01  5.053116400000E-01
  42   8     2.738861700000E-01  3.888464500000E-01  4.961784200000E-01

 *******************************************************************************

 << INFORMATION >>: FROM NOW ON, ALL COORDINATES REFER TO THE PRIMITIVE CELL

 *******************************************************************************

 LATTICE PARAMETERS  (ANGSTROMS AND DEGREES) - PRIMITIVE CELL
       A          B          C        ALPHA      BETA     GAMMA        VOLUME
   15.02361   15.02392    9.35398    36.56830  89.99998 119.99596    684.195458

 COORDINATES OF THE EQUIVALENT ATOMS (FRACTIONAL UNITS)

 N. ATOM EQUIV AT. N.          X                  Y                  Z

   1   1   1    5 B     4.46576690000E-01 -1.06923450000E-01 -4.98642590000E-01

   2   2   1    5 B    -3.94367650000E-01  5.21362000000E-02 -4.98642570000E-01

   3   3   1    5 B     4.47528810000E-01  5.40319700000E-02  4.98487980000E-01

   4   4   1    5 B     6.01514000000E-02  2.79391550000E-01 -4.98642580000E-01

   5   5   1    5 B     2.19259370000E-01  2.79370780000E-01 -4.98642590000E-01

   6   6   1    5 B     2.20196040000E-01  4.40422950000E-01  4.98487980000E-01

   7   7   1    1 H    -2.62077440000E-01 -2.13456400000E-02  4.95408500000E-01

   8   8   1    1 H    -6.81833200000E-02  3.61384220000E-01  4.94498800000E-01

   9   9   1    1 H    -2.61799770000E-01  2.64496550000E-01  4.94358800000E-01

  10  10   1    1 H    -6.80466500000E-02  7.60857800000E-02  4.94393720000E-01

  11  11   1    1 H    -4.77144490000E-01 -2.39383860000E-01 -4.95423160000E-01

  12  12   1    1 H     1.40449600000E-01 -4.33557180000E-01 -4.94513400000E-01

  13  13   1    1 H     2.37343180000E-01 -2.40037900000E-01 -4.94373310000E-01

  14  14   1    1 H     4.25797120000E-01 -4.33717130000E-01 -4.94408460000E-01

  15  15   1    1 H    -4.74048330000E-01  2.63778490000E-01  4.95408550000E-01

  16  16   1    1 H     1.44143990000E-01  7.59401500000E-02  4.94498750000E-01

  17  17   1    1 H     2.41069420000E-01 -2.07525500000E-02  4.94358680000E-01

  18  18   1    1 H     4.29508010000E-01  3.61358690000E-01  4.94393830000E-01

  19  19   1    6 C    -2.74222160000E-01  1.13684990000E-01  4.98382990000E-01

  20  20   1    6 C    -2.18678610000E-01  6.24166200000E-02  4.95548490000E-01

  21  21   1    6 C    -1.11697980000E-01  2.76979530000E-01  4.95303630000E-01

  22  22   1    6 C    -2.18878920000E-01  2.22996510000E-01  4.96038480000E-01

  23  23   1    6 C    -1.11274850000E-01  1.16814110000E-01  4.94148770000E-01

  24  24   1    6 C    -5.73067900000E-02  2.23316650000E-01  4.96073440000E-01

  25  25   1    6 C     3.86853920000E-01 -2.26236530000E-01 -4.98397610000E-01

  26  26   1    6 C     4.39047620000E-01 -2.82738700000E-01 -4.95563170000E-01

  27  27   1    6 C     2.24586800000E-01 -3.89794780000E-01 -4.95318210000E-01

  28  28   1    6 C     2.78320630000E-01 -2.82365190000E-01 -4.96053040000E-01

  29  29   1    6 C     3.85120100000E-01 -3.90604220000E-01 -4.94163470000E-01

  30  30   1    6 C     2.77972640000E-01 -4.43952630000E-01 -4.96088080000E-01

  31  31   1    6 C     3.87932410000E-01  1.13615850000E-01  4.98382980000E-01

  32  32   1    6 C     4.42042480000E-01  2.23256730000E-01  4.95548550000E-01

  33  33   1    6 C     2.27737290000E-01  1.15966300000E-01  4.95303570000E-01

  34  34   1    6 C     2.80956250000E-01  6.19943700000E-02  4.96038400000E-01

  35  35   1    6 C     3.89041750000E-01  2.77662100000E-01  4.94148840000E-01

  36  36   1    6 C     2.80617300000E-01  2.23239250000E-01  4.96073440000E-01

  37  37   1    8 O     3.94332630000E-01 -5.24713000000E-02  4.99257820000E-01

  38  38   1    8 O    -4.48740100000E-01 -5.64995200000E-02 -4.94688360000E-01

  39  39   1    8 O    -4.45698260000E-01  1.08534470000E-01  4.96178450000E-01

  40  40   1    8 O     1.13920450000E-01  3.86809160000E-01  4.99257850000E-01

  41  41   1    8 O     1.11922170000E-01  2.23817760000E-01 -4.94688360000E-01

  42  42   1    8 O     2.73886170000E-01  3.88846450000E-01  4.96178420000E-01

 NUMBER OF SYMMETRY OPERATORS         :    1
 *******************************************************************************
 * GEOMETRY EDITING - INPUT COORDINATES ARE GIVEN IN ANGSTROM         
 *******************************************************************************

 GCALCO - MAX INDICES DIRECT LATTICE VECTOR     9    15    22
 NO.OF VECTORS CREATED 6999 STARS 3500 RMAX   217.99789 BOHR

 GEOMETRY FOR WAVE FUNCTION - DIMENSIONALITY OF THE SYSTEM    3
 (NON PERIODIC DIRECTION: LATTICE PARAMETER FORMALLY SET TO 500)
 *******************************************************************************
 LATTICE PARAMETERS (ANGSTROMS AND DEGREES) - BOHR = 0.5291772083 ANGSTROM
 PRIMITIVE CELL - CENTRING CODE 1/0 VOLUME=   684.195458 - DENSITY  0.947 g/cm^3
         A              B              C           ALPHA      BETA       GAMMA 
    15.02361100    15.02391600     9.35398300    36.568299  89.999979 119.995964
 *******************************************************************************
 ATOMS IN THE ASYMMETRIC UNIT   42 - ATOMS IN THE UNIT CELL:   42
     ATOM                 X/A                 Y/B                 Z/C    
 *******************************************************************************
      1 T   5 B     4.465766900000E-01 -1.069234500000E-01 -4.986425900000E-01
      2 T   5 B    -3.943676500000E-01  5.213620000000E-02 -4.986425700000E-01
      3 T   5 B     4.475288100000E-01  5.403197000000E-02  4.984879800000E-01
      4 T   5 B     6.015140000000E-02  2.793915500000E-01 -4.986425800000E-01
      5 T   5 B     2.192593700000E-01  2.793707800000E-01 -4.986425900000E-01
      6 T   5 B     2.201960400000E-01  4.404229500000E-01  4.984879800000E-01
      7 T   1 H    -2.620774400000E-01 -2.134564000000E-02  4.954085000000E-01
      8 T   1 H    -6.818332000000E-02  3.613842200000E-01  4.944988000000E-01
      9 T   1 H    -2.617997700000E-01  2.644965500000E-01  4.943588000000E-01
     10 T   1 H    -6.804665000000E-02  7.608578000000E-02  4.943937200000E-01
     11 T   1 H    -4.771444900000E-01 -2.393838600000E-01 -4.954231600000E-01
     12 T   1 H     1.404496000000E-01 -4.335571800000E-01 -4.945134000000E-01
     13 T   1 H     2.373431800000E-01 -2.400379000000E-01 -4.943733100000E-01
     14 T   1 H     4.257971200000E-01 -4.337171300000E-01 -4.944084600000E-01
     15 T   1 H    -4.740483300000E-01  2.637784900000E-01  4.954085500000E-01
     16 T   1 H     1.441439900000E-01  7.594015000000E-02  4.944987500000E-01
     17 T   1 H     2.410694200000E-01 -2.075255000000E-02  4.943586800000E-01
     18 T   1 H     4.295080100000E-01  3.613586900000E-01  4.943938300000E-01
     19 T   6 C    -2.742221600000E-01  1.136849900000E-01  4.983829900000E-01
     20 T   6 C    -2.186786100000E-01  6.241662000000E-02  4.955484900000E-01
     21 T   6 C    -1.116979800000E-01  2.769795300000E-01  4.953036300000E-01
     22 T   6 C    -2.188789200000E-01  2.229965100000E-01  4.960384800000E-01
     23 T   6 C    -1.112748500000E-01  1.168141100000E-01  4.941487700000E-01
     24 T   6 C    -5.730679000000E-02  2.233166500000E-01  4.960734400000E-01
     25 T   6 C     3.868539200000E-01 -2.262365300000E-01 -4.983976100000E-01
     26 T   6 C     4.390476200000E-01 -2.827387000000E-01 -4.955631700000E-01
     27 T   6 C     2.245868000000E-01 -3.897947800000E-01 -4.953182100000E-01
     28 T   6 C     2.783206300000E-01 -2.823651900000E-01 -4.960530400000E-01
     29 T   6 C     3.851201000000E-01 -3.906042200000E-01 -4.941634700000E-01
     30 T   6 C     2.779726400000E-01 -4.439526300000E-01 -4.960880800000E-01
     31 T   6 C     3.879324100000E-01  1.136158500000E-01  4.983829800000E-01
     32 T   6 C     4.420424800000E-01  2.232567300000E-01  4.955485500000E-01
     33 T   6 C     2.277372900000E-01  1.159663000000E-01  4.953035700000E-01
     34 T   6 C     2.809562500000E-01  6.199437000000E-02  4.960384000000E-01
     35 T   6 C     3.890417500000E-01  2.776621000000E-01  4.941488400000E-01
     36 T   6 C     2.806173000000E-01  2.232392500000E-01  4.960734400000E-01
     37 T   8 O     3.943326300000E-01 -5.247130000000E-02  4.992578200000E-01
     38 T   8 O    -4.487401000000E-01 -5.649952000000E-02 -4.946883600000E-01
     39 T   8 O    -4.456982600000E-01  1.085344700000E-01  4.961784500000E-01
     40 T   8 O     1.139204500000E-01  3.868091600000E-01  4.992578500000E-01
     41 T   8 O     1.119221700000E-01  2.238177600000E-01 -4.946883600000E-01
     42 T   8 O     2.738861700000E-01  3.888464500000E-01  4.961784200000E-01

 T = ATOM BELONGING TO THE ASYMMETRIC UNIT

 ****    1 SYMMOPS - TRANSLATORS IN FRACTIONAL UNITS
 **** MATRICES AND TRANSLATORS IN THE CRYSTALLOGRAPHIC REFERENCE FRAME
   V INV                    ROTATION MATRICES                   TRANSLATORS
   1   1  1.00 -0.00  0.00  0.00  1.00  0.00  0.00  0.00  1.00  0.00  0.00  0.00

 DIRECT LATTICE VECTORS CARTESIAN COMPONENTS (ANGSTROM)
          X                    Y                    Z
   0.130113578931E+02  -0.751088897922E+01   0.000000000000E+00
   0.000000000000E+00   0.150239160000E+02   0.000000000000E+00
   0.433671479267E+01   0.751262558887E+01   0.350005136144E+01


 CARTESIAN COORDINATES - PRIMITIVE CELL
 *******************************************************************************
 *      ATOM          X(ANGSTROM)         Y(ANGSTROM)         Z(ANGSTROM)
 *******************************************************************************
    1     5 B    -6.886163486981E-01 -1.195421540734E+00 -5.245326037439E+00
    2     5 B     1.380913855213E+00 -3.719736683790E-04 -5.245325967438E+00
    3     5 B    -6.898853891823E-01  1.194984694066E+00  5.244784894498E+00
    4     5 B    -1.379819259775E+00 -3.503152440335E-04 -1.745274641000E+00
    5     5 B     6.903914381657E-01 -1.195704735484E+00 -1.745274676001E+00
    6     5 B     6.901348872358E-01  1.195337360590E+00 -1.755317828379E+00
    7     1 H    -1.261537997169E+00  5.369558027516E+00  1.733955194893E+00
    8     1 H    -3.079372110611E+00  2.143882261434E+00 -1.769280163269E+00
    9     1 H    -1.262477382941E+00 -5.369860472292E+00  1.730281190979E+00
   10     1 H    -3.078049550319E+00 -2.144233475951E+00 -1.769647948666E+00
   11     1 H    -4.020091880021E+00  3.777993166776E+00  1.766044855792E+00
   12     1 H    -3.171235654190E-01  3.740193970827E+00 -1.730822298920E+00
   13     1 H     5.280915804550E+00 -1.590383511660E+00  1.769719384714E+00
   14     1 H     3.396090236047E+00  1.595365727178E+00 -1.730455003530E+00
   15     1 H    -4.019566893033E+00 -3.778586796544E+00  1.733955369896E+00
   16     1 H    -3.167057065672E-01 -3.739372697241E+00 -1.769280338271E+00
   17     1 H     5.280533101135E+00  1.591501451559E+00  1.730280770973E+00
   18     1 H     3.395812679338E+00 -1.595394224998E+00 -1.769647563660E+00
   19     6 C    -5.743372573491E+00 -8.148455179307E-04 -1.755685298771E+00
   20     6 C    -5.032967983870E+00 -1.209542504648E+00 -1.765606194355E+00
   21     6 C    -3.642066607299E+00  1.208673455549E+00 -1.766463216932E+00
   22     6 C    -5.033449342088E+00  1.208181891585E+00 -1.763891204189E+00
   23     6 C    -3.641569409880E+00 -1.209492473877E+00 -1.770505286247E+00
   24     6 C    -2.931024921566E+00 -2.960411218108E-04 -1.763768842393E+00
   25     6 C     2.872086517531E+00  4.975065894535E+00 -1.744417233418E+00
   26     6 C     3.563489585871E+00  3.755455038997E+00 -1.734496547837E+00
   27     6 C     7.741254244684E-01  3.759685187964E+00 -1.733639175256E+00
   28     6 C     1.470088769432E+00  4.964588989818E+00 -1.736211117998E+00
   29     6 C     2.867889422561E+00  2.550451564902E+00 -1.729597525947E+00
   30     6 C     1.465408988512E+00  2.539263336459E+00 -1.736333759797E+00
   31     6 C     2.872157473935E+00 -4.975223136547E+00 -1.755685333772E+00
   32     6 C     3.563910845813E+00 -3.755696505037E+00 -1.765605984352E+00
   33     6 C     7.744469119939E-01 -3.759836866217E+00 -1.766463426935E+00
   34     6 C     1.470084595381E+00 -4.964907806383E+00 -1.763891484193E+00
   35     6 C     2.868229236128E+00 -2.550747694523E+00 -1.770505041243E+00
   36     6 C     1.465826354110E+00 -2.539569215613E+00 -1.763768842393E+00
   37     8 O    -1.378701349190E+00  2.226336423862E-04  5.247479374038E+00
   38     8 O     6.906027297405E-01 -1.194413970840E+00 -5.231486029344E+00
   39     8 O     6.893596434229E-01  1.194515418464E+00  5.236701420877E+00
   40     8 O    -6.893161429325E-01  1.193856185941E+00 -1.752623243837E+00
   41     8 O    -6.890629185383E-01 -1.194424199488E+00 -1.731434667906E+00
   42     8 O     1.378700480974E+00 -1.551082487681E-04 -1.763401407001E+00

 *******************************************************************************
 STARTING BASIS SET HANDLING 
 *******************************************************************************

 Loading internal basis set: SOLDEF2MSVP         

 Please cite in your publication:
 L. Dona', J. G. Brandenburg and B. Civalleri, J. Chem. Phys., 151, 121101 (2019
 )                                                                              
                                                                                
                    

 *******************************************************************************
 LOCAL ATOMIC FUNCTIONS BASIS SET
 *******************************************************************************
   ATOM   X(AU)   Y(AU)   Z(AU)  N. TYPE  EXPONENT  S COEF   P COEF   D/F/G COEF
 *******************************************************************************
   1 B   -1.301  -2.259  -9.912
                                  1 S  
                                         2.410E+03 1.755E-03 0.000E+00 0.000E+00
                                         3.619E+02 1.344E-02 0.000E+00 0.000E+00
                                         8.231E+01 6.637E-02 0.000E+00 0.000E+00
                                         2.311E+01 2.303E-01 0.000E+00 0.000E+00
                                         7.252E+00 5.150E-01 0.000E+00 0.000E+00
                                  2 S  
                                         2.367E+00 1.000E+00 0.000E+00 0.000E+00
                                  3 S  
                                         5.533E-01 1.000E+00 0.000E+00 0.000E+00
                                  4 S  
                                         1.716E-01 1.000E+00 0.000E+00 0.000E+00
                           5-     7 P  
                                         6.002E+00 0.000E+00-3.555E-02 0.000E+00
                                         1.240E+00 0.000E+00-1.983E-01 0.000E+00
                                         3.367E-01 0.000E+00-5.048E-01 0.000E+00
                           8-    10 P  
                                         1.256E-01 0.000E+00 1.000E+00 0.000E+00
                          11-    15 D  
                                         8.880E-01 0.000E+00 0.000E+00 1.000E+00
   2 B    2.610  -0.001  -9.912
   3 B   -1.304   2.258   9.911
   4 B   -2.607  -0.001  -3.298
   5 B    1.305  -2.260  -3.298
   6 B    1.304   2.259  -3.317
   7 H   -2.384  10.147   3.277
                                 91 S  
                                         1.874E+01 1.968E-02 0.000E+00 0.000E+00
                                         2.826E+00 1.380E-01 0.000E+00 0.000E+00
                                         6.401E-01 4.783E-01 0.000E+00 0.000E+00
                                 92 S  
                                         1.756E-01 1.000E+00 0.000E+00 0.000E+00
   8 H   -5.819   4.051  -3.343
   9 H   -2.386 -10.148   3.270
  10 H   -5.817  -4.052  -3.344
  11 H   -7.597   7.139   3.337
  12 H   -0.599   7.068  -3.271
  13 H    9.979  -3.005   3.344
  14 H    6.418   3.015  -3.270
  15 H   -7.596  -7.140   3.277
  16 H   -0.598  -7.066  -3.343
  17 H    9.979   3.008   3.270
  18 H    6.417  -3.015  -3.344
  19 C  -10.853  -0.002  -3.318
                                115 S  
                                         3.624E+03 1.634E-03 0.000E+00 0.000E+00
                                         5.440E+02 1.252E-02 0.000E+00 0.000E+00
                                         1.237E+02 6.211E-02 0.000E+00 0.000E+00
                                         3.476E+01 2.182E-01 0.000E+00 0.000E+00
                                         1.093E+01 4.980E-01 0.000E+00 0.000E+00
                                116 S  
                                         3.574E+00 1.000E+00 0.000E+00 0.000E+00
                                117 S  
                                         7.742E-01 1.000E+00 0.000E+00 0.000E+00
                                118 S  
                                         2.330E-01 1.000E+00 0.000E+00 0.000E+00
                         119-   121 P  
                                         9.443E+00 0.000E+00 3.790E-02 0.000E+00
                                         2.002E+00 0.000E+00 2.082E-01 0.000E+00
                                         5.463E-01 0.000E+00 5.047E-01 0.000E+00
                         122-   124 P  
                                         1.820E-01 0.000E+00 1.000E+00 0.000E+00
                         125-   129 D  
                                         8.880E-01 0.000E+00 0.000E+00 1.000E+00
  20 C   -9.511  -2.286  -3.337
  21 C   -6.883   2.284  -3.338
  22 C   -9.512   2.283  -3.333
  23 C   -6.882  -2.286  -3.346
  24 C   -5.539  -0.001  -3.333
  25 C    5.427   9.402  -3.296
  26 C    6.734   7.097  -3.278
  27 C    1.463   7.105  -3.276
  28 C    2.778   9.382  -3.281
  29 C    5.420   4.820  -3.268
  30 C    2.769   4.799  -3.281
  31 C    5.428  -9.402  -3.318
  32 C    6.735  -7.097  -3.337
  33 C    1.463  -7.105  -3.338
  34 C    2.778  -9.382  -3.333
  35 C    5.420  -4.820  -3.346
  36 C    2.770  -4.799  -3.333
  37 O   -2.605   0.000   9.916
                                385 S  
                                         6.773E+03 1.727E-03 0.000E+00 0.000E+00
                                         1.017E+03 1.325E-02 0.000E+00 0.000E+00
                                         2.313E+02 6.603E-02 0.000E+00 0.000E+00
                                         6.501E+01 2.353E-01 0.000E+00 0.000E+00
                                         2.050E+01 5.498E-01 0.000E+00 0.000E+00
                                386 S  
                                         6.716E+00 1.000E+00 0.000E+00 0.000E+00
                                387 S  
                                         1.147E+00 1.000E+00 0.000E+00 0.000E+00
                                388 S  
                                         3.342E-01 1.000E+00 0.000E+00 0.000E+00
                         389-   391 P  
                                         1.769E+01 0.000E+00 4.359E-02 0.000E+00
                                         3.854E+00 0.000E+00 2.318E-01 0.000E+00
                                         1.047E+00 0.000E+00 5.146E-01 0.000E+00
                         392-   394 P  
                                         2.759E-01 0.000E+00 1.000E+00 0.000E+00
                         395-   399 D  
                                         8.000E-01 0.000E+00 0.000E+00 1.000E+00
  38 O    1.305  -2.257  -9.886
  39 O    1.303   2.257   9.896
  40 O   -1.303   2.256  -3.312
  41 O   -1.302  -2.257  -3.272
  42 O    2.605  -0.000  -3.332

 *******************************************************************************
 FINISHED BASIS SET HANDLING 
 *******************************************************************************

 INFORMATION **** SET_MPP **** PCRYSTAL CALCULATION
 INFORMATION **** READM2 **** NEW DEFAULT: FOCK/KS MATRIX MIXING SET TO 30 %
 INFORMATION **** READM2 **** NEW DEFAULT: FULL DIRECT SCF MODE
 INFORMATION **** READM2 **** NEW DEFAULT: COULOMB BIPOLAR BUFFER SET TO 32 Mb
 INFORMATION **** READM2 **** NEW DEFAULT: EXCHANGE BIPOLAR BUFFER SET TO 32 Mb

 *******************************************************************************
 NEW DEFAULT: DFT INTEGRATION GRID INCREASED TO XLGRID
 NEW DEFAULT: DIIS ACCELERATOR ACTIVE
 USE KEYWORD NODIIS TO TURN IT OFF
 *******************************************************************************

 WARNING **** RDDFTP **** HSEsol-HJS ACTIVE
 RANGE SEPARATION - OMEGA:   0.110000000000000     
 WARNING **** RDDFTP **** HSEsol-3c has to be combined with sol-def2-mSVP basis set
 *******************************************************************************
 N. OF ATOMS PER CELL        42  COULOMB OVERLAP TOL         (T1) 10**   -6
 NUMBER OF SHELLS           234  COULOMB PENETRATION TOL     (T2) 10**   -6
 NUMBER OF AO               474  EXCHANGE OVERLAP TOL        (T3) 10**   -6
 N. OF ELECTRONS PER CELL   198  EXCHANGE PSEUDO OVP (F(G))  (T4) 10**   -6
 CORE ELECTRONS PER CELL     60  EXCHANGE PSEUDO OVP (P(G))  (T5) 10**  -12
 N. OF SYMMETRY OPERATORS     1  POLE ORDER IN MONO ZONE                  4
 *******************************************************************************
 TYPE OF CALCULATION :  RESTRICTED CLOSED SHELL
 KOHN-SHAM HAMILTONIAN

 (EXCHANGE)[CORRELATION] FUNCTIONAL:(HSEsol GGA)[PBEsol]

 RANGE-SEPARATED HYBRID FUNCTIONAL 
 OMEGA (SHORT-RANGE)[LONG-RANGE]:(    0.1100)[    0.0000]

 HYBRID EXCHANGE - PERCENTAGE OF FOCK EXCHANGE    25.0000

 CAPPA:IS1  2;IS2  2;IS3  8; K PTS MONK NET  20; SYMMOPS:K SPACE   2;G SPACE   1

 *******************************************************************************
 MAX NUMBER OF SCF CYCLES      50  CONVERGENCE ON DELTAP        10**-16
 WEIGHT OF F(I) IN F(I+1)      30% CONVERGENCE ON ENERGY        10**- 6
 SHRINK. FACT.(MONKH.)    2  2  8  NUMBER OF K POINTS IN THE IBZ     20
 SHRINKING FACTOR(GILAT NET)    8  NUMBER OF K POINTS(GILAT NET)   1028
 *******************************************************************************
 *** K POINTS COORDINATES (OBLIQUE COORDINATES IN UNITS OF IS =  2)
   1-R(  0  0  0)   2-R(  1  0  0)   3-R(  0  1  0)   4-R(  1  1  0)
   5-C(  0  0  1)   6-C(  1  0  1)   7-C(  0  1  1)   8-C(  1  1  1)
   9-C(  0  0  2)  10-C(  1  0  2)  11-C(  0  1  2)  12-C(  1  1  2)
  13-C(  0  0  3)  14-C(  1  0  3)  15-C(  0  1  3)  16-C(  1  1  3)
  17-R(  0  0  4)  18-R(  1  0  4)  19-R(  0  1  4)  20-R(  1  1  4)

 DIRECT LATTICE VECTORS COMPON. (A.U.)     RECIP. LATTICE VECTORS COMPON. (A.U.) 
        X            Y            Z              X            Y            Z
   24.5879030  -14.1935232    0.0000000      0.2555397    0.0000000   -0.3166247
    0.0000000   28.3910867    0.0000000      0.1277517    0.2213084   -0.6333134
    8.1952033   14.1968049    6.6141385      0.0000000    0.0000000    0.9499628

 DISK SPACE FOR EIGENVECTORS (FTN 10)     7189632 REALS

 SYMMETRY ADAPTION OF THE BLOCH FUNCTIONS DISABLED
 TTTTTTTTTTTTTTTTTTTTTTTTTTTTTT gordsh1     TELAPSE        0.04 TCPU        0.04

 MATRIX SIZE: P(G)  328662, F(G)   63192, P(G) IRR  165318, F(G) IRR   63672
 MAX G-VECTOR INDEX FOR 1- AND 2-ELECTRON INTEGRALS  59

 TTTTTTTTTTTTTTTTTTTTTTTTTTTTTT INPUT       TELAPSE        0.43 TCPU        0.43

 NEIGHBORS OF THE NON-EQUIVALENT ATOMS

 N = NUMBER OF NEIGHBORS AT DISTANCE R
    ATOM  N     R/ANG      R/AU   NEIGHBORS (ATOM LABELS AND CELL INDICES)
   1 B    1     1.3791     2.6061   37 O    1 2-3
   1 B    1     1.3793     2.6065   38 O    0 0 0
   1 B    1     1.5503     2.9297   25 C    0 0-1
   1 B    1     2.3895     4.5155    3 B    1 2-3
   1 B    1     2.3898     4.5160    2 B    0 0 0
   1 B    1     2.5632     4.8437   26 C    0 0-1

   2 B    1     1.3793     2.6065   39 O    1 2-3
   2 B    1     1.3793     2.6065   38 O    0 0 0
   2 B    1     1.5504     2.9298   19 C    1 1-1
   2 B    1     2.3895     4.5156    3 B    1 2-3
   2 B    1     2.3898     4.5160    1 B    0 0 0
   2 B    1     2.5634     4.8440   22 C    1 1-1

   3 B    1     1.3791     2.6061   37 O    0 0 0
   3 B    1     1.3793     2.6064   39 O    0 0 0
   3 B    1     1.5502     2.9294   31 C   -1-1 2
   3 B    1     2.3895     4.5155    1 B   -1-2 3
   3 B    1     2.3895     4.5156    2 B   -1-2 3
   3 B    1     2.5629     4.8433   32 C   -1-1 2

   4 B    1     1.3795     2.6068   40 O    0 0 0
   4 B    1     1.3795     2.6070   41 O    0 0 0
   4 B    1     1.5513     2.9316   24 C    0 0 0
   4 B    1     2.3905     4.5174    6 B    0 0 0
   4 B    1     2.3905     4.5175    5 B    0 0 0
   4 B    1     2.5648     4.8468   23 C    0 0 0

   5 B    1     1.3795     2.6069   41 O    0 0 0
   5 B    1     1.3797     2.6072   42 O    0 0 0
   5 B    1     1.5516     2.9322   36 C    0 0 0
   5 B    1     2.3905     4.5175    4 B    0 0 0
   5 B    1     2.3911     4.5185    6 B    0 0 0
   5 B    1     2.5651     4.8473   35 C    0 0 0

   6 B    1     1.3795     2.6068   40 O    0 0 0
   6 B    1     1.3796     2.6071   42 O    0 0 0
   6 B    1     1.5516     2.9322   30 C    0 0 0
   6 B    1     2.3905     4.5174    4 B    0 0 0
   6 B    1     2.3911     4.5185    5 B    0 0 0
   6 B    1     2.5651     4.8473   29 C    0 0 0

   7 H    1     1.0913     2.0623   20 C    0 0 1
   7 H    1     2.1472     4.0576   19 C    0 0 1
   7 H    1     2.1680     4.0969   23 C    0 0 1
   7 H    1     2.5202     4.7625   10 H    0 0 1
   7 H    1     2.5676     4.8520   38 O   -1-1 2
   7 H    1     2.7321     5.1630    2 B   -1-1 2

   8 H    1     1.0914     2.0625   21 C    0 0 0
   8 H    1     2.1493     4.0616   24 C    0 0 0
   8 H    1     2.1666     4.0942   22 C    0 0 0
   8 H    1     2.5198     4.7618    9 H    0 1-1
   8 H    1     2.5720     4.8604   40 O    0 0 0
   8 H    1     2.7362     5.1707    4 B    0 0 0

   9 H    1     1.0914     2.0624   22 C    0-1 1
   9 H    1     2.1471     4.0575   19 C    0-1 1
   9 H    1     2.1680     4.0970   21 C    0-1 1
   9 H    1     2.5198     4.7618    8 H    0-1 1
   9 H    1     2.5665     4.8500   39 O    0 0-1
   9 H    1     2.7315     5.1618    2 B   -1-2 2

  10 H    1     1.0915     2.0626   23 C    0 0 0
  10 H    1     2.1490     4.0610   24 C    0 0 0
  10 H    1     2.1669     4.0948   20 C    0 0 0
  10 H    1     2.5202     4.7625    7 H    0 0-1
  10 H    1     2.5712     4.8588   41 O    0 0 0
  10 H    1     2.7351     5.1686    4 B    0 0 0

  11 H    1     1.0913     2.0623   26 C   -1-1 1
  11 H    1     2.1469     4.0571   25 C   -1-1 1
  11 H    1     2.1680     4.0968   29 C   -1-1 1
  11 H    1     2.5198     4.7617   14 H   -1-1 1
  11 H    1     2.5670     4.8510   38 O   -1-1 2
  11 H    1     2.7310     5.1609    1 B   -1-1 2

  12 H    1     1.0914     2.0625   27 C    0 0 0
  12 H    1     2.1493     4.0617   30 C    0 0 0
  12 H    1     2.1664     4.0939   28 C    0 0 0
  12 H    1     2.5192     4.7606   13 H    0 1-1
  12 H    1     2.5735     4.8632   40 O    0 0 0
  12 H    1     2.7371     5.1723    6 B    0 0 0

  13 H    1     1.0914     2.0624   28 C    0-1 1
  13 H    1     2.1475     4.0581   25 C    0-1 1
  13 H    1     2.1679     4.0967   27 C    0-1 1
  13 H    1     2.5192     4.7606   12 H    0-1 1
  13 H    1     2.5675     4.8519   37 O    1 1-1
  13 H    1     2.7328     5.1643    1 B    0-1 2

  14 H    1     1.0914     2.0625   29 C    0 0 0
  14 H    1     2.1491     4.0612   30 C    0 0 0
  14 H    1     2.1666     4.0942   26 C    0 0 0
  14 H    1     2.5198     4.7617   11 H    1 1-1
  14 H    1     2.5723     4.8609   42 O    0 0 0
  14 H    1     2.7355     5.1693    6 B    0 0 0

  15 H    1     1.0914     2.0624   32 C   -1-1 1
  15 H    1     2.1475     4.0582   31 C   -1-1 1
  15 H    1     2.1678     4.0966   35 C   -1-1 1
  15 H    1     2.5200     4.7621   18 H   -1-1 1
  15 H    1     2.5667     4.8503   39 O    0 0-1
  15 H    1     2.7315     5.1618    3 B    0 0-1

  16 H    1     1.0913     2.0623   33 C    0 0 0
  16 H    1     2.1487     4.0605   36 C    0 0 0
  16 H    1     2.1667     4.0945   34 C    0 0 0
  16 H    1     2.5197     4.7616   17 H    0 0-1
  16 H    1     2.5723     4.8610   41 O    0 0 0
  16 H    1     2.7359     5.1701    5 B    0 0 0

  17 H    1     1.0915     2.0626   34 C    0 0 1
  17 H    1     2.1479     4.0589   31 C    0 0 1
  17 H    1     2.1679     4.0968   33 C    0 0 1
  17 H    1     2.5197     4.7616   16 H    0 0 1
  17 H    1     2.5677     4.8522   37 O    1 1-1
  17 H    1     2.7331     5.1648    3 B    1 1-1

  18 H    1     1.0914     2.0624   35 C    0 0 0
  18 H    1     2.1486     4.0602   36 C    0 0 0
  18 H    1     2.1668     4.0947   32 C    0 0 0
  18 H    1     2.5200     4.7621   15 H    1 1-1
  18 H    1     2.5717     4.8598   42 O    0 0 0
  18 H    1     2.7349     5.1682    5 B    0 0 0

  19 C    1     1.4020     2.6495   22 C    0 0 0
  19 C    1     1.4021     2.6495   20 C    0 0 0
  19 C    1     1.5504     2.9298    2 B   -1-1 1
  19 C    1     2.1471     4.0575    9 H    0 1-1
  19 C    1     2.1472     4.0576    7 H    0 0-1
  19 C    1     2.4246     4.5817   21 C    0 0 0

  20 C    1     1.0913     2.0623    7 H    0 0-1
  20 C    1     1.3914     2.6294   23 C    0 0 0
  20 C    1     1.4021     2.6495   19 C    0 0 0
  20 C    1     2.1669     4.0948   10 H    0 0 0
  20 C    1     2.4177     4.5688   22 C    0 0 0
  20 C    1     2.4250     4.5825   24 C    0 0 0

  21 C    1     1.0914     2.0625    8 H    0 0 0
  21 C    1     1.3914     2.6293   22 C    0 0 0
  21 C    1     1.4026     2.6505   24 C    0 0 0
  21 C    1     2.1680     4.0970    9 H    0 1-1
  21 C    1     2.4182     4.5697   23 C    0 0 0
  21 C    1     2.4246     4.5817   19 C    0 0 0

  22 C    1     1.0914     2.0624    9 H    0 1-1
  22 C    1     1.3914     2.6293   21 C    0 0 0
  22 C    1     1.4020     2.6495   19 C    0 0 0
  22 C    1     2.1666     4.0942    8 H    0 0 0
  22 C    1     2.4177     4.5688   20 C    0 0 0
  22 C    1     2.4250     4.5826   24 C    0 0 0

  23 C    1     1.0915     2.0626   10 H    0 0 0
  23 C    1     1.3914     2.6294   20 C    0 0 0
  23 C    1     1.4025     2.6504   24 C    0 0 0
  23 C    1     2.1680     4.0969    7 H    0 0-1
  23 C    1     2.4182     4.5697   21 C    0 0 0
  23 C    1     2.4246     4.5818   19 C    0 0 0

  24 C    1     1.4025     2.6504   23 C    0 0 0
  24 C    1     1.4026     2.6505   21 C    0 0 0
  24 C    1     1.5513     2.9316    4 B    0 0 0
  24 C    1     2.1490     4.0610   10 H    0 0 0
  24 C    1     2.1493     4.0616    8 H    0 0 0
  24 C    1     2.4250     4.5825   20 C    0 0 0

  25 C    1     1.4020     2.6494   26 C    0 0 0
  25 C    1     1.4021     2.6495   28 C    0 0 0
  25 C    1     1.5503     2.9297    1 B    0 0 1
  25 C    1     2.1469     4.0571   11 H    1 1-1
  25 C    1     2.1475     4.0581   13 H    0 1-1
  25 C    1     2.4246     4.5818   27 C    0 0 0

  26 C    1     1.0913     2.0623   11 H    1 1-1
  26 C    1     1.3914     2.6293   29 C    0 0 0
  26 C    1     1.4020     2.6494   25 C    0 0 0
  26 C    1     2.1666     4.0942   14 H    0 0 0
  26 C    1     2.4175     4.5684   28 C    0 0 0
  26 C    1     2.4251     4.5828   30 C    0 0 0

  27 C    1     1.0914     2.0625   12 H    0 0 0
  27 C    1     1.3915     2.6295   28 C    0 0 0
  27 C    1     1.4026     2.6505   30 C    0 0 0
  27 C    1     2.1679     4.0967   13 H    0 1-1
  27 C    1     2.4179     4.5691   29 C    0 0 0
  27 C    1     2.4246     4.5818   25 C    0 0 0

  28 C    1     1.0914     2.0624   13 H    0 1-1
  28 C    1     1.3915     2.6295   27 C    0 0 0
  28 C    1     1.4021     2.6495   25 C    0 0 0
  28 C    1     2.1664     4.0939   12 H    0 0 0
  28 C    1     2.4175     4.5684   26 C    0 0 0
  28 C    1     2.4253     4.5832   30 C    0 0 0

  29 C    1     1.0914     2.0625   14 H    0 0 0
  29 C    1     1.3914     2.6293   26 C    0 0 0
  29 C    1     1.4025     2.6504   30 C    0 0 0
  29 C    1     2.1680     4.0968   11 H    1 1-1
  29 C    1     2.4179     4.5691   27 C    0 0 0
  29 C    1     2.4247     4.5819   25 C    0 0 0

  30 C    1     1.4025     2.6504   29 C    0 0 0
  30 C    1     1.4026     2.6505   27 C    0 0 0
  30 C    1     1.5516     2.9322    6 B    0 0 0
  30 C    1     2.1491     4.0612   14 H    0 0 0
  30 C    1     2.1493     4.0617   12 H    0 0 0
  30 C    1     2.4251     4.5828   26 C    0 0 0

  31 C    1     1.4021     2.6496   32 C    0 0 0
  31 C    1     1.4021     2.6497   34 C    0 0 0
  31 C    1     1.5502     2.9294    3 B    1 1-2
  31 C    1     2.1475     4.0582   15 H    1 1-1
  31 C    1     2.1479     4.0589   17 H    0 0-1
  31 C    1     2.4244     4.5814   33 C    0 0 0

  32 C    1     1.0914     2.0624   15 H    1 1-1
  32 C    1     1.3914     2.6293   35 C    0 0 0
  32 C    1     1.4021     2.6496   31 C    0 0 0
  32 C    1     2.1668     4.0947   18 H    0 0 0
  32 C    1     2.4179     4.5692   34 C    0 0 0
  32 C    1     2.4251     4.5827   36 C    0 0 0

  33 C    1     1.0913     2.0623   16 H    0 0 0
  33 C    1     1.3914     2.6294   34 C    0 0 0
  33 C    1     1.4025     2.6504   36 C    0 0 0
  33 C    1     2.1679     4.0968   17 H    0 0-1
  33 C    1     2.4178     4.5690   35 C    0 0 0
  33 C    1     2.4244     4.5814   31 C    0 0 0

  34 C    1     1.0915     2.0626   17 H    0 0-1
  34 C    1     1.3914     2.6294   33 C    0 0 0
  34 C    1     1.4021     2.6497   31 C    0 0 0
  34 C    1     2.1667     4.0945   16 H    0 0 0
  34 C    1     2.4179     4.5692   32 C    0 0 0
  34 C    1     2.4253     4.5832   36 C    0 0 0

  35 C    1     1.0914     2.0624   18 H    0 0 0
  35 C    1     1.3914     2.6293   32 C    0 0 0
  35 C    1     1.4025     2.6503   36 C    0 0 0
  35 C    1     2.1678     4.0966   15 H    1 1-1
  35 C    1     2.4178     4.5690   33 C    0 0 0
  35 C    1     2.4245     4.5817   31 C    0 0 0

  36 C    1     1.4025     2.6503   35 C    0 0 0
  36 C    1     1.4025     2.6504   33 C    0 0 0
  36 C    1     1.5516     2.9322    5 B    0 0 0
  36 C    1     2.1486     4.0602   18 H    0 0 0
  36 C    1     2.1487     4.0605   16 H    0 0 0
  36 C    1     2.4251     4.5827   32 C    0 0 0

  37 O    1     1.3791     2.6061    1 B   -1-2 3
  37 O    1     1.3791     2.6061    3 B    0 0 0
  37 O    1     2.3880     4.5126   38 O   -1-2 3
  37 O    1     2.3882     4.5130   39 O    0 0 0
  37 O    1     2.5383     4.7966   31 C   -1-1 2
  37 O    1     2.5384     4.7968   25 C   -1-2 2

  38 O    1     1.3793     2.6065    1 B    0 0 0
  38 O    1     1.3793     2.6065    2 B    0 0 0
  38 O    1     2.3880     4.5126   37 O    1 2-3
  38 O    1     2.3882     4.5131   39 O    1 2-3
  38 O    1     2.5391     4.7981   19 C    1 1-1
  38 O    1     2.5395     4.7990   25 C    0 0-1

  39 O    1     1.3793     2.6064    3 B    0 0 0
  39 O    1     1.3793     2.6065    2 B   -1-2 3
  39 O    1     2.3882     4.5130   37 O    0 0 0
  39 O    1     2.3882     4.5131   38 O   -1-2 3
  39 O    1     2.5390     4.7980   19 C    0-1 2
  39 O    1     2.5391     4.7982   31 C   -1-1 2

  40 O    1     1.3795     2.6068    6 B    0 0 0
  40 O    1     1.3795     2.6068    4 B    0 0 0
  40 O    1     2.3880     4.5126   42 O    0 0 0
  40 O    1     2.3884     4.5134   41 O    0 0 0
  40 O    1     2.5400     4.7998   24 C    0 0 0
  40 O    1     2.5403     4.8005   30 C    0 0 0

  41 O    1     1.3795     2.6069    5 B    0 0 0
  41 O    1     1.3795     2.6070    4 B    0 0 0
  41 O    1     2.3881     4.5128   42 O    0 0 0
  41 O    1     2.3884     4.5134   40 O    0 0 0
  41 O    1     2.5404     4.8006   24 C    0 0 0
  41 O    1     2.5405     4.8008   36 C    0 0 0

  42 O    1     1.3796     2.6071    6 B    0 0 0
  42 O    1     1.3797     2.6072    5 B    0 0 0
  42 O    1     2.3880     4.5126   40 O    0 0 0
  42 O    1     2.3881     4.5128   41 O    0 0 0
  42 O    1     2.5409     4.8016   36 C    0 0 0
  42 O    1     2.5410     4.8019   30 C    0 0 0


 SYMMETRY ALLOWED INTERNAL DEGREE(S) OF FREEDOM: 123
 TTTTTTTTTTTTTTTTTTTTTTTTTTTTTT SYMM        TELAPSE        0.43 TCPU        0.43
 TTTTTTTTTTTTTTTTTTTTTTTTTTTTTT INT_SCREEN  TELAPSE        0.46 TCPU        0.46

 DFT PARAMETERS

     ATOM       ELECTRONS   NET CHARGE   R(ANGSTROM)
   1   5  B       5.0000      0.0000     0.89000000
   7   1  H       1.0000      0.0000     1.11000000
  19   6  C       6.0000      0.0000     0.77000000
  37   8  O       8.0000      0.0000     0.74000000

 SIZE OF GRID=    1294392
 TTTTTTTTTTTTTTTTTTTTTTTTTTTTTT MAKE_GRID2  TELAPSE        9.40 TCPU        9.39
 BECKE WEIGHT FUNCTION
 RADSAFE =     2.00
 TOLERANCES - DENSITY:10**- 6; POTENTIAL:10**- 9; GRID WGT:10**-14

 RADIAL INTEGRATION  - INTERVALS (POINTS,UPPER LIMIT):            1( 75,  4.0*R)

 ANGULAR INTEGRATION - INTERVALS (ACCURACY LEVEL [N. POINTS] UPPER LIMIT):
  1(  4[  86]   0.2)  2(  8[ 194]   0.5)  3( 12[ 350]   0.9)  4( 16[ 974]   3.5)
  5( 12[ 350]9999.0)
 TTTTTTTTTTTTTTTTTTTTTTTTTTTTTT INT_CALC    TELAPSE        9.47 TCPU        9.46
 EEEEEEEEEE INT_CALC TERMINATION  DATE 19 02 2026 TIME 18:33:47.2

 *******************************************************************************
 cof-1_z35_L087_incl                                                             
 CRYSTAL - SCF - TYPE OF CALCULATION :  RESTRICTED CLOSED SHELL
 *******************************************************************************

 CAPPA:IS1  2;IS2  2;IS3  8; K PTS MONK NET  20; SYMMOPS:K SPACE   2;G SPACE   1

 TTTTTTTTTTTTTTTTTTTTTTTTTTTTTT SDIK        TELAPSE       10.03 TCPU       17.45

 AAAAAAAAAAAAAAAAAAAAAAAAAAAAAAAAAAAAAAAAAAAAAAAAAAAAAAAAAAAAAAAAAAAAAAAAAAAAAAA
         ATOMIC WAVEFUNCTION(S)


 NUCLEAR CHARGE  5.0  SYMMETRY SPECIES            S    P
 N. ELECTRONS    5.0  NUMBER OF PRIMITIVE GTOS    8    4
                      NUMBER OF CONTRACTED GTOS   4    2
                      NUMBER OF CLOSED SHELLS     2    0
                      OPEN SHELL OCCUPATION       0    1

  ZNUC  SCFIT    TOTAL HF ENERGY   KINETIC ENERGY   VIRIAL THEOREM ACCURACY
   5.0    11    -2.451164084E+01  2.462155050E+01 -1.995536038E+00  1.5E-06

 NUCLEAR CHARGE  1.0  SYMMETRY SPECIES            S
 N. ELECTRONS    1.0  NUMBER OF PRIMITIVE GTOS    4
                      NUMBER OF CONTRACTED GTOS   2
                      NUMBER OF CLOSED SHELLS     0
                      OPEN SHELL OCCUPATION       1

  ZNUC  SCFIT    TOTAL HF ENERGY   KINETIC ENERGY   VIRIAL THEOREM ACCURACY
   1.0     1    -4.977266687E-01  5.190767460E-01 -1.958869132E+00  0.0E+00

 NUCLEAR CHARGE  6.0  SYMMETRY SPECIES            S    P
 N. ELECTRONS    6.0  NUMBER OF PRIMITIVE GTOS    8    4
                      NUMBER OF CONTRACTED GTOS   4    2
                      NUMBER OF CLOSED SHELLS     2    0
                      OPEN SHELL OCCUPATION       0    2

  ZNUC  SCFIT    TOTAL HF ENERGY   KINETIC ENERGY   VIRIAL THEOREM ACCURACY
   6.0     9    -3.766704647E+01  3.775180683E+01 -1.997754800E+00  1.1E-06

 NUCLEAR CHARGE  8.0  SYMMETRY SPECIES            S    P
 N. ELECTRONS    8.0  NUMBER OF PRIMITIVE GTOS    8    4
                      NUMBER OF CONTRACTED GTOS   4    2
                      NUMBER OF CLOSED SHELLS     2    0
                      OPEN SHELL OCCUPATION       0    4

  ZNUC  SCFIT    TOTAL HF ENERGY   KINETIC ENERGY   VIRIAL THEOREM ACCURACY
   8.0    12    -7.477373220E+01  7.477365593E+01 -2.000001020E+00  3.8E-06

 AAAAAAAAAAAAAAAAAAAAAAAAAAAAAAAAAAAAAAAAAAAAAAAAAAAAAAAAAAAAAAAAAAAAAAAAAAAAAAA

 CHARGE NORMALIZATION FACTOR   1.00000000
 TOTAL ATOMIC CHARGES:
   5.0000000   5.0000000   5.0000000   5.0000000   5.0000000   5.0000000
   1.0000000   1.0000000   1.0000000   1.0000000   1.0000000   1.0000000
   1.0000000   1.0000000   1.0000000   1.0000000   1.0000000   1.0000000
   6.0000000   6.0000000   6.0000000   6.0000000   6.0000000   6.0000000
   6.0000000   6.0000000   6.0000000   6.0000000   6.0000000   6.0000000
   6.0000000   6.0000000   6.0000000   6.0000000   6.0000000   6.0000000
   8.0000000   8.0000000   8.0000000   8.0000000   8.0000000   8.0000000
 TTTTTTTTTTTTTTTTTTTTTTTTTTTTTT MOQGAD      TELAPSE       10.08 TCPU       18.89
 TTTTTTTTTTTTTTTTTTTTTTTTTTTTTT SHELLXN     TELAPSE       17.14 TCPU      244.72
 TTTTTTTTTTTTTTTTTTTTTTTTTTTTTT MONMO3      TELAPSE       17.28 TCPU      249.25
 NUMERICALLY INTEGRATED DENSITY    197.9999313531
 TTTTTTTTTTTTTTTTTTTTTTTTTTTTTT NUMDFT      TELAPSE       17.93 TCPU      270.02
 CYC   0 ETOT(AU) -1.295964283850E+03 DETOT -1.30E+03 tst  0.00E+00 PX  1.00E+00
 TTTTTTTTTTTTTTTTTTTTTTTTTTTTTT DIIS        TELAPSE       17.97 TCPU      271.23
 TTTTTTTTTTTTTTTTTTTTTTTTTTTTTT FDIK        TELAPSE       18.44 TCPU      285.97
 INSULATING STATE
 TOP OF VALENCE BANDS -    BAND     99; K    1; EIG -3.0847581E-01 AU
 BOTTOM OF VIRTUAL BANDS - BAND    100; K    1; EIG -1.5702378E-01 AU
 DIRECT ENERGY BAND GAP:   4.1212 eV
 TTTTTTTTTTTTTTTTTTTTTTTTTTTTTT PDIG        TELAPSE       18.78 TCPU      292.17
 CHARGE NORMALIZATION FACTOR   1.00000000
 TOTAL ATOMIC CHARGES:
   4.1534223   4.1530477   4.1535559   4.1530166   4.1526542   4.1524488
   0.7856464   0.7857678   0.7855944   0.7857358   0.7856325   0.7857866
   0.7856299   0.7857509   0.7855980   0.7858096   0.7855959   0.7857583
   6.0444101   6.2668084   6.2667676   6.2667271   6.2667655   6.0439951
   6.0444600   6.2668549   6.2669095   6.2667672   6.2668910   6.0431391
   6.0449525   6.2664143   6.2671630   6.2663798   6.2670750   6.0435595
   8.6975927   8.6978165   8.6977370   8.6980665   8.6979825   8.6983136
 TTTTTTTTTTTTTTTTTTTTTTTTTTTTTT MOQGAD      TELAPSE       18.82 TCPU      292.21
 TTTTTTTTTTTTTTTTTTTTTTTTTTTTTT SHELLXN     TELAPSE       26.18 TCPU      526.61
 TTTTTTTTTTTTTTTTTTTTTTTTTTTTTT MONMO3      TELAPSE       26.32 TCPU      531.12
 NUMERICALLY INTEGRATED DENSITY    197.9999669321
 TTTTTTTTTTTTTTTTTTTTTTTTTTTTTT NUMDFT      TELAPSE       26.98 TCPU      552.25
 CYC   1 ETOT(AU) -1.288820541350E+03 DETOT  7.14E+00 tst  0.00E+00 PX  1.00E+00
 TTTTTTTTTTTTTTTTTTTTTTTTTTTTTT DIIS        TELAPSE       27.03 TCPU      553.84
 DIIS TEST: 0.11112E+01 AT SCF   CYCLE   1 - MIX   30 %
 TTTTTTTTTTTTTTTTTTTTTTTTTTTTTT FDIK        TELAPSE       27.50 TCPU      568.91
 INSULATING STATE
 TOP OF VALENCE BANDS -    BAND     99; K    1; EIG -2.1999669E-01 AU
 BOTTOM OF VIRTUAL BANDS - BAND    100; K   17; EIG -8.2922964E-02 AU
 INDIRECT ENERGY BAND GAP:   3.7300 eV
 BOTTOM OF VIRTUAL BANDS - BAND    100; K    1; EIG -8.1352723E-02 AU
 TTTTTTTTTTTTTTTTTTTTTTTTTTTTTT PDIG        TELAPSE       27.84 TCPU      575.11
 CHARGE NORMALIZATION FACTOR   1.00000000
 TOTAL ATOMIC CHARGES:
   4.7040773   4.7029507   4.7038164   4.7038737   4.7029036   4.7038441
   0.9044847   0.9045749   0.9047582   0.9042615   0.9041776   0.9046962
   0.9041447   0.9045709   0.9046338   0.9043481   0.9045545   0.9046184
   5.8756019   6.1347255   6.1346928   6.1343928   6.1349088   5.8789657
   5.8761718   6.1337330   6.1351140   6.1342124   6.1351117   5.8791774
   5.8760851   6.1346299   6.1347892   6.1348342   6.1342986   5.8786165
   8.3403637   8.3410352   8.3410919   8.3405662   8.3401504   8.3414423
 TTTTTTTTTTTTTTTTTTTTTTTTTTTTTT MOQGAD      TELAPSE       27.89 TCPU      575.15
 TTTTTTTTTTTTTTTTTTTTTTTTTTTTTT SHELLXN     TELAPSE       35.24 TCPU      809.45
 TTTTTTTTTTTTTTTTTTTTTTTTTTTTTT MONMO3      TELAPSE       35.38 TCPU      813.97
 NUMERICALLY INTEGRATED DENSITY    197.9999571236
 TTTTTTTTTTTTTTTTTTTTTTTTTTTTTT NUMDFT      TELAPSE       36.04 TCPU      835.08
 CYC   2 ETOT(AU) -1.289013736985E+03 DETOT -1.93E-01 tst  3.48E-03 PX  1.57E-01
 TTTTTTTTTTTTTTTTTTTTTTTTTTTTTT DIIS        TELAPSE       36.09 TCPU      836.68
 DIIS TEST: 0.46140E+00 AT SCF   CYCLE   2 - DIIS ACTIVE - HISTORY:     2 CYCLES
 TTTTTTTTTTTTTTTTTTTTTTTTTTTTTT FDIK        TELAPSE       36.56 TCPU      851.61
 INSULATING STATE
 TOP OF VALENCE BANDS -    BAND     99; K    1; EIG -2.3320448E-01 AU
 BOTTOM OF VIRTUAL BANDS - BAND    100; K    1; EIG -7.5653776E-02 AU
 DIRECT ENERGY BAND GAP:   4.2872 eV
 TTTTTTTTTTTTTTTTTTTTTTTTTTTTTT PDIG        TELAPSE       36.90 TCPU      857.81
 CHARGE NORMALIZATION FACTOR   1.00000000
 TOTAL ATOMIC CHARGES:
   4.4937781   4.4927837   4.4935225   4.4934600   4.4926776   4.4932507
   0.8840030   0.8841768   0.8841360   0.8839733   0.8836857   0.8843677
   0.8836966   0.8842166   0.8840652   0.8839836   0.8841029   0.8841285
   5.8907647   6.1659896   6.1651687   6.1654622   6.1654310   5.8906483
   5.8912854   6.1657141   6.1653494   6.1656716   6.1654498   5.8897980
   5.8908301   6.1653539   6.1658308   6.1655643   6.1653724   5.8906242
   8.5165953   8.5170841   8.5168871   8.5168280   8.5169800   8.5173081
 TTTTTTTTTTTTTTTTTTTTTTTTTTTTTT MOQGAD      TELAPSE       36.94 TCPU      857.85
 TTTTTTTTTTTTTTTTTTTTTTTTTTTTTT SHELLXN     TELAPSE       44.30 TCPU     1092.20
 TTTTTTTTTTTTTTTTTTTTTTTTTTTTTT MONMO3      TELAPSE       44.44 TCPU     1096.72
 NUMERICALLY INTEGRATED DENSITY    197.9999591448
 TTTTTTTTTTTTTTTTTTTTTTTTTTTTTT NUMDFT      TELAPSE       45.10 TCPU     1117.83
 CYC   3 ETOT(AU) -1.289108394011E+03 DETOT -9.47E-02 tst  6.80E-04 PX  6.18E-02
 TTTTTTTTTTTTTTTTTTTTTTTTTTTTTT DIIS        TELAPSE       45.16 TCPU     1119.70
 DIIS TEST: 0.13230E-01 AT SCF   CYCLE   3 - DIIS ACTIVE - HISTORY:     3 CYCLES
 TTTTTTTTTTTTTTTTTTTTTTTTTTTTTT FDIK        TELAPSE       45.63 TCPU     1134.73
 INSULATING STATE
 TOP OF VALENCE BANDS -    BAND     99; K    1; EIG -2.4192423E-01 AU
 BOTTOM OF VIRTUAL BANDS - BAND    100; K    1; EIG -8.4084221E-02 AU
 DIRECT ENERGY BAND GAP:   4.2950 eV
 TTTTTTTTTTTTTTTTTTTTTTTTTTTTTT PDIG        TELAPSE       45.97 TCPU     1140.92
 CHARGE NORMALIZATION FACTOR   1.00000000
 TOTAL ATOMIC CHARGES:
   4.4997614   4.4986978   4.4995138   4.4993032   4.4983237   4.4990884
   0.8677909   0.8678240   0.8678838   0.8676296   0.8675486   0.8679291
   0.8675197   0.8678129   0.8677866   0.8677059   0.8678298   0.8678409
   5.9438157   6.1676358   6.1678921   6.1676292   6.1678432   5.9460137
   5.9439533   6.1669844   6.1682318   6.1672768   6.1681702   5.9460143
   5.9444876   6.1676991   6.1679176   6.1675963   6.1677632   5.9454351
   8.4845929   8.4851308   8.4851495   8.4849109   8.4844571   8.4856095
 TTTTTTTTTTTTTTTTTTTTTTTTTTTTTT MOQGAD      TELAPSE       46.01 TCPU     1140.97
 TTTTTTTTTTTTTTTTTTTTTTTTTTTTTT SHELLXN     TELAPSE       53.37 TCPU     1375.37
 TTTTTTTTTTTTTTTTTTTTTTTTTTTTTT MONMO3      TELAPSE       53.51 TCPU     1379.89
 NUMERICALLY INTEGRATED DENSITY    197.9999596947
 TTTTTTTTTTTTTTTTTTTTTTTTTTTTTT NUMDFT      TELAPSE       54.18 TCPU     1401.06
 CYC   4 ETOT(AU) -1.289111171390E+03 DETOT -2.78E-03 tst  2.97E-05 PX  1.23E-02
 TTTTTTTTTTTTTTTTTTTTTTTTTTTTTT DIIS        TELAPSE       54.24 TCPU     1403.01
 DIIS TEST: 0.37034E-02 AT SCF   CYCLE   4 - DIIS ACTIVE - HISTORY:     4 CYCLES
 TTTTTTTTTTTTTTTTTTTTTTTTTTTTTT FDIK        TELAPSE       54.71 TCPU     1418.03
 INSULATING STATE
 TOP OF VALENCE BANDS -    BAND     99; K    1; EIG -2.4053151E-01 AU
 BOTTOM OF VIRTUAL BANDS - BAND    100; K    1; EIG -8.3912812E-02 AU
 DIRECT ENERGY BAND GAP:   4.2618 eV
 TTTTTTTTTTTTTTTTTTTTTTTTTTTTTT PDIG        TELAPSE       55.04 TCPU     1424.22
 CHARGE NORMALIZATION FACTOR   1.00000000
 TOTAL ATOMIC CHARGES:
   4.5027548   4.5016897   4.5024735   4.5024144   4.5015250   4.5022586
   0.8701531   0.8703309   0.8703160   0.8700948   0.8698608   0.8704856
   0.8698571   0.8703421   0.8702416   0.8701258   0.8702382   0.8703059
   5.9231650   6.1701810   6.1694838   6.1697097   6.1698096   5.9238096
   5.9237500   6.1697361   6.1697232   6.1697961   6.1698327   5.9231731
   5.9233136   6.1696295   6.1701142   6.1698370   6.1696151   5.9237378
   8.4939814   8.4945342   8.4943573   8.4941971   8.4942338   8.4948112
 TTTTTTTTTTTTTTTTTTTTTTTTTTTTTT MOQGAD      TELAPSE       55.09 TCPU     1424.27
 TTTTTTTTTTTTTTTTTTTTTTTTTTTTTT SHELLXN     TELAPSE       62.45 TCPU     1658.67
 TTTTTTTTTTTTTTTTTTTTTTTTTTTTTT MONMO3      TELAPSE       62.59 TCPU     1663.18
 NUMERICALLY INTEGRATED DENSITY    197.9999596178
 TTTTTTTTTTTTTTTTTTTTTTTTTTTTTT NUMDFT      TELAPSE       63.25 TCPU     1684.29
 CYC   5 ETOT(AU) -1.289112023343E+03 DETOT -8.52E-04 tst  5.50E-06 PX  6.61E-03
 TTTTTTTTTTTTTTTTTTTTTTTTTTTTTT DIIS        TELAPSE       63.32 TCPU     1686.52
 DIIS TEST: 0.75519E-04 AT SCF   CYCLE   5 - DIIS ACTIVE - HISTORY:     5 CYCLES
 TTTTTTTTTTTTTTTTTTTTTTTTTTTTTT FDIK        TELAPSE       63.79 TCPU     1701.61
 INSULATING STATE
 TOP OF VALENCE BANDS -    BAND     99; K    1; EIG -2.4042669E-01 AU
 BOTTOM OF VIRTUAL BANDS - BAND    100; K    1; EIG -8.3373117E-02 AU
 DIRECT ENERGY BAND GAP:   4.2736 eV
 TTTTTTTTTTTTTTTTTTTTTTTTTTTTTT PDIG        TELAPSE       64.13 TCPU     1707.80
 CHARGE NORMALIZATION FACTOR   1.00000000
 TOTAL ATOMIC CHARGES:
   4.5022357   4.5011748   4.5019722   4.5018053   4.5008962   4.5015866
   0.8711395   0.8711805   0.8712420   0.8709994   0.8708698   0.8713247
   0.8708406   0.8712060   0.8711394   0.8710598   0.8711877   0.8711931
   5.9234560   6.1691101   6.1692160   6.1690282   6.1691346   5.9250418
   5.9235315   6.1685378   6.1695322   6.1687839   6.1694652   5.9249394
   5.9240469   6.1690907   6.1692787   6.1690163   6.1691133   5.9245193
   8.4933102   8.4937886   8.4938377   8.4936434   8.4932937   8.4942309
 TTTTTTTTTTTTTTTTTTTTTTTTTTTTTT MOQGAD      TELAPSE       64.18 TCPU     1707.84
 TTTTTTTTTTTTTTTTTTTTTTTTTTTTTT SHELLXN     TELAPSE       71.54 TCPU     1942.25
 TTTTTTTTTTTTTTTTTTTTTTTTTTTTTT MONMO3      TELAPSE       71.68 TCPU     1946.76
 NUMERICALLY INTEGRATED DENSITY    197.9999595934
 TTTTTTTTTTTTTTTTTTTTTTTTTTTTTT NUMDFT      TELAPSE       72.34 TCPU     1967.91
 CYC   6 ETOT(AU) -1.289112044647E+03 DETOT -2.13E-05 tst  2.29E-07 PX  7.55E-04
 TTTTTTTTTTTTTTTTTTTTTTTTTTTTTT DIIS        TELAPSE       72.41 TCPU     1970.12
 DIIS TEST: 0.48399E-05 AT SCF   CYCLE   6 - DIIS ACTIVE - HISTORY:     6 CYCLES
 TTTTTTTTTTTTTTTTTTTTTTTTTTTTTT FDIK        TELAPSE       72.88 TCPU     1985.14
 INSULATING STATE
 TOP OF VALENCE BANDS -    BAND     99; K    1; EIG -2.4039296E-01 AU
 BOTTOM OF VIRTUAL BANDS - BAND    100; K    1; EIG -8.3460585E-02 AU
 DIRECT ENERGY BAND GAP:   4.2703 eV
 TTTTTTTTTTTTTTTTTTTTTTTTTTTTTT PDIG        TELAPSE       73.22 TCPU     1991.34
 CHARGE NORMALIZATION FACTOR   1.00000000
 TOTAL ATOMIC CHARGES:
   4.5024304   4.5013623   4.5021476   4.5020836   4.5011896   4.5019101
   0.8710424   0.8712144   0.8712064   0.8709732   0.8707446   0.8713768
   0.8707438   0.8712293   0.8711337   0.8710022   0.8711322   0.8711848
   5.9239648   6.1693021   6.1685980   6.1687982   6.1689732   5.9247091
   5.9246210   6.1688797   6.1688088   6.1689218   6.1689403   5.9240161
   5.9240793   6.1687043   6.1692844   6.1689371   6.1687572   5.9246715
   8.4934503   8.4940286   8.4938075   8.4936457   8.4936990   8.4942945
 TTTTTTTTTTTTTTTTTTTTTTTTTTTTTT MOQGAD      TELAPSE       73.26 TCPU     1991.38
 TTTTTTTTTTTTTTTTTTTTTTTTTTTTTT SHELLXN     TELAPSE       80.62 TCPU     2225.75
 TTTTTTTTTTTTTTTTTTTTTTTTTTTTTT MONMO3      TELAPSE       80.76 TCPU     2230.27
 NUMERICALLY INTEGRATED DENSITY    197.9999595875
 TTTTTTTTTTTTTTTTTTTTTTTTTTTTTT NUMDFT      TELAPSE       81.42 TCPU     2251.41
 CYC   7 ETOT(AU) -1.289112044847E+03 DETOT -1.99E-07 tst  2.57E-08 PX  2.46E-04
 TTTTTTTTTTTTTTTTTTTTTTTTTTTTTT DIIS        TELAPSE       81.50 TCPU     2253.99
 DIIS TEST: 0.97504E-06 AT SCF   CYCLE   7 - DIIS ACTIVE - HISTORY:     7 CYCLES
 TTTTTTTTTTTTTTTTTTTTTTTTTTTTTT FDIK        TELAPSE       81.98 TCPU     2269.10
 INSULATING STATE
 TOP OF VALENCE BANDS -    BAND     99; K    1; EIG -2.4041034E-01 AU
 BOTTOM OF VIRTUAL BANDS - BAND    100; K    1; EIG -8.3458597E-02 AU
 DIRECT ENERGY BAND GAP:   4.2709 eV
 TTTTTTTTTTTTTTTTTTTTTTTTTTTTTT PDIG        TELAPSE       82.31 TCPU     2275.29
 CHARGE NORMALIZATION FACTOR   1.00000000
 TOTAL ATOMIC CHARGES:
   4.5024688   4.5014058   4.5021961   4.5020765   4.5011744   4.5018879
   0.8710472   0.8711470   0.8711736   0.8709436   0.8707679   0.8712947
   0.8707491   0.8711656   0.8710826   0.8709917   0.8711110   0.8711439
   5.9236226   6.1691772   6.1689367   6.1689420   6.1690221   5.9247820
   5.9239020   6.1686556   6.1692258   6.1688280   6.1692300   5.9244668
   5.9240345   6.1689453   6.1692320   6.1689825   6.1689278   5.9244444
   8.4934285   8.4939347   8.4938974   8.4937168   8.4935270   8.4943107
 TTTTTTTTTTTTTTTTTTTTTTTTTTTTTT MOQGAD      TELAPSE       82.36 TCPU     2275.34
 TTTTTTTTTTTTTTTTTTTTTTTTTTTTTT SHELLXN     TELAPSE       89.72 TCPU     2509.92
 +++ ENERGIES IN A.U. +++
 ::: EXT EL-POLE                                  -1.4873498352312E+03
 ::: EXT EL-SPHEROPOLE                             1.6356301450696E+01
 ::: BIELET ZONE E-E                               2.1162208553582E+03
 ::: TOTAL E-E                                     6.4522732157768E+02
 ::: TOTAL E-N + N-E                              -3.1162526912780E+03
 ::: TOTAL N-N                                     3.5686434444570E+01
 ::: KINETIC ENERGY                                1.2799458907397E+03
 ::: PSEUDO TOTAL   ENERGY                        -1.1553930445161E+03
 ::: VIRIAL COEFFICIENT                            1.0511439473252E+00
 TTTTTTTTTTTTTTTTTTTTTTTTTTTTTT MONMO3      TELAPSE       89.87 TCPU     2514.44
 NUMERICALLY INTEGRATED DENSITY    197.9999595878
 EXCHANGE ENERGY: -0.126025750507E+03  CORRELATION ENERGY: -0.769325012346E+01
 TTTTTTTTTTTTTTTTTTTTTTTTTTTTTT NUMDFT      TELAPSE       90.53 TCPU     2535.60
 CYC   8 ETOT(AU) -1.289112045147E+03 DETOT -3.00E-07 tst  8.97E-09 PX  2.46E-04

 == SCF ENDED - CONVERGENCE ON ENERGY      E(AU) -1.2891120451468E+03 CYCLES   8


 ENERGY EXPRESSION=HARTREE+FOCK EXCH*0.00000+(HSESOL     EXCH)*1.00000+PBESOL     CORR


 TOTAL ENERGY(DFT)(AU)(  8) -1.2891120451468E+03 DE-3.0E-07 tester 9.0E-09
 TTTTTTTTTTTTTTTTTTTTTTTTTTTTTT EDFT        TELAPSE       90.53 TCPU     2535.62
 
 INFORMATION **** DFTD3 ENERGY **** CALCULATE DFTD3 ENERGY

           DFT-D V3(BJ)
 DF                                         hsesol3c  
 parameters
 s6       :    1.0000
 s8       :    0.0000
 a1       :    0.5196
 a2       :    4.9385
 k1 k3    :   16.0000   -4.0000
 Cutoff   :   50.2022
 CN-Cutoff:   21.1671
 ABC-Cutoff:   21.1671
 
 Edisp /kcal,au:   -25.8218 -0.04114964

 E6    /kcal :   -27.3457
 E8    /kcal :     0.0000
 E6(ABC) "   :   1.523883
 
 INFORMATION **** DFTD3 ENERGY **** NORMAL TERMINATION OF DFTD3 MODULE

 GCP ENERGY CALCULATION
  level        hsesol3c            basis:hsesol3c
  Nbf            474
  Atoms           42

  Parameters: 
  sigma     1.0000
  eta       1.4281
  alpha     0.2936
  beta      1.9467

  dmp_scal      4.0000
  dmp_exp       6.0000
 cutoffs: 
   distance [bohr] 60.0
   noise    [a.u.] 2.2E-16
 SR-damping   T
 ** gCP correction **
  Egcp:        0.0832754229 / (a.u.) ||      52.2561 / (kcal/mol)
 INFORMATION **** GCP **** NORMAL TERMINATION OF GCP MODULE

 *******************************************************************************

 DFT-D3-GCP DISPERSION AND COUNTERPOISE CORRECTION

 D3 DISPERSION ENERGY (AU)      -4.1149641164016E-02
 GCP ENERGY (AU)                 8.3275422870878E-02
 TOTAL ENERGY + DISP + GCP (AU) -1.2890699193651E+03

 *******************************************************************************

 EIGENVECTORS IN FORTRAN UNIT  8
 TTTTTTTTTTTTTTTTTTTTTTTTTTTTTT END         TELAPSE       92.75 TCPU     2543.76
 EEEEEEEEEE TERMINATION  DATE 19 02 2026 TIME 18:35:10.5
