 Default number of threads is:           32

         
 *******************************************************************************
 *                                                                             *
 *                               CRYSTAL23                                     *
 *                      public : 1.0.1 - October 2022                          *
 *                       HTTP://WWW.CRYSTAL.UNITO.IT                           *
 *                                                                             *
 *                              MAIN AUTHORS                                   *
 *                                                                             *
 *  R. DOVESI(1,11), V.R. SAUNDERS(2), C. ROETTI(1,11), R. ORLANDO(1,11),      *
 *  C.M. ZICOVICH-WILSON(1,3), F. PASCALE(4), B. CIVALLERI(1,11),              *
 *  K. DOLL(5), N.M. HARRISON(6), I.J. BUSH(7), Ph. D'ARCO(8),                 *
 *  M. LLUNELL(9), M. CAUSA'(10), Y. NOEL(8), L. MASCHIO(1,11), A. ERBA(1,11)  *
 *  M. RE'RAT(14), S. CASASSA(1,11), B.G. SEARLE(2), J.K. DESMARAIS(1)         *
 *                                                                             *
 *        CONTRIBUTIONS TO THE CODE HAVE ALSO BEEN GIVEN BY                    *
 *                                                                             *
 *  M. FERRABONE(1,11), M. DE LA PIERRE(1,11), M. FERRERO(1,11),               *
 *  J. BAIMA(1,11), E. ALBANESE(1,11), M.F. PEINTINGER(12), R. BAST(13),       *
 *  B. KIRTMAN(15), V. LACIVITA(1,11), R. DEMICHELIS(1,16)                     *
 *  G. BRANDEBURG(17), S. SALUSTRO(1,11), G. SANSONE(1,11)                     *
 *  M.T. RUGGIERO(18), L.E. DAGA(1), L. DONA'(1), A. COSSARD(1)                *
 *                                                                             *
 * (1) THEORETICAL CHEMISTRY GROUP - UNIVERSITA' DI TORINO - TORINO (ITALY)    *
 * (2) SCIENTIFIC COMPUTING DEPARTMENT - STFC DARESBURY (UK)                   *
 * (3) UNIVERSIDAD AUTONOMA DEL ESTADO DE MORELOS - CUERNAVACA (MEXICO)        *
 * (4) UNIVERSITE' DE LORRAINE - NANCY (FRANCE)                                *
 * (5) UNIVERSITAET STUTTGART- STUTTGART (GERMANY)                             *
 * (6) IMPERIAL COLLEGE - LONDON (UK)                                          *
 * (7) SCIENTIFIC COMPUTING DEPARTMENT - STFC RAL (UK)                         *
 * (8) UPMC - SORBONNE UNIVERSITES - PARIS (FRANCE)                            *
 * (9) UNIVERSIDAD DE BARCELONA - BARCELONA (SPAIN)                            *
 *(10) UNIVERSITA' DI NAPOLI "FEDERICO II" - NAPOLI (ITALY)                    *
 *(11) NIS - NANOSTRUCTURED INTERFACES AND SURFACES - TORINO (ITALY)           *
 *(12) MPI FUER CHEMISCHE ENERGIEKONVERSION - MUELHEIM AN DER RUHR (GERMANY)   *
 *(13) UNIVERSITY OF TROMSO - TROMSO (NORWAY)                                  *
 *(14) UNIVERSITE' DE PAU ET DES PAYS DE L'ADOUR - PAU (FRANCE)                *
 *(15) UNIVERSITY OF CALIFORNIA SANTA BARBARA - SANTA BARBARA (USA)            *
 *(16) CURTIN UNIVERSITY - PERTH (AUSTRALIA)                                   *
 *(17) UNIVERSITY COLLEGE LONDON - LONDON (UK)                                 *
 *(18) UNIVERSITY OF VERMONT - BURLINGTON (USA)                                *
 *                                                                             *
 *******************************************************************************
 EEEEEEEEEE STARTING  DATE 19 02 2026 TIME 18:54:38.6
 cof-1_z37_L087_incl                                                             

 CRYSTAL CALCULATION
 (INPUT ACCORDING TO THE INTERNATIONAL TABLES FOR X-RAY CRYSTALLOGRAPHY)
 CRYSTAL FAMILY                       :  TRICLINIC   
 CRYSTAL CLASS  (GROTH - 1921)        :  TRICLINIC PEDIAL                     

 SPACE GROUP (NONCENTROSYMMETRIC)     :  P 1             

 LATTICE PARAMETERS  (ANGSTROMS AND DEGREES) - CONVENTIONAL CELL
        A           B           C        ALPHA        BETA       GAMMA
    15.02361    15.02392     9.43064    37.19159    89.99998   119.99596


 NUMBER OF IRREDUCIBLE ATOMS IN THE CONVENTIONAL CELL:   42

 INPUT COORDINATES

 ATOM AT. N.              COORDINATES
   1   5     4.466011500000E-01 -1.068745300000E-01  5.012840400000E-01
   2   5     6.056568000000E-01  5.218512000000E-02  5.012840500000E-01
   3   5     4.475015700000E-01  5.397749000000E-02  4.985697100000E-01
   4   5     6.017585000000E-02  2.794404600000E-01  5.012840500000E-01
   5   5     2.192838300000E-01  2.794197000000E-01  5.012840400000E-01
   6   5     2.201688000000E-01  4.403684600000E-01  4.985697200000E-01
   7   1     7.378398400000E-01 -2.151109000000E-02  4.956566800000E-01
   8   1    -6.828243000000E-02  3.611859800000E-01  4.947961600000E-01
   9   1     7.380986000000E-01  2.642932700000E-01  4.946637200000E-01
  10   1    -6.814765000000E-02  7.588376000000E-02  4.946967500000E-01
  11   1     5.229379600000E-01 -2.392189300000E-01  5.043294600000E-01
  12   1     1.405484500000E-01  5.666405400000E-01  5.051900200000E-01
  13   1     2.374445500000E-01 -2.398351400000E-01  5.053225500000E-01
  14   1     4.258978500000E-01  5.664843700000E-01  5.052892900000E-01
  15   1     5.258689500000E-01  2.636130400000E-01  4.956567300000E-01
  16   1     1.440448800000E-01  7.574191000000E-02  4.947961100000E-01
  17   1     2.409677800000E-01 -2.095585000000E-02  4.946636200000E-01
  18   1     4.294070100000E-01  3.611566700000E-01  4.946968600000E-01
  19   6     7.257487100000E-01  1.136267200000E-01  4.984704000000E-01
  20   6     7.812411900000E-01  6.225620000000E-02  4.957891100000E-01
  21   6    -1.117825900000E-01  2.768102900000E-01  4.955574800000E-01
  22   6     7.810497100000E-01  2.228537600000E-01  4.962526100000E-01
  23   6    -1.113802600000E-01  1.166032600000E-01  4.944650400000E-01
  24   6    -5.737753000000E-02  2.231751500000E-01  4.962856800000E-01
  25   6     3.868827900000E-01 -2.261787900000E-01  5.015157800000E-01
  26   6     4.391275600000E-01 -2.825788100000E-01  5.041970100000E-01
  27   6     2.246711400000E-01  6.103739300000E-01  5.044287300000E-01
  28   6     2.783917400000E-01 -2.822229600000E-01  5.037336200000E-01
  29   6     3.852252500000E-01  6.096061000000E-01  5.055210500000E-01
  30   6     2.780431100000E-01  5.561883300000E-01  5.037004800000E-01
  31   6     3.879032800000E-01  1.135575800000E-01  4.984703900000E-01
  32   6     4.419622800000E-01  2.230963100000E-01  4.957891700000E-01
  33   6     2.276526700000E-01  1.157970600000E-01  4.955574300000E-01
  34   6     2.808848800000E-01  6.185160000000E-02  4.962525400000E-01
  35   6     3.889363300000E-01  2.774512400000E-01  4.944651100000E-01
  36   6     2.805465600000E-01  2.230977500000E-01  4.962856800000E-01
  37   8     3.943192600000E-01 -5.249804000000E-02  4.992979400000E-01
  38   8     5.513555900000E-01 -5.630811000000E-02  5.050245300000E-01
  39   8     5.542328900000E-01  1.083967600000E-01  4.963850100000E-01
  40   8     1.139070800000E-01  3.867824200000E-01  4.992979700000E-01
  41   8     1.120178600000E-01  2.240091700000E-01  5.050245300000E-01
  42   8     2.738173200000E-01  3.887087300000E-01  4.963849900000E-01

 *******************************************************************************

 << INFORMATION >>: FROM NOW ON, ALL COORDINATES REFER TO THE PRIMITIVE CELL

 *******************************************************************************

 LATTICE PARAMETERS  (ANGSTROMS AND DEGREES) - PRIMITIVE CELL
       A          B          C        ALPHA      BETA     GAMMA        VOLUME
   15.02361   15.02392    9.43064    37.19159  89.99998 119.99596    723.291851

 COORDINATES OF THE EQUIVALENT ATOMS (FRACTIONAL UNITS)

 N. ATOM EQUIV AT. N.          X                  Y                  Z

   1   1   1    5 B     4.46601150000E-01 -1.06874530000E-01 -4.98715960000E-01

   2   2   1    5 B    -3.94343200000E-01  5.21851200000E-02 -4.98715950000E-01

   3   3   1    5 B     4.47501570000E-01  5.39774900000E-02  4.98569710000E-01

   4   4   1    5 B     6.01758500000E-02  2.79440460000E-01 -4.98715950000E-01

   5   5   1    5 B     2.19283830000E-01  2.79419700000E-01 -4.98715960000E-01

   6   6   1    5 B     2.20168800000E-01  4.40368460000E-01  4.98569720000E-01

   7   7   1    1 H    -2.62160160000E-01 -2.15110900000E-02  4.95656680000E-01

   8   8   1    1 H    -6.82824300000E-02  3.61185980000E-01  4.94796160000E-01

   9   9   1    1 H    -2.61901400000E-01  2.64293270000E-01  4.94663720000E-01

  10  10   1    1 H    -6.81476500000E-02  7.58837600000E-02  4.94696750000E-01

  11  11   1    1 H    -4.77062040000E-01 -2.39218930000E-01 -4.95670540000E-01

  12  12   1    1 H     1.40548450000E-01 -4.33359460000E-01 -4.94809980000E-01

  13  13   1    1 H     2.37444550000E-01 -2.39835140000E-01 -4.94677450000E-01

  14  14   1    1 H     4.25897850000E-01 -4.33515630000E-01 -4.94710710000E-01

  15  15   1    1 H    -4.74131050000E-01  2.63613040000E-01  4.95656730000E-01

  16  16   1    1 H     1.44044880000E-01  7.57419100000E-02  4.94796110000E-01

  17  17   1    1 H     2.40967780000E-01 -2.09558500000E-02  4.94663620000E-01

  18  18   1    1 H     4.29407010000E-01  3.61156670000E-01  4.94696860000E-01

  19  19   1    6 C    -2.74251290000E-01  1.13626720000E-01  4.98470400000E-01

  20  20   1    6 C    -2.18758810000E-01  6.22562000000E-02  4.95789110000E-01

  21  21   1    6 C    -1.11782590000E-01  2.76810290000E-01  4.95557480000E-01

  22  22   1    6 C    -2.18950290000E-01  2.22853760000E-01  4.96252610000E-01

  23  23   1    6 C    -1.11380260000E-01  1.16603260000E-01  4.94465040000E-01

  24  24   1    6 C    -5.73775300000E-02  2.23175150000E-01  4.96285680000E-01

  25  25   1    6 C     3.86882790000E-01 -2.26178790000E-01 -4.98484220000E-01

  26  26   1    6 C     4.39127560000E-01 -2.82578810000E-01 -4.95802990000E-01

  27  27   1    6 C     2.24671140000E-01 -3.89626070000E-01 -4.95571270000E-01

  28  28   1    6 C     2.78391740000E-01 -2.82222960000E-01 -4.96266380000E-01

  29  29   1    6 C     3.85225250000E-01 -3.90393900000E-01 -4.94478950000E-01

  30  30   1    6 C     2.78043110000E-01 -4.43811670000E-01 -4.96299520000E-01

  31  31   1    6 C     3.87903280000E-01  1.13557580000E-01  4.98470390000E-01

  32  32   1    6 C     4.41962280000E-01  2.23096310000E-01  4.95789170000E-01

  33  33   1    6 C     2.27652670000E-01  1.15797060000E-01  4.95557430000E-01

  34  34   1    6 C     2.80884880000E-01  6.18516000000E-02  4.96252540000E-01

  35  35   1    6 C     3.88936330000E-01  2.77451240000E-01  4.94465110000E-01

  36  36   1    6 C     2.80546560000E-01  2.23097750000E-01  4.96285680000E-01

  37  37   1    8 O     3.94319260000E-01 -5.24980400000E-02  4.99297940000E-01

  38  38   1    8 O    -4.48644410000E-01 -5.63081100000E-02 -4.94975470000E-01

  39  39   1    8 O    -4.45767110000E-01  1.08396760000E-01  4.96385010000E-01

  40  40   1    8 O     1.13907080000E-01  3.86782420000E-01  4.99297970000E-01

  41  41   1    8 O     1.12017860000E-01  2.24009170000E-01 -4.94975470000E-01

  42  42   1    8 O     2.73817320000E-01  3.88708730000E-01  4.96384990000E-01

 NUMBER OF SYMMETRY OPERATORS         :    1
 *******************************************************************************
 * GEOMETRY EDITING - INPUT COORDINATES ARE GIVEN IN ANGSTROM         
 *******************************************************************************

 GCALCO - MAX INDICES DIRECT LATTICE VECTOR     9    15    22
 NO.OF VECTORS CREATED 6999 STARS 3500 RMAX   219.63403 BOHR

 GEOMETRY FOR WAVE FUNCTION - DIMENSIONALITY OF THE SYSTEM    3
 (NON PERIODIC DIRECTION: LATTICE PARAMETER FORMALLY SET TO 500)
 *******************************************************************************
 LATTICE PARAMETERS (ANGSTROMS AND DEGREES) - BOHR = 0.5291772083 ANGSTROM
 PRIMITIVE CELL - CENTRING CODE 1/0 VOLUME=   723.291851 - DENSITY  0.896 g/cm^3
         A              B              C           ALPHA      BETA       GAMMA 
    15.02361100    15.02391600     9.43064200    37.191595  89.999978 119.995964
 *******************************************************************************
 ATOMS IN THE ASYMMETRIC UNIT   42 - ATOMS IN THE UNIT CELL:   42
     ATOM                 X/A                 Y/B                 Z/C    
 *******************************************************************************
      1 T   5 B     4.466011500000E-01 -1.068745300000E-01 -4.987159600000E-01
      2 T   5 B    -3.943432000000E-01  5.218512000000E-02 -4.987159500000E-01
      3 T   5 B     4.475015700000E-01  5.397749000000E-02  4.985697100000E-01
      4 T   5 B     6.017585000000E-02  2.794404600000E-01 -4.987159500000E-01
      5 T   5 B     2.192838300000E-01  2.794197000000E-01 -4.987159600000E-01
      6 T   5 B     2.201688000000E-01  4.403684600000E-01  4.985697200000E-01
      7 T   1 H    -2.621601600000E-01 -2.151109000000E-02  4.956566800000E-01
      8 T   1 H    -6.828243000000E-02  3.611859800000E-01  4.947961600000E-01
      9 T   1 H    -2.619014000000E-01  2.642932700000E-01  4.946637200000E-01
     10 T   1 H    -6.814765000000E-02  7.588376000000E-02  4.946967500000E-01
     11 T   1 H    -4.770620400000E-01 -2.392189300000E-01 -4.956705400000E-01
     12 T   1 H     1.405484500000E-01 -4.333594600000E-01 -4.948099800000E-01
     13 T   1 H     2.374445500000E-01 -2.398351400000E-01 -4.946774500000E-01
     14 T   1 H     4.258978500000E-01 -4.335156300000E-01 -4.947107100000E-01
     15 T   1 H    -4.741310500000E-01  2.636130400000E-01  4.956567300000E-01
     16 T   1 H     1.440448800000E-01  7.574191000000E-02  4.947961100000E-01
     17 T   1 H     2.409677800000E-01 -2.095585000000E-02  4.946636200000E-01
     18 T   1 H     4.294070100000E-01  3.611566700000E-01  4.946968600000E-01
     19 T   6 C    -2.742512900000E-01  1.136267200000E-01  4.984704000000E-01
     20 T   6 C    -2.187588100000E-01  6.225620000000E-02  4.957891100000E-01
     21 T   6 C    -1.117825900000E-01  2.768102900000E-01  4.955574800000E-01
     22 T   6 C    -2.189502900000E-01  2.228537600000E-01  4.962526100000E-01
     23 T   6 C    -1.113802600000E-01  1.166032600000E-01  4.944650400000E-01
     24 T   6 C    -5.737753000000E-02  2.231751500000E-01  4.962856800000E-01
     25 T   6 C     3.868827900000E-01 -2.261787900000E-01 -4.984842200000E-01
     26 T   6 C     4.391275600000E-01 -2.825788100000E-01 -4.958029900000E-01
     27 T   6 C     2.246711400000E-01 -3.896260700000E-01 -4.955712700000E-01
     28 T   6 C     2.783917400000E-01 -2.822229600000E-01 -4.962663800000E-01
     29 T   6 C     3.852252500000E-01 -3.903939000000E-01 -4.944789500000E-01
     30 T   6 C     2.780431100000E-01 -4.438116700000E-01 -4.962995200000E-01
     31 T   6 C     3.879032800000E-01  1.135575800000E-01  4.984703900000E-01
     32 T   6 C     4.419622800000E-01  2.230963100000E-01  4.957891700000E-01
     33 T   6 C     2.276526700000E-01  1.157970600000E-01  4.955574300000E-01
     34 T   6 C     2.808848800000E-01  6.185160000000E-02  4.962525400000E-01
     35 T   6 C     3.889363300000E-01  2.774512400000E-01  4.944651100000E-01
     36 T   6 C     2.805465600000E-01  2.230977500000E-01  4.962856800000E-01
     37 T   8 O     3.943192600000E-01 -5.249804000000E-02  4.992979400000E-01
     38 T   8 O    -4.486444100000E-01 -5.630811000000E-02 -4.949754700000E-01
     39 T   8 O    -4.457671100000E-01  1.083967600000E-01  4.963850100000E-01
     40 T   8 O     1.139070800000E-01  3.867824200000E-01  4.992979700000E-01
     41 T   8 O     1.120178600000E-01  2.240091700000E-01 -4.949754700000E-01
     42 T   8 O     2.738173200000E-01  3.887087300000E-01  4.963849900000E-01

 T = ATOM BELONGING TO THE ASYMMETRIC UNIT

 ****    1 SYMMOPS - TRANSLATORS IN FRACTIONAL UNITS
 **** MATRICES AND TRANSLATORS IN THE CRYSTALLOGRAPHIC REFERENCE FRAME
   V INV                    ROTATION MATRICES                   TRANSLATORS
   1   1  1.00 -0.00  0.00  0.00  1.00  0.00  0.00 -0.00  1.00  0.00  0.00  0.00

 DIRECT LATTICE VECTORS CARTESIAN COMPONENTS (ANGSTROM)
          X                    Y                    Z
   0.130113578931E+02  -0.751088897922E+01   0.000000000000E+00
   0.000000000000E+00   0.150239160000E+02   0.000000000000E+00
   0.433671458130E+01   0.751262483727E+01   0.370005178705E+01


 CARTESIAN COORDINATES - PRIMITIVE CELL
 *******************************************************************************
 *      ATOM          X(ANGSTROM)         Y(ANGSTROM)         Z(ANGSTROM)
 *******************************************************************************
    1     5 B    -6.886159588622E-01 -1.195420362015E+00 -5.545326666080E+00
    2     5 B     1.380914071568E+00 -3.707949660257E-04 -5.545326629079E+00
    3     5 B    -6.898856956265E-01  1.194983668304E+00  5.544785533506E+00
    4     5 B    -1.379819211424E+00 -3.499632532351E-04 -1.845274842028E+00
    5     5 B     6.903916166299E-01 -1.195704308363E+00 -1.845274879029E+00
    6     5 B     6.901350469022E-01  1.195337762913E+00 -1.855318003595E+00
    7     1 H    -1.261538115585E+00  5.369557732234E+00  1.833955384598E+00
    8     1 H    -3.079371993996E+00  2.143882658589E+00 -1.869280371017E+00
    9     1 H    -1.262477480727E+00 -5.369860824283E+00  1.830281381175E+00
   10     1 H    -3.078049435975E+00 -2.144233076957E+00 -1.869648193165E+00
   11     1 H    -4.020092016669E+00  3.777992936074E+00  1.866045119735E+00
   12     1 H    -3.171234709757E-01  3.740194325525E+00 -1.830822550750E+00
   13     1 H     5.280915690652E+00 -1.590383911014E+00  1.869719604165E+00
   14     1 H     3.396090202650E+00  1.595366155145E+00 -1.830455246609E+00
   15     1 H    -4.019567011449E+00 -3.778587091826E+00  1.833955569600E+00
   16     1 H    -3.167055899514E-01 -3.739372300086E+00 -1.869280556020E+00
   17     1 H     5.280532959969E+00  1.591501024451E+00  1.830281011170E+00
   18     1 H     3.395812793681E+00 -1.595393826004E+00 -1.869647786159E+00
   19     6 C    -5.743372416097E+00 -8.144413555910E-04 -1.855685492739E+00
   20     6 C    -5.032967887884E+00 -1.209542201023E+00 -1.865606404595E+00
   21     6 C    -3.642066516616E+00  1.208673763466E+00 -1.866463447590E+00
   22     6 C    -5.033449235485E+00  1.208182336856E+00 -1.863891430592E+00
   23     6 C    -3.641569257472E+00 -1.209492145704E+00 -1.870505532165E+00
   24     6 C    -2.931024814204E+00 -2.957467034352E-04 -1.863769069879E+00
   25     6 C     2.872086657931E+00  4.975066242238E+00 -1.844417429028E+00
   26     6 C     3.563489787678E+00  3.755455487237E+00 -1.834496739175E+00
   27     6 C     7.741254580974E-01  3.759685631895E+00 -1.833639363175E+00
   28     6 C     1.470088917255E+00  4.964589371526E+00 -1.836211306172E+00
   29     6 C     2.867889524580E+00  2.550451913468E+00 -1.829597722607E+00
   30     6 C     1.465409048831E+00  2.539263718775E+00 -1.836333925888E+00
   31     6 C     2.872157631329E+00 -4.975222732385E+00 -1.855685529739E+00
   32     6 C     3.563910941800E+00 -3.755696201412E+00 -1.865606182592E+00
   33     6 C     7.744469159312E-01 -3.759836408065E+00 -1.866463632593E+00
   34     6 C     1.470084745352E+00 -4.964907586465E+00 -1.863891689595E+00
   35     6 C     2.868229258422E+00 -2.550747441481E+00 -1.870505273161E+00
   36     6 C     1.465826461471E+00 -2.539568921195E+00 -1.863769069879E+00
   37     8 O    -1.378701638956E+00  2.215943825114E-04  5.547480022219E+00
   38     8 O     6.906029883887E-01 -1.194412786356E+00 -5.531486659371E+00
   39     8 O     6.893592869460E-01  1.194514282959E+00  5.536702030367E+00
   40     8 O    -6.893160099558E-01  1.193856649879E+00 -1.852623440881E+00
   41     8 O    -6.890628712618E-01 -1.194423766603E+00 -1.831434872320E+00
   42     8 O     1.378700590608E+00 -1.548156698130E-04 -1.863401617736E+00

 *******************************************************************************
 STARTING BASIS SET HANDLING 
 *******************************************************************************

 Loading internal basis set: SOLDEF2MSVP         

 Please cite in your publication:
 L. Dona', J. G. Brandenburg and B. Civalleri, J. Chem. Phys., 151, 121101 (2019
 )                                                                              
                                                                                
                    

 *******************************************************************************
 LOCAL ATOMIC FUNCTIONS BASIS SET
 *******************************************************************************
   ATOM   X(AU)   Y(AU)   Z(AU)  N. TYPE  EXPONENT  S COEF   P COEF   D/F/G COEF
 *******************************************************************************
   1 B   -1.301  -2.259 -10.479
                                  1 S  
                                         2.410E+03 1.755E-03 0.000E+00 0.000E+00
                                         3.619E+02 1.344E-02 0.000E+00 0.000E+00
                                         8.231E+01 6.637E-02 0.000E+00 0.000E+00
                                         2.311E+01 2.303E-01 0.000E+00 0.000E+00
                                         7.252E+00 5.150E-01 0.000E+00 0.000E+00
                                  2 S  
                                         2.367E+00 1.000E+00 0.000E+00 0.000E+00
                                  3 S  
                                         5.533E-01 1.000E+00 0.000E+00 0.000E+00
                                  4 S  
                                         1.716E-01 1.000E+00 0.000E+00 0.000E+00
                           5-     7 P  
                                         6.002E+00 0.000E+00-3.555E-02 0.000E+00
                                         1.240E+00 0.000E+00-1.983E-01 0.000E+00
                                         3.367E-01 0.000E+00-5.048E-01 0.000E+00
                           8-    10 P  
                                         1.256E-01 0.000E+00 1.000E+00 0.000E+00
                          11-    15 D  
                                         8.880E-01 0.000E+00 0.000E+00 1.000E+00
   2 B    2.610  -0.001 -10.479
   3 B   -1.304   2.258  10.478
   4 B   -2.607  -0.001  -3.487
   5 B    1.305  -2.260  -3.487
   6 B    1.304   2.259  -3.506
   7 H   -2.384  10.147   3.466
                                 91 S  
                                         1.874E+01 1.968E-02 0.000E+00 0.000E+00
                                         2.826E+00 1.380E-01 0.000E+00 0.000E+00
                                         6.401E-01 4.783E-01 0.000E+00 0.000E+00
                                 92 S  
                                         1.756E-01 1.000E+00 0.000E+00 0.000E+00
   8 H   -5.819   4.051  -3.532
   9 H   -2.386 -10.148   3.459
  10 H   -5.817  -4.052  -3.533
  11 H   -7.597   7.139   3.526
  12 H   -0.599   7.068  -3.460
  13 H    9.979  -3.005   3.533
  14 H    6.418   3.015  -3.459
  15 H   -7.596  -7.140   3.466
  16 H   -0.598  -7.066  -3.532
  17 H    9.979   3.008   3.459
  18 H    6.417  -3.015  -3.533
  19 C  -10.853  -0.002  -3.507
                                115 S  
                                         3.624E+03 1.634E-03 0.000E+00 0.000E+00
                                         5.440E+02 1.252E-02 0.000E+00 0.000E+00
                                         1.237E+02 6.211E-02 0.000E+00 0.000E+00
                                         3.476E+01 2.182E-01 0.000E+00 0.000E+00
                                         1.093E+01 4.980E-01 0.000E+00 0.000E+00
                                116 S  
                                         3.574E+00 1.000E+00 0.000E+00 0.000E+00
                                117 S  
                                         7.742E-01 1.000E+00 0.000E+00 0.000E+00
                                118 S  
                                         2.330E-01 1.000E+00 0.000E+00 0.000E+00
                         119-   121 P  
                                         9.443E+00 0.000E+00 3.790E-02 0.000E+00
                                         2.002E+00 0.000E+00 2.082E-01 0.000E+00
                                         5.463E-01 0.000E+00 5.047E-01 0.000E+00
                         122-   124 P  
                                         1.820E-01 0.000E+00 1.000E+00 0.000E+00
                         125-   129 D  
                                         8.880E-01 0.000E+00 0.000E+00 1.000E+00
  20 C   -9.511  -2.286  -3.525
  21 C   -6.883   2.284  -3.527
  22 C   -9.512   2.283  -3.522
  23 C   -6.882  -2.286  -3.535
  24 C   -5.539  -0.001  -3.522
  25 C    5.427   9.402  -3.485
  26 C    6.734   7.097  -3.467
  27 C    1.463   7.105  -3.465
  28 C    2.778   9.382  -3.470
  29 C    5.420   4.820  -3.457
  30 C    2.769   4.799  -3.470
  31 C    5.428  -9.402  -3.507
  32 C    6.735  -7.097  -3.525
  33 C    1.463  -7.105  -3.527
  34 C    2.778  -9.382  -3.522
  35 C    5.420  -4.820  -3.535
  36 C    2.770  -4.799  -3.522
  37 O   -2.605   0.000  10.483
                                385 S  
                                         6.773E+03 1.727E-03 0.000E+00 0.000E+00
                                         1.017E+03 1.325E-02 0.000E+00 0.000E+00
                                         2.313E+02 6.603E-02 0.000E+00 0.000E+00
                                         6.501E+01 2.353E-01 0.000E+00 0.000E+00
                                         2.050E+01 5.498E-01 0.000E+00 0.000E+00
                                386 S  
                                         6.716E+00 1.000E+00 0.000E+00 0.000E+00
                                387 S  
                                         1.147E+00 1.000E+00 0.000E+00 0.000E+00
                                388 S  
                                         3.342E-01 1.000E+00 0.000E+00 0.000E+00
                         389-   391 P  
                                         1.769E+01 0.000E+00 4.359E-02 0.000E+00
                                         3.854E+00 0.000E+00 2.318E-01 0.000E+00
                                         1.047E+00 0.000E+00 5.146E-01 0.000E+00
                         392-   394 P  
                                         2.759E-01 0.000E+00 1.000E+00 0.000E+00
                         395-   399 D  
                                         8.000E-01 0.000E+00 0.000E+00 1.000E+00
  38 O    1.305  -2.257 -10.453
  39 O    1.303   2.257  10.463
  40 O   -1.303   2.256  -3.501
  41 O   -1.302  -2.257  -3.461
  42 O    2.605  -0.000  -3.521

 *******************************************************************************
 FINISHED BASIS SET HANDLING 
 *******************************************************************************

 INFORMATION **** SET_MPP **** PCRYSTAL CALCULATION
 INFORMATION **** READM2 **** NEW DEFAULT: FOCK/KS MATRIX MIXING SET TO 30 %
 INFORMATION **** READM2 **** NEW DEFAULT: FULL DIRECT SCF MODE
 INFORMATION **** READM2 **** NEW DEFAULT: COULOMB BIPOLAR BUFFER SET TO 32 Mb
 INFORMATION **** READM2 **** NEW DEFAULT: EXCHANGE BIPOLAR BUFFER SET TO 32 Mb

 *******************************************************************************
 NEW DEFAULT: DFT INTEGRATION GRID INCREASED TO XLGRID
 NEW DEFAULT: DIIS ACCELERATOR ACTIVE
 USE KEYWORD NODIIS TO TURN IT OFF
 *******************************************************************************

 WARNING **** RDDFTP **** HSEsol-HJS ACTIVE
 RANGE SEPARATION - OMEGA:   0.110000000000000     
 WARNING **** RDDFTP **** HSEsol-3c has to be combined with sol-def2-mSVP basis set
 *******************************************************************************
 N. OF ATOMS PER CELL        42  COULOMB OVERLAP TOL         (T1) 10**   -6
 NUMBER OF SHELLS           234  COULOMB PENETRATION TOL     (T2) 10**   -6
 NUMBER OF AO               474  EXCHANGE OVERLAP TOL        (T3) 10**   -6
 N. OF ELECTRONS PER CELL   198  EXCHANGE PSEUDO OVP (F(G))  (T4) 10**   -6
 CORE ELECTRONS PER CELL     60  EXCHANGE PSEUDO OVP (P(G))  (T5) 10**  -12
 N. OF SYMMETRY OPERATORS     1  POLE ORDER IN MONO ZONE                  4
 *******************************************************************************
 TYPE OF CALCULATION :  RESTRICTED CLOSED SHELL
 KOHN-SHAM HAMILTONIAN

 (EXCHANGE)[CORRELATION] FUNCTIONAL:(HSEsol GGA)[PBEsol]

 RANGE-SEPARATED HYBRID FUNCTIONAL 
 OMEGA (SHORT-RANGE)[LONG-RANGE]:(    0.1100)[    0.0000]

 HYBRID EXCHANGE - PERCENTAGE OF FOCK EXCHANGE    25.0000

 CAPPA:IS1  2;IS2  2;IS3  8; K PTS MONK NET  20; SYMMOPS:K SPACE   2;G SPACE   1

 *******************************************************************************
 MAX NUMBER OF SCF CYCLES      50  CONVERGENCE ON DELTAP        10**-16
 WEIGHT OF F(I) IN F(I+1)      30% CONVERGENCE ON ENERGY        10**- 6
 SHRINK. FACT.(MONKH.)    2  2  8  NUMBER OF K POINTS IN THE IBZ     20
 SHRINKING FACTOR(GILAT NET)    8  NUMBER OF K POINTS(GILAT NET)   1028
 *******************************************************************************
 *** K POINTS COORDINATES (OBLIQUE COORDINATES IN UNITS OF IS =  2)
   1-R(  0  0  0)   2-R(  1  0  0)   3-R(  0  1  0)   4-R(  1  1  0)
   5-C(  0  0  1)   6-C(  1  0  1)   7-C(  0  1  1)   8-C(  1  1  1)
   9-C(  0  0  2)  10-C(  1  0  2)  11-C(  0  1  2)  12-C(  1  1  2)
  13-C(  0  0  3)  14-C(  1  0  3)  15-C(  0  1  3)  16-C(  1  1  3)
  17-R(  0  0  4)  18-R(  1  0  4)  19-R(  0  1  4)  20-R(  1  1  4)

 DIRECT LATTICE VECTORS COMPON. (A.U.)     RECIP. LATTICE VECTORS COMPON. (A.U.) 
        X            Y            Z              X            Y            Z
   24.5879030  -14.1935232    0.0000000      0.2555397    0.0000000   -0.2995101
    0.0000000   28.3910867    0.0000000      0.1277517    0.2213084   -0.5990806
    8.1952029   14.1968035    6.9920846      0.0000000    0.0000000    0.8986140

 DISK SPACE FOR EIGENVECTORS (FTN 10)     7189632 REALS

 SYMMETRY ADAPTION OF THE BLOCH FUNCTIONS DISABLED
 TTTTTTTTTTTTTTTTTTTTTTTTTTTTTT gordsh1     TELAPSE        0.04 TCPU        0.04

 MATRIX SIZE: P(G)  311772, F(G)   61268, P(G) IRR  156837, F(G) IRR   61748
 MAX G-VECTOR INDEX FOR 1- AND 2-ELECTRON INTEGRALS  57

 TTTTTTTTTTTTTTTTTTTTTTTTTTTTTT INPUT       TELAPSE        0.42 TCPU        0.42

 NEIGHBORS OF THE NON-EQUIVALENT ATOMS

 N = NUMBER OF NEIGHBORS AT DISTANCE R
    ATOM  N     R/ANG      R/AU   NEIGHBORS (ATOM LABELS AND CELL INDICES)
   1 B    1     1.3791     2.6061   37 O    1 2-3
   1 B    1     1.3793     2.6065   38 O    0 0 0
   1 B    1     1.5503     2.9297   25 C    0 0-1
   1 B    1     2.3895     4.5155    3 B    1 2-3
   1 B    1     2.3898     4.5160    2 B    0 0 0
   1 B    1     2.5632     4.8437   26 C    0 0-1

   2 B    1     1.3793     2.6065   39 O    1 2-3
   2 B    1     1.3793     2.6065   38 O    0 0 0
   2 B    1     1.5504     2.9298   19 C    1 1-1
   2 B    1     2.3895     4.5156    3 B    1 2-3
   2 B    1     2.3898     4.5160    1 B    0 0 0
   2 B    1     2.5634     4.8440   22 C    1 1-1

   3 B    1     1.3791     2.6061   37 O    0 0 0
   3 B    1     1.3793     2.6064   39 O    0 0 0
   3 B    1     1.5502     2.9294   31 C   -1-1 2
   3 B    1     2.3895     4.5155    1 B   -1-2 3
   3 B    1     2.3895     4.5156    2 B   -1-2 3
   3 B    1     2.5629     4.8433   32 C   -1-1 2

   4 B    1     1.3795     2.6068   40 O    0 0 0
   4 B    1     1.3795     2.6070   41 O    0 0 0
   4 B    1     1.5513     2.9316   24 C    0 0 0
   4 B    1     2.3905     4.5174    6 B    0 0 0
   4 B    1     2.3905     4.5175    5 B    0 0 0
   4 B    1     2.5648     4.8468   23 C    0 0 0

   5 B    1     1.3795     2.6069   41 O    0 0 0
   5 B    1     1.3797     2.6072   42 O    0 0 0
   5 B    1     1.5516     2.9322   36 C    0 0 0
   5 B    1     2.3905     4.5175    4 B    0 0 0
   5 B    1     2.3911     4.5185    6 B    0 0 0
   5 B    1     2.5651     4.8473   35 C    0 0 0

   6 B    1     1.3795     2.6068   40 O    0 0 0
   6 B    1     1.3796     2.6071   42 O    0 0 0
   6 B    1     1.5516     2.9322   30 C    0 0 0
   6 B    1     2.3905     4.5174    4 B    0 0 0
   6 B    1     2.3911     4.5185    5 B    0 0 0
   6 B    1     2.5651     4.8473   29 C    0 0 0

   7 H    1     1.0913     2.0623   20 C    0 0 1
   7 H    1     2.1472     4.0576   19 C    0 0 1
   7 H    1     2.1680     4.0969   23 C    0 0 1
   7 H    1     2.5202     4.7625   10 H    0 0 1
   7 H    1     2.5676     4.8520   38 O   -1-1 2
   7 H    1     2.7321     5.1630    2 B   -1-1 2

   8 H    1     1.0914     2.0625   21 C    0 0 0
   8 H    1     2.1493     4.0616   24 C    0 0 0
   8 H    1     2.1666     4.0942   22 C    0 0 0
   8 H    1     2.5198     4.7618    9 H    0 1-1
   8 H    1     2.5720     4.8604   40 O    0 0 0
   8 H    1     2.7362     5.1707    4 B    0 0 0

   9 H    1     1.0914     2.0624   22 C    0-1 1
   9 H    1     2.1471     4.0575   19 C    0-1 1
   9 H    1     2.1680     4.0970   21 C    0-1 1
   9 H    1     2.5198     4.7618    8 H    0-1 1
   9 H    1     2.5665     4.8500   39 O    0 0-1
   9 H    1     2.7315     5.1618    2 B   -1-2 2

  10 H    1     1.0915     2.0626   23 C    0 0 0
  10 H    1     2.1490     4.0610   24 C    0 0 0
  10 H    1     2.1669     4.0948   20 C    0 0 0
  10 H    1     2.5202     4.7625    7 H    0 0-1
  10 H    1     2.5712     4.8588   41 O    0 0 0
  10 H    1     2.7351     5.1686    4 B    0 0 0

  11 H    1     1.0913     2.0623   26 C   -1-1 1
  11 H    1     2.1469     4.0571   25 C   -1-1 1
  11 H    1     2.1680     4.0968   29 C   -1-1 1
  11 H    1     2.5198     4.7617   14 H   -1-1 1
  11 H    1     2.5670     4.8510   38 O   -1-1 2
  11 H    1     2.7310     5.1609    1 B   -1-1 2

  12 H    1     1.0914     2.0625   27 C    0 0 0
  12 H    1     2.1493     4.0617   30 C    0 0 0
  12 H    1     2.1664     4.0939   28 C    0 0 0
  12 H    1     2.5192     4.7606   13 H    0 1-1
  12 H    1     2.5735     4.8632   40 O    0 0 0
  12 H    1     2.7371     5.1723    6 B    0 0 0

  13 H    1     1.0914     2.0624   28 C    0-1 1
  13 H    1     2.1475     4.0581   25 C    0-1 1
  13 H    1     2.1679     4.0967   27 C    0-1 1
  13 H    1     2.5192     4.7606   12 H    0-1 1
  13 H    1     2.5675     4.8519   37 O    1 1-1
  13 H    1     2.7328     5.1643    1 B    0-1 2

  14 H    1     1.0914     2.0625   29 C    0 0 0
  14 H    1     2.1491     4.0612   30 C    0 0 0
  14 H    1     2.1666     4.0942   26 C    0 0 0
  14 H    1     2.5198     4.7617   11 H    1 1-1
  14 H    1     2.5723     4.8609   42 O    0 0 0
  14 H    1     2.7355     5.1693    6 B    0 0 0

  15 H    1     1.0914     2.0624   32 C   -1-1 1
  15 H    1     2.1475     4.0582   31 C   -1-1 1
  15 H    1     2.1678     4.0966   35 C   -1-1 1
  15 H    1     2.5200     4.7621   18 H   -1-1 1
  15 H    1     2.5667     4.8503   39 O    0 0-1
  15 H    1     2.7315     5.1618    3 B    0 0-1

  16 H    1     1.0913     2.0623   33 C    0 0 0
  16 H    1     2.1487     4.0605   36 C    0 0 0
  16 H    1     2.1667     4.0945   34 C    0 0 0
  16 H    1     2.5197     4.7616   17 H    0 0-1
  16 H    1     2.5723     4.8610   41 O    0 0 0
  16 H    1     2.7359     5.1701    5 B    0 0 0

  17 H    1     1.0915     2.0626   34 C    0 0 1
  17 H    1     2.1479     4.0589   31 C    0 0 1
  17 H    1     2.1679     4.0968   33 C    0 0 1
  17 H    1     2.5197     4.7616   16 H    0 0 1
  17 H    1     2.5677     4.8522   37 O    1 1-1
  17 H    1     2.7331     5.1648    3 B    1 1-1

  18 H    1     1.0914     2.0624   35 C    0 0 0
  18 H    1     2.1486     4.0602   36 C    0 0 0
  18 H    1     2.1668     4.0947   32 C    0 0 0
  18 H    1     2.5200     4.7621   15 H    1 1-1
  18 H    1     2.5717     4.8598   42 O    0 0 0
  18 H    1     2.7349     5.1682    5 B    0 0 0

  19 C    1     1.4020     2.6495   22 C    0 0 0
  19 C    1     1.4021     2.6495   20 C    0 0 0
  19 C    1     1.5504     2.9298    2 B   -1-1 1
  19 C    1     2.1471     4.0575    9 H    0 1-1
  19 C    1     2.1472     4.0576    7 H    0 0-1
  19 C    1     2.4246     4.5817   21 C    0 0 0

  20 C    1     1.0913     2.0623    7 H    0 0-1
  20 C    1     1.3914     2.6294   23 C    0 0 0
  20 C    1     1.4021     2.6495   19 C    0 0 0
  20 C    1     2.1669     4.0948   10 H    0 0 0
  20 C    1     2.4177     4.5688   22 C    0 0 0
  20 C    1     2.4250     4.5825   24 C    0 0 0

  21 C    1     1.0914     2.0625    8 H    0 0 0
  21 C    1     1.3914     2.6293   22 C    0 0 0
  21 C    1     1.4026     2.6505   24 C    0 0 0
  21 C    1     2.1680     4.0970    9 H    0 1-1
  21 C    1     2.4182     4.5697   23 C    0 0 0
  21 C    1     2.4246     4.5817   19 C    0 0 0

  22 C    1     1.0914     2.0624    9 H    0 1-1
  22 C    1     1.3914     2.6293   21 C    0 0 0
  22 C    1     1.4020     2.6495   19 C    0 0 0
  22 C    1     2.1666     4.0942    8 H    0 0 0
  22 C    1     2.4177     4.5688   20 C    0 0 0
  22 C    1     2.4250     4.5826   24 C    0 0 0

  23 C    1     1.0915     2.0626   10 H    0 0 0
  23 C    1     1.3914     2.6294   20 C    0 0 0
  23 C    1     1.4025     2.6504   24 C    0 0 0
  23 C    1     2.1680     4.0969    7 H    0 0-1
  23 C    1     2.4182     4.5697   21 C    0 0 0
  23 C    1     2.4246     4.5818   19 C    0 0 0

  24 C    1     1.4025     2.6504   23 C    0 0 0
  24 C    1     1.4026     2.6505   21 C    0 0 0
  24 C    1     1.5513     2.9316    4 B    0 0 0
  24 C    1     2.1490     4.0610   10 H    0 0 0
  24 C    1     2.1493     4.0616    8 H    0 0 0
  24 C    1     2.4250     4.5825   20 C    0 0 0

  25 C    1     1.4020     2.6494   26 C    0 0 0
  25 C    1     1.4021     2.6495   28 C    0 0 0
  25 C    1     1.5503     2.9297    1 B    0 0 1
  25 C    1     2.1469     4.0571   11 H    1 1-1
  25 C    1     2.1475     4.0581   13 H    0 1-1
  25 C    1     2.4246     4.5818   27 C    0 0 0

  26 C    1     1.0913     2.0623   11 H    1 1-1
  26 C    1     1.3914     2.6293   29 C    0 0 0
  26 C    1     1.4020     2.6494   25 C    0 0 0
  26 C    1     2.1666     4.0942   14 H    0 0 0
  26 C    1     2.4175     4.5684   28 C    0 0 0
  26 C    1     2.4251     4.5828   30 C    0 0 0

  27 C    1     1.0914     2.0625   12 H    0 0 0
  27 C    1     1.3915     2.6295   28 C    0 0 0
  27 C    1     1.4026     2.6505   30 C    0 0 0
  27 C    1     2.1679     4.0967   13 H    0 1-1
  27 C    1     2.4179     4.5691   29 C    0 0 0
  27 C    1     2.4246     4.5818   25 C    0 0 0

  28 C    1     1.0914     2.0624   13 H    0 1-1
  28 C    1     1.3915     2.6295   27 C    0 0 0
  28 C    1     1.4021     2.6495   25 C    0 0 0
  28 C    1     2.1664     4.0939   12 H    0 0 0
  28 C    1     2.4175     4.5684   26 C    0 0 0
  28 C    1     2.4253     4.5832   30 C    0 0 0

  29 C    1     1.0914     2.0625   14 H    0 0 0
  29 C    1     1.3914     2.6293   26 C    0 0 0
  29 C    1     1.4025     2.6504   30 C    0 0 0
  29 C    1     2.1680     4.0968   11 H    1 1-1
  29 C    1     2.4179     4.5691   27 C    0 0 0
  29 C    1     2.4247     4.5819   25 C    0 0 0

  30 C    1     1.4025     2.6504   29 C    0 0 0
  30 C    1     1.4026     2.6505   27 C    0 0 0
  30 C    1     1.5516     2.9322    6 B    0 0 0
  30 C    1     2.1491     4.0612   14 H    0 0 0
  30 C    1     2.1493     4.0617   12 H    0 0 0
  30 C    1     2.4251     4.5828   26 C    0 0 0

  31 C    1     1.4021     2.6496   32 C    0 0 0
  31 C    1     1.4021     2.6497   34 C    0 0 0
  31 C    1     1.5502     2.9294    3 B    1 1-2
  31 C    1     2.1475     4.0582   15 H    1 1-1
  31 C    1     2.1479     4.0589   17 H    0 0-1
  31 C    1     2.4244     4.5814   33 C    0 0 0

  32 C    1     1.0914     2.0624   15 H    1 1-1
  32 C    1     1.3914     2.6293   35 C    0 0 0
  32 C    1     1.4021     2.6496   31 C    0 0 0
  32 C    1     2.1668     4.0947   18 H    0 0 0
  32 C    1     2.4179     4.5692   34 C    0 0 0
  32 C    1     2.4251     4.5827   36 C    0 0 0

  33 C    1     1.0913     2.0623   16 H    0 0 0
  33 C    1     1.3914     2.6294   34 C    0 0 0
  33 C    1     1.4025     2.6504   36 C    0 0 0
  33 C    1     2.1679     4.0968   17 H    0 0-1
  33 C    1     2.4178     4.5690   35 C    0 0 0
  33 C    1     2.4244     4.5814   31 C    0 0 0

  34 C    1     1.0915     2.0626   17 H    0 0-1
  34 C    1     1.3914     2.6294   33 C    0 0 0
  34 C    1     1.4021     2.6497   31 C    0 0 0
  34 C    1     2.1667     4.0945   16 H    0 0 0
  34 C    1     2.4179     4.5692   32 C    0 0 0
  34 C    1     2.4253     4.5832   36 C    0 0 0

  35 C    1     1.0914     2.0624   18 H    0 0 0
  35 C    1     1.3914     2.6293   32 C    0 0 0
  35 C    1     1.4025     2.6503   36 C    0 0 0
  35 C    1     2.1678     4.0966   15 H    1 1-1
  35 C    1     2.4178     4.5690   33 C    0 0 0
  35 C    1     2.4245     4.5817   31 C    0 0 0

  36 C    1     1.4025     2.6503   35 C    0 0 0
  36 C    1     1.4025     2.6504   33 C    0 0 0
  36 C    1     1.5516     2.9322    5 B    0 0 0
  36 C    1     2.1486     4.0602   18 H    0 0 0
  36 C    1     2.1487     4.0605   16 H    0 0 0
  36 C    1     2.4251     4.5827   32 C    0 0 0

  37 O    2     1.3791     2.6061    3 B    0 0 0    1 B   -1-2 3
  37 O    1     2.3880     4.5126   38 O   -1-2 3
  37 O    1     2.3882     4.5130   39 O    0 0 0
  37 O    1     2.5383     4.7966   31 C   -1-1 2
  37 O    1     2.5384     4.7968   25 C   -1-2 2
  37 O    1     2.5675     4.8519   13 H   -1-1 1

  38 O    1     1.3793     2.6065    1 B    0 0 0
  38 O    1     1.3793     2.6065    2 B    0 0 0
  38 O    1     2.3880     4.5126   37 O    1 2-3
  38 O    1     2.3882     4.5131   39 O    1 2-3
  38 O    1     2.5391     4.7981   19 C    1 1-1
  38 O    1     2.5395     4.7990   25 C    0 0-1

  39 O    1     1.3793     2.6064    3 B    0 0 0
  39 O    1     1.3793     2.6065    2 B   -1-2 3
  39 O    1     2.3882     4.5130   37 O    0 0 0
  39 O    1     2.3882     4.5131   38 O   -1-2 3
  39 O    1     2.5390     4.7980   19 C    0-1 2
  39 O    1     2.5391     4.7982   31 C   -1-1 2

  40 O    1     1.3795     2.6068    6 B    0 0 0
  40 O    1     1.3795     2.6068    4 B    0 0 0
  40 O    1     2.3880     4.5126   42 O    0 0 0
  40 O    1     2.3884     4.5134   41 O    0 0 0
  40 O    1     2.5400     4.7998   24 C    0 0 0
  40 O    1     2.5403     4.8005   30 C    0 0 0

  41 O    1     1.3795     2.6069    5 B    0 0 0
  41 O    1     1.3795     2.6070    4 B    0 0 0
  41 O    1     2.3881     4.5128   42 O    0 0 0
  41 O    1     2.3884     4.5134   40 O    0 0 0
  41 O    1     2.5404     4.8006   24 C    0 0 0
  41 O    1     2.5405     4.8008   36 C    0 0 0

  42 O    1     1.3796     2.6071    6 B    0 0 0
  42 O    1     1.3797     2.6072    5 B    0 0 0
  42 O    1     2.3880     4.5126   40 O    0 0 0
  42 O    1     2.3881     4.5128   41 O    0 0 0
  42 O    1     2.5409     4.8016   36 C    0 0 0
  42 O    1     2.5410     4.8019   30 C    0 0 0


 SYMMETRY ALLOWED INTERNAL DEGREE(S) OF FREEDOM: 123
 TTTTTTTTTTTTTTTTTTTTTTTTTTTTTT SYMM        TELAPSE        0.42 TCPU        0.42
 TTTTTTTTTTTTTTTTTTTTTTTTTTTTTT INT_SCREEN  TELAPSE        0.46 TCPU        0.45

 DFT PARAMETERS

     ATOM       ELECTRONS   NET CHARGE   R(ANGSTROM)
   1   5  B       5.0000      0.0000     0.89000000
   7   1  H       1.0000      0.0000     1.11000000
  19   6  C       6.0000      0.0000     0.77000000
  37   8  O       8.0000      0.0000     0.74000000

 SIZE OF GRID=    1308985
 TTTTTTTTTTTTTTTTTTTTTTTTTTTTTT MAKE_GRID2  TELAPSE        8.74 TCPU        8.73
 BECKE WEIGHT FUNCTION
 RADSAFE =     2.00
 TOLERANCES - DENSITY:10**- 6; POTENTIAL:10**- 9; GRID WGT:10**-14

 RADIAL INTEGRATION  - INTERVALS (POINTS,UPPER LIMIT):            1( 75,  4.0*R)

 ANGULAR INTEGRATION - INTERVALS (ACCURACY LEVEL [N. POINTS] UPPER LIMIT):
  1(  4[  86]   0.2)  2(  8[ 194]   0.5)  3( 12[ 350]   0.9)  4( 16[ 974]   3.5)
  5( 12[ 350]9999.0)
 TTTTTTTTTTTTTTTTTTTTTTTTTTTTTT INT_CALC    TELAPSE        8.81 TCPU        8.80
 EEEEEEEEEE INT_CALC TERMINATION  DATE 19 02 2026 TIME 18:54:47.4

 *******************************************************************************
 cof-1_z37_L087_incl                                                             
 CRYSTAL - SCF - TYPE OF CALCULATION :  RESTRICTED CLOSED SHELL
 *******************************************************************************

 CAPPA:IS1  2;IS2  2;IS3  8; K PTS MONK NET  20; SYMMOPS:K SPACE   2;G SPACE   1

 TTTTTTTTTTTTTTTTTTTTTTTTTTTTTT SDIK        TELAPSE        9.58 TCPU       16.12

 AAAAAAAAAAAAAAAAAAAAAAAAAAAAAAAAAAAAAAAAAAAAAAAAAAAAAAAAAAAAAAAAAAAAAAAAAAAAAAA
         ATOMIC WAVEFUNCTION(S)


 NUCLEAR CHARGE  5.0  SYMMETRY SPECIES            S    P
 N. ELECTRONS    5.0  NUMBER OF PRIMITIVE GTOS    8    4
                      NUMBER OF CONTRACTED GTOS   4    2
                      NUMBER OF CLOSED SHELLS     2    0
                      OPEN SHELL OCCUPATION       0    1

  ZNUC  SCFIT    TOTAL HF ENERGY   KINETIC ENERGY   VIRIAL THEOREM ACCURACY
   5.0    11    -2.451164084E+01  2.462155050E+01 -1.995536038E+00  1.5E-06

 NUCLEAR CHARGE  1.0  SYMMETRY SPECIES            S
 N. ELECTRONS    1.0  NUMBER OF PRIMITIVE GTOS    4
                      NUMBER OF CONTRACTED GTOS   2
                      NUMBER OF CLOSED SHELLS     0
                      OPEN SHELL OCCUPATION       1

  ZNUC  SCFIT    TOTAL HF ENERGY   KINETIC ENERGY   VIRIAL THEOREM ACCURACY
   1.0     1    -4.977266687E-01  5.190767460E-01 -1.958869132E+00  0.0E+00

 NUCLEAR CHARGE  6.0  SYMMETRY SPECIES            S    P
 N. ELECTRONS    6.0  NUMBER OF PRIMITIVE GTOS    8    4
                      NUMBER OF CONTRACTED GTOS   4    2
                      NUMBER OF CLOSED SHELLS     2    0
                      OPEN SHELL OCCUPATION       0    2

  ZNUC  SCFIT    TOTAL HF ENERGY   KINETIC ENERGY   VIRIAL THEOREM ACCURACY
   6.0     9    -3.766704647E+01  3.775180683E+01 -1.997754800E+00  1.1E-06

 NUCLEAR CHARGE  8.0  SYMMETRY SPECIES            S    P
 N. ELECTRONS    8.0  NUMBER OF PRIMITIVE GTOS    8    4
                      NUMBER OF CONTRACTED GTOS   4    2
                      NUMBER OF CLOSED SHELLS     2    0
                      OPEN SHELL OCCUPATION       0    4

  ZNUC  SCFIT    TOTAL HF ENERGY   KINETIC ENERGY   VIRIAL THEOREM ACCURACY
   8.0    12    -7.477373220E+01  7.477365593E+01 -2.000001020E+00  3.8E-06

 AAAAAAAAAAAAAAAAAAAAAAAAAAAAAAAAAAAAAAAAAAAAAAAAAAAAAAAAAAAAAAAAAAAAAAAAAAAAAAA

 CHARGE NORMALIZATION FACTOR   1.00000000
 TOTAL ATOMIC CHARGES:
   5.0000000   5.0000000   5.0000000   5.0000000   5.0000000   5.0000000
   1.0000000   1.0000000   1.0000000   1.0000000   1.0000000   1.0000000
   1.0000000   1.0000000   1.0000000   1.0000000   1.0000000   1.0000000
   6.0000000   6.0000000   6.0000000   6.0000000   6.0000000   6.0000000
   6.0000000   6.0000000   6.0000000   6.0000000   6.0000000   6.0000000
   6.0000000   6.0000000   6.0000000   6.0000000   6.0000000   6.0000000
   8.0000000   8.0000000   8.0000000   8.0000000   8.0000000   8.0000000
 TTTTTTTTTTTTTTTTTTTTTTTTTTTTTT MOQGAD      TELAPSE        9.67 TCPU       17.59
 TTTTTTTTTTTTTTTTTTTTTTTTTTTTTT SHELLXN     TELAPSE       16.25 TCPU      219.43
 TTTTTTTTTTTTTTTTTTTTTTTTTTTTTT MONMO3      TELAPSE       16.39 TCPU      223.76
 NUMERICALLY INTEGRATED DENSITY    197.9999030648
 TTTTTTTTTTTTTTTTTTTTTTTTTTTTTT NUMDFT      TELAPSE       17.02 TCPU      243.84
 CYC   0 ETOT(AU) -1.295958740692E+03 DETOT -1.30E+03 tst  0.00E+00 PX  1.00E+00
 TTTTTTTTTTTTTTTTTTTTTTTTTTTTTT DIIS        TELAPSE       17.06 TCPU      245.05
 TTTTTTTTTTTTTTTTTTTTTTTTTTTTTT FDIK        TELAPSE       17.55 TCPU      260.92
 INSULATING STATE
 TOP OF VALENCE BANDS -    BAND     99; K    1; EIG -3.1034641E-01 AU
 BOTTOM OF VIRTUAL BANDS - BAND    100; K    1; EIG -1.5692853E-01 AU
 DIRECT ENERGY BAND GAP:   4.1747 eV
 TTTTTTTTTTTTTTTTTTTTTTTTTTTTTT PDIG        TELAPSE       17.89 TCPU      266.99
 CHARGE NORMALIZATION FACTOR   1.00000000
 TOTAL ATOMIC CHARGES:
   4.1565133   4.1562284   4.1566970   4.1561327   4.1557458   4.1557465
   0.7854857   0.7856077   0.7854291   0.7855808   0.7854747   0.7856177
   0.7854687   0.7855823   0.7854320   0.7856506   0.7854356   0.7856009
   6.0443986   6.2661634   6.2661065   6.2660898   6.2660879   6.0439394
   6.0444816   6.2661789   6.2662439   6.2660795   6.2662291   6.0431546
   6.0448851   6.2658130   6.2664755   6.2657546   6.2663967   6.0435171
   8.6960959   8.6963312   8.6962151   8.6965704   8.6965089   8.6968536
 TTTTTTTTTTTTTTTTTTTTTTTTTTTTTT MOQGAD      TELAPSE       17.93 TCPU      267.04
 TTTTTTTTTTTTTTTTTTTTTTTTTTTTTT SHELLXN     TELAPSE       24.51 TCPU      476.54
 TTTTTTTTTTTTTTTTTTTTTTTTTTTTTT MONMO3      TELAPSE       24.64 TCPU      480.86
 NUMERICALLY INTEGRATED DENSITY    197.9999456327
 TTTTTTTTTTTTTTTTTTTTTTTTTTTTTT NUMDFT      TELAPSE       25.28 TCPU      501.17
 CYC   1 ETOT(AU) -1.288816989626E+03 DETOT  7.14E+00 tst  0.00E+00 PX  1.00E+00
 TTTTTTTTTTTTTTTTTTTTTTTTTTTTTT DIIS        TELAPSE       25.33 TCPU      502.71
 DIIS TEST: 0.11139E+01 AT SCF   CYCLE   1 - MIX   30 %
 TTTTTTTTTTTTTTTTTTTTTTTTTTTTTT FDIK        TELAPSE       25.83 TCPU      518.86
 INSULATING STATE
 TOP OF VALENCE BANDS -    BAND     99; K    1; EIG -2.2203605E-01 AU
 BOTTOM OF VIRTUAL BANDS - BAND    100; K   17; EIG -8.1531725E-02 AU
 INDIRECT ENERGY BAND GAP:   3.8233 eV
 BOTTOM OF VIRTUAL BANDS - BAND    100; K    1; EIG -8.1332384E-02 AU
 TTTTTTTTTTTTTTTTTTTTTTTTTTTTTT PDIG        TELAPSE       26.17 TCPU      524.92
 CHARGE NORMALIZATION FACTOR   1.00000000
 TOTAL ATOMIC CHARGES:
   4.7075091   4.7066541   4.7073711   4.7074441   4.7065922   4.7074760
   0.9056226   0.9057313   0.9058486   0.9054368   0.9053793   0.9058045
   0.9053566   0.9056829   0.9057475   0.9055188   0.9056737   0.9057572
   5.8748838   6.1334427   6.1334983   6.1331617   6.1336476   5.8782047
   5.8754036   6.1325682   6.1338567   6.1330081   6.1338522   5.8784078
   5.8752701   6.1334018   6.1334469   6.1336299   6.1330427   5.8780393
   8.3377559   8.3383616   8.3383833   8.3378949   8.3375597   8.3386719
 TTTTTTTTTTTTTTTTTTTTTTTTTTTTTT MOQGAD      TELAPSE       26.21 TCPU      524.97
 TTTTTTTTTTTTTTTTTTTTTTTTTTTTTT SHELLXN     TELAPSE       32.79 TCPU      734.49
 TTTTTTTTTTTTTTTTTTTTTTTTTTTTTT MONMO3      TELAPSE       32.92 TCPU      738.82
 NUMERICALLY INTEGRATED DENSITY    197.9999290185
 TTTTTTTTTTTTTTTTTTTTTTTTTTTTTT NUMDFT      TELAPSE       33.56 TCPU      759.15
 CYC   2 ETOT(AU) -1.289010883458E+03 DETOT -1.94E-01 tst  3.63E-03 PX  1.58E-01
 TTTTTTTTTTTTTTTTTTTTTTTTTTTTTT DIIS        TELAPSE       33.61 TCPU      760.75
 DIIS TEST: 0.46280E+00 AT SCF   CYCLE   2 - DIIS ACTIVE - HISTORY:     2 CYCLES
 TTTTTTTTTTTTTTTTTTTTTTTTTTTTTT FDIK        TELAPSE       34.11 TCPU      776.72
 INSULATING STATE
 TOP OF VALENCE BANDS -    BAND     99; K    1; EIG -2.3523630E-01 AU
 BOTTOM OF VIRTUAL BANDS - BAND    100; K    1; EIG -7.5677153E-02 AU
 DIRECT ENERGY BAND GAP:   4.3418 eV
 TTTTTTTTTTTTTTTTTTTTTTTTTTTTTT PDIG        TELAPSE       34.45 TCPU      782.79
 CHARGE NORMALIZATION FACTOR   1.00000000
 TOTAL ATOMIC CHARGES:
   4.4977452   4.4969432   4.4975936   4.4975751   4.4968231   4.4973972
   0.8848026   0.8850191   0.8849205   0.8848081   0.8845638   0.8851579
   0.8845920   0.8850050   0.8848704   0.8848252   0.8848874   0.8849557
   5.8905785   6.1642824   6.1634309   6.1637853   6.1637279   5.8904702
   5.8911399   6.1640220   6.1635977   6.1639531   6.1637378   5.8896316
   5.8906532   6.1637125   6.1639766   6.1639648   6.1635365   5.8905364
   8.5144692   8.5149434   8.5147222   8.5146917   8.5147913   8.5151598
 TTTTTTTTTTTTTTTTTTTTTTTTTTTTTT MOQGAD      TELAPSE       34.49 TCPU      782.83
 TTTTTTTTTTTTTTTTTTTTTTTTTTTTTT SHELLXN     TELAPSE       41.07 TCPU      992.46
 TTTTTTTTTTTTTTTTTTTTTTTTTTTTTT MONMO3      TELAPSE       41.20 TCPU      996.79
 NUMERICALLY INTEGRATED DENSITY    197.9999324271
 TTTTTTTTTTTTTTTTTTTTTTTTTTTTTT NUMDFT      TELAPSE       41.84 TCPU     1017.14
 CYC   3 ETOT(AU) -1.289106020819E+03 DETOT -9.51E-02 tst  6.77E-04 PX  6.21E-02
 TTTTTTTTTTTTTTTTTTTTTTTTTTTTTT DIIS        TELAPSE       41.90 TCPU     1019.02
 DIIS TEST: 0.13256E-01 AT SCF   CYCLE   3 - DIIS ACTIVE - HISTORY:     3 CYCLES
 TTTTTTTTTTTTTTTTTTTTTTTTTTTTTT FDIK        TELAPSE       42.40 TCPU     1035.12
 INSULATING STATE
 TOP OF VALENCE BANDS -    BAND     99; K    1; EIG -2.4412233E-01 AU
 BOTTOM OF VIRTUAL BANDS - BAND    100; K    1; EIG -8.4078146E-02 AU
 DIRECT ENERGY BAND GAP:   4.3550 eV
 TTTTTTTTTTTTTTTTTTTTTTTTTTTTTT PDIG        TELAPSE       42.74 TCPU     1041.19
 CHARGE NORMALIZATION FACTOR   1.00000000
 TOTAL ATOMIC CHARGES:
   4.5034633   4.5026151   4.5033105   4.5031431   4.5022454   4.5029759
   0.8684295   0.8684940   0.8685040   0.8683004   0.8682528   0.8685565
   0.8682403   0.8684390   0.8684337   0.8683729   0.8684577   0.8684898
   5.9431213   6.1666327   6.1669050   6.1666430   6.1668563   5.9453612
   5.9432923   6.1660477   6.1672148   6.1662917   6.1671873   5.9453072
   5.9436822   6.1667145   6.1668272   6.1666649   6.1667019   5.9450023
   8.4821369   8.4826318   8.4826173   8.4824073   8.4819943   8.4830351
 TTTTTTTTTTTTTTTTTTTTTTTTTTTTTT MOQGAD      TELAPSE       42.78 TCPU     1041.23
 TTTTTTTTTTTTTTTTTTTTTTTTTTTTTT SHELLXN     TELAPSE       49.36 TCPU     1250.76
 TTTTTTTTTTTTTTTTTTTTTTTTTTTTTT MONMO3      TELAPSE       49.49 TCPU     1255.09
 NUMERICALLY INTEGRATED DENSITY    197.9999329867
 TTTTTTTTTTTTTTTTTTTTTTTTTTTTTT NUMDFT      TELAPSE       50.13 TCPU     1275.42
 CYC   4 ETOT(AU) -1.289108800433E+03 DETOT -2.78E-03 tst  2.86E-05 PX  1.25E-02
 TTTTTTTTTTTTTTTTTTTTTTTTTTTTTT DIIS        TELAPSE       50.19 TCPU     1277.41
 DIIS TEST: 0.37737E-02 AT SCF   CYCLE   4 - DIIS ACTIVE - HISTORY:     4 CYCLES
 TTTTTTTTTTTTTTTTTTTTTTTTTTTTTT FDIK        TELAPSE       50.69 TCPU     1293.42
 INSULATING STATE
 TOP OF VALENCE BANDS -    BAND     99; K    1; EIG -2.4263632E-01 AU
 BOTTOM OF VIRTUAL BANDS - BAND    100; K    1; EIG -8.3904413E-02 AU
 DIRECT ENERGY BAND GAP:   4.3193 eV
 TTTTTTTTTTTTTTTTTTTTTTTTTTTTTT PDIG        TELAPSE       51.03 TCPU     1299.49
 CHARGE NORMALIZATION FACTOR   1.00000000
 TOTAL ATOMIC CHARGES:
   4.5062983   4.5054468   4.5061247   4.5061172   4.5052873   4.5059935
   0.8709372   0.8711500   0.8710800   0.8709121   0.8707177   0.8712576
   0.8707293   0.8711135   0.8710258   0.8709481   0.8710053   0.8711103
   5.9229762   6.1687548   6.1680579   6.1683250   6.1683802   5.9236248
   5.9235764   6.1683422   6.1682819   6.1683727   6.1684187   5.9229856
   5.9231180   6.1682840   6.1685351   6.1685233   6.1680819   5.9236651
   8.4917394   8.4922601   8.4920666   8.4919346   8.4919354   8.4925056
 TTTTTTTTTTTTTTTTTTTTTTTTTTTTTT MOQGAD      TELAPSE       51.07 TCPU     1299.53
 TTTTTTTTTTTTTTTTTTTTTTTTTTTTTT SHELLXN     TELAPSE       57.65 TCPU     1509.02
 TTTTTTTTTTTTTTTTTTTTTTTTTTTTTT MONMO3      TELAPSE       57.78 TCPU     1513.36
 NUMERICALLY INTEGRATED DENSITY    197.9999330305
 TTTTTTTTTTTTTTTTTTTTTTTTTTTTTT NUMDFT      TELAPSE       58.42 TCPU     1533.72
 CYC   5 ETOT(AU) -1.289109668900E+03 DETOT -8.68E-04 tst  5.91E-06 PX  6.55E-03
 TTTTTTTTTTTTTTTTTTTTTTTTTTTTTT DIIS        TELAPSE       58.49 TCPU     1535.95
 DIIS TEST: 0.72388E-04 AT SCF   CYCLE   5 - DIIS ACTIVE - HISTORY:     5 CYCLES
 TTTTTTTTTTTTTTTTTTTTTTTTTTTTTT FDIK        TELAPSE       58.99 TCPU     1552.03
 INSULATING STATE
 TOP OF VALENCE BANDS -    BAND     99; K    1; EIG -2.4253198E-01 AU
 BOTTOM OF VIRTUAL BANDS - BAND    100; K    1; EIG -8.3356311E-02 AU
 DIRECT ENERGY BAND GAP:   4.3314 eV
 TTTTTTTTTTTTTTTTTTTTTTTTTTTTTT PDIG        TELAPSE       59.33 TCPU     1558.11
 CHARGE NORMALIZATION FACTOR   1.00000000
 TOTAL ATOMIC CHARGES:
   4.5058705   4.5050166   4.5057023   4.5055768   4.5047346   4.5053977
   0.8719073   0.8719837   0.8719928   0.8717991   0.8717070   0.8720821
   0.8716954   0.8719608   0.8719176   0.8718568   0.8719449   0.8719752
   5.9229779   6.1677852   6.1678889   6.1677170   6.1678322   5.9246269
   5.9231165   6.1672670   6.1681778   6.1674638   6.1681531   5.9244678
   5.9234741   6.1677804   6.1678688   6.1677613   6.1677175   5.9243065
   8.4910828   8.4915362   8.4915386   8.4913738   8.4910488   8.4919162
 TTTTTTTTTTTTTTTTTTTTTTTTTTTTTT MOQGAD      TELAPSE       59.37 TCPU     1558.15
 TTTTTTTTTTTTTTTTTTTTTTTTTTTTTT SHELLXN     TELAPSE       65.96 TCPU     1767.94
 TTTTTTTTTTTTTTTTTTTTTTTTTTTTTT MONMO3      TELAPSE       66.09 TCPU     1772.27
 NUMERICALLY INTEGRATED DENSITY    197.9999329617
 TTTTTTTTTTTTTTTTTTTTTTTTTTTTTT NUMDFT      TELAPSE       66.73 TCPU     1792.71
 CYC   6 ETOT(AU) -1.289109690218E+03 DETOT -2.13E-05 tst  2.24E-07 PX  7.37E-04
 TTTTTTTTTTTTTTTTTTTTTTTTTTTTTT DIIS        TELAPSE       66.80 TCPU     1794.98
 DIIS TEST: 0.45289E-05 AT SCF   CYCLE   6 - DIIS ACTIVE - HISTORY:     6 CYCLES
 TTTTTTTTTTTTTTTTTTTTTTTTTTTTTT FDIK        TELAPSE       67.31 TCPU     1811.04
 INSULATING STATE
 TOP OF VALENCE BANDS -    BAND     99; K    1; EIG -2.4249134E-01 AU
 BOTTOM OF VIRTUAL BANDS - BAND    100; K    1; EIG -8.3442028E-02 AU
 DIRECT ENERGY BAND GAP:   4.3280 eV
 TTTTTTTTTTTTTTTTTTTTTTTTTTTTTT PDIG        TELAPSE       67.64 TCPU     1817.11
 CHARGE NORMALIZATION FACTOR   1.00000000
 TOTAL ATOMIC CHARGES:
   4.5060299   4.5051749   4.5058546   4.5058428   4.5050090   4.5057052
   0.8718191   0.8720274   0.8719624   0.8717857   0.8715950   0.8721415
   0.8716093   0.8719939   0.8719096   0.8718201   0.8718914   0.8719835
   5.9236137   6.1679385   6.1672290   6.1674788   6.1675934   5.9243372
   5.9242719   6.1675444   6.1674298   6.1675598   6.1675842   5.9236501
   5.9237264   6.1674269   6.1677536   6.1676891   6.1672761   5.9244071
   8.4912232   8.4917632   8.4915327   8.4914004   8.4914170   8.4919979
 TTTTTTTTTTTTTTTTTTTTTTTTTTTTTT MOQGAD      TELAPSE       67.69 TCPU     1817.15
 TTTTTTTTTTTTTTTTTTTTTTTTTTTTTT SHELLXN     TELAPSE       74.26 TCPU     2026.74
 TTTTTTTTTTTTTTTTTTTTTTTTTTTTTT MONMO3      TELAPSE       74.40 TCPU     2031.08
 NUMERICALLY INTEGRATED DENSITY    197.9999329600
 TTTTTTTTTTTTTTTTTTTTTTTTTTTTTT NUMDFT      TELAPSE       75.04 TCPU     2051.43
 CYC   7 ETOT(AU) -1.289109690218E+03 DETOT  7.98E-11 tst  2.46E-08 PX  2.56E-04
 TTTTTTTTTTTTTTTTTTTTTTTTTTTTTT DIIS        TELAPSE       75.12 TCPU     2054.04
 DIIS TEST: 0.93674E-06 AT SCF   CYCLE   7 - DIIS ACTIVE - HISTORY:     7 CYCLES
 TTTTTTTTTTTTTTTTTTTTTTTTTTTTTT FDIK        TELAPSE       75.62 TCPU     2070.12
 INSULATING STATE
 TOP OF VALENCE BANDS -    BAND     99; K    1; EIG -2.4251016E-01 AU
 BOTTOM OF VIRTUAL BANDS - BAND    100; K    1; EIG -8.3439934E-02 AU
 DIRECT ENERGY BAND GAP:   4.3285 eV
 TTTTTTTTTTTTTTTTTTTTTTTTTTTTTT PDIG        TELAPSE       75.96 TCPU     2076.19
 CHARGE NORMALIZATION FACTOR   1.00000000
 TOTAL ATOMIC CHARGES:
   4.5060784   4.5052252   4.5059065   4.5058324   4.5049943   4.5056796
   0.8718225   0.8719571   0.8719303   0.8717511   0.8716140   0.8720586
   0.8716121   0.8719275   0.8718638   0.8717999   0.8718729   0.8719356
   5.9232251   6.1678193   6.1675791   6.1676089   6.1676765   5.9244255
   5.9235477   6.1673430   6.1678450   6.1674736   6.1678858   5.9240754
   5.9235787   6.1676296   6.1677608   6.1677123   6.1674855   5.9242525
   8.4912007   8.4916798   8.4916074   8.4914556   8.4912646   8.4920061
 TTTTTTTTTTTTTTTTTTTTTTTTTTTTTT MOQGAD      TELAPSE       76.00 TCPU     2076.24
 TTTTTTTTTTTTTTTTTTTTTTTTTTTTTT SHELLXN     TELAPSE       82.59 TCPU     2286.03
 +++ ENERGIES IN A.U. +++
 ::: EXT EL-POLE                                  -1.4106768464207E+03
 ::: EXT EL-SPHEROPOLE                             1.5462913589294E+01
 ::: BIELET ZONE E-E                               2.0596276915381E+03
 ::: TOTAL E-E                                     6.6441375870679E+02
 ::: TOTAL E-N + N-E                              -3.1563326172952E+03
 ::: TOTAL N-N                                     5.6581954902785E+01
 ::: KINETIC ENERGY                                1.2799461147882E+03
 ::: PSEUDO TOTAL   ENERGY                        -1.1553907888974E+03
 ::: VIRIAL COEFFICIENT                            1.0511450081926E+00
 TTTTTTTTTTTTTTTTTTTTTTTTTTTTTT MONMO3      TELAPSE       82.73 TCPU     2290.36
 NUMERICALLY INTEGRATED DENSITY    197.9999329587
 EXCHANGE ENERGY: -0.126027772953E+03  CORRELATION ENERGY: -0.769112868968E+01
 TTTTTTTTTTTTTTTTTTTTTTTTTTTTTT NUMDFT      TELAPSE       83.36 TCPU     2310.74
 CYC   8 ETOT(AU) -1.289109690540E+03 DETOT -3.22E-07 tst  8.60E-09 PX  2.56E-04

 == SCF ENDED - CONVERGENCE ON ENERGY      E(AU) -1.2891096905400E+03 CYCLES   8


 ENERGY EXPRESSION=HARTREE+FOCK EXCH*0.00000+(HSESOL     EXCH)*1.00000+PBESOL     CORR


 TOTAL ENERGY(DFT)(AU)(  8) -1.2891096905400E+03 DE-3.2E-07 tester 8.6E-09
 TTTTTTTTTTTTTTTTTTTTTTTTTTTTTT EDFT        TELAPSE       83.36 TCPU     2310.75
 
 INFORMATION **** DFTD3 ENERGY **** CALCULATE DFTD3 ENERGY

           DFT-D V3(BJ)
 DF                                         hsesol3c  
 parameters
 s6       :    1.0000
 s8       :    0.0000
 a1       :    0.5196
 a2       :    4.9385
 k1 k3    :   16.0000   -4.0000
 Cutoff   :   50.2022
 CN-Cutoff:   21.1671
 ABC-Cutoff:   21.1671
 
 Edisp /kcal,au:   -24.5794 -0.03916969

 E6    /kcal :   -25.9393
 E8    /kcal :     0.0000
 E6(ABC) "   :   1.359963
 
 INFORMATION **** DFTD3 ENERGY **** NORMAL TERMINATION OF DFTD3 MODULE

 GCP ENERGY CALCULATION
  level        hsesol3c            basis:hsesol3c
  Nbf            474
  Atoms           42

  Parameters: 
  sigma     1.0000
  eta       1.4281
  alpha     0.2936
  beta      1.9467

  dmp_scal      4.0000
  dmp_exp       6.0000
 cutoffs: 
   distance [bohr] 60.0
   noise    [a.u.] 2.2E-16
 SR-damping   T
 ** gCP correction **
  Egcp:        0.0830561682 / (a.u.) ||      52.1185 / (kcal/mol)
 INFORMATION **** GCP **** NORMAL TERMINATION OF GCP MODULE

 *******************************************************************************

 DFT-D3-GCP DISPERSION AND COUNTERPOISE CORRECTION

 D3 DISPERSION ENERGY (AU)      -3.9169694366589E-02
 GCP ENERGY (AU)                 8.3056168176485E-02
 TOTAL ENERGY + DISP + GCP (AU) -1.2890658040662E+03

 *******************************************************************************

 EIGENVECTORS IN FORTRAN UNIT  8
 TTTTTTTTTTTTTTTTTTTTTTTTTTTTTT END         TELAPSE       85.46 TCPU     2318.65
 EEEEEEEEEE TERMINATION  DATE 19 02 2026 TIME 18:56:04.1
