 Default number of threads is:           32

         
 *******************************************************************************
 *                                                                             *
 *                               CRYSTAL23                                     *
 *                      public : 1.0.1 - October 2022                          *
 *                       HTTP://WWW.CRYSTAL.UNITO.IT                           *
 *                                                                             *
 *                              MAIN AUTHORS                                   *
 *                                                                             *
 *  R. DOVESI(1,11), V.R. SAUNDERS(2), C. ROETTI(1,11), R. ORLANDO(1,11),      *
 *  C.M. ZICOVICH-WILSON(1,3), F. PASCALE(4), B. CIVALLERI(1,11),              *
 *  K. DOLL(5), N.M. HARRISON(6), I.J. BUSH(7), Ph. D'ARCO(8),                 *
 *  M. LLUNELL(9), M. CAUSA'(10), Y. NOEL(8), L. MASCHIO(1,11), A. ERBA(1,11)  *
 *  M. RE'RAT(14), S. CASASSA(1,11), B.G. SEARLE(2), J.K. DESMARAIS(1)         *
 *                                                                             *
 *        CONTRIBUTIONS TO THE CODE HAVE ALSO BEEN GIVEN BY                    *
 *                                                                             *
 *  M. FERRABONE(1,11), M. DE LA PIERRE(1,11), M. FERRERO(1,11),               *
 *  J. BAIMA(1,11), E. ALBANESE(1,11), M.F. PEINTINGER(12), R. BAST(13),       *
 *  B. KIRTMAN(15), V. LACIVITA(1,11), R. DEMICHELIS(1,16)                     *
 *  G. BRANDEBURG(17), S. SALUSTRO(1,11), G. SANSONE(1,11)                     *
 *  M.T. RUGGIERO(18), L.E. DAGA(1), L. DONA'(1), A. COSSARD(1)                *
 *                                                                             *
 * (1) THEORETICAL CHEMISTRY GROUP - UNIVERSITA' DI TORINO - TORINO (ITALY)    *
 * (2) SCIENTIFIC COMPUTING DEPARTMENT - STFC DARESBURY (UK)                   *
 * (3) UNIVERSIDAD AUTONOMA DEL ESTADO DE MORELOS - CUERNAVACA (MEXICO)        *
 * (4) UNIVERSITE' DE LORRAINE - NANCY (FRANCE)                                *
 * (5) UNIVERSITAET STUTTGART- STUTTGART (GERMANY)                             *
 * (6) IMPERIAL COLLEGE - LONDON (UK)                                          *
 * (7) SCIENTIFIC COMPUTING DEPARTMENT - STFC RAL (UK)                         *
 * (8) UPMC - SORBONNE UNIVERSITES - PARIS (FRANCE)                            *
 * (9) UNIVERSIDAD DE BARCELONA - BARCELONA (SPAIN)                            *
 *(10) UNIVERSITA' DI NAPOLI "FEDERICO II" - NAPOLI (ITALY)                    *
 *(11) NIS - NANOSTRUCTURED INTERFACES AND SURFACES - TORINO (ITALY)           *
 *(12) MPI FUER CHEMISCHE ENERGIEKONVERSION - MUELHEIM AN DER RUHR (GERMANY)   *
 *(13) UNIVERSITY OF TROMSO - TROMSO (NORWAY)                                  *
 *(14) UNIVERSITE' DE PAU ET DES PAYS DE L'ADOUR - PAU (FRANCE)                *
 *(15) UNIVERSITY OF CALIFORNIA SANTA BARBARA - SANTA BARBARA (USA)            *
 *(16) CURTIN UNIVERSITY - PERTH (AUSTRALIA)                                   *
 *(17) UNIVERSITY COLLEGE LONDON - LONDON (UK)                                 *
 *(18) UNIVERSITY OF VERMONT - BURLINGTON (USA)                                *
 *                                                                             *
 *******************************************************************************
 EEEEEEEEEE STARTING  DATE 19 02 2026 TIME 19:09:42.8
 cof-1_z41_L030_incl                                                             

 CRYSTAL CALCULATION
 (INPUT ACCORDING TO THE INTERNATIONAL TABLES FOR X-RAY CRYSTALLOGRAPHY)
 CRYSTAL FAMILY                       :  TRICLINIC   
 CRYSTAL CLASS  (GROTH - 1921)        :  TRICLINIC PEDIAL                     

 SPACE GROUP (NONCENTROSYMMETRIC)     :  P 1             

 LATTICE PARAMETERS  (ANGSTROMS AND DEGREES) - CONVENTIONAL CELL
        A           B           C        ALPHA        BETA       GAMMA
    15.02361    15.02392     5.08035    59.24201    89.99995   119.99596


 NUMBER OF IRREDUCIBLE ATOMS IN THE CONVENTIONAL CELL:   42

 INPUT COORDINATES

 ATOM AT. N.              COORDINATES
   1   5     5.559115800000E-01  1.117685500000E-01  5.011628800000E-01
   2   5     7.149672400000E-01  2.708282100000E-01  5.011628900000E-01
   3   5     5.561896700000E-01  2.713757700000E-01  4.987133500000E-01
   4   5     1.694862900000E-01  4.980835500000E-01  5.011628900000E-01
   5   5     3.285942600000E-01  4.980627800000E-01  5.011628800000E-01
   6   5     3.288569000000E-01  6.577667500000E-01  4.987133500000E-01
   7   1     8.458600400000E-01  1.945512700000E-01  4.960844900000E-01
   8   1     3.954047000000E-02  5.768537100000E-01  4.953079100000E-01
   9   1     8.458911400000E-01  4.799002600000E-01  4.951883900000E-01
  10   1     3.965246000000E-02  2.915059000000E-01  4.952182000000E-01
  11   1     6.329466400000E-01 -1.917921000000E-02  5.039112100000E-01
  12   1     2.507544400000E-01  7.870749200000E-01  5.046878400000E-01
  13   1     3.476809200000E-01 -1.933999000000E-02  5.048074300000E-01
  14   1     5.361266000000E-01  7.869642700000E-01  5.047774200000E-01
  15   1     6.338891600000E-01  4.796754200000E-01  4.960845300000E-01
  16   1     2.518677800000E-01  2.914096100000E-01  4.953078600000E-01
  17   1     3.487603000000E-01  1.946511000000E-01  4.951883000000E-01
  18   1     5.372071500000E-01  5.767788600000E-01  4.952183000000E-01
  19   6     8.344140400000E-01  3.309794600000E-01  4.986237200000E-01
  20   6     8.892917600000E-01  2.783793000000E-01  4.962040000000E-01
  21   6    -3.785140000000E-03  4.928271600000E-01  4.959949700000E-01
  22   6     8.892065400000E-01  4.391894200000E-01  4.966222800000E-01
  23   6    -3.633280000000E-03  3.321191400000E-01  4.950090900000E-01
  24   6     5.078688000000E-02  4.395259800000E-01  4.966521200000E-01
  25   6     4.962463500000E-01 -7.429430000000E-03  5.013720100000E-01
  26   6     5.491058700000E-01 -6.259983000000E-02  5.037916800000E-01
  27   6     3.347025800000E-01  8.304591700000E-01  5.040007900000E-01
  28   6     3.882638000000E-01 -6.245649000000E-02  5.033735000000E-01
  29   6     4.955071300000E-01  8.301922900000E-01  5.049865700000E-01
  30   6     3.879075800000E-01  7.759396000000E-01  5.033435900000E-01
  31   6     4.965686000000E-01  3.309103200000E-01  4.986237200000E-01
  32   6     5.500128600000E-01  4.392194400000E-01  4.962040500000E-01
  33   6     3.356501200000E-01  3.318139000000E-01  4.959949200000E-01
  34   6     3.890417000000E-01  2.781872300000E-01  4.966222100000E-01
  35   6     4.966833400000E-01  4.929671500000E-01  4.950091600000E-01
  36   6     3.887109700000E-01  4.394485800000E-01  4.966521200000E-01
  37   8     5.031743200000E-01  1.652342100000E-01  4.993705300000E-01
  38   8     6.615236300000E-01  1.640503700000E-01  5.045384800000E-01
  39   8     6.624200800000E-01  3.247931400000E-01  4.967417600000E-01
  40   8     2.227621500000E-01  6.045146900000E-01  4.993705500000E-01
  41   8     2.221859000000E-01  4.443676500000E-01  5.045384800000E-01
  42   8     3.820045000000E-01  6.051051000000E-01  4.967417400000E-01

 *******************************************************************************

 << INFORMATION >>: FROM NOW ON, ALL COORDINATES REFER TO THE PRIMITIVE CELL

 *******************************************************************************

 LATTICE PARAMETERS  (ANGSTROMS AND DEGREES) - PRIMITIVE CELL
       A          B          C        ALPHA      BETA     GAMMA        VOLUME
   15.02361   15.02392    5.08035    59.24201  89.99995 119.99596    801.477770

 COORDINATES OF THE EQUIVALENT ATOMS (FRACTIONAL UNITS)

 N. ATOM EQUIV AT. N.          X                  Y                  Z

   1   1   1    5 B    -4.44088420000E-01  1.11768550000E-01 -4.98837120000E-01

   2   2   1    5 B    -2.85032760000E-01  2.70828210000E-01 -4.98837110000E-01

   3   3   1    5 B    -4.43810330000E-01  2.71375770000E-01  4.98713350000E-01

   4   4   1    5 B     1.69486290000E-01  4.98083550000E-01 -4.98837110000E-01

   5   5   1    5 B     3.28594260000E-01  4.98062780000E-01 -4.98837120000E-01

   6   6   1    5 B     3.28856900000E-01 -3.42233250000E-01  4.98713350000E-01

   7   7   1    1 H    -1.54139960000E-01  1.94551270000E-01  4.96084490000E-01

   8   8   1    1 H     3.95404700000E-02 -4.23146290000E-01  4.95307910000E-01

   9   9   1    1 H    -1.54108860000E-01  4.79900260000E-01  4.95188390000E-01

  10  10   1    1 H     3.96524600000E-02  2.91505900000E-01  4.95218200000E-01

  11  11   1    1 H    -3.67053360000E-01 -1.91792100000E-02 -4.96088790000E-01

  12  12   1    1 H     2.50754440000E-01 -2.12925080000E-01 -4.95312160000E-01

  13  13   1    1 H     3.47680920000E-01 -1.93399900000E-02 -4.95192570000E-01

  14  14   1    1 H    -4.63873400000E-01 -2.13035730000E-01 -4.95222580000E-01

  15  15   1    1 H    -3.66110840000E-01  4.79675420000E-01  4.96084530000E-01

  16  16   1    1 H     2.51867780000E-01  2.91409610000E-01  4.95307860000E-01

  17  17   1    1 H     3.48760300000E-01  1.94651100000E-01  4.95188300000E-01

  18  18   1    1 H    -4.62792850000E-01 -4.23221140000E-01  4.95218300000E-01

  19  19   1    6 C    -1.65585960000E-01  3.30979460000E-01  4.98623720000E-01

  20  20   1    6 C    -1.10708240000E-01  2.78379300000E-01  4.96204000000E-01

  21  21   1    6 C    -3.78514000000E-03  4.92827160000E-01  4.95994970000E-01

  22  22   1    6 C    -1.10793460000E-01  4.39189420000E-01  4.96622280000E-01

  23  23   1    6 C    -3.63328000000E-03  3.32119140000E-01  4.95009090000E-01

  24  24   1    6 C     5.07868800000E-02  4.39525980000E-01  4.96652120000E-01

  25  25   1    6 C     4.96246350000E-01 -7.42943000000E-03 -4.98627990000E-01

  26  26   1    6 C    -4.50894130000E-01 -6.25998300000E-02 -4.96208320000E-01

  27  27   1    6 C     3.34702580000E-01 -1.69540830000E-01 -4.95999210000E-01

  28  28   1    6 C     3.88263800000E-01 -6.24564900000E-02 -4.96626500000E-01

  29  29   1    6 C     4.95507130000E-01 -1.69807710000E-01 -4.95013430000E-01

  30  30   1    6 C     3.87907580000E-01 -2.24060400000E-01 -4.96656410000E-01

  31  31   1    6 C     4.96568600000E-01  3.30910320000E-01  4.98623720000E-01

  32  32   1    6 C    -4.49987140000E-01  4.39219440000E-01  4.96204050000E-01

  33  33   1    6 C     3.35650120000E-01  3.31813900000E-01  4.95994920000E-01

  34  34   1    6 C     3.89041700000E-01  2.78187230000E-01  4.96622210000E-01

  35  35   1    6 C     4.96683340000E-01  4.92967150000E-01  4.95009160000E-01

  36  36   1    6 C     3.88710970000E-01  4.39448580000E-01  4.96652120000E-01

  37  37   1    8 O    -4.96825680000E-01  1.65234210000E-01  4.99370530000E-01

  38  38   1    8 O    -3.38476370000E-01  1.64050370000E-01 -4.95461520000E-01

  39  39   1    8 O    -3.37579920000E-01  3.24793140000E-01  4.96741760000E-01

  40  40   1    8 O     2.22762150000E-01 -3.95485310000E-01  4.99370550000E-01

  41  41   1    8 O     2.22185900000E-01  4.44367650000E-01 -4.95461520000E-01

  42  42   1    8 O     3.82004500000E-01 -3.94894900000E-01  4.96741740000E-01

 NUMBER OF SYMMETRY OPERATORS         :    1
 *******************************************************************************
 * GEOMETRY EDITING - INPUT COORDINATES ARE GIVEN IN ANGSTROM         
 *******************************************************************************

 GCALCO - MAX INDICES DIRECT LATTICE VECTOR     9    11    29
 NO.OF VECTORS CREATED 6999 STARS 3500 RMAX   208.56934 BOHR

 GEOMETRY FOR WAVE FUNCTION - DIMENSIONALITY OF THE SYSTEM    3
 (NON PERIODIC DIRECTION: LATTICE PARAMETER FORMALLY SET TO 500)
 *******************************************************************************
 LATTICE PARAMETERS (ANGSTROMS AND DEGREES) - BOHR = 0.5291772083 ANGSTROM
 PRIMITIVE CELL - CENTRING CODE 1/0 VOLUME=   801.477770 - DENSITY  0.808 g/cm^3
         A              B              C           ALPHA      BETA       GAMMA 
    15.02361100    15.02391600     5.08035400    59.242011  89.999954 119.995964
 *******************************************************************************
 ATOMS IN THE ASYMMETRIC UNIT   42 - ATOMS IN THE UNIT CELL:   42
     ATOM                 X/A                 Y/B                 Z/C    
 *******************************************************************************
      1 T   5 B    -4.440884200000E-01  1.117685500000E-01 -4.988371200000E-01
      2 T   5 B    -2.850327600000E-01  2.708282100000E-01 -4.988371100000E-01
      3 T   5 B    -4.438103300000E-01  2.713757700000E-01  4.987133500000E-01
      4 T   5 B     1.694862900000E-01  4.980835500000E-01 -4.988371100000E-01
      5 T   5 B     3.285942600000E-01  4.980627800000E-01 -4.988371200000E-01
      6 T   5 B     3.288569000000E-01 -3.422332500000E-01  4.987133500000E-01
      7 T   1 H    -1.541399600000E-01  1.945512700000E-01  4.960844900000E-01
      8 T   1 H     3.954047000000E-02 -4.231462900000E-01  4.953079100000E-01
      9 T   1 H    -1.541088600000E-01  4.799002600000E-01  4.951883900000E-01
     10 T   1 H     3.965246000000E-02  2.915059000000E-01  4.952182000000E-01
     11 T   1 H    -3.670533600000E-01 -1.917921000000E-02 -4.960887900000E-01
     12 T   1 H     2.507544400000E-01 -2.129250800000E-01 -4.953121600000E-01
     13 T   1 H     3.476809200000E-01 -1.933999000000E-02 -4.951925700000E-01
     14 T   1 H    -4.638734000000E-01 -2.130357300000E-01 -4.952225800000E-01
     15 T   1 H    -3.661108400000E-01  4.796754200000E-01  4.960845300000E-01
     16 T   1 H     2.518677800000E-01  2.914096100000E-01  4.953078600000E-01
     17 T   1 H     3.487603000000E-01  1.946511000000E-01  4.951883000000E-01
     18 T   1 H    -4.627928500000E-01 -4.232211400000E-01  4.952183000000E-01
     19 T   6 C    -1.655859600000E-01  3.309794600000E-01  4.986237200000E-01
     20 T   6 C    -1.107082400000E-01  2.783793000000E-01  4.962040000000E-01
     21 T   6 C    -3.785140000000E-03  4.928271600000E-01  4.959949700000E-01
     22 T   6 C    -1.107934600000E-01  4.391894200000E-01  4.966222800000E-01
     23 T   6 C    -3.633280000000E-03  3.321191400000E-01  4.950090900000E-01
     24 T   6 C     5.078688000000E-02  4.395259800000E-01  4.966521200000E-01
     25 T   6 C     4.962463500000E-01 -7.429430000000E-03 -4.986279900000E-01
     26 T   6 C    -4.508941300000E-01 -6.259983000000E-02 -4.962083200000E-01
     27 T   6 C     3.347025800000E-01 -1.695408300000E-01 -4.959992100000E-01
     28 T   6 C     3.882638000000E-01 -6.245649000000E-02 -4.966265000000E-01
     29 T   6 C     4.955071300000E-01 -1.698077100000E-01 -4.950134300000E-01
     30 T   6 C     3.879075800000E-01 -2.240604000000E-01 -4.966564100000E-01
     31 T   6 C     4.965686000000E-01  3.309103200000E-01  4.986237200000E-01
     32 T   6 C    -4.499871400000E-01  4.392194400000E-01  4.962040500000E-01
     33 T   6 C     3.356501200000E-01  3.318139000000E-01  4.959949200000E-01
     34 T   6 C     3.890417000000E-01  2.781872300000E-01  4.966222100000E-01
     35 T   6 C     4.966833400000E-01  4.929671500000E-01  4.950091600000E-01
     36 T   6 C     3.887109700000E-01  4.394485800000E-01  4.966521200000E-01
     37 T   8 O    -4.968256800000E-01  1.652342100000E-01  4.993705300000E-01
     38 T   8 O    -3.384763700000E-01  1.640503700000E-01 -4.954615200000E-01
     39 T   8 O    -3.375799200000E-01  3.247931400000E-01  4.967417600000E-01
     40 T   8 O     2.227621500000E-01 -3.954853100000E-01  4.993705500000E-01
     41 T   8 O     2.221859000000E-01  4.443676500000E-01 -4.954615200000E-01
     42 T   8 O     3.820045000000E-01 -3.948949000000E-01  4.967417400000E-01

 T = ATOM BELONGING TO THE ASYMMETRIC UNIT

 ****    1 SYMMOPS - TRANSLATORS IN FRACTIONAL UNITS
 **** MATRICES AND TRANSLATORS IN THE CRYSTALLOGRAPHIC REFERENCE FRAME
   V INV                    ROTATION MATRICES                   TRANSLATORS
   1   1  1.00 -0.00  0.00  0.00  1.00  0.00 -0.00 -0.00  1.00  0.00  0.00  0.00

 DIRECT LATTICE VECTORS CARTESIAN COMPONENTS (ANGSTROM)
          X                    Y                    Z
   0.130113578931E+02  -0.751088897922E+01   0.000000000000E+00
   0.000000000000E+00   0.150239160000E+02   0.000000000000E+00
   0.149980828117E+01   0.259815863254E+01   0.410001751279E+01


 CARTESIAN COORDINATES - PRIMITIVE CELL
 *******************************************************************************
 *      ATOM          X(ANGSTROM)         Y(ANGSTROM)         Z(ANGSTROM)
 *******************************************************************************
    1     5 B    -6.526353412313E+00  3.718642156657E+00 -2.045240928030E+00
    2     5 B    -4.456823280138E+00  4.913691749691E+00 -2.045240887030E+00
    3     5 B     6.484948983881E+00 -1.402774326917E+00 -2.055284043929E+00
    4     5 B     1.457086748624E+00  4.914114764914E+00 -2.045240887030E+00
    5     5 B     3.527297474933E+00  3.718760393818E+00 -2.045240928030E+00
    6     5 B     3.527040952591E+00  6.109802496568E+00 -2.055284043929E+00
    7     1 H    -2.761346840089E+00  2.771397632616E+00 -2.066062415967E+00
    8     1 H     1.257342111576E+00 -5.367409874895E+00  2.030771105224E+00
    9     1 H    -1.262477883890E+00 -5.369862276995E+00  2.030281071131E+00
   10     1 H    -2.411435754235E-01  2.770231739071E+00 -2.069614220138E+00
   11     1 H    -4.020092427077E+00  3.777991456718E+00  2.066044785892E+00
   12     1 H     4.019590763951E+00 -3.771098207864E+00  2.069228982493E+00
   13     1 H     5.280915246617E+00 -1.590385393487E+00  2.069719303587E+00
   14     1 H    -5.278553469806E+00  1.594962506578E+00  2.069596262062E+00
   15     1 H    -4.019567481514E+00 -3.778588605237E+00  2.033955260825E+00
   16     1 H     2.520200376296E+00  1.175092328894E+00 -2.069246612568E+00
   17     1 H     3.780724314099E+00 -1.006658994114E+00 -2.069736810662E+00
   18     1 H    -5.278830894371E+00 -1.595797438921E+00  2.030403702655E+00
   19     6 C    -2.906466484351E+00  4.913650256808E+00 -2.055651528498E+00
   20     6 C    -2.196061945170E+00  3.704922592623E+00 -2.065572422874E+00
   21     6 C    -8.051607289604E-01  6.123138601130E+00 -2.066429449535E+00
   22     6 C    -6.967351521128E-01 -6.303110204253E+00  2.036160045242E+00
   23     6 C    -8.046634551390E-01  3.704972731891E+00 -2.070471574801E+00
   24     6 C    -9.411904678139E-02  4.914169146463E+00 -2.063735123026E+00
   25     6 C     7.208800755518E+00 -2.536226357543E+00  2.055634021423E+00
   26     6 C    -5.111153963660E+00  3.755051866671E+00  2.065554710799E+00
   27     6 C     5.110839614667E+00 -3.751607104581E+00  2.066412065461E+00
   28     6 C     5.806803002539E+00 -2.546703151445E+00  2.063840165475E+00
   29     6 C    -5.806754246500E+00  2.550048382347E+00  2.070453780725E+00
   30     6 C     5.802123237365E+00 -4.972028902610E+00  2.063717533951E+00
   31     6 C     5.709063476328E+00 -6.075788398579E-02 -2.055651528498E+00
   32     6 C    -5.110732782473E+00 -3.756099741248E+00  2.034445294918E+00
   33     6 C     3.611352845432E+00  1.154628224605E+00 -2.066429654536E+00
   34     6 C     4.306990616024E+00 -5.044279171154E-02 -2.063857754550E+00
   35     6 C     5.705135252512E+00  2.363717317492E+00 -2.070471287799E+00
   36     6 C     4.302732228894E+00  2.374895971972E+00 -2.063735123026E+00
   37     8 O     5.796132935212E+00 -2.597536342532E+00 -2.052589594420E+00
   38     8 O    -5.147134479109E+00  3.719649790527E+00 -2.031400908914E+00
   39     8 O    -2.147547470209E+00 -3.719953322100E+00  6.136667428126E+00
   40     8 O     2.147589863769E+00  6.108321418682E+00 -2.052589512419E+00
   41     8 O     2.147842972994E+00  3.720040993790E+00 -2.031400908914E+00
   42     8 O     4.215606360343E+00  4.914310011893E+00 -2.063367679457E+00

 *******************************************************************************
 STARTING BASIS SET HANDLING 
 *******************************************************************************

 Loading internal basis set: SOLDEF2MSVP         

 Please cite in your publication:
 L. Dona', J. G. Brandenburg and B. Civalleri, J. Chem. Phys., 151, 121101 (2019
 )                                                                              
                                                                                
                    

 *******************************************************************************
 LOCAL ATOMIC FUNCTIONS BASIS SET
 *******************************************************************************
   ATOM   X(AU)   Y(AU)   Z(AU)  N. TYPE  EXPONENT  S COEF   P COEF   D/F/G COEF
 *******************************************************************************
   1 B  -12.333   7.027  -3.865
                                  1 S  
                                         2.410E+03 1.755E-03 0.000E+00 0.000E+00
                                         3.619E+02 1.344E-02 0.000E+00 0.000E+00
                                         8.231E+01 6.637E-02 0.000E+00 0.000E+00
                                         2.311E+01 2.303E-01 0.000E+00 0.000E+00
                                         7.252E+00 5.150E-01 0.000E+00 0.000E+00
                                  2 S  
                                         2.367E+00 1.000E+00 0.000E+00 0.000E+00
                                  3 S  
                                         5.533E-01 1.000E+00 0.000E+00 0.000E+00
                                  4 S  
                                         1.716E-01 1.000E+00 0.000E+00 0.000E+00
                           5-     7 P  
                                         6.002E+00 0.000E+00-3.555E-02 0.000E+00
                                         1.240E+00 0.000E+00-1.983E-01 0.000E+00
                                         3.367E-01 0.000E+00-5.048E-01 0.000E+00
                           8-    10 P  
                                         1.256E-01 0.000E+00 1.000E+00 0.000E+00
                          11-    15 D  
                                         8.880E-01 0.000E+00 0.000E+00 1.000E+00
   2 B   -8.422   9.286  -3.865
   3 B   12.255  -2.651  -3.884
   4 B    2.753   9.286  -3.865
   5 B    6.666   7.027  -3.865
   6 B    6.665  11.546  -3.884
   7 H   -5.218   5.237  -3.904
                                 91 S  
                                         1.874E+01 1.968E-02 0.000E+00 0.000E+00
                                         2.826E+00 1.380E-01 0.000E+00 0.000E+00
                                         6.401E-01 4.783E-01 0.000E+00 0.000E+00
                                 92 S  
                                         1.756E-01 1.000E+00 0.000E+00 0.000E+00
   8 H    2.376 -10.143   3.838
   9 H   -2.386 -10.148   3.837
  10 H   -0.456   5.235  -3.911
  11 H   -7.597   7.139   3.904
  12 H    7.596  -7.126   3.910
  13 H    9.979  -3.005   3.911
  14 H   -9.975   3.014   3.911
  15 H   -7.596  -7.140   3.844
  16 H    4.762   2.221  -3.910
  17 H    7.145  -1.902  -3.911
  18 H   -9.976  -3.016   3.837
  19 C   -5.492   9.285  -3.885
                                115 S  
                                         3.624E+03 1.634E-03 0.000E+00 0.000E+00
                                         5.440E+02 1.252E-02 0.000E+00 0.000E+00
                                         1.237E+02 6.211E-02 0.000E+00 0.000E+00
                                         3.476E+01 2.182E-01 0.000E+00 0.000E+00
                                         1.093E+01 4.980E-01 0.000E+00 0.000E+00
                                116 S  
                                         3.574E+00 1.000E+00 0.000E+00 0.000E+00
                                117 S  
                                         7.742E-01 1.000E+00 0.000E+00 0.000E+00
                                118 S  
                                         2.330E-01 1.000E+00 0.000E+00 0.000E+00
                         119-   121 P  
                                         9.443E+00 0.000E+00 3.790E-02 0.000E+00
                                         2.002E+00 0.000E+00 2.082E-01 0.000E+00
                                         5.463E-01 0.000E+00 5.047E-01 0.000E+00
                         122-   124 P  
                                         1.820E-01 0.000E+00 1.000E+00 0.000E+00
                         125-   129 D  
                                         8.880E-01 0.000E+00 0.000E+00 1.000E+00
  20 C   -4.150   7.001  -3.903
  21 C   -1.522  11.571  -3.905
  22 C   -1.317 -11.911   3.848
  23 C   -1.521   7.001  -3.913
  24 C   -0.178   9.286  -3.900
  25 C   13.623  -4.793   3.885
  26 C   -9.659   7.096   3.903
  27 C    9.658  -7.090   3.905
  28 C   10.973  -4.813   3.900
  29 C  -10.973   4.819   3.913
  30 C   10.964  -9.396   3.900
  31 C   10.789  -0.115  -3.885
  32 C   -9.658  -7.098   3.845
  33 C    6.824   2.182  -3.905
  34 C    8.139  -0.095  -3.900
  35 C   10.781   4.467  -3.913
  36 C    8.131   4.488  -3.900
  37 O   10.953  -4.909  -3.879
                                385 S  
                                         6.773E+03 1.727E-03 0.000E+00 0.000E+00
                                         1.017E+03 1.325E-02 0.000E+00 0.000E+00
                                         2.313E+02 6.603E-02 0.000E+00 0.000E+00
                                         6.501E+01 2.353E-01 0.000E+00 0.000E+00
                                         2.050E+01 5.498E-01 0.000E+00 0.000E+00
                                386 S  
                                         6.716E+00 1.000E+00 0.000E+00 0.000E+00
                                387 S  
                                         1.147E+00 1.000E+00 0.000E+00 0.000E+00
                                388 S  
                                         3.342E-01 1.000E+00 0.000E+00 0.000E+00
                         389-   391 P  
                                         1.769E+01 0.000E+00 4.359E-02 0.000E+00
                                         3.854E+00 0.000E+00 2.318E-01 0.000E+00
                                         1.047E+00 0.000E+00 5.146E-01 0.000E+00
                         392-   394 P  
                                         2.759E-01 0.000E+00 1.000E+00 0.000E+00
                         395-   399 D  
                                         8.000E-01 0.000E+00 0.000E+00 1.000E+00
  38 O   -9.727   7.029  -3.839
  39 O   -4.058  -7.030  11.597
  40 O    4.058  11.543  -3.879
  41 O    4.059   7.030  -3.839
  42 O    7.966   9.287  -3.899

 *******************************************************************************
 FINISHED BASIS SET HANDLING 
 *******************************************************************************

 INFORMATION **** SET_MPP **** PCRYSTAL CALCULATION
 INFORMATION **** READM2 **** NEW DEFAULT: FOCK/KS MATRIX MIXING SET TO 30 %
 INFORMATION **** READM2 **** NEW DEFAULT: FULL DIRECT SCF MODE
 INFORMATION **** READM2 **** NEW DEFAULT: COULOMB BIPOLAR BUFFER SET TO 32 Mb
 INFORMATION **** READM2 **** NEW DEFAULT: EXCHANGE BIPOLAR BUFFER SET TO 32 Mb

 *******************************************************************************
 NEW DEFAULT: DFT INTEGRATION GRID INCREASED TO XLGRID
 NEW DEFAULT: DIIS ACCELERATOR ACTIVE
 USE KEYWORD NODIIS TO TURN IT OFF
 *******************************************************************************

 WARNING **** RDDFTP **** HSEsol-HJS ACTIVE
 RANGE SEPARATION - OMEGA:   0.110000000000000     
 WARNING **** RDDFTP **** HSEsol-3c has to be combined with sol-def2-mSVP basis set
 *******************************************************************************
 N. OF ATOMS PER CELL        42  COULOMB OVERLAP TOL         (T1) 10**   -6
 NUMBER OF SHELLS           234  COULOMB PENETRATION TOL     (T2) 10**   -6
 NUMBER OF AO               474  EXCHANGE OVERLAP TOL        (T3) 10**   -6
 N. OF ELECTRONS PER CELL   198  EXCHANGE PSEUDO OVP (F(G))  (T4) 10**   -6
 CORE ELECTRONS PER CELL     60  EXCHANGE PSEUDO OVP (P(G))  (T5) 10**  -12
 N. OF SYMMETRY OPERATORS     1  POLE ORDER IN MONO ZONE                  4
 *******************************************************************************
 TYPE OF CALCULATION :  RESTRICTED CLOSED SHELL
 KOHN-SHAM HAMILTONIAN

 (EXCHANGE)[CORRELATION] FUNCTIONAL:(HSEsol GGA)[PBEsol]

 RANGE-SEPARATED HYBRID FUNCTIONAL 
 OMEGA (SHORT-RANGE)[LONG-RANGE]:(    0.1100)[    0.0000]

 HYBRID EXCHANGE - PERCENTAGE OF FOCK EXCHANGE    25.0000

 CAPPA:IS1  2;IS2  2;IS3  8; K PTS MONK NET  20; SYMMOPS:K SPACE   2;G SPACE   1

 *******************************************************************************
 MAX NUMBER OF SCF CYCLES      50  CONVERGENCE ON DELTAP        10**-16
 WEIGHT OF F(I) IN F(I+1)      30% CONVERGENCE ON ENERGY        10**- 6
 SHRINK. FACT.(MONKH.)    2  2  8  NUMBER OF K POINTS IN THE IBZ     20
 SHRINKING FACTOR(GILAT NET)    8  NUMBER OF K POINTS(GILAT NET)   1028
 *******************************************************************************
 *** K POINTS COORDINATES (OBLIQUE COORDINATES IN UNITS OF IS =  2)
   1-R(  0  0  0)   2-R(  1  0  0)   3-R(  0  1  0)   4-R(  1  1  0)
   5-C(  0  0  1)   6-C(  1  0  1)   7-C(  0  1  1)   8-C(  1  1  1)
   9-C(  0  0  2)  10-C(  1  0  2)  11-C(  0  1  2)  12-C(  1  1  2)
  13-C(  0  0  3)  14-C(  1  0  3)  15-C(  0  1  3)  16-C(  1  1  3)
  17-R(  0  0  4)  18-R(  1  0  4)  19-R(  0  1  4)  20-R(  1  1  4)

 DIRECT LATTICE VECTORS COMPON. (A.U.)     RECIP. LATTICE VECTORS COMPON. (A.U.) 
        X            Y            Z              X            Y            Z
   24.5879030  -14.1935232    0.0000000      0.2555397    0.0000000   -0.0934778
    0.0000000   28.3910867    0.0000000      0.1277517    0.2213084   -0.1869741
    2.8342269    4.9098083    7.7479102      0.0000000    0.0000000    0.8109523

 DISK SPACE FOR EIGENVECTORS (FTN 10)     7189632 REALS

 SYMMETRY ADAPTION OF THE BLOCH FUNCTIONS DISABLED
 TTTTTTTTTTTTTTTTTTTTTTTTTTTTTT gordsh1     TELAPSE        0.04 TCPU        0.04

 MATRIX SIZE: P(G)  308746, F(G)   64641, P(G) IRR  155678, F(G) IRR   65301
 MAX G-VECTOR INDEX FOR 1- AND 2-ELECTRON INTEGRALS  53

 TTTTTTTTTTTTTTTTTTTTTTTTTTTTTT INPUT       TELAPSE        0.33 TCPU        0.32

 NEIGHBORS OF THE NON-EQUIVALENT ATOMS

 N = NUMBER OF NEIGHBORS AT DISTANCE R
    ATOM  N     R/ANG      R/AU   NEIGHBORS (ATOM LABELS AND CELL INDICES)
   1 B    1     1.3791     2.6061   37 O   -1 0 0
   1 B    1     1.3793     2.6065   38 O    0 0 0
   1 B    1     1.5503     2.9297   25 C   -1 0-1
   1 B    1     2.3895     4.5155    3 B   -1 0 0
   1 B    1     2.3898     4.5160    2 B    0 0 0
   1 B    1     2.5632     4.8437   26 C    0 0-1

   2 B    1     1.3793     2.6065   39 O    0 1-2
   2 B    1     1.3793     2.6065   38 O    0 0 0
   2 B    1     1.5504     2.9298   19 C    0 0 0
   2 B    1     2.3895     4.5156    3 B   -1 0 0
   2 B    1     2.3898     4.5160    1 B    0 0 0
   2 B    1     2.5634     4.8440   22 C    0 1-1

   3 B    1     1.3791     2.6061   37 O    0 0 0
   3 B    1     1.3793     2.6064   39 O    1 1-2
   3 B    1     1.5502     2.9294   31 C    0 0 0
   3 B    1     2.3895     4.5155    1 B    1 0 0
   3 B    1     2.3895     4.5156    2 B    1 0 0
   3 B    1     2.5629     4.8433   32 C    1 1-1

   4 B    1     1.3795     2.6068   40 O    0 0 0
   4 B    1     1.3795     2.6070   41 O    0 0 0
   4 B    1     1.5513     2.9316   24 C    0 0 0
   4 B    1     2.3905     4.5174    6 B    0 0 0
   4 B    1     2.3905     4.5175    5 B    0 0 0
   4 B    1     2.5648     4.8468   23 C    0 0 0

   5 B    1     1.3795     2.6069   41 O    0 0 0
   5 B    1     1.3797     2.6072   42 O    0 0 0
   5 B    1     1.5516     2.9322   36 C    0 0 0
   5 B    1     2.3905     4.5175    4 B    0 0 0
   5 B    1     2.3911     4.5185    6 B    0 0 0
   5 B    1     2.5651     4.8473   35 C    0 0 0

   6 B    1     1.3795     2.6068   40 O    0 0 0
   6 B    1     1.3796     2.6071   42 O    0 0 0
   6 B    1     1.5516     2.9322   30 C    0 1-1
   6 B    1     2.3905     4.5174    4 B    0 0 0
   6 B    1     2.3911     4.5185    5 B    0 0 0
   6 B    1     2.5651     4.8473   29 C    1 1-1

   7 H    1     1.0913     2.0623   20 C    0 0 0
   7 H    1     2.1472     4.0576   19 C    0 0 0
   7 H    1     2.1680     4.0969   23 C    0 0 0
   7 H    1     2.5202     4.7625   10 H    0 0 0
   7 H    1     2.5676     4.8520   38 O    0 0 0
   7 H    1     2.7321     5.1630    2 B    0 0 0

   8 H    1     1.0914     2.0625   21 C    0-1 1
   8 H    1     2.1493     4.0616   24 C    0-1 1
   8 H    1     2.1666     4.0942   22 C    0 0 0
   8 H    1     2.5198     4.7618    9 H    0 0 0
   8 H    1     2.5720     4.8604   40 O    0-1 1
   8 H    1     2.7362     5.1707    4 B    0-1 1

   9 H    1     1.0914     2.0624   22 C    0 0 0
   9 H    1     2.1471     4.0575   19 C    0-1 1
   9 H    1     2.1680     4.0970   21 C    0-1 1
   9 H    1     2.5198     4.7618    8 H    0 0 0
   9 H    1     2.5665     4.8500   39 O    0 0-1
   9 H    1     2.7315     5.1618    2 B    0-1 1

  10 H    1     1.0915     2.0626   23 C    0 0 0
  10 H    1     2.1490     4.0610   24 C    0 0 0
  10 H    1     2.1669     4.0948   20 C    0 0 0
  10 H    1     2.5202     4.7625    7 H    0 0 0
  10 H    1     2.5712     4.8588   41 O    0 0 0
  10 H    1     2.7351     5.1686    4 B    0 0 0

  11 H    1     1.0913     2.0623   26 C    0 0 0
  11 H    1     2.1469     4.0571   25 C   -1 0 0
  11 H    1     2.1680     4.0968   29 C    0 0 0
  11 H    1     2.5198     4.7617   14 H    0 0 0
  11 H    1     2.5670     4.8510   38 O    0 0 1
  11 H    1     2.7310     5.1609    1 B    0 0 1

  12 H    1     1.0914     2.0625   27 C    0 0 0
  12 H    1     2.1493     4.0617   30 C    0 0 0
  12 H    1     2.1664     4.0939   28 C    0 0 0
  12 H    1     2.5192     4.7606   13 H    0 0 0
  12 H    1     2.5735     4.8632   40 O    0-1 1
  12 H    1     2.7371     5.1723    6 B    0-1 1

  13 H    1     1.0914     2.0624   28 C    0 0 0
  13 H    1     2.1475     4.0581   25 C    0 0 0
  13 H    1     2.1679     4.0967   27 C    0 0 0
  13 H    1     2.5192     4.7606   12 H    0 0 0
  13 H    1     2.5675     4.8519   37 O    0 0 1
  13 H    1     2.7328     5.1643    1 B    1 0 1

  14 H    1     1.0914     2.0625   29 C    0 0 0
  14 H    1     2.1491     4.0612   30 C   -1 0 0
  14 H    1     2.1666     4.0942   26 C    0 0 0
  14 H    1     2.5198     4.7617   11 H    0 0 0
  14 H    1     2.5723     4.8609   42 O   -1-1 1
  14 H    1     2.7355     5.1693    6 B   -1-1 1

  15 H    1     1.0914     2.0624   32 C    0 0 0
  15 H    1     2.1475     4.0582   31 C   -1-1 1
  15 H    1     2.1678     4.0966   35 C   -1-1 1
  15 H    1     2.5200     4.7621   18 H    0 0 0
  15 H    1     2.5667     4.8503   39 O    0 0-1
  15 H    1     2.7315     5.1618    3 B   -1-1 1

  16 H    1     1.0913     2.0623   33 C    0 0 0
  16 H    1     2.1487     4.0605   36 C    0 0 0
  16 H    1     2.1667     4.0945   34 C    0 0 0
  16 H    1     2.5197     4.7616   17 H    0 0 0
  16 H    1     2.5723     4.8610   41 O    0 0 0
  16 H    1     2.7359     5.1701    5 B    0 0 0

  17 H    1     1.0915     2.0626   34 C    0 0 0
  17 H    1     2.1479     4.0589   31 C    0 0 0
  17 H    1     2.1679     4.0968   33 C    0 0 0
  17 H    1     2.5197     4.7616   16 H    0 0 0
  17 H    1     2.5677     4.8522   37 O    0 0 0
  17 H    1     2.7331     5.1648    3 B    0 0 0

  18 H    1     1.0914     2.0624   35 C   -1-1 1
  18 H    1     2.1486     4.0602   36 C   -1-1 1
  18 H    1     2.1668     4.0947   32 C    0 0 0
  18 H    1     2.5200     4.7621   15 H    0 0 0
  18 H    1     2.5717     4.8598   42 O   -1-1 1
  18 H    1     2.7349     5.1682    5 B   -1-1 1

  19 C    1     1.4020     2.6495   22 C    0 1-1
  19 C    1     1.4021     2.6495   20 C    0 0 0
  19 C    1     1.5504     2.9298    2 B    0 0 0
  19 C    1     2.1471     4.0575    9 H    0 1-1
  19 C    1     2.1472     4.0576    7 H    0 0 0
  19 C    1     2.4246     4.5817   21 C    0 0 0

  20 C    1     1.0913     2.0623    7 H    0 0 0
  20 C    1     1.3914     2.6294   23 C    0 0 0
  20 C    1     1.4021     2.6495   19 C    0 0 0
  20 C    1     2.1669     4.0948   10 H    0 0 0
  20 C    1     2.4177     4.5688   22 C    0 1-1
  20 C    1     2.4250     4.5825   24 C    0 0 0

  21 C    1     1.0914     2.0625    8 H    0 1-1
  21 C    1     1.3914     2.6293   22 C    0 1-1
  21 C    1     1.4026     2.6505   24 C    0 0 0
  21 C    1     2.1680     4.0970    9 H    0 1-1
  21 C    1     2.4182     4.5697   23 C    0 0 0
  21 C    1     2.4246     4.5817   19 C    0 0 0

  22 C    1     1.0914     2.0624    9 H    0 0 0
  22 C    1     1.3914     2.6293   21 C    0-1 1
  22 C    1     1.4020     2.6495   19 C    0-1 1
  22 C    1     2.1666     4.0942    8 H    0 0 0
  22 C    1     2.4177     4.5688   20 C    0-1 1
  22 C    1     2.4250     4.5826   24 C    0-1 1

  23 C    1     1.0915     2.0626   10 H    0 0 0
  23 C    1     1.3914     2.6294   20 C    0 0 0
  23 C    1     1.4025     2.6504   24 C    0 0 0
  23 C    1     2.1680     4.0969    7 H    0 0 0
  23 C    1     2.4182     4.5697   21 C    0 0 0
  23 C    1     2.4246     4.5818   19 C    0 0 0

  24 C    1     1.4025     2.6504   23 C    0 0 0
  24 C    1     1.4026     2.6505   21 C    0 0 0
  24 C    1     1.5513     2.9316    4 B    0 0 0
  24 C    1     2.1490     4.0610   10 H    0 0 0
  24 C    1     2.1493     4.0616    8 H    0 1-1
  24 C    1     2.4250     4.5825   20 C    0 0 0

  25 C    1     1.4020     2.6494   26 C    1 0 0
  25 C    1     1.4021     2.6495   28 C    0 0 0
  25 C    1     1.5503     2.9297    1 B    1 0 1
  25 C    1     2.1469     4.0571   11 H    1 0 0
  25 C    1     2.1475     4.0581   13 H    0 0 0
  25 C    1     2.4246     4.5818   27 C    0 0 0

  26 C    1     1.0913     2.0623   11 H    0 0 0
  26 C    1     1.3914     2.6293   29 C    0 0 0
  26 C    1     1.4020     2.6494   25 C   -1 0 0
  26 C    1     2.1666     4.0942   14 H    0 0 0
  26 C    1     2.4175     4.5684   28 C   -1 0 0
  26 C    1     2.4251     4.5828   30 C   -1 0 0

  27 C    1     1.0914     2.0625   12 H    0 0 0
  27 C    1     1.3915     2.6295   28 C    0 0 0
  27 C    1     1.4026     2.6505   30 C    0 0 0
  27 C    1     2.1679     4.0967   13 H    0 0 0
  27 C    1     2.4179     4.5691   29 C    1 0 0
  27 C    1     2.4246     4.5818   25 C    0 0 0

  28 C    1     1.0914     2.0624   13 H    0 0 0
  28 C    1     1.3915     2.6295   27 C    0 0 0
  28 C    1     1.4021     2.6495   25 C    0 0 0
  28 C    1     2.1664     4.0939   12 H    0 0 0
  28 C    1     2.4175     4.5684   26 C    1 0 0
  28 C    1     2.4253     4.5832   30 C    0 0 0

  29 C    1     1.0914     2.0625   14 H    0 0 0
  29 C    1     1.3914     2.6293   26 C    0 0 0
  29 C    1     1.4025     2.6504   30 C   -1 0 0
  29 C    1     2.1680     4.0968   11 H    0 0 0
  29 C    1     2.4179     4.5691   27 C   -1 0 0
  29 C    1     2.4247     4.5819   25 C   -1 0 0

  30 C    1     1.4025     2.6504   29 C    1 0 0
  30 C    1     1.4026     2.6505   27 C    0 0 0
  30 C    1     1.5516     2.9322    6 B    0-1 1
  30 C    1     2.1491     4.0612   14 H    1 0 0
  30 C    1     2.1493     4.0617   12 H    0 0 0
  30 C    1     2.4251     4.5828   26 C    1 0 0

  31 C    1     1.4021     2.6496   32 C    1 1-1
  31 C    1     1.4021     2.6497   34 C    0 0 0
  31 C    1     1.5502     2.9294    3 B    0 0 0
  31 C    1     2.1475     4.0582   15 H    1 1-1
  31 C    1     2.1479     4.0589   17 H    0 0 0
  31 C    1     2.4244     4.5814   33 C    0 0 0

  32 C    1     1.0914     2.0624   15 H    0 0 0
  32 C    1     1.3914     2.6293   35 C   -1-1 1
  32 C    1     1.4021     2.6496   31 C   -1-1 1
  32 C    1     2.1668     4.0947   18 H    0 0 0
  32 C    1     2.4179     4.5692   34 C   -1-1 1
  32 C    1     2.4251     4.5827   36 C   -1-1 1

  33 C    1     1.0913     2.0623   16 H    0 0 0
  33 C    1     1.3914     2.6294   34 C    0 0 0
  33 C    1     1.4025     2.6504   36 C    0 0 0
  33 C    1     2.1679     4.0968   17 H    0 0 0
  33 C    1     2.4178     4.5690   35 C    0 0 0
  33 C    1     2.4244     4.5814   31 C    0 0 0

  34 C    1     1.0915     2.0626   17 H    0 0 0
  34 C    1     1.3914     2.6294   33 C    0 0 0
  34 C    1     1.4021     2.6497   31 C    0 0 0
  34 C    1     2.1667     4.0945   16 H    0 0 0
  34 C    1     2.4179     4.5692   32 C    1 1-1
  34 C    1     2.4253     4.5832   36 C    0 0 0

  35 C    1     1.0914     2.0624   18 H    1 1-1
  35 C    1     1.3914     2.6293   32 C    1 1-1
  35 C    1     1.4025     2.6503   36 C    0 0 0
  35 C    1     2.1678     4.0966   15 H    1 1-1
  35 C    1     2.4178     4.5690   33 C    0 0 0
  35 C    1     2.4245     4.5817   31 C    0 0 0

  36 C    1     1.4025     2.6503   35 C    0 0 0
  36 C    1     1.4025     2.6504   33 C    0 0 0
  36 C    1     1.5516     2.9322    5 B    0 0 0
  36 C    1     2.1486     4.0602   18 H    1 1-1
  36 C    1     2.1487     4.0605   16 H    0 0 0
  36 C    1     2.4251     4.5827   32 C    1 1-1

  37 O    1     1.3791     2.6061    3 B    0 0 0
  37 O    1     1.3791     2.6061    1 B    1 0 0
  37 O    1     2.3880     4.5126   38 O    1 0 0
  37 O    1     2.3882     4.5130   39 O    1 1-2
  37 O    1     2.5383     4.7966   31 C    0 0 0
  37 O    1     2.5384     4.7968   25 C    0 0-1

  38 O    1     1.3793     2.6065    1 B    0 0 0
  38 O    1     1.3793     2.6065    2 B    0 0 0
  38 O    1     2.3880     4.5126   37 O   -1 0 0
  38 O    1     2.3882     4.5131   39 O    0 1-2
  38 O    1     2.5391     4.7981   19 C    0 0 0
  38 O    1     2.5395     4.7990   25 C   -1 0-1

  39 O    1     1.3793     2.6064    3 B   -1-1 2
  39 O    1     1.3793     2.6065    2 B    0-1 2
  39 O    1     2.3882     4.5130   37 O   -1-1 2
  39 O    1     2.3882     4.5131   38 O    0-1 2
  39 O    1     2.5390     4.7980   19 C    0-1 2
  39 O    1     2.5391     4.7982   31 C   -1-1 2

  40 O    1     1.3795     2.6068    6 B    0 0 0
  40 O    1     1.3795     2.6068    4 B    0 0 0
  40 O    1     2.3880     4.5126   42 O    0 0 0
  40 O    1     2.3884     4.5134   41 O    0 0 0
  40 O    1     2.5400     4.7998   24 C    0 0 0
  40 O    1     2.5403     4.8005   30 C    0 1-1

  41 O    1     1.3795     2.6069    5 B    0 0 0
  41 O    1     1.3795     2.6070    4 B    0 0 0
  41 O    1     2.3881     4.5128   42 O    0 0 0
  41 O    1     2.3884     4.5134   40 O    0 0 0
  41 O    1     2.5404     4.8006   24 C    0 0 0
  41 O    1     2.5405     4.8008   36 C    0 0 0

  42 O    1     1.3796     2.6071    6 B    0 0 0
  42 O    1     1.3797     2.6072    5 B    0 0 0
  42 O    1     2.3880     4.5126   40 O    0 0 0
  42 O    1     2.3881     4.5128   41 O    0 0 0
  42 O    1     2.5409     4.8016   36 C    0 0 0
  42 O    1     2.5410     4.8019   30 C    0 1-1


 SYMMETRY ALLOWED INTERNAL DEGREE(S) OF FREEDOM: 123
 TTTTTTTTTTTTTTTTTTTTTTTTTTTTTT SYMM        TELAPSE        0.33 TCPU        0.32
 TTTTTTTTTTTTTTTTTTTTTTTTTTTTTT INT_SCREEN  TELAPSE        0.36 TCPU        0.35

 DFT PARAMETERS

     ATOM       ELECTRONS   NET CHARGE   R(ANGSTROM)
   1   5  B       5.0000      0.0000     0.89000000
   7   1  H       1.0000      0.0000     1.11000000
  19   6  C       6.0000      0.0000     0.77000000
  37   8  O       8.0000      0.0000     0.74000000

 SIZE OF GRID=    1320054
 TTTTTTTTTTTTTTTTTTTTTTTTTTTTTT MAKE_GRID2  TELAPSE        8.80 TCPU        8.79
 BECKE WEIGHT FUNCTION
 RADSAFE =     2.00
 TOLERANCES - DENSITY:10**- 6; POTENTIAL:10**- 9; GRID WGT:10**-14

 RADIAL INTEGRATION  - INTERVALS (POINTS,UPPER LIMIT):            1( 75,  4.0*R)

 ANGULAR INTEGRATION - INTERVALS (ACCURACY LEVEL [N. POINTS] UPPER LIMIT):
  1(  4[  86]   0.2)  2(  8[ 194]   0.5)  3( 12[ 350]   0.9)  4( 16[ 974]   3.5)
  5( 12[ 350]9999.0)
 TTTTTTTTTTTTTTTTTTTTTTTTTTTTTT INT_CALC    TELAPSE        8.88 TCPU        8.87
 EEEEEEEEEE INT_CALC TERMINATION  DATE 19 02 2026 TIME 19:09:51.6

 *******************************************************************************
 cof-1_z41_L030_incl                                                             
 CRYSTAL - SCF - TYPE OF CALCULATION :  RESTRICTED CLOSED SHELL
 *******************************************************************************

 CAPPA:IS1  2;IS2  2;IS3  8; K PTS MONK NET  20; SYMMOPS:K SPACE   2;G SPACE   1

 TTTTTTTTTTTTTTTTTTTTTTTTTTTTTT SDIK        TELAPSE        9.51 TCPU       16.94

 AAAAAAAAAAAAAAAAAAAAAAAAAAAAAAAAAAAAAAAAAAAAAAAAAAAAAAAAAAAAAAAAAAAAAAAAAAAAAAA
         ATOMIC WAVEFUNCTION(S)


 NUCLEAR CHARGE  5.0  SYMMETRY SPECIES            S    P
 N. ELECTRONS    5.0  NUMBER OF PRIMITIVE GTOS    8    4
                      NUMBER OF CONTRACTED GTOS   4    2
                      NUMBER OF CLOSED SHELLS     2    0
                      OPEN SHELL OCCUPATION       0    1

  ZNUC  SCFIT    TOTAL HF ENERGY   KINETIC ENERGY   VIRIAL THEOREM ACCURACY
   5.0    11    -2.451164084E+01  2.462155050E+01 -1.995536038E+00  1.5E-06

 NUCLEAR CHARGE  1.0  SYMMETRY SPECIES            S
 N. ELECTRONS    1.0  NUMBER OF PRIMITIVE GTOS    4
                      NUMBER OF CONTRACTED GTOS   2
                      NUMBER OF CLOSED SHELLS     0
                      OPEN SHELL OCCUPATION       1

  ZNUC  SCFIT    TOTAL HF ENERGY   KINETIC ENERGY   VIRIAL THEOREM ACCURACY
   1.0     1    -4.977266687E-01  5.190767460E-01 -1.958869132E+00  0.0E+00

 NUCLEAR CHARGE  6.0  SYMMETRY SPECIES            S    P
 N. ELECTRONS    6.0  NUMBER OF PRIMITIVE GTOS    8    4
                      NUMBER OF CONTRACTED GTOS   4    2
                      NUMBER OF CLOSED SHELLS     2    0
                      OPEN SHELL OCCUPATION       0    2

  ZNUC  SCFIT    TOTAL HF ENERGY   KINETIC ENERGY   VIRIAL THEOREM ACCURACY
   6.0     9    -3.766704647E+01  3.775180683E+01 -1.997754800E+00  1.1E-06

 NUCLEAR CHARGE  8.0  SYMMETRY SPECIES            S    P
 N. ELECTRONS    8.0  NUMBER OF PRIMITIVE GTOS    8    4
                      NUMBER OF CONTRACTED GTOS   4    2
                      NUMBER OF CLOSED SHELLS     2    0
                      OPEN SHELL OCCUPATION       0    4

  ZNUC  SCFIT    TOTAL HF ENERGY   KINETIC ENERGY   VIRIAL THEOREM ACCURACY
   8.0    12    -7.477373220E+01  7.477365593E+01 -2.000001020E+00  3.8E-06

 AAAAAAAAAAAAAAAAAAAAAAAAAAAAAAAAAAAAAAAAAAAAAAAAAAAAAAAAAAAAAAAAAAAAAAAAAAAAAAA

 CHARGE NORMALIZATION FACTOR   1.00000000
 TOTAL ATOMIC CHARGES:
   5.0000000   5.0000000   5.0000000   5.0000000   5.0000000   5.0000000
   1.0000000   1.0000000   1.0000000   1.0000000   1.0000000   1.0000000
   1.0000000   1.0000000   1.0000000   1.0000000   1.0000000   1.0000000
   6.0000000   6.0000000   6.0000000   6.0000000   6.0000000   6.0000000
   6.0000000   6.0000000   6.0000000   6.0000000   6.0000000   6.0000000
   6.0000000   6.0000000   6.0000000   6.0000000   6.0000000   6.0000000
   8.0000000   8.0000000   8.0000000   8.0000000   8.0000000   8.0000000
 TTTTTTTTTTTTTTTTTTTTTTTTTTTTTT MOQGAD      TELAPSE        9.55 TCPU       18.37
 TTTTTTTTTTTTTTTTTTTTTTTTTTTTTT SHELLXN     TELAPSE       16.18 TCPU      229.99
 TTTTTTTTTTTTTTTTTTTTTTTTTTTTTT MONMO3      TELAPSE       16.31 TCPU      234.38
 NUMERICALLY INTEGRATED DENSITY    197.9999974073
 TTTTTTTTTTTTTTTTTTTTTTTTTTTTTT NUMDFT      TELAPSE       16.86 TCPU      251.86
 CYC   0 ETOT(AU) -1.295955685141E+03 DETOT -1.30E+03 tst  0.00E+00 PX  1.00E+00
 TTTTTTTTTTTTTTTTTTTTTTTTTTTTTT DIIS        TELAPSE       16.89 TCPU      252.93
 TTTTTTTTTTTTTTTTTTTTTTTTTTTTTT FDIK        TELAPSE       17.39 TCPU      268.86
 INSULATING STATE
 TOP OF VALENCE BANDS -    BAND     99; K   17; EIG -3.1295336E-01 AU
 TOP OF VALENCE BANDS -    BAND     99; K    1; EIG -3.1418740E-01 AU
 BOTTOM OF VIRTUAL BANDS - BAND    100; K    1; EIG -1.5831412E-01 AU
 INDIRECT ENERGY BAND GAP:   4.2079 eV
 TTTTTTTTTTTTTTTTTTTTTTTTTTTTTT PDIG        TELAPSE       17.69 TCPU      275.01
 CHARGE NORMALIZATION FACTOR   1.00000000
 TOTAL ATOMIC CHARGES:
   4.1573513   4.1642799   4.1645903   4.1641253   4.1638846   4.1570651
   0.7851820   0.7853063   0.7850387   0.7851360   0.7854896   0.7856735
   0.7854834   0.7856406   0.7850293   0.7851945   0.7851344   0.7852994
   6.0433108   6.2657106   6.2656756   6.2649284   6.2648918   6.0426567
   6.0457326   6.2653209   6.2654372   6.2652186   6.2654544   6.0445768
   6.0437090   6.2646872   6.2652639   6.2653332   6.2659458   6.0421993
   8.6927896   8.6929332   8.6930605   8.6933076   8.6934616   8.6934904
 TTTTTTTTTTTTTTTTTTTTTTTTTTTTTT MOQGAD      TELAPSE       17.74 TCPU      275.06
 TTTTTTTTTTTTTTTTTTTTTTTTTTTTTT SHELLXN     TELAPSE       24.73 TCPU      497.95
 TTTTTTTTTTTTTTTTTTTTTTTTTTTTTT MONMO3      TELAPSE       24.86 TCPU      502.23
 NUMERICALLY INTEGRATED DENSITY    198.0000053652
 TTTTTTTTTTTTTTTTTTTTTTTTTTTTTT NUMDFT      TELAPSE       25.41 TCPU      519.67
 CYC   1 ETOT(AU) -1.288817301527E+03 DETOT  7.14E+00 tst  0.00E+00 PX  1.00E+00
 TTTTTTTTTTTTTTTTTTTTTTTTTTTTTT DIIS        TELAPSE       25.45 TCPU      521.17
 DIIS TEST: 0.11007E+01 AT SCF   CYCLE   1 - MIX   30 %
 TTTTTTTTTTTTTTTTTTTTTTTTTTTTTT FDIK        TELAPSE       25.95 TCPU      537.15
 INSULATING STATE
 TOP OF VALENCE BANDS -    BAND     99; K   17; EIG -2.2301234E-01 AU
 TOP OF VALENCE BANDS -    BAND     99; K    1; EIG -2.2740239E-01 AU
 BOTTOM OF VIRTUAL BANDS - BAND    100; K    1; EIG -8.0486858E-02 AU
 INDIRECT ENERGY BAND GAP:   3.8783 eV
 TTTTTTTTTTTTTTTTTTTTTTTTTTTTTT PDIG        TELAPSE       26.25 TCPU      543.30
 CHARGE NORMALIZATION FACTOR   1.00000000
 TOTAL ATOMIC CHARGES:
   4.6897077   4.7049668   4.7045649   4.7046972   4.7048958   4.6888655
   0.9092302   0.9093197   0.9156960   0.9159599   0.9075930   0.9074252
   0.9075346   0.9073910   0.9157148   0.9159926   0.9091377   0.9091779
   5.8666052   6.1246591   6.1250687   6.1421060   6.1431882   5.8690308
   5.8795627   6.1375736   6.1391575   6.1384703   6.1382401   5.8820842
   5.8663163   6.1419596   6.1434207   6.1249986   6.1249480   5.8693616
   8.3311644   8.3314056   8.3453509   8.3309343   8.3454399   8.3310831
 TTTTTTTTTTTTTTTTTTTTTTTTTTTTTT MOQGAD      TELAPSE       26.29 TCPU      543.35
 TTTTTTTTTTTTTTTTTTTTTTTTTTTTTT SHELLXN     TELAPSE       33.29 TCPU      766.27
 TTTTTTTTTTTTTTTTTTTTTTTTTTTTTT MONMO3      TELAPSE       33.42 TCPU      770.56
 NUMERICALLY INTEGRATED DENSITY    198.0000093286
 TTTTTTTTTTTTTTTTTTTTTTTTTTTTTT NUMDFT      TELAPSE       33.97 TCPU      788.08
 CYC   2 ETOT(AU) -1.289012395899E+03 DETOT -1.95E-01 tst  4.01E-03 PX  1.59E-01
 TTTTTTTTTTTTTTTTTTTTTTTTTTTTTT DIIS        TELAPSE       34.02 TCPU      789.66
 DIIS TEST: 0.45494E+00 AT SCF   CYCLE   2 - DIIS ACTIVE - HISTORY:     2 CYCLES
 TTTTTTTTTTTTTTTTTTTTTTTTTTTTTT FDIK        TELAPSE       34.52 TCPU      805.57
 INSULATING STATE
 TOP OF VALENCE BANDS -    BAND     99; K   17; EIG -2.3602524E-01 AU
 TOP OF VALENCE BANDS -    BAND     99; K    1; EIG -2.3853513E-01 AU
 BOTTOM OF VIRTUAL BANDS - BAND    100; K    1; EIG -7.6821913E-02 AU
 INDIRECT ENERGY BAND GAP:   4.3321 eV
 TTTTTTTTTTTTTTTTTTTTTTTTTTTTTT PDIG        TELAPSE       34.81 TCPU      811.72
 CHARGE NORMALIZATION FACTOR   1.00000000
 TOTAL ATOMIC CHARGES:
   4.4876854   4.5001737   4.5000142   4.4995285   4.4994620   4.4868997
   0.8872488   0.8874205   0.8923689   0.8926411   0.8868965   0.8870666
   0.8870098   0.8868938   0.8923436   0.8927232   0.8871988   0.8873030
   5.8900412   6.1610039   6.1610169   6.1588968   6.1578881   5.8894545
   5.9020909   6.1602851   6.1599768   6.1600931   6.1600670   5.9017455
   5.8904852   6.1589410   6.1579415   6.1608814   6.1611825   5.8890934
   8.5136656   8.5139247   8.5110292   8.5141330   8.5108682   8.5144163
 TTTTTTTTTTTTTTTTTTTTTTTTTTTTTT MOQGAD      TELAPSE       34.86 TCPU      811.77
 TTTTTTTTTTTTTTTTTTTTTTTTTTTTTT SHELLXN     TELAPSE       41.71 TCPU     1030.25
 TTTTTTTTTTTTTTTTTTTTTTTTTTTTTT MONMO3      TELAPSE       41.84 TCPU     1034.48
 NUMERICALLY INTEGRATED DENSITY    198.0000080708
 TTTTTTTTTTTTTTTTTTTTTTTTTTTTTT NUMDFT      TELAPSE       42.38 TCPU     1051.83
 CYC   3 ETOT(AU) -1.289106631627E+03 DETOT -9.42E-02 tst  6.92E-04 PX  6.48E-02
 TTTTTTTTTTTTTTTTTTTTTTTTTTTTTT DIIS        TELAPSE       42.44 TCPU     1053.63
 DIIS TEST: 0.13511E-01 AT SCF   CYCLE   3 - DIIS ACTIVE - HISTORY:     3 CYCLES
 TTTTTTTTTTTTTTTTTTTTTTTTTTTTTT FDIK        TELAPSE       42.94 TCPU     1069.43
 INSULATING STATE
 TOP OF VALENCE BANDS -    BAND     99; K   17; EIG -2.4616447E-01 AU
 TOP OF VALENCE BANDS -    BAND     99; K    1; EIG -2.5028379E-01 AU
 BOTTOM OF VIRTUAL BANDS - BAND    100; K    1; EIG -8.5325589E-02 AU
 INDIRECT ENERGY BAND GAP:   4.3767 eV
 TTTTTTTTTTTTTTTTTTTTTTTTTTTTTT PDIG        TELAPSE       43.23 TCPU     1075.58
 CHARGE NORMALIZATION FACTOR   1.00000000
 TOTAL ATOMIC CHARGES:
   4.4942698   4.5045048   4.5042412   4.5041354   4.5041612   4.4937833
   0.8706346   0.8708032   0.8746149   0.8747593   0.8684149   0.8683164
   0.8683670   0.8682954   0.8746765   0.8747701   0.8705867   0.8706820
   5.9369872   6.1605973   6.1607612   6.1713041   6.1729213   5.9396155
   5.9496658   6.1687593   6.1703846   6.1695328   6.1694885   5.9515687
   5.9368655   6.1709552   6.1733507   6.1607016   6.1607633   5.9397581
   8.4758522   8.4759807   8.4860370   8.4757636   8.4865172   8.4758517
 TTTTTTTTTTTTTTTTTTTTTTTTTTTTTT MOQGAD      TELAPSE       43.28 TCPU     1075.62
 TTTTTTTTTTTTTTTTTTTTTTTTTTTTTT SHELLXN     TELAPSE       50.25 TCPU     1297.87
 TTTTTTTTTTTTTTTTTTTTTTTTTTTTTT MONMO3      TELAPSE       50.38 TCPU     1302.19
 NUMERICALLY INTEGRATED DENSITY    198.0000081973
 TTTTTTTTTTTTTTTTTTTTTTTTTTTTTT NUMDFT      TELAPSE       50.94 TCPU     1319.85
 CYC   4 ETOT(AU) -1.289109486612E+03 DETOT -2.85E-03 tst  2.86E-05 PX  1.35E-02
 TTTTTTTTTTTTTTTTTTTTTTTTTTTTTT DIIS        TELAPSE       51.00 TCPU     1321.74
 DIIS TEST: 0.41500E-02 AT SCF   CYCLE   4 - DIIS ACTIVE - HISTORY:     4 CYCLES
 TTTTTTTTTTTTTTTTTTTTTTTTTTTTTT FDIK        TELAPSE       51.49 TCPU     1337.63
 INSULATING STATE
 TOP OF VALENCE BANDS -    BAND     99; K   17; EIG -2.4433183E-01 AU
 TOP OF VALENCE BANDS -    BAND     99; K    1; EIG -2.4791362E-01 AU
 BOTTOM OF VIRTUAL BANDS - BAND    100; K    1; EIG -8.4836003E-02 AU
 INDIRECT ENERGY BAND GAP:   4.3401 eV
 TTTTTTTTTTTTTTTTTTTTTTTTTTTTTT PDIG        TELAPSE       51.78 TCPU     1343.78
 CHARGE NORMALIZATION FACTOR   1.00000000
 TOTAL ATOMIC CHARGES:
   4.4943407   4.5072262   4.5069885   4.5066939   4.5066934   4.4935393
   0.8733295   0.8734729   0.8781469   0.8784818   0.8720631   0.8721804
   0.8721258   0.8720474   0.8781378   0.8785575   0.8732637   0.8733600
   5.9207730   6.1634948   6.1635384   6.1697541   6.1687653   5.9199751
   5.9321632   6.1687798   6.1687285   6.1687664   6.1686396   5.9317340
   5.9209959   6.1697593   6.1688429   6.1634348   6.1637006   5.9197958
   8.4884392   8.4886988   8.4915385   8.4887230   8.4913262   8.4889840
 TTTTTTTTTTTTTTTTTTTTTTTTTTTTTT MOQGAD      TELAPSE       51.83 TCPU     1343.83
 TTTTTTTTTTTTTTTTTTTTTTTTTTTTTT SHELLXN     TELAPSE       58.74 TCPU     1564.18
 TTTTTTTTTTTTTTTTTTTTTTTTTTTTTT MONMO3      TELAPSE       58.87 TCPU     1568.49
 NUMERICALLY INTEGRATED DENSITY    198.0000081775
 TTTTTTTTTTTTTTTTTTTTTTTTTTTTTT NUMDFT      TELAPSE       59.43 TCPU     1586.14
 CYC   5 ETOT(AU) -1.289110433299E+03 DETOT -9.47E-04 tst  6.41E-06 PX  6.52E-03
 TTTTTTTTTTTTTTTTTTTTTTTTTTTTTT DIIS        TELAPSE       59.50 TCPU     1588.33
 DIIS TEST: 0.68766E-04 AT SCF   CYCLE   5 - DIIS ACTIVE - HISTORY:     5 CYCLES
 TTTTTTTTTTTTTTTTTTTTTTTTTTTTTT FDIK        TELAPSE       59.99 TCPU     1604.28
 INSULATING STATE
 TOP OF VALENCE BANDS -    BAND     99; K   17; EIG -2.4407030E-01 AU
 TOP OF VALENCE BANDS -    BAND     99; K    1; EIG -2.4766153E-01 AU
 BOTTOM OF VIRTUAL BANDS - BAND    100; K    1; EIG -8.4299095E-02 AU
 INDIRECT ENERGY BAND GAP:   4.3476 eV
 TTTTTTTTTTTTTTTTTTTTTTTTTTTTTT PDIG        TELAPSE       60.29 TCPU     1610.43
 CHARGE NORMALIZATION FACTOR   1.00000000
 TOTAL ATOMIC CHARGES:
   4.4949409   4.5065214   4.5062830   4.5060925   4.5061084   4.4943845
   0.8743363   0.8745040   0.8791891   0.8792894   0.8731800   0.8730753
   0.8731525   0.8730361   0.8792378   0.8793061   0.8742766   0.8743875
   5.9182433   6.1625987   6.1628580   6.1678900   6.1699368   5.9217093
   5.9310444   6.1670627   6.1687335   6.1677506   6.1679263   5.9334936
   5.9183253   6.1675813   6.1703367   6.1627225   6.1628242   5.9216694
   8.4872652   8.4873758   8.4930466   8.4872843   8.4936512   8.4873688
 TTTTTTTTTTTTTTTTTTTTTTTTTTTTTT MOQGAD      TELAPSE       60.33 TCPU     1610.47
 TTTTTTTTTTTTTTTTTTTTTTTTTTTTTT SHELLXN     TELAPSE       67.30 TCPU     1832.53
 TTTTTTTTTTTTTTTTTTTTTTTTTTTTTT MONMO3      TELAPSE       67.43 TCPU     1836.80
 NUMERICALLY INTEGRATED DENSITY    198.0000081839
 TTTTTTTTTTTTTTTTTTTTTTTTTTTTTT NUMDFT      TELAPSE       67.98 TCPU     1854.25
 CYC   6 ETOT(AU) -1.289110447186E+03 DETOT -1.39E-05 tst  2.61E-07 PX  9.11E-04
 TTTTTTTTTTTTTTTTTTTTTTTTTTTTTT DIIS        TELAPSE       68.05 TCPU     1856.47
 DIIS TEST: 0.28880E-04 AT SCF   CYCLE   6 - DIIS ACTIVE - HISTORY:     6 CYCLES
 TTTTTTTTTTTTTTTTTTTTTTTTTTTTTT FDIK        TELAPSE       68.55 TCPU     1872.33
 INSULATING STATE
 TOP OF VALENCE BANDS -    BAND     99; K   17; EIG -2.4408404E-01 AU
 TOP OF VALENCE BANDS -    BAND     99; K    1; EIG -2.4766420E-01 AU
 BOTTOM OF VIRTUAL BANDS - BAND    100; K    1; EIG -8.4334461E-02 AU
 INDIRECT ENERGY BAND GAP:   4.3470 eV
 TTTTTTTTTTTTTTTTTTTTTTTTTTTTTT PDIG        TELAPSE       68.84 TCPU     1878.48
 CHARGE NORMALIZATION FACTOR   1.00000000
 TOTAL ATOMIC CHARGES:
   4.4947379   4.5068621   4.5066298   4.5063458   4.5063458   4.4940111
   0.8743143   0.8744763   0.8790444   0.8793422   0.8730233   0.8730968
   0.8730629   0.8729898   0.8790536   0.8793983   0.8742559   0.8743571
   5.9203677   6.1627003   6.1627263   6.1689898   6.1684287   5.9201481
   5.9322315   6.1678036   6.1680653   6.1679705   6.1677864   5.9321984
   5.9204998   6.1688958   6.1686102   6.1626612   6.1628630   5.9200571
   8.4876221   8.4878545   8.4921670   8.4878422   8.4920965   8.4880666
 TTTTTTTTTTTTTTTTTTTTTTTTTTTTTT MOQGAD      TELAPSE       68.88 TCPU     1878.52
 TTTTTTTTTTTTTTTTTTTTTTTTTTTTTT SHELLXN     TELAPSE       75.76 TCPU     2097.96
 TTTTTTTTTTTTTTTTTTTTTTTTTTTTTT MONMO3      TELAPSE       75.90 TCPU     2102.34
 NUMERICALLY INTEGRATED DENSITY    198.0000081842
 TTTTTTTTTTTTTTTTTTTTTTTTTTTTTT NUMDFT      TELAPSE       76.46 TCPU     2120.08
 CYC   7 ETOT(AU) -1.289110453495E+03 DETOT -6.31E-06 tst  1.84E-07 PX  5.88E-04
 TTTTTTTTTTTTTTTTTTTTTTTTTTTTTT DIIS        TELAPSE       76.54 TCPU     2122.64
 DIIS TEST: 0.25881E-05 AT SCF   CYCLE   7 - DIIS ACTIVE - HISTORY:     7 CYCLES
 TTTTTTTTTTTTTTTTTTTTTTTTTTTTTT FDIK        TELAPSE       77.04 TCPU     2138.84
 INSULATING STATE
 TOP OF VALENCE BANDS -    BAND     99; K   17; EIG -2.4408881E-01 AU
 TOP OF VALENCE BANDS -    BAND     99; K    1; EIG -2.4767448E-01 AU
 BOTTOM OF VIRTUAL BANDS - BAND    100; K    1; EIG -8.4364603E-02 AU
 INDIRECT ENERGY BAND GAP:   4.3463 eV
 TTTTTTTTTTTTTTTTTTTTTTTTTTTTTT PDIG        TELAPSE       77.34 TCPU     2144.99
 CHARGE NORMALIZATION FACTOR   1.00000000
 TOTAL ATOMIC CHARGES:
   4.4947088   4.5069567   4.5067203   4.5064685   4.5064727   4.4940181
   0.8742798   0.8744350   0.8790438   0.8792748   0.8729975   0.8730234
   0.8730266   0.8729265   0.8790563   0.8793279   0.8742177   0.8743196
   5.9197617   6.1626161   6.1627515   6.1685645   6.1688537   5.9207586
   5.9317563   6.1676430   6.1683009   6.1679043   6.1679295   5.9325376
   5.9199313   6.1684517   6.1690532   6.1626293   6.1628362   5.9206310
   8.4877489   8.4879506   8.4919798   8.4879205   8.4921033   8.4881122
 TTTTTTTTTTTTTTTTTTTTTTTTTTTTTT MOQGAD      TELAPSE       77.39 TCPU     2145.03
 TTTTTTTTTTTTTTTTTTTTTTTTTTTTTT SHELLXN     TELAPSE       84.37 TCPU     2367.86
 TTTTTTTTTTTTTTTTTTTTTTTTTTTTTT MONMO3      TELAPSE       84.51 TCPU     2372.15
 NUMERICALLY INTEGRATED DENSITY    198.0000081830
 TTTTTTTTTTTTTTTTTTTTTTTTTTTTTT NUMDFT      TELAPSE       85.06 TCPU     2389.85
 CYC   8 ETOT(AU) -1.289110453838E+03 DETOT -3.43E-07 tst  1.81E-08 PX  1.60E-04
 TTTTTTTTTTTTTTTTTTTTTTTTTTTTTT DIIS        TELAPSE       85.15 TCPU     2392.48
 DIIS TEST: 0.29471E-06 AT SCF   CYCLE   8 - DIIS ACTIVE - HISTORY:     8 CYCLES
 TTTTTTTTTTTTTTTTTTTTTTTTTTTTTT FDIK        TELAPSE       85.70 TCPU     2410.19
 INSULATING STATE
 TOP OF VALENCE BANDS -    BAND     99; K   17; EIG -2.4409037E-01 AU
 TOP OF VALENCE BANDS -    BAND     99; K    1; EIG -2.4767806E-01 AU
 BOTTOM OF VIRTUAL BANDS - BAND    100; K    1; EIG -8.4364453E-02 AU
 INDIRECT ENERGY BAND GAP:   4.3464 eV
 TTTTTTTTTTTTTTTTTTTTTTTTTTTTTT PDIG        TELAPSE       86.00 TCPU     2416.35
 CHARGE NORMALIZATION FACTOR   1.00000000
 TOTAL ATOMIC CHARGES:
   4.4947703   4.5069259   4.5066893   4.5064306   4.5064357   4.4940756
   0.8742662   0.8744260   0.8790311   0.8792794   0.8729944   0.8730254
   0.8730197   0.8729324   0.8790479   0.8793282   0.8742058   0.8743091
   5.9198487   6.1626505   6.1627491   6.1686980   6.1687975   5.9205664
   5.9318675   6.1676652   6.1682695   6.1679462   6.1678769   5.9324611
   5.9199875   6.1685628   6.1690200   6.1626568   6.1628396   5.9204697
   8.4876575   8.4878595   8.4922032   8.4878332   8.4922964   8.4880242
 TTTTTTTTTTTTTTTTTTTTTTTTTTTTTT MOQGAD      TELAPSE       86.04 TCPU     2416.39
 TTTTTTTTTTTTTTTTTTTTTTTTTTTTTT SHELLXN     TELAPSE       93.00 TCPU     2638.36
 +++ ENERGIES IN A.U. +++
 ::: EXT EL-POLE                                  -1.2446553092767E+03
 ::: EXT EL-SPHEROPOLE                             1.3957702511486E+01
 ::: BIELET ZONE E-E                               2.0711361489950E+03
 ::: TOTAL E-E                                     8.4043854222980E+02
 ::: TOTAL E-N + N-E                              -3.5110288093092E+03
 ::: TOTAL N-N                                     2.3526822355887E+02
 ::: KINETIC ENERGY                                1.2799271182553E+03
 ::: PSEUDO TOTAL   ENERGY                        -1.1553949252653E+03
 ::: VIRIAL COEFFICIENT                            1.0511358213676E+00
 TTTTTTTTTTTTTTTTTTTTTTTTTTTTTT MONMO3      TELAPSE       93.14 TCPU     2642.72
 NUMERICALLY INTEGRATED DENSITY    198.0000081831
 EXCHANGE ENERGY: -0.126026021554E+03  CORRELATION ENERGY: -0.768950710424E+01
 TTTTTTTTTTTTTTTTTTTTTTTTTTTTTT NUMDFT      TELAPSE       93.69 TCPU     2660.46
 CYC   9 ETOT(AU) -1.289110453923E+03 DETOT -8.50E-08 tst  8.83E-10 PX  1.60E-04

 == SCF ENDED - CONVERGENCE ON ENERGY      E(AU) -1.2891104539233E+03 CYCLES   9


 ENERGY EXPRESSION=HARTREE+FOCK EXCH*0.00000+(HSESOL     EXCH)*1.00000+PBESOL     CORR


 TOTAL ENERGY(DFT)(AU)(  9) -1.2891104539233E+03 DE-8.5E-08 tester 8.8E-10
 TTTTTTTTTTTTTTTTTTTTTTTTTTTTTT EDFT        TELAPSE       93.69 TCPU     2660.46
 
 INFORMATION **** DFTD3 ENERGY **** CALCULATE DFTD3 ENERGY

           DFT-D V3(BJ)
 DF                                         hsesol3c  
 parameters
 s6       :    1.0000
 s8       :    0.0000
 a1       :    0.5196
 a2       :    4.9385
 k1 k3    :   16.0000   -4.0000
 Cutoff   :   50.2022
 CN-Cutoff:   21.1671
 ABC-Cutoff:   21.1671
 
 Edisp /kcal,au:   -24.3690 -0.03883449

 E6    /kcal :   -25.8280
 E8    /kcal :     0.0000
 E6(ABC) "   :   1.458943
 
 INFORMATION **** DFTD3 ENERGY **** NORMAL TERMINATION OF DFTD3 MODULE

 GCP ENERGY CALCULATION
  level        hsesol3c            basis:hsesol3c
  Nbf            474
  Atoms           42

  Parameters: 
  sigma     1.0000
  eta       1.4281
  alpha     0.2936
  beta      1.9467

  dmp_scal      4.0000
  dmp_exp       6.0000
 cutoffs: 
   distance [bohr] 60.0
   noise    [a.u.] 2.2E-16
 SR-damping   T
 ** gCP correction **
  Egcp:        0.0829411292 / (a.u.) ||      52.0463 / (kcal/mol)
 INFORMATION **** GCP **** NORMAL TERMINATION OF GCP MODULE

 *******************************************************************************

 DFT-D3-GCP DISPERSION AND COUNTERPOISE CORRECTION

 D3 DISPERSION ENERGY (AU)      -3.8834492505569E-02
 GCP ENERGY (AU)                 8.2941129187778E-02
 TOTAL ENERGY + DISP + GCP (AU) -1.2890663472867E+03

 *******************************************************************************

 EIGENVECTORS IN FORTRAN UNIT 10
 TTTTTTTTTTTTTTTTTTTTTTTTTTTTTT END         TELAPSE       94.78 TCPU     2667.53
 EEEEEEEEEE TERMINATION  DATE 19 02 2026 TIME 19:11:17.5
