 Default number of threads is:           32

         
 *******************************************************************************
 *                                                                             *
 *                               CRYSTAL23                                     *
 *                      public : 1.0.1 - October 2022                          *
 *                       HTTP://WWW.CRYSTAL.UNITO.IT                           *
 *                                                                             *
 *                              MAIN AUTHORS                                   *
 *                                                                             *
 *  R. DOVESI(1,11), V.R. SAUNDERS(2), C. ROETTI(1,11), R. ORLANDO(1,11),      *
 *  C.M. ZICOVICH-WILSON(1,3), F. PASCALE(4), B. CIVALLERI(1,11),              *
 *  K. DOLL(5), N.M. HARRISON(6), I.J. BUSH(7), Ph. D'ARCO(8),                 *
 *  M. LLUNELL(9), M. CAUSA'(10), Y. NOEL(8), L. MASCHIO(1,11), A. ERBA(1,11)  *
 *  M. RE'RAT(14), S. CASASSA(1,11), B.G. SEARLE(2), J.K. DESMARAIS(1)         *
 *                                                                             *
 *        CONTRIBUTIONS TO THE CODE HAVE ALSO BEEN GIVEN BY                    *
 *                                                                             *
 *  M. FERRABONE(1,11), M. DE LA PIERRE(1,11), M. FERRERO(1,11),               *
 *  J. BAIMA(1,11), E. ALBANESE(1,11), M.F. PEINTINGER(12), R. BAST(13),       *
 *  B. KIRTMAN(15), V. LACIVITA(1,11), R. DEMICHELIS(1,16)                     *
 *  G. BRANDEBURG(17), S. SALUSTRO(1,11), G. SANSONE(1,11)                     *
 *  M.T. RUGGIERO(18), L.E. DAGA(1), L. DONA'(1), A. COSSARD(1)                *
 *                                                                             *
 * (1) THEORETICAL CHEMISTRY GROUP - UNIVERSITA' DI TORINO - TORINO (ITALY)    *
 * (2) SCIENTIFIC COMPUTING DEPARTMENT - STFC DARESBURY (UK)                   *
 * (3) UNIVERSIDAD AUTONOMA DEL ESTADO DE MORELOS - CUERNAVACA (MEXICO)        *
 * (4) UNIVERSITE' DE LORRAINE - NANCY (FRANCE)                                *
 * (5) UNIVERSITAET STUTTGART- STUTTGART (GERMANY)                             *
 * (6) IMPERIAL COLLEGE - LONDON (UK)                                          *
 * (7) SCIENTIFIC COMPUTING DEPARTMENT - STFC RAL (UK)                         *
 * (8) UPMC - SORBONNE UNIVERSITES - PARIS (FRANCE)                            *
 * (9) UNIVERSIDAD DE BARCELONA - BARCELONA (SPAIN)                            *
 *(10) UNIVERSITA' DI NAPOLI "FEDERICO II" - NAPOLI (ITALY)                    *
 *(11) NIS - NANOSTRUCTURED INTERFACES AND SURFACES - TORINO (ITALY)           *
 *(12) MPI FUER CHEMISCHE ENERGIEKONVERSION - MUELHEIM AN DER RUHR (GERMANY)   *
 *(13) UNIVERSITY OF TROMSO - TROMSO (NORWAY)                                  *
 *(14) UNIVERSITE' DE PAU ET DES PAYS DE L'ADOUR - PAU (FRANCE)                *
 *(15) UNIVERSITY OF CALIFORNIA SANTA BARBARA - SANTA BARBARA (USA)            *
 *(16) CURTIN UNIVERSITY - PERTH (AUSTRALIA)                                   *
 *(17) UNIVERSITY COLLEGE LONDON - LONDON (UK)                                 *
 *(18) UNIVERSITY OF VERMONT - BURLINGTON (USA)                                *
 *                                                                             *
 *******************************************************************************
 EEEEEEEEEE STARTING  DATE 02 12 2025 TIME 07:56:05.9
 COF-5_z32_inc_L010                                                              

 CRYSTAL CALCULATION
 (INPUT ACCORDING TO THE INTERNATIONAL TABLES FOR X-RAY CRYSTALLOGRAPHY)
 CRYSTAL FAMILY                       :  TRICLINIC   
 CRYSTAL CLASS  (GROTH - 1921)        :  TRICLINIC PEDIAL                     

 SPACE GROUP (NONCENTROSYMMETRIC)     :  P 1             

 LATTICE PARAMETERS  (ANGSTROMS AND DEGREES) - CONVENTIONAL CELL
        A           B           C        ALPHA        BETA       GAMMA
    15.02070    15.04439     3.35261    75.04144    89.99932   120.05310


 NUMBER OF IRREDUCIBLE ATOMS IN THE CONVENTIONAL CELL:   42

 INPUT COORDINATES

 ATOM AT. N.              COORDINATES
   1   5     5.963313300000E-01  1.896273000000E-01  5.006608200000E-01
   2   5     7.551103500000E-01  3.486532600000E-01  5.006708100000E-01
   3   5     5.959337200000E-01  3.484504600000E-01  4.992408200000E-01
   4   5     2.093201500000E-01  5.755430000000E-01  5.054558900000E-01
   5   5     3.677389700000E-01  5.747316300000E-01  5.094998500000E-01
   6   5     3.682413100000E-01  7.345282700000E-01  5.035341200000E-01
   7   1     8.849861700000E-01  2.708014600000E-01  5.045592800000E-01
   8   1     7.988054000000E-02  6.535829200000E-01  4.929687700000E-01
   9   1     8.855035900000E-01  5.562940600000E-01  4.928304800000E-01
  10   1     7.944216000000E-02  3.680483500000E-01  5.041278500000E-01
  11   1     5.749769200000E-01  8.645057300000E-01  5.042499100000E-01
  12   1     3.892089400000E-01  6.065359000000E-02  4.946010200000E-01
  13   1     2.908183100000E-01  8.668413900000E-01  4.959078900000E-01
  14   1     6.731501900000E-01  5.833869000000E-02  5.023885600000E-01
  15   1     5.748226400000E-01  6.523364800000E-01  4.978053900000E-01
  16   1     3.871933100000E-01  2.700872200000E-01  5.060886500000E-01
  17   1     2.898433200000E-01  3.660367100000E-01  5.057237700000E-01
  18   1     6.725780900000E-01  5.564055600000E-01  4.987388600000E-01
  19   6     8.744124900000E-01  4.081015400000E-01  5.004208200000E-01
  20   6     9.288686700000E-01  3.547894400000E-01  5.021869300000E-01
  21   6     3.613200000000E-02  5.696166900000E-01  4.957939400000E-01
  22   6     9.291405300000E-01  5.160658900000E-01  4.961311100000E-01
  23   6     3.592410000000E-02  4.084038200000E-01  5.015432100000E-01
  24   6     9.050950000000E-02  5.162435900000E-01  4.993599200000E-01
  25   6     4.272672400000E-01  8.540296600000E-01  5.019023000000E-01
  26   6     5.351254700000E-01  9.084817300000E-01  5.022924800000E-01
  27   6     4.288692400000E-01  1.643201000000E-02  4.970160400000E-01
  28   6     3.747078300000E-01  9.093908800000E-01  4.981347300000E-01
  29   6     5.892641400000E-01  1.545865000000E-02  5.008550600000E-01
  30   6     5.366472300000E-01  7.057662000000E-02  4.992307800000E-01
  31   6     4.269410800000E-01  5.151221000000E-01  5.000020000000E-01
  32   6     5.348115100000E-01  5.684194400000E-01  4.994505100000E-01
  33   6     4.277997000000E-01  3.540426100000E-01  5.039741100000E-01
  34   6     3.739216500000E-01  4.071349000000E-01  5.033661600000E-01
  35   6     5.885890100000E-01  5.152828500000E-01  5.003888900000E-01
  36   6     5.357865600000E-01  4.074641700000E-01  5.016307500000E-01
  37   8     5.432542800000E-01  2.425218500000E-01  4.996306900000E-01
  38   8     7.022985500000E-01  2.425894400000E-01  5.026207700000E-01
  39   8     7.020810800000E-01  4.016803200000E-01  4.981010000000E-01
  40   8     2.622623300000E-01  6.816111300000E-01  5.027674500000E-01
  41   8     2.617341300000E-01  5.219744700000E-01  5.102553000000E-01
  42   8     4.209756200000E-01  6.811316600000E-01  5.052392200000E-01

 *******************************************************************************

 << INFORMATION >>: FROM NOW ON, ALL COORDINATES REFER TO THE PRIMITIVE CELL

 *******************************************************************************

 LATTICE PARAMETERS  (ANGSTROMS AND DEGREES) - PRIMITIVE CELL
       A          B          C        ALPHA      BETA     GAMMA        VOLUME
   15.02070   15.04439    3.35261    75.04144  89.99932 120.05310    625.922754

 COORDINATES OF THE EQUIVALENT ATOMS (FRACTIONAL UNITS)

 N. ATOM EQUIV AT. N.          X                  Y                  Z

   1   1   1    5 B    -4.03668670000E-01  1.89627300000E-01 -4.99339180000E-01

   2   2   1    5 B    -2.44889650000E-01  3.48653260000E-01 -4.99329190000E-01

   3   3   1    5 B    -4.04066280000E-01  3.48450460000E-01  4.99240820000E-01

   4   4   1    5 B     2.09320150000E-01 -4.24457000000E-01 -4.94544110000E-01

   5   5   1    5 B     3.67738970000E-01 -4.25268370000E-01 -4.90500150000E-01

   6   6   1    5 B     3.68241310000E-01 -2.65471730000E-01 -4.96465880000E-01

   7   7   1    1 H    -1.15013830000E-01  2.70801460000E-01 -4.95440720000E-01

   8   8   1    1 H     7.98805400000E-02 -3.46417080000E-01  4.92968770000E-01

   9   9   1    1 H    -1.14496410000E-01 -4.43705940000E-01  4.92830480000E-01

  10  10   1    1 H     7.94421600000E-02  3.68048350000E-01 -4.95872150000E-01

  11  11   1    1 H    -4.25023080000E-01 -1.35494270000E-01 -4.95750090000E-01

  12  12   1    1 H     3.89208940000E-01  6.06535900000E-02  4.94601020000E-01

  13  13   1    1 H     2.90818310000E-01 -1.33158610000E-01  4.95907890000E-01

  14  14   1    1 H    -3.26849810000E-01  5.83386900000E-02 -4.97611440000E-01

  15  15   1    1 H    -4.25177360000E-01 -3.47663520000E-01  4.97805390000E-01

  16  16   1    1 H     3.87193310000E-01  2.70087220000E-01 -4.93911350000E-01

  17  17   1    1 H     2.89843320000E-01  3.66036710000E-01 -4.94276230000E-01

  18  18   1    1 H    -3.27421910000E-01 -4.43594440000E-01  4.98738860000E-01

  19  19   1    6 C    -1.25587510000E-01  4.08101540000E-01 -4.99579180000E-01

  20  20   1    6 C    -7.11313300000E-02  3.54789440000E-01 -4.97813070000E-01

  21  21   1    6 C     3.61320000000E-02 -4.30383310000E-01  4.95793940000E-01

  22  22   1    6 C    -7.08594700000E-02 -4.83934110000E-01  4.96131110000E-01

  23  23   1    6 C     3.59241000000E-02  4.08403820000E-01 -4.98456790000E-01

  24  24   1    6 C     9.05095000000E-02 -4.83756410000E-01  4.99359920000E-01

  25  25   1    6 C     4.27267240000E-01 -1.45970340000E-01 -4.98097700000E-01

  26  26   1    6 C    -4.64874530000E-01 -9.15182700000E-02 -4.97707520000E-01

  27  27   1    6 C     4.28869240000E-01  1.64320100000E-02  4.97016040000E-01

  28  28   1    6 C     3.74707830000E-01 -9.06091200000E-02  4.98134730000E-01

  29  29   1    6 C    -4.10735860000E-01  1.54586500000E-02 -4.99144940000E-01

  30  30   1    6 C    -4.63352770000E-01  7.05766200000E-02  4.99230780000E-01

  31  31   1    6 C     4.26941080000E-01 -4.84877900000E-01 -4.99998000000E-01

  32  32   1    6 C    -4.65188490000E-01 -4.31580560000E-01  4.99450510000E-01

  33  33   1    6 C     4.27799700000E-01  3.54042610000E-01 -4.96025890000E-01

  34  34   1    6 C     3.73921650000E-01  4.07134900000E-01 -4.96633840000E-01

  35  35   1    6 C    -4.11410990000E-01 -4.84717150000E-01 -4.99611110000E-01

  36  36   1    6 C    -4.64213440000E-01  4.07464170000E-01 -4.98369250000E-01

  37  37   1    8 O    -4.56745720000E-01  2.42521850000E-01  4.99630690000E-01

  38  38   1    8 O    -2.97701450000E-01  2.42589440000E-01 -4.97379230000E-01

  39  39   1    8 O    -2.97918920000E-01  4.01680320000E-01  4.98101000000E-01

  40  40   1    8 O     2.62262330000E-01 -3.18388870000E-01 -4.97232550000E-01

  41  41   1    8 O     2.61734130000E-01 -4.78025530000E-01 -4.89744700000E-01

  42  42   1    8 O     4.20975620000E-01 -3.18868340000E-01 -4.94760780000E-01

 NUMBER OF SYMMETRY OPERATORS         :    1
 *******************************************************************************
 * GEOMETRY EDITING - INPUT COORDINATES ARE GIVEN IN ANGSTROM         
 *******************************************************************************

 GCALCO - MAX INDICES DIRECT LATTICE VECTOR     9     9    38
 NO.OF VECTORS CREATED 6999 STARS 3500 RMAX   192.05276 BOHR

 GEOMETRY FOR WAVE FUNCTION - DIMENSIONALITY OF THE SYSTEM    3
 (NON PERIODIC DIRECTION: LATTICE PARAMETER FORMALLY SET TO 500)
 *******************************************************************************
 LATTICE PARAMETERS (ANGSTROMS AND DEGREES) - BOHR = 0.5291772083 ANGSTROM
 PRIMITIVE CELL - CENTRING CODE 1/0 VOLUME=   625.922754 - DENSITY  1.035 g/cm^3
         A              B              C           ALPHA      BETA       GAMMA 
    15.02070100    15.04438700     3.35261100    75.041442  89.999319 120.053104
 *******************************************************************************
 ATOMS IN THE ASYMMETRIC UNIT   42 - ATOMS IN THE UNIT CELL:   42
     ATOM                 X/A                 Y/B                 Z/C    
 *******************************************************************************
      1 T   5 B    -4.036686700000E-01  1.896273000000E-01 -4.993391800000E-01
      2 T   5 B    -2.448896500000E-01  3.486532600000E-01 -4.993291900000E-01
      3 T   5 B    -4.040662800000E-01  3.484504600000E-01  4.992408200000E-01
      4 T   5 B     2.093201500000E-01 -4.244570000000E-01 -4.945441100000E-01
      5 T   5 B     3.677389700000E-01 -4.252683700000E-01 -4.905001500000E-01
      6 T   5 B     3.682413100000E-01 -2.654717300000E-01 -4.964658800000E-01
      7 T   1 H    -1.150138300000E-01  2.708014600000E-01 -4.954407200000E-01
      8 T   1 H     7.988054000000E-02 -3.464170800000E-01  4.929687700000E-01
      9 T   1 H    -1.144964100000E-01 -4.437059400000E-01  4.928304800000E-01
     10 T   1 H     7.944216000000E-02  3.680483500000E-01 -4.958721500000E-01
     11 T   1 H    -4.250230800000E-01 -1.354942700000E-01 -4.957500900000E-01
     12 T   1 H     3.892089400000E-01  6.065359000000E-02  4.946010200000E-01
     13 T   1 H     2.908183100000E-01 -1.331586100000E-01  4.959078900000E-01
     14 T   1 H    -3.268498100000E-01  5.833869000000E-02 -4.976114400000E-01
     15 T   1 H    -4.251773600000E-01 -3.476635200000E-01  4.978053900000E-01
     16 T   1 H     3.871933100000E-01  2.700872200000E-01 -4.939113500000E-01
     17 T   1 H     2.898433200000E-01  3.660367100000E-01 -4.942762300000E-01
     18 T   1 H    -3.274219100000E-01 -4.435944400000E-01  4.987388600000E-01
     19 T   6 C    -1.255875100000E-01  4.081015400000E-01 -4.995791800000E-01
     20 T   6 C    -7.113133000000E-02  3.547894400000E-01 -4.978130700000E-01
     21 T   6 C     3.613200000000E-02 -4.303833100000E-01  4.957939400000E-01
     22 T   6 C    -7.085947000000E-02 -4.839341100000E-01  4.961311100000E-01
     23 T   6 C     3.592410000000E-02  4.084038200000E-01 -4.984567900000E-01
     24 T   6 C     9.050950000000E-02 -4.837564100000E-01  4.993599200000E-01
     25 T   6 C     4.272672400000E-01 -1.459703400000E-01 -4.980977000000E-01
     26 T   6 C    -4.648745300000E-01 -9.151827000000E-02 -4.977075200000E-01
     27 T   6 C     4.288692400000E-01  1.643201000000E-02  4.970160400000E-01
     28 T   6 C     3.747078300000E-01 -9.060912000000E-02  4.981347300000E-01
     29 T   6 C    -4.107358600000E-01  1.545865000000E-02 -4.991449400000E-01
     30 T   6 C    -4.633527700000E-01  7.057662000000E-02  4.992307800000E-01
     31 T   6 C     4.269410800000E-01 -4.848779000000E-01 -4.999980000000E-01
     32 T   6 C    -4.651884900000E-01 -4.315805600000E-01  4.994505100000E-01
     33 T   6 C     4.277997000000E-01  3.540426100000E-01 -4.960258900000E-01
     34 T   6 C     3.739216500000E-01  4.071349000000E-01 -4.966338400000E-01
     35 T   6 C    -4.114109900000E-01 -4.847171500000E-01 -4.996111100000E-01
     36 T   6 C    -4.642134400000E-01  4.074641700000E-01 -4.983692500000E-01
     37 T   8 O    -4.567457200000E-01  2.425218500000E-01  4.996306900000E-01
     38 T   8 O    -2.977014500000E-01  2.425894400000E-01 -4.973792300000E-01
     39 T   8 O    -2.979189200000E-01  4.016803200000E-01  4.981010000000E-01
     40 T   8 O     2.622623300000E-01 -3.183888700000E-01 -4.972325500000E-01
     41 T   8 O     2.617341300000E-01 -4.780255300000E-01 -4.897447000000E-01
     42 T   8 O     4.209756200000E-01 -3.188683400000E-01 -4.947607800000E-01

 T = ATOM BELONGING TO THE ASYMMETRIC UNIT

 ****    1 SYMMOPS - TRANSLATORS IN FRACTIONAL UNITS
 **** MATRICES AND TRANSLATORS IN THE CRYSTALLOGRAPHIC REFERENCE FRAME
   V INV                    ROTATION MATRICES                   TRANSLATORS
   1   1  1.00  0.00  0.00  0.00  1.00  0.00  0.00  0.00  1.00  0.00  0.00  0.00

 DIRECT LATTICE VECTORS CARTESIAN COMPONENTS (ANGSTROM)
          X                    Y                    Z
   0.130013421718E+02  -0.752240388864E+01   0.000000000000E+00
   0.000000000000E+00   0.150443870000E+02   0.000000000000E+00
   0.500741696622E+00   0.865377037366E+00   0.320005950785E+01


 CARTESIAN COORDINATES - PRIMITIVE CELL
 *******************************************************************************
 *      ATOM          X(ANGSTROM)         Y(ANGSTROM)         Z(ANGSTROM)
 *******************************************************************************
    1     5 B    -5.498274450878E+00  5.457268599667E+00 -1.597915090601E+00
    2     5 B    -3.433929079749E+00  6.655325412587E+00 -1.597883122007E+00
    3     5 B     7.497187204026E+00  3.260239422449E-01 -1.602459175102E+00
    4     5 B     2.473804036901E+00  6.656133800051E+00 -1.582570581257E+00
    5     5 B     4.535486301561E+00  5.455736438293E+00 -1.569629668610E+00
    6     5 B    -7.961570369126E+00  1.194231447638E+00  1.611339148233E+00
    7     1 H    -1.743421985025E+00  4.510479423981E+00 -1.585439786612E+00
    8     1 H     1.285404251677E+00 -5.385922445956E+00  1.577529399512E+00
    9     1 H    -1.241826233148E+00 -5.387511455033E+00  1.577086863283E+00
   10     1 H     7.845508433263E-01  4.510349426726E+00 -1.586820388286E+00
   11     1 H    -5.273371538526E+00  1.595133328800E+00  1.613629718828E+00
   12     1 H     4.807164262537E+00 -2.452651434851E+00 -1.617306811207E+00
   13     1 H     4.029350116334E+00 -3.761795146600E+00  1.586934758413E+00
   14     1 H    -4.498661015313E+00  2.905744597472E+00 -1.592386219787E+00
   15     1 H    -5.278604425475E+00 -1.601239360853E+00  1.593006871329E+00
   16     1 H     4.786710702552E+00  7.232526598495E-01 -1.580545711603E+00
   17     1 H     3.520847461513E+00  2.898744104424E+00 -1.581713349316E+00
   18     1 H    -4.007184943518E+00 -3.779009420312E+00  1.595994030878E+00
   19     6 C    -1.882966316201E+00  6.652033125927E+00 -1.598683104883E+00
   20     6 C    -1.174078521736E+00  5.441872232591E+00 -1.593031447786E+00
   21     6 C     7.180291940410E-01 -6.317603880344E+00  1.586570111632E+00
   22     6 C    -6.728346818123E-01 -6.318118010549E+00  1.587649075696E+00
   23     6 C     2.174634175957E-01  5.442596470637E+00 -1.595091390092E+00
   24     6 C     9.260536162401E-01  6.652476910253E+00 -1.602078048015E+00
   25     6 C    -7.194971176504E+00  2.546627580916E+00  1.606117227127E+00
   26     6 C    -5.792474042837E+00  2.554810078986E+00  1.607365826346E+00
   27     6 C     5.324010694685E+00 -3.414188890214E+00 -1.609578603494E+00
   28     6 C     5.121141542119E+00 -3.750787947650E+00  1.594060778927E+00
   29     6 C    -5.590060142194E+00  2.890338374173E+00 -1.597293511043E+00
   30     6 C    -6.274963937848E+00  4.113954479285E+00 -1.602491303700E+00
   31     6 C     5.300437221439E+00  4.105386196311E+00 -1.600023353806E+00
   32     6 C    -5.797979037105E+00 -2.561316257534E+00  1.598271353226E+00
   33     6 C     5.313589434955E+00  1.679022497345E+00 -1.587312365435E+00
   34     6 C     4.612798045443E+00  2.882529801684E+00 -1.589257841612E+00
   35     6 C    -5.098329472469E+00 -3.764447703972E+00  1.601274225067E+00
   36     6 C     6.716390133808E+00  1.668368454608E+00 -1.594811256883E+00
   37     8 O     6.812479003334E+00 -8.709936521141E-01 -1.601211567902E+00
   38     8 O    -4.119576935978E+00  5.458619398103E+00 -1.591643133969E+00
   39     8 O    -3.623925878536E+00 -6.329241205639E+00  1.593952840920E+00
   40     8 O     3.661518917016E+00 -6.327725141444E+00  1.608885758610E+00
   41     8 O     3.157659390172E+00  5.460102275946E+00 -1.567212183654E+00
   42     8 O    -7.275099745956E+00 -4.301041912329E-03  1.616795569700E+00

 *******************************************************************************
 STARTING BASIS SET HANDLING 
 *******************************************************************************

 Loading internal basis set: SOLDEF2MSVP         

 Please cite in your publication:
 L. Dona', J. G. Brandenburg and B. Civalleri, J. Chem. Phys., 151, 121101 (2019
 )                                                                              
                                                                                
                    

 *******************************************************************************
 LOCAL ATOMIC FUNCTIONS BASIS SET
 *******************************************************************************
   ATOM   X(AU)   Y(AU)   Z(AU)  N. TYPE  EXPONENT  S COEF   P COEF   D/F/G COEF
 *******************************************************************************
   1 B  -10.390  10.313  -3.020
                                  1 S  
                                         2.410E+03 1.755E-03 0.000E+00 0.000E+00
                                         3.619E+02 1.344E-02 0.000E+00 0.000E+00
                                         8.231E+01 6.637E-02 0.000E+00 0.000E+00
                                         2.311E+01 2.303E-01 0.000E+00 0.000E+00
                                         7.252E+00 5.150E-01 0.000E+00 0.000E+00
                                  2 S  
                                         2.367E+00 1.000E+00 0.000E+00 0.000E+00
                                  3 S  
                                         5.533E-01 1.000E+00 0.000E+00 0.000E+00
                                  4 S  
                                         1.716E-01 1.000E+00 0.000E+00 0.000E+00
                           5-     7 P  
                                         6.002E+00 0.000E+00-3.555E-02 0.000E+00
                                         1.240E+00 0.000E+00-1.983E-01 0.000E+00
                                         3.367E-01 0.000E+00-5.048E-01 0.000E+00
                           8-    10 P  
                                         1.256E-01 0.000E+00 1.000E+00 0.000E+00
                          11-    15 D  
                                         8.880E-01 0.000E+00 0.000E+00 1.000E+00
   2 B   -6.489  12.577  -3.020
   3 B   14.168   0.616  -3.028
   4 B    4.675  12.578  -2.991
   5 B    8.571  10.310  -2.966
   6 B  -15.045   2.257   3.045
   7 H   -3.295   8.524  -2.996
                                 91 S  
                                         1.874E+01 1.968E-02 0.000E+00 0.000E+00
                                         2.826E+00 1.380E-01 0.000E+00 0.000E+00
                                         6.401E-01 4.783E-01 0.000E+00 0.000E+00
                                 92 S  
                                         1.756E-01 1.000E+00 0.000E+00 0.000E+00
   8 H    2.429 -10.178   2.981
   9 H   -2.347 -10.181   2.980
  10 H    1.483   8.523  -2.999
  11 H   -9.965   3.014   3.049
  12 H    9.084  -4.635  -3.056
  13 H    7.614  -7.109   2.999
  14 H   -8.501   5.491  -3.009
  15 H   -9.975  -3.026   3.010
  16 H    9.046   1.367  -2.987
  17 H    6.653   5.478  -2.989
  18 H   -7.572  -7.141   3.016
  19 C   -3.558  12.571  -3.021
                                115 S  
                                         3.624E+03 1.634E-03 0.000E+00 0.000E+00
                                         5.440E+02 1.252E-02 0.000E+00 0.000E+00
                                         1.237E+02 6.211E-02 0.000E+00 0.000E+00
                                         3.476E+01 2.182E-01 0.000E+00 0.000E+00
                                         1.093E+01 4.980E-01 0.000E+00 0.000E+00
                                116 S  
                                         3.574E+00 1.000E+00 0.000E+00 0.000E+00
                                117 S  
                                         7.742E-01 1.000E+00 0.000E+00 0.000E+00
                                118 S  
                                         2.330E-01 1.000E+00 0.000E+00 0.000E+00
                         119-   121 P  
                                         9.443E+00 0.000E+00 3.790E-02 0.000E+00
                                         2.002E+00 0.000E+00 2.082E-01 0.000E+00
                                         5.463E-01 0.000E+00 5.047E-01 0.000E+00
                         122-   124 P  
                                         1.820E-01 0.000E+00 1.000E+00 0.000E+00
                         125-   129 D  
                                         8.880E-01 0.000E+00 0.000E+00 1.000E+00
  20 C   -2.219  10.284  -3.010
  21 C    1.357 -11.939   2.998
  22 C   -1.271 -11.940   3.000
  23 C    0.411  10.285  -3.014
  24 C    1.750  12.571  -3.027
  25 C  -13.597   4.812   3.035
  26 C  -10.946   4.828   3.037
  27 C   10.061  -6.452  -3.042
  28 C    9.678  -7.088   3.012
  29 C  -10.564   5.462  -3.018
  30 C  -11.858   7.774  -3.028
  31 C   10.016   7.758  -3.024
  32 C  -10.957  -4.840   3.020
  33 C   10.041   3.173  -3.000
  34 C    8.717   5.447  -3.003
  35 C   -9.634  -7.114   3.026
  36 C   12.692   3.153  -3.014
  37 O   12.874  -1.646  -3.026
                                385 S  
                                         6.773E+03 1.727E-03 0.000E+00 0.000E+00
                                         1.017E+03 1.325E-02 0.000E+00 0.000E+00
                                         2.313E+02 6.603E-02 0.000E+00 0.000E+00
                                         6.501E+01 2.353E-01 0.000E+00 0.000E+00
                                         2.050E+01 5.498E-01 0.000E+00 0.000E+00
                                386 S  
                                         6.716E+00 1.000E+00 0.000E+00 0.000E+00
                                387 S  
                                         1.147E+00 1.000E+00 0.000E+00 0.000E+00
                                388 S  
                                         3.342E-01 1.000E+00 0.000E+00 0.000E+00
                         389-   391 P  
                                         1.769E+01 0.000E+00 4.359E-02 0.000E+00
                                         3.854E+00 0.000E+00 2.318E-01 0.000E+00
                                         1.047E+00 0.000E+00 5.146E-01 0.000E+00
                         392-   394 P  
                                         2.759E-01 0.000E+00 1.000E+00 0.000E+00
                         395-   399 D  
                                         8.000E-01 0.000E+00 0.000E+00 1.000E+00
  38 O   -7.785  10.315  -3.008
  39 O   -6.848 -11.961   3.012
  40 O    6.919 -11.958   3.040
  41 O    5.967  10.318  -2.962
  42 O  -13.748  -0.008   3.055

 *******************************************************************************
 FINISHED BASIS SET HANDLING 
 *******************************************************************************

 INFORMATION **** SET_MPP **** PCRYSTAL CALCULATION
 INFORMATION **** READM2 **** NEW DEFAULT: FOCK/KS MATRIX MIXING SET TO 30 %
 INFORMATION **** READM2 **** NEW DEFAULT: FULL DIRECT SCF MODE
 INFORMATION **** READM2 **** NEW DEFAULT: COULOMB BIPOLAR BUFFER SET TO 32 Mb
 INFORMATION **** READM2 **** NEW DEFAULT: EXCHANGE BIPOLAR BUFFER SET TO 32 Mb

 *******************************************************************************
 NEW DEFAULT: DFT INTEGRATION GRID INCREASED TO XLGRID
 NEW DEFAULT: DIIS ACCELERATOR ACTIVE
 USE KEYWORD NODIIS TO TURN IT OFF
 *******************************************************************************

 WARNING **** RDDFTP **** HSEsol-HJS ACTIVE
 RANGE SEPARATION - OMEGA:   0.110000000000000     
 WARNING **** RDDFTP **** HSEsol-3c has to be combined with sol-def2-mSVP basis set
 *******************************************************************************
 N. OF ATOMS PER CELL        42  COULOMB OVERLAP TOL         (T1) 10**   -6
 NUMBER OF SHELLS           234  COULOMB PENETRATION TOL     (T2) 10**   -6
 NUMBER OF AO               474  EXCHANGE OVERLAP TOL        (T3) 10**   -6
 N. OF ELECTRONS PER CELL   198  EXCHANGE PSEUDO OVP (F(G))  (T4) 10**   -6
 CORE ELECTRONS PER CELL     60  EXCHANGE PSEUDO OVP (P(G))  (T5) 10**  -12
 N. OF SYMMETRY OPERATORS     1  POLE ORDER IN MONO ZONE                  4
 *******************************************************************************
 TYPE OF CALCULATION :  RESTRICTED CLOSED SHELL
 KOHN-SHAM HAMILTONIAN

 (EXCHANGE)[CORRELATION] FUNCTIONAL:(HSEsol GGA)[PBEsol]

 RANGE-SEPARATED HYBRID FUNCTIONAL 
 OMEGA (SHORT-RANGE)[LONG-RANGE]:(    0.1100)[    0.0000]

 HYBRID EXCHANGE - PERCENTAGE OF FOCK EXCHANGE    25.0000

 CAPPA:IS1  2;IS2  2;IS3  8; K PTS MONK NET  20; SYMMOPS:K SPACE   2;G SPACE   1

 *******************************************************************************
 MAX NUMBER OF SCF CYCLES      50  CONVERGENCE ON DELTAP        10**-16
 WEIGHT OF F(I) IN F(I+1)      30% CONVERGENCE ON ENERGY        10**- 6
 SHRINK. FACT.(MONKH.)    2  2  8  NUMBER OF K POINTS IN THE IBZ     20
 SHRINKING FACTOR(GILAT NET)    8  NUMBER OF K POINTS(GILAT NET)   1028
 *******************************************************************************
 *** K POINTS COORDINATES (OBLIQUE COORDINATES IN UNITS OF IS =  2)
   1-R(  0  0  0)   2-R(  1  0  0)   3-R(  0  1  0)   4-R(  1  1  0)
   5-C(  0  0  1)   6-C(  1  0  1)   7-C(  0  1  1)   8-C(  1  1  1)
   9-C(  0  0  2)  10-C(  1  0  2)  11-C(  0  1  2)  12-C(  1  1  2)
  13-C(  0  0  3)  14-C(  1  0  3)  15-C(  0  1  3)  16-C(  1  1  3)
  17-R(  0  0  4)  18-R(  1  0  4)  19-R(  0  1  4)  20-R(  1  1  4)

 DIRECT LATTICE VECTORS COMPON. (A.U.)     RECIP. LATTICE VECTORS COMPON. (A.U.) 
        X            Y            Z              X            Y            Z
   24.5689761  -14.2152832    0.0000000      0.2557366    0.0000000   -0.0400174
    0.0000000   28.4297713    0.0000000      0.1278719    0.2210072   -0.0797752
    0.9462647    1.6353256    6.0472361      0.0000000    0.0000000    1.0390177

 DISK SPACE FOR EIGENVECTORS (FTN 10)     7189632 REALS

 SYMMETRY ADAPTION OF THE BLOCH FUNCTIONS DISABLED
 TTTTTTTTTTTTTTTTTTTTTTTTTTTTTT gordsh1     TELAPSE        0.04 TCPU        0.04

 MATRIX SIZE: P(G)  422316, F(G)   86015, P(G) IRR  213669, F(G) IRR   86855
 MAX G-VECTOR INDEX FOR 1- AND 2-ELECTRON INTEGRALS 111

 TTTTTTTTTTTTTTTTTTTTTTTTTTTTTT INPUT       TELAPSE        0.29 TCPU        0.29

 NEIGHBORS OF THE NON-EQUIVALENT ATOMS

 N = NUMBER OF NEIGHBORS AT DISTANCE R
    ATOM  N     R/ANG      R/AU   NEIGHBORS (ATOM LABELS AND CELL INDICES)
   1 B    1     1.3787     2.6054   38 O    0 0 0
   1 B    1     1.3795     2.6068   37 O   -1 0 0
   1 B    1     1.5517     2.9323   30 C    0 0 0
   1 B    1     2.3868     4.5104    2 B    0 0 0
   1 B    1     2.3912     4.5187    3 B   -1 0 0
   1 B    1     2.5629     4.8431   27 C   -1 0 0

   2 B    1     1.3792     2.6064   38 O    0 0 0
   2 B    1     1.3798     2.6075   39 O    0 1-1
   2 B    1     1.5510     2.9309   19 C    0 0 0
   2 B    1     2.3868     4.5104    1 B    0 0 0
   2 B    1     2.3894     4.5154    3 B   -1 0 0
   2 B    1     2.5618     4.8411   22 C    0 1-1

   3 B    1     1.3790     2.6060   37 O    0 0 0
   3 B    1     1.3795     2.6069   39 O    1 1-1
   3 B    1     1.5529     2.9346   36 C    0 0 0
   3 B    1     2.3894     4.5154    2 B    1 0 0
   3 B    1     2.3912     4.5187    1 B    1 0 0
   3 B    1     2.5679     4.8526   35 C    1 1-1

   4 B    1     1.3778     2.6037   41 O    0 0 0
   4 B    1     1.3785     2.6051   40 O    0 1-1
   4 B    1     1.5479     2.9251   24 C    0 0 0
   4 B    1     2.3857     4.5084    5 B    0 0 0
   4 B    1     2.3859     4.5087    6 B    1 1-1
   4 B    1     2.5584     4.8347   21 C    0 1-1

   5 B    1     1.3778     2.6037   41 O    0 0 0
   5 B    1     1.3813     2.6103   42 O    1 1-1
   5 B    1     1.5523     2.9334   31 C    0 0 0
   5 B    1     2.3857     4.5084    4 B    0 0 0
   5 B    1     2.3952     4.5262    6 B    1 1-1
   5 B    1     2.5590     4.8358   32 C    1 1-1

   6 B    1     1.3783     2.6045   40 O   -1 0 0
   6 B    1     1.3812     2.6101   42 O    0 0 0
   6 B    1     1.5546     2.9377   25 C    0 0 0
   6 B    1     2.3859     4.5087    4 B   -1-1 1
   6 B    1     2.3952     4.5262    5 B   -1-1 1
   6 B    1     2.5605     4.8386   26 C    0 0 0

   7 H    1     1.0917     2.0629   20 C    0 0 0
   7 H    1     2.1461     4.0556   19 C    0 0 0
   7 H    1     2.1712     4.1029   23 C    0 0 0
   7 H    1     2.5280     4.7772   10 H    0 0 0
   7 H    1     2.5583     4.8346   38 O    0 0 0
   7 H    1     2.7310     5.1608    2 B    0 0 0

   8 H    1     1.0909     2.0615   21 C    0 0 0
   8 H    1     2.1454     4.0542   24 C    0-1 1
   8 H    1     2.1688     4.0985   22 C    0 0 0
   8 H    1     2.5272     4.7758    9 H    0 0 0
   8 H    1     2.5561     4.8304   40 O    0 0 0
   8 H    1     2.7242     5.1480    4 B    0-1 1

   9 H    1     1.0908     2.0614   22 C    0 0 0
   9 H    1     2.1442     4.0520   19 C    0-1 1
   9 H    1     2.1694     4.0995   21 C    0 0 0
   9 H    1     2.5272     4.7758    8 H    0 0 0
   9 H    1     2.5615     4.8406   39 O    0 0 0
   9 H    1     2.7248     5.1491    2 B    0-1 1

  10 H    1     1.0912     2.0621   23 C    0 0 0
  10 H    1     2.1469     4.0570   24 C    0 0 0
  10 H    1     2.1689     4.0986   20 C    0 0 0
  10 H    1     2.5280     4.7772    7 H    0 0 0
  10 H    1     2.5562     4.8305   41 O    0 0 0
  10 H    1     2.7309     5.1607    4 B    0 0 0

  11 H    1     1.0911     2.0619   26 C    0 0 0
  11 H    1     2.1443     4.0521   25 C    0 0 0
  11 H    1     2.1684     4.0977   29 C    0 0 1
  11 H    1     2.5222     4.7664   14 H    0 0 1
  11 H    1     2.5622     4.8419   42 O    0 0 0
  11 H    1     2.7179     5.1361    6 B    0 0 0

  12 H    1     1.0917     2.0630   27 C    0 0 0
  12 H    1     2.1441     4.0518   30 C    1 0 0
  12 H    1     2.1716     4.1037   28 C    0 0-1
  12 H    1     2.5226     4.7669   13 H    0 0-1
  12 H    1     2.5541     4.8265   37 O    0 0 0
  12 H    1     2.7237     5.1470    1 B    1 0 0

  13 H    1     1.0919     2.0633   28 C    0 0 0
  13 H    1     2.1522     4.0670   25 C    1 0 0
  13 H    1     2.1668     4.0946   27 C    0 0 1
  13 H    1     2.5226     4.7669   12 H    0 0 1
  13 H    1     2.5923     4.8986   40 O    0 0 0
  13 H    1     2.7582     5.2123    6 B    1 0 0

  14 H    1     1.0915     2.0627   29 C    0 0 0
  14 H    1     2.1483     4.0597   30 C    0 0 0
  14 H    1     2.1679     4.0968   26 C    0 0-1
  14 H    1     2.5222     4.7664   11 H    0 0-1
  14 H    1     2.5809     4.8771   38 O    0 0 0
  14 H    1     2.7404     5.1785    1 B    0 0 0

  15 H    1     1.0916     2.0628   32 C    0 0 0
  15 H    1     2.1436     4.0508   31 C   -1-1 1
  15 H    1     2.1707     4.1021   35 C    0 0 0
  15 H    1     2.5217     4.7654   18 H    0 0 0
  15 H    1     2.5567     4.8315   42 O    0 0 0
  15 H    1     2.7164     5.1333    5 B   -1-1 1

  16 H    1     1.0914     2.0624   33 C    0 0 0
  16 H    1     2.1487     4.0605   36 C    0 0 0
  16 H    1     2.1663     4.0937   34 C    0 0 0
  16 H    1     2.5170     4.7564   17 H    0 0 0
  16 H    1     2.5779     4.8716   37 O    0 0 0
  16 H    1     2.7395     5.1769    3 B    0 0 0

  17 H    1     1.0921     2.0638   34 C    0 0 0
  17 H    1     2.1502     4.0632   31 C    0 0 0
  17 H    1     2.1683     4.0976   33 C    0 0 0
  17 H    1     2.5170     4.7564   16 H    0 0 0
  17 H    1     2.5870     4.8888   41 O    0 0 0
  17 H    1     2.7510     5.1986    5 B    0 0 0

  18 H    1     1.0913     2.0622   35 C    0 0 0
  18 H    1     2.1495     4.0619   36 C   -1-1 1
  18 H    1     2.1656     4.0923   32 C    0 0 0
  18 H    1     2.5217     4.7654   15 H    0 0 0
  18 H    1     2.5789     4.8734   39 O    0 0 0
  18 H    1     2.7392     5.1763    3 B   -1-1 1

  19 C    1     1.4017     2.6488   22 C    0 1-1
  19 C    1     1.4025     2.6504   20 C    0 0 0
  19 C    1     1.5510     2.9309    2 B    0 0 0
  19 C    1     2.1442     4.0520    9 H    0 1-1
  19 C    1     2.1461     4.0556    7 H    0 0 0
  19 C    1     2.4236     4.5800   21 C    0 1-1

  20 C    1     1.0917     2.0629    7 H    0 0 0
  20 C    1     1.3915     2.6296   23 C    0 0 0
  20 C    1     1.4025     2.6504   19 C    0 0 0
  20 C    1     2.1689     4.0986   10 H    0 0 0
  20 C    1     2.4191     4.5714   22 C    0 1-1
  20 C    1     2.4241     4.5809   24 C    0 0 0

  21 C    1     1.0909     2.0615    8 H    0 0 0
  21 C    1     1.3909     2.6284   22 C    0 0 0
  21 C    1     1.4014     2.6483   24 C    0-1 1
  21 C    1     2.1694     4.0995    9 H    0 0 0
  21 C    1     2.4189     4.5710   23 C    0-1 1
  21 C    1     2.4236     4.5800   19 C    0-1 1

  22 C    1     1.0908     2.0614    9 H    0 0 0
  22 C    1     1.3909     2.6284   21 C    0 0 0
  22 C    1     1.4017     2.6488   19 C    0-1 1
  22 C    1     2.1688     4.0985    8 H    0 0 0
  22 C    1     2.4191     4.5714   20 C    0-1 1
  22 C    1     2.4226     4.5780   24 C    0-1 1

  23 C    1     1.0912     2.0621   10 H    0 0 0
  23 C    1     1.3915     2.6296   20 C    0 0 0
  23 C    1     1.4021     2.6496   24 C    0 0 0
  23 C    1     2.1712     4.1029    7 H    0 0 0
  23 C    1     2.4189     4.5710   21 C    0 1-1
  23 C    1     2.4237     4.5802   19 C    0 0 0

  24 C    1     1.4014     2.6483   21 C    0 1-1
  24 C    1     1.4021     2.6496   23 C    0 0 0
  24 C    1     1.5479     2.9251    4 B    0 0 0
  24 C    1     2.1454     4.0542    8 H    0 1-1
  24 C    1     2.1469     4.0570   10 H    0 0 0
  24 C    1     2.4226     4.5780   22 C    0 1-1

  25 C    1     1.4025     2.6504   26 C    0 0 0
  25 C    1     1.4037     2.6525   28 C   -1 0 0
  25 C    1     1.5546     2.9377    6 B    0 0 0
  25 C    1     2.1443     4.0521   11 H    0 0 0
  25 C    1     2.1522     4.0670   13 H   -1 0 0
  25 C    1     2.4271     4.5865   27 C   -1 0 1

  26 C    1     1.0911     2.0619   11 H    0 0 0
  26 C    1     1.3916     2.6298   29 C    0 0 1
  26 C    1     1.4025     2.6504   25 C    0 0 0
  26 C    1     2.1679     4.0968   14 H    0 0 1
  26 C    1     2.4165     4.5665   28 C   -1 0 0
  26 C    1     2.4246     4.5818   30 C    0 0 1

  27 C    1     1.0917     2.0630   12 H    0 0 0
  27 C    1     1.3928     2.6320   28 C    0 0-1
  27 C    1     1.4024     2.6501   30 C    1 0 0
  27 C    1     2.1668     4.0946   13 H    0 0-1
  27 C    1     2.4166     4.5668   29 C    1 0 0
  27 C    1     2.4271     4.5865   25 C    1 0-1

  28 C    1     1.0919     2.0633   13 H    0 0 0
  28 C    1     1.3928     2.6320   27 C    0 0 1
  28 C    1     1.4037     2.6525   25 C    1 0 0
  28 C    1     2.1716     4.1037   12 H    0 0 1
  28 C    1     2.4165     4.5665   26 C    1 0 0
  28 C    1     2.4277     4.5877   30 C    1 0 1

  29 C    1     1.0915     2.0627   14 H    0 0 0
  29 C    1     1.3916     2.6298   26 C    0 0-1
  29 C    1     1.4023     2.6499   30 C    0 0 0
  29 C    1     2.1684     4.0977   11 H    0 0-1
  29 C    1     2.4166     4.5668   27 C   -1 0 0
  29 C    1     2.4281     4.5884   25 C    0 0-1

  30 C    1     1.4023     2.6499   29 C    0 0 0
  30 C    1     1.4024     2.6501   27 C   -1 0 0
  30 C    1     1.5517     2.9323    1 B    0 0 0
  30 C    1     2.1441     4.0518   12 H   -1 0 0
  30 C    1     2.1483     4.0597   14 H    0 0 0
  30 C    1     2.4246     4.5818   26 C    0 0-1

  31 C    1     1.4022     2.6498   32 C    1 1-1
  31 C    1     1.4030     2.6512   34 C    0 0 0
  31 C    1     1.5523     2.9334    5 B    0 0 0
  31 C    1     2.1436     4.0508   15 H    1 1-1
  31 C    1     2.1502     4.0632   17 H    0 0 0
  31 C    1     2.4264     4.5853   33 C    0 0 0

  32 C    1     1.0916     2.0628   15 H    0 0 0
  32 C    1     1.3918     2.6301   35 C    0 0 0
  32 C    1     1.4022     2.6498   31 C   -1-1 1
  32 C    1     2.1656     4.0923   18 H    0 0 0
  32 C    1     2.4163     4.5661   34 C   -1-1 1
  32 C    1     2.4270     4.5863   36 C   -1-1 1

  33 C    1     1.0914     2.0624   16 H    0 0 0
  33 C    1     1.3927     2.6318   34 C    0 0 0
  33 C    1     1.4029     2.6510   36 C    0 0 0
  33 C    1     2.1683     4.0976   17 H    0 0 0
  33 C    1     2.4155     4.5645   35 C    1 1-1
  33 C    1     2.4264     4.5853   31 C    0 0 0

  34 C    1     1.0921     2.0638   17 H    0 0 0
  34 C    1     1.3927     2.6318   33 C    0 0 0
  34 C    1     1.4030     2.6512   31 C    0 0 0
  34 C    1     2.1663     4.0937   16 H    0 0 0
  34 C    1     2.4163     4.5661   32 C    1 1-1
  34 C    1     2.4289     4.5899   36 C    0 0 0

  35 C    1     1.0913     2.0622   18 H    0 0 0
  35 C    1     1.3918     2.6301   32 C    0 0 0
  35 C    1     1.4029     2.6511   36 C   -1-1 1
  35 C    1     2.1707     4.1021   15 H    0 0 0
  35 C    1     2.4155     4.5645   33 C   -1-1 1
  35 C    1     2.4269     4.5861   31 C   -1-1 1

  36 C    1     1.4029     2.6510   33 C    0 0 0
  36 C    1     1.4029     2.6511   35 C    1 1-1
  36 C    1     1.5529     2.9346    3 B    0 0 0
  36 C    1     2.1487     4.0605   16 H    0 0 0
  36 C    1     2.1495     4.0619   18 H    1 1-1
  36 C    1     2.4270     4.5863   32 C    1 1-1

  37 O    1     1.3790     2.6060    3 B    0 0 0
  37 O    1     1.3795     2.6068    1 B    1 0 0
  37 O    1     2.3868     4.5105   39 O    1 1-1
  37 O    1     2.3885     4.5136   38 O    1 0 0
  37 O    1     2.5389     4.7979   30 C    1 0 0
  37 O    1     2.5412     4.8021   36 C    0 0 0

  38 O    1     1.3787     2.6054    1 B    0 0 0
  38 O    1     1.3792     2.6064    2 B    0 0 0
  38 O    1     2.3885     4.5136   37 O   -1 0 0
  38 O    1     2.3912     4.5187   39 O    0 1-1
  38 O    1     2.5351     4.7906   19 C    0 0 0
  38 O    1     2.5405     4.8008   30 C    0 0 0

  39 O    1     1.3795     2.6069    3 B   -1-1 1
  39 O    1     1.3798     2.6075    2 B    0-1 1
  39 O    1     2.3868     4.5105   37 O   -1-1 1
  39 O    1     2.3912     4.5187   38 O    0-1 1
  39 O    1     2.5416     4.8030   19 C    0-1 1
  39 O    1     2.5427     4.8050   36 C   -1-1 1

  40 O    1     1.3783     2.6045    6 B    1 0 0
  40 O    1     1.3785     2.6051    4 B    0-1 1
  40 O    1     2.3876     4.5119   42 O    1 0 0
  40 O    1     2.3913     4.5189   41 O    0-1 1
  40 O    1     2.5354     4.7912   25 C    1 0 0
  40 O    1     2.5360     4.7923   24 C    0-1 1

  41 O    1     1.3778     2.6037    4 B    0 0 0
  41 O    1     1.3778     2.6037    5 B    0 0 0
  41 O    1     2.3870     4.5107   42 O    1 1-1
  41 O    1     2.3913     4.5189   40 O    0 1-1
  41 O    1     2.5304     4.7818   24 C    0 0 0
  41 O    1     2.5353     4.7911   31 C    0 0 0

  42 O    1     1.3812     2.6101    6 B    0 0 0
  42 O    1     1.3813     2.6103    5 B   -1-1 1
  42 O    1     2.3870     4.5107   41 O   -1-1 1
  42 O    1     2.3876     4.5119   40 O   -1 0 0
  42 O    1     2.5481     4.8152   31 C   -1-1 1
  42 O    1     2.5522     4.8230   25 C    0 0 0


 SYMMETRY ALLOWED INTERNAL DEGREE(S) OF FREEDOM: 123
 TTTTTTTTTTTTTTTTTTTTTTTTTTTTTT SYMM        TELAPSE        0.29 TCPU        0.29
 TTTTTTTTTTTTTTTTTTTTTTTTTTTTTT INT_SCREEN  TELAPSE        0.32 TCPU        0.32

 DFT PARAMETERS

     ATOM       ELECTRONS   NET CHARGE   R(ANGSTROM)
   1   5  B       5.0000      0.0000     0.89000000
   7   1  H       1.0000      0.0000     1.11000000
  19   6  C       6.0000      0.0000     0.77000000
  37   8  O       8.0000      0.0000     0.74000000

 SIZE OF GRID=    1225475
 TTTTTTTTTTTTTTTTTTTTTTTTTTTTTT MAKE_GRID2  TELAPSE       13.27 TCPU       13.25
 BECKE WEIGHT FUNCTION
 RADSAFE =     2.00
 TOLERANCES - DENSITY:10**- 6; POTENTIAL:10**- 9; GRID WGT:10**-14

 RADIAL INTEGRATION  - INTERVALS (POINTS,UPPER LIMIT):            1( 75,  4.0*R)

 ANGULAR INTEGRATION - INTERVALS (ACCURACY LEVEL [N. POINTS] UPPER LIMIT):
  1(  4[  86]   0.2)  2(  8[ 194]   0.5)  3( 12[ 350]   0.9)  4( 16[ 974]   3.5)
  5( 12[ 350]9999.0)
 TTTTTTTTTTTTTTTTTTTTTTTTTTTTTT INT_CALC    TELAPSE       13.39 TCPU       13.37
 EEEEEEEEEE INT_CALC TERMINATION  DATE 02 12 2025 TIME 07:56:19.3

 *******************************************************************************
 COF-5_z32_inc_L010                                                              
 CRYSTAL - SCF - TYPE OF CALCULATION :  RESTRICTED CLOSED SHELL
 *******************************************************************************

 CAPPA:IS1  2;IS2  2;IS3  8; K PTS MONK NET  20; SYMMOPS:K SPACE   2;G SPACE   1

 TTTTTTTTTTTTTTTTTTTTTTTTTTTTTT SDIK        TELAPSE       14.23 TCPU       21.60

 AAAAAAAAAAAAAAAAAAAAAAAAAAAAAAAAAAAAAAAAAAAAAAAAAAAAAAAAAAAAAAAAAAAAAAAAAAAAAAA
         ATOMIC WAVEFUNCTION(S)


 NUCLEAR CHARGE  5.0  SYMMETRY SPECIES            S    P
 N. ELECTRONS    5.0  NUMBER OF PRIMITIVE GTOS    8    4
                      NUMBER OF CONTRACTED GTOS   4    2
                      NUMBER OF CLOSED SHELLS     2    0
                      OPEN SHELL OCCUPATION       0    1

  ZNUC  SCFIT    TOTAL HF ENERGY   KINETIC ENERGY   VIRIAL THEOREM ACCURACY
   5.0    11    -2.451164084E+01  2.462155050E+01 -1.995536038E+00  1.5E-06

 NUCLEAR CHARGE  1.0  SYMMETRY SPECIES            S
 N. ELECTRONS    1.0  NUMBER OF PRIMITIVE GTOS    4
                      NUMBER OF CONTRACTED GTOS   2
                      NUMBER OF CLOSED SHELLS     0
                      OPEN SHELL OCCUPATION       1

  ZNUC  SCFIT    TOTAL HF ENERGY   KINETIC ENERGY   VIRIAL THEOREM ACCURACY
   1.0     1    -4.977266687E-01  5.190767460E-01 -1.958869132E+00  0.0E+00

 NUCLEAR CHARGE  6.0  SYMMETRY SPECIES            S    P
 N. ELECTRONS    6.0  NUMBER OF PRIMITIVE GTOS    8    4
                      NUMBER OF CONTRACTED GTOS   4    2
                      NUMBER OF CLOSED SHELLS     2    0
                      OPEN SHELL OCCUPATION       0    2

  ZNUC  SCFIT    TOTAL HF ENERGY   KINETIC ENERGY   VIRIAL THEOREM ACCURACY
   6.0     9    -3.766704647E+01  3.775180683E+01 -1.997754800E+00  1.1E-06

 NUCLEAR CHARGE  8.0  SYMMETRY SPECIES            S    P
 N. ELECTRONS    8.0  NUMBER OF PRIMITIVE GTOS    8    4
                      NUMBER OF CONTRACTED GTOS   4    2
                      NUMBER OF CLOSED SHELLS     2    0
                      OPEN SHELL OCCUPATION       0    4

  ZNUC  SCFIT    TOTAL HF ENERGY   KINETIC ENERGY   VIRIAL THEOREM ACCURACY
   8.0    12    -7.477373220E+01  7.477365593E+01 -2.000001020E+00  3.8E-06

 AAAAAAAAAAAAAAAAAAAAAAAAAAAAAAAAAAAAAAAAAAAAAAAAAAAAAAAAAAAAAAAAAAAAAAAAAAAAAAA

 CHARGE NORMALIZATION FACTOR   1.00000000
 TOTAL ATOMIC CHARGES:
   5.0000000   5.0000000   5.0000000   5.0000000   5.0000000   5.0000000
   1.0000000   1.0000000   1.0000000   1.0000000   1.0000000   1.0000000
   1.0000000   1.0000000   1.0000000   1.0000000   1.0000000   1.0000000
   6.0000000   6.0000000   6.0000000   6.0000000   6.0000000   6.0000000
   6.0000000   6.0000000   6.0000000   6.0000000   6.0000000   6.0000000
   6.0000000   6.0000000   6.0000000   6.0000000   6.0000000   6.0000000
   8.0000000   8.0000000   8.0000000   8.0000000   8.0000000   8.0000000
 TTTTTTTTTTTTTTTTTTTTTTTTTTTTTT MOQGAD      TELAPSE       14.29 TCPU       23.51
 TTTTTTTTTTTTTTTTTTTTTTTTTTTTTT SHELLXN     TELAPSE       27.52 TCPU      446.39
 TTTTTTTTTTTTTTTTTTTTTTTTTTTTTT MONMO3      TELAPSE       27.72 TCPU      452.68
 NUMERICALLY INTEGRATED DENSITY    197.9999983943
 TTTTTTTTTTTTTTTTTTTTTTTTTTTTTT NUMDFT      TELAPSE       28.39 TCPU      474.07
 CYC   0 ETOT(AU) -1.296031754072E+03 DETOT -1.30E+03 tst  0.00E+00 PX  1.00E+00
 TTTTTTTTTTTTTTTTTTTTTTTTTTTTTT DIIS        TELAPSE       28.43 TCPU      475.20
 TTTTTTTTTTTTTTTTTTTTTTTTTTTTTT FDIK        TELAPSE       28.90 TCPU      490.32
 INSULATING STATE
 TOP OF VALENCE BANDS -    BAND     99; K    1; EIG -2.8189511E-01 AU
 BOTTOM OF VIRTUAL BANDS - BAND    100; K   17; EIG -1.8197748E-01 AU
 INDIRECT ENERGY BAND GAP:   2.7189 eV
 BOTTOM OF VIRTUAL BANDS - BAND    100; K    1; EIG -1.3337034E-01 AU
 TTTTTTTTTTTTTTTTTTTTTTTTTTTTTT PDIG        TELAPSE       29.18 TCPU      496.45
 CHARGE NORMALIZATION FACTOR   1.00000000
 TOTAL ATOMIC CHARGES:
   4.1200424   4.1129675   4.1142821   4.1156345   4.1134075   4.1188907
   0.7866649   0.7866186   0.7863687   0.7863995   0.7861904   0.7860925
   0.7871136   0.7866646   0.7863723   0.7869683   0.7865791   0.7868021
   6.0593774   6.2734272   6.2733642   6.2715269   6.2700360   6.0620715
   6.0548014   6.2713085   6.2692728   6.2723681   6.2719634   6.0584141
   6.0582577   6.2732794   6.2743649   6.2710861   6.2726246   6.0556949
   8.7100181   8.7094182   8.7071206   8.7090654   8.7059666   8.7111124
 TTTTTTTTTTTTTTTTTTTTTTTTTTTTTT MOQGAD      TELAPSE       29.24 TCPU      496.51
 TTTTTTTTTTTTTTTTTTTTTTTTTTTTTT SHELLXN     TELAPSE       42.94 TCPU      933.51
 TTTTTTTTTTTTTTTTTTTTTTTTTTTTTT MONMO3      TELAPSE       43.13 TCPU      939.79
 NUMERICALLY INTEGRATED DENSITY    197.9999821564
 TTTTTTTTTTTTTTTTTTTTTTTTTTTTTT NUMDFT      TELAPSE       43.82 TCPU      961.60
 CYC   1 ETOT(AU) -1.288805627898E+03 DETOT  7.23E+00 tst  0.00E+00 PX  1.00E+00
 TTTTTTTTTTTTTTTTTTTTTTTTTTTTTT DIIS        TELAPSE       43.86 TCPU      963.05
 DIIS TEST: 0.11050E+01 AT SCF   CYCLE   1 - MIX   30 %
 TTTTTTTTTTTTTTTTTTTTTTTTTTTTTT FDIK        TELAPSE       44.34 TCPU      978.32
 INSULATING STATE
 TOP OF VALENCE BANDS -    BAND     99; K    1; EIG -1.7928363E-01 AU
 BOTTOM OF VIRTUAL BANDS - BAND    100; K   17; EIG -1.0503443E-01 AU
 INDIRECT ENERGY BAND GAP:   2.0204 eV
 BOTTOM OF VIRTUAL BANDS - BAND    100; K    1; EIG -5.0476426E-02 AU
 TTTTTTTTTTTTTTTTTTTTTTTTTTTTTT PDIG        TELAPSE       44.63 TCPU      984.47
 CHARGE NORMALIZATION FACTOR   1.00000000
 TOTAL ATOMIC CHARGES:
   4.6866941   4.6741131   4.6737745   4.6735597   4.6728393   4.6870720
   0.9259274   0.9263113   0.9267303   0.9264085   0.9230997   0.9226972
   0.9238440   0.9240244   0.9253913   0.9259976   0.9261166   0.9264270
   5.8670947   6.1167353   6.1142036   6.1293962   6.1314480   5.8634783
   5.8739203   6.1189642   6.1209988   6.1246347   6.1218316   5.8688365
   5.8700882   6.1106183   6.1140967   6.1316875   6.1289778   5.8696484
   8.3578424   8.3563974   8.3624167   8.3549103   8.3594275   8.3613187
 TTTTTTTTTTTTTTTTTTTTTTTTTTTTTT MOQGAD      TELAPSE       44.69 TCPU      984.53
 TTTTTTTTTTTTTTTTTTTTTTTTTTTTTT SHELLXN     TELAPSE       58.39 TCPU     1421.57
 TTTTTTTTTTTTTTTTTTTTTTTTTTTTTT MONMO3      TELAPSE       58.58 TCPU     1427.85
 NUMERICALLY INTEGRATED DENSITY    197.9999754878
 TTTTTTTTTTTTTTTTTTTTTTTTTTTTTT NUMDFT      TELAPSE       59.27 TCPU     1449.65
 CYC   2 ETOT(AU) -1.288995317897E+03 DETOT -1.90E-01 tst  3.92E-03 PX  1.54E-01
 TTTTTTTTTTTTTTTTTTTTTTTTTTTTTT DIIS        TELAPSE       59.31 TCPU     1451.19
 DIIS TEST: 0.49702E+00 AT SCF   CYCLE   2 - DIIS ACTIVE - HISTORY:     2 CYCLES
 TTTTTTTTTTTTTTTTTTTTTTTTTTTTTT FDIK        TELAPSE       59.79 TCPU     1466.37
 INSULATING STATE
 TOP OF VALENCE BANDS -    BAND     99; K    1; EIG -1.9797200E-01 AU
 BOTTOM OF VIRTUAL BANDS - BAND    100; K   17; EIG -9.9401574E-02 AU
 INDIRECT ENERGY BAND GAP:   2.6822 eV
 BOTTOM OF VIRTUAL BANDS - BAND    100; K    1; EIG -4.2522986E-02 AU
 TTTTTTTTTTTTTTTTTTTTTTTTTTTTTT PDIG        TELAPSE       60.07 TCPU     1472.51
 CHARGE NORMALIZATION FACTOR   1.00000000
 TOTAL ATOMIC CHARGES:
   4.4599920   4.4477717   4.4482614   4.4498639   4.4477491   4.4586610
   0.8944102   0.8941821   0.8943708   0.8943268   0.8922071   0.8920683
   0.8940686   0.8931975   0.8931297   0.8944944   0.8947458   0.8943088
   5.8994724   6.1711172   6.1726224   6.1667712   6.1668171   5.9037711
   5.9043671   6.1648157   6.1649880   6.1682326   6.1683362   5.9070711
   5.9014512   6.1711258   6.1716324   6.1677803   6.1687430   5.8997297
   8.5224480   8.5220218   8.5175171   8.5216163   8.5157943   8.5239488
 TTTTTTTTTTTTTTTTTTTTTTTTTTTTTT MOQGAD      TELAPSE       60.13 TCPU     1472.57
 TTTTTTTTTTTTTTTTTTTTTTTTTTTTTT SHELLXN     TELAPSE       73.83 TCPU     1909.70
 TTTTTTTTTTTTTTTTTTTTTTTTTTTTTT MONMO3      TELAPSE       74.03 TCPU     1915.98
 NUMERICALLY INTEGRATED DENSITY    197.9999759033
 TTTTTTTTTTTTTTTTTTTTTTTTTTTTTT NUMDFT      TELAPSE       74.71 TCPU     1937.77
 CYC   3 ETOT(AU) -1.289100540784E+03 DETOT -1.05E-01 tst  7.09E-04 PX  5.66E-02
 TTTTTTTTTTTTTTTTTTTTTTTTTTTTTT DIIS        TELAPSE       74.77 TCPU     1939.53
 DIIS TEST: 0.98334E-02 AT SCF   CYCLE   3 - DIIS ACTIVE - HISTORY:     3 CYCLES
 TTTTTTTTTTTTTTTTTTTTTTTTTTTTTT FDIK        TELAPSE       75.24 TCPU     1954.85
 INSULATING STATE
 TOP OF VALENCE BANDS -    BAND     99; K    1; EIG -2.0605623E-01 AU
 BOTTOM OF VIRTUAL BANDS - BAND    100; K   17; EIG -1.1035125E-01 AU
 INDIRECT ENERGY BAND GAP:   2.6043 eV
 BOTTOM OF VIRTUAL BANDS - BAND    100; K    1; EIG -5.4418604E-02 AU
 TTTTTTTTTTTTTTTTTTTTTTTTTTTTTT PDIG        TELAPSE       75.53 TCPU     1960.99
 CHARGE NORMALIZATION FACTOR   1.00000000
 TOTAL ATOMIC CHARGES:
   4.4719511   4.4591556   4.4588589   4.4594921   4.4579740   4.4717991
   0.8803535   0.8809729   0.8800501   0.8799695   0.8774484   0.8773804
   0.8787988   0.8788177   0.8799178   0.8806708   0.8799981   0.8802258
   5.9598956   6.1555788   6.1513667   6.1660894   6.1656523   5.9548378
   5.9626921   6.1580542   6.1574260   6.1602888   6.1579685   5.9592900
   5.9595268   6.1508609   6.1534766   6.1663529   6.1652034   5.9583485
   8.4996830   8.4983686   8.5040889   8.4970339   8.5015453   8.5025364
 TTTTTTTTTTTTTTTTTTTTTTTTTTTTTT MOQGAD      TELAPSE       75.59 TCPU     1961.05
 TTTTTTTTTTTTTTTTTTTTTTTTTTTTTT SHELLXN     TELAPSE       89.28 TCPU     2398.07
 TTTTTTTTTTTTTTTTTTTTTTTTTTTTTT MONMO3      TELAPSE       89.48 TCPU     2404.34
 NUMERICALLY INTEGRATED DENSITY    197.9999761582
 TTTTTTTTTTTTTTTTTTTTTTTTTTTTTT NUMDFT      TELAPSE       90.16 TCPU     2426.13
 CYC   4 ETOT(AU) -1.289102432774E+03 DETOT -1.89E-03 tst  3.78E-05 PX  1.29E-02
 TTTTTTTTTTTTTTTTTTTTTTTTTTTTTT DIIS        TELAPSE       90.22 TCPU     2428.01
 DIIS TEST: 0.35132E-02 AT SCF   CYCLE   4 - DIIS ACTIVE - HISTORY:     4 CYCLES
 TTTTTTTTTTTTTTTTTTTTTTTTTTTTTT FDIK        TELAPSE       90.69 TCPU     2443.25
 INSULATING STATE
 TOP OF VALENCE BANDS -    BAND     99; K    1; EIG -2.0555487E-01 AU
 BOTTOM OF VIRTUAL BANDS - BAND    100; K   17; EIG -1.0843527E-01 AU
 INDIRECT ENERGY BAND GAP:   2.6428 eV
 BOTTOM OF VIRTUAL BANDS - BAND    100; K    1; EIG -5.2220816E-02 AU
 TTTTTTTTTTTTTTTTTTTTTTTTTTTTTT PDIG        TELAPSE       90.98 TCPU     2449.38
 CHARGE NORMALIZATION FACTOR   1.00000000
 TOTAL ATOMIC CHARGES:
   4.4717246   4.4592071   4.4596173   4.4609192   4.4589556   4.4708830
   0.8825645   0.8823273   0.8824543   0.8822385   0.8801517   0.8798688
   0.8817169   0.8810045   0.8814518   0.8826398   0.8825495   0.8823350
   5.9255148   6.1672761   6.1690812   6.1697919   6.1709994   5.9303974
   5.9302125   6.1654190   6.1664627   6.1691528   6.1684655   5.9317066
   5.9292589   6.1665455   6.1677603   6.1714122   6.1712304   5.9271686
   8.5078864   8.5069193   8.5052681   8.5064857   8.5035120   8.5094631
 TTTTTTTTTTTTTTTTTTTTTTTTTTTTTT MOQGAD      TELAPSE       91.04 TCPU     2449.44
 TTTTTTTTTTTTTTTTTTTTTTTTTTTTTT SHELLXN     TELAPSE      104.73 TCPU     2886.43
 TTTTTTTTTTTTTTTTTTTTTTTTTTTTTT MONMO3      TELAPSE      104.93 TCPU     2892.70
 NUMERICALLY INTEGRATED DENSITY    197.9999760992
 TTTTTTTTTTTTTTTTTTTTTTTTTTTTTT NUMDFT      TELAPSE      105.61 TCPU     2914.51
 CYC   5 ETOT(AU) -1.289103210052E+03 DETOT -7.77E-04 tst  8.03E-06 PX  7.71E-03
 TTTTTTTTTTTTTTTTTTTTTTTTTTTTTT DIIS        TELAPSE      105.68 TCPU     2916.61
 DIIS TEST: 0.15818E-03 AT SCF   CYCLE   5 - DIIS ACTIVE - HISTORY:     5 CYCLES
 TTTTTTTTTTTTTTTTTTTTTTTTTTTTTT FDIK        TELAPSE      106.16 TCPU     2931.87
 INSULATING STATE
 TOP OF VALENCE BANDS -    BAND     99; K    1; EIG -2.0502477E-01 AU
 BOTTOM OF VIRTUAL BANDS - BAND    100; K   17; EIG -1.0798206E-01 AU
 INDIRECT ENERGY BAND GAP:   2.6407 eV
 BOTTOM OF VIRTUAL BANDS - BAND    100; K    1; EIG -5.1766827E-02 AU
 TTTTTTTTTTTTTTTTTTTTTTTTTTTTTT PDIG        TELAPSE      106.44 TCPU     2938.02
 CHARGE NORMALIZATION FACTOR   1.00000000
 TOTAL ATOMIC CHARGES:
   4.4712921   4.4590857   4.4588866   4.4594218   4.4579246   4.4706365
   0.8836735   0.8841717   0.8836701   0.8837024   0.8812570   0.8812445
   0.8827471   0.8825299   0.8830831   0.8839973   0.8837958   0.8838282
   5.9342185   6.1660339   6.1618793   6.1699947   6.1682140   5.9285918
   5.9355268   6.1642847   6.1629641   6.1662961   6.1655539   5.9343332
   5.9321223   6.1620986   6.1637811   6.1693949   6.1698908   5.9317549
   8.5062255   8.5056855   8.5076733   8.5043034   8.5051104   8.5091203
 TTTTTTTTTTTTTTTTTTTTTTTTTTTTTT MOQGAD      TELAPSE      106.50 TCPU     2938.08
 TTTTTTTTTTTTTTTTTTTTTTTTTTTTTT SHELLXN     TELAPSE      120.20 TCPU     3375.04
 TTTTTTTTTTTTTTTTTTTTTTTTTTTTTT MONMO3      TELAPSE      120.39 TCPU     3381.32
 NUMERICALLY INTEGRATED DENSITY    197.9999760808
 TTTTTTTTTTTTTTTTTTTTTTTTTTTTTT NUMDFT      TELAPSE      121.07 TCPU     3403.10
 CYC   6 ETOT(AU) -1.289103231636E+03 DETOT -2.16E-05 tst  8.44E-07 PX  1.83E-03
 TTTTTTTTTTTTTTTTTTTTTTTTTTTTTT DIIS        TELAPSE      121.14 TCPU     3405.34
 DIIS TEST: 0.59518E-04 AT SCF   CYCLE   6 - DIIS ACTIVE - HISTORY:     6 CYCLES
 TTTTTTTTTTTTTTTTTTTTTTTTTTTTTT FDIK        TELAPSE      121.62 TCPU     3420.64
 INSULATING STATE
 TOP OF VALENCE BANDS -    BAND     99; K    1; EIG -2.0513868E-01 AU
 BOTTOM OF VIRTUAL BANDS - BAND    100; K   17; EIG -1.0808005E-01 AU
 INDIRECT ENERGY BAND GAP:   2.6411 eV
 BOTTOM OF VIRTUAL BANDS - BAND    100; K    1; EIG -5.1858940E-02 AU
 TTTTTTTTTTTTTTTTTTTTTTTTTTTTTT PDIG        TELAPSE      121.90 TCPU     3426.78
 CHARGE NORMALIZATION FACTOR   1.00000000
 TOTAL ATOMIC CHARGES:
   4.4713487   4.4587790   4.4590139   4.4603151   4.4584490   4.4707972
   0.8837163   0.8837542   0.8835893   0.8834175   0.8812038   0.8809913
   0.8827093   0.8822503   0.8828131   0.8838765   0.8836612   0.8835783
   5.9301548   6.1644268   6.1646357   6.1682715   6.1693706   5.9329380
   5.9352443   6.1633307   6.1639100   6.1669967   6.1652248   5.9346668
   5.9332185   6.1626136   6.1643595   6.1699658   6.1690059   5.9308407
   8.5068260   8.5056524   8.5061331   8.5050590   8.5042461   8.5086450
 TTTTTTTTTTTTTTTTTTTTTTTTTTTTTT MOQGAD      TELAPSE      121.97 TCPU     3426.84
 TTTTTTTTTTTTTTTTTTTTTTTTTTTTTT SHELLXN     TELAPSE      135.66 TCPU     3863.63
 TTTTTTTTTTTTTTTTTTTTTTTTTTTTTT MONMO3      TELAPSE      135.85 TCPU     3869.91
 NUMERICALLY INTEGRATED DENSITY    197.9999760797
 TTTTTTTTTTTTTTTTTTTTTTTTTTTTTT NUMDFT      TELAPSE      136.54 TCPU     3891.69
 CYC   7 ETOT(AU) -1.289103244175E+03 DETOT -1.25E-05 tst  5.90E-07 PX  1.02E-03
 TTTTTTTTTTTTTTTTTTTTTTTTTTTTTT DIIS        TELAPSE      136.61 TCPU     3894.12
 DIIS TEST: 0.92585E-05 AT SCF   CYCLE   7 - DIIS ACTIVE - HISTORY:     7 CYCLES
 TTTTTTTTTTTTTTTTTTTTTTTTTTTTTT FDIK        TELAPSE      137.09 TCPU     3909.34
 INSULATING STATE
 TOP OF VALENCE BANDS -    BAND     99; K    1; EIG -2.0518937E-01 AU
 BOTTOM OF VIRTUAL BANDS - BAND    100; K   17; EIG -1.0813358E-01 AU
 INDIRECT ENERGY BAND GAP:   2.6410 eV
 BOTTOM OF VIRTUAL BANDS - BAND    100; K    1; EIG -5.1912802E-02 AU
 TTTTTTTTTTTTTTTTTTTTTTTTTTTTTT PDIG        TELAPSE      137.37 TCPU     3915.48
 CHARGE NORMALIZATION FACTOR   1.00000000
 TOTAL ATOMIC CHARGES:
   4.4716147   4.4591351   4.4593035   4.4602750   4.4584788   4.4707997
   0.8835858   0.8836428   0.8834528   0.8833304   0.8810874   0.8809074
   0.8826371   0.8821163   0.8826809   0.8837588   0.8835652   0.8834413
   5.9311155   6.1651068   6.1645085   6.1688857   6.1688735   5.9315797
   5.9343721   6.1636499   6.1638771   6.1666072   6.1659835   5.9349773
   5.9323770   6.1630224   6.1645052   6.1694864   6.1696752   5.9312444
   8.5067047   8.5058447   8.5060328   8.5050192   8.5039229   8.5088153
 TTTTTTTTTTTTTTTTTTTTTTTTTTTTTT MOQGAD      TELAPSE      137.43 TCPU     3915.54
 TTTTTTTTTTTTTTTTTTTTTTTTTTTTTT SHELLXN     TELAPSE      151.13 TCPU     4352.56
 TTTTTTTTTTTTTTTTTTTTTTTTTTTTTT MONMO3      TELAPSE      151.33 TCPU     4358.84
 NUMERICALLY INTEGRATED DENSITY    197.9999760811
 TTTTTTTTTTTTTTTTTTTTTTTTTTTTTT NUMDFT      TELAPSE      152.01 TCPU     4380.60
 CYC   8 ETOT(AU) -1.289103246331E+03 DETOT -2.16E-06 tst  5.94E-08 PX  3.43E-04
 TTTTTTTTTTTTTTTTTTTTTTTTTTTTTT DIIS        TELAPSE      152.09 TCPU     4383.19
 DIIS TEST: 0.11594E-05 AT SCF   CYCLE   8 - DIIS ACTIVE - HISTORY:     8 CYCLES
 TTTTTTTTTTTTTTTTTTTTTTTTTTTTTT FDIK        TELAPSE      152.57 TCPU     4398.49
 INSULATING STATE
 TOP OF VALENCE BANDS -    BAND     99; K    1; EIG -2.0518446E-01 AU
 BOTTOM OF VIRTUAL BANDS - BAND    100; K   17; EIG -1.0813849E-01 AU
 INDIRECT ENERGY BAND GAP:   2.6408 eV
 BOTTOM OF VIRTUAL BANDS - BAND    100; K    1; EIG -5.1917748E-02 AU
 TTTTTTTTTTTTTTTTTTTTTTTTTTTTTT PDIG        TELAPSE      152.85 TCPU     4404.63
 CHARGE NORMALIZATION FACTOR   1.00000000
 TOTAL ATOMIC CHARGES:
   4.4715580   4.4591122   4.4592371   4.4602884   4.4585233   4.4709175
   0.8835468   0.8836693   0.8834447   0.8833288   0.8810687   0.8809083
   0.8825896   0.8821465   0.8826921   0.8837384   0.8835369   0.8834621
   5.9310415   6.1651649   6.1643186   6.1688697   6.1690507   5.9315414
   5.9348017   6.1637951   6.1637936   6.1668614   6.1657319   5.9344588
   5.9326229   6.1629383   6.1644688   6.1697871   6.1694913   5.9309040
   8.5066714   8.5057809   8.5062303   8.5049487   8.5041406   8.5088177
 TTTTTTTTTTTTTTTTTTTTTTTTTTTTTT MOQGAD      TELAPSE      152.91 TCPU     4404.69
 TTTTTTTTTTTTTTTTTTTTTTTTTTTTTT SHELLXN     TELAPSE      166.62 TCPU     4841.79
 TTTTTTTTTTTTTTTTTTTTTTTTTTTTTT MONMO3      TELAPSE      166.81 TCPU     4848.07
 NUMERICALLY INTEGRATED DENSITY    197.9999760793
 TTTTTTTTTTTTTTTTTTTTTTTTTTTTTT NUMDFT      TELAPSE      167.50 TCPU     4869.86
 CYC   9 ETOT(AU) -1.289103246542E+03 DETOT -2.11E-07 tst  9.59E-09 PX  1.30E-04
 TTTTTTTTTTTTTTTTTTTTTTTTTTTTTT DIIS        TELAPSE      167.58 TCPU     4872.64
 DIIS TEST: 0.11883E-06 AT SCF   CYCLE   9 - DIIS ACTIVE - HISTORY:     9 CYCLES
 TTTTTTTTTTTTTTTTTTTTTTTTTTTTTT FDIK        TELAPSE      168.06 TCPU     4887.90
 INSULATING STATE
 TOP OF VALENCE BANDS -    BAND     99; K    1; EIG -2.0518158E-01 AU
 BOTTOM OF VIRTUAL BANDS - BAND    100; K   17; EIG -1.0813637E-01 AU
 INDIRECT ENERGY BAND GAP:   2.6407 eV
 BOTTOM OF VIRTUAL BANDS - BAND    100; K    1; EIG -5.1915320E-02 AU
 TTTTTTTTTTTTTTTTTTTTTTTTTTTTTT PDIG        TELAPSE      168.38 TCPU     4894.07
 CHARGE NORMALIZATION FACTOR   1.00000000
 TOTAL ATOMIC CHARGES:
   4.4715604   4.4590826   4.4592294   4.4602633   4.4584769   4.4708654
   0.8835623   0.8836690   0.8834550   0.8833324   0.8810798   0.8809051
   0.8825997   0.8821448   0.8826994   0.8837479   0.8835504   0.8834646
   5.9310207   6.1650796   6.1643415   6.1688653   6.1690518   5.9316104
   5.9346964   6.1636720   6.1638891   6.1668310   6.1657195   5.9346527
   5.9325268   6.1628439   6.1645002   6.1697426   6.1695203   5.9310542
   8.5067132   8.5057634   8.5062657   8.5049675   8.5041908   8.5087929
 TTTTTTTTTTTTTTTTTTTTTTTTTTTTTT MOQGAD      TELAPSE      168.44 TCPU     4894.13
 TTTTTTTTTTTTTTTTTTTTTTTTTTTTTT SHELLXN     TELAPSE      182.12 TCPU     5330.71
 +++ ENERGIES IN A.U. +++
 ::: EXT EL-POLE                                  -1.5926992701093E+03
 ::: EXT EL-SPHEROPOLE                             1.7863637392264E+01
 ::: BIELET ZONE E-E                               2.5564304100207E+03
 ::: TOTAL E-E                                     9.8159477730369E+02
 ::: TOTAL E-N + N-E                              -3.7851409633993E+03
 ::: TOTAL N-N                                     3.6815896955003E+02
 ::: KINETIC ENERGY                                1.2800349630966E+03
 ::: PSEUDO TOTAL   ENERGY                        -1.1553522534490E+03
 ::: VIRIAL COEFFICIENT                            1.0511962569239E+00
 TTTTTTTTTTTTTTTTTTTTTTTTTTTTTT MONMO3      TELAPSE      182.32 TCPU     5336.98
 NUMERICALLY INTEGRATED DENSITY    197.9999760790
 EXCHANGE ENERGY: -0.126026707415E+03  CORRELATION ENERGY: -0.772428569124E+01
 TTTTTTTTTTTTTTTTTTTTTTTTTTTTTT NUMDFT      TELAPSE      183.00 TCPU     5358.80
 CYC  10 ETOT(AU) -1.289103246555E+03 DETOT -1.35E-08 tst  1.01E-09 PX  1.30E-04

 == SCF ENDED - CONVERGENCE ON ENERGY      E(AU) -1.2891032465552E+03 CYCLES  10


 ENERGY EXPRESSION=HARTREE+FOCK EXCH*0.00000+(HSESOL     EXCH)*1.00000+PBESOL     CORR


 TOTAL ENERGY(DFT)(AU)( 10) -1.2891032465552E+03 DE-1.3E-08 tester 1.0E-09
 TTTTTTTTTTTTTTTTTTTTTTTTTTTTTT EDFT        TELAPSE      183.00 TCPU     5358.82
 
 INFORMATION **** DFTD3 ENERGY **** CALCULATE DFTD3 ENERGY

           DFT-D V3(BJ)
 DF                                         hsesol3c  
 parameters
 s6       :    1.0000
 s8       :    0.0000
 a1       :    0.5196
 a2       :    4.9385
 k1 k3    :   16.0000   -4.0000
 Cutoff   :   50.2022
 CN-Cutoff:   21.1671
 ABC-Cutoff:   21.1671
 
 Edisp /kcal,au:   -33.5667 -0.05349199

 E6    /kcal :   -36.0181
 E8    /kcal :     0.0000
 E6(ABC) "   :   2.451372
 
 INFORMATION **** DFTD3 ENERGY **** NORMAL TERMINATION OF DFTD3 MODULE

 GCP ENERGY CALCULATION
  level        hsesol3c            basis:hsesol3c
  Nbf            474
  Atoms           42

  Parameters: 
  sigma     1.0000
  eta       1.4281
  alpha     0.2936
  beta      1.9467

  dmp_scal      4.0000
  dmp_exp       6.0000
 cutoffs: 
   distance [bohr] 60.0
   noise    [a.u.] 2.2E-16
 SR-damping   T
 ** gCP correction **
  Egcp:        0.0854898957 / (a.u.) ||      53.6457 / (kcal/mol)
 INFORMATION **** GCP **** NORMAL TERMINATION OF GCP MODULE

 *******************************************************************************

 DFT-D3-GCP DISPERSION AND COUNTERPOISE CORRECTION

 D3 DISPERSION ENERGY (AU)      -5.3491992085142E-02
 GCP ENERGY (AU)                 8.5489895682209E-02
 TOTAL ENERGY + DISP + GCP (AU) -1.2890712486516E+03

 *******************************************************************************

 EIGENVECTORS IN FORTRAN UNIT  8
 TTTTTTTTTTTTTTTTTTTTTTTTTTTTTT END         TELAPSE      184.65 TCPU     5366.35
 EEEEEEEEEE TERMINATION  DATE 02 12 2025 TIME 07:59:10.6
