 Default number of threads is:           32

         
 *******************************************************************************
 *                                                                             *
 *                               CRYSTAL23                                     *
 *                      public : 1.0.1 - October 2022                          *
 *                       HTTP://WWW.CRYSTAL.UNITO.IT                           *
 *                                                                             *
 *                              MAIN AUTHORS                                   *
 *                                                                             *
 *  R. DOVESI(1,11), V.R. SAUNDERS(2), C. ROETTI(1,11), R. ORLANDO(1,11),      *
 *  C.M. ZICOVICH-WILSON(1,3), F. PASCALE(4), B. CIVALLERI(1,11),              *
 *  K. DOLL(5), N.M. HARRISON(6), I.J. BUSH(7), Ph. D'ARCO(8),                 *
 *  M. LLUNELL(9), M. CAUSA'(10), Y. NOEL(8), L. MASCHIO(1,11), A. ERBA(1,11)  *
 *  M. RE'RAT(14), S. CASASSA(1,11), B.G. SEARLE(2), J.K. DESMARAIS(1)         *
 *                                                                             *
 *        CONTRIBUTIONS TO THE CODE HAVE ALSO BEEN GIVEN BY                    *
 *                                                                             *
 *  M. FERRABONE(1,11), M. DE LA PIERRE(1,11), M. FERRERO(1,11),               *
 *  J. BAIMA(1,11), E. ALBANESE(1,11), M.F. PEINTINGER(12), R. BAST(13),       *
 *  B. KIRTMAN(15), V. LACIVITA(1,11), R. DEMICHELIS(1,16)                     *
 *  G. BRANDEBURG(17), S. SALUSTRO(1,11), G. SANSONE(1,11)                     *
 *  M.T. RUGGIERO(18), L.E. DAGA(1), L. DONA'(1), A. COSSARD(1)                *
 *                                                                             *
 * (1) THEORETICAL CHEMISTRY GROUP - UNIVERSITA' DI TORINO - TORINO (ITALY)    *
 * (2) SCIENTIFIC COMPUTING DEPARTMENT - STFC DARESBURY (UK)                   *
 * (3) UNIVERSIDAD AUTONOMA DEL ESTADO DE MORELOS - CUERNAVACA (MEXICO)        *
 * (4) UNIVERSITE' DE LORRAINE - NANCY (FRANCE)                                *
 * (5) UNIVERSITAET STUTTGART- STUTTGART (GERMANY)                             *
 * (6) IMPERIAL COLLEGE - LONDON (UK)                                          *
 * (7) SCIENTIFIC COMPUTING DEPARTMENT - STFC RAL (UK)                         *
 * (8) UPMC - SORBONNE UNIVERSITES - PARIS (FRANCE)                            *
 * (9) UNIVERSIDAD DE BARCELONA - BARCELONA (SPAIN)                            *
 *(10) UNIVERSITA' DI NAPOLI "FEDERICO II" - NAPOLI (ITALY)                    *
 *(11) NIS - NANOSTRUCTURED INTERFACES AND SURFACES - TORINO (ITALY)           *
 *(12) MPI FUER CHEMISCHE ENERGIEKONVERSION - MUELHEIM AN DER RUHR (GERMANY)   *
 *(13) UNIVERSITY OF TROMSO - TROMSO (NORWAY)                                  *
 *(14) UNIVERSITE' DE PAU ET DES PAYS DE L'ADOUR - PAU (FRANCE)                *
 *(15) UNIVERSITY OF CALIFORNIA SANTA BARBARA - SANTA BARBARA (USA)            *
 *(16) CURTIN UNIVERSITY - PERTH (AUSTRALIA)                                   *
 *(17) UNIVERSITY COLLEGE LONDON - LONDON (UK)                                 *
 *(18) UNIVERSITY OF VERMONT - BURLINGTON (USA)                                *
 *                                                                             *
 *******************************************************************************
 EEEEEEEEEE STARTING  DATE 19 02 2026 TIME 20:26:32.9
 cof-1_z42_L010_serr                                                             

 CRYSTAL CALCULATION
 (INPUT ACCORDING TO THE INTERNATIONAL TABLES FOR X-RAY CRYSTALLOGRAPHY)
 CRYSTAL FAMILY                       :  TRICLINIC   
 CRYSTAL CLASS  (GROTH - 1921)        :  TRICLINIC PEDIAL                     

 SPACE GROUP (NONCENTROSYMMETRIC)     :  P 1             

 LATTICE PARAMETERS  (ANGSTROMS AND DEGREES) - CONVENTIONAL CELL
        A           B           C        ALPHA        BETA       GAMMA
    15.02361    15.02392     8.40000    90.00032    89.99994   119.99596


 NUMBER OF IRREDUCIBLE ATOMS IN THE CONVENTIONAL CELL:   84

 INPUT COORDINATES

 ATOM AT. N.              COORDINATES
   1   5     6.136805400000E-01  2.273182200000E-01  2.505686600000E-01
   2   5     6.521038200000E-01  3.041725900000E-01  7.505686600000E-01
   3   5     7.727362000000E-01  3.863778800000E-01  2.505686700000E-01
   4   5     8.111594800000E-01  4.632322500000E-01  7.505686600000E-01
   5   5     6.136762700000E-01  3.863606700000E-01  2.493730400000E-01
   6   5     6.520995500000E-01  4.632150400000E-01  7.493730400000E-01
   7   5     2.272552500000E-01  6.136332200000E-01  2.505686700000E-01
   8   5     2.656785300000E-01  6.904875900000E-01  7.505686600000E-01
   9   5     3.863632200000E-01  6.136124500000E-01  2.505686600000E-01
  10   5     4.247865000000E-01  6.904668200000E-01  7.505686600000E-01
  11   5     3.863435000000E-01  7.727516500000E-01  2.493730400000E-01
  12   5     4.247667800000E-01  8.496060200000E-01  7.493730500000E-01
  13   1     9.030436200000E-01  3.089300500000E-01  2.480899000000E-01
  14   1     9.414669000000E-01  3.857844200000E-01  7.480899100000E-01
  15   1     9.663453000000E-02  6.910534400000E-01  2.477108700000E-01
  16   1     1.350578100000E-01  7.679078100000E-01  7.477108600000E-01
  17   1     9.029714200000E-01  5.940724300000E-01  2.476525200000E-01
  18   1     9.413947000000E-01  6.709268000000E-01  7.476525300000E-01
  19   1     9.673618000000E-02  4.056849400000E-01  2.476670700000E-01
  20   1     1.351594600000E-01  4.825393100000E-01  7.476670700000E-01
  21   1     6.910324000000E-01  9.700412000000E-02  2.519101100000E-01
  22   1     7.294556800000E-01  1.738584900000E-01  7.519101100000E-01
  23   1     3.089297200000E-01  9.034373100000E-01  2.522891800000E-01
  24   1     3.473530000000E-01  9.802916800000E-01  7.522891800000E-01
  25   1     4.058699900000E-01  9.704998000000E-02  2.523475500000E-01
  26   1     4.442932700000E-01  1.739043500000E-01  7.523475500000E-01
  27   1     5.943122100000E-01  9.033473200000E-01  2.523329000000E-01
  28   1     6.327354900000E-01  9.802016900000E-01  7.523329000000E-01
  29   1     6.910727400000E-01  5.940542100000E-01  2.480899300000E-01
  30   1     7.294960200000E-01  6.709085800000E-01  7.480899300000E-01
  31   1     3.089618300000E-01  4.056093300000E-01  2.477108400000E-01
  32   1     3.473851100000E-01  4.824637000000E-01  7.477108400000E-01
  33   1     4.058405700000E-01  3.088232500000E-01  2.476524800000E-01
  34   1     4.442638500000E-01  3.856776200000E-01  7.476524800000E-01
  35   1     5.942908800000E-01  6.909579300000E-01  2.476671200000E-01
  36   1     6.327141600000E-01  7.678123000000E-01  7.476671200000E-01
  37   6     8.918903100000E-01  4.459436900000E-01  2.493293000000E-01
  38   6     9.303135900000E-01  5.227980600000E-01  7.493293000000E-01
  39   6     9.464891100000E-01  3.927856300000E-01  2.481482400000E-01
  40   6     9.849123900000E-01  4.696400000000E-01  7.481482400000E-01
  41   6     5.338812000000E-02  6.071853000000E-01  2.480462100000E-01
  42   6     9.181140000000E-02  6.840396700000E-01  7.480462100000E-01
  43   6     9.464521100000E-01  5.536921900000E-01  2.483524000000E-01
  44   6     9.848753900000E-01  6.305465600000E-01  7.483524000000E-01
  45   6     5.342634000000E-02  4.462499700000E-01  2.475650100000E-01
  46   6     9.184962000000E-02  5.231043400000E-01  7.475650100000E-01
  47   6     1.080358900000E-01  5.540356300000E-01  2.483669700000E-01
  48   6     1.464591700000E-01  6.308900000000E-01  7.483669700000E-01
  49   6     5.540394200000E-01  1.081684600000E-01  2.506707300000E-01
  50   6     5.924627000000E-01  1.850228300000E-01  7.506707300000E-01
  51   6     6.071778500000E-01  5.355594000000E-02  2.518517700000E-01
  52   6     6.456011300000E-01  1.304103100000E-01  7.518517700000E-01
  53   6     3.927986700000E-01  9.466631600000E-01  2.519538400000E-01
  54   6     4.312219500000E-01  2.351753000000E-02  7.519538400000E-01
  55   6     4.462875800000E-01  5.360286000000E-02  2.516476600000E-01
  56   6     4.847108600000E-01  1.304572300000E-01  7.516476500000E-01
  57   6     5.537168500000E-01  9.466235600000E-01  2.524349900000E-01
  58   6     5.921401300000E-01  2.347793000000E-02  7.524349900000E-01
  59   6     4.459279100000E-01  8.919920600000E-01  2.516330500000E-01
  60   6     4.843511900000E-01  9.688464300000E-01  7.516330500000E-01
  61   6     5.540448700000E-01  4.458745500000E-01  2.493293000000E-01
  62   6     5.924681500000E-01  5.227289200000E-01  7.493293000000E-01
  63   6     6.072102200000E-01  5.536257800000E-01  2.481482600000E-01
  64   6     6.456335000000E-01  6.304801500000E-01  7.481482600000E-01
  65   6     3.928233700000E-01  4.461720300000E-01  2.480461900000E-01
  66   6     4.312466500000E-01  5.230264000000E-01  7.480461900000E-01
  67   6     4.462872600000E-01  3.926899900000E-01  2.483523700000E-01
  68   6     4.847105400000E-01  4.695443600000E-01  7.483523700000E-01
  69   6     5.537429600000E-01  6.070980000000E-01  2.475650500000E-01
  70   6     5.921662400000E-01  6.839523700000E-01  7.475650400000E-01
  71   6     4.459599800000E-01  5.539582300000E-01  2.483669700000E-01
  72   6     4.843832600000E-01  6.308126000000E-01  7.483669700000E-01
  73   8     5.607366800000E-01  2.803706300000E-01  2.496938200000E-01
  74   8     5.991599600000E-01  3.572250000000E-01  7.496938100000E-01
  75   8     7.196817000000E-01  2.803783300000E-01  2.522162800000E-01
  76   8     7.581049800000E-01  3.572327000000E-01  7.522162800000E-01
  77   8     7.196794200000E-01  4.393234600000E-01  2.484107200000E-01
  78   8     7.581027000000E-01  5.161778300000E-01  7.484107200000E-01
  79   8     2.803245100000E-01  7.196511100000E-01  2.496938300000E-01
  80   8     3.187477900000E-01  7.965054800000E-01  7.496938300000E-01
  81   8     2.803439700000E-01  5.606956100000E-01  2.522162700000E-01
  82   8     3.187672500000E-01  6.375499800000E-01  7.522162700000E-01
  83   8     4.392638400000E-01  7.196354200000E-01  2.484107200000E-01
  84   8     4.776871200000E-01  7.964897900000E-01  7.484107200000E-01

 *******************************************************************************

 << INFORMATION >>: FROM NOW ON, ALL COORDINATES REFER TO THE PRIMITIVE CELL

 *******************************************************************************

 LATTICE PARAMETERS  (ANGSTROMS AND DEGREES) - PRIMITIVE CELL
       A          B          C        ALPHA      BETA     GAMMA        VOLUME
   15.02361   15.02392    8.40000    90.00032  89.99994 119.99596   1642.045003

 COORDINATES OF THE EQUIVALENT ATOMS (FRACTIONAL UNITS)

 N. ATOM EQUIV AT. N.          X                  Y                  Z

   1   1   1    5 B    -3.86319460000E-01  2.27318220000E-01  2.50568660000E-01

   2   2   1    5 B    -3.47896180000E-01  3.04172590000E-01 -2.49431340000E-01

   3   3   1    5 B    -2.27263800000E-01  3.86377880000E-01  2.50568670000E-01

   4   4   1    5 B    -1.88840520000E-01  4.63232250000E-01 -2.49431340000E-01

   5   5   1    5 B    -3.86323730000E-01  3.86360670000E-01  2.49373040000E-01

   6   6   1    5 B    -3.47900450000E-01  4.63215040000E-01 -2.50626960000E-01

   7   7   1    5 B     2.27255250000E-01 -3.86366780000E-01  2.50568670000E-01

   8   8   1    5 B     2.65678530000E-01 -3.09512410000E-01 -2.49431340000E-01

   9   9   1    5 B     3.86363220000E-01 -3.86387550000E-01  2.50568660000E-01

  10  10   1    5 B     4.24786500000E-01 -3.09533180000E-01 -2.49431340000E-01

  11  11   1    5 B     3.86343500000E-01 -2.27248350000E-01  2.49373040000E-01

  12  12   1    5 B     4.24766780000E-01 -1.50393980000E-01 -2.50626950000E-01

  13  13   1    1 H    -9.69563800000E-02  3.08930050000E-01  2.48089900000E-01

  14  14   1    1 H    -5.85331000000E-02  3.85784420000E-01 -2.51910090000E-01

  15  15   1    1 H     9.66345300000E-02 -3.08946560000E-01  2.47710870000E-01

  16  16   1    1 H     1.35057810000E-01 -2.32092190000E-01 -2.52289140000E-01

  17  17   1    1 H    -9.70285800000E-02 -4.05927570000E-01  2.47652520000E-01

  18  18   1    1 H    -5.86053000000E-02 -3.29073200000E-01 -2.52347470000E-01

  19  19   1    1 H     9.67361800000E-02  4.05684940000E-01  2.47667070000E-01

  20  20   1    1 H     1.35159460000E-01  4.82539310000E-01 -2.52332930000E-01

  21  21   1    1 H    -3.08967600000E-01  9.70041200000E-02  2.51910110000E-01

  22  22   1    1 H    -2.70544320000E-01  1.73858490000E-01 -2.48089890000E-01

  23  23   1    1 H     3.08929720000E-01 -9.65626900000E-02  2.52289180000E-01

  24  24   1    1 H     3.47353000000E-01 -1.97083200000E-02 -2.47710820000E-01

  25  25   1    1 H     4.05869990000E-01  9.70499800000E-02  2.52347550000E-01

  26  26   1    1 H     4.44293270000E-01  1.73904350000E-01 -2.47652450000E-01

  27  27   1    1 H    -4.05687790000E-01 -9.66526800000E-02  2.52332900000E-01

  28  28   1    1 H    -3.67264510000E-01 -1.97983100000E-02 -2.47667100000E-01

  29  29   1    1 H    -3.08927260000E-01 -4.05945790000E-01  2.48089930000E-01

  30  30   1    1 H    -2.70503980000E-01 -3.29091420000E-01 -2.51910070000E-01

  31  31   1    1 H     3.08961830000E-01  4.05609330000E-01  2.47710840000E-01

  32  32   1    1 H     3.47385110000E-01  4.82463700000E-01 -2.52289160000E-01

  33  33   1    1 H     4.05840570000E-01  3.08823250000E-01  2.47652480000E-01

  34  34   1    1 H     4.44263850000E-01  3.85677620000E-01 -2.52347520000E-01

  35  35   1    1 H    -4.05709120000E-01 -3.09042070000E-01  2.47667120000E-01

  36  36   1    1 H    -3.67285840000E-01 -2.32187700000E-01 -2.52332880000E-01

  37  37   1    6 C    -1.08109690000E-01  4.45943690000E-01  2.49329300000E-01

  38  38   1    6 C    -6.96864100000E-02 -4.77201940000E-01 -2.50670700000E-01

  39  39   1    6 C    -5.35108900000E-02  3.92785630000E-01  2.48148240000E-01

  40  40   1    6 C    -1.50876100000E-02  4.69640000000E-01 -2.51851760000E-01

  41  41   1    6 C     5.33881200000E-02 -3.92814700000E-01  2.48046210000E-01

  42  42   1    6 C     9.18114000000E-02 -3.15960330000E-01 -2.51953790000E-01

  43  43   1    6 C    -5.35478900000E-02 -4.46307810000E-01  2.48352400000E-01

  44  44   1    6 C    -1.51246100000E-02 -3.69453440000E-01 -2.51647600000E-01

  45  45   1    6 C     5.34263400000E-02  4.46249970000E-01  2.47565010000E-01

  46  46   1    6 C     9.18496200000E-02 -4.76895660000E-01 -2.52434990000E-01

  47  47   1    6 C     1.08035890000E-01 -4.45964370000E-01  2.48366970000E-01

  48  48   1    6 C     1.46459170000E-01 -3.69110000000E-01 -2.51633030000E-01

  49  49   1    6 C    -4.45960580000E-01  1.08168460000E-01  2.50670730000E-01

  50  50   1    6 C    -4.07537300000E-01  1.85022830000E-01 -2.49329270000E-01

  51  51   1    6 C    -3.92822150000E-01  5.35559400000E-02  2.51851770000E-01

  52  52   1    6 C    -3.54398870000E-01  1.30410310000E-01 -2.48148230000E-01

  53  53   1    6 C     3.92798670000E-01 -5.33368400000E-02  2.51953840000E-01

  54  54   1    6 C     4.31221950000E-01  2.35175300000E-02 -2.48046160000E-01

  55  55   1    6 C     4.46287580000E-01  5.36028600000E-02  2.51647660000E-01

  56  56   1    6 C     4.84710860000E-01  1.30457230000E-01 -2.48352350000E-01

  57  57   1    6 C    -4.46283150000E-01 -5.33764400000E-02  2.52434990000E-01

  58  58   1    6 C    -4.07859870000E-01  2.34779300000E-02 -2.47565010000E-01

  59  59   1    6 C     4.45927910000E-01 -1.08007940000E-01  2.51633050000E-01

  60  60   1    6 C     4.84351190000E-01 -3.11535700000E-02 -2.48366950000E-01

  61  61   1    6 C    -4.45955130000E-01  4.45874550000E-01  2.49329300000E-01

  62  62   1    6 C    -4.07531850000E-01 -4.77271080000E-01 -2.50670700000E-01

  63  63   1    6 C    -3.92789780000E-01 -4.46374220000E-01  2.48148260000E-01

  64  64   1    6 C    -3.54366500000E-01 -3.69519850000E-01 -2.51851740000E-01

  65  65   1    6 C     3.92823370000E-01  4.46172030000E-01  2.48046190000E-01

  66  66   1    6 C     4.31246650000E-01 -4.76973600000E-01 -2.51953810000E-01

  67  67   1    6 C     4.46287260000E-01  3.92689990000E-01  2.48352370000E-01

  68  68   1    6 C     4.84710540000E-01  4.69544360000E-01 -2.51647630000E-01

  69  69   1    6 C    -4.46257040000E-01 -3.92902000000E-01  2.47565050000E-01

  70  70   1    6 C    -4.07833760000E-01 -3.16047630000E-01 -2.52434960000E-01

  71  71   1    6 C     4.45959980000E-01 -4.46041770000E-01  2.48366970000E-01

  72  72   1    6 C     4.84383260000E-01 -3.69187400000E-01 -2.51633030000E-01

  73  73   1    8 O    -4.39263320000E-01  2.80370630000E-01  2.49693820000E-01

  74  74   1    8 O    -4.00840040000E-01  3.57225000000E-01 -2.50306190000E-01

  75  75   1    8 O    -2.80318300000E-01  2.80378330000E-01  2.52216280000E-01

  76  76   1    8 O    -2.41895020000E-01  3.57232700000E-01 -2.47783720000E-01

  77  77   1    8 O    -2.80320580000E-01  4.39323460000E-01  2.48410720000E-01

  78  78   1    8 O    -2.41897300000E-01 -4.83822170000E-01 -2.51589280000E-01

  79  79   1    8 O     2.80324510000E-01 -2.80348890000E-01  2.49693830000E-01

  80  80   1    8 O     3.18747790000E-01 -2.03494520000E-01 -2.50306170000E-01

  81  81   1    8 O     2.80343970000E-01 -4.39304390000E-01  2.52216270000E-01

  82  82   1    8 O     3.18767250000E-01 -3.62450020000E-01 -2.47783730000E-01

  83  83   1    8 O     4.39263840000E-01 -2.80364580000E-01  2.48410720000E-01

  84  84   1    8 O     4.77687120000E-01 -2.03510210000E-01 -2.51589280000E-01

 NUMBER OF SYMMETRY OPERATORS         :    1
 *******************************************************************************
 * GEOMETRY EDITING - INPUT COORDINATES ARE GIVEN IN ANGSTROM         
 *******************************************************************************

 GCALCO - MAX INDICES DIRECT LATTICE VECTOR    12    12    20
 NO.OF VECTORS CREATED 6999 STARS 3500 RMAX   264.54886 BOHR

 GEOMETRY FOR WAVE FUNCTION - DIMENSIONALITY OF THE SYSTEM    3
 (NON PERIODIC DIRECTION: LATTICE PARAMETER FORMALLY SET TO 500)
 *******************************************************************************
 LATTICE PARAMETERS (ANGSTROMS AND DEGREES) - BOHR = 0.5291772083 ANGSTROM
 PRIMITIVE CELL - CENTRING CODE 1/0 VOLUME=  1642.045003 - DENSITY  0.789 g/cm^3
         A              B              C           ALPHA      BETA       GAMMA 
    15.02361100    15.02391600     8.40000000    90.000323  89.999944 119.995964
 *******************************************************************************
 ATOMS IN THE ASYMMETRIC UNIT   84 - ATOMS IN THE UNIT CELL:   84
     ATOM                 X/A                 Y/B                 Z/C    
 *******************************************************************************
      1 T   5 B    -3.863194600000E-01  2.273182200000E-01  2.505686600000E-01
      2 T   5 B    -3.478961800000E-01  3.041725900000E-01 -2.494313400000E-01
      3 T   5 B    -2.272638000000E-01  3.863778800000E-01  2.505686700000E-01
      4 T   5 B    -1.888405200000E-01  4.632322500000E-01 -2.494313400000E-01
      5 T   5 B    -3.863237300000E-01  3.863606700000E-01  2.493730400000E-01
      6 T   5 B    -3.479004500000E-01  4.632150400000E-01 -2.506269600000E-01
      7 T   5 B     2.272552500000E-01 -3.863667800000E-01  2.505686700000E-01
      8 T   5 B     2.656785300000E-01 -3.095124100000E-01 -2.494313400000E-01
      9 T   5 B     3.863632200000E-01 -3.863875500000E-01  2.505686600000E-01
     10 T   5 B     4.247865000000E-01 -3.095331800000E-01 -2.494313400000E-01
     11 T   5 B     3.863435000000E-01 -2.272483500000E-01  2.493730400000E-01
     12 T   5 B     4.247667800000E-01 -1.503939800000E-01 -2.506269500000E-01
     13 T   1 H    -9.695638000000E-02  3.089300500000E-01  2.480899000000E-01
     14 T   1 H    -5.853310000000E-02  3.857844200000E-01 -2.519100900000E-01
     15 T   1 H     9.663453000000E-02 -3.089465600000E-01  2.477108700000E-01
     16 T   1 H     1.350578100000E-01 -2.320921900000E-01 -2.522891400000E-01
     17 T   1 H    -9.702858000000E-02 -4.059275700000E-01  2.476525200000E-01
     18 T   1 H    -5.860530000000E-02 -3.290732000000E-01 -2.523474700000E-01
     19 T   1 H     9.673618000000E-02  4.056849400000E-01  2.476670700000E-01
     20 T   1 H     1.351594600000E-01  4.825393100000E-01 -2.523329300000E-01
     21 T   1 H    -3.089676000000E-01  9.700412000000E-02  2.519101100000E-01
     22 T   1 H    -2.705443200000E-01  1.738584900000E-01 -2.480898900000E-01
     23 T   1 H     3.089297200000E-01 -9.656269000000E-02  2.522891800000E-01
     24 T   1 H     3.473530000000E-01 -1.970832000000E-02 -2.477108200000E-01
     25 T   1 H     4.058699900000E-01  9.704998000000E-02  2.523475500000E-01
     26 T   1 H     4.442932700000E-01  1.739043500000E-01 -2.476524500000E-01
     27 T   1 H    -4.056877900000E-01 -9.665268000000E-02  2.523329000000E-01
     28 T   1 H    -3.672645100000E-01 -1.979831000000E-02 -2.476671000000E-01
     29 T   1 H    -3.089272600000E-01 -4.059457900000E-01  2.480899300000E-01
     30 T   1 H    -2.705039800000E-01 -3.290914200000E-01 -2.519100700000E-01
     31 T   1 H     3.089618300000E-01  4.056093300000E-01  2.477108400000E-01
     32 T   1 H     3.473851100000E-01  4.824637000000E-01 -2.522891600000E-01
     33 T   1 H     4.058405700000E-01  3.088232500000E-01  2.476524800000E-01
     34 T   1 H     4.442638500000E-01  3.856776200000E-01 -2.523475200000E-01
     35 T   1 H    -4.057091200000E-01 -3.090420700000E-01  2.476671200000E-01
     36 T   1 H    -3.672858400000E-01 -2.321877000000E-01 -2.523328800000E-01
     37 T   6 C    -1.081096900000E-01  4.459436900000E-01  2.493293000000E-01
     38 T   6 C    -6.968641000000E-02 -4.772019400000E-01 -2.506707000000E-01
     39 T   6 C    -5.351089000000E-02  3.927856300000E-01  2.481482400000E-01
     40 T   6 C    -1.508761000000E-02  4.696400000000E-01 -2.518517600000E-01
     41 T   6 C     5.338812000000E-02 -3.928147000000E-01  2.480462100000E-01
     42 T   6 C     9.181140000000E-02 -3.159603300000E-01 -2.519537900000E-01
     43 T   6 C    -5.354789000000E-02 -4.463078100000E-01  2.483524000000E-01
     44 T   6 C    -1.512461000000E-02 -3.694534400000E-01 -2.516476000000E-01
     45 T   6 C     5.342634000000E-02  4.462499700000E-01  2.475650100000E-01
     46 T   6 C     9.184962000000E-02 -4.768956600000E-01 -2.524349900000E-01
     47 T   6 C     1.080358900000E-01 -4.459643700000E-01  2.483669700000E-01
     48 T   6 C     1.464591700000E-01 -3.691100000000E-01 -2.516330300000E-01
     49 T   6 C    -4.459605800000E-01  1.081684600000E-01  2.506707300000E-01
     50 T   6 C    -4.075373000000E-01  1.850228300000E-01 -2.493292700000E-01
     51 T   6 C    -3.928221500000E-01  5.355594000000E-02  2.518517700000E-01
     52 T   6 C    -3.543988700000E-01  1.304103100000E-01 -2.481482300000E-01
     53 T   6 C     3.927986700000E-01 -5.333684000000E-02  2.519538400000E-01
     54 T   6 C     4.312219500000E-01  2.351753000000E-02 -2.480461600000E-01
     55 T   6 C     4.462875800000E-01  5.360286000000E-02  2.516476600000E-01
     56 T   6 C     4.847108600000E-01  1.304572300000E-01 -2.483523500000E-01
     57 T   6 C    -4.462831500000E-01 -5.337644000000E-02  2.524349900000E-01
     58 T   6 C    -4.078598700000E-01  2.347793000000E-02 -2.475650100000E-01
     59 T   6 C     4.459279100000E-01 -1.080079400000E-01  2.516330500000E-01
     60 T   6 C     4.843511900000E-01 -3.115357000000E-02 -2.483669500000E-01
     61 T   6 C    -4.459551300000E-01  4.458745500000E-01  2.493293000000E-01
     62 T   6 C    -4.075318500000E-01 -4.772710800000E-01 -2.506707000000E-01
     63 T   6 C    -3.927897800000E-01 -4.463742200000E-01  2.481482600000E-01
     64 T   6 C    -3.543665000000E-01 -3.695198500000E-01 -2.518517400000E-01
     65 T   6 C     3.928233700000E-01  4.461720300000E-01  2.480461900000E-01
     66 T   6 C     4.312466500000E-01 -4.769736000000E-01 -2.519538100000E-01
     67 T   6 C     4.462872600000E-01  3.926899900000E-01  2.483523700000E-01
     68 T   6 C     4.847105400000E-01  4.695443600000E-01 -2.516476300000E-01
     69 T   6 C    -4.462570400000E-01 -3.929020000000E-01  2.475650500000E-01
     70 T   6 C    -4.078337600000E-01 -3.160476300000E-01 -2.524349600000E-01
     71 T   6 C     4.459599800000E-01 -4.460417700000E-01  2.483669700000E-01
     72 T   6 C     4.843832600000E-01 -3.691874000000E-01 -2.516330300000E-01
     73 T   8 O    -4.392633200000E-01  2.803706300000E-01  2.496938200000E-01
     74 T   8 O    -4.008400400000E-01  3.572250000000E-01 -2.503061900000E-01
     75 T   8 O    -2.803183000000E-01  2.803783300000E-01  2.522162800000E-01
     76 T   8 O    -2.418950200000E-01  3.572327000000E-01 -2.477837200000E-01
     77 T   8 O    -2.803205800000E-01  4.393234600000E-01  2.484107200000E-01
     78 T   8 O    -2.418973000000E-01 -4.838221700000E-01 -2.515892800000E-01
     79 T   8 O     2.803245100000E-01 -2.803488900000E-01  2.496938300000E-01
     80 T   8 O     3.187477900000E-01 -2.034945200000E-01 -2.503061700000E-01
     81 T   8 O     2.803439700000E-01 -4.393043900000E-01  2.522162700000E-01
     82 T   8 O     3.187672500000E-01 -3.624500200000E-01 -2.477837300000E-01
     83 T   8 O     4.392638400000E-01 -2.803645800000E-01  2.484107200000E-01
     84 T   8 O     4.776871200000E-01 -2.035102100000E-01 -2.515892800000E-01

 T = ATOM BELONGING TO THE ASYMMETRIC UNIT

 ****    1 SYMMOPS - TRANSLATORS IN FRACTIONAL UNITS
 **** MATRICES AND TRANSLATORS IN THE CRYSTALLOGRAPHIC REFERENCE FRAME
   V INV                    ROTATION MATRICES                   TRANSLATORS
   1   1  1.00  0.00  0.00  0.00  1.00  0.00 -0.00  0.00  1.00  0.00  0.00  0.00

 DIRECT LATTICE VECTORS CARTESIAN COMPONENTS (ANGSTROM)
          X                    Y                    Z
   0.130113578931E+02  -0.751088897922E+01   0.000000000000E+00
   0.000000000000E+00   0.150239160000E+02   0.000000000000E+00
  -0.178558158248E-04  -0.473542732632E-04   0.839999999985E+01


 CARTESIAN COORDINATES - PRIMITIVE CELL
 *******************************************************************************
 *      ATOM          X(ANGSTROM)         Y(ANGSTROM)         Z(ANGSTROM)
 *******************************************************************************
    1     5 B    -5.026545229220E+00  6.316800551624E+00  2.104776743962E+00
    2     5 B    -4.526597253807E+00  7.182884837576E+00 -2.095223255962E+00
    3     5 B    -2.957015112044E+00  7.511850118676E+00  2.104776827962E+00
    4     5 B    -2.457067136631E+00 -6.645981595372E+00 -2.095223255962E+00
    5     5 B    -5.026600766370E+00 -6.317642911029E+00  2.094733535962E+00
    6     5 B    -4.526652790957E+00 -5.451558625076E+00 -2.105266463962E+00
    7     5 B     2.956894916718E+00 -7.511642866102E+00  2.104776827962E+00
    8     5 B     3.456842892131E+00 -6.645558580149E+00 -2.095223255962E+00
    9     5 B     5.027105658026E+00  6.316918788785E+00  2.104776743962E+00
   10     5 B    -7.484304259618E+00 -3.300239460465E-01 -2.095223255962E+00
   11     5 B     5.026849095397E+00 -6.315955066760E+00  2.094733535962E+00
   12     5 B     5.526797070810E+00 -5.449870780808E+00 -2.105266379962E+00
   13     1 H    -1.261538590043E+00  5.369555978966E+00  2.083955159962E+00
   14     1 H    -7.615906146299E-01  6.235640264917E+00 -2.116044755962E+00
   15     1 H     1.257342031578E+00 -5.367410122486E+00  2.080771307962E+00
   16     1 H     1.757290006991E+00 -4.501325836533E+00 -2.119228775962E+00
   17     1 H    -1.262478002273E+00 -5.369862548978E+00  2.080281167962E+00
   18     1 H    -7.625300268600E-01 -4.503778263026E+00 -2.119718747962E+00
   19     1 H     1.258664636890E+00  5.368390024677E+00  2.080403387962E+00
   20     1 H     1.758612612303E+00  6.234474310630E+00 -2.119596611962E+00
   21     1 H    -4.020092519019E+00  3.777991163289E+00  2.116044923962E+00
   22     1 H    -3.520144543606E+00  4.644075449241E+00 -2.083955075962E+00
   23     1 H     4.019590645893E+00 -3.771098519565E+00  2.119229111962E+00
   24     1 H     4.519538621306E+00 -2.905014233613E+00 -2.080770887962E+00
   25     1 H     5.280915192070E+00 -1.590385637299E+00  2.119719419962E+00
   26     1 H     5.780863167483E+00 -7.243013513466E-01 -2.080280579962E+00
   27     1 H    -5.278553534143E+00  1.594962256378E+00  2.119596359962E+00
   28     1 H    -4.778605558730E+00  2.461046542330E+00 -2.080403639962E+00
   29     1 H    -4.019567572629E+00 -3.778588845118E+00  2.083955411962E+00
   30     1 H    -3.519619597216E+00 -2.912504559166E+00 -2.116044587962E+00
   31     1 H     4.020008522345E+00  3.773250768624E+00  2.080771055962E+00
   32     1 H     4.519956497758E+00  4.639335054576E+00 -2.119228943962E+00
   33     1 H     5.280532481755E+00  1.591499374912E+00  2.080280831962E+00
   34     1 H     5.780480457168E+00  2.457583660864E+00 -2.119719167962E+00
   35     1 H    -5.278830983096E+00 -1.595797670067E+00  2.080403807962E+00
   36     1 H    -4.778883007682E+00 -7.297133841148E-01 -2.119596191962E+00
   37     6 C    -1.406658320275E+00  7.511808611650E+00  2.094366119962E+00
   38     6 C    -9.067103448624E-01 -6.646023102398E+00 -2.105633879962E+00
   39     6 C    -6.962537718553E-01  6.303080914217E+00  2.084445215962E+00
   40     6 C    -1.963057964422E-01  7.169165200169E+00 -2.115554783962E+00
   41     6 C     6.946475074900E-01 -6.302619044542E+00  2.083588163962E+00
   42     6 C     1.194595482903E+00 -5.436534758590E+00 -2.116411835962E+00
   43     6 C    -6.967351957427E-01 -6.303110551270E+00  2.086160159962E+00
   44     6 C    -1.967872203297E-01 -5.437026265318E+00 -2.113839839962E+00
   45     6 C     6.951448101809E-01  6.303131032716E+00  2.079546083962E+00
   46     6 C     1.195092785594E+00  7.169215318668E+00 -2.120453915962E+00
   47     6 C     1.405689195290E+00 -7.511588570671E+00  2.086282547962E+00
   48     6 C     1.905637170703E+00 -6.645504284719E+00 -2.113717451962E+00
   49     6 C     7.208800704551E+00 -2.536226587170E+00  2.105634131962E+00
   50     6 C     7.708748679964E+00 -1.670142301218E+00 -2.094365867962E+00
   51     6 C    -5.111154078989E+00  3.755051574831E+00  2.115554867962E+00
   52     6 C    -4.611206103576E+00  4.621135860783E+00 -2.084445131962E+00
   53     6 C     5.110839576445E+00 -3.751607336510E+00  2.116412255962E+00
   54     6 C     5.610787551858E+00 -2.885523050558E+00 -2.083587743962E+00
   55     6 C     5.806802933232E+00 -2.546703516775E+00  2.113840343962E+00
   56     6 C     6.306750908645E+00 -1.680619230823E+00 -2.086159739962E+00
   57     6 C    -5.806754293723E+00  2.550048088130E+00  2.120453915962E+00
   58     6 C    -5.306806318310E+00  3.416132374083E+00 -2.079546083962E+00
   59     6 C     5.802123138399E+00 -4.972029158537E+00  2.113717619962E+00
   60     6 C     6.302071113812E+00 -4.105944872585E+00 -2.086282379962E+00
   61     6 C     7.208871640404E+00  2.537400470856E+00  2.094366119962E+00
   62     6 C    -5.302538277240E+00 -4.109542263976E+00 -2.105633879962E+00
   63     6 C    -5.110732835205E+00 -3.756100106975E+00  2.084445383962E+00
   64     6 C    -4.610784859792E+00 -2.890015821023E+00 -2.115554615962E+00
   65     6 C     5.111161026760E+00  3.752786633711E+00  2.083587995962E+00
   66     6 C     5.611109002173E+00  4.618870919663E+00 -2.116412003962E+00
   67     6 C     5.806798828437E+00  2.547715600556E+00  2.086159907962E+00
   68     6 C     6.306746803850E+00  3.413799886508E+00 -2.113840091962E+00
   69     6 C    -5.806414480212E+00 -2.551151283861E+00  2.079546419962E+00
   70     6 C    -5.306466504799E+00 -1.685066997909E+00 -2.120453663962E+00
   71     6 C     5.802540470965E+00  4.973054254838E+00  2.086282547962E+00
   72     6 C    -6.708869446678E+00 -1.673888479994E+00 -2.113717451962E+00
   73     8 O     7.295941168757E+00  6.220198632697E-04  2.097428087962E+00
   74     8 O     7.795889144171E+00  8.667063058159E-01 -2.102571995962E+00
   75     8 O    -3.647326228801E+00  6.317808164764E+00  2.118616751962E+00
   76     8 O    -3.147378253388E+00  7.183892450717E+00 -2.081383247962E+00
   77     8 O    -3.647355826745E+00 -6.318112248470E+00  2.086650047962E+00
   78     8 O    -3.147407851332E+00 -5.452027962518E+00 -2.113349951962E+00
   79     8 O     3.647398067319E+00 -6.317436270886E+00  2.097428171962E+00
   80     8 O     4.147346042732E+00 -5.451351984934E+00 -2.102571827962E+00
   81     8 O     3.647651223303E+00  6.318199368028E+00  2.118616667962E+00
   82     8 O     4.147599198716E+00  7.184283653980E+00 -2.081383331962E+00
   83     8 O    -7.295943296914E+00 -5.586182122386E-04  2.086650047962E+00
   84     8 O    -6.795995321501E+00  8.655256677400E-01 -2.113349951962E+00

 *******************************************************************************
 STARTING BASIS SET HANDLING 
 *******************************************************************************

 Loading internal basis set: SOLDEF2MSVP         

 Please cite in your publication:
 L. Dona', J. G. Brandenburg and B. Civalleri, J. Chem. Phys., 151, 121101 (2019
 )                                                                              
                                                                                
                    

 *******************************************************************************
 LOCAL ATOMIC FUNCTIONS BASIS SET
 *******************************************************************************
   ATOM   X(AU)   Y(AU)   Z(AU)  N. TYPE  EXPONENT  S COEF   P COEF   D/F/G COEF
 *******************************************************************************
   1 B   -9.499  11.937   3.977
                                  1 S  
                                         2.410E+03 1.755E-03 0.000E+00 0.000E+00
                                         3.619E+02 1.344E-02 0.000E+00 0.000E+00
                                         8.231E+01 6.637E-02 0.000E+00 0.000E+00
                                         2.311E+01 2.303E-01 0.000E+00 0.000E+00
                                         7.252E+00 5.150E-01 0.000E+00 0.000E+00
                                  2 S  
                                         2.367E+00 1.000E+00 0.000E+00 0.000E+00
                                  3 S  
                                         5.533E-01 1.000E+00 0.000E+00 0.000E+00
                                  4 S  
                                         1.716E-01 1.000E+00 0.000E+00 0.000E+00
                           5-     7 P  
                                         6.002E+00 0.000E+00-3.555E-02 0.000E+00
                                         1.240E+00 0.000E+00-1.983E-01 0.000E+00
                                         3.367E-01 0.000E+00-5.048E-01 0.000E+00
                           8-    10 P  
                                         1.256E-01 0.000E+00 1.000E+00 0.000E+00
                          11-    15 D  
                                         8.880E-01 0.000E+00 0.000E+00 1.000E+00
   2 B   -8.554  13.574  -3.959
   3 B   -5.588  14.195   3.977
   4 B   -4.643 -12.559  -3.959
   5 B   -9.499 -11.939   3.958
   6 B   -8.554 -10.302  -3.978
   7 B    5.588 -14.195   3.977
   8 B    6.532 -12.558  -3.959
   9 B    9.500  11.937   3.977
  10 B  -14.143  -0.624  -3.959
  11 B    9.499 -11.935   3.958
  12 B   10.444 -10.299  -3.978
  13 H   -2.384  10.147   3.938
                                181 S  
                                         1.874E+01 1.968E-02 0.000E+00 0.000E+00
                                         2.826E+00 1.380E-01 0.000E+00 0.000E+00
                                         6.401E-01 4.783E-01 0.000E+00 0.000E+00
                                182 S  
                                         1.756E-01 1.000E+00 0.000E+00 0.000E+00
  14 H   -1.439  11.784  -3.999
  15 H    2.376 -10.143   3.932
  16 H    3.321  -8.506  -4.005
  17 H   -2.386 -10.148   3.931
  18 H   -1.441  -8.511  -4.006
  19 H    2.379  10.145   3.931
  20 H    3.323  11.781  -4.005
  21 H   -7.597   7.139   3.999
  22 H   -6.652   8.776  -3.938
  23 H    7.596  -7.126   4.005
  24 H    8.541  -5.490  -3.932
  25 H    9.979  -3.005   4.006
  26 H   10.924  -1.369  -3.931
  27 H   -9.975   3.014   4.005
  28 H   -9.030   4.651  -3.931
  29 H   -7.596  -7.140   3.938
  30 H   -6.651  -5.504  -3.999
  31 H    7.597   7.130   3.932
  32 H    8.541   8.767  -4.005
  33 H    9.979   3.007   3.931
  34 H   10.924   4.644  -4.006
  35 H   -9.976  -3.016   3.931
  36 H   -9.031  -1.379  -4.005
  37 C   -2.658  14.195   3.958
                                229 S  
                                         3.624E+03 1.634E-03 0.000E+00 0.000E+00
                                         5.440E+02 1.252E-02 0.000E+00 0.000E+00
                                         1.237E+02 6.211E-02 0.000E+00 0.000E+00
                                         3.476E+01 2.182E-01 0.000E+00 0.000E+00
                                         1.093E+01 4.980E-01 0.000E+00 0.000E+00
                                230 S  
                                         3.574E+00 1.000E+00 0.000E+00 0.000E+00
                                231 S  
                                         7.742E-01 1.000E+00 0.000E+00 0.000E+00
                                232 S  
                                         2.330E-01 1.000E+00 0.000E+00 0.000E+00
                         233-   235 P  
                                         9.443E+00 0.000E+00 3.790E-02 0.000E+00
                                         2.002E+00 0.000E+00 2.082E-01 0.000E+00
                                         5.463E-01 0.000E+00 5.047E-01 0.000E+00
                         236-   238 P  
                                         1.820E-01 0.000E+00 1.000E+00 0.000E+00
                         239-   243 D  
                                         8.880E-01 0.000E+00 0.000E+00 1.000E+00
  38 C   -1.713 -12.559  -3.979
  39 C   -1.316  11.911   3.939
  40 C   -0.371  13.548  -3.998
  41 C    1.313 -11.910   3.937
  42 C    2.257 -10.274  -3.999
  43 C   -1.317 -11.911   3.942
  44 C   -0.372 -10.274  -3.995
  45 C    1.314  11.911   3.930
  46 C    2.258  13.548  -4.007
  47 C    2.656 -14.195   3.943
  48 C    3.601 -12.558  -3.994
  49 C   13.623  -4.793   3.979
  50 C   14.567  -3.156  -3.958
  51 C   -9.659   7.096   3.998
  52 C   -8.714   8.733  -3.939
  53 C    9.658  -7.090   3.999
  54 C   10.603  -5.453  -3.937
  55 C   10.973  -4.813   3.995
  56 C   11.918  -3.176  -3.942
  57 C  -10.973   4.819   4.007
  58 C  -10.028   6.456  -3.930
  59 C   10.964  -9.396   3.994
  60 C   11.909  -7.759  -3.943
  61 C   13.623   4.795   3.958
  62 C  -10.020  -7.766  -3.979
  63 C   -9.658  -7.098   3.939
  64 C   -8.713  -5.461  -3.998
  65 C    9.659   7.092   3.937
  66 C   10.603   8.728  -3.999
  67 C   10.973   4.814   3.942
  68 C   11.918   6.451  -3.995
  69 C  -10.973  -4.821   3.930
  70 C  -10.028  -3.184  -4.007
  71 C   10.965   9.398   3.943
  72 C  -12.678  -3.163  -3.994
  73 O   13.787   0.001   3.964
                                769 S  
                                         6.773E+03 1.727E-03 0.000E+00 0.000E+00
                                         1.017E+03 1.325E-02 0.000E+00 0.000E+00
                                         2.313E+02 6.603E-02 0.000E+00 0.000E+00
                                         6.501E+01 2.353E-01 0.000E+00 0.000E+00
                                         2.050E+01 5.498E-01 0.000E+00 0.000E+00
                                770 S  
                                         6.716E+00 1.000E+00 0.000E+00 0.000E+00
                                771 S  
                                         1.147E+00 1.000E+00 0.000E+00 0.000E+00
                                772 S  
                                         3.342E-01 1.000E+00 0.000E+00 0.000E+00
                         773-   775 P  
                                         1.769E+01 0.000E+00 4.359E-02 0.000E+00
                                         3.854E+00 0.000E+00 2.318E-01 0.000E+00
                                         1.047E+00 0.000E+00 5.146E-01 0.000E+00
                         776-   778 P  
                                         2.759E-01 0.000E+00 1.000E+00 0.000E+00
                         779-   783 D  
                                         8.000E-01 0.000E+00 0.000E+00 1.000E+00
  74 O   14.732   1.638  -3.973
  75 O   -6.892  11.939   4.004
  76 O   -5.948  13.576  -3.933
  77 O   -6.893 -11.940   3.943
  78 O   -5.948 -10.303  -3.994
  79 O    6.893 -11.938   3.964
  80 O    7.837 -10.302  -3.973
  81 O    6.893  11.940   4.004
  82 O    7.838  13.576  -3.933
  83 O  -13.787  -0.001   3.943
  84 O  -12.843   1.636  -3.994

 *******************************************************************************
 FINISHED BASIS SET HANDLING 
 *******************************************************************************

 INFORMATION **** SET_MPP **** PCRYSTAL CALCULATION
 INFORMATION **** READM2 **** NEW DEFAULT: FOCK/KS MATRIX MIXING SET TO 30 %
 INFORMATION **** READM2 **** NEW DEFAULT: FULL DIRECT SCF MODE
 INFORMATION **** READM2 **** NEW DEFAULT: COULOMB BIPOLAR BUFFER SET TO 32 Mb
 INFORMATION **** READM2 **** NEW DEFAULT: EXCHANGE BIPOLAR BUFFER SET TO 32 Mb

 *******************************************************************************
 NEW DEFAULT: DFT INTEGRATION GRID INCREASED TO XLGRID
 NEW DEFAULT: DIIS ACCELERATOR ACTIVE
 USE KEYWORD NODIIS TO TURN IT OFF
 *******************************************************************************

 WARNING **** RDDFTP **** HSEsol-HJS ACTIVE
 RANGE SEPARATION - OMEGA:   0.110000000000000     
 WARNING **** RDDFTP **** HSEsol-3c has to be combined with sol-def2-mSVP basis set
 *******************************************************************************
 N. OF ATOMS PER CELL        84  COULOMB OVERLAP TOL         (T1) 10**   -6
 NUMBER OF SHELLS           468  COULOMB PENETRATION TOL     (T2) 10**   -6
 NUMBER OF AO               948  EXCHANGE OVERLAP TOL        (T3) 10**   -6
 N. OF ELECTRONS PER CELL   396  EXCHANGE PSEUDO OVP (F(G))  (T4) 10**   -6
 CORE ELECTRONS PER CELL    120  EXCHANGE PSEUDO OVP (P(G))  (T5) 10**  -12
 N. OF SYMMETRY OPERATORS     1  POLE ORDER IN MONO ZONE                  4
 *******************************************************************************
 TYPE OF CALCULATION :  RESTRICTED CLOSED SHELL
 KOHN-SHAM HAMILTONIAN

 (EXCHANGE)[CORRELATION] FUNCTIONAL:(HSEsol GGA)[PBEsol]

 RANGE-SEPARATED HYBRID FUNCTIONAL 
 OMEGA (SHORT-RANGE)[LONG-RANGE]:(    0.1100)[    0.0000]

 HYBRID EXCHANGE - PERCENTAGE OF FOCK EXCHANGE    25.0000

 CAPPA:IS1  2;IS2  2;IS3  8; K PTS MONK NET  20; SYMMOPS:K SPACE   2;G SPACE   1

 *******************************************************************************
 MAX NUMBER OF SCF CYCLES      50  CONVERGENCE ON DELTAP        10**-16
 WEIGHT OF F(I) IN F(I+1)      30% CONVERGENCE ON ENERGY        10**- 6
 SHRINK. FACT.(MONKH.)    2  2  8  NUMBER OF K POINTS IN THE IBZ     20
 SHRINKING FACTOR(GILAT NET)    8  NUMBER OF K POINTS(GILAT NET)   1028
 *******************************************************************************
 *** K POINTS COORDINATES (OBLIQUE COORDINATES IN UNITS OF IS =  2)
   1-R(  0  0  0)   2-R(  1  0  0)   3-R(  0  1  0)   4-R(  1  1  0)
   5-C(  0  0  1)   6-C(  1  0  1)   7-C(  0  1  1)   8-C(  1  1  1)
   9-C(  0  0  2)  10-C(  1  0  2)  11-C(  0  1  2)  12-C(  1  1  2)
  13-C(  0  0  3)  14-C(  1  0  3)  15-C(  0  1  3)  16-C(  1  1  3)
  17-R(  0  0  4)  18-R(  1  0  4)  19-R(  0  1  4)  20-R(  1  1  4)

 DIRECT LATTICE VECTORS COMPON. (A.U.)     RECIP. LATTICE VECTORS COMPON. (A.U.) 
        X            Y            Z              X            Y            Z
   24.5879030  -14.1935232    0.0000000      0.2555397    0.0000000    0.0000005
    0.0000000   28.3910867    0.0000000      0.1277517    0.2213084    0.0000015
   -0.0000337   -0.0000895   15.8736995      0.0000000    0.0000000    0.3958236

 DISK SPACE FOR EIGENVECTORS (FTN 10)    28758528 REALS

 SYMMETRY ADAPTION OF THE BLOCH FUNCTIONS DISABLED
 TTTTTTTTTTTTTTTTTTTTTTTTTTTTTT gordsh1     TELAPSE        0.05 TCPU        0.05

 MATRIX SIZE: P(G)  631364, F(G)  133116, P(G) IRR  317584, F(G) IRR  134076
 MAX G-VECTOR INDEX FOR 1- AND 2-ELECTRON INTEGRALS  47

 TTTTTTTTTTTTTTTTTTTTTTTTTTTTTT INPUT       TELAPSE        2.73 TCPU        2.73

 NEIGHBORS OF THE NON-EQUIVALENT ATOMS

 N = NUMBER OF NEIGHBORS AT DISTANCE R
    ATOM  N     R/ANG      R/AU   NEIGHBORS (ATOM LABELS AND CELL INDICES)
   1 B    1     1.3791     2.6061   73 O   -1 0 0
   1 B    1     1.3793     2.6065   75 O    0 0 0
   1 B    1     1.5503     2.9297   49 C   -1 0 0
   1 B    1     2.3895     4.5155    5 B    0 1 0
   1 B    1     2.3898     4.5160    3 B    0 0 0
   1 B    1     2.5632     4.8437   51 C    0 0 0

   2 B    1     1.3791     2.6061   74 O   -1 0 0
   2 B    1     1.3793     2.6065   76 O    0 0 0
   2 B    1     1.5503     2.9297   50 C   -1 0 0
   2 B    1     2.3895     4.5155    6 B    0 1 0
   2 B    1     2.3898     4.5160    4 B    0 1 0
   2 B    1     2.5632     4.8437   52 C    0 0 0

   3 B    1     1.3793     2.6065   77 O    0 1 0
   3 B    1     1.3793     2.6065   75 O    0 0 0
   3 B    1     1.5504     2.9298   37 C    0 0 0
   3 B    1     2.3895     4.5156    5 B    0 1 0
   3 B    1     2.3898     4.5160    1 B    0 0 0
   3 B    1     2.5634     4.8440   43 C    0 1 0

   4 B    1     1.3793     2.6065   78 O    0 0 0
   4 B    1     1.3793     2.6065   76 O    0-1 0
   4 B    1     1.5504     2.9298   38 C    0 0 0
   4 B    1     2.3895     4.5156    6 B    0 0 0
   4 B    1     2.3898     4.5160    2 B    0-1 0
   4 B    1     2.5634     4.8440   44 C    0 0 0

   5 B    1     1.3791     2.6061   73 O   -1-1 0
   5 B    1     1.3793     2.6064   77 O    0 0 0
   5 B    1     1.5502     2.9294   61 C   -1-1 0
   5 B    1     2.3895     4.5155    1 B    0-1 0
   5 B    1     2.3895     4.5156    3 B    0-1 0
   5 B    1     2.5629     4.8433   63 C    0 0 0

   6 B    1     1.3791     2.6061   74 O   -1-1 0
   6 B    1     1.3793     2.6064   78 O    0 0 0
   6 B    1     1.5502     2.9294   62 C    0 0 0
   6 B    1     2.3895     4.5155    2 B    0-1 0
   6 B    1     2.3895     4.5156    4 B    0 0 0
   6 B    1     2.5629     4.8433   64 C    0 0 0

   7 B    1     1.3795     2.6068   79 O    0 0 0
   7 B    1     1.3795     2.6070   81 O    0-1 0
   7 B    1     1.5513     2.9316   47 C    0 0 0
   7 B    1     2.3905     4.5174   11 B    0 0 0
   7 B    1     2.3905     4.5175    9 B    0-1 0
   7 B    1     2.5648     4.8468   45 C    0-1 0

   8 B    1     1.3795     2.6068   80 O    0 0 0
   8 B    1     1.3795     2.6070   82 O    0-1 0
   8 B    1     1.5513     2.9316   48 C    0 0 0
   8 B    1     2.3905     4.5174   12 B    0 0 0
   8 B    1     2.3905     4.5175   10 B    1 0 0
   8 B    1     2.5648     4.8468   46 C    0-1 0

   9 B    1     1.3795     2.6069   81 O    0 0 0
   9 B    1     1.3797     2.6072   83 O    1 1 0
   9 B    1     1.5516     2.9322   71 C    0 0 0
   9 B    1     2.3905     4.5175    7 B    0 1 0
   9 B    1     2.3911     4.5185   11 B    0 1 0
   9 B    1     2.5651     4.8473   69 C    1 1 0

  10 B    1     1.3795     2.6069   82 O   -1-1 0
  10 B    1     1.3797     2.6072   84 O    0 0 0
  10 B    1     1.5516     2.9322   72 C    0 0 0
  10 B    1     2.3905     4.5175    8 B   -1 0 0
  10 B    1     2.3911     4.5185   12 B   -1 0 0
  10 B    1     2.5651     4.8473   70 C    0 0 0

  11 B    1     1.3795     2.6068   79 O    0 0 0
  11 B    1     1.3796     2.6071   83 O    1 0 0
  11 B    1     1.5516     2.9322   59 C    0 0 0
  11 B    1     2.3905     4.5174    7 B    0 0 0
  11 B    1     2.3911     4.5185    9 B    0-1 0
  11 B    1     2.5651     4.8473   57 C    1 0 0

  12 B    1     1.3795     2.6068   80 O    0 0 0
  12 B    1     1.3796     2.6071   84 O    1 0 0
  12 B    1     1.5516     2.9322   60 C    0 0 0
  12 B    1     2.3905     4.5174    8 B    0 0 0
  12 B    1     2.3911     4.5185   10 B    1 0 0
  12 B    1     2.5651     4.8473   58 C    1 0 0

  13 H    1     1.0913     2.0623   39 C    0 0 0
  13 H    1     2.1472     4.0576   37 C    0 0 0
  13 H    1     2.1680     4.0969   45 C    0 0 0
  13 H    1     2.5202     4.7625   19 H    0 0 0
  13 H    1     2.5676     4.8520   75 O    0 0 0
  13 H    1     2.7321     5.1630    3 B    0 0 0

  14 H    1     1.0913     2.0623   40 C    0 0 0
  14 H    1     2.1472     4.0576   38 C    0 1 0
  14 H    1     2.1680     4.0969   46 C    0 0 0
  14 H    1     2.5202     4.7625   20 H    0 0 0
  14 H    1     2.5676     4.8520   76 O    0 0 0
  14 H    1     2.7321     5.1630    4 B    0 1 0

  15 H    1     1.0914     2.0625   41 C    0 0 0
  15 H    1     2.1493     4.0616   47 C    0 0 0
  15 H    1     2.1666     4.0942   43 C    0 0 0
  15 H    1     2.5198     4.7618   17 H    0 0 0
  15 H    1     2.5720     4.8604   79 O    0 0 0
  15 H    1     2.7362     5.1707    7 B    0 0 0

  16 H    1     1.0914     2.0625   42 C    0 0 0
  16 H    1     2.1493     4.0616   48 C    0 0 0
  16 H    1     2.1666     4.0942   44 C    0 0 0
  16 H    1     2.5198     4.7618   18 H    0 0 0
  16 H    1     2.5720     4.8604   80 O    0 0 0
  16 H    1     2.7362     5.1707    8 B    0 0 0

  17 H    1     1.0914     2.0624   43 C    0 0 0
  17 H    1     2.1471     4.0575   37 C    0-1 0
  17 H    1     2.1680     4.0970   41 C    0 0 0
  17 H    1     2.5198     4.7618   15 H    0 0 0
  17 H    1     2.5665     4.8500   77 O    0 0 0
  17 H    1     2.7315     5.1618    3 B    0-1 0

  18 H    1     1.0914     2.0624   44 C    0 0 0
  18 H    1     2.1471     4.0575   38 C    0 0 0
  18 H    1     2.1680     4.0970   42 C    0 0 0
  18 H    1     2.5198     4.7618   16 H    0 0 0
  18 H    1     2.5665     4.8500   78 O    0 0 0
  18 H    1     2.7315     5.1618    4 B    0 0 0

  19 H    1     1.0915     2.0626   45 C    0 0 0
  19 H    1     2.1490     4.0610   47 C    0 1 0
  19 H    1     2.1669     4.0948   39 C    0 0 0
  19 H    1     2.5202     4.7625   13 H    0 0 0
  19 H    1     2.5712     4.8588   81 O    0 0 0
  19 H    1     2.7351     5.1686    7 B    0 1 0

  20 H    1     1.0915     2.0626   46 C    0 0 0
  20 H    1     2.1490     4.0610   48 C    0 1 0
  20 H    1     2.1669     4.0948   40 C    0 0 0
  20 H    1     2.5202     4.7625   14 H    0 0 0
  20 H    1     2.5712     4.8588   82 O    0 0 0
  20 H    1     2.7351     5.1686    8 B    0 1 0

  21 H    1     1.0913     2.0623   51 C    0 0 0
  21 H    1     2.1469     4.0571   49 C   -1 0 0
  21 H    1     2.1680     4.0968   57 C    0 0 0
  21 H    1     2.5198     4.7617   27 H    0 0 0
  21 H    1     2.5670     4.8510   75 O    0 0 0
  21 H    1     2.7310     5.1609    1 B    0 0 0

  22 H    1     1.0913     2.0623   52 C    0 0 0
  22 H    1     2.1469     4.0571   50 C   -1 0 0
  22 H    1     2.1680     4.0968   58 C    0 0 0
  22 H    1     2.5198     4.7617   28 H    0 0 0
  22 H    1     2.5670     4.8510   76 O    0 0 0
  22 H    1     2.7310     5.1609    2 B    0 0 0

  23 H    1     1.0914     2.0625   53 C    0 0 0
  23 H    1     2.1493     4.0617   59 C    0 0 0
  23 H    1     2.1664     4.0939   55 C    0 0 0
  23 H    1     2.5192     4.7606   25 H    0 0 0
  23 H    1     2.5735     4.8632   79 O    0 0 0
  23 H    1     2.7371     5.1723   11 B    0 0 0

  24 H    1     1.0914     2.0625   54 C    0 0 0
  24 H    1     2.1493     4.0617   60 C    0 0 0
  24 H    1     2.1664     4.0939   56 C    0 0 0
  24 H    1     2.5192     4.7606   26 H    0 0 0
  24 H    1     2.5735     4.8632   80 O    0 0 0
  24 H    1     2.7371     5.1723   12 B    0 0 0

  25 H    1     1.0914     2.0624   55 C    0 0 0
  25 H    1     2.1475     4.0581   49 C    0 0 0
  25 H    1     2.1679     4.0967   53 C    0 0 0
  25 H    1     2.5192     4.7606   23 H    0 0 0
  25 H    1     2.5675     4.8519   73 O    0 0 0
  25 H    1     2.7328     5.1643    1 B    1 0 0

  26 H    1     1.0914     2.0624   56 C    0 0 0
  26 H    1     2.1475     4.0581   50 C    0 0 0
  26 H    1     2.1679     4.0967   54 C    0 0 0
  26 H    1     2.5192     4.7606   24 H    0 0 0
  26 H    1     2.5675     4.8519   74 O    0 0 0
  26 H    1     2.7328     5.1643    2 B    1 0 0

  27 H    1     1.0914     2.0625   57 C    0 0 0
  27 H    1     2.1491     4.0612   59 C   -1 0 0
  27 H    1     2.1666     4.0942   51 C    0 0 0
  27 H    1     2.5198     4.7617   21 H    0 0 0
  27 H    1     2.5723     4.8609   83 O    0 0 0
  27 H    1     2.7355     5.1693   11 B   -1 0 0

  28 H    1     1.0914     2.0625   58 C    0 0 0
  28 H    1     2.1491     4.0612   60 C   -1 0 0
  28 H    1     2.1666     4.0942   52 C    0 0 0
  28 H    1     2.5198     4.7617   22 H    0 0 0
  28 H    1     2.5723     4.8609   84 O    0 0 0
  28 H    1     2.7355     5.1693   12 B   -1 0 0

  29 H    1     1.0914     2.0624   63 C    0 0 0
  29 H    1     2.1475     4.0582   61 C   -1-1 0
  29 H    1     2.1678     4.0966   69 C    0 0 0
  29 H    1     2.5200     4.7621   35 H    0 0 0
  29 H    1     2.5667     4.8503   77 O    0 0 0
  29 H    1     2.7315     5.1618    5 B    0 0 0

  30 H    1     1.0914     2.0624   64 C    0 0 0
  30 H    1     2.1475     4.0582   62 C    0 0 0
  30 H    1     2.1678     4.0966   70 C    0 0 0
  30 H    1     2.5200     4.7621   36 H    0 0 0
  30 H    1     2.5667     4.8503   78 O    0 0 0
  30 H    1     2.7315     5.1618    6 B    0 0 0

  31 H    1     1.0913     2.0623   65 C    0 0 0
  31 H    1     2.1487     4.0605   71 C    0 0 0
  31 H    1     2.1667     4.0945   67 C    0 0 0
  31 H    1     2.5197     4.7616   33 H    0 0 0
  31 H    1     2.5723     4.8610   81 O    0 0 0
  31 H    1     2.7359     5.1701    9 B    0 0 0

  32 H    1     1.0913     2.0623   66 C    0 0 0
  32 H    1     2.1487     4.0605   72 C    1 1 0
  32 H    1     2.1667     4.0945   68 C    0 0 0
  32 H    1     2.5197     4.7616   34 H    0 0 0
  32 H    1     2.5723     4.8610   82 O    0 0 0
  32 H    1     2.7359     5.1701   10 B    1 1 0

  33 H    1     1.0915     2.0626   67 C    0 0 0
  33 H    1     2.1479     4.0589   61 C    0 0 0
  33 H    1     2.1679     4.0968   65 C    0 0 0
  33 H    1     2.5197     4.7616   31 H    0 0 0
  33 H    1     2.5677     4.8522   73 O    0 0 0
  33 H    1     2.7331     5.1648    5 B    1 1 0

  34 H    1     1.0915     2.0626   68 C    0 0 0
  34 H    1     2.1479     4.0589   62 C    1 1 0
  34 H    1     2.1679     4.0968   66 C    0 0 0
  34 H    1     2.5197     4.7616   32 H    0 0 0
  34 H    1     2.5677     4.8522   74 O    0 0 0
  34 H    1     2.7331     5.1648    6 B    1 1 0

  35 H    1     1.0914     2.0624   69 C    0 0 0
  35 H    1     2.1486     4.0602   71 C   -1-1 0
  35 H    1     2.1668     4.0947   63 C    0 0 0
  35 H    1     2.5200     4.7621   29 H    0 0 0
  35 H    1     2.5717     4.8598   83 O    0 0 0
  35 H    1     2.7349     5.1682    9 B   -1-1 0

  36 H    1     1.0914     2.0624   70 C    0 0 0
  36 H    1     2.1486     4.0602   72 C    0 0 0
  36 H    1     2.1668     4.0947   64 C    0 0 0
  36 H    1     2.5200     4.7621   30 H    0 0 0
  36 H    1     2.5717     4.8598   84 O    0 0 0
  36 H    1     2.7349     5.1682   10 B    0 0 0

  37 C    1     1.4020     2.6495   43 C    0 1 0
  37 C    1     1.4021     2.6495   39 C    0 0 0
  37 C    1     1.5504     2.9298    3 B    0 0 0
  37 C    1     2.1471     4.0575   17 H    0 1 0
  37 C    1     2.1472     4.0576   13 H    0 0 0
  37 C    1     2.4246     4.5817   41 C    0 1 0

  38 C    1     1.4020     2.6495   44 C    0 0 0
  38 C    1     1.4021     2.6495   40 C    0-1 0
  38 C    1     1.5504     2.9298    4 B    0 0 0
  38 C    1     2.1471     4.0575   18 H    0 0 0
  38 C    1     2.1472     4.0576   14 H    0-1 0
  38 C    1     2.4246     4.5817   42 C    0 0 0

  39 C    1     1.0913     2.0623   13 H    0 0 0
  39 C    1     1.3914     2.6294   45 C    0 0 0
  39 C    1     1.4021     2.6495   37 C    0 0 0
  39 C    1     2.1669     4.0948   19 H    0 0 0
  39 C    1     2.4177     4.5688   43 C    0 1 0
  39 C    1     2.4250     4.5825   47 C    0 1 0

  40 C    1     1.0913     2.0623   14 H    0 0 0
  40 C    1     1.3914     2.6294   46 C    0 0 0
  40 C    1     1.4021     2.6495   38 C    0 1 0
  40 C    1     2.1669     4.0948   20 H    0 0 0
  40 C    1     2.4177     4.5688   44 C    0 1 0
  40 C    1     2.4250     4.5825   48 C    0 1 0

  41 C    1     1.0914     2.0625   15 H    0 0 0
  41 C    1     1.3914     2.6293   43 C    0 0 0
  41 C    1     1.4026     2.6505   47 C    0 0 0
  41 C    1     2.1680     4.0970   17 H    0 0 0
  41 C    1     2.4182     4.5697   45 C    0-1 0
  41 C    1     2.4246     4.5817   37 C    0-1 0

  42 C    1     1.0914     2.0625   16 H    0 0 0
  42 C    1     1.3914     2.6293   44 C    0 0 0
  42 C    1     1.4026     2.6505   48 C    0 0 0
  42 C    1     2.1680     4.0970   18 H    0 0 0
  42 C    1     2.4182     4.5697   46 C    0-1 0
  42 C    1     2.4246     4.5817   38 C    0 0 0

  43 C    1     1.0914     2.0624   17 H    0 0 0
  43 C    1     1.3914     2.6293   41 C    0 0 0
  43 C    1     1.4020     2.6495   37 C    0-1 0
  43 C    1     2.1666     4.0942   15 H    0 0 0
  43 C    1     2.4177     4.5688   39 C    0-1 0
  43 C    1     2.4250     4.5826   47 C    0 0 0

  44 C    1     1.0914     2.0624   18 H    0 0 0
  44 C    1     1.3914     2.6293   42 C    0 0 0
  44 C    1     1.4020     2.6495   38 C    0 0 0
  44 C    1     2.1666     4.0942   16 H    0 0 0
  44 C    1     2.4177     4.5688   40 C    0-1 0
  44 C    1     2.4250     4.5826   48 C    0 0 0

  45 C    1     1.0915     2.0626   19 H    0 0 0
  45 C    1     1.3914     2.6294   39 C    0 0 0
  45 C    1     1.4025     2.6504   47 C    0 1 0
  45 C    1     2.1680     4.0969   13 H    0 0 0
  45 C    1     2.4182     4.5697   41 C    0 1 0
  45 C    1     2.4246     4.5818   37 C    0 0 0

  46 C    1     1.0915     2.0626   20 H    0 0 0
  46 C    1     1.3914     2.6294   40 C    0 0 0
  46 C    1     1.4025     2.6504   48 C    0 1 0
  46 C    1     2.1680     4.0969   14 H    0 0 0
  46 C    1     2.4182     4.5697   42 C    0 1 0
  46 C    1     2.4246     4.5818   38 C    0 1 0

  47 C    1     1.4025     2.6504   45 C    0-1 0
  47 C    1     1.4026     2.6505   41 C    0 0 0
  47 C    1     1.5513     2.9316    7 B    0 0 0
  47 C    1     2.1490     4.0610   19 H    0-1 0
  47 C    1     2.1493     4.0616   15 H    0 0 0
  47 C    1     2.4250     4.5825   39 C    0-1 0

  48 C    1     1.4025     2.6504   46 C    0-1 0
  48 C    1     1.4026     2.6505   42 C    0 0 0
  48 C    1     1.5513     2.9316    8 B    0 0 0
  48 C    1     2.1490     4.0610   20 H    0-1 0
  48 C    1     2.1493     4.0616   16 H    0 0 0
  48 C    1     2.4250     4.5825   40 C    0-1 0

  49 C    1     1.4020     2.6494   51 C    1 0 0
  49 C    1     1.4021     2.6495   55 C    0 0 0
  49 C    1     1.5503     2.9297    1 B    1 0 0
  49 C    1     2.1469     4.0571   21 H    1 0 0
  49 C    1     2.1475     4.0581   25 H    0 0 0
  49 C    1     2.4246     4.5818   53 C    0 0 0

  50 C    1     1.4020     2.6494   52 C    1 0 0
  50 C    1     1.4021     2.6495   56 C    0 0 0
  50 C    1     1.5503     2.9297    2 B    1 0 0
  50 C    1     2.1469     4.0571   22 H    1 0 0
  50 C    1     2.1475     4.0581   26 H    0 0 0
  50 C    1     2.4246     4.5818   54 C    0 0 0

  51 C    1     1.0913     2.0623   21 H    0 0 0
  51 C    1     1.3914     2.6293   57 C    0 0 0
  51 C    1     1.4020     2.6494   49 C   -1 0 0
  51 C    1     2.1666     4.0942   27 H    0 0 0
  51 C    1     2.4175     4.5684   55 C   -1 0 0
  51 C    1     2.4251     4.5828   59 C   -1 0 0

  52 C    1     1.0913     2.0623   22 H    0 0 0
  52 C    1     1.3914     2.6293   58 C    0 0 0
  52 C    1     1.4020     2.6494   50 C   -1 0 0
  52 C    1     2.1666     4.0942   28 H    0 0 0
  52 C    1     2.4175     4.5684   56 C   -1 0 0
  52 C    1     2.4251     4.5828   60 C   -1 0 0

  53 C    1     1.0914     2.0625   23 H    0 0 0
  53 C    1     1.3915     2.6295   55 C    0 0 0
  53 C    1     1.4026     2.6505   59 C    0 0 0
  53 C    1     2.1679     4.0967   25 H    0 0 0
  53 C    1     2.4179     4.5691   57 C    1 0 0
  53 C    1     2.4246     4.5818   49 C    0 0 0

  54 C    1     1.0914     2.0625   24 H    0 0 0
  54 C    1     1.3915     2.6295   56 C    0 0 0
  54 C    1     1.4026     2.6505   60 C    0 0 0
  54 C    1     2.1679     4.0967   26 H    0 0 0
  54 C    1     2.4179     4.5691   58 C    1 0 0
  54 C    1     2.4246     4.5818   50 C    0 0 0

  55 C    1     1.0914     2.0624   25 H    0 0 0
  55 C    1     1.3915     2.6295   53 C    0 0 0
  55 C    1     1.4021     2.6495   49 C    0 0 0
  55 C    1     2.1664     4.0939   23 H    0 0 0
  55 C    1     2.4175     4.5684   51 C    1 0 0
  55 C    1     2.4253     4.5832   59 C    0 0 0

  56 C    1     1.0914     2.0624   26 H    0 0 0
  56 C    1     1.3915     2.6295   54 C    0 0 0
  56 C    1     1.4021     2.6495   50 C    0 0 0
  56 C    1     2.1664     4.0939   24 H    0 0 0
  56 C    1     2.4175     4.5684   52 C    1 0 0
  56 C    1     2.4253     4.5832   60 C    0 0 0

  57 C    1     1.0914     2.0625   27 H    0 0 0
  57 C    1     1.3914     2.6293   51 C    0 0 0
  57 C    1     1.4025     2.6504   59 C   -1 0 0
  57 C    1     2.1680     4.0968   21 H    0 0 0
  57 C    1     2.4179     4.5691   53 C   -1 0 0
  57 C    1     2.4247     4.5819   49 C   -1 0 0

  58 C    1     1.0914     2.0625   28 H    0 0 0
  58 C    1     1.3914     2.6293   52 C    0 0 0
  58 C    1     1.4025     2.6504   60 C   -1 0 0
  58 C    1     2.1680     4.0968   22 H    0 0 0
  58 C    1     2.4179     4.5691   54 C   -1 0 0
  58 C    1     2.4247     4.5819   50 C   -1 0 0

  59 C    1     1.4025     2.6504   57 C    1 0 0
  59 C    1     1.4026     2.6505   53 C    0 0 0
  59 C    1     1.5516     2.9322   11 B    0 0 0
  59 C    1     2.1491     4.0612   27 H    1 0 0
  59 C    1     2.1493     4.0617   23 H    0 0 0
  59 C    1     2.4251     4.5828   51 C    1 0 0

  60 C    1     1.4025     2.6504   58 C    1 0 0
  60 C    1     1.4026     2.6505   54 C    0 0 0
  60 C    1     1.5516     2.9322   12 B    0 0 0
  60 C    1     2.1491     4.0612   28 H    1 0 0
  60 C    1     2.1493     4.0617   24 H    0 0 0
  60 C    1     2.4251     4.5828   52 C    1 0 0

  61 C    1     1.4021     2.6496   63 C    1 1 0
  61 C    1     1.4021     2.6497   67 C    0 0 0
  61 C    1     1.5502     2.9294    5 B    1 1 0
  61 C    1     2.1475     4.0582   29 H    1 1 0
  61 C    1     2.1479     4.0589   33 H    0 0 0
  61 C    1     2.4244     4.5814   65 C    0 0 0

  62 C    1     1.4021     2.6496   64 C    0 0 0
  62 C    1     1.4021     2.6497   68 C   -1-1 0
  62 C    1     1.5502     2.9294    6 B    0 0 0
  62 C    1     2.1475     4.0582   30 H    0 0 0
  62 C    1     2.1479     4.0589   34 H   -1-1 0
  62 C    1     2.4244     4.5814   66 C   -1-1 0

  63 C    1     1.0914     2.0624   29 H    0 0 0
  63 C    1     1.3914     2.6293   69 C    0 0 0
  63 C    1     1.4021     2.6496   61 C   -1-1 0
  63 C    1     2.1668     4.0947   35 H    0 0 0
  63 C    1     2.4179     4.5692   67 C   -1-1 0
  63 C    1     2.4251     4.5827   71 C   -1-1 0

  64 C    1     1.0914     2.0624   30 H    0 0 0
  64 C    1     1.3914     2.6293   70 C    0 0 0
  64 C    1     1.4021     2.6496   62 C    0 0 0
  64 C    1     2.1668     4.0947   36 H    0 0 0
  64 C    1     2.4179     4.5692   68 C   -1-1 0
  64 C    1     2.4251     4.5827   72 C    0 0 0

  65 C    1     1.0913     2.0623   31 H    0 0 0
  65 C    1     1.3914     2.6294   67 C    0 0 0
  65 C    1     1.4025     2.6504   71 C    0 0 0
  65 C    1     2.1679     4.0968   33 H    0 0 0
  65 C    1     2.4178     4.5690   69 C    1 1 0
  65 C    1     2.4244     4.5814   61 C    0 0 0

  66 C    1     1.0913     2.0623   32 H    0 0 0
  66 C    1     1.3914     2.6294   68 C    0 0 0
  66 C    1     1.4025     2.6504   72 C    1 1 0
  66 C    1     2.1679     4.0968   34 H    0 0 0
  66 C    1     2.4178     4.5690   70 C    1 1 0
  66 C    1     2.4244     4.5814   62 C    1 1 0

  67 C    1     1.0915     2.0626   33 H    0 0 0
  67 C    1     1.3914     2.6294   65 C    0 0 0
  67 C    1     1.4021     2.6497   61 C    0 0 0
  67 C    1     2.1667     4.0945   31 H    0 0 0
  67 C    1     2.4179     4.5692   63 C    1 1 0
  67 C    1     2.4253     4.5832   71 C    0 0 0

  68 C    1     1.0915     2.0626   34 H    0 0 0
  68 C    1     1.3914     2.6294   66 C    0 0 0
  68 C    1     1.4021     2.6497   62 C    1 1 0
  68 C    1     2.1667     4.0945   32 H    0 0 0
  68 C    1     2.4179     4.5692   64 C    1 1 0
  68 C    1     2.4253     4.5832   72 C    1 1 0

  69 C    1     1.0914     2.0624   35 H    0 0 0
  69 C    1     1.3914     2.6293   63 C    0 0 0
  69 C    1     1.4025     2.6503   71 C   -1-1 0
  69 C    1     2.1678     4.0966   29 H    0 0 0
  69 C    1     2.4178     4.5690   65 C   -1-1 0
  69 C    1     2.4245     4.5817   61 C   -1-1 0

  70 C    1     1.0914     2.0624   36 H    0 0 0
  70 C    1     1.3914     2.6293   64 C    0 0 0
  70 C    1     1.4025     2.6503   72 C    0 0 0
  70 C    1     2.1678     4.0966   30 H    0 0 0
  70 C    1     2.4178     4.5690   66 C   -1-1 0
  70 C    1     2.4245     4.5817   62 C    0 0 0

  71 C    1     1.4025     2.6503   69 C    1 1 0
  71 C    1     1.4025     2.6504   65 C    0 0 0
  71 C    1     1.5516     2.9322    9 B    0 0 0
  71 C    1     2.1486     4.0602   35 H    1 1 0
  71 C    1     2.1487     4.0605   31 H    0 0 0
  71 C    1     2.4251     4.5827   63 C    1 1 0

  72 C    1     1.4025     2.6503   70 C    0 0 0
  72 C    1     1.4025     2.6504   66 C   -1-1 0
  72 C    1     1.5516     2.9322   10 B    0 0 0
  72 C    1     2.1486     4.0602   36 H    0 0 0
  72 C    1     2.1487     4.0605   32 H   -1-1 0
  72 C    1     2.4251     4.5827   64 C    0 0 0

  73 O    1     1.3791     2.6061    1 B    1 0 0
  73 O    1     1.3791     2.6061    5 B    1 1 0
  73 O    1     2.3880     4.5126   75 O    1 0 0
  73 O    1     2.3882     4.5130   77 O    1 1 0
  73 O    1     2.5383     4.7966   61 C    0 0 0
  73 O    1     2.5384     4.7968   49 C    0 0 0

  74 O    1     1.3791     2.6061    2 B    1 0 0
  74 O    1     1.3791     2.6061    6 B    1 1 0
  74 O    1     2.3880     4.5126   76 O    1 0 0
  74 O    1     2.3882     4.5130   78 O    1 1 0
  74 O    1     2.5383     4.7966   62 C    1 1 0
  74 O    1     2.5384     4.7968   50 C    0 0 0

  75 O    1     1.3793     2.6065    1 B    0 0 0
  75 O    1     1.3793     2.6065    3 B    0 0 0
  75 O    1     2.3880     4.5126   73 O   -1 0 0
  75 O    1     2.3882     4.5131   77 O    0 1 0
  75 O    1     2.5391     4.7981   37 C    0 0 0
  75 O    1     2.5395     4.7990   49 C   -1 0 0

  76 O    1     1.3793     2.6065    2 B    0 0 0
  76 O    1     1.3793     2.6065    4 B    0 1 0
  76 O    1     2.3880     4.5126   74 O   -1 0 0
  76 O    1     2.3882     4.5131   78 O    0 1 0
  76 O    1     2.5391     4.7981   38 C    0 1 0
  76 O    1     2.5395     4.7990   50 C   -1 0 0

  77 O    1     1.3793     2.6064    5 B    0 0 0
  77 O    1     1.3793     2.6065    3 B    0-1 0
  77 O    1     2.3882     4.5130   73 O   -1-1 0
  77 O    1     2.3882     4.5131   75 O    0-1 0
  77 O    1     2.5390     4.7980   37 C    0-1 0
  77 O    1     2.5391     4.7982   61 C   -1-1 0

  78 O    1     1.3793     2.6064    6 B    0 0 0
  78 O    1     1.3793     2.6065    4 B    0 0 0
  78 O    1     2.3882     4.5130   74 O   -1-1 0
  78 O    1     2.3882     4.5131   76 O    0-1 0
  78 O    1     2.5390     4.7980   38 C    0 0 0
  78 O    1     2.5391     4.7982   62 C    0 0 0

  79 O    1     1.3795     2.6068   11 B    0 0 0
  79 O    1     1.3795     2.6068    7 B    0 0 0
  79 O    1     2.3880     4.5126   83 O    1 0 0
  79 O    1     2.3884     4.5134   81 O    0-1 0
  79 O    1     2.5400     4.7998   47 C    0 0 0
  79 O    1     2.5403     4.8005   59 C    0 0 0

  80 O    1     1.3795     2.6068   12 B    0 0 0
  80 O    1     1.3795     2.6068    8 B    0 0 0
  80 O    1     2.3880     4.5126   84 O    1 0 0
  80 O    1     2.3884     4.5134   82 O    0-1 0
  80 O    1     2.5400     4.7998   48 C    0 0 0
  80 O    1     2.5403     4.8005   60 C    0 0 0

  81 O    1     1.3795     2.6069    9 B    0 0 0
  81 O    1     1.3795     2.6070    7 B    0 1 0
  81 O    1     2.3881     4.5128   83 O    1 1 0
  81 O    1     2.3884     4.5134   79 O    0 1 0
  81 O    1     2.5404     4.8006   47 C    0 1 0
  81 O    1     2.5405     4.8008   71 C    0 0 0

  82 O    1     1.3795     2.6069   10 B    1 1 0
  82 O    1     1.3795     2.6070    8 B    0 1 0
  82 O    1     2.3881     4.5128   84 O    1 1 0
  82 O    1     2.3884     4.5134   80 O    0 1 0
  82 O    1     2.5404     4.8006   48 C    0 1 0
  82 O    1     2.5405     4.8008   72 C    1 1 0

  83 O    1     1.3796     2.6071   11 B   -1 0 0
  83 O    1     1.3797     2.6072    9 B   -1-1 0
  83 O    1     2.3880     4.5126   79 O   -1 0 0
  83 O    1     2.3881     4.5128   81 O   -1-1 0
  83 O    1     2.5409     4.8016   71 C   -1-1 0
  83 O    1     2.5410     4.8019   59 C   -1 0 0

  84 O    1     1.3796     2.6071   12 B   -1 0 0
  84 O    1     1.3797     2.6072   10 B    0 0 0
  84 O    1     2.3880     4.5126   80 O   -1 0 0
  84 O    1     2.3881     4.5128   82 O   -1-1 0
  84 O    1     2.5409     4.8016   72 C    0 0 0
  84 O    1     2.5410     4.8019   60 C   -1 0 0


 SYMMETRY ALLOWED INTERNAL DEGREE(S) OF FREEDOM: 249
 TTTTTTTTTTTTTTTTTTTTTTTTTTTTTT SYMM        TELAPSE        2.74 TCPU        2.73
 TTTTTTTTTTTTTTTTTTTTTTTTTTTTTT INT_SCREEN  TELAPSE        2.94 TCPU        2.93

 DFT PARAMETERS

     ATOM       ELECTRONS   NET CHARGE   R(ANGSTROM)
   1   5  B       5.0000      0.0000     0.89000000
  13   1  H       1.0000      0.0000     1.11000000
  37   6  C       6.0000      0.0000     0.77000000
  73   8  O       8.0000      0.0000     0.74000000

 SIZE OF GRID=    2644724
 TTTTTTTTTTTTTTTTTTTTTTTTTTTTTT MAKE_GRID2  TELAPSE       22.53 TCPU       22.50
 BECKE WEIGHT FUNCTION
 RADSAFE =     2.00
 TOLERANCES - DENSITY:10**- 6; POTENTIAL:10**- 9; GRID WGT:10**-14

 RADIAL INTEGRATION  - INTERVALS (POINTS,UPPER LIMIT):            1( 75,  4.0*R)

 ANGULAR INTEGRATION - INTERVALS (ACCURACY LEVEL [N. POINTS] UPPER LIMIT):
  1(  4[  86]   0.2)  2(  8[ 194]   0.5)  3( 12[ 350]   0.9)  4( 16[ 974]   3.5)
  5( 12[ 350]9999.0)
 TTTTTTTTTTTTTTTTTTTTTTTTTTTTTT INT_CALC    TELAPSE       22.78 TCPU       22.75
 EEEEEEEEEE INT_CALC TERMINATION  DATE 19 02 2026 TIME 20:26:55.6

 *******************************************************************************
 cof-1_z42_L010_serr                                                             
 CRYSTAL - SCF - TYPE OF CALCULATION :  RESTRICTED CLOSED SHELL
 *******************************************************************************

 CAPPA:IS1  2;IS2  2;IS3  8; K PTS MONK NET  20; SYMMOPS:K SPACE   2;G SPACE   1

 TTTTTTTTTTTTTTTTTTTTTTTTTTTTTT SDIK        TELAPSE       24.82 TCPU       51.06

 AAAAAAAAAAAAAAAAAAAAAAAAAAAAAAAAAAAAAAAAAAAAAAAAAAAAAAAAAAAAAAAAAAAAAAAAAAAAAAA
         ATOMIC WAVEFUNCTION(S)


 NUCLEAR CHARGE  5.0  SYMMETRY SPECIES            S    P
 N. ELECTRONS    5.0  NUMBER OF PRIMITIVE GTOS    8    4
                      NUMBER OF CONTRACTED GTOS   4    2
                      NUMBER OF CLOSED SHELLS     2    0
                      OPEN SHELL OCCUPATION       0    1

  ZNUC  SCFIT    TOTAL HF ENERGY   KINETIC ENERGY   VIRIAL THEOREM ACCURACY
   5.0    11    -2.451164084E+01  2.462155050E+01 -1.995536038E+00  1.5E-06

 NUCLEAR CHARGE  1.0  SYMMETRY SPECIES            S
 N. ELECTRONS    1.0  NUMBER OF PRIMITIVE GTOS    4
                      NUMBER OF CONTRACTED GTOS   2
                      NUMBER OF CLOSED SHELLS     0
                      OPEN SHELL OCCUPATION       1

  ZNUC  SCFIT    TOTAL HF ENERGY   KINETIC ENERGY   VIRIAL THEOREM ACCURACY
   1.0     1    -4.977266687E-01  5.190767460E-01 -1.958869132E+00  0.0E+00

 NUCLEAR CHARGE  6.0  SYMMETRY SPECIES            S    P
 N. ELECTRONS    6.0  NUMBER OF PRIMITIVE GTOS    8    4
                      NUMBER OF CONTRACTED GTOS   4    2
                      NUMBER OF CLOSED SHELLS     2    0
                      OPEN SHELL OCCUPATION       0    2

  ZNUC  SCFIT    TOTAL HF ENERGY   KINETIC ENERGY   VIRIAL THEOREM ACCURACY
   6.0     9    -3.766704647E+01  3.775180683E+01 -1.997754800E+00  1.1E-06

 NUCLEAR CHARGE  8.0  SYMMETRY SPECIES            S    P
 N. ELECTRONS    8.0  NUMBER OF PRIMITIVE GTOS    8    4
                      NUMBER OF CONTRACTED GTOS   4    2
                      NUMBER OF CLOSED SHELLS     2    0
                      OPEN SHELL OCCUPATION       0    4

  ZNUC  SCFIT    TOTAL HF ENERGY   KINETIC ENERGY   VIRIAL THEOREM ACCURACY
   8.0    12    -7.477373220E+01  7.477365593E+01 -2.000001020E+00  3.8E-06

 AAAAAAAAAAAAAAAAAAAAAAAAAAAAAAAAAAAAAAAAAAAAAAAAAAAAAAAAAAAAAAAAAAAAAAAAAAAAAAA

 CHARGE NORMALIZATION FACTOR   1.00000000
 TOTAL ATOMIC CHARGES:
   5.0000000   5.0000000   5.0000000   5.0000000   5.0000000   5.0000000
   5.0000000   5.0000000   5.0000000   5.0000000   5.0000000   5.0000000
   1.0000000   1.0000000   1.0000000   1.0000000   1.0000000   1.0000000
   1.0000000   1.0000000   1.0000000   1.0000000   1.0000000   1.0000000
   1.0000000   1.0000000   1.0000000   1.0000000   1.0000000   1.0000000
   1.0000000   1.0000000   1.0000000   1.0000000   1.0000000   1.0000000
   6.0000000   6.0000000   6.0000000   6.0000000   6.0000000   6.0000000
   6.0000000   6.0000000   6.0000000   6.0000000   6.0000000   6.0000000
   6.0000000   6.0000000   6.0000000   6.0000000   6.0000000   6.0000000
   6.0000000   6.0000000   6.0000000   6.0000000   6.0000000   6.0000000
   6.0000000   6.0000000   6.0000000   6.0000000   6.0000000   6.0000000
   6.0000000   6.0000000   6.0000000   6.0000000   6.0000000   6.0000000
   8.0000000   8.0000000   8.0000000   8.0000000   8.0000000   8.0000000
   8.0000000   8.0000000   8.0000000   8.0000000   8.0000000   8.0000000
 TTTTTTTTTTTTTTTTTTTTTTTTTTTTTT MOQGAD      TELAPSE       24.91 TCPU       54.03
 TTTTTTTTTTTTTTTTTTTTTTTTTTTTTT SHELLXN     TELAPSE       40.57 TCPU      554.34
 TTTTTTTTTTTTTTTTTTTTTTTTTTTTTT MONMO3      TELAPSE       41.14 TCPU      572.75
 NUMERICALLY INTEGRATED DENSITY    396.0000483628
 TTTTTTTTTTTTTTTTTTTTTTTTTTTTTT NUMDFT      TELAPSE       42.63 TCPU      620.35
 CYC   0 ETOT(AU) -2.591911484300E+03 DETOT -2.59E+03 tst  0.00E+00 PX  1.00E+00
 TTTTTTTTTTTTTTTTTTTTTTTTTTTTTT DIIS        TELAPSE       42.74 TCPU      623.75
 TTTTTTTTTTTTTTTTTTTTTTTTTTTTTT FDIK        TELAPSE       44.72 TCPU      686.93
 INSULATING STATE
 TOP OF VALENCE BANDS -    BAND    198; K    1; EIG -3.1011888E-01 AU
 BOTTOM OF VIRTUAL BANDS - BAND    199; K    1; EIG -1.6091322E-01 AU
 DIRECT ENERGY BAND GAP:   4.0601 eV
 TTTTTTTTTTTTTTTTTTTTTTTTTTTTTT PDIG        TELAPSE       46.34 TCPU      693.84
 CHARGE NORMALIZATION FACTOR   1.00000000
 TOTAL ATOMIC CHARGES:
   4.1619154   4.1529523   4.1553335   4.1592599   4.1555793   4.1595027
   4.1591224   4.1552124   4.1589027   4.1550012   4.1526230   4.1615570
   0.7853193   0.7854404   0.7855547   0.7854347   0.7855202   0.7851947
   0.7853136   0.7856380   0.7852251   0.7854694   0.7856326   0.7853908
   0.7852143   0.7854590   0.7855962   0.7853537   0.7855212   0.7851969
   0.7853790   0.7857018   0.7852707   0.7853920   0.7855480   0.7854281
   6.0463975   6.0453328   6.2668510   6.2656647   6.2656268   6.2668081
   6.2660049   6.2663629   6.2663004   6.2659464   6.0445998   6.0456486
   6.0443544   6.0468740   6.2657340   6.2665756   6.2666467   6.2658151
   6.2656371   6.2664874   6.2666594   6.2658184   6.0456397   6.0431403
   6.0467450   6.0456874   6.2657865   6.2661307   6.2666761   6.2663306
   6.2664828   6.2652907   6.2659074   6.2670896   6.0441228   6.0451739
   8.6936249   8.6946058   8.6937317   8.6947155   8.6947896   8.6924709
   8.6950277   8.6940482   8.6928712   8.6951871   8.6951988   8.6942228
 TTTTTTTTTTTTTTTTTTTTTTTTTTTTTT MOQGAD      TELAPSE       46.43 TCPU      693.94
 TTTTTTTTTTTTTTTTTTTTTTTTTTTTTT SHELLXN     TELAPSE       62.73 TCPU     1213.78
 TTTTTTTTTTTTTTTTTTTTTTTTTTTTTT MONMO3      TELAPSE       63.31 TCPU     1232.13
 NUMERICALLY INTEGRATED DENSITY    396.0000571922
 TTTTTTTTTTTTTTTTTTTTTTTTTTTTTT NUMDFT      TELAPSE       64.82 TCPU     1280.39
 CYC   1 ETOT(AU) -2.577616421604E+03 DETOT  1.43E+01 tst  0.00E+00 PX  1.00E+00
 TTTTTTTTTTTTTTTTTTTTTTTTTTTTTT DIIS        TELAPSE       64.95 TCPU     1284.68
 DIIS TEST: 0.22696E+01 AT SCF   CYCLE   1 - MIX   30 %
 TTTTTTTTTTTTTTTTTTTTTTTTTTTTTT FDIK        TELAPSE       66.96 TCPU     1348.74
 INSULATING STATE
 TOP OF VALENCE BANDS -    BAND    198; K    1; EIG -2.1633191E-01 AU
 BOTTOM OF VIRTUAL BANDS - BAND    199; K    1; EIG -8.2811461E-02 AU
 DIRECT ENERGY BAND GAP:   3.6333 eV
 TTTTTTTTTTTTTTTTTTTTTTTTTTTTTT PDIG        TELAPSE       68.59 TCPU     1355.67
 CHARGE NORMALIZATION FACTOR   1.00000000
 TOTAL ATOMIC CHARGES:
   4.7014115   4.7238835   4.7170170   4.7064758   4.7170288   4.7064960
   4.7068080   4.7173739   4.7067819   4.7173565   4.7242006   4.7017568
   0.9162547   0.9175800   0.9176582   0.9163012   0.9170180   0.9179647
   0.9180039   0.9170460   0.9181388   0.9150469   0.9150777   0.9182419
   0.9181211   0.9150238   0.9150617   0.9182194   0.9170100   0.9179577
   0.9180766   0.9171172   0.9161921   0.9175219   0.9176559   0.9163036
   5.8713251   5.8542888   6.1364784   6.1093334   6.1098501   6.1370105
   6.1235988   6.1329921   6.1336082   6.1242967   5.8571077   5.8741190
   5.8433379   5.8824257   6.1182609   6.1337809   6.1346480   6.1190321
   6.1185016   6.1340224   6.1345221   6.1188876   5.8858509   5.8467246
   5.8712499   5.8542392   6.1236762   6.1330674   6.1334451   6.1241301
   6.1367141   6.1095453   6.1096148   6.1367445   5.8573000   5.8743494
   8.3344549   8.3381275   8.3348295   8.3385049   8.3431174   8.3348254
   8.3380149   8.3343151   8.3345336   8.3428783   8.3384265   8.3347094
 TTTTTTTTTTTTTTTTTTTTTTTTTTTTTT MOQGAD      TELAPSE       68.69 TCPU     1355.76
 TTTTTTTTTTTTTTTTTTTTTTTTTTTTTT SHELLXN     TELAPSE       84.98 TCPU     1875.24
 TTTTTTTTTTTTTTTTTTTTTTTTTTTTTT MONMO3      TELAPSE       85.55 TCPU     1893.61
 NUMERICALLY INTEGRATED DENSITY    396.0000720131
 TTTTTTTTTTTTTTTTTTTTTTTTTTTTTT NUMDFT      TELAPSE       87.06 TCPU     1941.90
 CYC   2 ETOT(AU) -2.578006280913E+03 DETOT -3.90E-01 tst  4.57E-03 PX  1.58E-01
 TTTTTTTTTTTTTTTTTTTTTTTTTTTTTT DIIS        TELAPSE       87.22 TCPU     1946.99
 DIIS TEST: 0.96211E+00 AT SCF   CYCLE   2 - DIIS ACTIVE - HISTORY:     2 CYCLES
 TTTTTTTTTTTTTTTTTTTTTTTTTTTTTT FDIK        TELAPSE       89.23 TCPU     2011.26
 INSULATING STATE
 TOP OF VALENCE BANDS -    BAND    198; K    1; EIG -2.3164682E-01 AU
 BOTTOM OF VIRTUAL BANDS - BAND    199; K    1; EIG -7.8655031E-02 AU
 DIRECT ENERGY BAND GAP:   4.1631 eV
 TTTTTTTTTTTTTTTTTTTTTTTTTTTTTT PDIG        TELAPSE       90.86 TCPU     2018.17
 CHARGE NORMALIZATION FACTOR   1.00000000
 TOTAL ATOMIC CHARGES:
   4.4966851   4.5049526   4.5017931   4.4980784   4.5019277   4.4982066
   4.4975819   4.5013344   4.4974113   4.5011603   4.5042539   4.4959791
   0.8929994   0.8881792   0.8882555   0.8931773   0.8896445   0.8927508
   0.8928677   0.8897663   0.8900585   0.8909830   0.8912549   0.8902289
   0.8900947   0.8910220   0.8911825   0.8901541   0.8896495   0.8927616
   0.8929208   0.8898240   0.8929936   0.8881854   0.8881944   0.8931364
   5.8856318   5.8949554   6.1559895   6.1637551   6.1630282   6.1553177
   6.1617110   6.1586953   6.1579730   6.1608298   5.8936083   5.8841839
   5.9006159   5.8824899   6.1624566   6.1568642   6.1561020   6.1618265
   6.1625003   6.1568960   6.1560434   6.1617786   5.8805899   5.8988469
   5.8859223   5.8952718   6.1616511   6.1586103   6.1581119   6.1609438
   6.1559038   6.1636662   6.1630658   6.1553308   5.8932982   5.8838770
   8.5096004   8.5093278   8.5097642   8.5094975   8.5087657   8.5086401
   8.5094506   8.5097843   8.5088003   8.5087708   8.5096298   8.5099766
 TTTTTTTTTTTTTTTTTTTTTTTTTTTTTT MOQGAD      TELAPSE       90.95 TCPU     2018.27
 TTTTTTTTTTTTTTTTTTTTTTTTTTTTTT SHELLXN     TELAPSE      107.25 TCPU     2537.95
 TTTTTTTTTTTTTTTTTTTTTTTTTTTTTT MONMO3      TELAPSE      107.82 TCPU     2556.31
 NUMERICALLY INTEGRATED DENSITY    396.0000703144
 TTTTTTTTTTTTTTTTTTTTTTTTTTTTTT NUMDFT      TELAPSE      109.34 TCPU     2604.73
 CYC   3 ETOT(AU) -2.578205307719E+03 DETOT -1.99E-01 tst  7.39E-04 PX  6.18E-02
 TTTTTTTTTTTTTTTTTTTTTTTTTTTTTT DIIS        TELAPSE      109.52 TCPU     2610.49
 DIIS TEST: 0.24087E-01 AT SCF   CYCLE   3 - DIIS ACTIVE - HISTORY:     3 CYCLES
 TTTTTTTTTTTTTTTTTTTTTTTTTTTTTT FDIK        TELAPSE      111.53 TCPU     2674.64
 INSULATING STATE
 TOP OF VALENCE BANDS -    BAND    198; K    1; EIG -2.4117245E-01 AU
 BOTTOM OF VIRTUAL BANDS - BAND    199; K    1; EIG -8.7739554E-02 AU
 DIRECT ENERGY BAND GAP:   4.1751 eV
 TTTTTTTTTTTTTTTTTTTTTTTTTTTTTT PDIG        TELAPSE      113.16 TCPU     2681.57
 CHARGE NORMALIZATION FACTOR   1.00000000
 TOTAL ATOMIC CHARGES:
   4.5027095   4.5133495   4.5087619   4.5036124   4.5088830   4.5037241
   4.5039594   4.5091163   4.5038053   4.5089619   4.5134951   4.5029639
   0.8734329   0.8754983   0.8755919   0.8734246   0.8743862   0.8749637
   0.8749894   0.8743892   0.8758449   0.8725796   0.8725454   0.8759855
   0.8758578   0.8725875   0.8724953   0.8759338   0.8744031   0.8749781
   0.8750467   0.8744416   0.8734122   0.8754875   0.8755444   0.8733913
   5.9477236   5.9299098   6.1702016   6.1484116   6.1495665   6.1713042
   6.1602512   6.1645996   6.1658137   6.1617474   5.9339735   5.9517678
   5.9193548   5.9587422   6.1523864   6.1689528   6.1705679   6.1537330
   6.1524205   6.1689997   6.1705538   6.1537072   5.9632320   5.9237705
   5.9477039   5.9299205   6.1601591   6.1645137   6.1658728   6.1618164
   6.1701126   6.1482956   6.1496544   6.1713525   5.9340102   5.9518339
   8.4775309   8.4813885   8.4778224   8.4816843   8.4853796   8.4770854
   8.4815743   8.4776130   8.4770276   8.4855252   8.4819273   8.4779508
 TTTTTTTTTTTTTTTTTTTTTTTTTTTTTT MOQGAD      TELAPSE      113.26 TCPU     2681.67
 TTTTTTTTTTTTTTTTTTTTTTTTTTTTTT SHELLXN     TELAPSE      129.54 TCPU     3201.14
 TTTTTTTTTTTTTTTTTTTTTTTTTTTTTT MONMO3      TELAPSE      130.12 TCPU     3219.50
 NUMERICALLY INTEGRATED DENSITY    396.0000692431
 TTTTTTTTTTTTTTTTTTTTTTTTTTTTTT NUMDFT      TELAPSE      131.63 TCPU     3267.83
 CYC   4 ETOT(AU) -2.578209992591E+03 DETOT -4.68E-03 tst  2.67E-05 PX  1.85E-02
 TTTTTTTTTTTTTTTTTTTTTTTTTTTTTT DIIS        TELAPSE      131.83 TCPU     3274.24
 DIIS TEST: 0.87684E-02 AT SCF   CYCLE   4 - DIIS ACTIVE - HISTORY:     4 CYCLES
 TTTTTTTTTTTTTTTTTTTTTTTTTTTTTT FDIK        TELAPSE      133.84 TCPU     3338.42
 INSULATING STATE
 TOP OF VALENCE BANDS -    BAND    198; K    1; EIG -2.3969622E-01 AU
 BOTTOM OF VIRTUAL BANDS - BAND    199; K    1; EIG -8.7017575E-02 AU
 DIRECT ENERGY BAND GAP:   4.1546 eV
 TTTTTTTTTTTTTTTTTTTTTTTTTTTTTT PDIG        TELAPSE      135.47 TCPU     3345.34
 CHARGE NORMALIZATION FACTOR   1.00000000
 TOTAL ATOMIC CHARGES:
   4.5025634   4.5161509   4.5114216   4.5051852   4.5115443   4.5053050
   4.5048442   4.5111436   4.5046913   4.5109919   4.5156802   4.5020530
   0.8782652   0.8763991   0.8765139   0.8784868   0.8770104   0.8784803
   0.8786434   0.8771891   0.8771890   0.8768895   0.8771905   0.8773801
   0.8772029   0.8769047   0.8771370   0.8773237   0.8770136   0.8784881
   0.8787034   0.8772529   0.8782345   0.8763813   0.8764724   0.8784650
   5.9207273   5.9211949   6.1654921   6.1603617   6.1593305   6.1645483
   6.1642606   6.1669072   6.1658754   6.1629835   5.9190399   5.9184897
   5.9210467   5.9220039   6.1638983   6.1648043   6.1637717   6.1630413
   6.1640082   6.1648958   6.1636813   6.1629474   5.9195522   5.9186902
   5.9209485   5.9214459   6.1642181   6.1668439   6.1659460   6.1630344
   6.1654965   6.1603556   6.1593025   6.1644893   5.9188243   5.9182850
   8.4883714   8.4892241   8.4885731   8.4894309   8.4905463   8.4881009
   8.4891934   8.4884377   8.4881344   8.4903601   8.4894230   8.4886708
 TTTTTTTTTTTTTTTTTTTTTTTTTTTTTT MOQGAD      TELAPSE      135.57 TCPU     3345.44
 TTTTTTTTTTTTTTTTTTTTTTTTTTTTTT SHELLXN     TELAPSE      151.86 TCPU     3865.13
 TTTTTTTTTTTTTTTTTTTTTTTTTTTTTT MONMO3      TELAPSE      152.43 TCPU     3883.50
 NUMERICALLY INTEGRATED DENSITY    396.0000695320
 TTTTTTTTTTTTTTTTTTTTTTTTTTTTTT NUMDFT      TELAPSE      153.95 TCPU     3931.97
 CYC   5 ETOT(AU) -2.578211990827E+03 DETOT -2.00E-03 tst  9.97E-06 PX  1.04E-02
 TTTTTTTTTTTTTTTTTTTTTTTTTTTTTT DIIS        TELAPSE      154.18 TCPU     3938.72
 DIIS TEST: 0.32835E-03 AT SCF   CYCLE   5 - DIIS ACTIVE - HISTORY:     5 CYCLES
 TTTTTTTTTTTTTTTTTTTTTTTTTTTTTT FDIK        TELAPSE      156.19 TCPU     4002.80
 INSULATING STATE
 TOP OF VALENCE BANDS -    BAND    198; K    1; EIG -2.3918104E-01 AU
 BOTTOM OF VIRTUAL BANDS - BAND    199; K    1; EIG -8.6417550E-02 AU
 DIRECT ENERGY BAND GAP:   4.1569 eV
 TTTTTTTTTTTTTTTTTTTTTTTTTTTTTT PDIG        TELAPSE      157.82 TCPU     4009.71
 CHARGE NORMALIZATION FACTOR   1.00000000
 TOTAL ATOMIC CHARGES:
   4.5033145   4.5146425   4.5102770   4.5049946   4.5103991   4.5051090
   4.5053391   4.5106035   4.5051878   4.5104503   4.5147404   4.5035517
   0.8789692   0.8781997   0.8782700   0.8789120   0.8781352   0.8799149
   0.8799009   0.8780946   0.8793777   0.8776228   0.8775596   0.8795129
   0.8794001   0.8776420   0.8775008   0.8794520   0.8781493   0.8799274
   0.8799573   0.8781478   0.8789554   0.8781956   0.8782178   0.8788744
   5.9203913   5.9127333   6.1666531   6.1557677   6.1573309   6.1681325
   6.1621977   6.1636947   6.1653398   6.1642365   5.9178700   5.9254927
   5.9082165   5.9260529   6.1574395   6.1661439   6.1681140   6.1590847
   6.1574326   6.1661463   6.1681232   6.1590906   5.9313203   5.9134288
   5.9204412   5.9128136   6.1621150   6.1636109   6.1654302   6.1643290
   6.1665229   6.1556174   6.1574388   6.1682068   5.9178205   5.9254663
   8.4878893   8.4899692   8.4881522   8.4902376   8.4920000   8.4871837
   8.4902835   8.4880534   8.4872218   8.4923216   8.4905892   8.4883534
 TTTTTTTTTTTTTTTTTTTTTTTTTTTTTT MOQGAD      TELAPSE      157.92 TCPU     4009.81
 TTTTTTTTTTTTTTTTTTTTTTTTTTTTTT SHELLXN     TELAPSE      174.22 TCPU     4529.76
 TTTTTTTTTTTTTTTTTTTTTTTTTTTTTT MONMO3      TELAPSE      174.80 TCPU     4548.13
 NUMERICALLY INTEGRATED DENSITY    396.0000695983
 TTTTTTTTTTTTTTTTTTTTTTTTTTTTTT NUMDFT      TELAPSE      176.31 TCPU     4596.43
 CYC   6 ETOT(AU) -2.578212010633E+03 DETOT -1.98E-05 tst  3.68E-06 PX  3.17E-03
 TTTTTTTTTTTTTTTTTTTTTTTTTTTTTT DIIS        TELAPSE      176.56 TCPU     4603.22
 DIIS TEST: 0.25494E-03 AT SCF   CYCLE   6 - DIIS ACTIVE - HISTORY:     6 CYCLES
 TTTTTTTTTTTTTTTTTTTTTTTTTTTTTT FDIK        TELAPSE      178.57 TCPU     4667.21
 INSULATING STATE
 TOP OF VALENCE BANDS -    BAND    198; K    1; EIG -2.3929773E-01 AU
 BOTTOM OF VIRTUAL BANDS - BAND    199; K    1; EIG -8.6423497E-02 AU
 DIRECT ENERGY BAND GAP:   4.1599 eV
 TTTTTTTTTTTTTTTTTTTTTTTTTTTTTT PDIG        TELAPSE      180.20 TCPU     4674.13
 CHARGE NORMALIZATION FACTOR   1.00000000
 TOTAL ATOMIC CHARGES:
   4.5032849   4.5152156   4.5107441   4.5052314   4.5108676   4.5053493
   4.5050203   4.5105801   4.5048669   4.5104264   4.5148478   4.5029251
   0.8790373   0.8779093   0.8780154   0.8792008   0.8780587   0.8797007
   0.8798266   0.8781913   0.8788955   0.8776652   0.8778782   0.8790677
   0.8789117   0.8776805   0.8778242   0.8790111   0.8780675   0.8797120
   0.8798837   0.8782497   0.8790137   0.8778981   0.8779688   0.8791723
   5.9225091   5.9180805   6.1662351   6.1575074   6.1570140   6.1657932
   6.1631291   6.1652104   6.1647178   6.1625122   5.9174493   5.9218178
   5.9153478   5.9264091   6.1601112   6.1656376   6.1652749   6.1598150
   6.1601924   6.1657133   6.1652074   6.1597433   5.9257223   5.9147052
   5.9226628   5.9182627   6.1630623   6.1651317   6.1648013   6.1625862
   6.1661947   6.1574507   6.1570340   6.1657797   5.9173006   5.9216848
   8.4876620   8.4893289   8.4878858   8.4895579   8.4912271   8.4872065
   8.4893709   8.4877524   8.4872261   8.4911308   8.4896327   8.4880124
 TTTTTTTTTTTTTTTTTTTTTTTTTTTTTT MOQGAD      TELAPSE      180.29 TCPU     4674.22
 TTTTTTTTTTTTTTTTTTTTTTTTTTTTTT SHELLXN     TELAPSE      196.59 TCPU     5194.02
 TTTTTTTTTTTTTTTTTTTTTTTTTTTTTT MONMO3      TELAPSE      197.17 TCPU     5212.40
 NUMERICALLY INTEGRATED DENSITY    396.0000695808
 TTTTTTTTTTTTTTTTTTTTTTTTTTTTTT NUMDFT      TELAPSE      198.68 TCPU     5260.69
 CYC   7 ETOT(AU) -2.578212075319E+03 DETOT -6.47E-05 tst  1.25E-06 PX  1.68E-03
 TTTTTTTTTTTTTTTTTTTTTTTTTTTTTT DIIS        TELAPSE      198.95 TCPU     5267.49
 DIIS TEST: 0.12842E-04 AT SCF   CYCLE   7 - DIIS ACTIVE - HISTORY:     7 CYCLES
 TTTTTTTTTTTTTTTTTTTTTTTTTTTTTT FDIK        TELAPSE      200.96 TCPU     5331.44
 INSULATING STATE
 TOP OF VALENCE BANDS -    BAND    198; K    1; EIG -2.3932290E-01 AU
 BOTTOM OF VIRTUAL BANDS - BAND    199; K    1; EIG -8.6463396E-02 AU
 DIRECT ENERGY BAND GAP:   4.1595 eV
 TTTTTTTTTTTTTTTTTTTTTTTTTTTTTT PDIG        TELAPSE      202.59 TCPU     5338.37
 CHARGE NORMALIZATION FACTOR   1.00000000
 TOTAL ATOMIC CHARGES:
   4.5031224   4.5153446   4.5108290   4.5051809   4.5109520   4.5052986
   4.5051437   4.5108178   4.5049909   4.5106646   4.5151231   4.5029429
   0.8790668   0.8778129   0.8779067   0.8791624   0.8780424   0.8796567
   0.8797381   0.8781201   0.8787710   0.8776982   0.8778335   0.8789353
   0.8787891   0.8777156   0.8777775   0.8788768   0.8780507   0.8796669
   0.8797963   0.8781790   0.8790443   0.8778020   0.8778597   0.8791331
   5.9213543   5.9175460   6.1656663   6.1574197   6.1575503   6.1658076
   6.1627191   6.1649204   6.1650966   6.1629347   5.9186825   5.9224323
   5.9151288   5.9249398   6.1601565   6.1650334   6.1653496   6.1604265
   6.1602174   6.1650881   6.1653012   6.1603743   5.9259786   5.9161874
   5.9214983   5.9177200   6.1626578   6.1648473   6.1651751   6.1630036
   6.1656131   6.1573510   6.1575816   6.1658062   5.9185425   5.9223089
   8.4876983   8.4892284   8.4879284   8.4894637   8.4910044   8.4872483
   8.4893485   8.4878046   8.4872832   8.4910460   8.4896144   8.4880693
 TTTTTTTTTTTTTTTTTTTTTTTTTTTTTT MOQGAD      TELAPSE      202.69 TCPU     5338.46
 TTTTTTTTTTTTTTTTTTTTTTTTTTTTTT SHELLXN     TELAPSE      218.98 TCPU     5858.10
 TTTTTTTTTTTTTTTTTTTTTTTTTTTTTT MONMO3      TELAPSE      219.55 TCPU     5876.45
 NUMERICALLY INTEGRATED DENSITY    396.0000695822
 TTTTTTTTTTTTTTTTTTTTTTTTTTTTTT NUMDFT      TELAPSE      221.07 TCPU     5924.77
 CYC   8 ETOT(AU) -2.578212078170E+03 DETOT -2.85E-06 tst  6.11E-08 PX  3.70E-04
 TTTTTTTTTTTTTTTTTTTTTTTTTTTTTT DIIS        TELAPSE      221.36 TCPU     5931.55
 DIIS TEST: 0.19341E-05 AT SCF   CYCLE   8 - DIIS ACTIVE - HISTORY:     8 CYCLES
 TTTTTTTTTTTTTTTTTTTTTTTTTTTTTT FDIK        TELAPSE      223.38 TCPU     5995.74
 INSULATING STATE
 TOP OF VALENCE BANDS -    BAND    198; K    1; EIG -2.3931927E-01 AU
 BOTTOM OF VIRTUAL BANDS - BAND    199; K    1; EIG -8.6479587E-02 AU
 DIRECT ENERGY BAND GAP:   4.1590 eV
 TTTTTTTTTTTTTTTTTTTTTTTTTTTTTT PDIG        TELAPSE      225.00 TCPU     6002.66
 CHARGE NORMALIZATION FACTOR   1.00000000
 TOTAL ATOMIC CHARGES:
   4.5031805   4.5154089   4.5108896   4.5052351   4.5110123   4.5053523
   4.5051560   4.5108428   4.5050035   4.5106899   4.5151539   4.5029597
   0.8790130   0.8778148   0.8779122   0.8791256   0.8780147   0.8796335
   0.8797274   0.8781075   0.8787858   0.8776488   0.8778024   0.8789522
   0.8788035   0.8776656   0.8777468   0.8788941   0.8780235   0.8796441
   0.8797852   0.8781658   0.8789907   0.8778041   0.8778651   0.8790959
   5.9216415   5.9175421   6.1658737   6.1574324   6.1574103   6.1658722
   6.1628717   6.1649724   6.1649719   6.1628687   5.9182257   5.9222674
   5.9149421   5.9253733   6.1600707   6.1652802   6.1654335   6.1602030
   6.1601323   6.1653368   6.1653845   6.1601500   5.9259978   5.9155930
   5.9217809   5.9177113   6.1628074   6.1648970   6.1650525   6.1629404
   6.1658186   6.1573615   6.1574440   6.1658731   5.9180903   5.9221487
   8.4877289   8.4893106   8.4879594   8.4895464   8.4911084   8.4872509
   8.4894138   8.4878341   8.4872772   8.4911103   8.4896810   8.4880996
 TTTTTTTTTTTTTTTTTTTTTTTTTTTTTT MOQGAD      TELAPSE      225.10 TCPU     6002.75
 TTTTTTTTTTTTTTTTTTTTTTTTTTTTTT SHELLXN     TELAPSE      241.39 TCPU     6522.32
 TTTTTTTTTTTTTTTTTTTTTTTTTTTTTT MONMO3      TELAPSE      241.96 TCPU     6540.68
 NUMERICALLY INTEGRATED DENSITY    396.0000695839
 TTTTTTTTTTTTTTTTTTTTTTTTTTTTTT NUMDFT      TELAPSE      243.48 TCPU     6588.95
 CYC   9 ETOT(AU) -2.578212078423E+03 DETOT -2.53E-07 tst  4.73E-09 PX  1.48E-04
 TTTTTTTTTTTTTTTTTTTTTTTTTTTTTT DIIS        TELAPSE      243.79 TCPU     6595.80
 DIIS TEST: 0.32959E-07 AT SCF   CYCLE   9 - DIIS ACTIVE - HISTORY:     9 CYCLES
 TTTTTTTTTTTTTTTTTTTTTTTTTTTTTT FDIK        TELAPSE      245.81 TCPU     6659.79
 INSULATING STATE
 TOP OF VALENCE BANDS -    BAND    198; K    1; EIG -2.3932113E-01 AU
 BOTTOM OF VIRTUAL BANDS - BAND    199; K    1; EIG -8.6472977E-02 AU
 DIRECT ENERGY BAND GAP:   4.1592 eV
 TTTTTTTTTTTTTTTTTTTTTTTTTTTTTT PDIG        TELAPSE      247.48 TCPU     6666.76
 CHARGE NORMALIZATION FACTOR   1.00000000
 TOTAL ATOMIC CHARGES:
   4.5031856   4.5153676   4.5108525   4.5052221   4.5109754   4.5053396
   4.5051451   4.5108064   4.5049922   4.5106532   4.5151132   4.5029653
   0.8790109   0.8778165   0.8779137   0.8791228   0.8780180   0.8796319
   0.8797239   0.8781089   0.8787837   0.8776492   0.8778022   0.8789497
   0.8788010   0.8776657   0.8777470   0.8788919   0.8780266   0.8796426
   0.8797816   0.8781674   0.8789881   0.8778056   0.8778669   0.8790938
   5.9216212   5.9175345   6.1658976   6.1574248   6.1574077   6.1659011
   6.1628506   6.1649936   6.1650150   6.1628725   5.9182555   5.9222832
   5.9149788   5.9253533   6.1600856   6.1652771   6.1654375   6.1602258
   6.1601528   6.1653388   6.1653830   6.1601673   5.9259887   5.9156394
   5.9217670   5.9177098   6.1627868   6.1649181   6.1650956   6.1629439
   6.1658475   6.1573589   6.1574363   6.1658967   5.9181140   5.9221581
   8.4877176   8.4893011   8.4879459   8.4895346   8.4911154   8.4872551
   8.4894022   8.4878198   8.4872872   8.4911251   8.4896671   8.4880833
 TTTTTTTTTTTTTTTTTTTTTTTTTTTTTT MOQGAD      TELAPSE      247.57 TCPU     6666.86
 TTTTTTTTTTTTTTTTTTTTTTTTTTTTTT SHELLXN     TELAPSE      263.87 TCPU     7186.48
 +++ ENERGIES IN A.U. +++
 ::: EXT EL-POLE                                  -2.3450944599771E+03
 ::: EXT EL-SPHEROPOLE                             2.7226720597992E+01
 ::: BIELET ZONE E-E                               4.1681813151457E+03
 ::: TOTAL E-E                                     1.8503135757667E+03
 ::: TOTAL E-N + N-E                              -7.3619337997209E+03
 ::: TOTAL N-N                                     6.4097347894671E+02
 ::: KINETIC ENERGY                                2.5598635023977E+03
 ::: PSEUDO TOTAL   ENERGY                        -2.3107832426099E+03
 ::: VIRIAL COEFFICIENT                            1.0511390525382E+00
 TTTTTTTTTTTTTTTTTTTTTTTTTTTTTT MONMO3      TELAPSE      264.44 TCPU     7204.87
 NUMERICALLY INTEGRATED DENSITY    396.0000695840
 EXCHANGE ENERGY: -0.252050051088E+03  CORRELATION ENERGY: -0.153787847908E+02
 TTTTTTTTTTTTTTTTTTTTTTTTTTTTTT NUMDFT      TELAPSE      265.95 TCPU     7253.17
 CYC  10 ETOT(AU) -2.578212078489E+03 DETOT -6.63E-08 tst  6.26E-11 PX  1.48E-04

 == SCF ENDED - CONVERGENCE ON ENERGY      E(AU) -2.5782120784891E+03 CYCLES  10


 ENERGY EXPRESSION=HARTREE+FOCK EXCH*0.00000+(HSESOL     EXCH)*1.00000+PBESOL     CORR


 TOTAL ENERGY(DFT)(AU)( 10) -2.5782120784891E+03 DE-6.6E-08 tester 6.3E-11
 TTTTTTTTTTTTTTTTTTTTTTTTTTTTTT EDFT        TELAPSE      265.95 TCPU     7253.18
 
 INFORMATION **** DFTD3 ENERGY **** CALCULATE DFTD3 ENERGY

           DFT-D V3(BJ)
 DF                                         hsesol3c  
 parameters
 s6       :    1.0000
 s8       :    0.0000
 a1       :    0.5196
 a2       :    4.9385
 k1 k3    :   16.0000   -4.0000
 Cutoff   :   50.2022
 CN-Cutoff:   21.1671
 ABC-Cutoff:   21.1671
 
 Edisp /kcal,au:   -49.2080 -0.07841799

 E6    /kcal :   -52.4017
 E8    /kcal :     0.0000
 E6(ABC) "   :   3.193624
 
 INFORMATION **** DFTD3 ENERGY **** NORMAL TERMINATION OF DFTD3 MODULE

 GCP ENERGY CALCULATION
  level        hsesol3c            basis:hsesol3c
  Nbf            948
  Atoms           84

  Parameters: 
  sigma     1.0000
  eta       1.4281
  alpha     0.2936
  beta      1.9467

  dmp_scal      4.0000
  dmp_exp       6.0000
 cutoffs: 
   distance [bohr] 60.0
   noise    [a.u.] 2.2E-16
 SR-damping   T
 ** gCP correction **
  Egcp:        0.1658757166 / (a.u.) ||     104.0886 / (kcal/mol)
 INFORMATION **** GCP **** NORMAL TERMINATION OF GCP MODULE

 *******************************************************************************

 DFT-D3-GCP DISPERSION AND COUNTERPOISE CORRECTION

 D3 DISPERSION ENERGY (AU)      -7.8417994825621E-02
 GCP ENERGY (AU)                 1.6587571657654E-01
 TOTAL ENERGY + DISP + GCP (AU) -2.5781246207674E+03

 *******************************************************************************

 EIGENVECTORS IN FORTRAN UNIT  8
 TTTTTTTTTTTTTTTTTTTTTTTTTTTTTT END         TELAPSE      268.68 TCPU     7261.75
 EEEEEEEEEE TERMINATION  DATE 19 02 2026 TIME 20:31:01.5
