 Default number of threads is:           32

         
 *******************************************************************************
 *                                                                             *
 *                               CRYSTAL23                                     *
 *                      public : 1.0.1 - October 2022                          *
 *                       HTTP://WWW.CRYSTAL.UNITO.IT                           *
 *                                                                             *
 *                              MAIN AUTHORS                                   *
 *                                                                             *
 *  R. DOVESI(1,11), V.R. SAUNDERS(2), C. ROETTI(1,11), R. ORLANDO(1,11),      *
 *  C.M. ZICOVICH-WILSON(1,3), F. PASCALE(4), B. CIVALLERI(1,11),              *
 *  K. DOLL(5), N.M. HARRISON(6), I.J. BUSH(7), Ph. D'ARCO(8),                 *
 *  M. LLUNELL(9), M. CAUSA'(10), Y. NOEL(8), L. MASCHIO(1,11), A. ERBA(1,11)  *
 *  M. RE'RAT(14), S. CASASSA(1,11), B.G. SEARLE(2), J.K. DESMARAIS(1)         *
 *                                                                             *
 *        CONTRIBUTIONS TO THE CODE HAVE ALSO BEEN GIVEN BY                    *
 *                                                                             *
 *  M. FERRABONE(1,11), M. DE LA PIERRE(1,11), M. FERRERO(1,11),               *
 *  J. BAIMA(1,11), E. ALBANESE(1,11), M.F. PEINTINGER(12), R. BAST(13),       *
 *  B. KIRTMAN(15), V. LACIVITA(1,11), R. DEMICHELIS(1,16)                     *
 *  G. BRANDEBURG(17), S. SALUSTRO(1,11), G. SANSONE(1,11)                     *
 *  M.T. RUGGIERO(18), L.E. DAGA(1), L. DONA'(1), A. COSSARD(1)                *
 *                                                                             *
 * (1) THEORETICAL CHEMISTRY GROUP - UNIVERSITA' DI TORINO - TORINO (ITALY)    *
 * (2) SCIENTIFIC COMPUTING DEPARTMENT - STFC DARESBURY (UK)                   *
 * (3) UNIVERSIDAD AUTONOMA DEL ESTADO DE MORELOS - CUERNAVACA (MEXICO)        *
 * (4) UNIVERSITE' DE LORRAINE - NANCY (FRANCE)                                *
 * (5) UNIVERSITAET STUTTGART- STUTTGART (GERMANY)                             *
 * (6) IMPERIAL COLLEGE - LONDON (UK)                                          *
 * (7) SCIENTIFIC COMPUTING DEPARTMENT - STFC RAL (UK)                         *
 * (8) UPMC - SORBONNE UNIVERSITES - PARIS (FRANCE)                            *
 * (9) UNIVERSIDAD DE BARCELONA - BARCELONA (SPAIN)                            *
 *(10) UNIVERSITA' DI NAPOLI "FEDERICO II" - NAPOLI (ITALY)                    *
 *(11) NIS - NANOSTRUCTURED INTERFACES AND SURFACES - TORINO (ITALY)           *
 *(12) MPI FUER CHEMISCHE ENERGIEKONVERSION - MUELHEIM AN DER RUHR (GERMANY)   *
 *(13) UNIVERSITY OF TROMSO - TROMSO (NORWAY)                                  *
 *(14) UNIVERSITE' DE PAU ET DES PAYS DE L'ADOUR - PAU (FRANCE)                *
 *(15) UNIVERSITY OF CALIFORNIA SANTA BARBARA - SANTA BARBARA (USA)            *
 *(16) CURTIN UNIVERSITY - PERTH (AUSTRALIA)                                   *
 *(17) UNIVERSITY COLLEGE LONDON - LONDON (UK)                                 *
 *(18) UNIVERSITY OF VERMONT - BURLINGTON (USA)                                *
 *                                                                             *
 *******************************************************************************
 EEEEEEEEEE STARTING  DATE 19 02 2026 TIME 20:15:44.0
 cof-1_z37_L040_serr                                                             

 CRYSTAL CALCULATION
 (INPUT ACCORDING TO THE INTERNATIONAL TABLES FOR X-RAY CRYSTALLOGRAPHY)
 CRYSTAL FAMILY                       :  TRICLINIC   
 CRYSTAL CLASS  (GROTH - 1921)        :  TRICLINIC PEDIAL                     

 SPACE GROUP (NONCENTROSYMMETRIC)     :  P 1             

 LATTICE PARAMETERS  (ANGSTROMS AND DEGREES) - CONVENTIONAL CELL
        A           B           C        ALPHA        BETA       GAMMA
    15.02361    15.02392     7.40000    90.00032    89.99994   119.99596


 NUMBER OF IRREDUCIBLE ATOMS IN THE CONVENTIONAL CELL:   84

 INPUT COORDINATES

 ATOM AT. N.              COORDINATES
   1   5     6.136805400000E-01  2.273182200000E-01  2.506455000000E-01
   2   5     7.673736500000E-01  5.347356900000E-01  7.506455000000E-01
   3   5     7.727362000000E-01  3.863778800000E-01  2.506455100000E-01
   4   5     9.264293100000E-01  6.937953500000E-01  7.506455100000E-01
   5   5     6.136762700000E-01  3.863606700000E-01  2.492883200000E-01
   6   5     7.673693800000E-01  6.937781400000E-01  7.492883200000E-01
   7   5     2.272552500000E-01  6.136332200000E-01  2.506455100000E-01
   8   5     3.809483600000E-01  9.210506900000E-01  7.506455100000E-01
   9   5     3.863632200000E-01  6.136124500000E-01  2.506455000000E-01
  10   5     5.400563300000E-01  9.210299200000E-01  7.506455000000E-01
  11   5     3.863435000000E-01  7.727516500000E-01  2.492883200000E-01
  12   5     5.400366100000E-01  8.016912000000E-02  7.492883200000E-01
  13   1     9.030436200000E-01  3.089300500000E-01  2.478317800000E-01
  14   1     5.673673000000E-02  6.163475200000E-01  7.478317800000E-01
  15   1     9.663453000000E-02  6.910534400000E-01  2.474015200000E-01
  16   1     2.503276400000E-01  9.984709100000E-01  7.474015200000E-01
  17   1     9.029714200000E-01  5.940724300000E-01  2.473353000000E-01
  18   1     5.666453000000E-02  9.014899000000E-01  7.473353000000E-01
  19   1     9.673618000000E-02  4.056849400000E-01  2.473518100000E-01
  20   1     2.504292900000E-01  7.131024100000E-01  7.473518100000E-01
  21   1     6.910324000000E-01  9.700412000000E-02  2.521682400000E-01
  22   1     8.447255100000E-01  4.044215900000E-01  7.521682300000E-01
  23   1     3.089297200000E-01  9.034373100000E-01  2.525985200000E-01
  24   1     4.626228300000E-01  2.108547800000E-01  7.525985300000E-01
  25   1     4.058699900000E-01  9.704998000000E-02  2.526647900000E-01
  26   1     5.595631000000E-01  4.044674500000E-01  7.526647900000E-01
  27   1     5.943122100000E-01  9.033473200000E-01  2.526481600000E-01
  28   1     7.480053200000E-01  2.107647900000E-01  7.526481600000E-01
  29   1     6.910727400000E-01  5.940542100000E-01  2.478318100000E-01
  30   1     8.447658500000E-01  9.014716800000E-01  7.478318100000E-01
  31   1     3.089618300000E-01  4.056093300000E-01  2.474014900000E-01
  32   1     4.626549400000E-01  7.130268000000E-01  7.474014900000E-01
  33   1     4.058405700000E-01  3.088232500000E-01  2.473352500000E-01
  34   1     5.595336800000E-01  6.162407200000E-01  7.473352500000E-01
  35   1     5.942908800000E-01  6.909579300000E-01  2.473518700000E-01
  36   1     7.479839900000E-01  9.983754000000E-01  7.473518700000E-01
  37   6     8.918903100000E-01  4.459436900000E-01  2.492386600000E-01
  38   6     4.558342000000E-02  7.533611600000E-01  7.492386600000E-01
  39   6     9.464891100000E-01  3.927856300000E-01  2.478980000000E-01
  40   6     1.001822200000E-01  7.002031000000E-01  7.478980000000E-01
  41   6     5.338812000000E-02  6.071853000000E-01  2.477821800000E-01
  42   6     2.070812300000E-01  9.146027700000E-01  7.477821800000E-01
  43   6     9.464521100000E-01  5.536921900000E-01  2.481297500000E-01
  44   6     1.001452200000E-01  8.611096600000E-01  7.481297600000E-01
  45   6     5.342634000000E-02  4.462499700000E-01  2.472359600000E-01
  46   6     2.071194500000E-01  7.536674400000E-01  7.472359600000E-01
  47   6     1.080358900000E-01  5.540356300000E-01  2.481462900000E-01
  48   6     2.617290000000E-01  8.614531000000E-01  7.481462900000E-01
  49   6     5.540394200000E-01  1.081684600000E-01  2.507613700000E-01
  50   6     7.077325300000E-01  4.155859300000E-01  7.507613700000E-01
  51   6     6.071778500000E-01  5.355594000000E-02  2.521020100000E-01
  52   6     7.608709600000E-01  3.609734100000E-01  7.521020100000E-01
  53   6     3.927986700000E-01  9.466631600000E-01  2.522178700000E-01
  54   6     5.464917800000E-01  2.540806300000E-01  7.522178700000E-01
  55   6     4.462875800000E-01  5.360286000000E-02  2.518703100000E-01
  56   6     5.999806900000E-01  3.610203300000E-01  7.518703100000E-01
  57   6     5.537168500000E-01  9.466235600000E-01  2.527640400000E-01
  58   6     7.074099600000E-01  2.540410300000E-01  7.527640400000E-01
  59   6     4.459279100000E-01  8.919920600000E-01  2.518537400000E-01
  60   6     5.996210200000E-01  1.994095300000E-01  7.518537400000E-01
  61   6     5.540448700000E-01  4.458745500000E-01  2.492386600000E-01
  62   6     7.077379800000E-01  7.532920200000E-01  7.492386600000E-01
  63   6     6.072102200000E-01  5.536257800000E-01  2.478980300000E-01
  64   6     7.609033300000E-01  8.610432500000E-01  7.478980300000E-01
  65   6     3.928233700000E-01  4.461720300000E-01  2.477821600000E-01
  66   6     5.465164800000E-01  7.535895000000E-01  7.477821600000E-01
  67   6     4.462872600000E-01  3.926899900000E-01  2.481297200000E-01
  68   6     5.999803700000E-01  7.001074600000E-01  7.481297200000E-01
  69   6     5.537429600000E-01  6.070980000000E-01  2.472359900000E-01
  70   6     7.074360700000E-01  9.145154700000E-01  7.472359900000E-01
  71   6     4.459599800000E-01  5.539582300000E-01  2.481462900000E-01
  72   6     5.996530900000E-01  8.613757000000E-01  7.481462900000E-01
  73   8     5.607366800000E-01  2.803706300000E-01  2.496524400000E-01
  74   8     7.144297900000E-01  5.877881000000E-01  7.496524400000E-01
  75   8     7.196817000000E-01  2.803783300000E-01  2.525157700000E-01
  76   8     8.733748100000E-01  5.877958000000E-01  7.525157700000E-01
  77   8     7.196794200000E-01  4.393234600000E-01  2.481959500000E-01
  78   8     8.733725300000E-01  7.467409300000E-01  7.481959500000E-01
  79   8     2.803245100000E-01  7.196511100000E-01  2.496524500000E-01
  80   8     4.340176200000E-01  2.706858000000E-02  7.496524500000E-01
  81   8     2.803439700000E-01  5.606956100000E-01  2.525157700000E-01
  82   8     4.340370800000E-01  8.681130800000E-01  7.525157700000E-01
  83   8     4.392638400000E-01  7.196354200000E-01  2.481959400000E-01
  84   8     5.929569500000E-01  2.705289000000E-02  7.481959400000E-01

 *******************************************************************************

 << INFORMATION >>: FROM NOW ON, ALL COORDINATES REFER TO THE PRIMITIVE CELL

 *******************************************************************************

 LATTICE PARAMETERS  (ANGSTROMS AND DEGREES) - PRIMITIVE CELL
       A          B          C        ALPHA      BETA     GAMMA        VOLUME
   15.02361   15.02392    7.40000    90.00032  89.99994 119.99596   1446.563455

 COORDINATES OF THE EQUIVALENT ATOMS (FRACTIONAL UNITS)

 N. ATOM EQUIV AT. N.          X                  Y                  Z

   1   1   1    5 B    -3.86319460000E-01  2.27318220000E-01  2.50645500000E-01

   2   2   1    5 B    -2.32626350000E-01 -4.65264310000E-01 -2.49354500000E-01

   3   3   1    5 B    -2.27263800000E-01  3.86377880000E-01  2.50645510000E-01

   4   4   1    5 B    -7.35706900000E-02 -3.06204650000E-01 -2.49354490000E-01

   5   5   1    5 B    -3.86323730000E-01  3.86360670000E-01  2.49288320000E-01

   6   6   1    5 B    -2.32630620000E-01 -3.06221860000E-01 -2.50711680000E-01

   7   7   1    5 B     2.27255250000E-01 -3.86366780000E-01  2.50645510000E-01

   8   8   1    5 B     3.80948360000E-01 -7.89493100000E-02 -2.49354490000E-01

   9   9   1    5 B     3.86363220000E-01 -3.86387550000E-01  2.50645500000E-01

  10  10   1    5 B    -4.59943670000E-01 -7.89700800000E-02 -2.49354500000E-01

  11  11   1    5 B     3.86343500000E-01 -2.27248350000E-01  2.49288320000E-01

  12  12   1    5 B    -4.59963390000E-01  8.01691200000E-02 -2.50711680000E-01

  13  13   1    1 H    -9.69563800000E-02  3.08930050000E-01  2.47831780000E-01

  14  14   1    1 H     5.67367300000E-02 -3.83652480000E-01 -2.52168220000E-01

  15  15   1    1 H     9.66345300000E-02 -3.08946560000E-01  2.47401520000E-01

  16  16   1    1 H     2.50327640000E-01 -1.52909000000E-03 -2.52598480000E-01

  17  17   1    1 H    -9.70285800000E-02 -4.05927570000E-01  2.47335300000E-01

  18  18   1    1 H     5.66645300000E-02 -9.85101000000E-02 -2.52664700000E-01

  19  19   1    1 H     9.67361800000E-02  4.05684940000E-01  2.47351810000E-01

  20  20   1    1 H     2.50429290000E-01 -2.86897590000E-01 -2.52648190000E-01

  21  21   1    1 H    -3.08967600000E-01  9.70041200000E-02  2.52168240000E-01

  22  22   1    1 H    -1.55274490000E-01  4.04421590000E-01 -2.47831770000E-01

  23  23   1    1 H     3.08929720000E-01 -9.65626900000E-02  2.52598520000E-01

  24  24   1    1 H     4.62622830000E-01  2.10854780000E-01 -2.47401470000E-01

  25  25   1    1 H     4.05869990000E-01  9.70499800000E-02  2.52664790000E-01

  26  26   1    1 H    -4.40436900000E-01  4.04467450000E-01 -2.47335210000E-01

  27  27   1    1 H    -4.05687790000E-01 -9.66526800000E-02  2.52648160000E-01

  28  28   1    1 H    -2.51994680000E-01  2.10764790000E-01 -2.47351840000E-01

  29  29   1    1 H    -3.08927260000E-01 -4.05945790000E-01  2.47831810000E-01

  30  30   1    1 H    -1.55234150000E-01 -9.85283200000E-02 -2.52168190000E-01

  31  31   1    1 H     3.08961830000E-01  4.05609330000E-01  2.47401490000E-01

  32  32   1    1 H     4.62654940000E-01 -2.86973200000E-01 -2.52598510000E-01

  33  33   1    1 H     4.05840570000E-01  3.08823250000E-01  2.47335250000E-01

  34  34   1    1 H    -4.40466320000E-01 -3.83759280000E-01 -2.52664750000E-01

  35  35   1    1 H    -4.05709120000E-01 -3.09042070000E-01  2.47351870000E-01

  36  36   1    1 H    -2.52016010000E-01 -1.62460000000E-03 -2.52648130000E-01

  37  37   1    6 C    -1.08109690000E-01  4.45943690000E-01  2.49238660000E-01

  38  38   1    6 C     4.55834200000E-02 -2.46638840000E-01 -2.50761340000E-01

  39  39   1    6 C    -5.35108900000E-02  3.92785630000E-01  2.47898000000E-01

  40  40   1    6 C     1.00182220000E-01 -2.99796900000E-01 -2.52102000000E-01

  41  41   1    6 C     5.33881200000E-02 -3.92814700000E-01  2.47782180000E-01

  42  42   1    6 C     2.07081230000E-01 -8.53972300000E-02 -2.52217820000E-01

  43  43   1    6 C    -5.35478900000E-02 -4.46307810000E-01  2.48129750000E-01

  44  44   1    6 C     1.00145220000E-01 -1.38890340000E-01 -2.51870240000E-01

  45  45   1    6 C     5.34263400000E-02  4.46249970000E-01  2.47235960000E-01

  46  46   1    6 C     2.07119450000E-01 -2.46332560000E-01 -2.52764040000E-01

  47  47   1    6 C     1.08035890000E-01 -4.45964370000E-01  2.48146290000E-01

  48  48   1    6 C     2.61729000000E-01 -1.38546900000E-01 -2.51853710000E-01

  49  49   1    6 C    -4.45960580000E-01  1.08168460000E-01  2.50761370000E-01

  50  50   1    6 C    -2.92267470000E-01  4.15585930000E-01 -2.49238630000E-01

  51  51   1    6 C    -3.92822150000E-01  5.35559400000E-02  2.52102010000E-01

  52  52   1    6 C    -2.39129040000E-01  3.60973410000E-01 -2.47897990000E-01

  53  53   1    6 C     3.92798670000E-01 -5.33368400000E-02  2.52217870000E-01

  54  54   1    6 C    -4.53508220000E-01  2.54080630000E-01 -2.47782130000E-01

  55  55   1    6 C     4.46287580000E-01  5.36028600000E-02  2.51870310000E-01

  56  56   1    6 C    -4.00019310000E-01  3.61020330000E-01 -2.48129690000E-01

  57  57   1    6 C    -4.46283150000E-01 -5.33764400000E-02  2.52764040000E-01

  58  58   1    6 C    -2.92590040000E-01  2.54041030000E-01 -2.47235960000E-01

  59  59   1    6 C     4.45927910000E-01 -1.08007940000E-01  2.51853740000E-01

  60  60   1    6 C    -4.00378980000E-01  1.99409530000E-01 -2.48146260000E-01

  61  61   1    6 C    -4.45955130000E-01  4.45874550000E-01  2.49238660000E-01

  62  62   1    6 C    -2.92262020000E-01 -2.46707980000E-01 -2.50761340000E-01

  63  63   1    6 C    -3.92789780000E-01 -4.46374220000E-01  2.47898030000E-01

  64  64   1    6 C    -2.39096670000E-01 -1.38956750000E-01 -2.52101970000E-01

  65  65   1    6 C     3.92823370000E-01  4.46172030000E-01  2.47782160000E-01

  66  66   1    6 C    -4.53483520000E-01 -2.46410500000E-01 -2.52217840000E-01

  67  67   1    6 C     4.46287260000E-01  3.92689990000E-01  2.48129720000E-01

  68  68   1    6 C    -4.00019630000E-01 -2.99892540000E-01 -2.51870280000E-01

  69  69   1    6 C    -4.46257040000E-01 -3.92902000000E-01  2.47235990000E-01

  70  70   1    6 C    -2.92563930000E-01 -8.54845300000E-02 -2.52764010000E-01

  71  71   1    6 C     4.45959980000E-01 -4.46041770000E-01  2.48146290000E-01

  72  72   1    6 C    -4.00346910000E-01 -1.38624300000E-01 -2.51853710000E-01

  73  73   1    8 O    -4.39263320000E-01  2.80370630000E-01  2.49652440000E-01

  74  74   1    8 O    -2.85570210000E-01 -4.12211900000E-01 -2.50347560000E-01

  75  75   1    8 O    -2.80318300000E-01  2.80378330000E-01  2.52515770000E-01

  76  76   1    8 O    -1.26625190000E-01 -4.12204200000E-01 -2.47484230000E-01

  77  77   1    8 O    -2.80320580000E-01  4.39323460000E-01  2.48195950000E-01

  78  78   1    8 O    -1.26627470000E-01 -2.53259070000E-01 -2.51804050000E-01

  79  79   1    8 O     2.80324510000E-01 -2.80348890000E-01  2.49652450000E-01

  80  80   1    8 O     4.34017620000E-01  2.70685800000E-02 -2.50347550000E-01

  81  81   1    8 O     2.80343970000E-01 -4.39304390000E-01  2.52515770000E-01

  82  82   1    8 O     4.34037080000E-01 -1.31886920000E-01 -2.47484230000E-01

  83  83   1    8 O     4.39263840000E-01 -2.80364580000E-01  2.48195940000E-01

  84  84   1    8 O    -4.07043050000E-01  2.70528900000E-02 -2.51804060000E-01

 NUMBER OF SYMMETRY OPERATORS         :    1
 *******************************************************************************
 * GEOMETRY EDITING - INPUT COORDINATES ARE GIVEN IN ANGSTROM         
 *******************************************************************************

 GCALCO - MAX INDICES DIRECT LATTICE VECTOR    12    12    21
 NO.OF VECTORS CREATED 6999 STARS 3500 RMAX   253.28002 BOHR

 GEOMETRY FOR WAVE FUNCTION - DIMENSIONALITY OF THE SYSTEM    3
 (NON PERIODIC DIRECTION: LATTICE PARAMETER FORMALLY SET TO 500)
 *******************************************************************************
 LATTICE PARAMETERS (ANGSTROMS AND DEGREES) - BOHR = 0.5291772083 ANGSTROM
 PRIMITIVE CELL - CENTRING CODE 1/0 VOLUME=  1446.563455 - DENSITY  0.896 g/cm^3
         A              B              C           ALPHA      BETA       GAMMA 
    15.02361100    15.02391600     7.40000000    90.000323  89.999944 119.995964
 *******************************************************************************
 ATOMS IN THE ASYMMETRIC UNIT   84 - ATOMS IN THE UNIT CELL:   84
     ATOM                 X/A                 Y/B                 Z/C    
 *******************************************************************************
      1 T   5 B    -3.863194600000E-01  2.273182200000E-01  2.506455000000E-01
      2 T   5 B    -2.326263500000E-01 -4.652643100000E-01 -2.493545000000E-01
      3 T   5 B    -2.272638000000E-01  3.863778800000E-01  2.506455100000E-01
      4 T   5 B    -7.357069000000E-02 -3.062046500000E-01 -2.493544900000E-01
      5 T   5 B    -3.863237300000E-01  3.863606700000E-01  2.492883200000E-01
      6 T   5 B    -2.326306200000E-01 -3.062218600000E-01 -2.507116800000E-01
      7 T   5 B     2.272552500000E-01 -3.863667800000E-01  2.506455100000E-01
      8 T   5 B     3.809483600000E-01 -7.894931000000E-02 -2.493544900000E-01
      9 T   5 B     3.863632200000E-01 -3.863875500000E-01  2.506455000000E-01
     10 T   5 B    -4.599436700000E-01 -7.897008000000E-02 -2.493545000000E-01
     11 T   5 B     3.863435000000E-01 -2.272483500000E-01  2.492883200000E-01
     12 T   5 B    -4.599633900000E-01  8.016912000000E-02 -2.507116800000E-01
     13 T   1 H    -9.695638000000E-02  3.089300500000E-01  2.478317800000E-01
     14 T   1 H     5.673673000000E-02 -3.836524800000E-01 -2.521682200000E-01
     15 T   1 H     9.663453000000E-02 -3.089465600000E-01  2.474015200000E-01
     16 T   1 H     2.503276400000E-01 -1.529090000000E-03 -2.525984800000E-01
     17 T   1 H    -9.702858000000E-02 -4.059275700000E-01  2.473353000000E-01
     18 T   1 H     5.666453000000E-02 -9.851010000000E-02 -2.526647000000E-01
     19 T   1 H     9.673618000000E-02  4.056849400000E-01  2.473518100000E-01
     20 T   1 H     2.504292900000E-01 -2.868975900000E-01 -2.526481900000E-01
     21 T   1 H    -3.089676000000E-01  9.700412000000E-02  2.521682400000E-01
     22 T   1 H    -1.552744900000E-01  4.044215900000E-01 -2.478317700000E-01
     23 T   1 H     3.089297200000E-01 -9.656269000000E-02  2.525985200000E-01
     24 T   1 H     4.626228300000E-01  2.108547800000E-01 -2.474014700000E-01
     25 T   1 H     4.058699900000E-01  9.704998000000E-02  2.526647900000E-01
     26 T   1 H    -4.404369000000E-01  4.044674500000E-01 -2.473352100000E-01
     27 T   1 H    -4.056877900000E-01 -9.665268000000E-02  2.526481600000E-01
     28 T   1 H    -2.519946800000E-01  2.107647900000E-01 -2.473518400000E-01
     29 T   1 H    -3.089272600000E-01 -4.059457900000E-01  2.478318100000E-01
     30 T   1 H    -1.552341500000E-01 -9.852832000000E-02 -2.521681900000E-01
     31 T   1 H     3.089618300000E-01  4.056093300000E-01  2.474014900000E-01
     32 T   1 H     4.626549400000E-01 -2.869732000000E-01 -2.525985100000E-01
     33 T   1 H     4.058405700000E-01  3.088232500000E-01  2.473352500000E-01
     34 T   1 H    -4.404663200000E-01 -3.837592800000E-01 -2.526647500000E-01
     35 T   1 H    -4.057091200000E-01 -3.090420700000E-01  2.473518700000E-01
     36 T   1 H    -2.520160100000E-01 -1.624600000000E-03 -2.526481300000E-01
     37 T   6 C    -1.081096900000E-01  4.459436900000E-01  2.492386600000E-01
     38 T   6 C     4.558342000000E-02 -2.466388400000E-01 -2.507613400000E-01
     39 T   6 C    -5.351089000000E-02  3.927856300000E-01  2.478980000000E-01
     40 T   6 C     1.001822200000E-01 -2.997969000000E-01 -2.521020000000E-01
     41 T   6 C     5.338812000000E-02 -3.928147000000E-01  2.477821800000E-01
     42 T   6 C     2.070812300000E-01 -8.539723000000E-02 -2.522178200000E-01
     43 T   6 C    -5.354789000000E-02 -4.463078100000E-01  2.481297500000E-01
     44 T   6 C     1.001452200000E-01 -1.388903400000E-01 -2.518702400000E-01
     45 T   6 C     5.342634000000E-02  4.462499700000E-01  2.472359600000E-01
     46 T   6 C     2.071194500000E-01 -2.463325600000E-01 -2.527640400000E-01
     47 T   6 C     1.080358900000E-01 -4.459643700000E-01  2.481462900000E-01
     48 T   6 C     2.617290000000E-01 -1.385469000000E-01 -2.518537100000E-01
     49 T   6 C    -4.459605800000E-01  1.081684600000E-01  2.507613700000E-01
     50 T   6 C    -2.922674700000E-01  4.155859300000E-01 -2.492386300000E-01
     51 T   6 C    -3.928221500000E-01  5.355594000000E-02  2.521020100000E-01
     52 T   6 C    -2.391290400000E-01  3.609734100000E-01 -2.478979900000E-01
     53 T   6 C     3.927986700000E-01 -5.333684000000E-02  2.522178700000E-01
     54 T   6 C    -4.535082200000E-01  2.540806300000E-01 -2.477821300000E-01
     55 T   6 C     4.462875800000E-01  5.360286000000E-02  2.518703100000E-01
     56 T   6 C    -4.000193100000E-01  3.610203300000E-01 -2.481296900000E-01
     57 T   6 C    -4.462831500000E-01 -5.337644000000E-02  2.527640400000E-01
     58 T   6 C    -2.925900400000E-01  2.540410300000E-01 -2.472359600000E-01
     59 T   6 C     4.459279100000E-01 -1.080079400000E-01  2.518537400000E-01
     60 T   6 C    -4.003789800000E-01  1.994095300000E-01 -2.481462600000E-01
     61 T   6 C    -4.459551300000E-01  4.458745500000E-01  2.492386600000E-01
     62 T   6 C    -2.922620200000E-01 -2.467079800000E-01 -2.507613400000E-01
     63 T   6 C    -3.927897800000E-01 -4.463742200000E-01  2.478980300000E-01
     64 T   6 C    -2.390966700000E-01 -1.389567500000E-01 -2.521019700000E-01
     65 T   6 C     3.928233700000E-01  4.461720300000E-01  2.477821600000E-01
     66 T   6 C    -4.534835200000E-01 -2.464105000000E-01 -2.522178400000E-01
     67 T   6 C     4.462872600000E-01  3.926899900000E-01  2.481297200000E-01
     68 T   6 C    -4.000196300000E-01 -2.998925400000E-01 -2.518702800000E-01
     69 T   6 C    -4.462570400000E-01 -3.929020000000E-01  2.472359900000E-01
     70 T   6 C    -2.925639300000E-01 -8.548453000000E-02 -2.527640100000E-01
     71 T   6 C     4.459599800000E-01 -4.460417700000E-01  2.481462900000E-01
     72 T   6 C    -4.003469100000E-01 -1.386243000000E-01 -2.518537100000E-01
     73 T   8 O    -4.392633200000E-01  2.803706300000E-01  2.496524400000E-01
     74 T   8 O    -2.855702100000E-01 -4.122119000000E-01 -2.503475600000E-01
     75 T   8 O    -2.803183000000E-01  2.803783300000E-01  2.525157700000E-01
     76 T   8 O    -1.266251900000E-01 -4.122042000000E-01 -2.474842300000E-01
     77 T   8 O    -2.803205800000E-01  4.393234600000E-01  2.481959500000E-01
     78 T   8 O    -1.266274700000E-01 -2.532590700000E-01 -2.518040500000E-01
     79 T   8 O     2.803245100000E-01 -2.803488900000E-01  2.496524500000E-01
     80 T   8 O     4.340176200000E-01  2.706858000000E-02 -2.503475500000E-01
     81 T   8 O     2.803439700000E-01 -4.393043900000E-01  2.525157700000E-01
     82 T   8 O     4.340370800000E-01 -1.318869200000E-01 -2.474842300000E-01
     83 T   8 O     4.392638400000E-01 -2.803645800000E-01  2.481959400000E-01
     84 T   8 O    -4.070430500000E-01  2.705289000000E-02 -2.518040600000E-01

 T = ATOM BELONGING TO THE ASYMMETRIC UNIT

 ****    1 SYMMOPS - TRANSLATORS IN FRACTIONAL UNITS
 **** MATRICES AND TRANSLATORS IN THE CRYSTALLOGRAPHIC REFERENCE FRAME
   V INV                    ROTATION MATRICES                   TRANSLATORS
   1   1  1.00 -0.00  0.00  0.00  1.00  0.00  0.00 -0.00  1.00  0.00  0.00  0.00

 DIRECT LATTICE VECTORS CARTESIAN COMPONENTS (ANGSTROM)
          X                    Y                    Z
   0.130113578931E+02  -0.751088897922E+01   0.000000000000E+00
   0.000000000000E+00   0.150239160000E+02   0.000000000000E+00
  -0.157301234647E-04  -0.417168597795E-04   0.739999999987E+01


 CARTESIAN COORDINATES - PRIMITIVE CELL
 *******************************************************************************
 *      ATOM          X(ANGSTROM)         Y(ANGSTROM)         Z(ANGSTROM)
 *******************************************************************************
    1     5 B    -5.026544697797E+00  6.316801960977E+00  1.854776699966E+00
    2     5 B    -3.026780772828E+00 -5.242850820461E+00 -1.845223299967E+00
    3     5 B    -2.957014580621E+00  7.511851528029E+00  1.854776773966E+00
    4     5 B    -9.572506556522E-01 -4.047801253409E+00 -1.845223225967E+00
    5     5 B    -5.026600234947E+00 -6.317641501675E+00  1.844733567967E+00
    6     5 B    -3.026836309978E+00 -2.853378283113E+00 -1.855266431966E+00
    7     5 B     2.956895448141E+00 -7.511641456748E+00  1.854776773966E+00
    8     5 B     4.956659373110E+00 -4.047378238186E+00 -1.845223225967E+00
    9     5 B     5.027106189449E+00  6.316920198138E+00  1.854776699966E+00
   10     5 B    -5.984487778639E+00  2.268156395917E+00 -1.845223299967E+00
   11     5 B     5.026849626820E+00 -6.315953657406E+00  1.844733567967E+00
   12     5 B     7.026613551789E+00 -2.851690438844E+00 -1.855266431966E+00
   13     1 H    -1.261538058620E+00  5.369557388319E+00  1.833955171967E+00
   14     1 H     7.382258663490E-01 -6.190095393119E+00 -1.866044827966E+00
   15     1 H     1.257342563001E+00 -5.367408713132E+00  1.830771247967E+00
   16     1 H     3.257106487970E+00 -1.903145494570E+00 -1.869228751966E+00
   17     1 H    -1.262477470850E+00 -5.369861139625E+00  1.830281219967E+00
   18     1 H     7.372864541188E-01 -1.905597921063E+00 -1.869718779966E+00
   19     1 H     1.258665168313E+00  5.368391434031E+00  1.830403393967E+00
   20     1 H     3.258429093281E+00 -6.191261347407E+00 -1.869596605966E+00
   21     1 H    -4.020091987596E+00  3.777992572642E+00  1.866044975966E+00
   22     1 H    -2.020328062627E+00  7.242255791204E+00 -1.833955097967E+00
   23     1 H     4.019591177316E+00 -3.771097110212E+00  1.869229047966E+00
   24     1 H     6.019355102284E+00 -3.068338916500E-01 -1.830770877967E+00
   25     1 H     5.280915723493E+00 -1.590384227946E+00  1.869719445966E+00
   26     1 H     7.280679648462E+00  1.873878990616E+00 -1.830280553967E+00
   27     1 H    -5.278553002720E+00  1.594963665731E+00  1.869596383966E+00
   28     1 H    -3.278789077751E+00  5.059226884293E+00 -1.830403615967E+00
   29     1 H    -4.019567041206E+00 -3.778587435765E+00  1.833955393967E+00
   30     1 H    -2.019803116238E+00 -3.143242172031E-01 -1.866044605966E+00
   31     1 H     4.020009053768E+00  3.773252177977E+00  1.830771025967E+00
   32     1 H    -6.991584914320E+00 -2.755116242442E-01 -1.869228973966E+00
   33     1 H     5.280533013178E+00  1.591500784265E+00  1.830280849967E+00
   34     1 H    -5.731060954910E+00 -2.457263017957E+00 -1.869719149966E+00
   35     1 H    -5.278830451672E+00 -1.595796260714E+00  1.830403837967E+00
   36     1 H    -3.279066526704E+00  1.868466957848E+00 -1.869596161966E+00
   37     6 C    -1.406657788852E+00  7.511810021003E+00  1.844366083967E+00
   38     6 C     5.931061361164E-01 -4.047842760435E+00 -1.855633915966E+00
   39     6 C    -6.962532404321E-01  6.303082323570E+00  1.834445199967E+00
   40     6 C     1.303510684537E+00 -5.256570457868E+00 -1.865554799966E+00
   41     6 C     6.946480389132E-01 -6.302617635189E+00  1.833588131967E+00
   42     6 C     2.694411963882E+00 -2.838354416627E+00 -1.866411867966E+00
   43     6 C    -6.967346643196E-01 -6.303109141917E+00  1.836160149967E+00
   44     6 C     1.303029260649E+00 -2.838845923355E+00 -1.863839775966E+00
   45     6 C     6.951453416039E-01  6.303132442069E+00  1.829546103967E+00
   46     6 C     2.694909266573E+00 -5.256520339369E+00 -1.870453895966E+00
   47     6 C     1.405689726713E+00 -7.511587161318E+00  1.836282545967E+00
   48     6 C     3.405453651682E+00 -4.047323942756E+00 -1.863717453966E+00
   49     6 C     7.208801235974E+00 -2.536225177817E+00  1.855634137966E+00
   50     6 C    -3.802792732114E+00 -6.584988980039E+00 -1.844365861967E+00
   51     6 C    -5.111153547566E+00  3.755052984184E+00  1.865554873966E+00
   52     6 C    -3.111389622597E+00  7.219316202746E+00 -1.834445125967E+00
   53     6 C     5.110840107868E+00 -3.751605927157E+00  1.866412237966E+00
   54     6 C     7.110604032837E+00 -2.873427085949E-01 -1.833587761967E+00
   55     6 C     5.806803464655E+00 -2.546702107422E+00  1.863840293966E+00
   56     6 C     7.806567389624E+00  9.175611111401E-01 -1.836159705967E+00
   57     6 C    -5.806753762300E+00  2.550049497484E+00  1.870453895966E+00
   58     6 C    -3.806989837332E+00  6.014312716046E+00 -1.829546103967E+00
   59     6 C     5.802123669822E+00 -4.972027749184E+00  1.863717675966E+00
   60     6 C     7.801887594791E+00 -1.507764530622E+00 -1.836282323967E+00
   61     6 C     7.208872171827E+00  2.537401880209E+00  1.844366083967E+00
   62     6 C    -3.802721796261E+00 -1.511361922012E+00 -1.855633915966E+00
   63     6 C    -5.110732303782E+00 -3.756098697622E+00  1.834445421967E+00
   64     6 C    -3.110968378813E+00 -2.918354790601E-01 -1.865554577966E+00
   65     6 C     5.111161558183E+00  3.752788043064E+00  1.833587983967E+00
   66     6 C    -5.900432409905E+00 -2.959757591574E-01 -1.866412015966E+00
   67     6 C     5.806799359860E+00  2.547717009909E+00  1.836159927967E+00
   68     6 C    -5.204794608227E+00 -1.501046792312E+00 -1.863840071966E+00
   69     6 C    -5.806413948789E+00 -2.551149874507E+00  1.829546325967E+00
   70     6 C    -3.806650023820E+00  9.131133440545E-01 -1.870453673966E+00
   71     6 C     5.802541002389E+00  4.973055664191E+00  1.836282545967E+00
   72     6 C    -5.209052965699E+00  9.242918619695E-01 -1.863717453966E+00
   73     8 O     7.295941700181E+00  6.234292168210E-04  1.847428055966E+00
   74     8 O    -3.715652267907E+00 -4.048140373005E+00 -1.852571943966E+00
   75     8 O    -3.647325697377E+00  6.317809574118E+00  1.868616697966E+00
   76     8 O    -1.647561772409E+00 -5.241843207320E+00 -1.831383301967E+00
   77     8 O    -3.647355295322E+00 -6.318110839117E+00  1.836650029967E+00
   78     8 O    -1.647591370353E+00 -2.853847620555E+00 -1.863349969966E+00
   79     8 O     3.647398598742E+00 -6.317434861533E+00  1.847428129966E+00
   80     8 O     5.647162523711E+00 -2.853171642971E+00 -1.852571869966E+00
   81     8 O     3.647651754726E+00  6.318200777381E+00  1.868616697966E+00
   82     8 O     5.647415679695E+00 -5.241452004057E+00 -1.831383301967E+00
   83     8 O    -7.295942765491E+00 -5.572088583482E-04  1.836649955967E+00
   84     8 O    -5.296178840522E+00  3.463706009704E+00 -1.863350043966E+00

 *******************************************************************************
 STARTING BASIS SET HANDLING 
 *******************************************************************************

 Loading internal basis set: SOLDEF2MSVP         

 Please cite in your publication:
 L. Dona', J. G. Brandenburg and B. Civalleri, J. Chem. Phys., 151, 121101 (2019
 )                                                                              
                                                                                
                    

 *******************************************************************************
 LOCAL ATOMIC FUNCTIONS BASIS SET
 *******************************************************************************
   ATOM   X(AU)   Y(AU)   Z(AU)  N. TYPE  EXPONENT  S COEF   P COEF   D/F/G COEF
 *******************************************************************************
   1 B   -9.499  11.937   3.505
                                  1 S  
                                         2.410E+03 1.755E-03 0.000E+00 0.000E+00
                                         3.619E+02 1.344E-02 0.000E+00 0.000E+00
                                         8.231E+01 6.637E-02 0.000E+00 0.000E+00
                                         2.311E+01 2.303E-01 0.000E+00 0.000E+00
                                         7.252E+00 5.150E-01 0.000E+00 0.000E+00
                                  2 S  
                                         2.367E+00 1.000E+00 0.000E+00 0.000E+00
                                  3 S  
                                         5.533E-01 1.000E+00 0.000E+00 0.000E+00
                                  4 S  
                                         1.716E-01 1.000E+00 0.000E+00 0.000E+00
                           5-     7 P  
                                         6.002E+00 0.000E+00-3.555E-02 0.000E+00
                                         1.240E+00 0.000E+00-1.983E-01 0.000E+00
                                         3.367E-01 0.000E+00-5.048E-01 0.000E+00
                           8-    10 P  
                                         1.256E-01 0.000E+00 1.000E+00 0.000E+00
                          11-    15 D  
                                         8.880E-01 0.000E+00 0.000E+00 1.000E+00
   2 B   -5.720  -9.908  -3.487
   3 B   -5.588  14.195   3.505
   4 B   -1.809  -7.649  -3.487
   5 B   -9.499 -11.939   3.486
   6 B   -5.720  -5.392  -3.506
   7 B    5.588 -14.195   3.505
   8 B    9.367  -7.648  -3.487
   9 B    9.500  11.937   3.505
  10 B  -11.309   4.286  -3.487
  11 B    9.499 -11.935   3.486
  12 B   13.278  -5.389  -3.506
  13 H   -2.384  10.147   3.466
                                181 S  
                                         1.874E+01 1.968E-02 0.000E+00 0.000E+00
                                         2.826E+00 1.380E-01 0.000E+00 0.000E+00
                                         6.401E-01 4.783E-01 0.000E+00 0.000E+00
                                182 S  
                                         1.756E-01 1.000E+00 0.000E+00 0.000E+00
  14 H    1.395 -11.698  -3.526
  15 H    2.376 -10.143   3.460
  16 H    6.155  -3.596  -3.532
  17 H   -2.386 -10.148   3.459
  18 H    1.393  -3.601  -3.533
  19 H    2.379  10.145   3.459
  20 H    6.158 -11.700  -3.533
  21 H   -7.597   7.139   3.526
  22 H   -3.818  13.686  -3.466
  23 H    7.596  -7.126   3.532
  24 H   11.375  -0.580  -3.460
  25 H    9.979  -3.005   3.533
  26 H   13.758   3.541  -3.459
  27 H   -9.975   3.014   3.533
  28 H   -6.196   9.561  -3.459
  29 H   -7.596  -7.140   3.466
  30 H   -3.817  -0.594  -3.526
  31 H    7.597   7.130   3.460
  32 H  -13.212  -0.521  -3.532
  33 H    9.979   3.008   3.459
  34 H  -10.830  -4.644  -3.533
  35 H   -9.976  -3.016   3.459
  36 H   -6.197   3.531  -3.533
  37 C   -2.658  14.195   3.485
                                229 S  
                                         3.624E+03 1.634E-03 0.000E+00 0.000E+00
                                         5.440E+02 1.252E-02 0.000E+00 0.000E+00
                                         1.237E+02 6.211E-02 0.000E+00 0.000E+00
                                         3.476E+01 2.182E-01 0.000E+00 0.000E+00
                                         1.093E+01 4.980E-01 0.000E+00 0.000E+00
                                230 S  
                                         3.574E+00 1.000E+00 0.000E+00 0.000E+00
                                231 S  
                                         7.742E-01 1.000E+00 0.000E+00 0.000E+00
                                232 S  
                                         2.330E-01 1.000E+00 0.000E+00 0.000E+00
                         233-   235 P  
                                         9.443E+00 0.000E+00 3.790E-02 0.000E+00
                                         2.002E+00 0.000E+00 2.082E-01 0.000E+00
                                         5.463E-01 0.000E+00 5.047E-01 0.000E+00
                         236-   238 P  
                                         1.820E-01 0.000E+00 1.000E+00 0.000E+00
                         239-   243 D  
                                         8.880E-01 0.000E+00 0.000E+00 1.000E+00
  38 C    1.121  -7.649  -3.507
  39 C   -1.316  11.911   3.467
  40 C    2.463  -9.933  -3.525
  41 C    1.313 -11.910   3.465
  42 C    5.092  -5.364  -3.527
  43 C   -1.317 -11.911   3.470
  44 C    2.462  -5.365  -3.522
  45 C    1.314  11.911   3.457
  46 C    5.093  -9.933  -3.535
  47 C    2.656 -14.195   3.470
  48 C    6.435  -7.648  -3.522
  49 C   13.623  -4.793   3.507
  50 C   -7.186 -12.444  -3.485
  51 C   -9.659   7.096   3.525
  52 C   -5.880  13.643  -3.467
  53 C    9.658  -7.090   3.527
  54 C   13.437  -0.543  -3.465
  55 C   10.973  -4.813   3.522
  56 C   14.752   1.734  -3.470
  57 C  -10.973   4.819   3.535
  58 C   -7.194  11.365  -3.457
  59 C   10.964  -9.396   3.522
  60 C   14.743  -2.849  -3.470
  61 C   13.623   4.795   3.485
  62 C   -7.186  -2.856  -3.507
  63 C   -9.658  -7.098   3.467
  64 C   -5.879  -0.551  -3.525
  65 C    9.659   7.092   3.465
  66 C  -11.150  -0.559  -3.527
  67 C   10.973   4.814   3.470
  68 C   -9.836  -2.837  -3.522
  69 C  -10.973  -4.821   3.457
  70 C   -7.194   1.726  -3.535
  71 C   10.965   9.398   3.470
  72 C   -9.844   1.747  -3.522
  73 O   13.787   0.001   3.491
                                769 S  
                                         6.773E+03 1.727E-03 0.000E+00 0.000E+00
                                         1.017E+03 1.325E-02 0.000E+00 0.000E+00
                                         2.313E+02 6.603E-02 0.000E+00 0.000E+00
                                         6.501E+01 2.353E-01 0.000E+00 0.000E+00
                                         2.050E+01 5.498E-01 0.000E+00 0.000E+00
                                770 S  
                                         6.716E+00 1.000E+00 0.000E+00 0.000E+00
                                771 S  
                                         1.147E+00 1.000E+00 0.000E+00 0.000E+00
                                772 S  
                                         3.342E-01 1.000E+00 0.000E+00 0.000E+00
                         773-   775 P  
                                         1.769E+01 0.000E+00 4.359E-02 0.000E+00
                                         3.854E+00 0.000E+00 2.318E-01 0.000E+00
                                         1.047E+00 0.000E+00 5.146E-01 0.000E+00
                         776-   778 P  
                                         2.759E-01 0.000E+00 1.000E+00 0.000E+00
                         779-   783 D  
                                         8.000E-01 0.000E+00 0.000E+00 1.000E+00
  74 O   -7.022  -7.650  -3.501
  75 O   -6.892  11.939   3.531
  76 O   -3.113  -9.906  -3.461
  77 O   -6.893 -11.939   3.471
  78 O   -3.113  -5.393  -3.521
  79 O    6.893 -11.938   3.491
  80 O   10.672  -5.392  -3.501
  81 O    6.893  11.940   3.531
  82 O   10.672  -9.905  -3.461
  83 O  -13.787  -0.001   3.471
  84 O  -10.008   6.545  -3.521

 *******************************************************************************
 FINISHED BASIS SET HANDLING 
 *******************************************************************************

 INFORMATION **** SET_MPP **** PCRYSTAL CALCULATION
 INFORMATION **** READM2 **** NEW DEFAULT: FOCK/KS MATRIX MIXING SET TO 30 %
 INFORMATION **** READM2 **** NEW DEFAULT: FULL DIRECT SCF MODE
 INFORMATION **** READM2 **** NEW DEFAULT: COULOMB BIPOLAR BUFFER SET TO 32 Mb
 INFORMATION **** READM2 **** NEW DEFAULT: EXCHANGE BIPOLAR BUFFER SET TO 32 Mb

 *******************************************************************************
 NEW DEFAULT: DFT INTEGRATION GRID INCREASED TO XLGRID
 NEW DEFAULT: DIIS ACCELERATOR ACTIVE
 USE KEYWORD NODIIS TO TURN IT OFF
 *******************************************************************************

 WARNING **** RDDFTP **** HSEsol-HJS ACTIVE
 RANGE SEPARATION - OMEGA:   0.110000000000000     
 WARNING **** RDDFTP **** HSEsol-3c has to be combined with sol-def2-mSVP basis set
 *******************************************************************************
 N. OF ATOMS PER CELL        84  COULOMB OVERLAP TOL         (T1) 10**   -6
 NUMBER OF SHELLS           468  COULOMB PENETRATION TOL     (T2) 10**   -6
 NUMBER OF AO               948  EXCHANGE OVERLAP TOL        (T3) 10**   -6
 N. OF ELECTRONS PER CELL   396  EXCHANGE PSEUDO OVP (F(G))  (T4) 10**   -6
 CORE ELECTRONS PER CELL    120  EXCHANGE PSEUDO OVP (P(G))  (T5) 10**  -12
 N. OF SYMMETRY OPERATORS     1  POLE ORDER IN MONO ZONE                  4
 *******************************************************************************
 TYPE OF CALCULATION :  RESTRICTED CLOSED SHELL
 KOHN-SHAM HAMILTONIAN

 (EXCHANGE)[CORRELATION] FUNCTIONAL:(HSEsol GGA)[PBEsol]

 RANGE-SEPARATED HYBRID FUNCTIONAL 
 OMEGA (SHORT-RANGE)[LONG-RANGE]:(    0.1100)[    0.0000]

 HYBRID EXCHANGE - PERCENTAGE OF FOCK EXCHANGE    25.0000

 CAPPA:IS1  2;IS2  2;IS3  8; K PTS MONK NET  20; SYMMOPS:K SPACE   2;G SPACE   1

 *******************************************************************************
 MAX NUMBER OF SCF CYCLES      50  CONVERGENCE ON DELTAP        10**-16
 WEIGHT OF F(I) IN F(I+1)      30% CONVERGENCE ON ENERGY        10**- 6
 SHRINK. FACT.(MONKH.)    2  2  8  NUMBER OF K POINTS IN THE IBZ     20
 SHRINKING FACTOR(GILAT NET)    8  NUMBER OF K POINTS(GILAT NET)   1028
 *******************************************************************************
 *** K POINTS COORDINATES (OBLIQUE COORDINATES IN UNITS OF IS =  2)
   1-R(  0  0  0)   2-R(  1  0  0)   3-R(  0  1  0)   4-R(  1  1  0)
   5-C(  0  0  1)   6-C(  1  0  1)   7-C(  0  1  1)   8-C(  1  1  1)
   9-C(  0  0  2)  10-C(  1  0  2)  11-C(  0  1  2)  12-C(  1  1  2)
  13-C(  0  0  3)  14-C(  1  0  3)  15-C(  0  1  3)  16-C(  1  1  3)
  17-R(  0  0  4)  18-R(  1  0  4)  19-R(  0  1  4)  20-R(  1  1  4)

 DIRECT LATTICE VECTORS COMPON. (A.U.)     RECIP. LATTICE VECTORS COMPON. (A.U.) 
        X            Y            Z              X            Y            Z
   24.5879030  -14.1935232    0.0000000      0.2555397    0.0000000    0.0000005
    0.0000000   28.3910867    0.0000000      0.1277517    0.2213084    0.0000015
   -0.0000297   -0.0000788   13.9839734      0.0000000    0.0000000    0.4493133

 DISK SPACE FOR EIGENVECTORS (FTN 10)    28758528 REALS

 SYMMETRY ADAPTION OF THE BLOCH FUNCTIONS DISABLED
 TTTTTTTTTTTTTTTTTTTTTTTTTTTTTT gordsh1     TELAPSE        0.06 TCPU        0.05

 MATRIX SIZE: P(G)  683484, F(G)  136151, P(G) IRR  343788, F(G) IRR  137183
 MAX G-VECTOR INDEX FOR 1- AND 2-ELECTRON INTEGRALS  43

 TTTTTTTTTTTTTTTTTTTTTTTTTTTTTT INPUT       TELAPSE        2.92 TCPU        2.92

 NEIGHBORS OF THE NON-EQUIVALENT ATOMS

 N = NUMBER OF NEIGHBORS AT DISTANCE R
    ATOM  N     R/ANG      R/AU   NEIGHBORS (ATOM LABELS AND CELL INDICES)
   1 B    1     1.3791     2.6061   73 O   -1 0 0
   1 B    1     1.3793     2.6065   75 O    0 0 0
   1 B    1     1.5503     2.9297   49 C   -1 0 0
   1 B    1     2.3895     4.5155    5 B    0 1 0
   1 B    1     2.3898     4.5160    3 B    0 0 0
   1 B    1     2.5632     4.8437   51 C    0 0 0

   2 B    1     1.3791     2.6061   74 O    0 0 0
   2 B    1     1.3793     2.6065   76 O    0 0 0
   2 B    1     1.5503     2.9297   50 C    0 0 0
   2 B    1     2.3895     4.5155    6 B    0 0 0
   2 B    1     2.3898     4.5160    4 B    0 0 0
   2 B    1     2.5632     4.8437   52 C    0-1 0

   3 B    1     1.3793     2.6065   77 O    0 1 0
   3 B    1     1.3793     2.6065   75 O    0 0 0
   3 B    1     1.5504     2.9298   37 C    0 0 0
   3 B    1     2.3895     4.5156    5 B    0 1 0
   3 B    1     2.3898     4.5160    1 B    0 0 0
   3 B    1     2.5634     4.8440   43 C    0 1 0

   4 B    1     1.3793     2.6065   78 O    0 0 0
   4 B    1     1.3793     2.6065   76 O    0 0 0
   4 B    1     1.5504     2.9298   38 C    0 0 0
   4 B    1     2.3895     4.5156    6 B    0 0 0
   4 B    1     2.3898     4.5160    2 B    0 0 0
   4 B    1     2.5634     4.8440   44 C    0 0 0

   5 B    1     1.3791     2.6061   73 O   -1-1 0
   5 B    1     1.3793     2.6064   77 O    0 0 0
   5 B    1     1.5502     2.9294   61 C   -1-1 0
   5 B    1     2.3895     4.5155    1 B    0-1 0
   5 B    1     2.3895     4.5156    3 B    0-1 0
   5 B    1     2.5629     4.8433   63 C    0 0 0

   6 B    1     1.3791     2.6061   74 O    0 0 0
   6 B    1     1.3793     2.6064   78 O    0 0 0
   6 B    1     1.5502     2.9294   62 C    0 0 0
   6 B    1     2.3895     4.5155    2 B    0 0 0
   6 B    1     2.3895     4.5156    4 B    0 0 0
   6 B    1     2.5629     4.8433   64 C    0 0 0

   7 B    1     1.3795     2.6068   79 O    0 0 0
   7 B    1     1.3795     2.6070   81 O    0-1 0
   7 B    1     1.5513     2.9316   47 C    0 0 0
   7 B    1     2.3905     4.5174   11 B    0 0 0
   7 B    1     2.3905     4.5175    9 B    0-1 0
   7 B    1     2.5648     4.8468   45 C    0-1 0

   8 B    1     1.3795     2.6068   80 O    0 0 0
   8 B    1     1.3795     2.6070   82 O    0 0 0
   8 B    1     1.5513     2.9316   48 C    0 0 0
   8 B    1     2.3905     4.5174   12 B    0 0 0
   8 B    1     2.3905     4.5175   10 B    1 0 0
   8 B    1     2.5648     4.8468   46 C    0 0 0

   9 B    1     1.3795     2.6069   81 O    0 0 0
   9 B    1     1.3797     2.6072   83 O    1 1 0
   9 B    1     1.5516     2.9322   71 C    0 0 0
   9 B    1     2.3905     4.5175    7 B    0 1 0
   9 B    1     2.3911     4.5185   11 B    0 1 0
   9 B    1     2.5651     4.8473   69 C    1 1 0

  10 B    1     1.3795     2.6069   82 O   -1 0 0
  10 B    1     1.3797     2.6072   84 O    0 0 0
  10 B    1     1.5516     2.9322   72 C    0 0 0
  10 B    1     2.3905     4.5175    8 B   -1 0 0
  10 B    1     2.3911     4.5185   12 B   -1 0 0
  10 B    1     2.5651     4.8473   70 C    0 0 0

  11 B    1     1.3795     2.6068   79 O    0 0 0
  11 B    1     1.3796     2.6071   83 O    1 0 0
  11 B    1     1.5516     2.9322   59 C    0 0 0
  11 B    1     2.3905     4.5174    7 B    0 0 0
  11 B    1     2.3911     4.5185    9 B    0-1 0
  11 B    1     2.5651     4.8473   57 C    1 0 0

  12 B    1     1.3795     2.6068   80 O    0 0 0
  12 B    1     1.3796     2.6071   84 O    1 0 0
  12 B    1     1.5516     2.9322   60 C    0 0 0
  12 B    1     2.3905     4.5174    8 B    0 0 0
  12 B    1     2.3911     4.5185   10 B    1 0 0
  12 B    1     2.5651     4.8473   58 C    1 0 0

  13 H    1     1.0913     2.0623   39 C    0 0 0
  13 H    1     2.1472     4.0576   37 C    0 0 0
  13 H    1     2.1680     4.0969   45 C    0 0 0
  13 H    1     2.5202     4.7625   19 H    0 0 0
  13 H    1     2.5676     4.8520   75 O    0 0 0
  13 H    1     2.7321     5.1630    3 B    0 0 0

  14 H    1     1.0913     2.0623   40 C    0 0 0
  14 H    1     2.1472     4.0576   38 C    0 0 0
  14 H    1     2.1680     4.0969   46 C    0 0 0
  14 H    1     2.5202     4.7625   20 H    0 0 0
  14 H    1     2.5676     4.8520   76 O    0 0 0
  14 H    1     2.7321     5.1630    4 B    0 0 0

  15 H    1     1.0914     2.0625   41 C    0 0 0
  15 H    1     2.1493     4.0616   47 C    0 0 0
  15 H    1     2.1666     4.0942   43 C    0 0 0
  15 H    1     2.5198     4.7618   17 H    0 0 0
  15 H    1     2.5720     4.8604   79 O    0 0 0
  15 H    1     2.7362     5.1707    7 B    0 0 0

  16 H    1     1.0914     2.0625   42 C    0 0 0
  16 H    1     2.1493     4.0616   48 C    0 0 0
  16 H    1     2.1666     4.0942   44 C    0 0 0
  16 H    1     2.5198     4.7618   18 H    0 0 0
  16 H    1     2.5720     4.8604   80 O    0 0 0
  16 H    1     2.7362     5.1707    8 B    0 0 0

  17 H    1     1.0914     2.0624   43 C    0 0 0
  17 H    1     2.1471     4.0575   37 C    0-1 0
  17 H    1     2.1680     4.0970   41 C    0 0 0
  17 H    1     2.5198     4.7618   15 H    0 0 0
  17 H    1     2.5665     4.8500   77 O    0 0 0
  17 H    1     2.7315     5.1618    3 B    0-1 0

  18 H    1     1.0914     2.0624   44 C    0 0 0
  18 H    1     2.1471     4.0575   38 C    0 0 0
  18 H    1     2.1680     4.0970   42 C    0 0 0
  18 H    1     2.5198     4.7618   16 H    0 0 0
  18 H    1     2.5665     4.8500   78 O    0 0 0
  18 H    1     2.7315     5.1618    4 B    0 0 0

  19 H    1     1.0915     2.0626   45 C    0 0 0
  19 H    1     2.1490     4.0610   47 C    0 1 0
  19 H    1     2.1669     4.0948   39 C    0 0 0
  19 H    1     2.5202     4.7625   13 H    0 0 0
  19 H    1     2.5712     4.8588   81 O    0 0 0
  19 H    1     2.7351     5.1686    7 B    0 1 0

  20 H    1     1.0915     2.0626   46 C    0 0 0
  20 H    1     2.1490     4.0610   48 C    0 0 0
  20 H    1     2.1669     4.0948   40 C    0 0 0
  20 H    1     2.5202     4.7625   14 H    0 0 0
  20 H    1     2.5712     4.8588   82 O    0 0 0
  20 H    1     2.7351     5.1686    8 B    0 0 0

  21 H    1     1.0913     2.0623   51 C    0 0 0
  21 H    1     2.1469     4.0571   49 C   -1 0 0
  21 H    1     2.1680     4.0968   57 C    0 0 0
  21 H    1     2.5198     4.7617   27 H    0 0 0
  21 H    1     2.5670     4.8510   75 O    0 0 0
  21 H    1     2.7310     5.1609    1 B    0 0 0

  22 H    1     1.0913     2.0623   52 C    0 0 0
  22 H    1     2.1469     4.0571   50 C    0 1 0
  22 H    1     2.1680     4.0968   58 C    0 0 0
  22 H    1     2.5198     4.7617   28 H    0 0 0
  22 H    1     2.5670     4.8510   76 O    0 1 0
  22 H    1     2.7310     5.1609    2 B    0 1 0

  23 H    1     1.0914     2.0625   53 C    0 0 0
  23 H    1     2.1493     4.0617   59 C    0 0 0
  23 H    1     2.1664     4.0939   55 C    0 0 0
  23 H    1     2.5192     4.7606   25 H    0 0 0
  23 H    1     2.5735     4.8632   79 O    0 0 0
  23 H    1     2.7371     5.1723   11 B    0 0 0

  24 H    1     1.0914     2.0625   54 C    0 0 0
  24 H    1     2.1493     4.0617   60 C    0 0 0
  24 H    1     2.1664     4.0939   56 C    0 0 0
  24 H    1     2.5192     4.7606   26 H    0 0 0
  24 H    1     2.5735     4.8632   80 O    0 0 0
  24 H    1     2.7371     5.1723   12 B    0 0 0

  25 H    1     1.0914     2.0624   55 C    0 0 0
  25 H    1     2.1475     4.0581   49 C    0 0 0
  25 H    1     2.1679     4.0967   53 C    0 0 0
  25 H    1     2.5192     4.7606   23 H    0 0 0
  25 H    1     2.5675     4.8519   73 O    0 0 0
  25 H    1     2.7328     5.1643    1 B    1 0 0

  26 H    1     1.0914     2.0624   56 C    0 0 0
  26 H    1     2.1475     4.0581   50 C    1 1 0
  26 H    1     2.1679     4.0967   54 C    0 0 0
  26 H    1     2.5192     4.7606   24 H    0 0 0
  26 H    1     2.5675     4.8519   74 O    1 1 0
  26 H    1     2.7328     5.1643    2 B    1 1 0

  27 H    1     1.0914     2.0625   57 C    0 0 0
  27 H    1     2.1491     4.0612   59 C   -1 0 0
  27 H    1     2.1666     4.0942   51 C    0 0 0
  27 H    1     2.5198     4.7617   21 H    0 0 0
  27 H    1     2.5723     4.8609   83 O    0 0 0
  27 H    1     2.7355     5.1693   11 B   -1 0 0

  28 H    1     1.0914     2.0625   58 C    0 0 0
  28 H    1     2.1491     4.0612   60 C   -1 0 0
  28 H    1     2.1666     4.0942   52 C    0 0 0
  28 H    1     2.5198     4.7617   22 H    0 0 0
  28 H    1     2.5723     4.8609   84 O    0 0 0
  28 H    1     2.7355     5.1693   12 B   -1 0 0

  29 H    1     1.0914     2.0624   63 C    0 0 0
  29 H    1     2.1475     4.0582   61 C   -1-1 0
  29 H    1     2.1678     4.0966   69 C    0 0 0
  29 H    1     2.5200     4.7621   35 H    0 0 0
  29 H    1     2.5667     4.8503   77 O    0 0 0
  29 H    1     2.7315     5.1618    5 B    0 0 0

  30 H    1     1.0914     2.0624   64 C    0 0 0
  30 H    1     2.1475     4.0582   62 C    0 0 0
  30 H    1     2.1678     4.0966   70 C    0 0 0
  30 H    1     2.5200     4.7621   36 H    0 0 0
  30 H    1     2.5667     4.8503   78 O    0 0 0
  30 H    1     2.7315     5.1618    6 B    0 0 0

  31 H    1     1.0913     2.0623   65 C    0 0 0
  31 H    1     2.1487     4.0605   71 C    0 0 0
  31 H    1     2.1667     4.0945   67 C    0 0 0
  31 H    1     2.5197     4.7616   33 H    0 0 0
  31 H    1     2.5723     4.8610   81 O    0 0 0
  31 H    1     2.7359     5.1701    9 B    0 0 0

  32 H    1     1.0913     2.0623   66 C    0 0 0
  32 H    1     2.1487     4.0605   72 C    0 0 0
  32 H    1     2.1667     4.0945   68 C    0 0 0
  32 H    1     2.5197     4.7616   34 H    0 0 0
  32 H    1     2.5723     4.8610   82 O   -1 0 0
  32 H    1     2.7359     5.1701   10 B    0 0 0

  33 H    1     1.0915     2.0626   67 C    0 0 0
  33 H    1     2.1479     4.0589   61 C    0 0 0
  33 H    1     2.1679     4.0968   65 C    0 0 0
  33 H    1     2.5197     4.7616   31 H    0 0 0
  33 H    1     2.5677     4.8522   73 O    0 0 0
  33 H    1     2.7331     5.1648    5 B    1 1 0

  34 H    1     1.0915     2.0626   68 C    0 0 0
  34 H    1     2.1479     4.0589   62 C    0 0 0
  34 H    1     2.1679     4.0968   66 C    0 0 0
  34 H    1     2.5197     4.7616   32 H    0 0 0
  34 H    1     2.5677     4.8522   74 O    0 0 0
  34 H    1     2.7331     5.1648    6 B    0 0 0

  35 H    1     1.0914     2.0624   69 C    0 0 0
  35 H    1     2.1486     4.0602   71 C   -1-1 0
  35 H    1     2.1668     4.0947   63 C    0 0 0
  35 H    1     2.5200     4.7621   29 H    0 0 0
  35 H    1     2.5717     4.8598   83 O    0 0 0
  35 H    1     2.7349     5.1682    9 B   -1-1 0

  36 H    1     1.0914     2.0624   70 C    0 0 0
  36 H    1     2.1486     4.0602   72 C    0 0 0
  36 H    1     2.1668     4.0947   64 C    0 0 0
  36 H    1     2.5200     4.7621   30 H    0 0 0
  36 H    1     2.5717     4.8598   84 O    0 0 0
  36 H    1     2.7349     5.1682   10 B    0 0 0

  37 C    1     1.4020     2.6495   43 C    0 1 0
  37 C    1     1.4021     2.6495   39 C    0 0 0
  37 C    1     1.5504     2.9298    3 B    0 0 0
  37 C    1     2.1471     4.0575   17 H    0 1 0
  37 C    1     2.1472     4.0576   13 H    0 0 0
  37 C    1     2.4246     4.5817   41 C    0 1 0

  38 C    1     1.4020     2.6495   44 C    0 0 0
  38 C    1     1.4021     2.6495   40 C    0 0 0
  38 C    1     1.5504     2.9298    4 B    0 0 0
  38 C    1     2.1471     4.0575   18 H    0 0 0
  38 C    1     2.1472     4.0576   14 H    0 0 0
  38 C    1     2.4246     4.5817   42 C    0 0 0

  39 C    1     1.0913     2.0623   13 H    0 0 0
  39 C    1     1.3914     2.6294   45 C    0 0 0
  39 C    1     1.4021     2.6495   37 C    0 0 0
  39 C    1     2.1669     4.0948   19 H    0 0 0
  39 C    1     2.4177     4.5688   43 C    0 1 0
  39 C    1     2.4250     4.5825   47 C    0 1 0

  40 C    1     1.0913     2.0623   14 H    0 0 0
  40 C    1     1.3914     2.6294   46 C    0 0 0
  40 C    1     1.4021     2.6495   38 C    0 0 0
  40 C    1     2.1669     4.0948   20 H    0 0 0
  40 C    1     2.4177     4.5688   44 C    0 0 0
  40 C    1     2.4250     4.5825   48 C    0 0 0

  41 C    1     1.0914     2.0625   15 H    0 0 0
  41 C    1     1.3914     2.6293   43 C    0 0 0
  41 C    1     1.4026     2.6505   47 C    0 0 0
  41 C    1     2.1680     4.0970   17 H    0 0 0
  41 C    1     2.4182     4.5697   45 C    0-1 0
  41 C    1     2.4246     4.5817   37 C    0-1 0

  42 C    1     1.0914     2.0625   16 H    0 0 0
  42 C    1     1.3914     2.6293   44 C    0 0 0
  42 C    1     1.4026     2.6505   48 C    0 0 0
  42 C    1     2.1680     4.0970   18 H    0 0 0
  42 C    1     2.4182     4.5697   46 C    0 0 0
  42 C    1     2.4246     4.5817   38 C    0 0 0

  43 C    1     1.0914     2.0624   17 H    0 0 0
  43 C    1     1.3914     2.6293   41 C    0 0 0
  43 C    1     1.4020     2.6495   37 C    0-1 0
  43 C    1     2.1666     4.0942   15 H    0 0 0
  43 C    1     2.4177     4.5688   39 C    0-1 0
  43 C    1     2.4250     4.5826   47 C    0 0 0

  44 C    1     1.0914     2.0624   18 H    0 0 0
  44 C    1     1.3914     2.6293   42 C    0 0 0
  44 C    1     1.4020     2.6495   38 C    0 0 0
  44 C    1     2.1666     4.0942   16 H    0 0 0
  44 C    1     2.4177     4.5688   40 C    0 0 0
  44 C    1     2.4250     4.5826   48 C    0 0 0

  45 C    1     1.0915     2.0626   19 H    0 0 0
  45 C    1     1.3914     2.6294   39 C    0 0 0
  45 C    1     1.4025     2.6504   47 C    0 1 0
  45 C    1     2.1680     4.0969   13 H    0 0 0
  45 C    1     2.4182     4.5697   41 C    0 1 0
  45 C    1     2.4246     4.5818   37 C    0 0 0

  46 C    1     1.0915     2.0626   20 H    0 0 0
  46 C    1     1.3914     2.6294   40 C    0 0 0
  46 C    1     1.4025     2.6504   48 C    0 0 0
  46 C    1     2.1680     4.0969   14 H    0 0 0
  46 C    1     2.4182     4.5697   42 C    0 0 0
  46 C    1     2.4246     4.5818   38 C    0 0 0

  47 C    1     1.4025     2.6504   45 C    0-1 0
  47 C    1     1.4026     2.6505   41 C    0 0 0
  47 C    1     1.5513     2.9316    7 B    0 0 0
  47 C    1     2.1490     4.0610   19 H    0-1 0
  47 C    1     2.1493     4.0616   15 H    0 0 0
  47 C    1     2.4250     4.5825   39 C    0-1 0

  48 C    1     1.4025     2.6504   46 C    0 0 0
  48 C    1     1.4026     2.6505   42 C    0 0 0
  48 C    1     1.5513     2.9316    8 B    0 0 0
  48 C    1     2.1490     4.0610   20 H    0 0 0
  48 C    1     2.1493     4.0616   16 H    0 0 0
  48 C    1     2.4250     4.5825   40 C    0 0 0

  49 C    1     1.4020     2.6494   51 C    1 0 0
  49 C    1     1.4021     2.6495   55 C    0 0 0
  49 C    1     1.5503     2.9297    1 B    1 0 0
  49 C    1     2.1469     4.0571   21 H    1 0 0
  49 C    1     2.1475     4.0581   25 H    0 0 0
  49 C    1     2.4246     4.5818   53 C    0 0 0

  50 C    1     1.4020     2.6494   52 C    0-1 0
  50 C    1     1.4021     2.6495   56 C   -1-1 0
  50 C    1     1.5503     2.9297    2 B    0 0 0
  50 C    1     2.1469     4.0571   22 H    0-1 0
  50 C    1     2.1475     4.0581   26 H   -1-1 0
  50 C    1     2.4246     4.5818   54 C   -1-1 0

  51 C    1     1.0913     2.0623   21 H    0 0 0
  51 C    1     1.3914     2.6293   57 C    0 0 0
  51 C    1     1.4020     2.6494   49 C   -1 0 0
  51 C    1     2.1666     4.0942   27 H    0 0 0
  51 C    1     2.4175     4.5684   55 C   -1 0 0
  51 C    1     2.4251     4.5828   59 C   -1 0 0

  52 C    1     1.0913     2.0623   22 H    0 0 0
  52 C    1     1.3914     2.6293   58 C    0 0 0
  52 C    1     1.4020     2.6494   50 C    0 1 0
  52 C    1     2.1666     4.0942   28 H    0 0 0
  52 C    1     2.4175     4.5684   56 C   -1 0 0
  52 C    1     2.4251     4.5828   60 C   -1 0 0

  53 C    1     1.0914     2.0625   23 H    0 0 0
  53 C    1     1.3915     2.6295   55 C    0 0 0
  53 C    1     1.4026     2.6505   59 C    0 0 0
  53 C    1     2.1679     4.0967   25 H    0 0 0
  53 C    1     2.4179     4.5691   57 C    1 0 0
  53 C    1     2.4246     4.5818   49 C    0 0 0

  54 C    1     1.0914     2.0625   24 H    0 0 0
  54 C    1     1.3915     2.6295   56 C    0 0 0
  54 C    1     1.4026     2.6505   60 C    0 0 0
  54 C    1     2.1679     4.0967   26 H    0 0 0
  54 C    1     2.4179     4.5691   58 C    1 0 0
  54 C    1     2.4246     4.5818   50 C    1 1 0

  55 C    1     1.0914     2.0624   25 H    0 0 0
  55 C    1     1.3915     2.6295   53 C    0 0 0
  55 C    1     1.4021     2.6495   49 C    0 0 0
  55 C    1     2.1664     4.0939   23 H    0 0 0
  55 C    1     2.4175     4.5684   51 C    1 0 0
  55 C    1     2.4253     4.5832   59 C    0 0 0

  56 C    1     1.0914     2.0624   26 H    0 0 0
  56 C    1     1.3915     2.6295   54 C    0 0 0
  56 C    1     1.4021     2.6495   50 C    1 1 0
  56 C    1     2.1664     4.0939   24 H    0 0 0
  56 C    1     2.4175     4.5684   52 C    1 0 0
  56 C    1     2.4253     4.5832   60 C    0 0 0

  57 C    1     1.0914     2.0625   27 H    0 0 0
  57 C    1     1.3914     2.6293   51 C    0 0 0
  57 C    1     1.4025     2.6504   59 C   -1 0 0
  57 C    1     2.1680     4.0968   21 H    0 0 0
  57 C    1     2.4179     4.5691   53 C   -1 0 0
  57 C    1     2.4247     4.5819   49 C   -1 0 0

  58 C    1     1.0914     2.0625   28 H    0 0 0
  58 C    1     1.3914     2.6293   52 C    0 0 0
  58 C    1     1.4025     2.6504   60 C   -1 0 0
  58 C    1     2.1680     4.0968   22 H    0 0 0
  58 C    1     2.4179     4.5691   54 C   -1 0 0
  58 C    1     2.4247     4.5819   50 C    0 1 0

  59 C    1     1.4025     2.6504   57 C    1 0 0
  59 C    1     1.4026     2.6505   53 C    0 0 0
  59 C    1     1.5516     2.9322   11 B    0 0 0
  59 C    1     2.1491     4.0612   27 H    1 0 0
  59 C    1     2.1493     4.0617   23 H    0 0 0
  59 C    1     2.4251     4.5828   51 C    1 0 0

  60 C    1     1.4025     2.6504   58 C    1 0 0
  60 C    1     1.4026     2.6505   54 C    0 0 0
  60 C    1     1.5516     2.9322   12 B    0 0 0
  60 C    1     2.1491     4.0612   28 H    1 0 0
  60 C    1     2.1493     4.0617   24 H    0 0 0
  60 C    1     2.4251     4.5828   52 C    1 0 0

  61 C    1     1.4021     2.6496   63 C    1 1 0
  61 C    1     1.4021     2.6497   67 C    0 0 0
  61 C    1     1.5502     2.9294    5 B    1 1 0
  61 C    1     2.1475     4.0582   29 H    1 1 0
  61 C    1     2.1479     4.0589   33 H    0 0 0
  61 C    1     2.4244     4.5814   65 C    0 0 0

  62 C    1     1.4021     2.6496   64 C    0 0 0
  62 C    1     1.4021     2.6497   68 C    0 0 0
  62 C    1     1.5502     2.9294    6 B    0 0 0
  62 C    1     2.1475     4.0582   30 H    0 0 0
  62 C    1     2.1479     4.0589   34 H    0 0 0
  62 C    1     2.4244     4.5814   66 C    0 0 0

  63 C    1     1.0914     2.0624   29 H    0 0 0
  63 C    1     1.3914     2.6293   69 C    0 0 0
  63 C    1     1.4021     2.6496   61 C   -1-1 0
  63 C    1     2.1668     4.0947   35 H    0 0 0
  63 C    1     2.4179     4.5692   67 C   -1-1 0
  63 C    1     2.4251     4.5827   71 C   -1-1 0

  64 C    1     1.0914     2.0624   30 H    0 0 0
  64 C    1     1.3914     2.6293   70 C    0 0 0
  64 C    1     1.4021     2.6496   62 C    0 0 0
  64 C    1     2.1668     4.0947   36 H    0 0 0
  64 C    1     2.4179     4.5692   68 C    0 0 0
  64 C    1     2.4251     4.5827   72 C    0 0 0

  65 C    1     1.0913     2.0623   31 H    0 0 0
  65 C    1     1.3914     2.6294   67 C    0 0 0
  65 C    1     1.4025     2.6504   71 C    0 0 0
  65 C    1     2.1679     4.0968   33 H    0 0 0
  65 C    1     2.4178     4.5690   69 C    1 1 0
  65 C    1     2.4244     4.5814   61 C    0 0 0

  66 C    1     1.0913     2.0623   32 H    0 0 0
  66 C    1     1.3914     2.6294   68 C    0 0 0
  66 C    1     1.4025     2.6504   72 C    0 0 0
  66 C    1     2.1679     4.0968   34 H    0 0 0
  66 C    1     2.4178     4.5690   70 C    0 0 0
  66 C    1     2.4244     4.5814   62 C    0 0 0

  67 C    1     1.0915     2.0626   33 H    0 0 0
  67 C    1     1.3914     2.6294   65 C    0 0 0
  67 C    1     1.4021     2.6497   61 C    0 0 0
  67 C    1     2.1667     4.0945   31 H    0 0 0
  67 C    1     2.4179     4.5692   63 C    1 1 0
  67 C    1     2.4253     4.5832   71 C    0 0 0

  68 C    1     1.0915     2.0626   34 H    0 0 0
  68 C    1     1.3914     2.6294   66 C    0 0 0
  68 C    1     1.4021     2.6497   62 C    0 0 0
  68 C    1     2.1667     4.0945   32 H    0 0 0
  68 C    1     2.4179     4.5692   64 C    0 0 0
  68 C    1     2.4253     4.5832   72 C    0 0 0

  69 C    1     1.0914     2.0624   35 H    0 0 0
  69 C    1     1.3914     2.6293   63 C    0 0 0
  69 C    1     1.4025     2.6503   71 C   -1-1 0
  69 C    1     2.1678     4.0966   29 H    0 0 0
  69 C    1     2.4178     4.5690   65 C   -1-1 0
  69 C    1     2.4245     4.5817   61 C   -1-1 0

  70 C    1     1.0914     2.0624   36 H    0 0 0
  70 C    1     1.3914     2.6293   64 C    0 0 0
  70 C    1     1.4025     2.6503   72 C    0 0 0
  70 C    1     2.1678     4.0966   30 H    0 0 0
  70 C    1     2.4178     4.5690   66 C    0 0 0
  70 C    1     2.4245     4.5817   62 C    0 0 0

  71 C    1     1.4025     2.6503   69 C    1 1 0
  71 C    1     1.4025     2.6504   65 C    0 0 0
  71 C    1     1.5516     2.9322    9 B    0 0 0
  71 C    1     2.1486     4.0602   35 H    1 1 0
  71 C    1     2.1487     4.0605   31 H    0 0 0
  71 C    1     2.4251     4.5827   63 C    1 1 0

  72 C    1     1.4025     2.6503   70 C    0 0 0
  72 C    1     1.4025     2.6504   66 C    0 0 0
  72 C    1     1.5516     2.9322   10 B    0 0 0
  72 C    1     2.1486     4.0602   36 H    0 0 0
  72 C    1     2.1487     4.0605   32 H    0 0 0
  72 C    1     2.4251     4.5827   64 C    0 0 0

  73 O    1     1.3791     2.6061    1 B    1 0 0
  73 O    1     1.3791     2.6061    5 B    1 1 0
  73 O    1     2.3880     4.5126   75 O    1 0 0
  73 O    1     2.3882     4.5130   77 O    1 1 0
  73 O    1     2.5383     4.7966   61 C    0 0 0
  73 O    1     2.5384     4.7968   49 C    0 0 0

  74 O    1     1.3791     2.6061    2 B    0 0 0
  74 O    1     1.3791     2.6061    6 B    0 0 0
  74 O    1     2.3880     4.5126   76 O    0 0 0
  74 O    1     2.3882     4.5130   78 O    0 0 0
  74 O    1     2.5383     4.7966   62 C    0 0 0
  74 O    1     2.5384     4.7968   50 C    0 0 0

  75 O    1     1.3793     2.6065    1 B    0 0 0
  75 O    1     1.3793     2.6065    3 B    0 0 0
  75 O    1     2.3880     4.5126   73 O   -1 0 0
  75 O    1     2.3882     4.5131   77 O    0 1 0
  75 O    1     2.5391     4.7981   37 C    0 0 0
  75 O    1     2.5395     4.7990   49 C   -1 0 0

  76 O    1     1.3793     2.6065    2 B    0 0 0
  76 O    1     1.3793     2.6065    4 B    0 0 0
  76 O    1     2.3880     4.5126   74 O    0 0 0
  76 O    1     2.3882     4.5131   78 O    0 0 0
  76 O    1     2.5391     4.7981   38 C    0 0 0
  76 O    1     2.5395     4.7990   50 C    0 0 0

  77 O    1     1.3793     2.6064    5 B    0 0 0
  77 O    1     1.3793     2.6065    3 B    0-1 0
  77 O    1     2.3882     4.5130   73 O   -1-1 0
  77 O    1     2.3882     4.5131   75 O    0-1 0
  77 O    1     2.5390     4.7980   37 C    0-1 0
  77 O    1     2.5391     4.7982   61 C   -1-1 0

  78 O    1     1.3793     2.6064    6 B    0 0 0
  78 O    1     1.3793     2.6065    4 B    0 0 0
  78 O    1     2.3882     4.5130   74 O    0 0 0
  78 O    1     2.3882     4.5131   76 O    0 0 0
  78 O    1     2.5390     4.7980   38 C    0 0 0
  78 O    1     2.5391     4.7982   62 C    0 0 0

  79 O    1     1.3795     2.6068   11 B    0 0 0
  79 O    1     1.3795     2.6068    7 B    0 0 0
  79 O    1     2.3880     4.5126   83 O    1 0 0
  79 O    1     2.3884     4.5134   81 O    0-1 0
  79 O    1     2.5400     4.7998   47 C    0 0 0
  79 O    1     2.5403     4.8005   59 C    0 0 0

  80 O    1     1.3795     2.6068   12 B    0 0 0
  80 O    1     1.3795     2.6068    8 B    0 0 0
  80 O    1     2.3880     4.5126   84 O    1 0 0
  80 O    1     2.3884     4.5134   82 O    0 0 0
  80 O    1     2.5400     4.7998   48 C    0 0 0
  80 O    1     2.5403     4.8005   60 C    0 0 0

  81 O    1     1.3795     2.6069    9 B    0 0 0
  81 O    1     1.3795     2.6070    7 B    0 1 0
  81 O    1     2.3881     4.5128   83 O    1 1 0
  81 O    1     2.3884     4.5134   79 O    0 1 0
  81 O    1     2.5404     4.8006   47 C    0 1 0
  81 O    1     2.5405     4.8008   71 C    0 0 0

  82 O    1     1.3795     2.6069   10 B    1 0 0
  82 O    1     1.3795     2.6070    8 B    0 0 0
  82 O    1     2.3881     4.5128   84 O    1 0 0
  82 O    1     2.3884     4.5134   80 O    0 0 0
  82 O    1     2.5404     4.8006   48 C    0 0 0
  82 O    1     2.5405     4.8008   72 C    1 0 0

  83 O    1     1.3796     2.6071   11 B   -1 0 0
  83 O    1     1.3797     2.6072    9 B   -1-1 0
  83 O    1     2.3880     4.5126   79 O   -1 0 0
  83 O    1     2.3881     4.5128   81 O   -1-1 0
  83 O    1     2.5409     4.8016   71 C   -1-1 0
  83 O    1     2.5410     4.8019   59 C   -1 0 0

  84 O    1     1.3796     2.6071   12 B   -1 0 0
  84 O    1     1.3797     2.6072   10 B    0 0 0
  84 O    1     2.3880     4.5126   80 O   -1 0 0
  84 O    1     2.3881     4.5128   82 O   -1 0 0
  84 O    1     2.5409     4.8016   72 C    0 0 0
  84 O    1     2.5410     4.8019   60 C   -1 0 0


 SYMMETRY ALLOWED INTERNAL DEGREE(S) OF FREEDOM: 249
 TTTTTTTTTTTTTTTTTTTTTTTTTTTTTT SYMM        TELAPSE        2.93 TCPU        2.92
 TTTTTTTTTTTTTTTTTTTTTTTTTTTTTT INT_SCREEN  TELAPSE        3.15 TCPU        3.14

 DFT PARAMETERS

     ATOM       ELECTRONS   NET CHARGE   R(ANGSTROM)
   1   5  B       5.0000      0.0000     0.89000000
  13   1  H       1.0000      0.0000     1.11000000
  37   6  C       6.0000      0.0000     0.77000000
  73   8  O       8.0000      0.0000     0.74000000

 SIZE OF GRID=    2585982
 TTTTTTTTTTTTTTTTTTTTTTTTTTTTTT MAKE_GRID2  TELAPSE       23.85 TCPU       23.82
 BECKE WEIGHT FUNCTION
 RADSAFE =     2.00
 TOLERANCES - DENSITY:10**- 6; POTENTIAL:10**- 9; GRID WGT:10**-14

 RADIAL INTEGRATION  - INTERVALS (POINTS,UPPER LIMIT):            1( 75,  4.0*R)

 ANGULAR INTEGRATION - INTERVALS (ACCURACY LEVEL [N. POINTS] UPPER LIMIT):
  1(  4[  86]   0.2)  2(  8[ 194]   0.5)  3( 12[ 350]   0.9)  4( 16[ 974]   3.5)
  5( 12[ 350]9999.0)
 TTTTTTTTTTTTTTTTTTTTTTTTTTTTTT INT_CALC    TELAPSE       24.12 TCPU       24.08
 EEEEEEEEEE INT_CALC TERMINATION  DATE 19 02 2026 TIME 20:16:08.1

 *******************************************************************************
 cof-1_z37_L040_serr                                                             
 CRYSTAL - SCF - TYPE OF CALCULATION :  RESTRICTED CLOSED SHELL
 *******************************************************************************

 CAPPA:IS1  2;IS2  2;IS3  8; K PTS MONK NET  20; SYMMOPS:K SPACE   2;G SPACE   1

 TTTTTTTTTTTTTTTTTTTTTTTTTTTTTT SDIK        TELAPSE       26.09 TCPU       52.51

 AAAAAAAAAAAAAAAAAAAAAAAAAAAAAAAAAAAAAAAAAAAAAAAAAAAAAAAAAAAAAAAAAAAAAAAAAAAAAAA
         ATOMIC WAVEFUNCTION(S)


 NUCLEAR CHARGE  5.0  SYMMETRY SPECIES            S    P
 N. ELECTRONS    5.0  NUMBER OF PRIMITIVE GTOS    8    4
                      NUMBER OF CONTRACTED GTOS   4    2
                      NUMBER OF CLOSED SHELLS     2    0
                      OPEN SHELL OCCUPATION       0    1

  ZNUC  SCFIT    TOTAL HF ENERGY   KINETIC ENERGY   VIRIAL THEOREM ACCURACY
   5.0    11    -2.451164084E+01  2.462155050E+01 -1.995536038E+00  1.5E-06

 NUCLEAR CHARGE  1.0  SYMMETRY SPECIES            S
 N. ELECTRONS    1.0  NUMBER OF PRIMITIVE GTOS    4
                      NUMBER OF CONTRACTED GTOS   2
                      NUMBER OF CLOSED SHELLS     0
                      OPEN SHELL OCCUPATION       1

  ZNUC  SCFIT    TOTAL HF ENERGY   KINETIC ENERGY   VIRIAL THEOREM ACCURACY
   1.0     1    -4.977266687E-01  5.190767460E-01 -1.958869132E+00  0.0E+00

 NUCLEAR CHARGE  6.0  SYMMETRY SPECIES            S    P
 N. ELECTRONS    6.0  NUMBER OF PRIMITIVE GTOS    8    4
                      NUMBER OF CONTRACTED GTOS   4    2
                      NUMBER OF CLOSED SHELLS     2    0
                      OPEN SHELL OCCUPATION       0    2

  ZNUC  SCFIT    TOTAL HF ENERGY   KINETIC ENERGY   VIRIAL THEOREM ACCURACY
   6.0     9    -3.766704647E+01  3.775180683E+01 -1.997754800E+00  1.1E-06

 NUCLEAR CHARGE  8.0  SYMMETRY SPECIES            S    P
 N. ELECTRONS    8.0  NUMBER OF PRIMITIVE GTOS    8    4
                      NUMBER OF CONTRACTED GTOS   4    2
                      NUMBER OF CLOSED SHELLS     2    0
                      OPEN SHELL OCCUPATION       0    4

  ZNUC  SCFIT    TOTAL HF ENERGY   KINETIC ENERGY   VIRIAL THEOREM ACCURACY
   8.0    12    -7.477373220E+01  7.477365593E+01 -2.000001020E+00  3.8E-06

 AAAAAAAAAAAAAAAAAAAAAAAAAAAAAAAAAAAAAAAAAAAAAAAAAAAAAAAAAAAAAAAAAAAAAAAAAAAAAAA

 CHARGE NORMALIZATION FACTOR   1.00000000
 TOTAL ATOMIC CHARGES:
   5.0000000   5.0000000   5.0000000   5.0000000   5.0000000   5.0000000
   5.0000000   5.0000000   5.0000000   5.0000000   5.0000000   5.0000000
   1.0000000   1.0000000   1.0000000   1.0000000   1.0000000   1.0000000
   1.0000000   1.0000000   1.0000000   1.0000000   1.0000000   1.0000000
   1.0000000   1.0000000   1.0000000   1.0000000   1.0000000   1.0000000
   1.0000000   1.0000000   1.0000000   1.0000000   1.0000000   1.0000000
   6.0000000   6.0000000   6.0000000   6.0000000   6.0000000   6.0000000
   6.0000000   6.0000000   6.0000000   6.0000000   6.0000000   6.0000000
   6.0000000   6.0000000   6.0000000   6.0000000   6.0000000   6.0000000
   6.0000000   6.0000000   6.0000000   6.0000000   6.0000000   6.0000000
   6.0000000   6.0000000   6.0000000   6.0000000   6.0000000   6.0000000
   6.0000000   6.0000000   6.0000000   6.0000000   6.0000000   6.0000000
   8.0000000   8.0000000   8.0000000   8.0000000   8.0000000   8.0000000
   8.0000000   8.0000000   8.0000000   8.0000000   8.0000000   8.0000000
 TTTTTTTTTTTTTTTTTTTTTTTTTTTTTT MOQGAD      TELAPSE       26.19 TCPU       55.69
 TTTTTTTTTTTTTTTTTTTTTTTTTTTTTT SHELLXN     TELAPSE       44.20 TCPU      631.37
 TTTTTTTTTTTTTTTTTTTTTTTTTTTTTT MONMO3      TELAPSE       44.80 TCPU      650.71
 NUMERICALLY INTEGRATED DENSITY    395.9998716417
 TTTTTTTTTTTTTTTTTTTTTTTTTTTTTT NUMDFT      TELAPSE       46.36 TCPU      700.37
 CYC   0 ETOT(AU) -2.591923291078E+03 DETOT -2.59E+03 tst  0.00E+00 PX  1.00E+00
 TTTTTTTTTTTTTTTTTTTTTTTTTTTTTT DIIS        TELAPSE       46.47 TCPU      703.97
 TTTTTTTTTTTTTTTTTTTTTTTTTTTTTT FDIK        TELAPSE       48.48 TCPU      768.04
 INSULATING STATE
 TOP OF VALENCE BANDS -    BAND    198; K    3; EIG -3.1181570E-01 AU
 TOP OF VALENCE BANDS -    BAND    198; K    1; EIG -3.1195438E-01 AU
 BOTTOM OF VIRTUAL BANDS - BAND    199; K    1; EIG -1.6079696E-01 AU
 INDIRECT ENERGY BAND GAP:   4.1094 eV
 TTTTTTTTTTTTTTTTTTTTTTTTTTTTTT PDIG        TELAPSE       50.13 TCPU      774.66
 CHARGE NORMALIZATION FACTOR   1.00000000
 TOTAL ATOMIC CHARGES:
   4.1503864   4.1453606   4.1603548   4.1654081   4.1605786   4.1656690
   4.1652591   4.1602057   4.1650362   4.1599798   4.1450410   4.1500206
   0.7853626   0.7854307   0.7855442   0.7854778   0.7842891   0.7850695
   0.7851889   0.7844088   0.7857734   0.7860187   0.7861861   0.7859382
   0.7857637   0.7860087   0.7861480   0.7858997   0.7842941   0.7850716
   0.7852535   0.7844749   0.7853155   0.7853821   0.7855385   0.7854715
   6.0457227   6.0429996   6.2668683   6.2664943   6.2664605   6.2668306
   6.2658890   6.2649177   6.2648610   6.2658341   6.0422708   6.0449874
   6.0482536   6.0485348   6.2639835   6.2640874   6.2641624   6.2640516
   6.2638938   6.2639928   6.2641684   6.2640570   6.0472962   6.0470184
   6.0461040   6.0433613   6.2656467   6.2646867   6.2652363   6.2662044
   6.2665012   6.2661202   6.2667394   6.2671094   6.0418074   6.0445182
   8.6969393   8.6931128   8.6970464   8.6932326   8.7003504   8.6908615
   8.6935495   8.6973647   8.6912681   8.7007352   8.6937141   8.6975442
 TTTTTTTTTTTTTTTTTTTTTTTTTTTTTT MOQGAD      TELAPSE       50.24 TCPU      774.76
 TTTTTTTTTTTTTTTTTTTTTTTTTTTTTT SHELLXN     TELAPSE       68.87 TCPU     1369.21
 TTTTTTTTTTTTTTTTTTTTTTTTTTTTTT MONMO3      TELAPSE       69.48 TCPU     1388.54
 NUMERICALLY INTEGRATED DENSITY    395.9999066365
 TTTTTTTTTTTTTTTTTTTTTTTTTTTTTT NUMDFT      TELAPSE       71.06 TCPU     1439.01
 CYC   1 ETOT(AU) -2.577651554598E+03 DETOT  1.43E+01 tst  0.00E+00 PX  1.00E+00
 TTTTTTTTTTTTTTTTTTTTTTTTTTTTTT DIIS        TELAPSE       71.20 TCPU     1443.63
 DIIS TEST: 0.21841E+01 AT SCF   CYCLE   1 - MIX   30 %
 TTTTTTTTTTTTTTTTTTTTTTTTTTTTTT FDIK        TELAPSE       73.22 TCPU     1508.06
 INSULATING STATE
 TOP OF VALENCE BANDS -    BAND    198; K    3; EIG -2.2363349E-01 AU
 TOP OF VALENCE BANDS -    BAND    198; K    1; EIG -2.2373333E-01 AU
 BOTTOM OF VIRTUAL BANDS - BAND    199; K    1; EIG -8.4225407E-02 AU
 INDIRECT ENERGY BAND GAP:   3.7935 eV
 TTTTTTTTTTTTTTTTTTTTTTTTTTTTTT PDIG        TELAPSE       74.88 TCPU     1514.68
 CHARGE NORMALIZATION FACTOR   1.00000000
 TOTAL ATOMIC CHARGES:
   4.6590740   4.6747980   4.6832398   4.7128699   4.6831827   4.7129226
   4.7130865   4.6835567   4.7130534   4.6835383   4.6750166   4.6590072
   0.9125458   0.9009801   0.9010678   0.9125461   0.9200767   0.9148774
   0.9149211   0.9201590   0.9069261   0.8942301   0.8942088   0.9070613
   0.9069171   0.8942082   0.8941924   0.9070117   0.9200776   0.9148683
   0.9149932   0.9202291   0.9124860   0.9009253   0.9010749   0.9125359
   5.8634590   5.8757765   6.1468476   6.1161982   6.1166249   6.1472688
   6.1342384   6.1484985   6.1491587   6.1350301   5.8784443   5.8661553
   5.8841659   5.9018248   6.1387751   6.1516172   6.1524526   6.1395053
   6.1389610   6.1517462   6.1523970   6.1394795   5.9050875   5.8871329
   5.8634070   5.8757049   6.1343071   6.1485567   6.1490189   6.1349447
   6.1470725   6.1164062   6.1163546   6.1469881   5.8786723   5.8663508
   8.3378094   8.3261089   8.3381939   8.3264655   8.3552339   8.3411264
   8.3259933   8.3376075   8.3408736   8.3551455   8.3263743   8.3379728
 TTTTTTTTTTTTTTTTTTTTTTTTTTTTTT MOQGAD      TELAPSE       74.98 TCPU     1514.78
 TTTTTTTTTTTTTTTTTTTTTTTTTTTTTT SHELLXN     TELAPSE       93.67 TCPU     2110.64
 TTTTTTTTTTTTTTTTTTTTTTTTTTTTTT MONMO3      TELAPSE       94.28 TCPU     2130.01
 NUMERICALLY INTEGRATED DENSITY    395.9998882671
 TTTTTTTTTTTTTTTTTTTTTTTTTTTTTT NUMDFT      TELAPSE       95.85 TCPU     2180.29
 CYC   2 ETOT(AU) -2.578038415337E+03 DETOT -3.87E-01 tst  4.17E-03 PX  1.59E-01
 TTTTTTTTTTTTTTTTTTTTTTTTTTTTTT DIIS        TELAPSE       96.02 TCPU     2185.75
 DIIS TEST: 0.89683E+00 AT SCF   CYCLE   2 - DIIS ACTIVE - HISTORY:     2 CYCLES
 TTTTTTTTTTTTTTTTTTTTTTTTTTTTTT FDIK        TELAPSE       98.08 TCPU     2251.65
 INSULATING STATE
 TOP OF VALENCE BANDS -    BAND    198; K    3; EIG -2.3618924E-01 AU
 TOP OF VALENCE BANDS -    BAND    198; K    1; EIG -2.3632783E-01 AU
 BOTTOM OF VIRTUAL BANDS - BAND    199; K    1; EIG -8.0465521E-02 AU
 INDIRECT ENERGY BAND GAP:   4.2375 eV
 TTTTTTTTTTTTTTTTTTTTTTTTTTTTTT PDIG        TELAPSE       99.75 TCPU     2258.27
 CHARGE NORMALIZATION FACTOR   1.00000000
 TOTAL ATOMIC CHARGES:
   4.4700474   4.4669381   4.4879794   4.5064202   4.4880611   4.5065822
   4.5061104   4.4876129   4.5059451   4.4874315   4.4663836   4.4697346
   0.8926056   0.8790902   0.8791407   0.8928707   0.8939229   0.8934559
   0.8935805   0.8939685   0.8861380   0.8784960   0.8789021   0.8862184
   0.8861785   0.8785081   0.8788462   0.8861403   0.8939316   0.8934601
   0.8936322   0.8940372   0.8926020   0.8791065   0.8790927   0.8928112
   5.9005191   5.8898706   6.1582294   6.1691359   6.1688075   6.1579569
   6.1607675   6.1504578   6.1497331   6.1596615   5.8887661   5.8993777
   5.9187813   5.9064319   6.1599153   6.1670499   6.1664282   6.1596420
   6.1600126   6.1671447   6.1663342   6.1595404   5.9049271   5.9176668
   5.9008604   5.8901505   6.1607264   6.1503957   6.1498700   6.1597727
   6.1581514   6.1689970   6.1687965   6.1580057   5.8884696   5.8990652
   8.5189671   8.5149567   8.5191209   8.5151291   8.5230117   8.5051027
   8.5151390   8.5193106   8.5053156   8.5227197   8.5153077   8.5195176
 TTTTTTTTTTTTTTTTTTTTTTTTTTTTTT MOQGAD      TELAPSE       99.85 TCPU     2258.37
 TTTTTTTTTTTTTTTTTTTTTTTTTTTTTT SHELLXN     TELAPSE      118.59 TCPU     2856.10
 TTTTTTTTTTTTTTTTTTTTTTTTTTTTTT MONMO3      TELAPSE      119.19 TCPU     2875.45
 NUMERICALLY INTEGRATED DENSITY    395.9998890292
 TTTTTTTTTTTTTTTTTTTTTTTTTTTTTT NUMDFT      TELAPSE      120.77 TCPU     2925.77
 CYC   3 ETOT(AU) -2.578223721978E+03 DETOT -1.85E-01 tst  6.25E-04 PX  6.60E-02
 TTTTTTTTTTTTTTTTTTTTTTTTTTTTTT DIIS        TELAPSE      120.96 TCPU     2931.89
 DIIS TEST: 0.30002E-01 AT SCF   CYCLE   3 - DIIS ACTIVE - HISTORY:     3 CYCLES
 TTTTTTTTTTTTTTTTTTTTTTTTTTTTTT FDIK        TELAPSE      123.03 TCPU     2997.96
 INSULATING STATE
 TOP OF VALENCE BANDS -    BAND    198; K    3; EIG -2.4586089E-01 AU
 TOP OF VALENCE BANDS -    BAND    198; K    1; EIG -2.4595590E-01 AU
 BOTTOM OF VIRTUAL BANDS - BAND    199; K    1; EIG -8.8811973E-02 AU
 INDIRECT ENERGY BAND GAP:   4.2735 eV
 TTTTTTTTTTTTTTTTTTTTTTTTTTTTTT PDIG        TELAPSE      124.70 TCPU     3004.59
 CHARGE NORMALIZATION FACTOR   1.00000000
 TOTAL ATOMIC CHARGES:
   4.4738552   4.4738799   4.4933912   4.5087478   4.4934563   4.5089042
   4.5088766   4.4935830   4.5087092   4.4934245   4.4739237   4.4736217
   0.8725989   0.8660931   0.8662499   0.8725906   0.8800280   0.8729117
   0.8729256   0.8800686   0.8680703   0.8598272   0.8597241   0.8683168
   0.8681034   0.8598450   0.8596642   0.8682354   0.8800590   0.8729191
   0.8729844   0.8801123   0.8725841   0.8660766   0.8662208   0.8725453
   5.9339415   5.9424346   6.1753852   6.1540092   6.1544569   6.1756150
   6.1616109   6.1784232   6.1796531   6.1633791   5.9454922   5.9370345
   5.9493081   5.9661670   6.1652824   6.1829221   6.1839784   6.1661759
   6.1652325   6.1828351   6.1840670   6.1662657   5.9694400   5.9518584
   5.9339598   5.9424340   6.1615196   6.1783181   6.1797437   6.1635342
   6.1752845   6.1539161   6.1544762   6.1756453   5.9455452   5.9370519
   8.4810620   8.4738900   8.4813689   8.4741620   8.4953818   8.4840891
   8.4740242   8.4809008   8.4840816   8.4959425   8.4743450   8.4812277
 TTTTTTTTTTTTTTTTTTTTTTTTTTTTTT MOQGAD      TELAPSE      124.79 TCPU     3004.69
 TTTTTTTTTTTTTTTTTTTTTTTTTTTTTT SHELLXN     TELAPSE      143.52 TCPU     3602.02
 TTTTTTTTTTTTTTTTTTTTTTTTTTTTTT MONMO3      TELAPSE      144.13 TCPU     3621.37
 NUMERICALLY INTEGRATED DENSITY    395.9998909209
 TTTTTTTTTTTTTTTTTTTTTTTTTTTTTT NUMDFT      TELAPSE      145.71 TCPU     3671.99
 CYC   4 ETOT(AU) -2.578230074244E+03 DETOT -6.35E-03 tst  2.93E-05 PX  1.52E-02
 TTTTTTTTTTTTTTTTTTTTTTTTTTTTTT DIIS        TELAPSE      145.93 TCPU     3678.41
 DIIS TEST: 0.88977E-02 AT SCF   CYCLE   4 - DIIS ACTIVE - HISTORY:     4 CYCLES
 TTTTTTTTTTTTTTTTTTTTTTTTTTTTTT FDIK        TELAPSE      148.00 TCPU     3744.20
 INSULATING STATE
 TOP OF VALENCE BANDS -    BAND    198; K    3; EIG -2.4432837E-01 AU
 TOP OF VALENCE BANDS -    BAND    198; K    1; EIG -2.4443573E-01 AU
 BOTTOM OF VIRTUAL BANDS - BAND    199; K    1; EIG -8.8637119E-02 AU
 INDIRECT ENERGY BAND GAP:   4.2366 eV
 TTTTTTTTTTTTTTTTTTTTTTTTTTTTTT PDIG        TELAPSE      149.65 TCPU     3750.82
 CHARGE NORMALIZATION FACTOR   1.00000000
 TOTAL ATOMIC CHARGES:
   4.4738746   4.4756125   4.4938070   4.5140142   4.4938731   4.5141664
   4.5138793   4.4936684   4.5137255   4.4935063   4.4752522   4.4736868
   0.8771311   0.8662553   0.8663199   0.8773465   0.8814252   0.8779900
   0.8781809   0.8815539   0.8707460   0.8629470   0.8633261   0.8708461
   0.8707657   0.8629428   0.8632844   0.8707821   0.8814341   0.8779913
   0.8782405   0.8816251   0.8771060   0.8662483   0.8662912   0.8773059
   5.9252612   5.9243236   6.1698132   6.1656866   6.1654450   6.1697289
   6.1690432   6.1658909   6.1648758   6.1675521   5.9229974   5.9239523
   5.9458090   5.9424227   6.1694738   6.1772900   6.1767394   6.1691855
   6.1696241   6.1774048   6.1766317   6.1690622   5.9410742   5.9448588
   5.9255237   5.9245369   6.1690130   6.1658485   6.1649505   6.1676297
   6.1698223   6.1656314   6.1653665   6.1696935   5.9228022   5.9237356
   8.4928142   8.4871131   8.4930045   8.4873125   8.5014463   8.4852536
   8.4871741   8.4931038   8.4853157   8.5008942   8.4873851   8.4933313
 TTTTTTTTTTTTTTTTTTTTTTTTTTTTTT MOQGAD      TELAPSE      149.76 TCPU     3750.92
 TTTTTTTTTTTTTTTTTTTTTTTTTTTTTT SHELLXN     TELAPSE      168.47 TCPU     4347.93
 TTTTTTTTTTTTTTTTTTTTTTTTTTTTTT MONMO3      TELAPSE      169.08 TCPU     4367.30
 NUMERICALLY INTEGRATED DENSITY    395.9998906993
 TTTTTTTTTTTTTTTTTTTTTTTTTTTTTT NUMDFT      TELAPSE      170.67 TCPU     4418.06
 CYC   5 ETOT(AU) -2.578232095381E+03 DETOT -2.02E-03 tst  6.15E-06 PX  8.28E-03
 TTTTTTTTTTTTTTTTTTTTTTTTTTTTTT DIIS        TELAPSE      170.91 TCPU     4424.64
 DIIS TEST: 0.30993E-03 AT SCF   CYCLE   5 - DIIS ACTIVE - HISTORY:     5 CYCLES
 TTTTTTTTTTTTTTTTTTTTTTTTTTTTTT FDIK        TELAPSE      172.99 TCPU     4490.52
 INSULATING STATE
 TOP OF VALENCE BANDS -    BAND    198; K    3; EIG -2.4399224E-01 AU
 TOP OF VALENCE BANDS -    BAND    198; K    1; EIG -2.4410236E-01 AU
 BOTTOM OF VIRTUAL BANDS - BAND    199; K    1; EIG -8.7862747E-02 AU
 INDIRECT ENERGY BAND GAP:   4.2485 eV
 TTTTTTTTTTTTTTTTTTTTTTTTTTTTTT PDIG        TELAPSE      174.65 TCPU     4497.14
 CHARGE NORMALIZATION FACTOR   1.00000000
 TOTAL ATOMIC CHARGES:
   4.4743892   4.4756016   4.4942670   4.5122446   4.4943277   4.5124007
   4.5123232   4.4943546   4.5121612   4.4941997   4.4756053   4.4741193
   0.8775921   0.8679527   0.8681206   0.8776107   0.8833235   0.8783043
   0.8782550   0.8833171   0.8728344   0.8639159   0.8638108   0.8730809
   0.8728743   0.8639367   0.8637464   0.8729972   0.8833501   0.8783093
   0.8783136   0.8833645   0.8775827   0.8679434   0.8680880   0.8775603
   5.9203674   5.9221282   6.1721993   6.1602556   6.1606191   6.1722845
   6.1609185   6.1711601   6.1728136   6.1632329   5.9256242   5.9238381
   5.9354785   5.9443233   6.1645643   6.1794698   6.1805482   6.1655163
   6.1644837   6.1793749   6.1806475   6.1656173   5.9476664   5.9380431
   5.9204433   5.9221801   6.1608408   6.1710592   6.1729265   6.1633854
   6.1720603   6.1601213   6.1606593   6.1723555   5.9256075   5.9237934
   8.4927933   8.4857035   8.4930809   8.4859607   8.5026956   8.4898324
   8.4859108   8.4926292   8.4899441   8.5035173   8.4862015   8.4929446
 TTTTTTTTTTTTTTTTTTTTTTTTTTTTTT MOQGAD      TELAPSE      174.75 TCPU     4497.24
 TTTTTTTTTTTTTTTTTTTTTTTTTTTTTT SHELLXN     TELAPSE      193.45 TCPU     5093.81
 TTTTTTTTTTTTTTTTTTTTTTTTTTTTTT MONMO3      TELAPSE      194.06 TCPU     5113.10
 NUMERICALLY INTEGRATED DENSITY    395.9998906097
 TTTTTTTTTTTTTTTTTTTTTTTTTTTTTT NUMDFT      TELAPSE      195.64 TCPU     5163.52
 CYC   6 ETOT(AU) -2.578232113908E+03 DETOT -1.85E-05 tst  2.37E-06 PX  2.43E-03
 TTTTTTTTTTTTTTTTTTTTTTTTTTTTTT DIIS        TELAPSE      195.90 TCPU     5170.07
 DIIS TEST: 0.26758E-03 AT SCF   CYCLE   6 - DIIS ACTIVE - HISTORY:     6 CYCLES
 TTTTTTTTTTTTTTTTTTTTTTTTTTTTTT FDIK        TELAPSE      197.96 TCPU     5235.46
 INSULATING STATE
 TOP OF VALENCE BANDS -    BAND    198; K    3; EIG -2.4405834E-01 AU
 TOP OF VALENCE BANDS -    BAND    198; K    1; EIG -2.4416802E-01 AU
 BOTTOM OF VIRTUAL BANDS - BAND    199; K    1; EIG -8.8006782E-02 AU
 INDIRECT ENERGY BAND GAP:   4.2464 eV
 TTTTTTTTTTTTTTTTTTTTTTTTTTTTTT PDIG        TELAPSE      199.62 TCPU     5242.08
 CHARGE NORMALIZATION FACTOR   1.00000000
 TOTAL ATOMIC CHARGES:
   4.4746400   4.4755210   4.4941967   4.5129149   4.4942635   4.5130688
   4.5128229   4.4941165   4.5126650   4.4939547   4.4752326   4.4744155
   0.8779192   0.8675990   0.8676833   0.8780706   0.8826940   0.8786197
   0.8787588   0.8827916   0.8723353   0.8638789   0.8641239   0.8724702
   0.8723618   0.8638832   0.8640753   0.8723995   0.8827101   0.8786247
   0.8788159   0.8828527   0.8779007   0.8675925   0.8676516   0.8780261
   5.9234107   5.9238077   6.1703471   6.1627927   6.1627683   6.1703582
   6.1651541   6.1684900   6.1680890   6.1645647   5.9237232   5.9233561
   5.9412555   5.9437445   6.1665713   6.1781853   6.1780924   6.1666319
   6.1666545   6.1782363   6.1780453   6.1665743   5.9437265   5.9413142
   5.9236062   5.9239605   6.1650978   6.1684185   6.1681839   6.1646810
   6.1703063   6.1627133   6.1627316   6.1703544   5.9235953   5.9231997
   8.4923909   8.4862435   8.4926122   8.4864618   8.5022576   8.4876128
   8.4863482   8.4925708   8.4876594   8.5020346   8.4865895   8.4928256
 TTTTTTTTTTTTTTTTTTTTTTTTTTTTTT MOQGAD      TELAPSE      199.72 TCPU     5242.18
 TTTTTTTTTTTTTTTTTTTTTTTTTTTTTT SHELLXN     TELAPSE      218.39 TCPU     5837.76
 TTTTTTTTTTTTTTTTTTTTTTTTTTTTTT MONMO3      TELAPSE      219.00 TCPU     5857.13
 NUMERICALLY INTEGRATED DENSITY    395.9998905977
 TTTTTTTTTTTTTTTTTTTTTTTTTTTTTT NUMDFT      TELAPSE      220.61 TCPU     5908.69
 CYC   7 ETOT(AU) -2.578232182790E+03 DETOT -6.89E-05 tst  7.43E-07 PX  1.32E-03
 TTTTTTTTTTTTTTTTTTTTTTTTTTTTTT DIIS        TELAPSE      220.91 TCPU     5915.33
 DIIS TEST: 0.40525E-05 AT SCF   CYCLE   7 - DIIS ACTIVE - HISTORY:     7 CYCLES
 TTTTTTTTTTTTTTTTTTTTTTTTTTTTTT FDIK        TELAPSE      222.99 TCPU     5981.30
 INSULATING STATE
 TOP OF VALENCE BANDS -    BAND    198; K    3; EIG -2.4406312E-01 AU
 TOP OF VALENCE BANDS -    BAND    198; K    1; EIG -2.4417242E-01 AU
 BOTTOM OF VIRTUAL BANDS - BAND    199; K    1; EIG -8.8040899E-02 AU
 INDIRECT ENERGY BAND GAP:   4.2456 eV
 TTTTTTTTTTTTTTTTTTTTTTTTTTTTTT PDIG        TELAPSE      224.65 TCPU     5987.92
 CHARGE NORMALIZATION FACTOR   1.00000000
 TOTAL ATOMIC CHARGES:
   4.4744769   4.4755274   4.4942125   4.5130651   4.4942768   4.5132193
   4.5130367   4.4941866   4.5128785   4.4940271   4.4753520   4.4742474
   0.8778799   0.8675641   0.8676821   0.8779965   0.8827087   0.8786243
   0.8786883   0.8827630   0.8722230   0.8638938   0.8640241   0.8723976
   0.8722534   0.8639028   0.8639707   0.8723233   0.8827263   0.8786274
   0.8787474   0.8828225   0.8778632   0.8675569   0.8676510   0.8779504
   5.9227866   5.9231630   6.1704057   6.1627096   6.1627664   6.1703988
   6.1647867   6.1679202   6.1682894   6.1652638   5.9243247   5.9239393
   5.9407539   5.9432819   6.1665907   6.1779441   6.1782253   6.1669386
   6.1666269   6.1779547   6.1782200   6.1669264   5.9443379   5.9416002
   5.9229578   5.9232974   6.1647341   6.1678502   6.1683819   6.1653765
   6.1703423   6.1626145   6.1627463   6.1704166   5.9242164   5.9238074
   8.4925624   8.4863212   8.4928014   8.4865496   8.5019424   8.4873643
   8.4864524   8.4926162   8.4874579   8.5020977   8.4867031   8.4928879
 TTTTTTTTTTTTTTTTTTTTTTTTTTTTTT MOQGAD      TELAPSE      224.75 TCPU     5988.02
 TTTTTTTTTTTTTTTTTTTTTTTTTTTTTT SHELLXN     TELAPSE      243.46 TCPU     6584.66
 TTTTTTTTTTTTTTTTTTTTTTTTTTTTTT MONMO3      TELAPSE      244.07 TCPU     6604.01
 NUMERICALLY INTEGRATED DENSITY    395.9998905935
 TTTTTTTTTTTTTTTTTTTTTTTTTTTTTT NUMDFT      TELAPSE      245.66 TCPU     6654.79
 CYC   8 ETOT(AU) -2.578232182856E+03 DETOT -6.57E-08 tst  2.07E-08 PX  1.73E-04
 TTTTTTTTTTTTTTTTTTTTTTTTTTTTTT DIIS        TELAPSE      245.96 TCPU     6661.31
 DIIS TEST: 0.17705E-05 AT SCF   CYCLE   8 - DIIS ACTIVE - HISTORY:     8 CYCLES
 TTTTTTTTTTTTTTTTTTTTTTTTTTTTTT FDIK        TELAPSE      248.04 TCPU     6727.25
 INSULATING STATE
 TOP OF VALENCE BANDS -    BAND    198; K    3; EIG -2.4406163E-01 AU
 TOP OF VALENCE BANDS -    BAND    198; K    1; EIG -2.4417083E-01 AU
 BOTTOM OF VIRTUAL BANDS - BAND    199; K    1; EIG -8.8042116E-02 AU
 INDIRECT ENERGY BAND GAP:   4.2455 eV
 TTTTTTTTTTTTTTTTTTTTTTTTTTTTTT PDIG        TELAPSE      249.70 TCPU     6733.87
 CHARGE NORMALIZATION FACTOR   1.00000000
 TOTAL ATOMIC CHARGES:
   4.4744658   4.4755898   4.4942258   4.5130797   4.4942906   4.5132337
   4.5130242   4.4941771   4.5128663   4.4940171   4.4753645   4.4742388
   0.8778409   0.8675794   0.8676820   0.8779721   0.8827268   0.8785709
   0.8786700   0.8828022   0.8722305   0.8638512   0.8640333   0.8723877
   0.8722593   0.8638582   0.8639818   0.8723149   0.8827440   0.8785748
   0.8787283   0.8828621   0.8778235   0.8675721   0.8676508   0.8779267
   5.9230005   5.9234501   6.1704861   6.1626309   6.1626549   6.1704912
   6.1648913   6.1682789   6.1682945   6.1648804   5.9240425   5.9236030
   5.9408352   5.9435587   6.1666205   6.1780945   6.1782062   6.1668362
   6.1666742   6.1781203   6.1781856   6.1668071   5.9441299   5.9413273
   5.9231797   5.9235906   6.1648367   6.1682074   6.1683882   6.1649955
   6.1704310   6.1625426   6.1626288   6.1705004   5.9239281   5.9234625
   8.4925454   8.4862905   8.4927778   8.4865152   8.5020845   8.4874957
   8.4864118   8.4926570   8.4875646   8.5020678   8.4866592   8.4929221
 TTTTTTTTTTTTTTTTTTTTTTTTTTTTTT MOQGAD      TELAPSE      249.80 TCPU     6733.97
 TTTTTTTTTTTTTTTTTTTTTTTTTTTTTT SHELLXN     TELAPSE      268.47 TCPU     7329.56
 +++ ENERGIES IN A.U. +++
 ::: EXT EL-POLE                                  -2.7020442268229E+03
 ::: EXT EL-SPHEROPOLE                             3.0984022553919E+01
 ::: BIELET ZONE E-E                               4.3204228080920E+03
 ::: TOTAL E-E                                     1.6493626038230E+03
 ::: TOTAL E-N + N-E                              -6.9531122465359E+03
 ::: TOTAL N-N                                     4.3310716001375E+02
 ::: KINETIC ENERGY                                2.5598387288693E+03
 ::: PSEUDO TOTAL   ENERGY                        -2.3108037538299E+03
 ::: VIRIAL COEFFICIENT                            1.0511297998003E+00
 TTTTTTTTTTTTTTTTTTTTTTTTTTTTTT MONMO3      TELAPSE      269.08 TCPU     7348.89
 NUMERICALLY INTEGRATED DENSITY    395.9998905928
 EXCHANGE ENERGY: -0.252043679652E+03  CORRELATION ENERGY: -0.153847497330E+02
 TTTTTTTTTTTTTTTTTTTTTTTTTTTTTT NUMDFT      TELAPSE      270.66 TCPU     7399.43
 CYC   9 ETOT(AU) -2.578232183215E+03 DETOT -3.59E-07 tst  4.27E-09 PX  1.73E-04

 == SCF ENDED - CONVERGENCE ON ENERGY      E(AU) -2.5782321832151E+03 CYCLES   9


 ENERGY EXPRESSION=HARTREE+FOCK EXCH*0.00000+(HSESOL     EXCH)*1.00000+PBESOL     CORR


 TOTAL ENERGY(DFT)(AU)(  9) -2.5782321832151E+03 DE-3.6E-07 tester 4.3E-09
 TTTTTTTTTTTTTTTTTTTTTTTTTTTTTT EDFT        TELAPSE      270.66 TCPU     7399.44
 
 INFORMATION **** DFTD3 ENERGY **** CALCULATE DFTD3 ENERGY

           DFT-D V3(BJ)
 DF                                         hsesol3c  
 parameters
 s6       :    1.0000
 s8       :    0.0000
 a1       :    0.5196
 a2       :    4.9385
 k1 k3    :   16.0000   -4.0000
 Cutoff   :   50.2022
 CN-Cutoff:   21.1671
 ABC-Cutoff:   21.1671
 
 Edisp /kcal,au:   -52.9686 -0.08441078

 E6    /kcal :   -56.5597
 E8    /kcal :     0.0000
 E6(ABC) "   :   3.591157
 
 INFORMATION **** DFTD3 ENERGY **** NORMAL TERMINATION OF DFTD3 MODULE

 GCP ENERGY CALCULATION
  level        hsesol3c            basis:hsesol3c
  Nbf            948
  Atoms           84

  Parameters: 
  sigma     1.0000
  eta       1.4281
  alpha     0.2936
  beta      1.9467

  dmp_scal      4.0000
  dmp_exp       6.0000
 cutoffs: 
   distance [bohr] 60.0
   noise    [a.u.] 2.2E-16
 SR-damping   T
 ** gCP correction **
  Egcp:        0.1662086879 / (a.u.) ||     104.2975 / (kcal/mol)
 INFORMATION **** GCP **** NORMAL TERMINATION OF GCP MODULE

 *******************************************************************************

 DFT-D3-GCP DISPERSION AND COUNTERPOISE CORRECTION

 D3 DISPERSION ENERGY (AU)      -8.4410776981423E-02
 GCP ENERGY (AU)                 1.6620868786777E-01
 TOTAL ENERGY + DISP + GCP (AU) -2.5781503853043E+03

 *******************************************************************************

 EIGENVECTORS IN FORTRAN UNIT 10
 TTTTTTTTTTTTTTTTTTTTTTTTTTTTTT END         TELAPSE      273.89 TCPU     7408.20
 EEEEEEEEEE TERMINATION  DATE 19 02 2026 TIME 20:20:17.9
