 Default number of threads is:           32

         
 *******************************************************************************
 *                                                                             *
 *                               CRYSTAL23                                     *
 *                      public : 1.0.1 - October 2022                          *
 *                       HTTP://WWW.CRYSTAL.UNITO.IT                           *
 *                                                                             *
 *                              MAIN AUTHORS                                   *
 *                                                                             *
 *  R. DOVESI(1,11), V.R. SAUNDERS(2), C. ROETTI(1,11), R. ORLANDO(1,11),      *
 *  C.M. ZICOVICH-WILSON(1,3), F. PASCALE(4), B. CIVALLERI(1,11),              *
 *  K. DOLL(5), N.M. HARRISON(6), I.J. BUSH(7), Ph. D'ARCO(8),                 *
 *  M. LLUNELL(9), M. CAUSA'(10), Y. NOEL(8), L. MASCHIO(1,11), A. ERBA(1,11)  *
 *  M. RE'RAT(14), S. CASASSA(1,11), B.G. SEARLE(2), J.K. DESMARAIS(1)         *
 *                                                                             *
 *        CONTRIBUTIONS TO THE CODE HAVE ALSO BEEN GIVEN BY                    *
 *                                                                             *
 *  M. FERRABONE(1,11), M. DE LA PIERRE(1,11), M. FERRERO(1,11),               *
 *  J. BAIMA(1,11), E. ALBANESE(1,11), M.F. PEINTINGER(12), R. BAST(13),       *
 *  B. KIRTMAN(15), V. LACIVITA(1,11), R. DEMICHELIS(1,16)                     *
 *  G. BRANDEBURG(17), S. SALUSTRO(1,11), G. SANSONE(1,11)                     *
 *  M.T. RUGGIERO(18), L.E. DAGA(1), L. DONA'(1), A. COSSARD(1)                *
 *                                                                             *
 * (1) THEORETICAL CHEMISTRY GROUP - UNIVERSITA' DI TORINO - TORINO (ITALY)    *
 * (2) SCIENTIFIC COMPUTING DEPARTMENT - STFC DARESBURY (UK)                   *
 * (3) UNIVERSIDAD AUTONOMA DEL ESTADO DE MORELOS - CUERNAVACA (MEXICO)        *
 * (4) UNIVERSITE' DE LORRAINE - NANCY (FRANCE)                                *
 * (5) UNIVERSITAET STUTTGART- STUTTGART (GERMANY)                             *
 * (6) IMPERIAL COLLEGE - LONDON (UK)                                          *
 * (7) SCIENTIFIC COMPUTING DEPARTMENT - STFC RAL (UK)                         *
 * (8) UPMC - SORBONNE UNIVERSITES - PARIS (FRANCE)                            *
 * (9) UNIVERSIDAD DE BARCELONA - BARCELONA (SPAIN)                            *
 *(10) UNIVERSITA' DI NAPOLI "FEDERICO II" - NAPOLI (ITALY)                    *
 *(11) NIS - NANOSTRUCTURED INTERFACES AND SURFACES - TORINO (ITALY)           *
 *(12) MPI FUER CHEMISCHE ENERGIEKONVERSION - MUELHEIM AN DER RUHR (GERMANY)   *
 *(13) UNIVERSITY OF TROMSO - TROMSO (NORWAY)                                  *
 *(14) UNIVERSITE' DE PAU ET DES PAYS DE L'ADOUR - PAU (FRANCE)                *
 *(15) UNIVERSITY OF CALIFORNIA SANTA BARBARA - SANTA BARBARA (USA)            *
 *(16) CURTIN UNIVERSITY - PERTH (AUSTRALIA)                                   *
 *(17) UNIVERSITY COLLEGE LONDON - LONDON (UK)                                 *
 *(18) UNIVERSITY OF VERMONT - BURLINGTON (USA)                                *
 *                                                                             *
 *******************************************************************************
 EEEEEEEEEE STARTING  DATE 19 02 2026 TIME 20:11:17.4
 cof-1_z36_L000_serr                                                             

 CRYSTAL CALCULATION
 (INPUT ACCORDING TO THE INTERNATIONAL TABLES FOR X-RAY CRYSTALLOGRAPHY)
 CRYSTAL FAMILY                       :  TRICLINIC   
 CRYSTAL CLASS  (GROTH - 1921)        :  TRICLINIC PEDIAL                     

 SPACE GROUP (NONCENTROSYMMETRIC)     :  P 1             

 LATTICE PARAMETERS  (ANGSTROMS AND DEGREES) - CONVENTIONAL CELL
        A           B           C        ALPHA        BETA       GAMMA
    15.02361    15.02392     7.20000    90.00032    89.99994   119.99596


 NUMBER OF IRREDUCIBLE ATOMS IN THE CONVENTIONAL CELL:   84

 INPUT COORDINATES

 ATOM AT. N.              COORDINATES
   1   5     6.136805400000E-01  2.273182200000E-01  2.506634300000E-01
   2   5     6.136805400000E-01  2.273182200000E-01  7.506634300000E-01
   3   5     7.727362000000E-01  3.863778800000E-01  2.506634400000E-01
   4   5     7.727362000000E-01  3.863778800000E-01  7.506634500000E-01
   5   5     6.136762700000E-01  3.863606700000E-01  2.492685600000E-01
   6   5     6.136762700000E-01  3.863606700000E-01  7.492685600000E-01
   7   5     2.272552500000E-01  6.136332200000E-01  2.506634400000E-01
   8   5     2.272552500000E-01  6.136332200000E-01  7.506634400000E-01
   9   5     3.863632200000E-01  6.136124500000E-01  2.506634300000E-01
  10   5     3.863632200000E-01  6.136124500000E-01  7.506634300000E-01
  11   5     3.863435000000E-01  7.727516500000E-01  2.492685600000E-01
  12   5     3.863435000000E-01  7.727516500000E-01  7.492685600000E-01
  13   1     9.030436200000E-01  3.089300500000E-01  2.477715600000E-01
  14   1     9.030436200000E-01  3.089300500000E-01  7.477715600000E-01
  15   1     9.663453000000E-02  6.910534400000E-01  2.473293400000E-01
  16   1     9.663453000000E-02  6.910534400000E-01  7.473293400000E-01
  17   1     9.029714200000E-01  5.940724300000E-01  2.472612800000E-01
  18   1     9.029714200000E-01  5.940724300000E-01  7.472612800000E-01
  19   1     9.673618000000E-02  4.056849400000E-01  2.472782600000E-01
  20   1     9.673618000000E-02  4.056849400000E-01  7.472782600000E-01
  21   1     6.910324000000E-01  9.700412000000E-02  2.522284600000E-01
  22   1     6.910324000000E-01  9.700412000000E-02  7.522284600000E-01
  23   1     3.089297200000E-01  9.034373100000E-01  2.526707100000E-01
  24   1     3.089297200000E-01  9.034373100000E-01  7.526707100000E-01
  25   1     4.058699900000E-01  9.704998000000E-02  2.527388100000E-01
  26   1     4.058699900000E-01  9.704998000000E-02  7.527388100000E-01
  27   1     5.943122100000E-01  9.033473200000E-01  2.527217200000E-01
  28   1     5.943122100000E-01  9.033473200000E-01  7.527217200000E-01
  29   1     6.910727400000E-01  5.940542100000E-01  2.477715900000E-01
  30   1     6.910727400000E-01  5.940542100000E-01  7.477715900000E-01
  31   1     3.089618300000E-01  4.056093300000E-01  2.473293200000E-01
  32   1     3.089618300000E-01  4.056093300000E-01  7.473293200000E-01
  33   1     4.058405700000E-01  3.088232500000E-01  2.472612300000E-01
  34   1     4.058405700000E-01  3.088232500000E-01  7.472612300000E-01
  35   1     5.942908800000E-01  6.909579300000E-01  2.472783100000E-01
  36   1     5.942908800000E-01  6.909579300000E-01  7.472783100000E-01
  37   6     8.918903100000E-01  4.459436900000E-01  2.492175200000E-01
  38   6     8.918903100000E-01  4.459436900000E-01  7.492175200000E-01
  39   6     9.464891100000E-01  3.927856300000E-01  2.478396100000E-01
  40   6     9.464891100000E-01  3.927856300000E-01  7.478396100000E-01
  41   6     5.338812000000E-02  6.071853000000E-01  2.477205800000E-01
  42   6     5.338812000000E-02  6.071853000000E-01  7.477205800000E-01
  43   6     9.464521100000E-01  5.536921900000E-01  2.480778100000E-01
  44   6     9.464521100000E-01  5.536921900000E-01  7.480778100000E-01
  45   6     5.342634000000E-02  4.462499700000E-01  2.471591800000E-01
  46   6     5.342634000000E-02  4.462499700000E-01  7.471591800000E-01
  47   6     1.080358900000E-01  5.540356300000E-01  2.480948000000E-01
  48   6     1.080358900000E-01  5.540356300000E-01  7.480948000000E-01
  49   6     5.540394200000E-01  1.081684600000E-01  2.507825200000E-01
  50   6     5.540394200000E-01  1.081684600000E-01  7.507825200000E-01
  51   6     6.071778500000E-01  5.355594000000E-02  2.521604000000E-01
  52   6     6.071778500000E-01  5.355594000000E-02  7.521604000000E-01
  53   6     3.927986700000E-01  9.466631600000E-01  2.522794700000E-01
  54   6     3.927986700000E-01  9.466631600000E-01  7.522794800000E-01
  55   6     4.462875800000E-01  5.360286000000E-02  2.519222600000E-01
  56   6     4.462875800000E-01  5.360286000000E-02  7.519222600000E-01
  57   6     5.537168500000E-01  9.466235600000E-01  2.528408200000E-01
  58   6     5.537168500000E-01  9.466235600000E-01  7.528408200000E-01
  59   6     4.459279100000E-01  8.919920600000E-01  2.519052300000E-01
  60   6     4.459279100000E-01  8.919920600000E-01  7.519052300000E-01
  61   6     5.540448700000E-01  4.458745500000E-01  2.492175200000E-01
  62   6     5.540448700000E-01  4.458745500000E-01  7.492175200000E-01
  63   6     6.072102200000E-01  5.536257800000E-01  2.478396400000E-01
  64   6     6.072102200000E-01  5.536257800000E-01  7.478396400000E-01
  65   6     3.928233700000E-01  4.461720300000E-01  2.477205500000E-01
  66   6     3.928233700000E-01  4.461720300000E-01  7.477205500000E-01
  67   6     4.462872600000E-01  3.926899900000E-01  2.480777700000E-01
  68   6     4.462872600000E-01  3.926899900000E-01  7.480777700000E-01
  69   6     5.537429600000E-01  6.070980000000E-01  2.471592200000E-01
  70   6     5.537429600000E-01  6.070980000000E-01  7.471592200000E-01
  71   6     4.459599800000E-01  5.539582300000E-01  2.480948000000E-01
  72   6     4.459599800000E-01  5.539582300000E-01  7.480948000000E-01
  73   8     5.607366800000E-01  2.803706300000E-01  2.496427900000E-01
  74   8     5.607366800000E-01  2.803706300000E-01  7.496427900000E-01
  75   8     7.196817000000E-01  2.803783300000E-01  2.525856600000E-01
  76   8     7.196817000000E-01  2.803783300000E-01  7.525856600000E-01
  77   8     7.196794200000E-01  4.393234600000E-01  2.481458500000E-01
  78   8     7.196794200000E-01  4.393234600000E-01  7.481458500000E-01
  79   8     2.803245100000E-01  7.196511100000E-01  2.496428000000E-01
  80   8     2.803245100000E-01  7.196511100000E-01  7.496428000000E-01
  81   8     2.803439700000E-01  5.606956100000E-01  2.525856600000E-01
  82   8     2.803439700000E-01  5.606956100000E-01  7.525856600000E-01
  83   8     4.392638400000E-01  7.196354200000E-01  2.481458400000E-01
  84   8     4.392638400000E-01  7.196354200000E-01  7.481458400000E-01

 *******************************************************************************

 << INFORMATION >>: FROM NOW ON, ALL COORDINATES REFER TO THE PRIMITIVE CELL

 *******************************************************************************

 LATTICE PARAMETERS  (ANGSTROMS AND DEGREES) - PRIMITIVE CELL
       A          B          C        ALPHA      BETA     GAMMA        VOLUME
   15.02361   15.02392    7.20000    90.00032  89.99994 119.99596   1407.467146

 COORDINATES OF THE EQUIVALENT ATOMS (FRACTIONAL UNITS)

 N. ATOM EQUIV AT. N.          X                  Y                  Z

   1   1   1    5 B    -3.86319460000E-01  2.27318220000E-01  2.50663430000E-01

   2   2   1    5 B    -3.86319460000E-01  2.27318220000E-01 -2.49336570000E-01

   3   3   1    5 B    -2.27263800000E-01  3.86377880000E-01  2.50663440000E-01

   4   4   1    5 B    -2.27263800000E-01  3.86377880000E-01 -2.49336550000E-01

   5   5   1    5 B    -3.86323730000E-01  3.86360670000E-01  2.49268560000E-01

   6   6   1    5 B    -3.86323730000E-01  3.86360670000E-01 -2.50731440000E-01

   7   7   1    5 B     2.27255250000E-01 -3.86366780000E-01  2.50663440000E-01

   8   8   1    5 B     2.27255250000E-01 -3.86366780000E-01 -2.49336560000E-01

   9   9   1    5 B     3.86363220000E-01 -3.86387550000E-01  2.50663430000E-01

  10  10   1    5 B     3.86363220000E-01 -3.86387550000E-01 -2.49336570000E-01

  11  11   1    5 B     3.86343500000E-01 -2.27248350000E-01  2.49268560000E-01

  12  12   1    5 B     3.86343500000E-01 -2.27248350000E-01 -2.50731440000E-01

  13  13   1    1 H    -9.69563800000E-02  3.08930050000E-01  2.47771560000E-01

  14  14   1    1 H    -9.69563800000E-02  3.08930050000E-01 -2.52228440000E-01

  15  15   1    1 H     9.66345300000E-02 -3.08946560000E-01  2.47329340000E-01

  16  16   1    1 H     9.66345300000E-02 -3.08946560000E-01 -2.52670660000E-01

  17  17   1    1 H    -9.70285800000E-02 -4.05927570000E-01  2.47261280000E-01

  18  18   1    1 H    -9.70285800000E-02 -4.05927570000E-01 -2.52738720000E-01

  19  19   1    1 H     9.67361800000E-02  4.05684940000E-01  2.47278260000E-01

  20  20   1    1 H     9.67361800000E-02  4.05684940000E-01 -2.52721740000E-01

  21  21   1    1 H    -3.08967600000E-01  9.70041200000E-02  2.52228460000E-01

  22  22   1    1 H    -3.08967600000E-01  9.70041200000E-02 -2.47771540000E-01

  23  23   1    1 H     3.08929720000E-01 -9.65626900000E-02  2.52670710000E-01

  24  24   1    1 H     3.08929720000E-01 -9.65626900000E-02 -2.47329290000E-01

  25  25   1    1 H     4.05869990000E-01  9.70499800000E-02  2.52738810000E-01

  26  26   1    1 H     4.05869990000E-01  9.70499800000E-02 -2.47261190000E-01

  27  27   1    1 H    -4.05687790000E-01 -9.66526800000E-02  2.52721720000E-01

  28  28   1    1 H    -4.05687790000E-01 -9.66526800000E-02 -2.47278280000E-01

  29  29   1    1 H    -3.08927260000E-01 -4.05945790000E-01  2.47771590000E-01

  30  30   1    1 H    -3.08927260000E-01 -4.05945790000E-01 -2.52228410000E-01

  31  31   1    1 H     3.08961830000E-01  4.05609330000E-01  2.47329320000E-01

  32  32   1    1 H     3.08961830000E-01  4.05609330000E-01 -2.52670680000E-01

  33  33   1    1 H     4.05840570000E-01  3.08823250000E-01  2.47261230000E-01

  34  34   1    1 H     4.05840570000E-01  3.08823250000E-01 -2.52738770000E-01

  35  35   1    1 H    -4.05709120000E-01 -3.09042070000E-01  2.47278310000E-01

  36  36   1    1 H    -4.05709120000E-01 -3.09042070000E-01 -2.52721690000E-01

  37  37   1    6 C    -1.08109690000E-01  4.45943690000E-01  2.49217520000E-01

  38  38   1    6 C    -1.08109690000E-01  4.45943690000E-01 -2.50782480000E-01

  39  39   1    6 C    -5.35108900000E-02  3.92785630000E-01  2.47839610000E-01

  40  40   1    6 C    -5.35108900000E-02  3.92785630000E-01 -2.52160390000E-01

  41  41   1    6 C     5.33881200000E-02 -3.92814700000E-01  2.47720580000E-01

  42  42   1    6 C     5.33881200000E-02 -3.92814700000E-01 -2.52279420000E-01

  43  43   1    6 C    -5.35478900000E-02 -4.46307810000E-01  2.48077810000E-01

  44  44   1    6 C    -5.35478900000E-02 -4.46307810000E-01 -2.51922190000E-01

  45  45   1    6 C     5.34263400000E-02  4.46249970000E-01  2.47159180000E-01

  46  46   1    6 C     5.34263400000E-02  4.46249970000E-01 -2.52840820000E-01

  47  47   1    6 C     1.08035890000E-01 -4.45964370000E-01  2.48094800000E-01

  48  48   1    6 C     1.08035890000E-01 -4.45964370000E-01 -2.51905200000E-01

  49  49   1    6 C    -4.45960580000E-01  1.08168460000E-01  2.50782520000E-01

  50  50   1    6 C    -4.45960580000E-01  1.08168460000E-01 -2.49217480000E-01

  51  51   1    6 C    -3.92822150000E-01  5.35559400000E-02  2.52160400000E-01

  52  52   1    6 C    -3.92822150000E-01  5.35559400000E-02 -2.47839600000E-01

  53  53   1    6 C     3.92798670000E-01 -5.33368400000E-02  2.52279470000E-01

  54  54   1    6 C     3.92798670000E-01 -5.33368400000E-02 -2.47720520000E-01

  55  55   1    6 C     4.46287580000E-01  5.36028600000E-02  2.51922260000E-01

  56  56   1    6 C     4.46287580000E-01  5.36028600000E-02 -2.48077740000E-01

  57  57   1    6 C    -4.46283150000E-01 -5.33764400000E-02  2.52840820000E-01

  58  58   1    6 C    -4.46283150000E-01 -5.33764400000E-02 -2.47159180000E-01

  59  59   1    6 C     4.45927910000E-01 -1.08007940000E-01  2.51905230000E-01

  60  60   1    6 C     4.45927910000E-01 -1.08007940000E-01 -2.48094770000E-01

  61  61   1    6 C    -4.45955130000E-01  4.45874550000E-01  2.49217520000E-01

  62  62   1    6 C    -4.45955130000E-01  4.45874550000E-01 -2.50782480000E-01

  63  63   1    6 C    -3.92789780000E-01 -4.46374220000E-01  2.47839640000E-01

  64  64   1    6 C    -3.92789780000E-01 -4.46374220000E-01 -2.52160360000E-01

  65  65   1    6 C     3.92823370000E-01  4.46172030000E-01  2.47720550000E-01

  66  66   1    6 C     3.92823370000E-01  4.46172030000E-01 -2.52279450000E-01

  67  67   1    6 C     4.46287260000E-01  3.92689990000E-01  2.48077770000E-01

  68  68   1    6 C     4.46287260000E-01  3.92689990000E-01 -2.51922230000E-01

  69  69   1    6 C    -4.46257040000E-01 -3.92902000000E-01  2.47159220000E-01

  70  70   1    6 C    -4.46257040000E-01 -3.92902000000E-01 -2.52840780000E-01

  71  71   1    6 C     4.45959980000E-01 -4.46041770000E-01  2.48094800000E-01

  72  72   1    6 C     4.45959980000E-01 -4.46041770000E-01 -2.51905200000E-01

  73  73   1    8 O    -4.39263320000E-01  2.80370630000E-01  2.49642790000E-01

  74  74   1    8 O    -4.39263320000E-01  2.80370630000E-01 -2.50357210000E-01

  75  75   1    8 O    -2.80318300000E-01  2.80378330000E-01  2.52585660000E-01

  76  76   1    8 O    -2.80318300000E-01  2.80378330000E-01 -2.47414340000E-01

  77  77   1    8 O    -2.80320580000E-01  4.39323460000E-01  2.48145850000E-01

  78  78   1    8 O    -2.80320580000E-01  4.39323460000E-01 -2.51854150000E-01

  79  79   1    8 O     2.80324510000E-01 -2.80348890000E-01  2.49642800000E-01

  80  80   1    8 O     2.80324510000E-01 -2.80348890000E-01 -2.50357200000E-01

  81  81   1    8 O     2.80343970000E-01 -4.39304390000E-01  2.52585660000E-01

  82  82   1    8 O     2.80343970000E-01 -4.39304390000E-01 -2.47414340000E-01

  83  83   1    8 O     4.39263840000E-01 -2.80364580000E-01  2.48145840000E-01

  84  84   1    8 O     4.39263840000E-01 -2.80364580000E-01 -2.51854160000E-01

 NUMBER OF SYMMETRY OPERATORS         :    1
 *******************************************************************************
 * GEOMETRY EDITING - INPUT COORDINATES ARE GIVEN IN ANGSTROM         
 *******************************************************************************

 GCALCO - MAX INDICES DIRECT LATTICE VECTOR    12    12    21
 NO.OF VECTORS CREATED 6999 STARS 3500 RMAX   251.34433 BOHR

 GEOMETRY FOR WAVE FUNCTION - DIMENSIONALITY OF THE SYSTEM    3
 (NON PERIODIC DIRECTION: LATTICE PARAMETER FORMALLY SET TO 500)
 *******************************************************************************
 LATTICE PARAMETERS (ANGSTROMS AND DEGREES) - BOHR = 0.5291772083 ANGSTROM
 PRIMITIVE CELL - CENTRING CODE 1/0 VOLUME=  1407.467146 - DENSITY  0.921 g/cm^3
         A              B              C           ALPHA      BETA       GAMMA 
    15.02361100    15.02391600     7.20000000    90.000323  89.999944 119.995964
 *******************************************************************************
 ATOMS IN THE ASYMMETRIC UNIT   84 - ATOMS IN THE UNIT CELL:   84
     ATOM                 X/A                 Y/B                 Z/C    
 *******************************************************************************
      1 T   5 B    -3.863194600000E-01  2.273182200000E-01  2.506634300000E-01
      2 T   5 B    -3.863194600000E-01  2.273182200000E-01 -2.493365700000E-01
      3 T   5 B    -2.272638000000E-01  3.863778800000E-01  2.506634400000E-01
      4 T   5 B    -2.272638000000E-01  3.863778800000E-01 -2.493365500000E-01
      5 T   5 B    -3.863237300000E-01  3.863606700000E-01  2.492685600000E-01
      6 T   5 B    -3.863237300000E-01  3.863606700000E-01 -2.507314400000E-01
      7 T   5 B     2.272552500000E-01 -3.863667800000E-01  2.506634400000E-01
      8 T   5 B     2.272552500000E-01 -3.863667800000E-01 -2.493365600000E-01
      9 T   5 B     3.863632200000E-01 -3.863875500000E-01  2.506634300000E-01
     10 T   5 B     3.863632200000E-01 -3.863875500000E-01 -2.493365700000E-01
     11 T   5 B     3.863435000000E-01 -2.272483500000E-01  2.492685600000E-01
     12 T   5 B     3.863435000000E-01 -2.272483500000E-01 -2.507314400000E-01
     13 T   1 H    -9.695638000000E-02  3.089300500000E-01  2.477715600000E-01
     14 T   1 H    -9.695638000000E-02  3.089300500000E-01 -2.522284400000E-01
     15 T   1 H     9.663453000000E-02 -3.089465600000E-01  2.473293400000E-01
     16 T   1 H     9.663453000000E-02 -3.089465600000E-01 -2.526706600000E-01
     17 T   1 H    -9.702858000000E-02 -4.059275700000E-01  2.472612800000E-01
     18 T   1 H    -9.702858000000E-02 -4.059275700000E-01 -2.527387200000E-01
     19 T   1 H     9.673618000000E-02  4.056849400000E-01  2.472782600000E-01
     20 T   1 H     9.673618000000E-02  4.056849400000E-01 -2.527217400000E-01
     21 T   1 H    -3.089676000000E-01  9.700412000000E-02  2.522284600000E-01
     22 T   1 H    -3.089676000000E-01  9.700412000000E-02 -2.477715400000E-01
     23 T   1 H     3.089297200000E-01 -9.656269000000E-02  2.526707100000E-01
     24 T   1 H     3.089297200000E-01 -9.656269000000E-02 -2.473292900000E-01
     25 T   1 H     4.058699900000E-01  9.704998000000E-02  2.527388100000E-01
     26 T   1 H     4.058699900000E-01  9.704998000000E-02 -2.472611900000E-01
     27 T   1 H    -4.056877900000E-01 -9.665268000000E-02  2.527217200000E-01
     28 T   1 H    -4.056877900000E-01 -9.665268000000E-02 -2.472782800000E-01
     29 T   1 H    -3.089272600000E-01 -4.059457900000E-01  2.477715900000E-01
     30 T   1 H    -3.089272600000E-01 -4.059457900000E-01 -2.522284100000E-01
     31 T   1 H     3.089618300000E-01  4.056093300000E-01  2.473293200000E-01
     32 T   1 H     3.089618300000E-01  4.056093300000E-01 -2.526706800000E-01
     33 T   1 H     4.058405700000E-01  3.088232500000E-01  2.472612300000E-01
     34 T   1 H     4.058405700000E-01  3.088232500000E-01 -2.527387700000E-01
     35 T   1 H    -4.057091200000E-01 -3.090420700000E-01  2.472783100000E-01
     36 T   1 H    -4.057091200000E-01 -3.090420700000E-01 -2.527216900000E-01
     37 T   6 C    -1.081096900000E-01  4.459436900000E-01  2.492175200000E-01
     38 T   6 C    -1.081096900000E-01  4.459436900000E-01 -2.507824800000E-01
     39 T   6 C    -5.351089000000E-02  3.927856300000E-01  2.478396100000E-01
     40 T   6 C    -5.351089000000E-02  3.927856300000E-01 -2.521603900000E-01
     41 T   6 C     5.338812000000E-02 -3.928147000000E-01  2.477205800000E-01
     42 T   6 C     5.338812000000E-02 -3.928147000000E-01 -2.522794200000E-01
     43 T   6 C    -5.354789000000E-02 -4.463078100000E-01  2.480778100000E-01
     44 T   6 C    -5.354789000000E-02 -4.463078100000E-01 -2.519221900000E-01
     45 T   6 C     5.342634000000E-02  4.462499700000E-01  2.471591800000E-01
     46 T   6 C     5.342634000000E-02  4.462499700000E-01 -2.528408200000E-01
     47 T   6 C     1.080358900000E-01 -4.459643700000E-01  2.480948000000E-01
     48 T   6 C     1.080358900000E-01 -4.459643700000E-01 -2.519052000000E-01
     49 T   6 C    -4.459605800000E-01  1.081684600000E-01  2.507825200000E-01
     50 T   6 C    -4.459605800000E-01  1.081684600000E-01 -2.492174800000E-01
     51 T   6 C    -3.928221500000E-01  5.355594000000E-02  2.521604000000E-01
     52 T   6 C    -3.928221500000E-01  5.355594000000E-02 -2.478396000000E-01
     53 T   6 C     3.927986700000E-01 -5.333684000000E-02  2.522794700000E-01
     54 T   6 C     3.927986700000E-01 -5.333684000000E-02 -2.477205200000E-01
     55 T   6 C     4.462875800000E-01  5.360286000000E-02  2.519222600000E-01
     56 T   6 C     4.462875800000E-01  5.360286000000E-02 -2.480777400000E-01
     57 T   6 C    -4.462831500000E-01 -5.337644000000E-02  2.528408200000E-01
     58 T   6 C    -4.462831500000E-01 -5.337644000000E-02 -2.471591800000E-01
     59 T   6 C     4.459279100000E-01 -1.080079400000E-01  2.519052300000E-01
     60 T   6 C     4.459279100000E-01 -1.080079400000E-01 -2.480947700000E-01
     61 T   6 C    -4.459551300000E-01  4.458745500000E-01  2.492175200000E-01
     62 T   6 C    -4.459551300000E-01  4.458745500000E-01 -2.507824800000E-01
     63 T   6 C    -3.927897800000E-01 -4.463742200000E-01  2.478396400000E-01
     64 T   6 C    -3.927897800000E-01 -4.463742200000E-01 -2.521603600000E-01
     65 T   6 C     3.928233700000E-01  4.461720300000E-01  2.477205500000E-01
     66 T   6 C     3.928233700000E-01  4.461720300000E-01 -2.522794500000E-01
     67 T   6 C     4.462872600000E-01  3.926899900000E-01  2.480777700000E-01
     68 T   6 C     4.462872600000E-01  3.926899900000E-01 -2.519222300000E-01
     69 T   6 C    -4.462570400000E-01 -3.929020000000E-01  2.471592200000E-01
     70 T   6 C    -4.462570400000E-01 -3.929020000000E-01 -2.528407800000E-01
     71 T   6 C     4.459599800000E-01 -4.460417700000E-01  2.480948000000E-01
     72 T   6 C     4.459599800000E-01 -4.460417700000E-01 -2.519052000000E-01
     73 T   8 O    -4.392633200000E-01  2.803706300000E-01  2.496427900000E-01
     74 T   8 O    -4.392633200000E-01  2.803706300000E-01 -2.503572100000E-01
     75 T   8 O    -2.803183000000E-01  2.803783300000E-01  2.525856600000E-01
     76 T   8 O    -2.803183000000E-01  2.803783300000E-01 -2.474143400000E-01
     77 T   8 O    -2.803205800000E-01  4.393234600000E-01  2.481458500000E-01
     78 T   8 O    -2.803205800000E-01  4.393234600000E-01 -2.518541500000E-01
     79 T   8 O     2.803245100000E-01 -2.803488900000E-01  2.496428000000E-01
     80 T   8 O     2.803245100000E-01 -2.803488900000E-01 -2.503572000000E-01
     81 T   8 O     2.803439700000E-01 -4.393043900000E-01  2.525856600000E-01
     82 T   8 O     2.803439700000E-01 -4.393043900000E-01 -2.474143400000E-01
     83 T   8 O     4.392638400000E-01 -2.803645800000E-01  2.481458400000E-01
     84 T   8 O     4.392638400000E-01 -2.803645800000E-01 -2.518541600000E-01

 T = ATOM BELONGING TO THE ASYMMETRIC UNIT

 ****    1 SYMMOPS - TRANSLATORS IN FRACTIONAL UNITS
 **** MATRICES AND TRANSLATORS IN THE CRYSTALLOGRAPHIC REFERENCE FRAME
   V INV                    ROTATION MATRICES                   TRANSLATORS
   1   1  1.00 -0.00  0.00  0.00  1.00  0.00  0.00  0.00  1.00  0.00  0.00  0.00

 DIRECT LATTICE VECTORS CARTESIAN COMPONENTS (ANGSTROM)
          X                    Y                    Z
   0.130113578931E+02  -0.751088897922E+01   0.000000000000E+00
   0.000000000000E+00   0.150239160000E+02   0.000000000000E+00
  -0.153049849927E-04  -0.405893770827E-04   0.719999999987E+01


 CARTESIAN COORDINATES - PRIMITIVE CELL
 *******************************************************************************
 *      ATOM          X(ANGSTROM)         Y(ANGSTROM)         Z(ANGSTROM)
 *******************************************************************************
    1     5 B    -5.026544591512E+00  6.316802242848E+00  1.804776695967E+00
    2     5 B    -5.026536939020E+00  6.316822537536E+00 -1.795223303967E+00
    3     5 B    -2.957014474336E+00  7.511851809900E+00  1.804776767967E+00
    4     5 B    -2.957006821844E+00  7.511872104588E+00 -1.795223159967E+00
    5     5 B    -5.026600128662E+00 -6.317641219805E+00  1.794733631967E+00
    6     5 B    -5.026592476170E+00 -6.317620925117E+00 -1.805266367967E+00
    7     5 B     2.956895554426E+00 -7.511641174877E+00  1.804776767967E+00
    8     5 B     2.956903206918E+00 -7.511620880189E+00 -1.795223231967E+00
    9     5 B     5.027106295734E+00  6.316920480009E+00  1.804776695967E+00
   10     5 B     5.027113948226E+00  6.316940774698E+00 -1.795223303967E+00
   11     5 B     5.026849733105E+00 -6.315953375536E+00  1.794733631967E+00
   12     5 B     5.026857385597E+00 -6.315933080848E+00 -1.805266367967E+00
   13     1 H    -1.261537952335E+00  5.369557670189E+00  1.783955231968E+00
   14     1 H    -1.261530299843E+00  5.369577964878E+00 -1.816044767967E+00
   15     1 H     1.257342669285E+00 -5.367408431262E+00  1.780771247968E+00
   16     1 H     1.257350321778E+00 -5.367388136573E+00 -1.819228751967E+00
   17     1 H    -1.262477364565E+00 -5.369860857754E+00  1.780281215968E+00
   18     1 H    -1.262469712073E+00 -5.369840563066E+00 -1.819718783967E+00
   19     1 H     1.258665274597E+00  5.368391715901E+00  1.780403471968E+00
   20     1 H     1.258672927090E+00  5.368412010590E+00 -1.819596527967E+00
   21     1 H    -4.020091881312E+00  3.777992854513E+00  1.816044911967E+00
   22     1 H    -4.020084228819E+00  3.778013149201E+00 -1.783955087968E+00
   23     1 H     4.019591283600E+00 -3.771096828341E+00  1.819229111967E+00
   24     1 H     4.019598936093E+00 -3.771076533653E+00 -1.780770887968E+00
   25     1 H     5.280915829778E+00 -1.590383946075E+00  1.819719431967E+00
   26     1 H     5.280923482270E+00 -1.590363651386E+00 -1.780280567968E+00
   27     1 H    -5.278552896435E+00  1.594963947602E+00  1.819596383967E+00
   28     1 H    -5.278545243943E+00  1.594984242290E+00 -1.780403615968E+00
   29     1 H    -4.019566934922E+00 -3.778587153895E+00  1.783955447968E+00
   30     1 H    -4.019559282429E+00 -3.778566859206E+00 -1.816044551967E+00
   31     1 H     4.020009160052E+00  3.773252459848E+00  1.780771103968E+00
   32     1 H     4.020016812545E+00  3.773272754536E+00 -1.819228895967E+00
   33     1 H     5.280533119463E+00  1.591501066136E+00  1.780280855968E+00
   34     1 H     5.280540771955E+00  1.591521360824E+00 -1.819719143967E+00
   35     1 H    -5.278830345388E+00 -1.595795978843E+00  1.780403831968E+00
   36     1 H    -5.278822692895E+00 -1.595775684155E+00 -1.819596167967E+00
   37     6 C    -1.406657682568E+00  7.511810302874E+00  1.794366143967E+00
   38     6 C    -1.406650030075E+00  7.511830597562E+00 -1.805633855967E+00
   39     6 C    -6.962531341475E-01  6.303082605441E+00  1.784445191968E+00
   40     6 C    -6.962454816550E-01  6.303102900129E+00 -1.815554807967E+00
   41     6 C     6.946481451977E-01 -6.302617353318E+00  1.783588175968E+00
   42     6 C     6.946557976902E-01 -6.302597058630E+00 -1.816411823967E+00
   43     6 C    -6.967345580352E-01 -6.303108860046E+00  1.786160231968E+00
   44     6 C    -6.967269055427E-01 -6.303088565358E+00 -1.813839767967E+00
   45     6 C     6.951454478886E-01  6.303132723939E+00  1.779546095968E+00
   46     6 C     6.951531003811E-01  6.303153018628E+00 -1.820453903967E+00
   47     6 C     1.405689832998E+00 -7.511586879447E+00  1.786282559968E+00
   48     6 C     1.405697485490E+00 -7.511566584759E+00 -1.813717439967E+00
   49     6 C     7.208801342259E+00 -2.536224895946E+00  1.805634143967E+00
   50     6 C     7.208808994751E+00 -2.536204601258E+00 -1.794365855967E+00
   51     6 C    -5.111153441281E+00  3.755053266055E+00  1.815554879967E+00
   52     6 C    -5.111145788789E+00  3.755073560743E+00 -1.784445119968E+00
   53     6 C     5.110840214153E+00 -3.751605645286E+00  1.816412183967E+00
   54     6 C     5.110847866645E+00 -3.751585350598E+00 -1.783587743968E+00
   55     6 C     5.806803570940E+00 -2.546701825551E+00  1.813840271967E+00
   56     6 C     5.806811223432E+00 -2.546681530862E+00 -1.786159727968E+00
   57     6 C    -5.806753656016E+00  2.550049779355E+00  1.820453903967E+00
   58     6 C    -5.806746003523E+00  2.550070074043E+00 -1.779546095968E+00
   59     6 C     5.802123776107E+00 -4.972027467313E+00  1.813717655967E+00
   60     6 C     5.802131428599E+00 -4.972007172625E+00 -1.786282343968E+00
   61     6 C     7.208872278112E+00  2.537402162079E+00  1.794366143967E+00
   62     6 C     7.208879930604E+00  2.537422456768E+00 -1.805633855967E+00
   63     6 C    -5.110732197497E+00 -3.756098415751E+00  1.784445407968E+00
   64     6 C    -5.110724545004E+00 -3.756078121063E+00 -1.815554591967E+00
   65     6 C     5.111161664467E+00  3.752788324935E+00  1.783587959968E+00
   66     6 C     5.111169316960E+00  3.752808619624E+00 -1.816412039967E+00
   67     6 C     5.806799466145E+00  2.547717291780E+00  1.786159943968E+00
   68     6 C     5.806807118638E+00  2.547737586469E+00 -1.813840055967E+00
   69     6 C    -5.806413842504E+00 -2.551149592637E+00  1.779546383968E+00
   70     6 C    -5.806406190012E+00 -2.551129297948E+00 -1.820453615967E+00
   71     6 C     5.802541108673E+00  4.973055946062E+00  1.786282559968E+00
   72     6 C     5.802548761166E+00  4.973076240750E+00 -1.813717439967E+00
   73     8 O     7.295941806465E+00  6.237110873148E-04  1.797428087967E+00
   74     8 O     7.295949458958E+00  6.440057758570E-04 -1.802571911967E+00
   75     8 O    -3.647325591093E+00  6.317809855988E+00  1.818616751967E+00
   76     8 O    -3.647317938600E+00  6.317830150677E+00 -1.781383247968E+00
   77     8 O    -3.647355189038E+00 -6.318110557247E+00  1.786650119968E+00
   78     8 O    -3.647347536545E+00 -6.318090262558E+00 -1.813349879967E+00
   79     8 O     3.647398705026E+00 -6.317434579662E+00  1.797428159967E+00
   80     8 O     3.647406357519E+00 -6.317414284974E+00 -1.802571839967E+00
   81     8 O     3.647651861011E+00  6.318201059251E+00  1.818616751967E+00
   82     8 O     3.647659513503E+00  6.318221353940E+00 -1.781383247968E+00
   83     8 O    -7.295942659207E+00 -5.569269881935E-04  1.786650047968E+00
   84     8 O    -7.295935006714E+00 -5.366322996529E-04 -1.813349951967E+00

 *******************************************************************************
 STARTING BASIS SET HANDLING 
 *******************************************************************************

 Loading internal basis set: SOLDEF2MSVP         

 Please cite in your publication:
 L. Dona', J. G. Brandenburg and B. Civalleri, J. Chem. Phys., 151, 121101 (2019
 )                                                                              
                                                                                
                    

 *******************************************************************************
 LOCAL ATOMIC FUNCTIONS BASIS SET
 *******************************************************************************
   ATOM   X(AU)   Y(AU)   Z(AU)  N. TYPE  EXPONENT  S COEF   P COEF   D/F/G COEF
 *******************************************************************************
   1 B   -9.499  11.937   3.411
                                  1 S  
                                         2.410E+03 1.755E-03 0.000E+00 0.000E+00
                                         3.619E+02 1.344E-02 0.000E+00 0.000E+00
                                         8.231E+01 6.637E-02 0.000E+00 0.000E+00
                                         2.311E+01 2.303E-01 0.000E+00 0.000E+00
                                         7.252E+00 5.150E-01 0.000E+00 0.000E+00
                                  2 S  
                                         2.367E+00 1.000E+00 0.000E+00 0.000E+00
                                  3 S  
                                         5.533E-01 1.000E+00 0.000E+00 0.000E+00
                                  4 S  
                                         1.716E-01 1.000E+00 0.000E+00 0.000E+00
                           5-     7 P  
                                         6.002E+00 0.000E+00-3.555E-02 0.000E+00
                                         1.240E+00 0.000E+00-1.983E-01 0.000E+00
                                         3.367E-01 0.000E+00-5.048E-01 0.000E+00
                           8-    10 P  
                                         1.256E-01 0.000E+00 1.000E+00 0.000E+00
                          11-    15 D  
                                         8.880E-01 0.000E+00 0.000E+00 1.000E+00
   2 B   -9.499  11.937  -3.392
   3 B   -5.588  14.195   3.411
   4 B   -5.588  14.195  -3.392
   5 B   -9.499 -11.939   3.392
   6 B   -9.499 -11.939  -3.411
   7 B    5.588 -14.195   3.411
   8 B    5.588 -14.195  -3.392
   9 B    9.500  11.937   3.411
  10 B    9.500  11.937  -3.392
  11 B    9.499 -11.935   3.392
  12 B    9.499 -11.935  -3.411
  13 H   -2.384  10.147   3.371
                                181 S  
                                         1.874E+01 1.968E-02 0.000E+00 0.000E+00
                                         2.826E+00 1.380E-01 0.000E+00 0.000E+00
                                         6.401E-01 4.783E-01 0.000E+00 0.000E+00
                                182 S  
                                         1.756E-01 1.000E+00 0.000E+00 0.000E+00
  14 H   -2.384  10.147  -3.432
  15 H    2.376 -10.143   3.365
  16 H    2.376 -10.143  -3.438
  17 H   -2.386 -10.148   3.364
  18 H   -2.386 -10.148  -3.439
  19 H    2.379  10.145   3.364
  20 H    2.379  10.145  -3.439
  21 H   -7.597   7.139   3.432
  22 H   -7.597   7.139  -3.371
  23 H    7.596  -7.126   3.438
  24 H    7.596  -7.126  -3.365
  25 H    9.979  -3.005   3.439
  26 H    9.979  -3.005  -3.364
  27 H   -9.975   3.014   3.439
  28 H   -9.975   3.014  -3.364
  29 H   -7.596  -7.140   3.371
  30 H   -7.596  -7.140  -3.432
  31 H    7.597   7.130   3.365
  32 H    7.597   7.130  -3.438
  33 H    9.979   3.008   3.364
  34 H    9.979   3.008  -3.439
  35 H   -9.976  -3.016   3.364
  36 H   -9.976  -3.016  -3.439
  37 C   -2.658  14.195   3.391
                                229 S  
                                         3.624E+03 1.634E-03 0.000E+00 0.000E+00
                                         5.440E+02 1.252E-02 0.000E+00 0.000E+00
                                         1.237E+02 6.211E-02 0.000E+00 0.000E+00
                                         3.476E+01 2.182E-01 0.000E+00 0.000E+00
                                         1.093E+01 4.980E-01 0.000E+00 0.000E+00
                                230 S  
                                         3.574E+00 1.000E+00 0.000E+00 0.000E+00
                                231 S  
                                         7.742E-01 1.000E+00 0.000E+00 0.000E+00
                                232 S  
                                         2.330E-01 1.000E+00 0.000E+00 0.000E+00
                         233-   235 P  
                                         9.443E+00 0.000E+00 3.790E-02 0.000E+00
                                         2.002E+00 0.000E+00 2.082E-01 0.000E+00
                                         5.463E-01 0.000E+00 5.047E-01 0.000E+00
                         236-   238 P  
                                         1.820E-01 0.000E+00 1.000E+00 0.000E+00
                         239-   243 D  
                                         8.880E-01 0.000E+00 0.000E+00 1.000E+00
  38 C   -2.658  14.195  -3.412
  39 C   -1.316  11.911   3.372
  40 C   -1.316  11.911  -3.431
  41 C    1.313 -11.910   3.370
  42 C    1.313 -11.910  -3.433
  43 C   -1.317 -11.911   3.375
  44 C   -1.317 -11.911  -3.428
  45 C    1.314  11.911   3.363
  46 C    1.314  11.911  -3.440
  47 C    2.656 -14.195   3.376
  48 C    2.656 -14.195  -3.427
  49 C   13.623  -4.793   3.412
  50 C   13.623  -4.793  -3.391
  51 C   -9.659   7.096   3.431
  52 C   -9.659   7.096  -3.372
  53 C    9.658  -7.090   3.433
  54 C    9.658  -7.089  -3.370
  55 C   10.973  -4.813   3.428
  56 C   10.973  -4.813  -3.375
  57 C  -10.973   4.819   3.440
  58 C  -10.973   4.819  -3.363
  59 C   10.964  -9.396   3.427
  60 C   10.964  -9.396  -3.376
  61 C   13.623   4.795   3.391
  62 C   13.623   4.795  -3.412
  63 C   -9.658  -7.098   3.372
  64 C   -9.658  -7.098  -3.431
  65 C    9.659   7.092   3.370
  66 C    9.659   7.092  -3.433
  67 C   10.973   4.814   3.375
  68 C   10.973   4.815  -3.428
  69 C  -10.973  -4.821   3.363
  70 C  -10.973  -4.821  -3.440
  71 C   10.965   9.398   3.376
  72 C   10.965   9.398  -3.427
  73 O   13.787   0.001   3.397
                                769 S  
                                         6.773E+03 1.727E-03 0.000E+00 0.000E+00
                                         1.017E+03 1.325E-02 0.000E+00 0.000E+00
                                         2.313E+02 6.603E-02 0.000E+00 0.000E+00
                                         6.501E+01 2.353E-01 0.000E+00 0.000E+00
                                         2.050E+01 5.498E-01 0.000E+00 0.000E+00
                                770 S  
                                         6.716E+00 1.000E+00 0.000E+00 0.000E+00
                                771 S  
                                         1.147E+00 1.000E+00 0.000E+00 0.000E+00
                                772 S  
                                         3.342E-01 1.000E+00 0.000E+00 0.000E+00
                         773-   775 P  
                                         1.769E+01 0.000E+00 4.359E-02 0.000E+00
                                         3.854E+00 0.000E+00 2.318E-01 0.000E+00
                                         1.047E+00 0.000E+00 5.146E-01 0.000E+00
                         776-   778 P  
                                         2.759E-01 0.000E+00 1.000E+00 0.000E+00
                         779-   783 D  
                                         8.000E-01 0.000E+00 0.000E+00 1.000E+00
  74 O   13.787   0.001  -3.406
  75 O   -6.892  11.939   3.437
  76 O   -6.892  11.939  -3.366
  77 O   -6.893 -11.939   3.376
  78 O   -6.892 -11.939  -3.427
  79 O    6.893 -11.938   3.397
  80 O    6.893 -11.938  -3.406
  81 O    6.893  11.940   3.437
  82 O    6.893  11.940  -3.366
  83 O  -13.787  -0.001   3.376
  84 O  -13.787  -0.001  -3.427

 *******************************************************************************
 FINISHED BASIS SET HANDLING 
 *******************************************************************************

 INFORMATION **** SET_MPP **** PCRYSTAL CALCULATION
 INFORMATION **** READM2 **** NEW DEFAULT: FOCK/KS MATRIX MIXING SET TO 30 %
 INFORMATION **** READM2 **** NEW DEFAULT: FULL DIRECT SCF MODE
 INFORMATION **** READM2 **** NEW DEFAULT: COULOMB BIPOLAR BUFFER SET TO 32 Mb
 INFORMATION **** READM2 **** NEW DEFAULT: EXCHANGE BIPOLAR BUFFER SET TO 32 Mb

 *******************************************************************************
 NEW DEFAULT: DFT INTEGRATION GRID INCREASED TO XLGRID
 NEW DEFAULT: DIIS ACCELERATOR ACTIVE
 USE KEYWORD NODIIS TO TURN IT OFF
 *******************************************************************************

 WARNING **** RDDFTP **** HSEsol-HJS ACTIVE
 RANGE SEPARATION - OMEGA:   0.110000000000000     
 WARNING **** RDDFTP **** HSEsol-3c has to be combined with sol-def2-mSVP basis set
 *******************************************************************************
 N. OF ATOMS PER CELL        84  COULOMB OVERLAP TOL         (T1) 10**   -6
 NUMBER OF SHELLS           468  COULOMB PENETRATION TOL     (T2) 10**   -6
 NUMBER OF AO               948  EXCHANGE OVERLAP TOL        (T3) 10**   -6
 N. OF ELECTRONS PER CELL   396  EXCHANGE PSEUDO OVP (F(G))  (T4) 10**   -6
 CORE ELECTRONS PER CELL    120  EXCHANGE PSEUDO OVP (P(G))  (T5) 10**  -12
 N. OF SYMMETRY OPERATORS     1  POLE ORDER IN MONO ZONE                  4
 *******************************************************************************
 TYPE OF CALCULATION :  RESTRICTED CLOSED SHELL
 KOHN-SHAM HAMILTONIAN

 (EXCHANGE)[CORRELATION] FUNCTIONAL:(HSEsol GGA)[PBEsol]

 RANGE-SEPARATED HYBRID FUNCTIONAL 
 OMEGA (SHORT-RANGE)[LONG-RANGE]:(    0.1100)[    0.0000]

 HYBRID EXCHANGE - PERCENTAGE OF FOCK EXCHANGE    25.0000

 CAPPA:IS1  2;IS2  2;IS3  8; K PTS MONK NET  20; SYMMOPS:K SPACE   2;G SPACE   1

 *******************************************************************************
 MAX NUMBER OF SCF CYCLES      50  CONVERGENCE ON DELTAP        10**-16
 WEIGHT OF F(I) IN F(I+1)      30% CONVERGENCE ON ENERGY        10**- 6
 SHRINK. FACT.(MONKH.)    2  2  8  NUMBER OF K POINTS IN THE IBZ     20
 SHRINKING FACTOR(GILAT NET)    8  NUMBER OF K POINTS(GILAT NET)   1028
 *******************************************************************************
 *** K POINTS COORDINATES (OBLIQUE COORDINATES IN UNITS OF IS =  2)
   1-R(  0  0  0)   2-R(  1  0  0)   3-R(  0  1  0)   4-R(  1  1  0)
   5-C(  0  0  1)   6-C(  1  0  1)   7-C(  0  1  1)   8-C(  1  1  1)
   9-C(  0  0  2)  10-C(  1  0  2)  11-C(  0  1  2)  12-C(  1  1  2)
  13-C(  0  0  3)  14-C(  1  0  3)  15-C(  0  1  3)  16-C(  1  1  3)
  17-R(  0  0  4)  18-R(  1  0  4)  19-R(  0  1  4)  20-R(  1  1  4)

 DIRECT LATTICE VECTORS COMPON. (A.U.)     RECIP. LATTICE VECTORS COMPON. (A.U.) 
        X            Y            Z              X            Y            Z
   24.5879030  -14.1935232    0.0000000      0.2555397    0.0000000    0.0000005
    0.0000000   28.3910867    0.0000000      0.1277517    0.2213084    0.0000015
   -0.0000289   -0.0000767   13.6060282      0.0000000    0.0000000    0.4617942

 DISK SPACE FOR EIGENVECTORS (FTN 10)    28758528 REALS

 SYMMETRY ADAPTION OF THE BLOCH FUNCTIONS DISABLED
 TTTTTTTTTTTTTTTTTTTTTTTTTTTTTT gordsh1     TELAPSE        0.05 TCPU        0.05

 MATRIX SIZE: P(G)  741464, F(G)  155962, P(G) IRR  372778, F(G) IRR  156994
 MAX G-VECTOR INDEX FOR 1- AND 2-ELECTRON INTEGRALS  67

 TTTTTTTTTTTTTTTTTTTTTTTTTTTTTT INPUT       TELAPSE        2.88 TCPU        2.87

 NEIGHBORS OF THE NON-EQUIVALENT ATOMS

 N = NUMBER OF NEIGHBORS AT DISTANCE R
    ATOM  N     R/ANG      R/AU   NEIGHBORS (ATOM LABELS AND CELL INDICES)
   1 B    1     1.3791     2.6061   73 O   -1 0 0
   1 B    1     1.3793     2.6065   75 O    0 0 0
   1 B    1     1.5503     2.9297   49 C   -1 0 0
   1 B    1     2.3895     4.5155    5 B    0 1 0
   1 B    1     2.3898     4.5160    3 B    0 0 0
   1 B    1     2.5632     4.8437   51 C    0 0 0

   2 B    1     1.3791     2.6061   74 O   -1 0 0
   2 B    1     1.3793     2.6065   76 O    0 0 0
   2 B    1     1.5503     2.9297   50 C   -1 0 0
   2 B    1     2.3895     4.5155    6 B    0 1 0
   2 B    1     2.3898     4.5160    4 B    0 0 0
   2 B    1     2.5632     4.8437   52 C    0 0 0

   3 B    1     1.3793     2.6065   77 O    0 1 0
   3 B    1     1.3793     2.6065   75 O    0 0 0
   3 B    1     1.5504     2.9298   37 C    0 0 0
   3 B    1     2.3895     4.5156    5 B    0 1 0
   3 B    1     2.3898     4.5160    1 B    0 0 0
   3 B    1     2.5634     4.8440   43 C    0 1 0

   4 B    1     1.3793     2.6065   78 O    0 1 0
   4 B    1     1.3793     2.6065   76 O    0 0 0
   4 B    1     1.5504     2.9298   38 C    0 0 0
   4 B    1     2.3895     4.5156    6 B    0 1 0
   4 B    1     2.3898     4.5160    2 B    0 0 0
   4 B    1     2.5634     4.8440   44 C    0 1 0

   5 B    1     1.3791     2.6061   73 O   -1-1 0
   5 B    1     1.3793     2.6064   77 O    0 0 0
   5 B    1     1.5502     2.9294   61 C   -1-1 0
   5 B    1     2.3895     4.5155    1 B    0-1 0
   5 B    1     2.3895     4.5156    3 B    0-1 0
   5 B    1     2.5629     4.8433   63 C    0 0 0

   6 B    1     1.3791     2.6061   74 O   -1-1 0
   6 B    1     1.3793     2.6064   78 O    0 0 0
   6 B    1     1.5502     2.9294   62 C   -1-1 0
   6 B    1     2.3895     4.5155    2 B    0-1 0
   6 B    1     2.3895     4.5156    4 B    0-1 0
   6 B    1     2.5629     4.8433   64 C    0 0 0

   7 B    1     1.3795     2.6068   79 O    0 0 0
   7 B    1     1.3795     2.6070   81 O    0-1 0
   7 B    1     1.5513     2.9316   47 C    0 0 0
   7 B    1     2.3905     4.5174   11 B    0 0 0
   7 B    1     2.3905     4.5175    9 B    0-1 0
   7 B    1     2.5648     4.8468   45 C    0-1 0

   8 B    1     1.3795     2.6068   80 O    0 0 0
   8 B    1     1.3795     2.6070   82 O    0-1 0
   8 B    1     1.5513     2.9316   48 C    0 0 0
   8 B    1     2.3905     4.5174   12 B    0 0 0
   8 B    1     2.3905     4.5175   10 B    0-1 0
   8 B    1     2.5648     4.8468   46 C    0-1 0

   9 B    1     1.3795     2.6069   81 O    0 0 0
   9 B    1     1.3797     2.6072   83 O    1 1 0
   9 B    1     1.5516     2.9322   71 C    0 0 0
   9 B    1     2.3905     4.5175    7 B    0 1 0
   9 B    1     2.3911     4.5185   11 B    0 1 0
   9 B    1     2.5651     4.8473   69 C    1 1 0

  10 B    1     1.3795     2.6069   82 O    0 0 0
  10 B    1     1.3797     2.6072   84 O    1 1 0
  10 B    1     1.5516     2.9322   72 C    0 0 0
  10 B    1     2.3905     4.5175    8 B    0 1 0
  10 B    1     2.3911     4.5185   12 B    0 1 0
  10 B    1     2.5651     4.8473   70 C    1 1 0

  11 B    1     1.3795     2.6068   79 O    0 0 0
  11 B    1     1.3796     2.6071   83 O    1 0 0
  11 B    1     1.5516     2.9322   59 C    0 0 0
  11 B    1     2.3905     4.5174    7 B    0 0 0
  11 B    1     2.3911     4.5185    9 B    0-1 0
  11 B    1     2.5651     4.8473   57 C    1 0 0

  12 B    1     1.3795     2.6068   80 O    0 0 0
  12 B    1     1.3796     2.6071   84 O    1 0 0
  12 B    1     1.5516     2.9322   60 C    0 0 0
  12 B    1     2.3905     4.5174    8 B    0 0 0
  12 B    1     2.3911     4.5185   10 B    0-1 0
  12 B    1     2.5651     4.8473   58 C    1 0 0

  13 H    1     1.0913     2.0623   39 C    0 0 0
  13 H    1     2.1472     4.0576   37 C    0 0 0
  13 H    1     2.1680     4.0969   45 C    0 0 0
  13 H    1     2.5202     4.7625   19 H    0 0 0
  13 H    1     2.5676     4.8520   75 O    0 0 0
  13 H    1     2.7321     5.1630    3 B    0 0 0

  14 H    1     1.0913     2.0623   40 C    0 0 0
  14 H    1     2.1472     4.0576   38 C    0 0 0
  14 H    1     2.1680     4.0969   46 C    0 0 0
  14 H    1     2.5202     4.7625   20 H    0 0 0
  14 H    1     2.5676     4.8520   76 O    0 0 0
  14 H    1     2.7321     5.1630    4 B    0 0 0

  15 H    1     1.0914     2.0625   41 C    0 0 0
  15 H    1     2.1493     4.0616   47 C    0 0 0
  15 H    1     2.1666     4.0942   43 C    0 0 0
  15 H    1     2.5198     4.7618   17 H    0 0 0
  15 H    1     2.5720     4.8604   79 O    0 0 0
  15 H    1     2.7362     5.1707    7 B    0 0 0

  16 H    1     1.0914     2.0625   42 C    0 0 0
  16 H    1     2.1493     4.0616   48 C    0 0 0
  16 H    1     2.1666     4.0942   44 C    0 0 0
  16 H    1     2.5198     4.7618   18 H    0 0 0
  16 H    1     2.5720     4.8604   80 O    0 0 0
  16 H    1     2.7362     5.1707    8 B    0 0 0

  17 H    1     1.0914     2.0624   43 C    0 0 0
  17 H    1     2.1471     4.0575   37 C    0-1 0
  17 H    1     2.1680     4.0970   41 C    0 0 0
  17 H    1     2.5198     4.7618   15 H    0 0 0
  17 H    1     2.5665     4.8500   77 O    0 0 0
  17 H    1     2.7315     5.1618    3 B    0-1 0

  18 H    1     1.0914     2.0624   44 C    0 0 0
  18 H    1     2.1471     4.0575   38 C    0-1 0
  18 H    1     2.1680     4.0970   42 C    0 0 0
  18 H    1     2.5198     4.7618   16 H    0 0 0
  18 H    1     2.5665     4.8500   78 O    0 0 0
  18 H    1     2.7315     5.1618    4 B    0-1 0

  19 H    1     1.0915     2.0626   45 C    0 0 0
  19 H    1     2.1490     4.0610   47 C    0 1 0
  19 H    1     2.1669     4.0948   39 C    0 0 0
  19 H    1     2.5202     4.7625   13 H    0 0 0
  19 H    1     2.5712     4.8588   81 O    0 0 0
  19 H    1     2.7351     5.1686    7 B    0 1 0

  20 H    1     1.0915     2.0626   46 C    0 0 0
  20 H    1     2.1490     4.0610   48 C    0 1 0
  20 H    1     2.1669     4.0948   40 C    0 0 0
  20 H    1     2.5202     4.7625   14 H    0 0 0
  20 H    1     2.5712     4.8588   82 O    0 0 0
  20 H    1     2.7351     5.1686    8 B    0 1 0

  21 H    1     1.0913     2.0623   51 C    0 0 0
  21 H    1     2.1469     4.0571   49 C   -1 0 0
  21 H    1     2.1680     4.0968   57 C    0 0 0
  21 H    1     2.5198     4.7617   27 H    0 0 0
  21 H    1     2.5670     4.8510   75 O    0 0 0
  21 H    1     2.7310     5.1609    1 B    0 0 0

  22 H    1     1.0913     2.0623   52 C    0 0 0
  22 H    1     2.1469     4.0571   50 C   -1 0 0
  22 H    1     2.1680     4.0968   58 C    0 0 0
  22 H    1     2.5198     4.7617   28 H    0 0 0
  22 H    1     2.5670     4.8510   76 O    0 0 0
  22 H    1     2.7310     5.1609    2 B    0 0 0

  23 H    1     1.0914     2.0625   53 C    0 0 0
  23 H    1     2.1493     4.0617   59 C    0 0 0
  23 H    1     2.1664     4.0939   55 C    0 0 0
  23 H    1     2.5192     4.7606   25 H    0 0 0
  23 H    1     2.5735     4.8632   79 O    0 0 0
  23 H    1     2.7371     5.1723   11 B    0 0 0

  24 H    1     1.0914     2.0625   54 C    0 0 0
  24 H    1     2.1493     4.0617   60 C    0 0 0
  24 H    1     2.1664     4.0939   56 C    0 0 0
  24 H    1     2.5192     4.7606   26 H    0 0 0
  24 H    1     2.5735     4.8632   80 O    0 0 0
  24 H    1     2.7371     5.1723   12 B    0 0 0

  25 H    1     1.0914     2.0624   55 C    0 0 0
  25 H    1     2.1475     4.0581   49 C    0 0 0
  25 H    1     2.1679     4.0967   53 C    0 0 0
  25 H    1     2.5192     4.7606   23 H    0 0 0
  25 H    1     2.5675     4.8519   73 O    0 0 0
  25 H    1     2.7328     5.1643    1 B    1 0 0

  26 H    1     1.0914     2.0624   56 C    0 0 0
  26 H    1     2.1475     4.0581   50 C    0 0 0
  26 H    1     2.1679     4.0967   54 C    0 0 0
  26 H    1     2.5192     4.7606   24 H    0 0 0
  26 H    1     2.5675     4.8519   74 O    0 0 0
  26 H    1     2.7328     5.1643    2 B    1 0 0

  27 H    1     1.0914     2.0625   57 C    0 0 0
  27 H    1     2.1491     4.0612   59 C   -1 0 0
  27 H    1     2.1666     4.0942   51 C    0 0 0
  27 H    1     2.5198     4.7617   21 H    0 0 0
  27 H    1     2.5723     4.8609   83 O    0 0 0
  27 H    1     2.7355     5.1693   11 B   -1 0 0

  28 H    1     1.0914     2.0625   58 C    0 0 0
  28 H    1     2.1491     4.0612   60 C   -1 0 0
  28 H    1     2.1666     4.0942   52 C    0 0 0
  28 H    1     2.5198     4.7617   22 H    0 0 0
  28 H    1     2.5723     4.8609   84 O    0 0 0
  28 H    1     2.7355     5.1693   12 B   -1 0 0

  29 H    1     1.0914     2.0624   63 C    0 0 0
  29 H    1     2.1475     4.0582   61 C   -1-1 0
  29 H    1     2.1678     4.0966   69 C    0 0 0
  29 H    1     2.5200     4.7621   35 H    0 0 0
  29 H    1     2.5667     4.8503   77 O    0 0 0
  29 H    1     2.7315     5.1618    5 B    0 0 0

  30 H    1     1.0914     2.0624   64 C    0 0 0
  30 H    1     2.1475     4.0582   62 C   -1-1 0
  30 H    1     2.1678     4.0966   70 C    0 0 0
  30 H    1     2.5200     4.7621   36 H    0 0 0
  30 H    1     2.5667     4.8503   78 O    0 0 0
  30 H    1     2.7315     5.1618    6 B    0 0 0

  31 H    1     1.0913     2.0623   65 C    0 0 0
  31 H    1     2.1487     4.0605   71 C    0 0 0
  31 H    1     2.1667     4.0945   67 C    0 0 0
  31 H    1     2.5197     4.7616   33 H    0 0 0
  31 H    1     2.5723     4.8610   81 O    0 0 0
  31 H    1     2.7359     5.1701    9 B    0 0 0

  32 H    1     1.0913     2.0623   66 C    0 0 0
  32 H    1     2.1487     4.0605   72 C    0 0 0
  32 H    1     2.1667     4.0945   68 C    0 0 0
  32 H    1     2.5197     4.7616   34 H    0 0 0
  32 H    1     2.5723     4.8610   82 O    0 0 0
  32 H    1     2.7359     5.1701   10 B    0 0 0

  33 H    1     1.0915     2.0626   67 C    0 0 0
  33 H    1     2.1479     4.0589   61 C    0 0 0
  33 H    1     2.1679     4.0968   65 C    0 0 0
  33 H    1     2.5197     4.7616   31 H    0 0 0
  33 H    1     2.5677     4.8522   73 O    0 0 0
  33 H    1     2.7331     5.1648    5 B    1 1 0

  34 H    1     1.0915     2.0626   68 C    0 0 0
  34 H    1     2.1479     4.0589   62 C    0 0 0
  34 H    1     2.1679     4.0968   66 C    0 0 0
  34 H    1     2.5197     4.7616   32 H    0 0 0
  34 H    1     2.5677     4.8522   74 O    0 0 0
  34 H    1     2.7331     5.1648    6 B    1 1 0

  35 H    1     1.0914     2.0624   69 C    0 0 0
  35 H    1     2.1486     4.0602   71 C   -1-1 0
  35 H    1     2.1668     4.0947   63 C    0 0 0
  35 H    1     2.5200     4.7621   29 H    0 0 0
  35 H    1     2.5717     4.8598   83 O    0 0 0
  35 H    1     2.7349     5.1682    9 B   -1-1 0

  36 H    1     1.0914     2.0624   70 C    0 0 0
  36 H    1     2.1486     4.0602   72 C   -1-1 0
  36 H    1     2.1668     4.0947   64 C    0 0 0
  36 H    1     2.5200     4.7621   30 H    0 0 0
  36 H    1     2.5717     4.8598   84 O    0 0 0
  36 H    1     2.7349     5.1682   10 B   -1-1 0

  37 C    1     1.4020     2.6495   43 C    0 1 0
  37 C    1     1.4021     2.6495   39 C    0 0 0
  37 C    1     1.5504     2.9298    3 B    0 0 0
  37 C    1     2.1471     4.0575   17 H    0 1 0
  37 C    1     2.1472     4.0576   13 H    0 0 0
  37 C    1     2.4246     4.5817   41 C    0 1 0

  38 C    1     1.4020     2.6495   44 C    0 1 0
  38 C    1     1.4021     2.6495   40 C    0 0 0
  38 C    1     1.5504     2.9298    4 B    0 0 0
  38 C    1     2.1471     4.0575   18 H    0 1 0
  38 C    1     2.1472     4.0576   14 H    0 0 0
  38 C    1     2.4246     4.5817   42 C    0 1 0

  39 C    1     1.0913     2.0623   13 H    0 0 0
  39 C    1     1.3914     2.6294   45 C    0 0 0
  39 C    1     1.4021     2.6495   37 C    0 0 0
  39 C    1     2.1669     4.0948   19 H    0 0 0
  39 C    1     2.4177     4.5688   43 C    0 1 0
  39 C    1     2.4250     4.5825   47 C    0 1 0

  40 C    1     1.0913     2.0623   14 H    0 0 0
  40 C    1     1.3914     2.6294   46 C    0 0 0
  40 C    1     1.4021     2.6495   38 C    0 0 0
  40 C    1     2.1669     4.0948   20 H    0 0 0
  40 C    1     2.4177     4.5688   44 C    0 1 0
  40 C    1     2.4250     4.5825   48 C    0 1 0

  41 C    1     1.0914     2.0625   15 H    0 0 0
  41 C    1     1.3914     2.6293   43 C    0 0 0
  41 C    1     1.4026     2.6505   47 C    0 0 0
  41 C    1     2.1680     4.0970   17 H    0 0 0
  41 C    1     2.4182     4.5697   45 C    0-1 0
  41 C    1     2.4246     4.5817   37 C    0-1 0

  42 C    1     1.0914     2.0625   16 H    0 0 0
  42 C    1     1.3914     2.6293   44 C    0 0 0
  42 C    1     1.4026     2.6505   48 C    0 0 0
  42 C    1     2.1680     4.0970   18 H    0 0 0
  42 C    1     2.4182     4.5697   46 C    0-1 0
  42 C    1     2.4246     4.5817   38 C    0-1 0

  43 C    1     1.0914     2.0624   17 H    0 0 0
  43 C    1     1.3914     2.6293   41 C    0 0 0
  43 C    1     1.4020     2.6495   37 C    0-1 0
  43 C    1     2.1666     4.0942   15 H    0 0 0
  43 C    1     2.4177     4.5688   39 C    0-1 0
  43 C    1     2.4250     4.5826   47 C    0 0 0

  44 C    1     1.0914     2.0624   18 H    0 0 0
  44 C    1     1.3914     2.6293   42 C    0 0 0
  44 C    1     1.4020     2.6495   38 C    0-1 0
  44 C    1     2.1666     4.0942   16 H    0 0 0
  44 C    1     2.4177     4.5688   40 C    0-1 0
  44 C    1     2.4250     4.5826   48 C    0 0 0

  45 C    1     1.0915     2.0626   19 H    0 0 0
  45 C    1     1.3914     2.6294   39 C    0 0 0
  45 C    1     1.4025     2.6504   47 C    0 1 0
  45 C    1     2.1680     4.0969   13 H    0 0 0
  45 C    1     2.4182     4.5697   41 C    0 1 0
  45 C    1     2.4246     4.5818   37 C    0 0 0

  46 C    1     1.0915     2.0626   20 H    0 0 0
  46 C    1     1.3914     2.6294   40 C    0 0 0
  46 C    1     1.4025     2.6504   48 C    0 1 0
  46 C    1     2.1680     4.0969   14 H    0 0 0
  46 C    1     2.4182     4.5697   42 C    0 1 0
  46 C    1     2.4246     4.5818   38 C    0 0 0

  47 C    1     1.4025     2.6504   45 C    0-1 0
  47 C    1     1.4026     2.6505   41 C    0 0 0
  47 C    1     1.5513     2.9316    7 B    0 0 0
  47 C    1     2.1490     4.0610   19 H    0-1 0
  47 C    1     2.1493     4.0616   15 H    0 0 0
  47 C    1     2.4250     4.5825   39 C    0-1 0

  48 C    1     1.4025     2.6504   46 C    0-1 0
  48 C    1     1.4026     2.6505   42 C    0 0 0
  48 C    1     1.5513     2.9316    8 B    0 0 0
  48 C    1     2.1490     4.0610   20 H    0-1 0
  48 C    1     2.1493     4.0616   16 H    0 0 0
  48 C    1     2.4250     4.5825   40 C    0-1 0

  49 C    1     1.4020     2.6494   51 C    1 0 0
  49 C    1     1.4021     2.6495   55 C    0 0 0
  49 C    1     1.5503     2.9297    1 B    1 0 0
  49 C    1     2.1469     4.0571   21 H    1 0 0
  49 C    1     2.1475     4.0581   25 H    0 0 0
  49 C    1     2.4246     4.5818   53 C    0 0 0

  50 C    1     1.4020     2.6494   52 C    1 0 0
  50 C    1     1.4021     2.6495   56 C    0 0 0
  50 C    1     1.5503     2.9297    2 B    1 0 0
  50 C    1     2.1469     4.0571   22 H    1 0 0
  50 C    1     2.1475     4.0581   26 H    0 0 0
  50 C    1     2.4246     4.5818   54 C    0 0 0

  51 C    1     1.0913     2.0623   21 H    0 0 0
  51 C    1     1.3914     2.6293   57 C    0 0 0
  51 C    1     1.4020     2.6494   49 C   -1 0 0
  51 C    1     2.1666     4.0942   27 H    0 0 0
  51 C    1     2.4175     4.5684   55 C   -1 0 0
  51 C    1     2.4251     4.5828   59 C   -1 0 0

  52 C    1     1.0913     2.0623   22 H    0 0 0
  52 C    1     1.3914     2.6293   58 C    0 0 0
  52 C    1     1.4020     2.6494   50 C   -1 0 0
  52 C    1     2.1666     4.0942   28 H    0 0 0
  52 C    1     2.4175     4.5684   56 C   -1 0 0
  52 C    1     2.4251     4.5828   60 C   -1 0 0

  53 C    1     1.0914     2.0625   23 H    0 0 0
  53 C    1     1.3915     2.6295   55 C    0 0 0
  53 C    1     1.4026     2.6505   59 C    0 0 0
  53 C    1     2.1679     4.0967   25 H    0 0 0
  53 C    1     2.4179     4.5691   57 C    1 0 0
  53 C    1     2.4246     4.5818   49 C    0 0 0

  54 C    1     1.0914     2.0625   24 H    0 0 0
  54 C    1     1.3915     2.6295   56 C    0 0 0
  54 C    1     1.4026     2.6505   60 C    0 0 0
  54 C    1     2.1679     4.0967   26 H    0 0 0
  54 C    1     2.4179     4.5691   58 C    1 0 0
  54 C    1     2.4246     4.5818   50 C    0 0 0

  55 C    1     1.0914     2.0624   25 H    0 0 0
  55 C    1     1.3915     2.6295   53 C    0 0 0
  55 C    1     1.4021     2.6495   49 C    0 0 0
  55 C    1     2.1664     4.0939   23 H    0 0 0
  55 C    1     2.4175     4.5684   51 C    1 0 0
  55 C    1     2.4253     4.5832   59 C    0 0 0

  56 C    1     1.0914     2.0624   26 H    0 0 0
  56 C    1     1.3915     2.6295   54 C    0 0 0
  56 C    1     1.4021     2.6495   50 C    0 0 0
  56 C    1     2.1664     4.0939   24 H    0 0 0
  56 C    1     2.4175     4.5684   52 C    1 0 0
  56 C    1     2.4253     4.5832   60 C    0 0 0

  57 C    1     1.0914     2.0625   27 H    0 0 0
  57 C    1     1.3914     2.6293   51 C    0 0 0
  57 C    1     1.4025     2.6504   59 C   -1 0 0
  57 C    1     2.1680     4.0968   21 H    0 0 0
  57 C    1     2.4179     4.5691   53 C   -1 0 0
  57 C    1     2.4247     4.5819   49 C   -1 0 0

  58 C    1     1.0914     2.0625   28 H    0 0 0
  58 C    1     1.3914     2.6293   52 C    0 0 0
  58 C    1     1.4025     2.6504   60 C   -1 0 0
  58 C    1     2.1680     4.0968   22 H    0 0 0
  58 C    1     2.4179     4.5691   54 C   -1 0 0
  58 C    1     2.4247     4.5819   50 C   -1 0 0

  59 C    1     1.4025     2.6504   57 C    1 0 0
  59 C    1     1.4026     2.6505   53 C    0 0 0
  59 C    1     1.5516     2.9322   11 B    0 0 0
  59 C    1     2.1491     4.0612   27 H    1 0 0
  59 C    1     2.1493     4.0617   23 H    0 0 0
  59 C    1     2.4251     4.5828   51 C    1 0 0

  60 C    1     1.4025     2.6504   58 C    1 0 0
  60 C    1     1.4026     2.6505   54 C    0 0 0
  60 C    1     1.5516     2.9322   12 B    0 0 0
  60 C    1     2.1491     4.0612   28 H    1 0 0
  60 C    1     2.1493     4.0617   24 H    0 0 0
  60 C    1     2.4251     4.5828   52 C    1 0 0

  61 C    1     1.4021     2.6496   63 C    1 1 0
  61 C    1     1.4021     2.6497   67 C    0 0 0
  61 C    1     1.5502     2.9294    5 B    1 1 0
  61 C    1     2.1475     4.0582   29 H    1 1 0
  61 C    1     2.1479     4.0589   33 H    0 0 0
  61 C    1     2.4244     4.5814   65 C    0 0 0

  62 C    1     1.4021     2.6496   64 C    1 1 0
  62 C    1     1.4021     2.6497   68 C    0 0 0
  62 C    1     1.5502     2.9294    6 B    1 1 0
  62 C    1     2.1475     4.0582   30 H    1 1 0
  62 C    1     2.1479     4.0589   34 H    0 0 0
  62 C    1     2.4244     4.5814   66 C    0 0 0

  63 C    1     1.0914     2.0624   29 H    0 0 0
  63 C    1     1.3914     2.6293   69 C    0 0 0
  63 C    1     1.4021     2.6496   61 C   -1-1 0
  63 C    1     2.1668     4.0947   35 H    0 0 0
  63 C    1     2.4179     4.5692   67 C   -1-1 0
  63 C    1     2.4251     4.5827   71 C   -1-1 0

  64 C    1     1.0914     2.0624   30 H    0 0 0
  64 C    1     1.3914     2.6293   70 C    0 0 0
  64 C    1     1.4021     2.6496   62 C   -1-1 0
  64 C    1     2.1668     4.0947   36 H    0 0 0
  64 C    1     2.4179     4.5692   68 C   -1-1 0
  64 C    1     2.4251     4.5827   72 C   -1-1 0

  65 C    1     1.0913     2.0623   31 H    0 0 0
  65 C    1     1.3914     2.6294   67 C    0 0 0
  65 C    1     1.4025     2.6504   71 C    0 0 0
  65 C    1     2.1679     4.0968   33 H    0 0 0
  65 C    1     2.4178     4.5690   69 C    1 1 0
  65 C    1     2.4244     4.5814   61 C    0 0 0

  66 C    1     1.0913     2.0623   32 H    0 0 0
  66 C    1     1.3914     2.6294   68 C    0 0 0
  66 C    1     1.4025     2.6504   72 C    0 0 0
  66 C    1     2.1679     4.0968   34 H    0 0 0
  66 C    1     2.4178     4.5690   70 C    1 1 0
  66 C    1     2.4244     4.5814   62 C    0 0 0

  67 C    1     1.0915     2.0626   33 H    0 0 0
  67 C    1     1.3914     2.6294   65 C    0 0 0
  67 C    1     1.4021     2.6497   61 C    0 0 0
  67 C    1     2.1667     4.0945   31 H    0 0 0
  67 C    1     2.4179     4.5692   63 C    1 1 0
  67 C    1     2.4253     4.5832   71 C    0 0 0

  68 C    1     1.0915     2.0626   34 H    0 0 0
  68 C    1     1.3914     2.6294   66 C    0 0 0
  68 C    1     1.4021     2.6497   62 C    0 0 0
  68 C    1     2.1667     4.0945   32 H    0 0 0
  68 C    1     2.4179     4.5692   64 C    1 1 0
  68 C    1     2.4253     4.5832   72 C    0 0 0

  69 C    1     1.0914     2.0624   35 H    0 0 0
  69 C    1     1.3914     2.6293   63 C    0 0 0
  69 C    1     1.4025     2.6503   71 C   -1-1 0
  69 C    1     2.1678     4.0966   29 H    0 0 0
  69 C    1     2.4178     4.5690   65 C   -1-1 0
  69 C    1     2.4245     4.5817   61 C   -1-1 0

  70 C    1     1.0914     2.0624   36 H    0 0 0
  70 C    1     1.3914     2.6293   64 C    0 0 0
  70 C    1     1.4025     2.6503   72 C   -1-1 0
  70 C    1     2.1678     4.0966   30 H    0 0 0
  70 C    1     2.4178     4.5690   66 C   -1-1 0
  70 C    1     2.4245     4.5817   62 C   -1-1 0

  71 C    1     1.4025     2.6503   69 C    1 1 0
  71 C    1     1.4025     2.6504   65 C    0 0 0
  71 C    1     1.5516     2.9322    9 B    0 0 0
  71 C    1     2.1486     4.0602   35 H    1 1 0
  71 C    1     2.1487     4.0605   31 H    0 0 0
  71 C    1     2.4251     4.5827   63 C    1 1 0

  72 C    1     1.4025     2.6503   70 C    1 1 0
  72 C    1     1.4025     2.6504   66 C    0 0 0
  72 C    1     1.5516     2.9322   10 B    0 0 0
  72 C    1     2.1486     4.0602   36 H    1 1 0
  72 C    1     2.1487     4.0605   32 H    0 0 0
  72 C    1     2.4251     4.5827   64 C    1 1 0

  73 O    1     1.3791     2.6061    1 B    1 0 0
  73 O    1     1.3791     2.6061    5 B    1 1 0
  73 O    1     2.3880     4.5126   75 O    1 0 0
  73 O    1     2.3882     4.5130   77 O    1 1 0
  73 O    1     2.5383     4.7966   61 C    0 0 0
  73 O    1     2.5384     4.7968   49 C    0 0 0

  74 O    1     1.3791     2.6061    2 B    1 0 0
  74 O    1     1.3791     2.6061    6 B    1 1 0
  74 O    1     2.3880     4.5126   76 O    1 0 0
  74 O    1     2.3882     4.5130   78 O    1 1 0
  74 O    1     2.5383     4.7966   62 C    0 0 0
  74 O    1     2.5384     4.7968   50 C    0 0 0

  75 O    1     1.3793     2.6065    1 B    0 0 0
  75 O    1     1.3793     2.6065    3 B    0 0 0
  75 O    1     2.3880     4.5126   73 O   -1 0 0
  75 O    1     2.3882     4.5131   77 O    0 1 0
  75 O    1     2.5391     4.7981   37 C    0 0 0
  75 O    1     2.5395     4.7990   49 C   -1 0 0

  76 O    1     1.3793     2.6065    2 B    0 0 0
  76 O    1     1.3793     2.6065    4 B    0 0 0
  76 O    1     2.3880     4.5126   74 O   -1 0 0
  76 O    1     2.3882     4.5131   78 O    0 1 0
  76 O    1     2.5391     4.7981   38 C    0 0 0
  76 O    1     2.5395     4.7990   50 C   -1 0 0

  77 O    1     1.3793     2.6064    5 B    0 0 0
  77 O    1     1.3793     2.6065    3 B    0-1 0
  77 O    1     2.3882     4.5130   73 O   -1-1 0
  77 O    1     2.3882     4.5131   75 O    0-1 0
  77 O    1     2.5390     4.7980   37 C    0-1 0
  77 O    1     2.5391     4.7982   61 C   -1-1 0

  78 O    1     1.3793     2.6064    6 B    0 0 0
  78 O    1     1.3793     2.6065    4 B    0-1 0
  78 O    1     2.3882     4.5130   74 O   -1-1 0
  78 O    1     2.3882     4.5131   76 O    0-1 0
  78 O    1     2.5390     4.7980   38 C    0-1 0
  78 O    1     2.5391     4.7982   62 C   -1-1 0

  79 O    1     1.3795     2.6068   11 B    0 0 0
  79 O    1     1.3795     2.6068    7 B    0 0 0
  79 O    1     2.3880     4.5126   83 O    1 0 0
  79 O    1     2.3884     4.5134   81 O    0-1 0
  79 O    1     2.5400     4.7998   47 C    0 0 0
  79 O    1     2.5403     4.8005   59 C    0 0 0

  80 O    1     1.3795     2.6068   12 B    0 0 0
  80 O    1     1.3795     2.6068    8 B    0 0 0
  80 O    1     2.3880     4.5126   84 O    1 0 0
  80 O    1     2.3884     4.5134   82 O    0-1 0
  80 O    1     2.5400     4.7998   48 C    0 0 0
  80 O    1     2.5403     4.8005   60 C    0 0 0

  81 O    1     1.3795     2.6069    9 B    0 0 0
  81 O    1     1.3795     2.6070    7 B    0 1 0
  81 O    1     2.3881     4.5128   83 O    1 1 0
  81 O    1     2.3884     4.5134   79 O    0 1 0
  81 O    1     2.5404     4.8006   47 C    0 1 0
  81 O    1     2.5405     4.8008   71 C    0 0 0

  82 O    1     1.3795     2.6069   10 B    0 0 0
  82 O    1     1.3795     2.6070    8 B    0 1 0
  82 O    1     2.3881     4.5128   84 O    1 1 0
  82 O    1     2.3884     4.5134   80 O    0 1 0
  82 O    1     2.5404     4.8006   48 C    0 1 0
  82 O    1     2.5405     4.8008   72 C    0 0 0

  83 O    1     1.3796     2.6071   11 B   -1 0 0
  83 O    1     1.3797     2.6072    9 B   -1-1 0
  83 O    1     2.3880     4.5126   79 O   -1 0 0
  83 O    1     2.3881     4.5128   81 O   -1-1 0
  83 O    1     2.5409     4.8016   71 C   -1-1 0
  83 O    1     2.5410     4.8019   59 C   -1 0 0

  84 O    1     1.3796     2.6071   12 B   -1 0 0
  84 O    1     1.3797     2.6072   10 B   -1-1 0
  84 O    1     2.3880     4.5126   80 O   -1 0 0
  84 O    1     2.3881     4.5128   82 O   -1-1 0
  84 O    1     2.5409     4.8016   72 C   -1-1 0
  84 O    1     2.5410     4.8019   60 C   -1 0 0


 SYMMETRY ALLOWED INTERNAL DEGREE(S) OF FREEDOM: 249
 TTTTTTTTTTTTTTTTTTTTTTTTTTTTTT SYMM        TELAPSE        2.88 TCPU        2.88
 TTTTTTTTTTTTTTTTTTTTTTTTTTTTTT INT_SCREEN  TELAPSE        3.07 TCPU        3.07

 DFT PARAMETERS

     ATOM       ELECTRONS   NET CHARGE   R(ANGSTROM)
   1   5  B       5.0000      0.0000     0.89000000
  13   1  H       1.0000      0.0000     1.11000000
  37   6  C       6.0000      0.0000     0.77000000
  73   8  O       8.0000      0.0000     0.74000000

 SIZE OF GRID=    2536392
 TTTTTTTTTTTTTTTTTTTTTTTTTTTTTT MAKE_GRID2  TELAPSE       26.51 TCPU       26.48
 BECKE WEIGHT FUNCTION
 RADSAFE =     2.00
 TOLERANCES - DENSITY:10**- 6; POTENTIAL:10**- 9; GRID WGT:10**-14

 RADIAL INTEGRATION  - INTERVALS (POINTS,UPPER LIMIT):            1( 75,  4.0*R)

 ANGULAR INTEGRATION - INTERVALS (ACCURACY LEVEL [N. POINTS] UPPER LIMIT):
  1(  4[  86]   0.2)  2(  8[ 194]   0.5)  3( 12[ 350]   0.9)  4( 16[ 974]   3.5)
  5( 12[ 350]9999.0)
 TTTTTTTTTTTTTTTTTTTTTTTTTTTTTT INT_CALC    TELAPSE       26.80 TCPU       26.78
 EEEEEEEEEE INT_CALC TERMINATION  DATE 19 02 2026 TIME 20:11:44.2

 *******************************************************************************
 cof-1_z36_L000_serr                                                             
 CRYSTAL - SCF - TYPE OF CALCULATION :  RESTRICTED CLOSED SHELL
 *******************************************************************************

 CAPPA:IS1  2;IS2  2;IS3  8; K PTS MONK NET  20; SYMMOPS:K SPACE   2;G SPACE   1

 TTTTTTTTTTTTTTTTTTTTTTTTTTTTTT SDIK        TELAPSE       28.71 TCPU       54.03

 AAAAAAAAAAAAAAAAAAAAAAAAAAAAAAAAAAAAAAAAAAAAAAAAAAAAAAAAAAAAAAAAAAAAAAAAAAAAAAA
         ATOMIC WAVEFUNCTION(S)


 NUCLEAR CHARGE  5.0  SYMMETRY SPECIES            S    P
 N. ELECTRONS    5.0  NUMBER OF PRIMITIVE GTOS    8    4
                      NUMBER OF CONTRACTED GTOS   4    2
                      NUMBER OF CLOSED SHELLS     2    0
                      OPEN SHELL OCCUPATION       0    1

  ZNUC  SCFIT    TOTAL HF ENERGY   KINETIC ENERGY   VIRIAL THEOREM ACCURACY
   5.0    11    -2.451164084E+01  2.462155050E+01 -1.995536038E+00  1.5E-06

 NUCLEAR CHARGE  1.0  SYMMETRY SPECIES            S
 N. ELECTRONS    1.0  NUMBER OF PRIMITIVE GTOS    4
                      NUMBER OF CONTRACTED GTOS   2
                      NUMBER OF CLOSED SHELLS     0
                      OPEN SHELL OCCUPATION       1

  ZNUC  SCFIT    TOTAL HF ENERGY   KINETIC ENERGY   VIRIAL THEOREM ACCURACY
   1.0     1    -4.977266687E-01  5.190767460E-01 -1.958869132E+00  0.0E+00

 NUCLEAR CHARGE  6.0  SYMMETRY SPECIES            S    P
 N. ELECTRONS    6.0  NUMBER OF PRIMITIVE GTOS    8    4
                      NUMBER OF CONTRACTED GTOS   4    2
                      NUMBER OF CLOSED SHELLS     2    0
                      OPEN SHELL OCCUPATION       0    2

  ZNUC  SCFIT    TOTAL HF ENERGY   KINETIC ENERGY   VIRIAL THEOREM ACCURACY
   6.0     9    -3.766704647E+01  3.775180683E+01 -1.997754800E+00  1.1E-06

 NUCLEAR CHARGE  8.0  SYMMETRY SPECIES            S    P
 N. ELECTRONS    8.0  NUMBER OF PRIMITIVE GTOS    8    4
                      NUMBER OF CONTRACTED GTOS   4    2
                      NUMBER OF CLOSED SHELLS     2    0
                      OPEN SHELL OCCUPATION       0    4

  ZNUC  SCFIT    TOTAL HF ENERGY   KINETIC ENERGY   VIRIAL THEOREM ACCURACY
   8.0    12    -7.477373220E+01  7.477365593E+01 -2.000001020E+00  3.8E-06

 AAAAAAAAAAAAAAAAAAAAAAAAAAAAAAAAAAAAAAAAAAAAAAAAAAAAAAAAAAAAAAAAAAAAAAAAAAAAAAA

 CHARGE NORMALIZATION FACTOR   1.00000000
 TOTAL ATOMIC CHARGES:
   5.0000000   5.0000000   5.0000000   5.0000000   5.0000000   5.0000000
   5.0000000   5.0000000   5.0000000   5.0000000   5.0000000   5.0000000
   1.0000000   1.0000000   1.0000000   1.0000000   1.0000000   1.0000000
   1.0000000   1.0000000   1.0000000   1.0000000   1.0000000   1.0000000
   1.0000000   1.0000000   1.0000000   1.0000000   1.0000000   1.0000000
   1.0000000   1.0000000   1.0000000   1.0000000   1.0000000   1.0000000
   6.0000000   6.0000000   6.0000000   6.0000000   6.0000000   6.0000000
   6.0000000   6.0000000   6.0000000   6.0000000   6.0000000   6.0000000
   6.0000000   6.0000000   6.0000000   6.0000000   6.0000000   6.0000000
   6.0000000   6.0000000   6.0000000   6.0000000   6.0000000   6.0000000
   6.0000000   6.0000000   6.0000000   6.0000000   6.0000000   6.0000000
   6.0000000   6.0000000   6.0000000   6.0000000   6.0000000   6.0000000
   8.0000000   8.0000000   8.0000000   8.0000000   8.0000000   8.0000000
   8.0000000   8.0000000   8.0000000   8.0000000   8.0000000   8.0000000
 TTTTTTTTTTTTTTTTTTTTTTTTTTTTTT MOQGAD      TELAPSE       28.82 TCPU       57.43
 TTTTTTTTTTTTTTTTTTTTTTTTTTTTTT SHELLXN     TELAPSE       53.10 TCPU      833.45
 TTTTTTTTTTTTTTTTTTTTTTTTTTTTTT MONMO3      TELAPSE       53.77 TCPU      854.95
 NUMERICALLY INTEGRATED DENSITY    395.9998573114
 TTTTTTTTTTTTTTTTTTTTTTTTTTTTTT NUMDFT      TELAPSE       55.36 TCPU      905.73
 CYC   0 ETOT(AU) -2.591952596551E+03 DETOT -2.59E+03 tst  0.00E+00 PX  1.00E+00
 TTTTTTTTTTTTTTTTTTTTTTTTTTTTTT DIIS        TELAPSE       55.47 TCPU      909.12
 TTTTTTTTTTTTTTTTTTTTTTTTTTTTTT FDIK        TELAPSE       57.27 TCPU      966.54
 INSULATING STATE
 TOP OF VALENCE BANDS -    BAND    198; K    1; EIG -2.9570325E-01 AU
 BOTTOM OF VIRTUAL BANDS - BAND    199; K    1; EIG -1.7878173E-01 AU
 DIRECT ENERGY BAND GAP:   3.1816 eV
 TTTTTTTTTTTTTTTTTTTTTTTTTTTTTT PDIG        TELAPSE       58.89 TCPU      973.54
 CHARGE NORMALIZATION FACTOR   1.00000000
 TOTAL ATOMIC CHARGES:
   4.1233809   4.1233809   4.1232280   4.1232280   4.1234891   4.1234891
   4.1232484   4.1232484   4.1230582   4.1230582   4.1232554   4.1232554
   0.7862810   0.7862810   0.7863903   0.7863903   0.7862383   0.7862383
   0.7863521   0.7863521   0.7862607   0.7862607   0.7864195   0.7864195
   0.7862507   0.7862507   0.7863829   0.7863829   0.7862407   0.7862407
   0.7864192   0.7864192   0.7862324   0.7862324   0.7863849   0.7863849
   6.0567127   6.0567127   6.2718970   6.2718970   6.2718356   6.2718356
   6.2718375   6.2718375   6.2717612   6.2717612   6.0559159   6.0559159
   6.0567585   6.0567585   6.2718748   6.2718748   6.2719328   6.2719328
   6.2717863   6.2717863   6.2719445   6.2719445   6.0554403   6.0554403
   6.0570853   6.0570853   6.2716002   6.2716002   6.2721451   6.2721451
   6.2715148   6.2715148   6.2721224   6.2721224   6.0554205   6.0554205
   8.7038820   8.7038820   8.7040132   8.7040132   8.7039381   8.7039381
   8.7042758   8.7042758   8.7043304   8.7043304   8.7044626   8.7044626
 TTTTTTTTTTTTTTTTTTTTTTTTTTTTTT MOQGAD      TELAPSE       59.00 TCPU      973.65
 TTTTTTTTTTTTTTTTTTTTTTTTTTTTTT SHELLXN     TELAPSE       84.32 TCPU     1781.60
 TTTTTTTTTTTTTTTTTTTTTTTTTTTTTT MONMO3      TELAPSE       84.98 TCPU     1802.88
 NUMERICALLY INTEGRATED DENSITY    395.9998993389
 TTTTTTTTTTTTTTTTTTTTTTTTTTTTTT NUMDFT      TELAPSE       86.60 TCPU     1854.50
 CYC   1 ETOT(AU) -2.577604856732E+03 DETOT  1.43E+01 tst  0.00E+00 PX  1.00E+00
 TTTTTTTTTTTTTTTTTTTTTTTTTTTTTT DIIS        TELAPSE       86.74 TCPU     1858.96
 DIIS TEST: 0.23340E+01 AT SCF   CYCLE   1 - MIX   30 %
 TTTTTTTTTTTTTTTTTTTTTTTTTTTTTT FDIK        TELAPSE       88.58 TCPU     1917.81
 INSULATING STATE
 TOP OF VALENCE BANDS -    BAND    198; K    1; EIG -1.9372761E-01 AU
 BOTTOM OF VIRTUAL BANDS - BAND    199; K    1; EIG -1.0292662E-01 AU
 DIRECT ENERGY BAND GAP:   2.4708 eV
 TTTTTTTTTTTTTTTTTTTTTTTTTTTTTT PDIG        TELAPSE       90.20 TCPU     1924.81
 CHARGE NORMALIZATION FACTOR   1.00000000
 TOTAL ATOMIC CHARGES:
   4.6941381   4.6941381   4.6940797   4.6940797   4.6941169   4.6941169
   4.6947037   4.6947037   4.6946898   4.6946898   4.6948294   4.6948294
   0.9239218   0.9239218   0.9239717   0.9239717   0.9238802   0.9238802
   0.9239370   0.9239370   0.9239044   0.9239044   0.9239938   0.9239938
   0.9238931   0.9238931   0.9239619   0.9239619   0.9238762   0.9238762
   0.9240128   0.9240128   0.9238577   0.9238577   0.9239940   0.9239940
   5.8660818   5.8660818   6.1213053   6.1213053   6.1218515   6.1218515
   6.1211818   6.1211818   6.1218544   6.1218544   5.8690103   5.8690103
   5.8659328   5.8659328   6.1210147   6.1210147   6.1218735   6.1218735
   6.1212661   6.1212661   6.1217285   6.1217285   5.8694431   5.8694431
   5.8660260   5.8660260   6.1212302   6.1212302   6.1217039   6.1217039
   6.1215353   6.1215353   6.1216135   6.1216135   5.8691807   5.8691807
   8.3469017   8.3469017   8.3473164   8.3473164   8.3472629   8.3472629
   8.3467455   8.3467455   8.3469760   8.3469760   8.3472020   8.3472020
 TTTTTTTTTTTTTTTTTTTTTTTTTTTTTT MOQGAD      TELAPSE       90.31 TCPU     1924.92
 TTTTTTTTTTTTTTTTTTTTTTTTTTTTTT SHELLXN     TELAPSE      114.66 TCPU     2701.91
 TTTTTTTTTTTTTTTTTTTTTTTTTTTTTT MONMO3      TELAPSE      115.31 TCPU     2722.81
 NUMERICALLY INTEGRATED DENSITY    395.9998927054
 TTTTTTTTTTTTTTTTTTTTTTTTTTTTTT NUMDFT      TELAPSE      116.90 TCPU     2773.53
 CYC   2 ETOT(AU) -2.577991783770E+03 DETOT -3.87E-01 tst  4.84E-03 PX  1.56E-01
 TTTTTTTTTTTTTTTTTTTTTTTTTTTTTT DIIS        TELAPSE      117.05 TCPU     2778.49
 DIIS TEST: 0.10267E+01 AT SCF   CYCLE   2 - DIIS ACTIVE - HISTORY:     2 CYCLES
 TTTTTTTTTTTTTTTTTTTTTTTTTTTTTT FDIK        TELAPSE      118.86 TCPU     2836.33
 INSULATING STATE
 TOP OF VALENCE BANDS -    BAND    198; K    1; EIG -2.1214695E-01 AU
 BOTTOM OF VIRTUAL BANDS - BAND    199; K    1; EIG -9.7933701E-02 AU
 DIRECT ENERGY BAND GAP:   3.1079 eV
 TTTTTTTTTTTTTTTTTTTTTTTTTTTTTT PDIG        TELAPSE      120.48 TCPU     2843.32
 CHARGE NORMALIZATION FACTOR   1.00000000
 TOTAL ATOMIC CHARGES:
   4.4710612   4.4710612   4.4709161   4.4709161   4.4710951   4.4710951
   4.4703521   4.4703521   4.4701402   4.4701402   4.4702778   4.4702778
   0.8935530   0.8935530   0.8936403   0.8936403   0.8934912   0.8934912
   0.8936256   0.8936256   0.8934693   0.8934693   0.8937165   0.8937165
   0.8935280   0.8935280   0.8936164   0.8936164   0.8935015   0.8935015
   0.8936874   0.8936874   0.8935498   0.8935498   0.8936209   0.8936209
   5.8985061   5.8985061   6.1657668   6.1657668   6.1648008   6.1648008
   6.1656982   6.1656982   6.1647410   6.1647410   5.8965210   5.8965210
   5.8987562   5.8987562   6.1657837   6.1657837   6.1647803   6.1647803
   6.1657985   6.1657985   6.1647211   6.1647211   5.8961303   5.8961303
   5.8988554   5.8988554   6.1656022   6.1656022   6.1649035   6.1649035
   6.1656875   6.1656875   6.1648279   6.1648279   5.8961006   5.8961006
   8.5140542   8.5140542   8.5142180   8.5142180   8.5141877   8.5141877
   8.5141363   8.5141363   8.5142457   8.5142457   8.5143346   8.5143346
 TTTTTTTTTTTTTTTTTTTTTTTTTTTTTT MOQGAD      TELAPSE      120.59 TCPU     2843.43
 TTTTTTTTTTTTTTTTTTTTTTTTTTTTTT SHELLXN     TELAPSE      144.94 TCPU     3620.58
 TTTTTTTTTTTTTTTTTTTTTTTTTTTTTT MONMO3      TELAPSE      145.59 TCPU     3641.48
 NUMERICALLY INTEGRATED DENSITY    395.9998910616
 TTTTTTTTTTTTTTTTTTTTTTTTTTTTTT NUMDFT      TELAPSE      147.18 TCPU     3692.23
 CYC   3 ETOT(AU) -2.578203097449E+03 DETOT -2.11E-01 tst  7.35E-04 PX  5.77E-02
 TTTTTTTTTTTTTTTTTTTTTTTTTTTTTT DIIS        TELAPSE      147.36 TCPU     3697.86
 DIIS TEST: 0.20490E-01 AT SCF   CYCLE   3 - DIIS ACTIVE - HISTORY:     3 CYCLES
 TTTTTTTTTTTTTTTTTTTTTTTTTTTTTT FDIK        TELAPSE      149.17 TCPU     3755.82
 INSULATING STATE
 TOP OF VALENCE BANDS -    BAND    198; K    1; EIG -2.2073799E-01 AU
 BOTTOM OF VIRTUAL BANDS - BAND    199; K    1; EIG -1.0831056E-01 AU
 DIRECT ENERGY BAND GAP:   3.0593 eV
 TTTTTTTTTTTTTTTTTTTTTTTTTTTTTT PDIG        TELAPSE      150.79 TCPU     3762.82
 CHARGE NORMALIZATION FACTOR   1.00000000
 TOTAL ATOMIC CHARGES:
   4.4802773   4.4802773   4.4802119   4.4802119   4.4803404   4.4803404
   4.4812472   4.4812472   4.4810886   4.4810886   4.4812683   4.4812683
   0.8784733   0.8784733   0.8784883   0.8784883   0.8784168   0.8784168
   0.8784602   0.8784602   0.8784447   0.8784447   0.8785170   0.8785170
   0.8784649   0.8784649   0.8784506   0.8784506   0.8784371   0.8784371
   0.8785184   0.8785184   0.8784513   0.8784513   0.8784786   0.8784786
   5.9504279   5.9504279   6.1585241   6.1585241   6.1603311   6.1603311
   6.1584352   6.1584352   6.1603701   6.1603701   5.9562634   5.9562634
   5.9501456   5.9501456   6.1582852   6.1582852   6.1604896   6.1604896
   6.1583057   6.1583057   6.1604811   6.1604811   5.9565774   5.9565774
   5.9503683   5.9503683   6.1583082   6.1583082   6.1604612   6.1604612
   6.1583851   6.1583851   6.1604589   6.1604589   5.9563230   5.9563230
   8.4898863   8.4898863   8.4902170   8.4902170   8.4901695   8.4901695
   8.4900598   8.4900598   8.4902178   8.4902178   8.4904735   8.4904735
 TTTTTTTTTTTTTTTTTTTTTTTTTTTTTT MOQGAD      TELAPSE      150.89 TCPU     3762.93
 TTTTTTTTTTTTTTTTTTTTTTTTTTTTTT SHELLXN     TELAPSE      176.01 TCPU     4564.33
 TTTTTTTTTTTTTTTTTTTTTTTTTTTTTT MONMO3      TELAPSE      176.68 TCPU     4585.90
 NUMERICALLY INTEGRATED DENSITY    395.9998924873
 TTTTTTTTTTTTTTTTTTTTTTTTTTTTTT NUMDFT      TELAPSE      178.30 TCPU     4637.57
 CYC   4 ETOT(AU) -2.578207073392E+03 DETOT -3.98E-03 tst  3.24E-05 PX  1.29E-02
 TTTTTTTTTTTTTTTTTTTTTTTTTTTTTT DIIS        TELAPSE      178.50 TCPU     4644.01
 DIIS TEST: 0.72350E-02 AT SCF   CYCLE   4 - DIIS ACTIVE - HISTORY:     4 CYCLES
 TTTTTTTTTTTTTTTTTTTTTTTTTTTTTT FDIK        TELAPSE      180.34 TCPU     4702.80
 INSULATING STATE
 TOP OF VALENCE BANDS -    BAND    198; K    1; EIG -2.1969719E-01 AU
 BOTTOM OF VIRTUAL BANDS - BAND    199; K    1; EIG -1.0676879E-01 AU
 DIRECT ENERGY BAND GAP:   3.0729 eV
 TTTTTTTTTTTTTTTTTTTTTTTTTTTTTT PDIG        TELAPSE      181.93 TCPU     4709.77
 CHARGE NORMALIZATION FACTOR   1.00000000
 TOTAL ATOMIC CHARGES:
   4.4823470   4.4823470   4.4822210   4.4822210   4.4823841   4.4823841
   4.4814407   4.4814407   4.4812557   4.4812557   4.4814019   4.4814019
   0.8812243   0.8812243   0.8813890   0.8813890   0.8811577   0.8811577
   0.8813754   0.8813754   0.8811492   0.8811492   0.8814605   0.8814605
   0.8811813   0.8811813   0.8813827   0.8813827   0.8811638   0.8811638
   0.8814440   0.8814440   0.8811901   0.8811901   0.8813924   0.8813924
   5.9276778   5.9276778   6.1673350   6.1673350   6.1652210   6.1652210
   6.1672685   6.1672685   6.1651899   6.1651899   5.9227032   5.9227032
   5.9279472   5.9279472   6.1673062   6.1673062   6.1651995   6.1651995
   6.1674243   6.1674243   6.1650691   6.1650691   5.9223892   5.9223892
   5.9280049   5.9280049   6.1671912   6.1671912   6.1652847   6.1652847
   6.1673843   6.1673843   6.1651418   6.1651418   5.9223422   5.9223422
   8.4978422   8.4978422   8.4980339   8.4980339   8.4979869   8.4979869
   8.4977067   8.4977067   8.4978473   8.4978473   8.4979422   8.4979422
 TTTTTTTTTTTTTTTTTTTTTTTTTTTTTT MOQGAD      TELAPSE      182.04 TCPU     4709.87
 TTTTTTTTTTTTTTTTTTTTTTTTTTTTTT SHELLXN     TELAPSE      207.32 TCPU     5516.34
 TTTTTTTTTTTTTTTTTTTTTTTTTTTTTT MONMO3      TELAPSE      207.99 TCPU     5537.97
 NUMERICALLY INTEGRATED DENSITY    395.9998925807
 TTTTTTTTTTTTTTTTTTTTTTTTTTTTTT NUMDFT      TELAPSE      209.61 TCPU     5589.63
 CYC   5 ETOT(AU) -2.578208588652E+03 DETOT -1.52E-03 tst  8.15E-06 PX  7.91E-03
 TTTTTTTTTTTTTTTTTTTTTTTTTTTTTT DIIS        TELAPSE      209.84 TCPU     5596.54
 DIIS TEST: 0.46074E-03 AT SCF   CYCLE   5 - DIIS ACTIVE - HISTORY:     5 CYCLES
 TTTTTTTTTTTTTTTTTTTTTTTTTTTTTT FDIK        TELAPSE      211.69 TCPU     5655.21
 INSULATING STATE
 TOP OF VALENCE BANDS -    BAND    198; K    1; EIG -2.1933573E-01 AU
 BOTTOM OF VIRTUAL BANDS - BAND    199; K    1; EIG -1.0627963E-01 AU
 DIRECT ENERGY BAND GAP:   3.0764 eV
 TTTTTTTTTTTTTTTTTTTTTTTTTTTTTT PDIG        TELAPSE      213.29 TCPU     5662.20
 CHARGE NORMALIZATION FACTOR   1.00000000
 TOTAL ATOMIC CHARGES:
   4.4807124   4.4807124   4.4806309   4.4806309   4.4807661   4.4807661
   4.4821242   4.4821242   4.4819627   4.4819627   4.4821296   4.4821296
   0.8824495   0.8824495   0.8823799   0.8823799   0.8823920   0.8823919
   0.8823574   0.8823574   0.8824041   0.8824041   0.8824223   0.8824223
   0.8824415   0.8824415   0.8823408   0.8823408   0.8824092   0.8824092
   0.8824167   0.8824167   0.8824393   0.8824393   0.8823625   0.8823625
   5.9225143   5.9225143   6.1629618   6.1629618   6.1662450   6.1662450
   6.1628827   6.1628827   6.1662316   6.1662316   5.9321199   5.9321199
   5.9222991   5.9222991   6.1628032   6.1628032   6.1663508   6.1663508
   6.1627339   6.1627339   6.1664046   6.1664046   5.9322990   5.9322990
   5.9225184   5.9225184   6.1627720   6.1627720   6.1663538   6.1663538
   6.1627485   6.1627485   6.1664223   6.1664223   5.9320883   5.9320883
   8.4969773   8.4969773   8.4972815   8.4972815   8.4972505   8.4972505
   8.4973693   8.4973693   8.4974980   8.4974980   8.4977333   8.4977333
 TTTTTTTTTTTTTTTTTTTTTTTTTTTTTT MOQGAD      TELAPSE      213.40 TCPU     5662.31
 TTTTTTTTTTTTTTTTTTTTTTTTTTTTTT SHELLXN     TELAPSE      238.78 TCPU     6472.26
 TTTTTTTTTTTTTTTTTTTTTTTTTTTTTT MONMO3      TELAPSE      239.44 TCPU     6493.37
 NUMERICALLY INTEGRATED DENSITY    395.9998924933
 TTTTTTTTTTTTTTTTTTTTTTTTTTTTTT NUMDFT      TELAPSE      241.04 TCPU     6544.38
 CYC   6 ETOT(AU) -2.578208537324E+03 DETOT  5.13E-05 tst  3.83E-06 PX  2.30E-03
 TTTTTTTTTTTTTTTTTTTTTTTTTTTTTT DIIS        TELAPSE      241.28 TCPU     6551.20
 DIIS TEST: 0.64311E-03 AT SCF   CYCLE   6 - DIIS ACTIVE - HISTORY:     6 CYCLES
 TTTTTTTTTTTTTTTTTTTTTTTTTTTTTT FDIK        TELAPSE      243.07 TCPU     6608.13
 INSULATING STATE
 TOP OF VALENCE BANDS -    BAND    198; K    1; EIG -2.1933965E-01 AU
 BOTTOM OF VIRTUAL BANDS - BAND    199; K    1; EIG -1.0628837E-01 AU
 DIRECT ENERGY BAND GAP:   3.0763 eV
 TTTTTTTTTTTTTTTTTTTTTTTTTTTTTT PDIG        TELAPSE      244.67 TCPU     6615.11
 CHARGE NORMALIZATION FACTOR   1.00000000
 TOTAL ATOMIC CHARGES:
   4.4815781   4.4815781   4.4814771   4.4814771   4.4816254   4.4816254
   4.4814760   4.4814760   4.4813026   4.4813026   4.4814620   4.4814620
   0.8823958   0.8823958   0.8824862   0.8824862   0.8823356   0.8823356
   0.8824658   0.8824658   0.8823412   0.8823412   0.8825378   0.8825378
   0.8823732   0.8823732   0.8824610   0.8824610   0.8823499   0.8823499
   0.8825274   0.8825274   0.8823745   0.8823745   0.8824783   0.8824783
   5.9280139   5.9280139   6.1644485   6.1644485   6.1641585   6.1641585
   6.1643653   6.1643653   6.1641515   6.1641515   5.9280772   5.9280772
   5.9280125   5.9280125   6.1643240   6.1643240   6.1642280   6.1642280
   6.1643753   6.1643753   6.1641676   6.1641676   5.9280436   5.9280436
   5.9281646   5.9281646   6.1642564   6.1642564   6.1642694   6.1642694
   6.1643735   6.1643735   6.1642033   6.1642033   5.9278984   5.9278984
   8.4968973   8.4968973   8.4971463   8.4971463   8.4971040   8.4971040
   8.4969418   8.4969418   8.4970819   8.4970819   8.4972493   8.4972493
 TTTTTTTTTTTTTTTTTTTTTTTTTTTTTT MOQGAD      TELAPSE      244.77 TCPU     6615.22
 TTTTTTTTTTTTTTTTTTTTTTTTTTTTTT SHELLXN     TELAPSE      270.03 TCPU     7421.31
 TTTTTTTTTTTTTTTTTTTTTTTTTTTTTT MONMO3      TELAPSE      270.69 TCPU     7442.24
 NUMERICALLY INTEGRATED DENSITY    395.9998924841
 TTTTTTTTTTTTTTTTTTTTTTTTTTTTTT NUMDFT      TELAPSE      272.28 TCPU     7493.06
 CYC   7 ETOT(AU) -2.578208698256E+03 DETOT -1.61E-04 tst  1.60E-06 PX  1.38E-03
 TTTTTTTTTTTTTTTTTTTTTTTTTTTTTT DIIS        TELAPSE      272.55 TCPU     7499.98
 DIIS TEST: 0.54936E-05 AT SCF   CYCLE   7 - DIIS ACTIVE - HISTORY:     7 CYCLES
 TTTTTTTTTTTTTTTTTTTTTTTTTTTTTT FDIK        TELAPSE      274.37 TCPU     7557.77
 INSULATING STATE
 TOP OF VALENCE BANDS -    BAND    198; K    1; EIG -2.1939337E-01 AU
 BOTTOM OF VIRTUAL BANDS - BAND    199; K    1; EIG -1.0637136E-01 AU
 DIRECT ENERGY BAND GAP:   3.0755 eV
 TTTTTTTTTTTTTTTTTTTTTTTTTTTTTT PDIG        TELAPSE      275.97 TCPU     7564.76
 CHARGE NORMALIZATION FACTOR   1.00000000
 TOTAL ATOMIC CHARGES:
   4.4817795   4.4817795   4.4816686   4.4816686   4.4818224   4.4818224
   4.4817735   4.4817735   4.4815956   4.4815956   4.4817496   4.4817496
   0.8822699   0.8822699   0.8823408   0.8823408   0.8822066   0.8822066
   0.8823236   0.8823236   0.8822056   0.8822056   0.8824019   0.8824019
   0.8822395   0.8822395   0.8823230   0.8823230   0.8822167   0.8822167
   0.8823892   0.8823892   0.8822442   0.8822442   0.8823370   0.8823370
   5.9273361   5.9273361   6.1644904   6.1644904   6.1644782   6.1644782
   6.1644199   6.1644199   6.1644569   6.1644569   5.9280628   5.9280628
   5.9274372   5.9274372   6.1644141   6.1644141   6.1645014   6.1645014
   6.1644733   6.1644733   6.1644305   6.1644305   5.9279257   5.9279257
   5.9275503   5.9275503   6.1643311   6.1643311   6.1645571   6.1645571
   6.1644555   6.1644555   6.1644825   6.1644825   5.9278194   5.9278194
   8.4969101   8.4969101   8.4971433   8.4971433   8.4971000   8.4971000
   8.4969709   8.4969709   8.4971104   8.4971104   8.4972558   8.4972558
 TTTTTTTTTTTTTTTTTTTTTTTTTTTTTT MOQGAD      TELAPSE      276.08 TCPU     7564.87
 TTTTTTTTTTTTTTTTTTTTTTTTTTTTTT SHELLXN     TELAPSE      301.42 TCPU     8373.58
 TTTTTTTTTTTTTTTTTTTTTTTTTTTTTT MONMO3      TELAPSE      302.08 TCPU     8394.48
 NUMERICALLY INTEGRATED DENSITY    395.9998924821
 TTTTTTTTTTTTTTTTTTTTTTTTTTTTTT NUMDFT      TELAPSE      303.67 TCPU     8445.33
 CYC   8 ETOT(AU) -2.578208699574E+03 DETOT -1.32E-06 tst  6.37E-09 PX  1.64E-04
 TTTTTTTTTTTTTTTTTTTTTTTTTTTTTT DIIS        TELAPSE      303.96 TCPU     8452.23
 DIIS TEST: 0.75113E-07 AT SCF   CYCLE   8 - DIIS ACTIVE - HISTORY:     8 CYCLES
 TTTTTTTTTTTTTTTTTTTTTTTTTTTTTT FDIK        TELAPSE      305.78 TCPU     8510.27
 INSULATING STATE
 TOP OF VALENCE BANDS -    BAND    198; K    1; EIG -2.1938767E-01 AU
 BOTTOM OF VIRTUAL BANDS - BAND    199; K    1; EIG -1.0636624E-01 AU
 DIRECT ENERGY BAND GAP:   3.0755 eV
 TTTTTTTTTTTTTTTTTTTTTTTTTTTTTT PDIG        TELAPSE      307.38 TCPU     8517.25
 CHARGE NORMALIZATION FACTOR   1.00000000
 TOTAL ATOMIC CHARGES:
   4.4817263   4.4817263   4.4816323   4.4816323   4.4817760   4.4817760
   4.4817147   4.4817147   4.4815460   4.4815460   4.4817073   4.4817073
   0.8822692   0.8822692   0.8823548   0.8823548   0.8822099   0.8822098
   0.8823336   0.8823336   0.8822177   0.8822177   0.8824032   0.8824032
   0.8822505   0.8822505   0.8823255   0.8823255   0.8822251   0.8822251
   0.8823942   0.8823942   0.8822505   0.8822505   0.8823442   0.8823442
   5.9274937   5.9274937   6.1645154   6.1645154   6.1644028   6.1644028
   6.1644323   6.1644323   6.1643952   6.1643952   5.9280299   5.9280299
   5.9274304   5.9274304   6.1643783   6.1643783   6.1644851   6.1644851
   6.1643986   6.1643986   6.1644556   6.1644556   5.9280580   5.9280580
   5.9276012   5.9276012   6.1643217   6.1643217   6.1645151   6.1645151
   6.1644029   6.1644029   6.1644849   6.1644849   5.9278942   5.9278942
   8.4969115   8.4969115   8.4971748   8.4971748   8.4971362   8.4971362
   8.4969811   8.4969811   8.4971173   8.4971173   8.4973028   8.4973028
 TTTTTTTTTTTTTTTTTTTTTTTTTTTTTT MOQGAD      TELAPSE      307.49 TCPU     8517.36
 TTTTTTTTTTTTTTTTTTTTTTTTTTTTTT SHELLXN     TELAPSE      332.72 TCPU     9322.31
 TTTTTTTTTTTTTTTTTTTTTTTTTTTTTT MONMO3      TELAPSE      333.37 TCPU     9343.20
 NUMERICALLY INTEGRATED DENSITY    395.9998924810
 TTTTTTTTTTTTTTTTTTTTTTTTTTTTTT NUMDFT      TELAPSE      334.99 TCPU     9394.99
 CYC   9 ETOT(AU) -2.578208699565E+03 DETOT  8.85E-09 tst  3.17E-10 PX  3.09E-05
 TTTTTTTTTTTTTTTTTTTTTTTTTTTTTT DIIS        TELAPSE      335.31 TCPU     9401.96
 DIIS TEST: 0.53918E-07 AT SCF   CYCLE   9 - DIIS ACTIVE - HISTORY:     9 CYCLES
 TTTTTTTTTTTTTTTTTTTTTTTTTTTTTT FDIK        TELAPSE      337.17 TCPU     9461.02
 INSULATING STATE
 TOP OF VALENCE BANDS -    BAND    198; K    1; EIG -2.1938906E-01 AU
 BOTTOM OF VIRTUAL BANDS - BAND    199; K    1; EIG -1.0636541E-01 AU
 DIRECT ENERGY BAND GAP:   3.0755 eV
 TTTTTTTTTTTTTTTTTTTTTTTTTTTTTT PDIG        TELAPSE      338.78 TCPU     9468.01
 CHARGE NORMALIZATION FACTOR   1.00000000
 TOTAL ATOMIC CHARGES:
   4.4817301   4.4817301   4.4816242   4.4816242   4.4817752   4.4817752
   4.4817198   4.4817198   4.4815441   4.4815441   4.4817008   4.4817008
   0.8822725   0.8822725   0.8823487   0.8823487   0.8822109   0.8822109
   0.8823299   0.8823299   0.8822133   0.8822133   0.8824048   0.8824048
   0.8822458   0.8822458   0.8823275   0.8823275   0.8822233   0.8822233
   0.8823933   0.8823933   0.8822488   0.8822488   0.8823432   0.8823432
   5.9274256   5.9274256   6.1644889   6.1644889   6.1644406   6.1644406
   6.1644107   6.1644107   6.1644275   6.1644275   5.9280926   5.9280926
   5.9274784   5.9274784   6.1643869   6.1643869   6.1644886   6.1644886
   6.1644465   6.1644465   6.1644185   6.1644185   5.9280041   5.9280041
   5.9276105   5.9276105   6.1643107   6.1643107   6.1645379   6.1645379
   6.1644369   6.1644369   6.1644620   6.1644620   5.9278789   5.9278789
   8.4969242   8.4969242   8.4971638   8.4971638   8.4971206   8.4971206
   8.4969849   8.4969849   8.4971250   8.4971250   8.4972795   8.4972795
 TTTTTTTTTTTTTTTTTTTTTTTTTTTTTT MOQGAD      TELAPSE      338.90 TCPU     9468.12
 TTTTTTTTTTTTTTTTTTTTTTTTTTTTTT SHELLXN     TELAPSE      364.06 TCPU    10270.98
 +++ ENERGIES IN A.U. +++
 ::: EXT EL-POLE                                  -2.7783321787461E+03
 ::: EXT EL-SPHEROPOLE                             3.1795724741119E+01
 ::: BIELET ZONE E-E                               4.6873007792597E+03
 ::: TOTAL E-E                                     1.9407643252548E+03
 ::: TOTAL E-N + N-E                              -7.5334197364350E+03
 ::: TOTAL N-N                                     7.2195968742151E+02
 ::: KINETIC ENERGY                                2.5599284227269E+03
 ::: PSEUDO TOTAL   ENERGY                        -2.3107673010318E+03
 ::: VIRIAL COEFFICIENT                            1.0511551400100E+00
 TTTTTTTTTTTTTTTTTTTTTTTTTTTTTT MONMO3      TELAPSE      364.74 TCPU    10292.54
 NUMERICALLY INTEGRATED DENSITY    395.9998924810
 EXCHANGE ENERGY: -0.252040812134E+03  CORRELATION ENERGY: -0.154005864284E+02
 TTTTTTTTTTTTTTTTTTTTTTTTTTTTTT NUMDFT      TELAPSE      366.37 TCPU    10344.62
 CYC  10 ETOT(AU) -2.578208699594E+03 DETOT -2.94E-08 tst  1.45E-10 PX  3.09E-05

 == SCF ENDED - CONVERGENCE ON ENERGY      E(AU) -2.5782086995944E+03 CYCLES  10


 ENERGY EXPRESSION=HARTREE+FOCK EXCH*0.00000+(HSESOL     EXCH)*1.00000+PBESOL     CORR


 TOTAL ENERGY(DFT)(AU)( 10) -2.5782086995944E+03 DE-2.9E-08 tester 1.4E-10
 TTTTTTTTTTTTTTTTTTTTTTTTTTTTTT EDFT        TELAPSE      366.37 TCPU    10344.63
 
 INFORMATION **** DFTD3 ENERGY **** CALCULATE DFTD3 ENERGY

           DFT-D V3(BJ)
 DF                                         hsesol3c  
 parameters
 s6       :    1.0000
 s8       :    0.0000
 a1       :    0.5196
 a2       :    4.9385
 k1 k3    :   16.0000   -4.0000
 Cutoff   :   50.2022
 CN-Cutoff:   21.1671
 ABC-Cutoff:   21.1671
 
 Edisp /kcal,au:   -59.4307 -0.09470884

 E6    /kcal :   -63.6258
 E8    /kcal :     0.0000
 E6(ABC) "   :   4.195093
 
 INFORMATION **** DFTD3 ENERGY **** NORMAL TERMINATION OF DFTD3 MODULE

 GCP ENERGY CALCULATION
  level        hsesol3c            basis:hsesol3c
  Nbf            948
  Atoms           84

  Parameters: 
  sigma     1.0000
  eta       1.4281
  alpha     0.2936
  beta      1.9467

  dmp_scal      4.0000
  dmp_exp       6.0000
 cutoffs: 
   distance [bohr] 60.0
   noise    [a.u.] 2.2E-16
 SR-damping   T
 ** gCP correction **
  Egcp:        0.1669299638 / (a.u.) ||     104.7501 / (kcal/mol)
 INFORMATION **** GCP **** NORMAL TERMINATION OF GCP MODULE

 *******************************************************************************

 DFT-D3-GCP DISPERSION AND COUNTERPOISE CORRECTION

 D3 DISPERSION ENERGY (AU)      -9.4708837804722E-02
 GCP ENERGY (AU)                 1.6692996383210E-01
 TOTAL ENERGY + DISP + GCP (AU) -2.5781364784684E+03

 *******************************************************************************

 EIGENVECTORS IN FORTRAN UNIT  8
 TTTTTTTTTTTTTTTTTTTTTTTTTTTTTT END         TELAPSE      369.59 TCPU    10353.75
 EEEEEEEEEE TERMINATION  DATE 19 02 2026 TIME 20:17:27.0
