 Default number of threads is:           32

         
 *******************************************************************************
 *                                                                             *
 *                               CRYSTAL23                                     *
 *                      public : 1.0.1 - October 2022                          *
 *                       HTTP://WWW.CRYSTAL.UNITO.IT                           *
 *                                                                             *
 *                              MAIN AUTHORS                                   *
 *                                                                             *
 *  R. DOVESI(1,11), V.R. SAUNDERS(2), C. ROETTI(1,11), R. ORLANDO(1,11),      *
 *  C.M. ZICOVICH-WILSON(1,3), F. PASCALE(4), B. CIVALLERI(1,11),              *
 *  K. DOLL(5), N.M. HARRISON(6), I.J. BUSH(7), Ph. D'ARCO(8),                 *
 *  M. LLUNELL(9), M. CAUSA'(10), Y. NOEL(8), L. MASCHIO(1,11), A. ERBA(1,11)  *
 *  M. RE'RAT(14), S. CASASSA(1,11), B.G. SEARLE(2), J.K. DESMARAIS(1)         *
 *                                                                             *
 *        CONTRIBUTIONS TO THE CODE HAVE ALSO BEEN GIVEN BY                    *
 *                                                                             *
 *  M. FERRABONE(1,11), M. DE LA PIERRE(1,11), M. FERRERO(1,11),               *
 *  J. BAIMA(1,11), E. ALBANESE(1,11), M.F. PEINTINGER(12), R. BAST(13),       *
 *  B. KIRTMAN(15), V. LACIVITA(1,11), R. DEMICHELIS(1,16)                     *
 *  G. BRANDEBURG(17), S. SALUSTRO(1,11), G. SANSONE(1,11)                     *
 *  M.T. RUGGIERO(18), L.E. DAGA(1), L. DONA'(1), A. COSSARD(1)                *
 *                                                                             *
 * (1) THEORETICAL CHEMISTRY GROUP - UNIVERSITA' DI TORINO - TORINO (ITALY)    *
 * (2) SCIENTIFIC COMPUTING DEPARTMENT - STFC DARESBURY (UK)                   *
 * (3) UNIVERSIDAD AUTONOMA DEL ESTADO DE MORELOS - CUERNAVACA (MEXICO)        *
 * (4) UNIVERSITE' DE LORRAINE - NANCY (FRANCE)                                *
 * (5) UNIVERSITAET STUTTGART- STUTTGART (GERMANY)                             *
 * (6) IMPERIAL COLLEGE - LONDON (UK)                                          *
 * (7) SCIENTIFIC COMPUTING DEPARTMENT - STFC RAL (UK)                         *
 * (8) UPMC - SORBONNE UNIVERSITES - PARIS (FRANCE)                            *
 * (9) UNIVERSIDAD DE BARCELONA - BARCELONA (SPAIN)                            *
 *(10) UNIVERSITA' DI NAPOLI "FEDERICO II" - NAPOLI (ITALY)                    *
 *(11) NIS - NANOSTRUCTURED INTERFACES AND SURFACES - TORINO (ITALY)           *
 *(12) MPI FUER CHEMISCHE ENERGIEKONVERSION - MUELHEIM AN DER RUHR (GERMANY)   *
 *(13) UNIVERSITY OF TROMSO - TROMSO (NORWAY)                                  *
 *(14) UNIVERSITE' DE PAU ET DES PAYS DE L'ADOUR - PAU (FRANCE)                *
 *(15) UNIVERSITY OF CALIFORNIA SANTA BARBARA - SANTA BARBARA (USA)            *
 *(16) CURTIN UNIVERSITY - PERTH (AUSTRALIA)                                   *
 *(17) UNIVERSITY COLLEGE LONDON - LONDON (UK)                                 *
 *(18) UNIVERSITY OF VERMONT - BURLINGTON (USA)                                *
 *                                                                             *
 *******************************************************************************
 EEEEEEEEEE STARTING  DATE 02 12 2025 TIME 07:59:18.7
 COF-5_z34_inc_L070                                                              

 CRYSTAL CALCULATION
 (INPUT ACCORDING TO THE INTERNATIONAL TABLES FOR X-RAY CRYSTALLOGRAPHY)
 CRYSTAL FAMILY                       :  TRICLINIC   
 CRYSTAL CLASS  (GROTH - 1921)        :  TRICLINIC PEDIAL                     

 SPACE GROUP (NONCENTROSYMMETRIC)     :  P 1             

 LATTICE PARAMETERS  (ANGSTROMS AND DEGREES) - CONVENTIONAL CELL
        A           B           C        ALPHA        BETA       GAMMA
    15.02070    15.04439     7.78203    38.87158    89.99969   120.05310


 NUMBER OF IRREDUCIBLE ATOMS IN THE CONVENTIONAL CELL:   42

 INPUT COORDINATES

 ATOM AT. N.              COORDINATES
   1   5     4.806347500000E-01 -4.103137000000E-02  5.006088600000E-01
   2   5     6.394114500000E-01  1.179899800000E-01  5.006188500000E-01
   3   5     4.805652800000E-01  1.184460000000E-01  4.991890100000E-01
   4   5     9.251548000000E-02  3.426752000000E-01  5.054034400000E-01
   5   5     2.499997900000E-01  3.400007500000E-01  5.094469700000E-01
   6   5     2.518807400000E-01  5.025458500000E-01  5.034818600000E-01
   7   1     7.683886900000E-01  3.834673000000E-02  5.045069200000E-01
   8   1    -3.403850000000E-02  4.264680400000E-01  4.929176100000E-01
   9   1     7.716165000000E-01  3.292428900000E-01  4.927793300000E-01
  10   1    -3.705561000000E-02  1.357923900000E-01  5.040755300000E-01
  11   1     4.584509400000E-01  6.321935400000E-01  5.041975800000E-01
  12   1     2.749127000000E-01 -1.672132800000E-01  4.945497000000E-01
  13   1     1.762200700000E-01  6.383724400000E-01  4.958564300000E-01
  14   1     5.570543500000E-01 -1.731159600000E-01  5.023364200000E-01
  15   1     4.597859100000E-01  4.229933300000E-01  4.977537300000E-01
  16   1     2.702424200000E-01  3.692790000000E-02  5.060361300000E-01
  17   1     1.729767500000E-01  1.330455000000E-01  5.056712800000E-01
  18   1     5.573256500000E-01  3.266323500000E-01  4.986871000000E-01
  19   6     7.587713600000E-01  1.775534500000E-01  5.003688800000E-01
  20   6     8.128194200000E-01  1.234276800000E-01  5.021348200000E-01
  21   6    -7.843991000000E-02  3.412002300000E-01  4.957424900000E-01
  22   6     8.144907100000E-01  2.874941000000E-01  4.960796200000E-01
  23   6    -7.997639000000E-02  1.773386300000E-01  5.014911700000E-01
  24   6    -2.488646000000E-02  2.861842500000E-01  4.993080900000E-01
  25   6     3.112837600000E-01  6.227990300000E-01  5.018502100000E-01
  26   6     4.190518300000E-01  6.770713400000E-01  5.022403500000E-01
  27   6     3.140149100000E-01 -2.125474800000E-01  4.969644600000E-01
  28   6     2.595950000000E-01  6.798960100000E-01  4.980830300000E-01
  29   6     4.735226700000E-01 -2.152895100000E-01  5.008030800000E-01
  30   6     4.212811100000E-01 -1.594232100000E-01  4.991789700000E-01
  31   6     3.113967400000E-01  2.847669500000E-01  4.999501100000E-01
  32   6     4.193946100000E-01  3.383183700000E-01  4.993986800000E-01
  33   6     3.113374500000E-01  1.218574800000E-01  5.039218100000E-01
  34   6     2.575999000000E-01  1.752298600000E-01  5.033139200000E-01
  35   6     4.729552600000E-01  2.847494600000E-01  5.003369600000E-01
  36   6     4.198658400000E-01  1.763586400000E-01  5.015786900000E-01
  37   8     4.277957500000E-01  1.233777000000E-02  4.995788400000E-01
  38   8     5.861490500000E-01  1.102780000000E-02  5.025686100000E-01
  39   8     5.869760400000E-01  1.722009800000E-01  4.980493100000E-01
  40   8     1.460789300000E-01  4.499819100000E-01  5.027152800000E-01
  41   8     1.438203800000E-01  2.868955500000E-01  5.102023500000E-01
  42   8     3.042210300000E-01  4.483636900000E-01  5.051867800000E-01

 *******************************************************************************

 << INFORMATION >>: FROM NOW ON, ALL COORDINATES REFER TO THE PRIMITIVE CELL

 *******************************************************************************

 LATTICE PARAMETERS  (ANGSTROMS AND DEGREES) - PRIMITIVE CELL
       A          B          C        ALPHA      BETA     GAMMA        VOLUME
   15.02070   15.04439    7.78203    38.87158  89.99969 120.05310    665.111975

 COORDINATES OF THE EQUIVALENT ATOMS (FRACTIONAL UNITS)

 N. ATOM EQUIV AT. N.          X                  Y                  Z

   1   1   1    5 B     4.80634750000E-01 -4.10313700000E-02 -4.99391140000E-01

   2   2   1    5 B    -3.60588550000E-01  1.17989980000E-01 -4.99381150000E-01

   3   3   1    5 B     4.80565280000E-01  1.18446000000E-01  4.99189010000E-01

   4   4   1    5 B     9.25154800000E-02  3.42675200000E-01 -4.94596560000E-01

   5   5   1    5 B     2.49999790000E-01  3.40000750000E-01 -4.90553030000E-01

   6   6   1    5 B     2.51880740000E-01 -4.97454150000E-01 -4.96518140000E-01

   7   7   1    1 H    -2.31611310000E-01  3.83467300000E-02 -4.95493080000E-01

   8   8   1    1 H    -3.40385000000E-02  4.26468040000E-01  4.92917610000E-01

   9   9   1    1 H    -2.28383500000E-01  3.29242890000E-01  4.92779330000E-01

  10  10   1    1 H    -3.70556100000E-02  1.35792390000E-01 -4.95924470000E-01

  11  11   1    1 H     4.58450940000E-01 -3.67806460000E-01 -4.95802420000E-01

  12  12   1    1 H     2.74912700000E-01 -1.67213280000E-01  4.94549700000E-01

  13  13   1    1 H     1.76220070000E-01 -3.61627560000E-01  4.95856430000E-01

  14  14   1    1 H    -4.42945650000E-01 -1.73115960000E-01 -4.97663580000E-01

  15  15   1    1 H     4.59785910000E-01  4.22993330000E-01  4.97753730000E-01

  16  16   1    1 H     2.70242420000E-01  3.69279000000E-02 -4.93963870000E-01

  17  17   1    1 H     1.72976750000E-01  1.33045500000E-01 -4.94328720000E-01

  18  18   1    1 H    -4.42674350000E-01  3.26632350000E-01  4.98687100000E-01

  19  19   1    6 C    -2.41228640000E-01  1.77553450000E-01 -4.99631120000E-01

  20  20   1    6 C    -1.87180580000E-01  1.23427680000E-01 -4.97865180000E-01

  21  21   1    6 C    -7.84399100000E-02  3.41200230000E-01  4.95742490000E-01

  22  22   1    6 C    -1.85509290000E-01  2.87494100000E-01  4.96079620000E-01

  23  23   1    6 C    -7.99763900000E-02  1.77338630000E-01 -4.98508830000E-01

  24  24   1    6 C    -2.48864600000E-02  2.86184250000E-01  4.99308090000E-01

  25  25   1    6 C     3.11283760000E-01 -3.77200970000E-01 -4.98149790000E-01

  26  26   1    6 C     4.19051830000E-01 -3.22928660000E-01 -4.97759650000E-01

  27  27   1    6 C     3.14014910000E-01 -2.12547480000E-01  4.96964460000E-01

  28  28   1    6 C     2.59595000000E-01 -3.20103990000E-01  4.98083030000E-01

  29  29   1    6 C     4.73522670000E-01 -2.15289510000E-01 -4.99196920000E-01

  30  30   1    6 C     4.21281110000E-01 -1.59423210000E-01  4.99178970000E-01

  31  31   1    6 C     3.11396740000E-01  2.84766950000E-01  4.99950110000E-01

  32  32   1    6 C     4.19394610000E-01  3.38318370000E-01  4.99398680000E-01

  33  33   1    6 C     3.11337450000E-01  1.21857480000E-01 -4.96078190000E-01

  34  34   1    6 C     2.57599900000E-01  1.75229860000E-01 -4.96686080000E-01

  35  35   1    6 C     4.72955260000E-01  2.84749460000E-01 -4.99663040000E-01

  36  36   1    6 C     4.19865840000E-01  1.76358640000E-01 -4.98421310000E-01

  37  37   1    8 O     4.27795750000E-01  1.23377700000E-02  4.99578840000E-01

  38  38   1    8 O    -4.13850950000E-01  1.10278000000E-02 -4.97431390000E-01

  39  39   1    8 O    -4.13023960000E-01  1.72200980000E-01  4.98049310000E-01

  40  40   1    8 O     1.46078930000E-01  4.49981910000E-01 -4.97284720000E-01

  41  41   1    8 O     1.43820380000E-01  2.86895550000E-01 -4.89797650000E-01

  42  42   1    8 O     3.04221030000E-01  4.48363690000E-01 -4.94813220000E-01

 NUMBER OF SYMMETRY OPERATORS         :    1
 *******************************************************************************
 * GEOMETRY EDITING - INPUT COORDINATES ARE GIVEN IN ANGSTROM         
 *******************************************************************************

 GCALCO - MAX INDICES DIRECT LATTICE VECTOR     9    14    24
 NO.OF VECTORS CREATED 6999 STARS 3500 RMAX   207.63032 BOHR

 GEOMETRY FOR WAVE FUNCTION - DIMENSIONALITY OF THE SYSTEM    3
 (NON PERIODIC DIRECTION: LATTICE PARAMETER FORMALLY SET TO 500)
 *******************************************************************************
 LATTICE PARAMETERS (ANGSTROMS AND DEGREES) - BOHR = 0.5291772083 ANGSTROM
 PRIMITIVE CELL - CENTRING CODE 1/0 VOLUME=   665.111975 - DENSITY  0.974 g/cm^3
         A              B              C           ALPHA      BETA       GAMMA 
    15.02070100    15.04438700     7.78203100    38.871581  89.999688 120.053104
 *******************************************************************************
 ATOMS IN THE ASYMMETRIC UNIT   42 - ATOMS IN THE UNIT CELL:   42
     ATOM                 X/A                 Y/B                 Z/C    
 *******************************************************************************
      1 T   5 B     4.806347500000E-01 -4.103137000000E-02 -4.993911400000E-01
      2 T   5 B    -3.605885500000E-01  1.179899800000E-01 -4.993811500000E-01
      3 T   5 B     4.805652800000E-01  1.184460000000E-01  4.991890100000E-01
      4 T   5 B     9.251548000000E-02  3.426752000000E-01 -4.945965600000E-01
      5 T   5 B     2.499997900000E-01  3.400007500000E-01 -4.905530300000E-01
      6 T   5 B     2.518807400000E-01 -4.974541500000E-01 -4.965181400000E-01
      7 T   1 H    -2.316113100000E-01  3.834673000000E-02 -4.954930800000E-01
      8 T   1 H    -3.403850000000E-02  4.264680400000E-01  4.929176100000E-01
      9 T   1 H    -2.283835000000E-01  3.292428900000E-01  4.927793300000E-01
     10 T   1 H    -3.705561000000E-02  1.357923900000E-01 -4.959244700000E-01
     11 T   1 H     4.584509400000E-01 -3.678064600000E-01 -4.958024200000E-01
     12 T   1 H     2.749127000000E-01 -1.672132800000E-01  4.945497000000E-01
     13 T   1 H     1.762200700000E-01 -3.616275600000E-01  4.958564300000E-01
     14 T   1 H    -4.429456500000E-01 -1.731159600000E-01 -4.976635800000E-01
     15 T   1 H     4.597859100000E-01  4.229933300000E-01  4.977537300000E-01
     16 T   1 H     2.702424200000E-01  3.692790000000E-02 -4.939638700000E-01
     17 T   1 H     1.729767500000E-01  1.330455000000E-01 -4.943287200000E-01
     18 T   1 H    -4.426743500000E-01  3.266323500000E-01  4.986871000000E-01
     19 T   6 C    -2.412286400000E-01  1.775534500000E-01 -4.996311200000E-01
     20 T   6 C    -1.871805800000E-01  1.234276800000E-01 -4.978651800000E-01
     21 T   6 C    -7.843991000000E-02  3.412002300000E-01  4.957424900000E-01
     22 T   6 C    -1.855092900000E-01  2.874941000000E-01  4.960796200000E-01
     23 T   6 C    -7.997639000000E-02  1.773386300000E-01 -4.985088300000E-01
     24 T   6 C    -2.488646000000E-02  2.861842500000E-01  4.993080900000E-01
     25 T   6 C     3.112837600000E-01 -3.772009700000E-01 -4.981497900000E-01
     26 T   6 C     4.190518300000E-01 -3.229286600000E-01 -4.977596500000E-01
     27 T   6 C     3.140149100000E-01 -2.125474800000E-01  4.969644600000E-01
     28 T   6 C     2.595950000000E-01 -3.201039900000E-01  4.980830300000E-01
     29 T   6 C     4.735226700000E-01 -2.152895100000E-01 -4.991969200000E-01
     30 T   6 C     4.212811100000E-01 -1.594232100000E-01  4.991789700000E-01
     31 T   6 C     3.113967400000E-01  2.847669500000E-01  4.999501100000E-01
     32 T   6 C     4.193946100000E-01  3.383183700000E-01  4.993986800000E-01
     33 T   6 C     3.113374500000E-01  1.218574800000E-01 -4.960781900000E-01
     34 T   6 C     2.575999000000E-01  1.752298600000E-01 -4.966860800000E-01
     35 T   6 C     4.729552600000E-01  2.847494600000E-01 -4.996630400000E-01
     36 T   6 C     4.198658400000E-01  1.763586400000E-01 -4.984213100000E-01
     37 T   8 O     4.277957500000E-01  1.233777000000E-02  4.995788400000E-01
     38 T   8 O    -4.138509500000E-01  1.102780000000E-02 -4.974313900000E-01
     39 T   8 O    -4.130239600000E-01  1.722009800000E-01  4.980493100000E-01
     40 T   8 O     1.460789300000E-01  4.499819100000E-01 -4.972847200000E-01
     41 T   8 O     1.438203800000E-01  2.868955500000E-01 -4.897976500000E-01
     42 T   8 O     3.042210300000E-01  4.483636900000E-01 -4.948132200000E-01

 T = ATOM BELONGING TO THE ASYMMETRIC UNIT

 ****    1 SYMMOPS - TRANSLATORS IN FRACTIONAL UNITS
 **** MATRICES AND TRANSLATORS IN THE CRYSTALLOGRAPHIC REFERENCE FRAME
   V INV                    ROTATION MATRICES                   TRANSLATORS
   1   1  1.00 -0.00  0.00  0.00  1.00  0.00 -0.00  0.00  1.00  0.00  0.00  0.00

 DIRECT LATTICE VECTORS CARTESIAN COMPONENTS (ANGSTROM)
          X                    Y                    Z
   0.130013421718E+02  -0.752240388864E+01   0.000000000000E+00
   0.000000000000E+00   0.150443870000E+02   0.000000000000E+00
   0.350555281613E+01   0.605873545398E+01   0.340041624467E+01


 CARTESIAN COORDINATES - PRIMITIVE CELL
 *******************************************************************************
 *      ATOM          X(ANGSTROM)         Y(ANGSTROM)         Z(ANGSTROM)
 *******************************************************************************
    1     5 B     9.927020110859E-01  1.727152218866E+00 -5.098553989565E+00
    2     5 B     3.057047237164E+00  2.925209010789E+00 -5.098520019407E+00
    3     5 B    -1.497862274701E+00 -2.718521726739E-01  5.097866663430E+00
    4     5 B    -5.310089520909E-01  1.462769804104E+00 -1.681834177180E+00
    5     5 B     1.530673256883E+00  2.623724359175E-01 -1.668084492082E+00
    6     5 B     1.534217123282E+00  2.657473536233E+00 -1.688368349028E+00
    7     1 H    -4.748235054130E+00 -6.828846256945E-01 -1.684882718352E+00
    8     1 H    -2.220150285789E+00  3.599723527274E+00 -1.724291196340E+00
    9     1 H     2.263724754257E+00  6.712184342958E-01  5.076071083435E+00
   10     1 H    -2.220262087391E+00 -6.830146373090E-01 -1.686349623916E+00
   11     1 H     4.222415970236E+00  3.058375440631E+00 -1.685934603113E+00
   12     1 H     5.307904173618E+00 -1.587279858233E+00  1.681674833675E+00
   13     1 H     5.237955160560E-01  5.223850976216E+00 -1.714297985072E+00
   14     1 H     1.992315432139E+00 -8.243717370183E-01 -5.092679566478E+00
   15     1 H     4.217183115481E+00 -1.379972450651E-01 -1.707846375331E+00
   16     1 H     1.781897736203E+00 -4.470111424540E+00 -1.679682767826E+00
   17     1 H     5.160344780209E-01 -2.294619928019E+00 -1.680923409693E+00
   18     1 H    -5.016339111131E-01  2.279720399150E+00  5.096159960512E+00
   19     6 C    -4.887779370014E+00  1.458669293919E+00 -1.698953776789E+00
   20     6 C    -4.178891452294E+00  2.485082899356E-01 -1.692948845726E+00
   21     6 C    -2.787525444069E+00  2.668042134846E+00 -1.714685428499E+00
   22     6 C    -4.178389262548E+00  2.667528032804E+00 -1.713539046171E+00
   23     6 C    -2.787349444926E+00  2.492325644635E-01 -1.695137523642E+00
   24     6 C    -2.078759317019E+00  1.459112787147E+00 -1.702560904337E+00
   25     6 C     2.300816277087E+00  4.009869669785E+00 -1.693916638193E+00
   26     6 C     1.977606705929E-01 -2.040683342958E+00 -5.093006244466E+00
   27     6 C     5.824750454219E+00 -2.548817331902E+00  1.689886022806E+00
   28     6 C     1.615586973434E+00  5.234858115632E+00 -1.706726618262E+00
   29     6 C     9.009162739208E-01 -8.397780113464E-01 -5.097893560722E+00
   30     6 C    -2.268671249991E+00 -4.006325462059E+00  5.097832523251E+00
   31     6 C     2.295624267819E+00 -1.087977844577E+00 -1.700377769100E+00
   32     6 C     3.697808462523E+00 -1.098074123442E+00 -1.702252860630E+00
   33     6 C     2.308776422362E+00 -3.514341474293E+00 -1.686872335901E+00
   34     6 C     1.607985156838E+00 -2.310834224071E+00 -1.688939414932E+00
   35     6 C     4.397457990212E+00 -2.301205588187E+00 -1.699062318075E+00
   36     6 C     3.711577225189E+00 -3.524995658485E+00 -1.694839919212E+00
   37     8 O    -2.182570420821E+00 -1.468869854163E+00  5.099192247694E+00
   38     8 O     2.371399536532E+00  1.728502945423E+00 -5.091890023830E+00
   39     8 O    -1.183748517272E-01 -2.705113059909E-01  5.093991209036E+00
   40     8 O     1.559643024016E-01  2.657920722173E+00 -1.690975040112E+00
   41     8 O     1.528464403626E-01  2.667383096700E-01 -1.665515885660E+00
   42     8 O     2.220687830050E+00  1.458941010919E+00 -1.682570911364E+00

 *******************************************************************************
 STARTING BASIS SET HANDLING 
 *******************************************************************************

 Loading internal basis set: SOLDEF2MSVP         

 Please cite in your publication:
 L. Dona', J. G. Brandenburg and B. Civalleri, J. Chem. Phys., 151, 121101 (2019
 )                                                                              
                                                                                
                    

 *******************************************************************************
 LOCAL ATOMIC FUNCTIONS BASIS SET
 *******************************************************************************
   ATOM   X(AU)   Y(AU)   Z(AU)  N. TYPE  EXPONENT  S COEF   P COEF   D/F/G COEF
 *******************************************************************************
   1 B    1.876   3.264  -9.635
                                  1 S  
                                         2.410E+03 1.755E-03 0.000E+00 0.000E+00
                                         3.619E+02 1.344E-02 0.000E+00 0.000E+00
                                         8.231E+01 6.637E-02 0.000E+00 0.000E+00
                                         2.311E+01 2.303E-01 0.000E+00 0.000E+00
                                         7.252E+00 5.150E-01 0.000E+00 0.000E+00
                                  2 S  
                                         2.367E+00 1.000E+00 0.000E+00 0.000E+00
                                  3 S  
                                         5.533E-01 1.000E+00 0.000E+00 0.000E+00
                                  4 S  
                                         1.716E-01 1.000E+00 0.000E+00 0.000E+00
                           5-     7 P  
                                         6.002E+00 0.000E+00-3.555E-02 0.000E+00
                                         1.240E+00 0.000E+00-1.983E-01 0.000E+00
                                         3.367E-01 0.000E+00-5.048E-01 0.000E+00
                           8-    10 P  
                                         1.256E-01 0.000E+00 1.000E+00 0.000E+00
                          11-    15 D  
                                         8.880E-01 0.000E+00 0.000E+00 1.000E+00
   2 B    5.777   5.528  -9.635
   3 B   -2.831  -0.514   9.634
   4 B   -1.003   2.764  -3.178
   5 B    2.893   0.496  -3.152
   6 B    2.899   5.022  -3.191
   7 H   -8.973  -1.290  -3.184
                                 91 S  
                                         1.874E+01 1.968E-02 0.000E+00 0.000E+00
                                         2.826E+00 1.380E-01 0.000E+00 0.000E+00
                                         6.401E-01 4.783E-01 0.000E+00 0.000E+00
                                 92 S  
                                         1.756E-01 1.000E+00 0.000E+00 0.000E+00
   8 H   -4.195   6.802  -3.258
   9 H    4.278   1.268   9.592
  10 H   -4.196  -1.291  -3.187
  11 H    7.979   5.779  -3.186
  12 H   10.030  -3.000   3.178
  13 H    0.990   9.872  -3.240
  14 H    3.765  -1.558  -9.624
  15 H    7.969  -0.261  -3.227
  16 H    3.367  -8.447  -3.174
  17 H    0.975  -4.336  -3.176
  18 H   -0.948   4.308   9.630
  19 C   -9.237   2.756  -3.211
                                115 S  
                                         3.624E+03 1.634E-03 0.000E+00 0.000E+00
                                         5.440E+02 1.252E-02 0.000E+00 0.000E+00
                                         1.237E+02 6.211E-02 0.000E+00 0.000E+00
                                         3.476E+01 2.182E-01 0.000E+00 0.000E+00
                                         1.093E+01 4.980E-01 0.000E+00 0.000E+00
                                116 S  
                                         3.574E+00 1.000E+00 0.000E+00 0.000E+00
                                117 S  
                                         7.742E-01 1.000E+00 0.000E+00 0.000E+00
                                118 S  
                                         2.330E-01 1.000E+00 0.000E+00 0.000E+00
                         119-   121 P  
                                         9.443E+00 0.000E+00 3.790E-02 0.000E+00
                                         2.002E+00 0.000E+00 2.082E-01 0.000E+00
                                         5.463E-01 0.000E+00 5.047E-01 0.000E+00
                         122-   124 P  
                                         1.820E-01 0.000E+00 1.000E+00 0.000E+00
                         125-   129 D  
                                         8.880E-01 0.000E+00 0.000E+00 1.000E+00
  20 C   -7.897   0.470  -3.199
  21 C   -5.268   5.042  -3.240
  22 C   -7.896   5.041  -3.238
  23 C   -5.267   0.471  -3.203
  24 C   -3.928   2.757  -3.217
  25 C    4.348   7.578  -3.201
  26 C    0.374  -3.856  -9.624
  27 C   11.007  -4.817   3.193
  28 C    3.053   9.892  -3.225
  29 C    1.702  -1.587  -9.634
  30 C   -4.287  -7.571   9.634
  31 C    4.338  -2.056  -3.213
  32 C    6.988  -2.075  -3.217
  33 C    4.363  -6.641  -3.188
  34 C    3.039  -4.367  -3.192
  35 C    8.310  -4.349  -3.211
  36 C    7.014  -6.661  -3.203
  37 O   -4.124  -2.776   9.636
                                385 S  
                                         6.773E+03 1.727E-03 0.000E+00 0.000E+00
                                         1.017E+03 1.325E-02 0.000E+00 0.000E+00
                                         2.313E+02 6.603E-02 0.000E+00 0.000E+00
                                         6.501E+01 2.353E-01 0.000E+00 0.000E+00
                                         2.050E+01 5.498E-01 0.000E+00 0.000E+00
                                386 S  
                                         6.716E+00 1.000E+00 0.000E+00 0.000E+00
                                387 S  
                                         1.147E+00 1.000E+00 0.000E+00 0.000E+00
                                388 S  
                                         3.342E-01 1.000E+00 0.000E+00 0.000E+00
                         389-   391 P  
                                         1.769E+01 0.000E+00 4.359E-02 0.000E+00
                                         3.854E+00 0.000E+00 2.318E-01 0.000E+00
                                         1.047E+00 0.000E+00 5.146E-01 0.000E+00
                         392-   394 P  
                                         2.759E-01 0.000E+00 1.000E+00 0.000E+00
                         395-   399 D  
                                         8.000E-01 0.000E+00 0.000E+00 1.000E+00
  38 O    4.481   3.266  -9.622
  39 O   -0.224  -0.511   9.626
  40 O    0.295   5.023  -3.195
  41 O    0.289   0.504  -3.147
  42 O    4.196   2.757  -3.180

 *******************************************************************************
 FINISHED BASIS SET HANDLING 
 *******************************************************************************

 INFORMATION **** SET_MPP **** PCRYSTAL CALCULATION
 INFORMATION **** READM2 **** NEW DEFAULT: FOCK/KS MATRIX MIXING SET TO 30 %
 INFORMATION **** READM2 **** NEW DEFAULT: FULL DIRECT SCF MODE
 INFORMATION **** READM2 **** NEW DEFAULT: COULOMB BIPOLAR BUFFER SET TO 32 Mb
 INFORMATION **** READM2 **** NEW DEFAULT: EXCHANGE BIPOLAR BUFFER SET TO 32 Mb

 *******************************************************************************
 NEW DEFAULT: DFT INTEGRATION GRID INCREASED TO XLGRID
 NEW DEFAULT: DIIS ACCELERATOR ACTIVE
 USE KEYWORD NODIIS TO TURN IT OFF
 *******************************************************************************

 WARNING **** RDDFTP **** HSEsol-HJS ACTIVE
 RANGE SEPARATION - OMEGA:   0.110000000000000     
 WARNING **** RDDFTP **** HSEsol-3c has to be combined with sol-def2-mSVP basis set
 *******************************************************************************
 N. OF ATOMS PER CELL        42  COULOMB OVERLAP TOL         (T1) 10**   -6
 NUMBER OF SHELLS           234  COULOMB PENETRATION TOL     (T2) 10**   -6
 NUMBER OF AO               474  EXCHANGE OVERLAP TOL        (T3) 10**   -6
 N. OF ELECTRONS PER CELL   198  EXCHANGE PSEUDO OVP (F(G))  (T4) 10**   -6
 CORE ELECTRONS PER CELL     60  EXCHANGE PSEUDO OVP (P(G))  (T5) 10**  -12
 N. OF SYMMETRY OPERATORS     1  POLE ORDER IN MONO ZONE                  4
 *******************************************************************************
 TYPE OF CALCULATION :  RESTRICTED CLOSED SHELL
 KOHN-SHAM HAMILTONIAN

 (EXCHANGE)[CORRELATION] FUNCTIONAL:(HSEsol GGA)[PBEsol]

 RANGE-SEPARATED HYBRID FUNCTIONAL 
 OMEGA (SHORT-RANGE)[LONG-RANGE]:(    0.1100)[    0.0000]

 HYBRID EXCHANGE - PERCENTAGE OF FOCK EXCHANGE    25.0000

 CAPPA:IS1  2;IS2  2;IS3  8; K PTS MONK NET  20; SYMMOPS:K SPACE   2;G SPACE   1

 *******************************************************************************
 MAX NUMBER OF SCF CYCLES      50  CONVERGENCE ON DELTAP        10**-16
 WEIGHT OF F(I) IN F(I+1)      30% CONVERGENCE ON ENERGY        10**- 6
 SHRINK. FACT.(MONKH.)    2  2  8  NUMBER OF K POINTS IN THE IBZ     20
 SHRINKING FACTOR(GILAT NET)    8  NUMBER OF K POINTS(GILAT NET)   1028
 *******************************************************************************
 *** K POINTS COORDINATES (OBLIQUE COORDINATES IN UNITS OF IS =  2)
   1-R(  0  0  0)   2-R(  1  0  0)   3-R(  0  1  0)   4-R(  1  1  0)
   5-C(  0  0  1)   6-C(  1  0  1)   7-C(  0  1  1)   8-C(  1  1  1)
   9-C(  0  0  2)  10-C(  1  0  2)  11-C(  0  1  2)  12-C(  1  1  2)
  13-C(  0  0  3)  14-C(  1  0  3)  15-C(  0  1  3)  16-C(  1  1  3)
  17-R(  0  0  4)  18-R(  1  0  4)  19-R(  0  1  4)  20-R(  1  1  4)

 DIRECT LATTICE VECTORS COMPON. (A.U.)     RECIP. LATTICE VECTORS COMPON. (A.U.) 
        X            Y            Z              X            Y            Z
   24.5689761  -14.2152832    0.0000000      0.2557366    0.0000000   -0.2636436
    0.0000000   28.4297713    0.0000000      0.1278719    0.2210072   -0.5256080
    6.6245348   11.4493507    6.4258554      0.0000000    0.0000000    0.9777975

 DISK SPACE FOR EIGENVECTORS (FTN 10)     7189632 REALS

 SYMMETRY ADAPTION OF THE BLOCH FUNCTIONS DISABLED
 TTTTTTTTTTTTTTTTTTTTTTTTTTTTTT gordsh1     TELAPSE        0.04 TCPU        0.04

 MATRIX SIZE: P(G)  344850, F(G)   65816, P(G) IRR  173610, F(G) IRR   66332
 MAX G-VECTOR INDEX FOR 1- AND 2-ELECTRON INTEGRALS  47

 TTTTTTTTTTTTTTTTTTTTTTTTTTTTTT INPUT       TELAPSE        0.42 TCPU        0.42

 NEIGHBORS OF THE NON-EQUIVALENT ATOMS

 N = NUMBER OF NEIGHBORS AT DISTANCE R
    ATOM  N     R/ANG      R/AU   NEIGHBORS (ATOM LABELS AND CELL INDICES)
   1 B    1     1.3787     2.6054   38 O    0 0 0
   1 B    1     1.3795     2.6068   37 O    1 2-3
   1 B    1     1.5517     2.9323   30 C    1 2-3
   1 B    1     2.3868     4.5104    2 B    0 0 0
   1 B    1     2.3912     4.5187    3 B    1 2-3
   1 B    1     2.5629     4.8432   27 C    0 1-2

   2 B    1     1.3792     2.6064   38 O    0 0 0
   2 B    1     1.3798     2.6075   39 O    1 2-3
   2 B    1     1.5510     2.9309   19 C    1 1-1
   2 B    1     2.3868     4.5104    1 B    0 0 0
   2 B    1     2.3894     4.5154    3 B    1 2-3
   2 B    1     2.5618     4.8411   22 C    1 1-1

   3 B    1     1.3790     2.6060   37 O    0 0 0
   3 B    1     1.3795     2.6069   39 O    0 0 0
   3 B    1     1.5529     2.9346   36 C   -1-1 2
   3 B    1     2.3894     4.5154    2 B   -1-2 3
   3 B    1     2.3912     4.5187    1 B   -1-2 3
   3 B    1     2.5679     4.8526   35 C   -1-1 2

   4 B    1     1.3778     2.6037   41 O    0 0 0
   4 B    1     1.3786     2.6051   40 O    0 0 0
   4 B    1     1.5479     2.9251   24 C    0 0 0
   4 B    1     2.3857     4.5084    5 B    0 0 0
   4 B    1     2.3859     4.5087    6 B    0 0 0
   4 B    1     2.5584     4.8348   21 C    0 0 0

   5 B    1     1.3778     2.6037   41 O    0 0 0
   5 B    1     1.3813     2.6104   42 O    0 0 0
   5 B    1     1.5523     2.9334   31 C    0 0 0
   5 B    1     2.3857     4.5084    4 B    0 0 0
   5 B    1     2.3952     4.5263    6 B    0 0 0
   5 B    1     2.5590     4.8358   32 C    0 0 0

   6 B    1     1.3783     2.6045   40 O    0 0 0
   6 B    1     1.3812     2.6101   42 O    0 0 0
   6 B    1     1.5546     2.9377   25 C    0 0 0
   6 B    1     2.3859     4.5087    4 B    0 0 0
   6 B    1     2.3952     4.5263    5 B    0 0 0
   6 B    1     2.5605     4.8386   26 C    0 0 1

   7 H    1     1.0917     2.0629   20 C    0 0 0
   7 H    1     2.1461     4.0556   19 C    0 0 0
   7 H    1     2.1712     4.1029   23 C    0 0 0
   7 H    1     2.5280     4.7772   10 H    0 0 0
   7 H    1     2.5583     4.8346   38 O   -1-1 1
   7 H    1     2.7310     5.1608    2 B   -1-1 1

   8 H    1     1.0909     2.0615   21 C    0 0 0
   8 H    1     2.1454     4.0542   24 C    0 0 0
   8 H    1     2.1688     4.0985   22 C    0 0 0
   8 H    1     2.5272     4.7758    9 H    0 1-2
   8 H    1     2.5562     4.8305   40 O    0 0 0
   8 H    1     2.7243     5.1481    4 B    0 0 0

   9 H    1     1.0908     2.0614   22 C    0-1 2
   9 H    1     2.1442     4.0520   19 C    0-1 2
   9 H    1     2.1694     4.0995   21 C    0-1 2
   9 H    1     2.5272     4.7758    8 H    0-1 2
   9 H    1     2.5616     4.8406   39 O    0 0 0
   9 H    1     2.7248     5.1492    2 B   -1-2 3

  10 H    1     1.0912     2.0621   23 C    0 0 0
  10 H    1     2.1469     4.0570   24 C    0 0 0
  10 H    1     2.1689     4.0986   20 C    0 0 0
  10 H    1     2.5280     4.7772    7 H    0 0 0
  10 H    1     2.5562     4.8305   41 O    0 0 0
  10 H    1     2.7309     5.1607    4 B    0 0 0

  11 H    1     1.0911     2.0619   26 C    0 0 1
  11 H    1     2.1443     4.0521   25 C    0 0 0
  11 H    1     2.1684     4.0978   29 C    0 0 1
  11 H    1     2.5222     4.7664   14 H    0 0 1
  11 H    1     2.5622     4.8419   42 O    0 0 0
  11 H    1     2.7179     5.1361    6 B    0 0 0

  12 H    1     1.0917     2.0630   27 C    0 0 0
  12 H    1     2.1441     4.0518   30 C    1 1-1
  12 H    1     2.1716     4.1037   28 C    0-1 1
  12 H    1     2.5226     4.7669   13 H    0-1 1
  12 H    1     2.5541     4.8265   37 O    1 1-1
  12 H    1     2.7237     5.1470    1 B    0-1 2

  13 H    1     1.0919     2.0633   28 C    0 0 0
  13 H    1     2.1522     4.0671   25 C    0 0 0
  13 H    1     2.1668     4.0946   27 C    0 1-1
  13 H    1     2.5226     4.7669   12 H    0 1-1
  13 H    1     2.5923     4.8987   40 O    0 0 0
  13 H    1     2.7582     5.2123    6 B    0 0 0

  14 H    1     1.0915     2.0627   29 C    0 0 0
  14 H    1     2.1483     4.0597   30 C    1 2-3
  14 H    1     2.1679     4.0968   26 C    0 0 0
  14 H    1     2.5222     4.7664   11 H    0 0-1
  14 H    1     2.5809     4.8771   38 O    0 0 0
  14 H    1     2.7404     5.1785    1 B    0 0 0

  15 H    1     1.0916     2.0628   32 C    0 0 0
  15 H    1     2.1436     4.0508   31 C    0 0 0
  15 H    1     2.1707     4.1021   35 C    0 0 0
  15 H    1     2.5217     4.7654   18 H    1 1-2
  15 H    1     2.5567     4.8315   42 O    0 0 0
  15 H    1     2.7165     5.1334    5 B    0 0 0

  16 H    1     1.0914     2.0624   33 C    0 0 0
  16 H    1     2.1488     4.0606   36 C    0 0 0
  16 H    1     2.1663     4.0937   34 C    0 0 0
  16 H    1     2.5170     4.7564   17 H    0 0 0
  16 H    1     2.5780     4.8716   37 O    1 1-2
  16 H    1     2.7395     5.1770    3 B    1 1-2

  17 H    1     1.0921     2.0638   34 C    0 0 0
  17 H    1     2.1502     4.0633   31 C    0 0 0
  17 H    1     2.1683     4.0976   33 C    0 0 0
  17 H    1     2.5170     4.7564   16 H    0 0 0
  17 H    1     2.5870     4.8888   41 O    0 0 0
  17 H    1     2.7510     5.1986    5 B    0 0 0

  18 H    1     1.0913     2.0622   35 C   -1-1 2
  18 H    1     2.1495     4.0619   36 C   -1-1 2
  18 H    1     2.1656     4.0923   32 C   -1-1 2
  18 H    1     2.5217     4.7654   15 H   -1-1 2
  18 H    1     2.5789     4.8734   39 O    0 0 0
  18 H    1     2.7392     5.1763    3 B    0 0 0

  19 C    1     1.4017     2.6488   22 C    0 0 0
  19 C    1     1.4025     2.6504   20 C    0 0 0
  19 C    1     1.5510     2.9309    2 B   -1-1 1
  19 C    1     2.1442     4.0520    9 H    0 1-2
  19 C    1     2.1461     4.0556    7 H    0 0 0
  19 C    1     2.4236     4.5800   21 C    0 0 0

  20 C    1     1.0917     2.0629    7 H    0 0 0
  20 C    1     1.3915     2.6296   23 C    0 0 0
  20 C    1     1.4025     2.6504   19 C    0 0 0
  20 C    1     2.1689     4.0986   10 H    0 0 0
  20 C    1     2.4191     4.5715   22 C    0 0 0
  20 C    1     2.4241     4.5809   24 C    0 0 0

  21 C    1     1.0909     2.0615    8 H    0 0 0
  21 C    1     1.3909     2.6284   22 C    0 0 0
  21 C    1     1.4014     2.6483   24 C    0 0 0
  21 C    1     2.1694     4.0995    9 H    0 1-2
  21 C    1     2.4189     4.5710   23 C    0 0 0
  21 C    1     2.4236     4.5800   19 C    0 0 0

  22 C    1     1.0908     2.0614    9 H    0 1-2
  22 C    1     1.3909     2.6284   21 C    0 0 0
  22 C    1     1.4017     2.6488   19 C    0 0 0
  22 C    1     2.1688     4.0985    8 H    0 0 0
  22 C    1     2.4191     4.5715   20 C    0 0 0
  22 C    1     2.4226     4.5780   24 C    0 0 0

  23 C    1     1.0912     2.0621   10 H    0 0 0
  23 C    1     1.3915     2.6296   20 C    0 0 0
  23 C    1     1.4021     2.6496   24 C    0 0 0
  23 C    1     2.1712     4.1029    7 H    0 0 0
  23 C    1     2.4189     4.5710   21 C    0 0 0
  23 C    1     2.4237     4.5802   19 C    0 0 0

  24 C    1     1.4014     2.6483   21 C    0 0 0
  24 C    1     1.4021     2.6496   23 C    0 0 0
  24 C    1     1.5479     2.9251    4 B    0 0 0
  24 C    1     2.1454     4.0542    8 H    0 0 0
  24 C    1     2.1469     4.0570   10 H    0 0 0
  24 C    1     2.4226     4.5780   22 C    0 0 0

  25 C    1     1.4025     2.6504   26 C    0 0 1
  25 C    1     1.4037     2.6526   28 C    0 0 0
  25 C    1     1.5546     2.9377    6 B    0 0 0
  25 C    1     2.1443     4.0521   11 H    0 0 0
  25 C    1     2.1522     4.0671   13 H    0 0 0
  25 C    1     2.4271     4.5865   27 C    0 1-1

  26 C    1     1.0911     2.0619   11 H    0 0-1
  26 C    1     1.3916     2.6298   29 C    0 0 0
  26 C    1     1.4025     2.6504   25 C    0 0-1
  26 C    1     2.1679     4.0968   14 H    0 0 0
  26 C    1     2.4165     4.5665   28 C    0 0-1
  26 C    1     2.4246     4.5819   30 C    1 2-3

  27 C    1     1.0917     2.0630   12 H    0 0 0
  27 C    1     1.3928     2.6320   28 C    0-1 1
  27 C    1     1.4024     2.6502   30 C    1 1-1
  27 C    1     2.1668     4.0946   13 H    0-1 1
  27 C    1     2.4166     4.5668   29 C    0-1 2
  27 C    1     2.4271     4.5865   25 C    0-1 1

  28 C    1     1.0919     2.0633   13 H    0 0 0
  28 C    1     1.3928     2.6320   27 C    0 1-1
  28 C    1     1.4037     2.6526   25 C    0 0 0
  28 C    1     2.1716     4.1037   12 H    0 1-1
  28 C    1     2.4165     4.5665   26 C    0 0 1
  28 C    1     2.4277     4.5877   30 C    1 2-2

  29 C    1     1.0915     2.0627   14 H    0 0 0
  29 C    1     1.3916     2.6298   26 C    0 0 0
  29 C    1     1.4023     2.6499   30 C    1 2-3
  29 C    1     2.1684     4.0978   11 H    0 0-1
  29 C    1     2.4166     4.5668   27 C    0 1-2
  29 C    1     2.4281     4.5884   25 C    0 0-1

  30 C    1     1.4023     2.6499   29 C   -1-2 3
  30 C    1     1.4024     2.6502   27 C   -1-1 1
  30 C    1     1.5517     2.9323    1 B   -1-2 3
  30 C    1     2.1441     4.0518   12 H   -1-1 1
  30 C    1     2.1483     4.0597   14 H   -1-2 3
  30 C    1     2.4246     4.5819   26 C   -1-2 3

  31 C    1     1.4022     2.6498   32 C    0 0 0
  31 C    1     1.4030     2.6513   34 C    0 0 0
  31 C    1     1.5523     2.9334    5 B    0 0 0
  31 C    1     2.1436     4.0508   15 H    0 0 0
  31 C    1     2.1502     4.0633   17 H    0 0 0
  31 C    1     2.4264     4.5853   33 C    0 0 0

  32 C    1     1.0916     2.0628   15 H    0 0 0
  32 C    1     1.3918     2.6301   35 C    0 0 0
  32 C    1     1.4022     2.6498   31 C    0 0 0
  32 C    1     2.1656     4.0923   18 H    1 1-2
  32 C    1     2.4163     4.5661   34 C    0 0 0
  32 C    1     2.4270     4.5863   36 C    0 0 0

  33 C    1     1.0914     2.0624   16 H    0 0 0
  33 C    1     1.3927     2.6318   34 C    0 0 0
  33 C    1     1.4029     2.6510   36 C    0 0 0
  33 C    1     2.1683     4.0976   17 H    0 0 0
  33 C    1     2.4155     4.5646   35 C    0 0 0
  33 C    1     2.4264     4.5853   31 C    0 0 0

  34 C    1     1.0921     2.0638   17 H    0 0 0
  34 C    1     1.3927     2.6318   33 C    0 0 0
  34 C    1     1.4030     2.6513   31 C    0 0 0
  34 C    1     2.1663     4.0937   16 H    0 0 0
  34 C    1     2.4163     4.5661   32 C    0 0 0
  34 C    1     2.4289     4.5899   36 C    0 0 0

  35 C    1     1.0913     2.0622   18 H    1 1-2
  35 C    1     1.3918     2.6301   32 C    0 0 0
  35 C    1     1.4029     2.6511   36 C    0 0 0
  35 C    1     2.1707     4.1021   15 H    0 0 0
  35 C    1     2.4155     4.5646   33 C    0 0 0
  35 C    1     2.4269     4.5861   31 C    0 0 0

  36 C    1     1.4029     2.6510   33 C    0 0 0
  36 C    1     1.4029     2.6511   35 C    0 0 0
  36 C    1     1.5529     2.9346    3 B    1 1-2
  36 C    1     2.1488     4.0606   16 H    0 0 0
  36 C    1     2.1495     4.0619   18 H    1 1-2
  36 C    1     2.4270     4.5863   32 C    0 0 0

  37 O    1     1.3790     2.6060    3 B    0 0 0
  37 O    1     1.3795     2.6068    1 B   -1-2 3
  37 O    1     2.3868     4.5105   39 O    0 0 0
  37 O    1     2.3885     4.5136   38 O   -1-2 3
  37 O    1     2.5389     4.7979   30 C    0 0 0
  37 O    1     2.5412     4.8022   36 C   -1-1 2

  38 O    1     1.3787     2.6054    1 B    0 0 0
  38 O    1     1.3792     2.6064    2 B    0 0 0
  38 O    1     2.3885     4.5136   37 O    1 2-3
  38 O    1     2.3912     4.5187   39 O    1 2-3
  38 O    1     2.5351     4.7906   19 C    1 1-1
  38 O    1     2.5405     4.8008   30 C    1 2-3

  39 O    1     1.3795     2.6069    3 B    0 0 0
  39 O    1     1.3798     2.6075    2 B   -1-2 3
  39 O    1     2.3868     4.5105   37 O    0 0 0
  39 O    1     2.3912     4.5187   38 O   -1-2 3
  39 O    1     2.5416     4.8030   19 C    0-1 2
  39 O    1     2.5427     4.8050   36 C   -1-1 2

  40 O    1     1.3783     2.6045    6 B    0 0 0
  40 O    1     1.3786     2.6051    4 B    0 0 0
  40 O    1     2.3876     4.5119   42 O    0 0 0
  40 O    1     2.3913     4.5189   41 O    0 0 0
  40 O    1     2.5354     4.7912   25 C    0 0 0
  40 O    1     2.5360     4.7923   24 C    0 0 0

  41 O    1     1.3778     2.6037    4 B    0 0 0
  41 O    1     1.3778     2.6037    5 B    0 0 0
  41 O    1     2.3870     4.5107   42 O    0 0 0
  41 O    1     2.3913     4.5189   40 O    0 0 0
  41 O    1     2.5305     4.7819   24 C    0 0 0
  41 O    1     2.5353     4.7911   31 C    0 0 0

  42 O    1     1.3812     2.6101    6 B    0 0 0
  42 O    1     1.3813     2.6104    5 B    0 0 0
  42 O    1     2.3870     4.5107   41 O    0 0 0
  42 O    1     2.3876     4.5119   40 O    0 0 0
  42 O    1     2.5481     4.8152   31 C    0 0 0
  42 O    1     2.5522     4.8230   25 C    0 0 0


 SYMMETRY ALLOWED INTERNAL DEGREE(S) OF FREEDOM: 123
 TTTTTTTTTTTTTTTTTTTTTTTTTTTTTT SYMM        TELAPSE        0.43 TCPU        0.42
 TTTTTTTTTTTTTTTTTTTTTTTTTTTTTT INT_SCREEN  TELAPSE        0.46 TCPU        0.46

 DFT PARAMETERS

     ATOM       ELECTRONS   NET CHARGE   R(ANGSTROM)
   1   5  B       5.0000      0.0000     0.89000000
   7   1  H       1.0000      0.0000     1.11000000
  19   6  C       6.0000      0.0000     0.77000000
  37   8  O       8.0000      0.0000     0.74000000

 SIZE OF GRID=    1284462
 TTTTTTTTTTTTTTTTTTTTTTTTTTTTTT MAKE_GRID2  TELAPSE        9.86 TCPU        9.85
 BECKE WEIGHT FUNCTION
 RADSAFE =     2.00
 TOLERANCES - DENSITY:10**- 6; POTENTIAL:10**- 9; GRID WGT:10**-14

 RADIAL INTEGRATION  - INTERVALS (POINTS,UPPER LIMIT):            1( 75,  4.0*R)

 ANGULAR INTEGRATION - INTERVALS (ACCURACY LEVEL [N. POINTS] UPPER LIMIT):
  1(  4[  86]   0.2)  2(  8[ 194]   0.5)  3( 12[ 350]   0.9)  4( 16[ 974]   3.5)
  5( 12[ 350]9999.0)
 TTTTTTTTTTTTTTTTTTTTTTTTTTTTTT INT_CALC    TELAPSE        9.94 TCPU        9.93
 EEEEEEEEEE INT_CALC TERMINATION  DATE 02 12 2025 TIME 07:59:28.6

 *******************************************************************************
 COF-5_z34_inc_L070                                                              
 CRYSTAL - SCF - TYPE OF CALCULATION :  RESTRICTED CLOSED SHELL
 *******************************************************************************

 CAPPA:IS1  2;IS2  2;IS3  8; K PTS MONK NET  20; SYMMOPS:K SPACE   2;G SPACE   1

 TTTTTTTTTTTTTTTTTTTTTTTTTTTTTT SDIK        TELAPSE       10.74 TCPU       17.77

 AAAAAAAAAAAAAAAAAAAAAAAAAAAAAAAAAAAAAAAAAAAAAAAAAAAAAAAAAAAAAAAAAAAAAAAAAAAAAAA
         ATOMIC WAVEFUNCTION(S)


 NUCLEAR CHARGE  5.0  SYMMETRY SPECIES            S    P
 N. ELECTRONS    5.0  NUMBER OF PRIMITIVE GTOS    8    4
                      NUMBER OF CONTRACTED GTOS   4    2
                      NUMBER OF CLOSED SHELLS     2    0
                      OPEN SHELL OCCUPATION       0    1

  ZNUC  SCFIT    TOTAL HF ENERGY   KINETIC ENERGY   VIRIAL THEOREM ACCURACY
   5.0    11    -2.451164084E+01  2.462155050E+01 -1.995536038E+00  1.5E-06

 NUCLEAR CHARGE  1.0  SYMMETRY SPECIES            S
 N. ELECTRONS    1.0  NUMBER OF PRIMITIVE GTOS    4
                      NUMBER OF CONTRACTED GTOS   2
                      NUMBER OF CLOSED SHELLS     0
                      OPEN SHELL OCCUPATION       1

  ZNUC  SCFIT    TOTAL HF ENERGY   KINETIC ENERGY   VIRIAL THEOREM ACCURACY
   1.0     1    -4.977266687E-01  5.190767460E-01 -1.958869132E+00  0.0E+00

 NUCLEAR CHARGE  6.0  SYMMETRY SPECIES            S    P
 N. ELECTRONS    6.0  NUMBER OF PRIMITIVE GTOS    8    4
                      NUMBER OF CONTRACTED GTOS   4    2
                      NUMBER OF CLOSED SHELLS     2    0
                      OPEN SHELL OCCUPATION       0    2

  ZNUC  SCFIT    TOTAL HF ENERGY   KINETIC ENERGY   VIRIAL THEOREM ACCURACY
   6.0     9    -3.766704647E+01  3.775180683E+01 -1.997754800E+00  1.1E-06

 NUCLEAR CHARGE  8.0  SYMMETRY SPECIES            S    P
 N. ELECTRONS    8.0  NUMBER OF PRIMITIVE GTOS    8    4
                      NUMBER OF CONTRACTED GTOS   4    2
                      NUMBER OF CLOSED SHELLS     2    0
                      OPEN SHELL OCCUPATION       0    4

  ZNUC  SCFIT    TOTAL HF ENERGY   KINETIC ENERGY   VIRIAL THEOREM ACCURACY
   8.0    12    -7.477373220E+01  7.477365593E+01 -2.000001020E+00  3.8E-06

 AAAAAAAAAAAAAAAAAAAAAAAAAAAAAAAAAAAAAAAAAAAAAAAAAAAAAAAAAAAAAAAAAAAAAAAAAAAAAAA

 CHARGE NORMALIZATION FACTOR   1.00000000
 TOTAL ATOMIC CHARGES:
   5.0000000   5.0000000   5.0000000   5.0000000   5.0000000   5.0000000
   1.0000000   1.0000000   1.0000000   1.0000000   1.0000000   1.0000000
   1.0000000   1.0000000   1.0000000   1.0000000   1.0000000   1.0000000
   6.0000000   6.0000000   6.0000000   6.0000000   6.0000000   6.0000000
   6.0000000   6.0000000   6.0000000   6.0000000   6.0000000   6.0000000
   6.0000000   6.0000000   6.0000000   6.0000000   6.0000000   6.0000000
   8.0000000   8.0000000   8.0000000   8.0000000   8.0000000   8.0000000
 TTTTTTTTTTTTTTTTTTTTTTTTTTTTTT MOQGAD      TELAPSE       10.84 TCPU       19.33
 TTTTTTTTTTTTTTTTTTTTTTTTTTTTTT SHELLXN     TELAPSE       19.41 TCPU      270.91
 TTTTTTTTTTTTTTTTTTTTTTTTTTTTTT MONMO3      TELAPSE       19.56 TCPU      275.62
 NUMERICALLY INTEGRATED DENSITY    197.9999434642
 TTTTTTTTTTTTTTTTTTTTTTTTTTTTTT NUMDFT      TELAPSE       20.24 TCPU      297.51
 CYC   0 ETOT(AU) -1.295962200765E+03 DETOT -1.30E+03 tst  0.00E+00 PX  1.00E+00
 TTTTTTTTTTTTTTTTTTTTTTTTTTTTTT DIIS        TELAPSE       20.28 TCPU      298.76
 TTTTTTTTTTTTTTTTTTTTTTTTTTTTTT FDIK        TELAPSE       20.80 TCPU      315.10
 INSULATING STATE
 TOP OF VALENCE BANDS -    BAND     99; K    1; EIG -3.0538567E-01 AU
 BOTTOM OF VIRTUAL BANDS - BAND    100; K   17; EIG -1.6051713E-01 AU
 INDIRECT ENERGY BAND GAP:   3.9421 eV
 BOTTOM OF VIRTUAL BANDS - BAND    100; K    1; EIG -1.5851785E-01 AU
 TTTTTTTTTTTTTTTTTTTTTTTTTTTTTT PDIG        TELAPSE       21.14 TCPU      321.30
 CHARGE NORMALIZATION FACTOR   1.00000000
 TOTAL ATOMIC CHARGES:
   4.1373683   4.1572870   4.1582829   4.1601896   4.1575743   4.1356934
   0.7854840   0.7854473   0.7854086   0.7854425   0.7859868   0.7858987
   0.7868608   0.7864485   0.7852053   0.7857946   0.7856237   0.7858546
   6.0446033   6.2675426   6.2675217   6.2670503   6.2657606   6.0469265
   6.0446364   6.2668782   6.2650164   6.2677258   6.2674997   6.0479226
   6.0438031   6.2674798   6.2684785   6.2665304   6.2681343   6.0413399
   8.6981175   8.6973914   8.6994390   8.6970269   8.6979360   8.6993882
 TTTTTTTTTTTTTTTTTTTTTTTTTTTTTT MOQGAD      TELAPSE       21.19 TCPU      321.35
 TTTTTTTTTTTTTTTTTTTTTTTTTTTTTT SHELLXN     TELAPSE       29.42 TCPU      584.10
 TTTTTTTTTTTTTTTTTTTTTTTTTTTTTT MONMO3      TELAPSE       29.57 TCPU      588.73
 NUMERICALLY INTEGRATED DENSITY    197.9999639537
 TTTTTTTTTTTTTTTTTTTTTTTTTTTTTT NUMDFT      TELAPSE       30.27 TCPU      611.19
 CYC   1 ETOT(AU) -1.288819113634E+03 DETOT  7.14E+00 tst  0.00E+00 PX  1.00E+00
 TTTTTTTTTTTTTTTTTTTTTTTTTTTTTT DIIS        TELAPSE       30.32 TCPU      612.66
 DIIS TEST: 0.11110E+01 AT SCF   CYCLE   1 - MIX   30 %
 TTTTTTTTTTTTTTTTTTTTTTTTTTTTTT FDIK        TELAPSE       30.83 TCPU      629.11
 INSULATING STATE
 TOP OF VALENCE BANDS -    BAND     99; K    1; EIG -2.1572822E-01 AU
 BOTTOM OF VIRTUAL BANDS - BAND    100; K   17; EIG -8.5842998E-02 AU
 INDIRECT ENERGY BAND GAP:   3.5344 eV
 BOTTOM OF VIRTUAL BANDS - BAND    100; K    1; EIG -8.5788598E-02 AU
 TTTTTTTTTTTTTTTTTTTTTTTTTTTTTT PDIG        TELAPSE       31.18 TCPU      635.32
 CHARGE NORMALIZATION FACTOR   1.00000000
 TOTAL ATOMIC CHARGES:
   4.7037869   4.6980058   4.6979319   4.6988726   4.6978502   4.7038773
   0.9071598   0.9076197   0.9091131   0.9091144   0.9020332   0.9017505
   0.9023370   0.9027097   0.9068596   0.9071752   0.9090028   0.9090036
   5.8699251   6.1508139   6.1494517   6.1301818   6.1314093   5.8653648
   5.9063235   6.1227032   6.1235274   6.1283549   6.1245848   5.8995618
   5.8700836   6.1461695   6.1487836   6.1320441   6.1296036   5.8723477
   8.3415878   8.3406423   8.3301040   8.3397968   8.3268814   8.3455499
 TTTTTTTTTTTTTTTTTTTTTTTTTTTTTT MOQGAD      TELAPSE       31.23 TCPU      635.36
 TTTTTTTTTTTTTTTTTTTTTTTTTTTTTT SHELLXN     TELAPSE       39.45 TCPU      897.62
 TTTTTTTTTTTTTTTTTTTTTTTTTTTTTT MONMO3      TELAPSE       39.60 TCPU      902.24
 NUMERICALLY INTEGRATED DENSITY    197.9999577882
 TTTTTTTTTTTTTTTTTTTTTTTTTTTTTT NUMDFT      TELAPSE       40.29 TCPU      924.44
 CYC   2 ETOT(AU) -1.289011489832E+03 DETOT -1.92E-01 tst  3.30E-03 PX  1.60E-01
 TTTTTTTTTTTTTTTTTTTTTTTTTTTTTT DIIS        TELAPSE       40.35 TCPU      926.19
 DIIS TEST: 0.46593E+00 AT SCF   CYCLE   2 - DIIS ACTIVE - HISTORY:     2 CYCLES
 TTTTTTTTTTTTTTTTTTTTTTTTTTTTTT FDIK        TELAPSE       40.86 TCPU      942.54
 INSULATING STATE
 TOP OF VALENCE BANDS -    BAND     99; K    1; EIG -2.2903134E-01 AU
 BOTTOM OF VIRTUAL BANDS - BAND    100; K   17; EIG -8.0794565E-02 AU
 INDIRECT ENERGY BAND GAP:   4.0337 eV
 BOTTOM OF VIRTUAL BANDS - BAND    100; K    1; EIG -7.9116764E-02 AU
 TTTTTTTTTTTTTTTTTTTTTTTTTTTTTT PDIG        TELAPSE       41.20 TCPU      948.74
 CHARGE NORMALIZATION FACTOR   1.00000000
 TOTAL ATOMIC CHARGES:
   4.4861390   4.4934048   4.4935238   4.4956638   4.4937100   4.4850195
   0.8865171   0.8862861   0.8876987   0.8877215   0.8803528   0.8800822
   0.8814759   0.8809517   0.8852655   0.8863560   0.8878012   0.8875112
   5.8933907   6.1635536   6.1644352   6.1629395   6.1631035   5.8953696
   5.8918669   6.1654709   6.1667019   6.1683258   6.1689248   5.8948580
   5.8947898   6.1634705   6.1640308   6.1641975   6.1643891   5.8935376
   8.5136881   8.5130272   8.5192163   8.5123206   8.5172806   8.5156306
 TTTTTTTTTTTTTTTTTTTTTTTTTTTTTT MOQGAD      TELAPSE       41.24 TCPU      948.79
 TTTTTTTTTTTTTTTTTTTTTTTTTTTTTT SHELLXN     TELAPSE       49.48 TCPU     1211.45
 TTTTTTTTTTTTTTTTTTTTTTTTTTTTTT MONMO3      TELAPSE       49.62 TCPU     1216.05
 NUMERICALLY INTEGRATED DENSITY    197.9999580321
 TTTTTTTTTTTTTTTTTTTTTTTTTTTTTT NUMDFT      TELAPSE       50.32 TCPU     1238.33
 CYC   3 ETOT(AU) -1.289107155662E+03 DETOT -9.57E-02 tst  7.32E-04 PX  6.66E-02
 TTTTTTTTTTTTTTTTTTTTTTTTTTTTTT DIIS        TELAPSE       50.38 TCPU     1240.30
 DIIS TEST: 0.13831E-01 AT SCF   CYCLE   3 - DIIS ACTIVE - HISTORY:     3 CYCLES
 TTTTTTTTTTTTTTTTTTTTTTTTTTTTTT FDIK        TELAPSE       50.90 TCPU     1256.78
 INSULATING STATE
 TOP OF VALENCE BANDS -    BAND     99; K    1; EIG -2.3830945E-01 AU
 BOTTOM OF VIRTUAL BANDS - BAND    100; K   17; EIG -8.8619456E-02 AU
 INDIRECT ENERGY BAND GAP:   4.0733 eV
 BOTTOM OF VIRTUAL BANDS - BAND    100; K    1; EIG -8.7996795E-02 AU
 TTTTTTTTTTTTTTTTTTTTTTTTTTTTTT PDIG        TELAPSE       51.24 TCPU     1262.98
 CHARGE NORMALIZATION FACTOR   1.00000000
 TOTAL ATOMIC CHARGES:
   4.4928139   4.4982681   4.4983490   4.4998398   4.4977920   4.4919338
   0.8688413   0.8692160   0.8711171   0.8713483   0.8644911   0.8645655
   0.8654932   0.8656330   0.8683490   0.8689565   0.8714699   0.8713160
   5.9415447   6.1776982   6.1763252   6.1649830   6.1646621   5.9382788
   5.9629773   6.1632844   6.1618514   6.1661098   6.1629405   5.9582238
   5.9402056   6.1751276   6.1770605   6.1655587   6.1648080   5.9411891
   8.4862498   8.4853580   8.4771875   8.4848311   8.4745248   8.4892266
 TTTTTTTTTTTTTTTTTTTTTTTTTTTTTT MOQGAD      TELAPSE       51.29 TCPU     1263.03
 TTTTTTTTTTTTTTTTTTTTTTTTTTTTTT SHELLXN     TELAPSE       59.52 TCPU     1525.60
 TTTTTTTTTTTTTTTTTTTTTTTTTTTTTT MONMO3      TELAPSE       59.66 TCPU     1530.23
 NUMERICALLY INTEGRATED DENSITY    197.9999586035
 TTTTTTTTTTTTTTTTTTTTTTTTTTTTTT NUMDFT      TELAPSE       60.36 TCPU     1552.51
 CYC   4 ETOT(AU) -1.289110060937E+03 DETOT -2.91E-03 tst  4.04E-05 PX  1.52E-02
 TTTTTTTTTTTTTTTTTTTTTTTTTTTTTT DIIS        TELAPSE       60.43 TCPU     1554.61
 DIIS TEST: 0.39240E-02 AT SCF   CYCLE   4 - DIIS ACTIVE - HISTORY:     4 CYCLES
 TTTTTTTTTTTTTTTTTTTTTTTTTTTTTT FDIK        TELAPSE       60.94 TCPU     1571.02
 INSULATING STATE
 TOP OF VALENCE BANDS -    BAND     99; K    1; EIG -2.3680609E-01 AU
 BOTTOM OF VIRTUAL BANDS - BAND    100; K   17; EIG -8.8517402E-02 AU
 INDIRECT ENERGY BAND GAP:   4.0351 eV
 BOTTOM OF VIRTUAL BANDS - BAND    100; K    1; EIG -8.7704314E-02 AU
 TTTTTTTTTTTTTTTTTTTTTTTTTTTTTT PDIG        TELAPSE       61.28 TCPU     1577.22
 CHARGE NORMALIZATION FACTOR   1.00000000
 TOTAL ATOMIC CHARGES:
   4.4972069   4.5000911   4.5001987   4.5020243   4.5001452   4.4963366
   0.8722585   0.8721626   0.8738649   0.8738874   0.8667871   0.8664749
   0.8677673   0.8674123   0.8713138   0.8722467   0.8740309   0.8738617
   5.9223278   6.1742634   6.1747437   6.1668520   6.1671664   5.9231679
   5.9342317   6.1660731   6.1671992   6.1691437   6.1688216   5.9353450
   5.9235911   6.1732948   6.1741621   6.1679826   6.1675811   5.9227862
   8.4927210   8.4919385   8.4921702   8.4912245   8.4901095   8.4950318
 TTTTTTTTTTTTTTTTTTTTTTTTTTTTTT MOQGAD      TELAPSE       61.33 TCPU     1577.26
 TTTTTTTTTTTTTTTTTTTTTTTTTTTTTT SHELLXN     TELAPSE       69.55 TCPU     1839.50
 TTTTTTTTTTTTTTTTTTTTTTTTTTTTTT MONMO3      TELAPSE       69.70 TCPU     1844.18
 NUMERICALLY INTEGRATED DENSITY    197.9999586009
 TTTTTTTTTTTTTTTTTTTTTTTTTTTTTT NUMDFT      TELAPSE       70.41 TCPU     1866.90
 CYC   5 ETOT(AU) -1.289110956977E+03 DETOT -8.96E-04 tst  6.95E-06 PX  7.40E-03
 TTTTTTTTTTTTTTTTTTTTTTTTTTTTTT DIIS        TELAPSE       70.48 TCPU     1869.33
 DIIS TEST: 0.81653E-04 AT SCF   CYCLE   5 - DIIS ACTIVE - HISTORY:     5 CYCLES
 TTTTTTTTTTTTTTTTTTTTTTTTTTTTTT FDIK        TELAPSE       70.99 TCPU     1885.62
 INSULATING STATE
 TOP OF VALENCE BANDS -    BAND     99; K    1; EIG -2.3659285E-01 AU
 BOTTOM OF VIRTUAL BANDS - BAND    100; K   17; EIG -8.8102377E-02 AU
 INDIRECT ENERGY BAND GAP:   4.0406 eV
 BOTTOM OF VIRTUAL BANDS - BAND    100; K    1; EIG -8.7115494E-02 AU
 TTTTTTTTTTTTTTTTTTTTTTTTTTTTTT PDIG        TELAPSE       71.34 TCPU     1891.81
 CHARGE NORMALIZATION FACTOR   1.00000000
 TOTAL ATOMIC CHARGES:
   4.4955383   4.5005212   4.5006180   4.5022333   4.5003095   4.4946264
   0.8729148   0.8731853   0.8746232   0.8748288   0.8676623   0.8677203
   0.8686505   0.8686636   0.8722790   0.8729567   0.8749140   0.8746985
   5.9241130   6.1750246   6.1739704   6.1662649   6.1658657   5.9216397
   5.9363882   6.1665560   6.1652905   6.1694187   6.1669647   5.9330093
   5.9229144   6.1729050   6.1746245   6.1669470   6.1665756   5.9237418
   8.4936048   8.4928321   8.4891701   8.4922775   8.4865679   8.4963898
 TTTTTTTTTTTTTTTTTTTTTTTTTTTTTT MOQGAD      TELAPSE       71.38 TCPU     1891.86
 TTTTTTTTTTTTTTTTTTTTTTTTTTTTTT SHELLXN     TELAPSE       79.61 TCPU     2154.18
 TTTTTTTTTTTTTTTTTTTTTTTTTTTTTT MONMO3      TELAPSE       79.75 TCPU     2158.78
 NUMERICALLY INTEGRATED DENSITY    197.9999585628
 TTTTTTTTTTTTTTTTTTTTTTTTTTTTTT NUMDFT      TELAPSE       80.45 TCPU     2181.12
 CYC   6 ETOT(AU) -1.289110974392E+03 DETOT -1.74E-05 tst  1.89E-07 PX  1.71E-03
 TTTTTTTTTTTTTTTTTTTTTTTTTTTTTT DIIS        TELAPSE       80.53 TCPU     2183.76
 DIIS TEST: 0.24356E-04 AT SCF   CYCLE   6 - DIIS ACTIVE - HISTORY:     6 CYCLES
 TTTTTTTTTTTTTTTTTTTTTTTTTTTTTT FDIK        TELAPSE       81.06 TCPU     2200.45
 INSULATING STATE
 TOP OF VALENCE BANDS -    BAND     99; K    1; EIG -2.3662214E-01 AU
 BOTTOM OF VIRTUAL BANDS - BAND    100; K   17; EIG -8.8120997E-02 AU
 INDIRECT ENERGY BAND GAP:   4.0409 eV
 BOTTOM OF VIRTUAL BANDS - BAND    100; K    1; EIG -8.7206675E-02 AU
 TTTTTTTTTTTTTTTTTTTTTTTTTTTTTT PDIG        TELAPSE       81.39 TCPU     2206.64
 CHARGE NORMALIZATION FACTOR   1.00000000
 TOTAL ATOMIC CHARGES:
   4.4962734   4.5002569   4.5003696   4.5021418   4.5002247   4.4953639
   0.8730454   0.8730448   0.8747088   0.8747718   0.8676868   0.8674612
   0.8686621   0.8684193   0.8721785   0.8730479   0.8749032   0.8747300
   5.9229757   6.1740362   6.1741265   6.1660499   6.1662619   5.9230181
   5.9353829   6.1654762   6.1660757   6.1685414   6.1675915   5.9352884
   5.9236907   6.1727732   6.1738781   6.1671148   6.1666448   5.9232281
   8.4928742   8.4920558   8.4905592   8.4913862   8.4883905   8.4952902
 TTTTTTTTTTTTTTTTTTTTTTTTTTTTTT MOQGAD      TELAPSE       81.44 TCPU     2206.69
 TTTTTTTTTTTTTTTTTTTTTTTTTTTTTT SHELLXN     TELAPSE       89.68 TCPU     2469.40
 TTTTTTTTTTTTTTTTTTTTTTTTTTTTTT MONMO3      TELAPSE       89.82 TCPU     2473.99
 NUMERICALLY INTEGRATED DENSITY    197.9999585624
 TTTTTTTTTTTTTTTTTTTTTTTTTTTTTT NUMDFT      TELAPSE       90.52 TCPU     2496.48
 CYC   7 ETOT(AU) -1.289110979586E+03 DETOT -5.19E-06 tst  7.27E-08 PX  6.85E-04
 TTTTTTTTTTTTTTTTTTTTTTTTTTTTTT DIIS        TELAPSE       90.61 TCPU     2499.24
 DIIS TEST: 0.15991E-05 AT SCF   CYCLE   7 - DIIS ACTIVE - HISTORY:     7 CYCLES
 TTTTTTTTTTTTTTTTTTTTTTTTTTTTTT FDIK        TELAPSE       91.12 TCPU     2515.45
 INSULATING STATE
 TOP OF VALENCE BANDS -    BAND     99; K    1; EIG -2.3662423E-01 AU
 BOTTOM OF VIRTUAL BANDS - BAND    100; K   17; EIG -8.8140865E-02 AU
 INDIRECT ENERGY BAND GAP:   4.0404 eV
 BOTTOM OF VIRTUAL BANDS - BAND    100; K    1; EIG -8.7235079E-02 AU
 TTTTTTTTTTTTTTTTTTTTTTTTTTTTTT PDIG        TELAPSE       91.46 TCPU     2521.64
 CHARGE NORMALIZATION FACTOR   1.00000000
 TOTAL ATOMIC CHARGES:
   4.4963756   4.5003433   4.5004468   4.5021727   4.5002576   4.4954781
   0.8729682   0.8730504   0.8746502   0.8747674   0.8676062   0.8674798
   0.8685978   0.8684211   0.8721717   0.8729833   0.8748831   0.8746872
   5.9233283   6.1742951   6.1740296   6.1661474   6.1660922   5.9225189
   5.9357282   6.1658203   6.1657654   6.1687590   6.1674161   5.9346361
   5.9233842   6.1727688   6.1740437   6.1670345   6.1666593   5.9233808
   8.4929468   8.4921753   8.4905106   8.4915374   8.4881766   8.4955049
 TTTTTTTTTTTTTTTTTTTTTTTTTTTTTT MOQGAD      TELAPSE       91.51 TCPU     2521.69
 TTTTTTTTTTTTTTTTTTTTTTTTTTTTTT SHELLXN     TELAPSE       99.75 TCPU     2784.38
 TTTTTTTTTTTTTTTTTTTTTTTTTTTTTT MONMO3      TELAPSE       99.89 TCPU     2788.97
 NUMERICALLY INTEGRATED DENSITY    197.9999585606
 TTTTTTTTTTTTTTTTTTTTTTTTTTTTTT NUMDFT      TELAPSE      100.59 TCPU     2811.38
 CYC   8 ETOT(AU) -1.289110979785E+03 DETOT -1.98E-07 tst  7.04E-09 PX  1.52E-04
 TTTTTTTTTTTTTTTTTTTTTTTTTTTTTT DIIS        TELAPSE      100.69 TCPU     2814.39
 DIIS TEST: 0.12263E-06 AT SCF   CYCLE   8 - DIIS ACTIVE - HISTORY:     8 CYCLES
 TTTTTTTTTTTTTTTTTTTTTTTTTTTTTT FDIK        TELAPSE      101.20 TCPU     2830.95
 INSULATING STATE
 TOP OF VALENCE BANDS -    BAND     99; K    1; EIG -2.3662680E-01 AU
 BOTTOM OF VIRTUAL BANDS - BAND    100; K   17; EIG -8.8140433E-02 AU
 INDIRECT ENERGY BAND GAP:   4.0405 eV
 BOTTOM OF VIRTUAL BANDS - BAND    100; K    1; EIG -8.7228108E-02 AU
 TTTTTTTTTTTTTTTTTTTTTTTTTTTTTT PDIG        TELAPSE      101.54 TCPU     2837.14
 CHARGE NORMALIZATION FACTOR   1.00000000
 TOTAL ATOMIC CHARGES:
   4.4963155   4.5003508   4.5004555   4.5021920   4.5002755   4.4954137
   0.8729735   0.8730330   0.8746518   0.8747455   0.8676209   0.8674581
   0.8686002   0.8684123   0.8721578   0.8729849   0.8748674   0.8746838
   5.9231774   6.1742586   6.1740954   6.1661028   6.1661778   5.9226722
   5.9355271   6.1657397   6.1659227   6.1687604   6.1674828   5.9347199
   5.9234672   6.1728046   6.1740433   6.1670835   6.1666428   5.9232996
   8.4930210   8.4922167   8.4903844   8.4915727   8.4881172   8.4955182
 TTTTTTTTTTTTTTTTTTTTTTTTTTTTTT MOQGAD      TELAPSE      101.59 TCPU     2837.19
 TTTTTTTTTTTTTTTTTTTTTTTTTTTTTT SHELLXN     TELAPSE      109.83 TCPU     3099.97
 +++ ENERGIES IN A.U. +++
 ::: EXT EL-POLE                                  -1.5284732570312E+03
 ::: EXT EL-SPHEROPOLE                             1.6830924825219E+01
 ::: BIELET ZONE E-E                               2.1635653187510E+03
 ::: TOTAL E-E                                     6.5192298654500E+02
 ::: TOTAL E-N + N-E                              -3.1285999594009E+03
 ::: TOTAL N-N                                     4.1349742600791E+01
 ::: KINETIC ENERGY                                1.2799338496262E+03
 ::: PSEUDO TOTAL   ENERGY                        -1.1553933806289E+03
 ::: VIRIAL COEFFICIENT                            1.0511391107733E+00
 TTTTTTTTTTTTTTTTTTTTTTTTTTTTTT MONMO3      TELAPSE      109.97 TCPU     3104.56
 NUMERICALLY INTEGRATED DENSITY    197.9999585601
 EXCHANGE ENERGY: -0.126021374961E+03  CORRELATION ENERGY: -0.769622423610E+01
 TTTTTTTTTTTTTTTTTTTTTTTTTTTTTT NUMDFT      TELAPSE      110.67 TCPU     3126.96
 CYC   9 ETOT(AU) -1.289110979826E+03 DETOT -4.10E-08 tst  6.17E-10 PX  1.52E-04

 == SCF ENDED - CONVERGENCE ON ENERGY      E(AU) -1.2891109798258E+03 CYCLES   9


 ENERGY EXPRESSION=HARTREE+FOCK EXCH*0.00000+(HSESOL     EXCH)*1.00000+PBESOL     CORR


 TOTAL ENERGY(DFT)(AU)(  9) -1.2891109798258E+03 DE-4.1E-08 tester 6.2E-10
 TTTTTTTTTTTTTTTTTTTTTTTTTTTTTT EDFT        TELAPSE      110.67 TCPU     3126.97
 
 INFORMATION **** DFTD3 ENERGY **** CALCULATE DFTD3 ENERGY

           DFT-D V3(BJ)
 DF                                         hsesol3c  
 parameters
 s6       :    1.0000
 s8       :    0.0000
 a1       :    0.5196
 a2       :    4.9385
 k1 k3    :   16.0000   -4.0000
 Cutoff   :   50.2022
 CN-Cutoff:   21.1671
 ABC-Cutoff:   21.1671
 
 Edisp /kcal,au:   -26.8007 -0.04270958

 E6    /kcal :   -28.4456
 E8    /kcal :     0.0000
 E6(ABC) "   :   1.644888
 
 INFORMATION **** DFTD3 ENERGY **** NORMAL TERMINATION OF DFTD3 MODULE

 GCP ENERGY CALCULATION
  level        hsesol3c            basis:hsesol3c
  Nbf            474
  Atoms           42

  Parameters: 
  sigma     1.0000
  eta       1.4281
  alpha     0.2936
  beta      1.9467

  dmp_scal      4.0000
  dmp_exp       6.0000
 cutoffs: 
   distance [bohr] 60.0
   noise    [a.u.] 2.2E-16
 SR-damping   T
 ** gCP correction **
  Egcp:        0.0835074945 / (a.u.) ||      52.4017 / (kcal/mol)
 INFORMATION **** GCP **** NORMAL TERMINATION OF GCP MODULE

 *******************************************************************************

 DFT-D3-GCP DISPERSION AND COUNTERPOISE CORRECTION

 D3 DISPERSION ENERGY (AU)      -4.2709578680367E-02
 GCP ENERGY (AU)                 8.3507494482617E-02
 TOTAL ENERGY + DISP + GCP (AU) -1.2890701819100E+03

 *******************************************************************************

 EIGENVECTORS IN FORTRAN UNIT 10
 TTTTTTTTTTTTTTTTTTTTTTTTTTTTTT END         TELAPSE      112.63 TCPU     3134.89
 EEEEEEEEEE TERMINATION  DATE 02 12 2025 TIME 08:01:11.3
