 Default number of threads is:           32

         
 *******************************************************************************
 *                                                                             *
 *                               CRYSTAL23                                     *
 *                      public : 1.0.1 - October 2022                          *
 *                       HTTP://WWW.CRYSTAL.UNITO.IT                           *
 *                                                                             *
 *                              MAIN AUTHORS                                   *
 *                                                                             *
 *  R. DOVESI(1,11), V.R. SAUNDERS(2), C. ROETTI(1,11), R. ORLANDO(1,11),      *
 *  C.M. ZICOVICH-WILSON(1,3), F. PASCALE(4), B. CIVALLERI(1,11),              *
 *  K. DOLL(5), N.M. HARRISON(6), I.J. BUSH(7), Ph. D'ARCO(8),                 *
 *  M. LLUNELL(9), M. CAUSA'(10), Y. NOEL(8), L. MASCHIO(1,11), A. ERBA(1,11)  *
 *  M. RE'RAT(14), S. CASASSA(1,11), B.G. SEARLE(2), J.K. DESMARAIS(1)         *
 *                                                                             *
 *        CONTRIBUTIONS TO THE CODE HAVE ALSO BEEN GIVEN BY                    *
 *                                                                             *
 *  M. FERRABONE(1,11), M. DE LA PIERRE(1,11), M. FERRERO(1,11),               *
 *  J. BAIMA(1,11), E. ALBANESE(1,11), M.F. PEINTINGER(12), R. BAST(13),       *
 *  B. KIRTMAN(15), V. LACIVITA(1,11), R. DEMICHELIS(1,16)                     *
 *  G. BRANDEBURG(17), S. SALUSTRO(1,11), G. SANSONE(1,11)                     *
 *  M.T. RUGGIERO(18), L.E. DAGA(1), L. DONA'(1), A. COSSARD(1)                *
 *                                                                             *
 * (1) THEORETICAL CHEMISTRY GROUP - UNIVERSITA' DI TORINO - TORINO (ITALY)    *
 * (2) SCIENTIFIC COMPUTING DEPARTMENT - STFC DARESBURY (UK)                   *
 * (3) UNIVERSIDAD AUTONOMA DEL ESTADO DE MORELOS - CUERNAVACA (MEXICO)        *
 * (4) UNIVERSITE' DE LORRAINE - NANCY (FRANCE)                                *
 * (5) UNIVERSITAET STUTTGART- STUTTGART (GERMANY)                             *
 * (6) IMPERIAL COLLEGE - LONDON (UK)                                          *
 * (7) SCIENTIFIC COMPUTING DEPARTMENT - STFC RAL (UK)                         *
 * (8) UPMC - SORBONNE UNIVERSITES - PARIS (FRANCE)                            *
 * (9) UNIVERSIDAD DE BARCELONA - BARCELONA (SPAIN)                            *
 *(10) UNIVERSITA' DI NAPOLI "FEDERICO II" - NAPOLI (ITALY)                    *
 *(11) NIS - NANOSTRUCTURED INTERFACES AND SURFACES - TORINO (ITALY)           *
 *(12) MPI FUER CHEMISCHE ENERGIEKONVERSION - MUELHEIM AN DER RUHR (GERMANY)   *
 *(13) UNIVERSITY OF TROMSO - TROMSO (NORWAY)                                  *
 *(14) UNIVERSITE' DE PAU ET DES PAYS DE L'ADOUR - PAU (FRANCE)                *
 *(15) UNIVERSITY OF CALIFORNIA SANTA BARBARA - SANTA BARBARA (USA)            *
 *(16) CURTIN UNIVERSITY - PERTH (AUSTRALIA)                                   *
 *(17) UNIVERSITY COLLEGE LONDON - LONDON (UK)                                 *
 *(18) UNIVERSITY OF VERMONT - BURLINGTON (USA)                                *
 *                                                                             *
 *******************************************************************************
 EEEEEEEEEE STARTING  DATE 19 02 2026 TIME 18:27:56.4
 cof-1_z35_L050_incl                                                             

 CRYSTAL CALCULATION
 (INPUT ACCORDING TO THE INTERNATIONAL TABLES FOR X-RAY CRYSTALLOGRAPHY)
 CRYSTAL FAMILY                       :  TRICLINIC   
 CRYSTAL CLASS  (GROTH - 1921)        :  TRICLINIC PEDIAL                     

 SPACE GROUP (NONCENTROSYMMETRIC)     :  P 1             

 LATTICE PARAMETERS  (ANGSTROMS AND DEGREES) - CONVENTIONAL CELL
        A           B           C        ALPHA        BETA       GAMMA
    15.02361    15.02392     6.10328    44.80565    89.99997   119.99596


 NUMBER OF IRREDUCIBLE ATOMS IN THE CONVENTIONAL CELL:   42

 INPUT COORDINATES

 ATOM AT. N.              COORDINATES
   1   5     5.173609700000E-01  3.465949000000E-02  5.013605300000E-01
   2   5     6.764166200000E-01  1.937191400000E-01  5.013605500000E-01
   3   5     5.179079600000E-01  1.948045900000E-01  4.984910900000E-01
   4   5     1.309356700000E-01  4.209744800000E-01  5.013605400000E-01
   5   5     2.900436500000E-01  4.209537200000E-01  5.013605300000E-01
   6   5     2.905751900000E-01  5.811955700000E-01  4.984910900000E-01
   7   1     8.078669400000E-01  1.185573300000E-01  4.954115800000E-01
   8   1     1.632620000000E-03  5.010303000000E-01  4.945018800000E-01
   9   1     8.079964000000E-01  4.041030800000E-01  4.943618800000E-01
  10   1     1.754450000000E-03  2.157021700000E-01  4.943968000000E-01
  11   1     5.940943200000E-01 -9.689176000000E-02  5.045799800000E-01
  12   1     2.118168600000E-01  7.091918400000E-01  5.054897500000E-01
  13   1     3.087302100000E-01 -9.724932000000E-02  5.056298400000E-01
  14   1     4.971791900000E-01  7.090615200000E-01  5.055946900000E-01
  15   1     5.958960500000E-01  4.036814700000E-01  4.954116300000E-01
  16   1     2.139599200000E-01  2.155862000000E-01  4.945018300000E-01
  17   1     3.108655700000E-01  1.188539500000E-01  4.943617600000E-01
  18   1     4.993091300000E-01  5.009751200000E-01  4.943969100000E-01
  19   6     7.961421700000E-01  2.544279500000E-01  4.983861000000E-01
  20   6     8.512855300000E-01  2.023591200000E-01  4.955515700000E-01
  21   6    -4.176842000000E-02  4.168528800000E-01  4.953067100000E-01
  22   6     8.511544000000E-01  3.630773900000E-01  4.960415700000E-01
  23   6    -4.150833000000E-02  2.563613300000E-01  4.941518400000E-01
  24   6     1.273146000000E-02  3.634073900000E-01  4.960765300000E-01
  25   6     4.576727800000E-01 -8.458441000000E-02  5.016055100000E-01
  26   6     5.102666600000E-01 -1.402861300000E-01  5.044399800000E-01
  27   6     2.958404200000E-01  7.527269500000E-01  5.046849300000E-01
  28   6     3.494705100000E-01 -1.400509700000E-01  5.039501000000E-01
  29   6     4.565367600000E-01  7.522436200000E-01  5.058396800000E-01
  30   6     3.491175700000E-01  6.983517000000E-01  5.039150600000E-01
  31   6     4.582967400000E-01  2.543588100000E-01  4.983860900000E-01
  32   6     5.120066300000E-01  3.631992500000E-01  4.955516300000E-01
  33   6     2.976668500000E-01  2.558396300000E-01  4.953066500000E-01
  34   6     3.509895600000E-01  2.020752200000E-01  4.960414900000E-01
  35   6     4.588082800000E-01  4.172093400000E-01  4.941519100000E-01
  36   6     3.506555500000E-01  3.633299900000E-01  4.960765300000E-01
  37   8     4.648204700000E-01  8.851872000000E-02  4.992609300000E-01
  38   8     6.226024500000E-01  8.620009000000E-02  5.053147900000E-01
  39   8     6.243548200000E-01  2.486548700000E-01  4.961815400000E-01
  40   8     1.844083000000E-01  5.277991900000E-01  4.992609600000E-01
  41   8     1.832647200000E-01  3.665173700000E-01  5.053147900000E-01
  42   8     3.439392400000E-01  5.289668400000E-01  4.961815100000E-01

 *******************************************************************************

 << INFORMATION >>: FROM NOW ON, ALL COORDINATES REFER TO THE PRIMITIVE CELL

 *******************************************************************************

 LATTICE PARAMETERS  (ANGSTROMS AND DEGREES) - PRIMITIVE CELL
       A          B          C        ALPHA      BETA     GAMMA        VOLUME
   15.02361   15.02392    6.10328    44.80565  89.99997 119.99596    684.191255

 COORDINATES OF THE EQUIVALENT ATOMS (FRACTIONAL UNITS)

 N. ATOM EQUIV AT. N.          X                  Y                  Z

   1   1   1    5 B    -4.82639030000E-01  3.46594900000E-02 -4.98639470000E-01

   2   2   1    5 B    -3.23583380000E-01  1.93719140000E-01 -4.98639450000E-01

   3   3   1    5 B    -4.82092040000E-01  1.94804590000E-01  4.98491090000E-01

   4   4   1    5 B     1.30935670000E-01  4.20974480000E-01 -4.98639460000E-01

   5   5   1    5 B     2.90043650000E-01  4.20953720000E-01 -4.98639470000E-01

   6   6   1    5 B     2.90575190000E-01 -4.18804430000E-01  4.98491090000E-01

   7   7   1    1 H    -1.92133060000E-01  1.18557330000E-01  4.95411580000E-01

   8   8   1    1 H     1.63262000000E-03 -4.98969700000E-01  4.94501880000E-01

   9   9   1    1 H    -1.92003600000E-01  4.04103080000E-01  4.94361880000E-01

  10  10   1    1 H     1.75445000000E-03  2.15702170000E-01  4.94396800000E-01

  11  11   1    1 H    -4.05905680000E-01 -9.68917600000E-02 -4.95420020000E-01

  12  12   1    1 H     2.11816860000E-01 -2.90808160000E-01 -4.94510250000E-01

  13  13   1    1 H     3.08730210000E-01 -9.72493200000E-02 -4.94370160000E-01

  14  14   1    1 H     4.97179190000E-01 -2.90938480000E-01 -4.94405310000E-01

  15  15   1    1 H    -4.04103950000E-01  4.03681470000E-01  4.95411630000E-01

  16  16   1    1 H     2.13959920000E-01  2.15586200000E-01  4.94501830000E-01

  17  17   1    1 H     3.10865570000E-01  1.18853950000E-01  4.94361760000E-01

  18  18   1    1 H     4.99309130000E-01 -4.99024880000E-01  4.94396910000E-01

  19  19   1    6 C    -2.03857830000E-01  2.54427950000E-01  4.98386100000E-01

  20  20   1    6 C    -1.48714470000E-01  2.02359120000E-01  4.95551570000E-01

  21  21   1    6 C    -4.17684200000E-02  4.16852880000E-01  4.95306710000E-01

  22  22   1    6 C    -1.48845600000E-01  3.63077390000E-01  4.96041570000E-01

  23  23   1    6 C    -4.15083300000E-02  2.56361330000E-01  4.94151840000E-01

  24  24   1    6 C     1.27314600000E-02  3.63407390000E-01  4.96076530000E-01

  25  25   1    6 C     4.57672780000E-01 -8.45844100000E-02 -4.98394490000E-01

  26  26   1    6 C    -4.89733340000E-01 -1.40286130000E-01 -4.95560020000E-01

  27  27   1    6 C     2.95840420000E-01 -2.47273050000E-01 -4.95315070000E-01

  28  28   1    6 C     3.49470510000E-01 -1.40050970000E-01 -4.96049900000E-01

  29  29   1    6 C     4.56536760000E-01 -2.47756380000E-01 -4.94160320000E-01

  30  30   1    6 C     3.49117570000E-01 -3.01648300000E-01 -4.96084940000E-01

  31  31   1    6 C     4.58296740000E-01  2.54358810000E-01  4.98386090000E-01

  32  32   1    6 C    -4.87993370000E-01  3.63199250000E-01  4.95551630000E-01

  33  33   1    6 C     2.97666850000E-01  2.55839630000E-01  4.95306650000E-01

  34  34   1    6 C     3.50989560000E-01  2.02075220000E-01  4.96041490000E-01

  35  35   1    6 C     4.58808280000E-01  4.17209340000E-01  4.94151910000E-01

  36  36   1    6 C     3.50655550000E-01  3.63329990000E-01  4.96076530000E-01

  37  37   1    8 O     4.64820470000E-01  8.85187200000E-02  4.99260930000E-01

  38  38   1    8 O    -3.77397550000E-01  8.62000900000E-02 -4.94685210000E-01

  39  39   1    8 O    -3.75645180000E-01  2.48654870000E-01  4.96181540000E-01

  40  40   1    8 O     1.84408300000E-01 -4.72200810000E-01  4.99260960000E-01

  41  41   1    8 O     1.83264720000E-01  3.66517370000E-01 -4.94685210000E-01

  42  42   1    8 O     3.43939240000E-01 -4.71033160000E-01  4.96181510000E-01

 NUMBER OF SYMMETRY OPERATORS         :    1
 *******************************************************************************
 * GEOMETRY EDITING - INPUT COORDINATES ARE GIVEN IN ANGSTROM         
 *******************************************************************************

 GCALCO - MAX INDICES DIRECT LATTICE VECTOR     9    12    27
 NO.OF VECTORS CREATED 6999 STARS 3500 RMAX   200.02269 BOHR

 GEOMETRY FOR WAVE FUNCTION - DIMENSIONALITY OF THE SYSTEM    3
 (NON PERIODIC DIRECTION: LATTICE PARAMETER FORMALLY SET TO 500)
 *******************************************************************************
 LATTICE PARAMETERS (ANGSTROMS AND DEGREES) - BOHR = 0.5291772083 ANGSTROM
 PRIMITIVE CELL - CENTRING CODE 1/0 VOLUME=   684.191255 - DENSITY  0.947 g/cm^3
         A              B              C           ALPHA      BETA       GAMMA 
    15.02361100    15.02391600     6.10327800    44.805648  89.999968 119.995964
 *******************************************************************************
 ATOMS IN THE ASYMMETRIC UNIT   42 - ATOMS IN THE UNIT CELL:   42
     ATOM                 X/A                 Y/B                 Z/C    
 *******************************************************************************
      1 T   5 B    -4.826390300000E-01  3.465949000000E-02 -4.986394700000E-01
      2 T   5 B    -3.235833800000E-01  1.937191400000E-01 -4.986394500000E-01
      3 T   5 B    -4.820920400000E-01  1.948045900000E-01  4.984910900000E-01
      4 T   5 B     1.309356700000E-01  4.209744800000E-01 -4.986394600000E-01
      5 T   5 B     2.900436500000E-01  4.209537200000E-01 -4.986394700000E-01
      6 T   5 B     2.905751900000E-01 -4.188044300000E-01  4.984910900000E-01
      7 T   1 H    -1.921330600000E-01  1.185573300000E-01  4.954115800000E-01
      8 T   1 H     1.632620000000E-03 -4.989697000000E-01  4.945018800000E-01
      9 T   1 H    -1.920036000000E-01  4.041030800000E-01  4.943618800000E-01
     10 T   1 H     1.754450000000E-03  2.157021700000E-01  4.943968000000E-01
     11 T   1 H    -4.059056800000E-01 -9.689176000000E-02 -4.954200200000E-01
     12 T   1 H     2.118168600000E-01 -2.908081600000E-01 -4.945102500000E-01
     13 T   1 H     3.087302100000E-01 -9.724932000000E-02 -4.943701600000E-01
     14 T   1 H     4.971791900000E-01 -2.909384800000E-01 -4.944053100000E-01
     15 T   1 H    -4.041039500000E-01  4.036814700000E-01  4.954116300000E-01
     16 T   1 H     2.139599200000E-01  2.155862000000E-01  4.945018300000E-01
     17 T   1 H     3.108655700000E-01  1.188539500000E-01  4.943617600000E-01
     18 T   1 H     4.993091300000E-01 -4.990248800000E-01  4.943969100000E-01
     19 T   6 C    -2.038578300000E-01  2.544279500000E-01  4.983861000000E-01
     20 T   6 C    -1.487144700000E-01  2.023591200000E-01  4.955515700000E-01
     21 T   6 C    -4.176842000000E-02  4.168528800000E-01  4.953067100000E-01
     22 T   6 C    -1.488456000000E-01  3.630773900000E-01  4.960415700000E-01
     23 T   6 C    -4.150833000000E-02  2.563613300000E-01  4.941518400000E-01
     24 T   6 C     1.273146000000E-02  3.634073900000E-01  4.960765300000E-01
     25 T   6 C     4.576727800000E-01 -8.458441000000E-02 -4.983944900000E-01
     26 T   6 C    -4.897333400000E-01 -1.402861300000E-01 -4.955600200000E-01
     27 T   6 C     2.958404200000E-01 -2.472730500000E-01 -4.953150700000E-01
     28 T   6 C     3.494705100000E-01 -1.400509700000E-01 -4.960499000000E-01
     29 T   6 C     4.565367600000E-01 -2.477563800000E-01 -4.941603200000E-01
     30 T   6 C     3.491175700000E-01 -3.016483000000E-01 -4.960849400000E-01
     31 T   6 C     4.582967400000E-01  2.543588100000E-01  4.983860900000E-01
     32 T   6 C    -4.879933700000E-01  3.631992500000E-01  4.955516300000E-01
     33 T   6 C     2.976668500000E-01  2.558396300000E-01  4.953066500000E-01
     34 T   6 C     3.509895600000E-01  2.020752200000E-01  4.960414900000E-01
     35 T   6 C     4.588082800000E-01  4.172093400000E-01  4.941519100000E-01
     36 T   6 C     3.506555500000E-01  3.633299900000E-01  4.960765300000E-01
     37 T   8 O     4.648204700000E-01  8.851872000000E-02  4.992609300000E-01
     38 T   8 O    -3.773975500000E-01  8.620009000000E-02 -4.946852100000E-01
     39 T   8 O    -3.756451800000E-01  2.486548700000E-01  4.961815400000E-01
     40 T   8 O     1.844083000000E-01 -4.722008100000E-01  4.992609600000E-01
     41 T   8 O     1.832647200000E-01  3.665173700000E-01 -4.946852100000E-01
     42 T   8 O     3.439392400000E-01 -4.710331600000E-01  4.961815100000E-01

 T = ATOM BELONGING TO THE ASYMMETRIC UNIT

 ****    1 SYMMOPS - TRANSLATORS IN FRACTIONAL UNITS
 **** MATRICES AND TRANSLATORS IN THE CRYSTALLOGRAPHIC REFERENCE FRAME
   V INV                    ROTATION MATRICES                   TRANSLATORS
   1   1  1.00 -0.00  0.00  0.00  1.00  0.00  0.00  0.00  1.00  0.00  0.00  0.00

 DIRECT LATTICE VECTORS CARTESIAN COMPONENTS (ANGSTROM)
          X                    Y                    Z
   0.130113578931E+02  -0.751088897922E+01   0.000000000000E+00
   0.000000000000E+00   0.150239160000E+02   0.000000000000E+00
   0.249968759379E+01   0.433028351004E+01   0.350002985722E+01


 CARTESIAN COORDINATES - PRIMITIVE CELL
 *******************************************************************************
 *      ATOM          X(ANGSTROM)         Y(ANGSTROM)         Z(ANGSTROM)
 *******************************************************************************
    1     5 B     2.985438249847E+00  5.169262674078E+00 -5.245282890206E+00
    2     5 B    -5.456702012364E+00  3.181568741862E+00 -1.745252962987E+00
    3     5 B    -2.526912482757E+00 -1.987357156253E+00  5.244763555776E+00
    4     5 B     4.572079914014E-01  3.181991713781E+00 -1.745252997987E+00
    5     5 B     2.527418837826E+00  1.986637400495E+00 -1.745253032988E+00
    6     5 B     2.527162191431E+00  4.377679667937E+00 -1.755296158661E+00
    7     1 H    -3.761225420192E+00  1.039274535519E+00 -1.766074535607E+00
    8     1 H    -1.242344776124E+00  5.326224539698E+00 -1.769258512768E+00
    9     1 H     1.237210295712E+00 -1.039576940533E+00  5.230311197489E+00
   10     1 H    -1.241022269565E+00  1.038108604345E+00 -1.769626295905E+00
   11     1 H    -4.020091757224E+00  3.777993202071E+00  1.766044995355E+00
   12     1 H     4.019591430106E+00 -3.771096358422E+00  1.769229217518E+00
   13     1 H     5.280915892806E+00 -1.590383388241E+00  1.769719536701E+00
   14     1 H    -5.278552740908E+00  1.594964344533E+00  1.769596510651E+00
   15     1 H    -1.519879220329E+00  5.516967226597E-01  5.233985353832E+00
   16     1 H     1.520321589658E+00 -5.570306354690E-01 -1.769258687769E+00
   17     1 H     2.780845552426E+00 -2.738781955380E+00 -1.769748936951E+00
   18     1 H     5.232840018246E+00  1.586947955979E+00 -1.769625910902E+00
   19     6 C    -3.906345228134E+00  3.181527277950E+00 -1.755663626796E+00
   20     6 C    -3.195940675224E+00  1.972799576393E+00 -1.765584566427E+00
   21     6 C    -1.805039416929E+00  4.391015587621E+00 -1.766441583738E+00
   22     6 C    -3.196422007663E+00  4.390524106330E+00 -1.763869551797E+00
   23     6 C    -1.804542107066E+00  1.972849600079E+00 -1.770483663219E+00
   24     6 C    -1.093997663617E+00  3.182046026073E+00 -1.763747190753E+00
   25     6 C     2.209426221235E+00  3.827124538280E+00 -5.244425452892E+00
   26     6 C     2.900829306394E+00  2.607513840979E+00 -5.234504723262E+00
   27     6 C     1.114650545672E-01  2.611743727617E+00 -5.233647390949E+00
   28     6 C     8.074285039595E-01  3.816647576715E+00 -5.236219317889E+00
   29     6 C     2.205229160660E+00  1.402510244073E+00 -5.229605731471E+00
   30     6 C     8.027486862515E-01  1.391322024993E+00 -5.236341958935E+00
   31     6 C     4.709184837662E+00 -1.792880981256E+00 -1.755663661796E+00
   32     6 C     5.400938174352E+00 -5.733543895671E-01 -1.765584356425E+00
   33     6 C     2.611474212586E+00 -5.774948436836E-01 -1.766441793740E+00
   34     6 C     3.307111946655E+00 -1.782565712660E+00 -1.763869831799E+00
   35     6 C     4.705256540463E+00  6.315943820382E-01 -1.770483418217E+00
   36     6 C     3.302853612058E+00  6.427728515819E-01 -1.763747190753E+00
   37     8 O     4.796254250184E+00 -4.329659269383E+00 -1.752601695676E+00
   38     8 O    -6.147013073281E+00  1.987526802907E+00 -1.731413004924E+00
   39     8 O    -1.147667444187E+00 -1.987826626884E+00  5.236680061819E+00
   40     8 O     1.147711223736E+00  4.376198419537E+00 -1.752601590675E+00
   41     8 O     1.147964378823E+00  1.987918006170E+00 -1.731413004924E+00
   42     8 O     3.215727716131E+00  3.182187024409E+00 -1.763379757619E+00

 *******************************************************************************
 STARTING BASIS SET HANDLING 
 *******************************************************************************

 Loading internal basis set: SOLDEF2MSVP         

 Please cite in your publication:
 L. Dona', J. G. Brandenburg and B. Civalleri, J. Chem. Phys., 151, 121101 (2019
 )                                                                              
                                                                                
                    

 *******************************************************************************
 LOCAL ATOMIC FUNCTIONS BASIS SET
 *******************************************************************************
   ATOM   X(AU)   Y(AU)   Z(AU)  N. TYPE  EXPONENT  S COEF   P COEF   D/F/G COEF
 *******************************************************************************
   1 B    5.642   9.768  -9.912
                                  1 S  
                                         2.410E+03 1.755E-03 0.000E+00 0.000E+00
                                         3.619E+02 1.344E-02 0.000E+00 0.000E+00
                                         8.231E+01 6.637E-02 0.000E+00 0.000E+00
                                         2.311E+01 2.303E-01 0.000E+00 0.000E+00
                                         7.252E+00 5.150E-01 0.000E+00 0.000E+00
                                  2 S  
                                         2.367E+00 1.000E+00 0.000E+00 0.000E+00
                                  3 S  
                                         5.533E-01 1.000E+00 0.000E+00 0.000E+00
                                  4 S  
                                         1.716E-01 1.000E+00 0.000E+00 0.000E+00
                           5-     7 P  
                                         6.002E+00 0.000E+00-3.555E-02 0.000E+00
                                         1.240E+00 0.000E+00-1.983E-01 0.000E+00
                                         3.367E-01 0.000E+00-5.048E-01 0.000E+00
                           8-    10 P  
                                         1.256E-01 0.000E+00 1.000E+00 0.000E+00
                          11-    15 D  
                                         8.880E-01 0.000E+00 0.000E+00 1.000E+00
   2 B  -10.312   6.012  -3.298
   3 B   -4.775  -3.756   9.911
   4 B    0.864   6.013  -3.298
   5 B    4.776   3.754  -3.298
   6 B    4.776   8.273  -3.317
   7 H   -7.108   1.964  -3.337
                                 91 S  
                                         1.874E+01 1.968E-02 0.000E+00 0.000E+00
                                         2.826E+00 1.380E-01 0.000E+00 0.000E+00
                                         6.401E-01 4.783E-01 0.000E+00 0.000E+00
                                 92 S  
                                         1.756E-01 1.000E+00 0.000E+00 0.000E+00
   8 H   -2.348  10.065  -3.343
   9 H    2.338  -1.965   9.884
  10 H   -2.345   1.962  -3.344
  11 H   -7.597   7.139   3.337
  12 H    7.596  -7.126   3.343
  13 H    9.979  -3.005   3.344
  14 H   -9.975   3.014   3.344
  15 H   -2.872   1.043   9.891
  16 H    2.873  -1.053  -3.343
  17 H    5.255  -5.176  -3.344
  18 H    9.889   2.999  -3.344
  19 C   -7.382   6.012  -3.318
                                115 S  
                                         3.624E+03 1.634E-03 0.000E+00 0.000E+00
                                         5.440E+02 1.252E-02 0.000E+00 0.000E+00
                                         1.237E+02 6.211E-02 0.000E+00 0.000E+00
                                         3.476E+01 2.182E-01 0.000E+00 0.000E+00
                                         1.093E+01 4.980E-01 0.000E+00 0.000E+00
                                116 S  
                                         3.574E+00 1.000E+00 0.000E+00 0.000E+00
                                117 S  
                                         7.742E-01 1.000E+00 0.000E+00 0.000E+00
                                118 S  
                                         2.330E-01 1.000E+00 0.000E+00 0.000E+00
                         119-   121 P  
                                         9.443E+00 0.000E+00 3.790E-02 0.000E+00
                                         2.002E+00 0.000E+00 2.082E-01 0.000E+00
                                         5.463E-01 0.000E+00 5.047E-01 0.000E+00
                         122-   124 P  
                                         1.820E-01 0.000E+00 1.000E+00 0.000E+00
                         125-   129 D  
                                         8.880E-01 0.000E+00 0.000E+00 1.000E+00
  20 C   -6.039   3.728  -3.336
  21 C   -3.411   8.298  -3.338
  22 C   -6.040   8.297  -3.333
  23 C   -3.410   3.728  -3.346
  24 C   -2.067   6.013  -3.333
  25 C    4.175   7.232  -9.911
  26 C    5.482   4.927  -9.892
  27 C    0.211   4.935  -9.890
  28 C    1.526   7.212  -9.895
  29 C    4.167   2.650  -9.883
  30 C    1.517   2.629  -9.895
  31 C    8.899  -3.388  -3.318
  32 C   10.206  -1.083  -3.336
  33 C    4.935  -1.091  -3.338
  34 C    6.250  -3.369  -3.333
  35 C    8.892   1.194  -3.346
  36 C    6.241   1.215  -3.333
  37 O    9.064  -8.182  -3.312
                                385 S  
                                         6.773E+03 1.727E-03 0.000E+00 0.000E+00
                                         1.017E+03 1.325E-02 0.000E+00 0.000E+00
                                         2.313E+02 6.603E-02 0.000E+00 0.000E+00
                                         6.501E+01 2.353E-01 0.000E+00 0.000E+00
                                         2.050E+01 5.498E-01 0.000E+00 0.000E+00
                                386 S  
                                         6.716E+00 1.000E+00 0.000E+00 0.000E+00
                                387 S  
                                         1.147E+00 1.000E+00 0.000E+00 0.000E+00
                                388 S  
                                         3.342E-01 1.000E+00 0.000E+00 0.000E+00
                         389-   391 P  
                                         1.769E+01 0.000E+00 4.359E-02 0.000E+00
                                         3.854E+00 0.000E+00 2.318E-01 0.000E+00
                                         1.047E+00 0.000E+00 5.146E-01 0.000E+00
                         392-   394 P  
                                         2.759E-01 0.000E+00 1.000E+00 0.000E+00
                         395-   399 D  
                                         8.000E-01 0.000E+00 0.000E+00 1.000E+00
  38 O  -11.616   3.756  -3.272
  39 O   -2.169  -3.756   9.896
  40 O    2.169   8.270  -3.312
  41 O    2.169   3.757  -3.272
  42 O    6.077   6.013  -3.332

 *******************************************************************************
 FINISHED BASIS SET HANDLING 
 *******************************************************************************

 INFORMATION **** SET_MPP **** PCRYSTAL CALCULATION
 INFORMATION **** READM2 **** NEW DEFAULT: FOCK/KS MATRIX MIXING SET TO 30 %
 INFORMATION **** READM2 **** NEW DEFAULT: FULL DIRECT SCF MODE
 INFORMATION **** READM2 **** NEW DEFAULT: COULOMB BIPOLAR BUFFER SET TO 32 Mb
 INFORMATION **** READM2 **** NEW DEFAULT: EXCHANGE BIPOLAR BUFFER SET TO 32 Mb

 *******************************************************************************
 NEW DEFAULT: DFT INTEGRATION GRID INCREASED TO XLGRID
 NEW DEFAULT: DIIS ACCELERATOR ACTIVE
 USE KEYWORD NODIIS TO TURN IT OFF
 *******************************************************************************

 WARNING **** RDDFTP **** HSEsol-HJS ACTIVE
 RANGE SEPARATION - OMEGA:   0.110000000000000     
 WARNING **** RDDFTP **** HSEsol-3c has to be combined with sol-def2-mSVP basis set
 *******************************************************************************
 N. OF ATOMS PER CELL        42  COULOMB OVERLAP TOL         (T1) 10**   -6
 NUMBER OF SHELLS           234  COULOMB PENETRATION TOL     (T2) 10**   -6
 NUMBER OF AO               474  EXCHANGE OVERLAP TOL        (T3) 10**   -6
 N. OF ELECTRONS PER CELL   198  EXCHANGE PSEUDO OVP (F(G))  (T4) 10**   -6
 CORE ELECTRONS PER CELL     60  EXCHANGE PSEUDO OVP (P(G))  (T5) 10**  -12
 N. OF SYMMETRY OPERATORS     1  POLE ORDER IN MONO ZONE                  4
 *******************************************************************************
 TYPE OF CALCULATION :  RESTRICTED CLOSED SHELL
 KOHN-SHAM HAMILTONIAN

 (EXCHANGE)[CORRELATION] FUNCTIONAL:(HSEsol GGA)[PBEsol]

 RANGE-SEPARATED HYBRID FUNCTIONAL 
 OMEGA (SHORT-RANGE)[LONG-RANGE]:(    0.1100)[    0.0000]

 HYBRID EXCHANGE - PERCENTAGE OF FOCK EXCHANGE    25.0000

 CAPPA:IS1  2;IS2  2;IS3  8; K PTS MONK NET  20; SYMMOPS:K SPACE   2;G SPACE   1

 *******************************************************************************
 MAX NUMBER OF SCF CYCLES      50  CONVERGENCE ON DELTAP        10**-16
 WEIGHT OF F(I) IN F(I+1)      30% CONVERGENCE ON ENERGY        10**- 6
 SHRINK. FACT.(MONKH.)    2  2  8  NUMBER OF K POINTS IN THE IBZ     20
 SHRINKING FACTOR(GILAT NET)    8  NUMBER OF K POINTS(GILAT NET)   1028
 *******************************************************************************
 *** K POINTS COORDINATES (OBLIQUE COORDINATES IN UNITS OF IS =  2)
   1-R(  0  0  0)   2-R(  1  0  0)   3-R(  0  1  0)   4-R(  1  1  0)
   5-C(  0  0  1)   6-C(  1  0  1)   7-C(  0  1  1)   8-C(  1  1  1)
   9-C(  0  0  2)  10-C(  1  0  2)  11-C(  0  1  2)  12-C(  1  1  2)
  13-C(  0  0  3)  14-C(  1  0  3)  15-C(  0  1  3)  16-C(  1  1  3)
  17-R(  0  0  4)  18-R(  1  0  4)  19-R(  0  1  4)  20-R(  1  1  4)

 DIRECT LATTICE VECTORS COMPON. (A.U.)     RECIP. LATTICE VECTORS COMPON. (A.U.) 
        X            Y            Z              X            Y            Z
   24.5879030  -14.1935232    0.0000000      0.2555397    0.0000000   -0.1825040
    0.0000000   28.3910867    0.0000000      0.1277517    0.2213084   -0.3650447
    4.7237250    8.1830499    6.6140979      0.0000000    0.0000000    0.9499686

 DISK SPACE FOR EIGENVECTORS (FTN 10)     7189632 REALS

 SYMMETRY ADAPTION OF THE BLOCH FUNCTIONS DISABLED
 TTTTTTTTTTTTTTTTTTTTTTTTTTTTTT gordsh1     TELAPSE        0.04 TCPU        0.04

 MATRIX SIZE: P(G)  344964, F(G)   68912, P(G) IRR  173673, F(G) IRR   69536
 MAX G-VECTOR INDEX FOR 1- AND 2-ELECTRON INTEGRALS  77

 TTTTTTTTTTTTTTTTTTTTTTTTTTTTTT INPUT       TELAPSE        0.39 TCPU        0.39

 NEIGHBORS OF THE NON-EQUIVALENT ATOMS

 N = NUMBER OF NEIGHBORS AT DISTANCE R
    ATOM  N     R/ANG      R/AU   NEIGHBORS (ATOM LABELS AND CELL INDICES)
   1 B    1     1.3791     2.6061   37 O    0 1-1
   1 B    1     1.3793     2.6065   38 O    1 1-1
   1 B    1     1.5503     2.9297   25 C    0 0 0
   1 B    1     2.3895     4.5155    3 B    1 2-3
   1 B    1     2.3898     4.5160    2 B    1 1-1
   1 B    1     2.5632     4.8437   26 C    0 0 0

   2 B    1     1.3793     2.6065   39 O    0 1-2
   2 B    1     1.3793     2.6065   38 O    0 0 0
   2 B    1     1.5504     2.9298   19 C    0 0 0
   2 B    1     2.3895     4.5156    3 B    0 1-2
   2 B    1     2.3898     4.5160    1 B   -1-1 1
   2 B    1     2.5634     4.8440   22 C    0 0 0

   3 B    1     1.3791     2.6061   37 O   -1-1 2
   3 B    1     1.3793     2.6064   39 O    0 0 0
   3 B    1     1.5502     2.9294   31 C   -1-1 2
   3 B    1     2.3895     4.5155    1 B   -1-2 3
   3 B    1     2.3895     4.5156    2 B    0-1 2
   3 B    1     2.5629     4.8433   32 C   -1-1 2

   4 B    1     1.3795     2.6068   40 O    0 0 0
   4 B    1     1.3795     2.6070   41 O    0 0 0
   4 B    1     1.5513     2.9316   24 C    0 0 0
   4 B    1     2.3905     4.5174    6 B    0 0 0
   4 B    1     2.3905     4.5175    5 B    0 0 0
   4 B    1     2.5648     4.8468   23 C    0 0 0

   5 B    1     1.3795     2.6069   41 O    0 0 0
   5 B    1     1.3797     2.6072   42 O    0 0 0
   5 B    1     1.5516     2.9322   36 C    0 0 0
   5 B    1     2.3905     4.5175    4 B    0 0 0
   5 B    1     2.3911     4.5185    6 B    0 0 0
   5 B    1     2.5651     4.8473   35 C    0 0 0

   6 B    1     1.3795     2.6068   40 O    0 0 0
   6 B    1     1.3796     2.6071   42 O    0 0 0
   6 B    1     1.5516     2.9322   30 C    0 0 1
   6 B    1     2.3905     4.5174    4 B    0 0 0
   6 B    1     2.3911     4.5185    5 B    0 0 0
   6 B    1     2.5651     4.8473   29 C    0 0 1

   7 H    1     1.0913     2.0623   20 C    0 0 0
   7 H    1     2.1472     4.0576   19 C    0 0 0
   7 H    1     2.1680     4.0969   23 C    0 0 0
   7 H    1     2.5202     4.7625   10 H    0 0 0
   7 H    1     2.5676     4.8520   38 O    0 0 0
   7 H    1     2.7321     5.1630    2 B    0 0 0

   8 H    1     1.0914     2.0625   21 C    0 0 0
   8 H    1     2.1493     4.0616   24 C    0 0 0
   8 H    1     2.1666     4.0942   22 C    0 0 0
   8 H    1     2.5198     4.7618    9 H    0 1-2
   8 H    1     2.5720     4.8604   40 O    0 0 0
   8 H    1     2.7362     5.1707    4 B    0 0 0

   9 H    1     1.0914     2.0624   22 C    0-1 2
   9 H    1     2.1471     4.0575   19 C    0-1 2
   9 H    1     2.1680     4.0970   21 C    0-1 2
   9 H    1     2.5198     4.7618    8 H    0-1 2
   9 H    1     2.5665     4.8500   39 O    0 0 0
   9 H    1     2.7315     5.1618    2 B    0-1 2

  10 H    1     1.0915     2.0626   23 C    0 0 0
  10 H    1     2.1490     4.0610   24 C    0 0 0
  10 H    1     2.1669     4.0948   20 C    0 0 0
  10 H    1     2.5202     4.7625    7 H    0 0 0
  10 H    1     2.5712     4.8588   41 O    0 0 0
  10 H    1     2.7351     5.1686    4 B    0 0 0

  11 H    1     1.0913     2.0623   26 C   -1-1 2
  11 H    1     2.1469     4.0571   25 C   -1-1 2
  11 H    1     2.1680     4.0968   29 C   -1-1 2
  11 H    1     2.5198     4.7617   14 H    0 0 0
  11 H    1     2.5670     4.8510   38 O    0 0 1
  11 H    1     2.7310     5.1609    1 B   -1-1 2

  12 H    1     1.0914     2.0625   27 C    0-1 2
  12 H    1     2.1493     4.0617   30 C    0-1 2
  12 H    1     2.1664     4.0939   28 C    0-1 2
  12 H    1     2.5192     4.7606   13 H    0 0 0
  12 H    1     2.5735     4.8632   40 O    0-1 1
  12 H    1     2.7371     5.1723    6 B    0-1 1

  13 H    1     1.0914     2.0624   28 C    0-1 2
  13 H    1     2.1475     4.0581   25 C    0-1 2
  13 H    1     2.1679     4.0967   27 C    0-1 2
  13 H    1     2.5192     4.7606   12 H    0 0 0
  13 H    1     2.5675     4.8519   37 O    0 0 1
  13 H    1     2.7328     5.1643    1 B    0-1 2

  14 H    1     1.0914     2.0625   29 C   -1-1 2
  14 H    1     2.1491     4.0612   30 C   -1-1 2
  14 H    1     2.1666     4.0942   26 C   -1-1 2
  14 H    1     2.5198     4.7617   11 H    0 0 0
  14 H    1     2.5723     4.8609   42 O   -1-1 1
  14 H    1     2.7355     5.1693    6 B   -1-1 1

  15 H    1     1.0914     2.0624   32 C   -1-1 2
  15 H    1     2.1475     4.0582   31 C   -1-1 2
  15 H    1     2.1678     4.0966   35 C   -1-1 2
  15 H    1     2.5200     4.7621   18 H   -1-1 2
  15 H    1     2.5667     4.8503   39 O    0 0 0
  15 H    1     2.7315     5.1618    3 B    0 0 0

  16 H    1     1.0913     2.0623   33 C    0 0 0
  16 H    1     2.1487     4.0605   36 C    0 0 0
  16 H    1     2.1667     4.0945   34 C    0 0 0
  16 H    1     2.5197     4.7616   17 H    0 0 0
  16 H    1     2.5723     4.8610   41 O    0 0 0
  16 H    1     2.7359     5.1701    5 B    0 0 0

  17 H    1     1.0915     2.0626   34 C    0 0 0
  17 H    1     2.1479     4.0589   31 C    0 0 0
  17 H    1     2.1679     4.0968   33 C    0 0 0
  17 H    1     2.5197     4.7616   16 H    0 0 0
  17 H    1     2.5677     4.8522   37 O    0 0 0
  17 H    1     2.7331     5.1648    3 B    1 1-2

  18 H    1     1.0914     2.0624   35 C    0 0 0
  18 H    1     2.1486     4.0602   36 C    0 0 0
  18 H    1     2.1668     4.0947   32 C    0 0 0
  18 H    1     2.5200     4.7621   15 H    1 1-2
  18 H    1     2.5717     4.8598   42 O    0 0 0
  18 H    1     2.7349     5.1682    5 B    0 0 0

  19 C    1     1.4020     2.6495   22 C    0 0 0
  19 C    1     1.4021     2.6495   20 C    0 0 0
  19 C    1     1.5504     2.9298    2 B    0 0 0
  19 C    1     2.1471     4.0575    9 H    0 1-2
  19 C    1     2.1472     4.0576    7 H    0 0 0
  19 C    1     2.4246     4.5817   21 C    0 0 0

  20 C    1     1.0913     2.0623    7 H    0 0 0
  20 C    1     1.3914     2.6294   23 C    0 0 0
  20 C    1     1.4021     2.6495   19 C    0 0 0
  20 C    1     2.1669     4.0948   10 H    0 0 0
  20 C    1     2.4177     4.5688   22 C    0 0 0
  20 C    1     2.4250     4.5825   24 C    0 0 0

  21 C    1     1.0914     2.0625    8 H    0 0 0
  21 C    1     1.3914     2.6293   22 C    0 0 0
  21 C    1     1.4026     2.6505   24 C    0 0 0
  21 C    1     2.1680     4.0970    9 H    0 1-2
  21 C    1     2.4182     4.5697   23 C    0 0 0
  21 C    1     2.4246     4.5817   19 C    0 0 0

  22 C    1     1.0914     2.0624    9 H    0 1-2
  22 C    1     1.3914     2.6293   21 C    0 0 0
  22 C    1     1.4020     2.6495   19 C    0 0 0
  22 C    1     2.1666     4.0942    8 H    0 0 0
  22 C    1     2.4177     4.5688   20 C    0 0 0
  22 C    1     2.4250     4.5826   24 C    0 0 0

  23 C    1     1.0915     2.0626   10 H    0 0 0
  23 C    1     1.3914     2.6294   20 C    0 0 0
  23 C    1     1.4025     2.6504   24 C    0 0 0
  23 C    1     2.1680     4.0969    7 H    0 0 0
  23 C    1     2.4182     4.5697   21 C    0 0 0
  23 C    1     2.4246     4.5818   19 C    0 0 0

  24 C    1     1.4025     2.6504   23 C    0 0 0
  24 C    1     1.4026     2.6505   21 C    0 0 0
  24 C    1     1.5513     2.9316    4 B    0 0 0
  24 C    1     2.1490     4.0610   10 H    0 0 0
  24 C    1     2.1493     4.0616    8 H    0 0 0
  24 C    1     2.4250     4.5825   20 C    0 0 0

  25 C    1     1.4020     2.6494   26 C    0 0 0
  25 C    1     1.4021     2.6495   28 C    0 0 0
  25 C    1     1.5503     2.9297    1 B    0 0 0
  25 C    1     2.1469     4.0571   11 H    1 1-2
  25 C    1     2.1475     4.0581   13 H    0 1-2
  25 C    1     2.4246     4.5818   27 C    0 0 0

  26 C    1     1.0913     2.0623   11 H    1 1-2
  26 C    1     1.3914     2.6293   29 C    0 0 0
  26 C    1     1.4020     2.6494   25 C    0 0 0
  26 C    1     2.1666     4.0942   14 H    1 1-2
  26 C    1     2.4175     4.5684   28 C    0 0 0
  26 C    1     2.4251     4.5828   30 C    0 0 0

  27 C    1     1.0914     2.0625   12 H    0 1-2
  27 C    1     1.3915     2.6295   28 C    0 0 0
  27 C    1     1.4026     2.6505   30 C    0 0 0
  27 C    1     2.1679     4.0967   13 H    0 1-2
  27 C    1     2.4179     4.5691   29 C    0 0 0
  27 C    1     2.4246     4.5818   25 C    0 0 0

  28 C    1     1.0914     2.0624   13 H    0 1-2
  28 C    1     1.3915     2.6295   27 C    0 0 0
  28 C    1     1.4021     2.6495   25 C    0 0 0
  28 C    1     2.1664     4.0939   12 H    0 1-2
  28 C    1     2.4175     4.5684   26 C    0 0 0
  28 C    1     2.4253     4.5832   30 C    0 0 0

  29 C    1     1.0914     2.0625   14 H    1 1-2
  29 C    1     1.3914     2.6293   26 C    0 0 0
  29 C    1     1.4025     2.6504   30 C    0 0 0
  29 C    1     2.1680     4.0968   11 H    1 1-2
  29 C    1     2.4179     4.5691   27 C    0 0 0
  29 C    1     2.4247     4.5819   25 C    0 0 0

  30 C    1     1.4025     2.6504   29 C    0 0 0
  30 C    1     1.4026     2.6505   27 C    0 0 0
  30 C    1     1.5516     2.9322    6 B    0 0-1
  30 C    1     2.1491     4.0612   14 H    1 1-2
  30 C    1     2.1493     4.0617   12 H    0 1-2
  30 C    1     2.4251     4.5828   26 C    0 0 0

  31 C    1     1.4021     2.6496   32 C    0 0 0
  31 C    1     1.4021     2.6497   34 C    0 0 0
  31 C    1     1.5502     2.9294    3 B    1 1-2
  31 C    1     2.1475     4.0582   15 H    1 1-2
  31 C    1     2.1479     4.0589   17 H    0 0 0
  31 C    1     2.4244     4.5814   33 C    0 0 0

  32 C    1     1.0914     2.0624   15 H    1 1-2
  32 C    1     1.3914     2.6293   35 C    0 0 0
  32 C    1     1.4021     2.6496   31 C    0 0 0
  32 C    1     2.1668     4.0947   18 H    0 0 0
  32 C    1     2.4179     4.5692   34 C    0 0 0
  32 C    1     2.4251     4.5827   36 C    0 0 0

  33 C    1     1.0913     2.0623   16 H    0 0 0
  33 C    1     1.3914     2.6294   34 C    0 0 0
  33 C    1     1.4025     2.6504   36 C    0 0 0
  33 C    1     2.1679     4.0968   17 H    0 0 0
  33 C    1     2.4178     4.5690   35 C    0 0 0
  33 C    1     2.4244     4.5814   31 C    0 0 0

  34 C    1     1.0915     2.0626   17 H    0 0 0
  34 C    1     1.3914     2.6294   33 C    0 0 0
  34 C    1     1.4021     2.6497   31 C    0 0 0
  34 C    1     2.1667     4.0945   16 H    0 0 0
  34 C    1     2.4179     4.5692   32 C    0 0 0
  34 C    1     2.4253     4.5832   36 C    0 0 0

  35 C    1     1.0914     2.0624   18 H    0 0 0
  35 C    1     1.3914     2.6293   32 C    0 0 0
  35 C    1     1.4025     2.6503   36 C    0 0 0
  35 C    1     2.1678     4.0966   15 H    1 1-2
  35 C    1     2.4178     4.5690   33 C    0 0 0
  35 C    1     2.4245     4.5817   31 C    0 0 0

  36 C    1     1.4025     2.6503   35 C    0 0 0
  36 C    1     1.4025     2.6504   33 C    0 0 0
  36 C    1     1.5516     2.9322    5 B    0 0 0
  36 C    1     2.1486     4.0602   18 H    0 0 0
  36 C    1     2.1487     4.0605   16 H    0 0 0
  36 C    1     2.4251     4.5827   32 C    0 0 0

  37 O    1     1.3791     2.6061    3 B    1 1-2
  37 O    1     1.3791     2.6061    1 B    0-1 1
  37 O    1     2.3880     4.5126   38 O    1 0 0
  37 O    1     2.3882     4.5130   39 O    1 1-2
  37 O    1     2.5383     4.7966   31 C    0 0 0
  37 O    1     2.5384     4.7968   25 C    0-1 1

  38 O    1     1.3793     2.6065    1 B   -1-1 1
  38 O    1     1.3793     2.6065    2 B    0 0 0
  38 O    1     2.3880     4.5126   37 O   -1 0 0
  38 O    1     2.3882     4.5131   39 O    0 1-2
  38 O    1     2.5391     4.7981   19 C    0 0 0
  38 O    1     2.5395     4.7990   25 C   -1-1 1

  39 O    1     1.3793     2.6064    3 B    0 0 0
  39 O    1     1.3793     2.6065    2 B    0-1 2
  39 O    1     2.3882     4.5130   37 O   -1-1 2
  39 O    1     2.3882     4.5131   38 O    0-1 2
  39 O    1     2.5390     4.7980   19 C    0-1 2
  39 O    1     2.5391     4.7982   31 C   -1-1 2

  40 O    1     1.3795     2.6068    6 B    0 0 0
  40 O    1     1.3795     2.6068    4 B    0 0 0
  40 O    1     2.3880     4.5126   42 O    0 0 0
  40 O    1     2.3884     4.5134   41 O    0 0 0
  40 O    1     2.5400     4.7998   24 C    0 0 0
  40 O    1     2.5403     4.8005   30 C    0 0 1

  41 O    1     1.3795     2.6069    5 B    0 0 0
  41 O    1     1.3795     2.6070    4 B    0 0 0
  41 O    1     2.3881     4.5128   42 O    0 0 0
  41 O    1     2.3884     4.5134   40 O    0 0 0
  41 O    1     2.5404     4.8006   24 C    0 0 0
  41 O    1     2.5405     4.8008   36 C    0 0 0

  42 O    1     1.3796     2.6071    6 B    0 0 0
  42 O    1     1.3797     2.6072    5 B    0 0 0
  42 O    1     2.3880     4.5126   40 O    0 0 0
  42 O    1     2.3881     4.5128   41 O    0 0 0
  42 O    1     2.5409     4.8016   36 C    0 0 0
  42 O    1     2.5410     4.8019   30 C    0 0 1


 SYMMETRY ALLOWED INTERNAL DEGREE(S) OF FREEDOM: 123
 TTTTTTTTTTTTTTTTTTTTTTTTTTTTTT SYMM        TELAPSE        0.39 TCPU        0.39
 TTTTTTTTTTTTTTTTTTTTTTTTTTTTTT INT_SCREEN  TELAPSE        0.43 TCPU        0.42

 DFT PARAMETERS

     ATOM       ELECTRONS   NET CHARGE   R(ANGSTROM)
   1   5  B       5.0000      0.0000     0.89000000
   7   1  H       1.0000      0.0000     1.11000000
  19   6  C       6.0000      0.0000     0.77000000
  37   8  O       8.0000      0.0000     0.74000000

 SIZE OF GRID=    1282518
 TTTTTTTTTTTTTTTTTTTTTTTTTTTTTT MAKE_GRID2  TELAPSE        9.99 TCPU        9.97
 BECKE WEIGHT FUNCTION
 RADSAFE =     2.00
 TOLERANCES - DENSITY:10**- 6; POTENTIAL:10**- 9; GRID WGT:10**-14

 RADIAL INTEGRATION  - INTERVALS (POINTS,UPPER LIMIT):            1( 75,  4.0*R)

 ANGULAR INTEGRATION - INTERVALS (ACCURACY LEVEL [N. POINTS] UPPER LIMIT):
  1(  4[  86]   0.2)  2(  8[ 194]   0.5)  3( 12[ 350]   0.9)  4( 16[ 974]   3.5)
  5( 12[ 350]9999.0)
 TTTTTTTTTTTTTTTTTTTTTTTTTTTTTT INT_CALC    TELAPSE       10.07 TCPU       10.06
 EEEEEEEEEE INT_CALC TERMINATION  DATE 19 02 2026 TIME 18:28:06.4

 *******************************************************************************
 cof-1_z35_L050_incl                                                             
 CRYSTAL - SCF - TYPE OF CALCULATION :  RESTRICTED CLOSED SHELL
 *******************************************************************************

 CAPPA:IS1  2;IS2  2;IS3  8; K PTS MONK NET  20; SYMMOPS:K SPACE   2;G SPACE   1

 TTTTTTTTTTTTTTTTTTTTTTTTTTTTTT SDIK        TELAPSE       10.65 TCPU       18.12

 AAAAAAAAAAAAAAAAAAAAAAAAAAAAAAAAAAAAAAAAAAAAAAAAAAAAAAAAAAAAAAAAAAAAAAAAAAAAAAA
         ATOMIC WAVEFUNCTION(S)


 NUCLEAR CHARGE  5.0  SYMMETRY SPECIES            S    P
 N. ELECTRONS    5.0  NUMBER OF PRIMITIVE GTOS    8    4
                      NUMBER OF CONTRACTED GTOS   4    2
                      NUMBER OF CLOSED SHELLS     2    0
                      OPEN SHELL OCCUPATION       0    1

  ZNUC  SCFIT    TOTAL HF ENERGY   KINETIC ENERGY   VIRIAL THEOREM ACCURACY
   5.0    11    -2.451164084E+01  2.462155050E+01 -1.995536038E+00  1.5E-06

 NUCLEAR CHARGE  1.0  SYMMETRY SPECIES            S
 N. ELECTRONS    1.0  NUMBER OF PRIMITIVE GTOS    4
                      NUMBER OF CONTRACTED GTOS   2
                      NUMBER OF CLOSED SHELLS     0
                      OPEN SHELL OCCUPATION       1

  ZNUC  SCFIT    TOTAL HF ENERGY   KINETIC ENERGY   VIRIAL THEOREM ACCURACY
   1.0     1    -4.977266687E-01  5.190767460E-01 -1.958869132E+00  0.0E+00

 NUCLEAR CHARGE  6.0  SYMMETRY SPECIES            S    P
 N. ELECTRONS    6.0  NUMBER OF PRIMITIVE GTOS    8    4
                      NUMBER OF CONTRACTED GTOS   4    2
                      NUMBER OF CLOSED SHELLS     2    0
                      OPEN SHELL OCCUPATION       0    2

  ZNUC  SCFIT    TOTAL HF ENERGY   KINETIC ENERGY   VIRIAL THEOREM ACCURACY
   6.0     9    -3.766704647E+01  3.775180683E+01 -1.997754800E+00  1.1E-06

 NUCLEAR CHARGE  8.0  SYMMETRY SPECIES            S    P
 N. ELECTRONS    8.0  NUMBER OF PRIMITIVE GTOS    8    4
                      NUMBER OF CONTRACTED GTOS   4    2
                      NUMBER OF CLOSED SHELLS     2    0
                      OPEN SHELL OCCUPATION       0    4

  ZNUC  SCFIT    TOTAL HF ENERGY   KINETIC ENERGY   VIRIAL THEOREM ACCURACY
   8.0    12    -7.477373220E+01  7.477365593E+01 -2.000001020E+00  3.8E-06

 AAAAAAAAAAAAAAAAAAAAAAAAAAAAAAAAAAAAAAAAAAAAAAAAAAAAAAAAAAAAAAAAAAAAAAAAAAAAAAA

 CHARGE NORMALIZATION FACTOR   1.00000000
 TOTAL ATOMIC CHARGES:
   5.0000000   5.0000000   5.0000000   5.0000000   5.0000000   5.0000000
   1.0000000   1.0000000   1.0000000   1.0000000   1.0000000   1.0000000
   1.0000000   1.0000000   1.0000000   1.0000000   1.0000000   1.0000000
   6.0000000   6.0000000   6.0000000   6.0000000   6.0000000   6.0000000
   6.0000000   6.0000000   6.0000000   6.0000000   6.0000000   6.0000000
   6.0000000   6.0000000   6.0000000   6.0000000   6.0000000   6.0000000
   8.0000000   8.0000000   8.0000000   8.0000000   8.0000000   8.0000000
 TTTTTTTTTTTTTTTTTTTTTTTTTTTTTT MOQGAD      TELAPSE       10.70 TCPU       19.65
 TTTTTTTTTTTTTTTTTTTTTTTTTTTTTT SHELLXN     TELAPSE       19.11 TCPU      288.58
 TTTTTTTTTTTTTTTTTTTTTTTTTTTTTT MONMO3      TELAPSE       19.27 TCPU      293.50
 NUMERICALLY INTEGRATED DENSITY    197.9999304428
 TTTTTTTTTTTTTTTTTTTTTTTTTTTTTT NUMDFT      TELAPSE       19.91 TCPU      314.21
 CYC   0 ETOT(AU) -1.295969018084E+03 DETOT -1.30E+03 tst  0.00E+00 PX  1.00E+00
 TTTTTTTTTTTTTTTTTTTTTTTTTTTTTT DIIS        TELAPSE       19.95 TCPU      315.37
 TTTTTTTTTTTTTTTTTTTTTTTTTTTTTT FDIK        TELAPSE       20.45 TCPU      331.27
 INSULATING STATE
 TOP OF VALENCE BANDS -    BAND     99; K    1; EIG -3.1144429E-01 AU
 BOTTOM OF VIRTUAL BANDS - BAND    100; K   17; EIG -1.7124391E-01 AU
 INDIRECT ENERGY BAND GAP:   3.8150 eV
 BOTTOM OF VIRTUAL BANDS - BAND    100; K    1; EIG -1.5669905E-01 AU
 TTTTTTTTTTTTTTTTTTTTTTTTTTTTTT PDIG        TELAPSE       20.78 TCPU      337.45
 CHARGE NORMALIZATION FACTOR   1.00000000
 TOTAL ATOMIC CHARGES:
   4.1419900   4.1634701   4.1637750   4.1627855   4.1624704   4.1415457
   0.7854117   0.7855696   0.7844867   0.7845525   0.7858931   0.7860922
   0.7858854   0.7860461   0.7844649   0.7846074   0.7853617   0.7855616
   6.0452922   6.2678918   6.2679162   6.2657473   6.2659617   6.0447444
   6.0486768   6.2612081   6.2614608   6.2611305   6.2614940   6.0473839
   6.0456855   6.2655269   6.2663445   6.2674923   6.2682114   6.0443456
   8.6976603   8.6979303   8.6951493   8.6984584   8.6956279   8.6986902
 TTTTTTTTTTTTTTTTTTTTTTTTTTTTTT MOQGAD      TELAPSE       20.83 TCPU      337.50
 TTTTTTTTTTTTTTTTTTTTTTTTTTTTTT SHELLXN     TELAPSE       29.58 TCPU      616.70
 TTTTTTTTTTTTTTTTTTTTTTTTTTTTTT MONMO3      TELAPSE       29.73 TCPU      621.60
 NUMERICALLY INTEGRATED DENSITY    197.9999540949
 TTTTTTTTTTTTTTTTTTTTTTTTTTTTTT NUMDFT      TELAPSE       30.39 TCPU      642.56
 CYC   1 ETOT(AU) -1.288827623610E+03 DETOT  7.14E+00 tst  0.00E+00 PX  1.00E+00
 TTTTTTTTTTTTTTTTTTTTTTTTTTTTTT DIIS        TELAPSE       30.43 TCPU      643.93
 DIIS TEST: 0.10892E+01 AT SCF   CYCLE   1 - MIX   30 %
 TTTTTTTTTTTTTTTTTTTTTTTTTTTTTT FDIK        TELAPSE       30.93 TCPU      660.04
 INSULATING STATE
 TOP OF VALENCE BANDS -    BAND     99; K    1; EIG -2.2773955E-01 AU
 BOTTOM OF VIRTUAL BANDS - BAND    100; K   17; EIG -9.8920495E-02 AU
 INDIRECT ENERGY BAND GAP:   3.5053 eV
 BOTTOM OF VIRTUAL BANDS - BAND    100; K    1; EIG -7.8603419E-02 AU
 TTTTTTTTTTTTTTTTTTTTTTTTTTTTTT PDIG        TELAPSE       31.26 TCPU      666.23
 CHARGE NORMALIZATION FACTOR   1.00000000
 TOTAL ATOMIC CHARGES:
   4.6740966   4.6954904   4.6958307   4.6951950   4.6952313   4.6741651
   0.9055938   0.9057335   0.9149604   0.9151069   0.8944276   0.8941777
   0.8945065   0.8941352   0.9149145   0.9151894   0.9056003   0.9056587
   5.8708046   6.1425004   6.1433487   6.1382831   6.1382041   5.8734403
   5.8976229   6.1442591   6.1455407   6.1448215   6.1443855   5.8997008
   5.8705750   6.1377750   6.1386408   6.1430287   6.1428771   5.8735462
   8.3359349   8.3360920   8.3385667   8.3360377   8.3379709   8.3360298
 TTTTTTTTTTTTTTTTTTTTTTTTTTTTTT MOQGAD      TELAPSE       31.31 TCPU      666.27
 TTTTTTTTTTTTTTTTTTTTTTTTTTTTTT SHELLXN     TELAPSE       40.06 TCPU      945.45
 TTTTTTTTTTTTTTTTTTTTTTTTTTTTTT MONMO3      TELAPSE       40.21 TCPU      950.36
 NUMERICALLY INTEGRATED DENSITY    197.9999419143
 TTTTTTTTTTTTTTTTTTTTTTTTTTTTTT NUMDFT      TELAPSE       40.87 TCPU      971.40
 CYC   2 ETOT(AU) -1.289020434209E+03 DETOT -1.93E-01 tst  3.34E-03 PX  1.59E-01
 TTTTTTTTTTTTTTTTTTTTTTTTTTTTTT DIIS        TELAPSE       40.92 TCPU      972.90
 DIIS TEST: 0.44585E+00 AT SCF   CYCLE   2 - DIIS ACTIVE - HISTORY:     2 CYCLES
 TTTTTTTTTTTTTTTTTTTTTTTTTTTTTT FDIK        TELAPSE       41.42 TCPU      989.05
 INSULATING STATE
 TOP OF VALENCE BANDS -    BAND     99; K    1; EIG -2.3736731E-01 AU
 BOTTOM OF VIRTUAL BANDS - BAND    100; K   17; EIG -9.4490290E-02 AU
 INDIRECT ENERGY BAND GAP:   3.8879 eV
 BOTTOM OF VIRTUAL BANDS - BAND    100; K    1; EIG -7.4856211E-02 AU
 TTTTTTTTTTTTTTTTTTTTTTTTTTTTTT PDIG        TELAPSE       41.75 TCPU      995.23
 CHARGE NORMALIZATION FACTOR   1.00000000
 TOTAL ATOMIC CHARGES:
   4.4682713   4.4975277   4.4977021   4.4967860   4.4965675   4.4682621
   0.8856656   0.8860425   0.8925977   0.8926439   0.8782952   0.8783606
   0.8784626   0.8781741   0.8924424   0.8927915   0.8857339   0.8858932
   5.8969146   6.1651004   6.1647720   6.1562791   6.1557897   5.8970245
   5.9053833   6.1658748   6.1660424   6.1655268   6.1661094   5.9044614
   5.8970643   6.1562152   6.1558710   6.1647930   6.1651420   5.8968827
   8.5175574   8.5180309   8.5151205   8.5181398   8.5151241   8.5185606
 TTTTTTTTTTTTTTTTTTTTTTTTTTTTTT MOQGAD      TELAPSE       41.80 TCPU      995.28
 TTTTTTTTTTTTTTTTTTTTTTTTTTTTTT SHELLXN     TELAPSE       50.55 TCPU     1274.53
 TTTTTTTTTTTTTTTTTTTTTTTTTTTTTT MONMO3      TELAPSE       50.70 TCPU     1279.44
 NUMERICALLY INTEGRATED DENSITY    197.9999431941
 TTTTTTTTTTTTTTTTTTTTTTTTTTTTTT NUMDFT      TELAPSE       51.36 TCPU     1300.44
 CYC   3 ETOT(AU) -1.289112436866E+03 DETOT -9.20E-02 tst  6.18E-04 PX  6.49E-02
 TTTTTTTTTTTTTTTTTTTTTTTTTTTTTT DIIS        TELAPSE       51.42 TCPU     1302.21
 DIIS TEST: 0.14948E-01 AT SCF   CYCLE   3 - DIIS ACTIVE - HISTORY:     3 CYCLES
 TTTTTTTTTTTTTTTTTTTTTTTTTTTTTT FDIK        TELAPSE       51.92 TCPU     1318.32
 INSULATING STATE
 TOP OF VALENCE BANDS -    BAND     99; K    1; EIG -2.4902563E-01 AU
 BOTTOM OF VIRTUAL BANDS - BAND    100; K   17; EIG -1.0305644E-01 AU
 INDIRECT ENERGY BAND GAP:   3.9720 eV
 BOTTOM OF VIRTUAL BANDS - BAND    100; K    1; EIG -8.2466787E-02 AU
 TTTTTTTTTTTTTTTTTTTTTTTTTTTTTT PDIG        TELAPSE       52.25 TCPU     1324.51
 CHARGE NORMALIZATION FACTOR   1.00000000
 TOTAL ATOMIC CHARGES:
   4.4747207   4.5016897   4.5018846   4.5011195   4.5009433   4.4747836
   0.8686406   0.8688556   0.8750735   0.8751640   0.8593186   0.8591787
   0.8593512   0.8591392   0.8750348   0.8752325   0.8686474   0.8687914
   5.9397380   6.1720254   6.1725887   6.1677545   6.1679252   5.9419051
   5.9599582   6.1741955   6.1759367   6.1748087   6.1748446   5.9607199
   5.9399130   6.1671624   6.1684721   6.1723439   6.1723192   5.9417148
   8.4810393   8.4811248   8.4817508   8.4812784   8.4816404   8.4812715
 TTTTTTTTTTTTTTTTTTTTTTTTTTTTTT MOQGAD      TELAPSE       52.29 TCPU     1324.56
 TTTTTTTTTTTTTTTTTTTTTTTTTTTTTT SHELLXN     TELAPSE       61.04 TCPU     1603.75
 TTTTTTTTTTTTTTTTTTTTTTTTTTTTTT MONMO3      TELAPSE       61.20 TCPU     1608.65
 NUMERICALLY INTEGRATED DENSITY    197.9999438256
 TTTTTTTTTTTTTTTTTTTTTTTTTTTTTT NUMDFT      TELAPSE       61.86 TCPU     1629.68
 CYC   4 ETOT(AU) -1.289115662128E+03 DETOT -3.23E-03 tst  3.26E-05 PX  1.43E-02
 TTTTTTTTTTTTTTTTTTTTTTTTTTTTTT DIIS        TELAPSE       61.92 TCPU     1631.63
 DIIS TEST: 0.41608E-02 AT SCF   CYCLE   4 - DIIS ACTIVE - HISTORY:     4 CYCLES
 TTTTTTTTTTTTTTTTTTTTTTTTTTTTTT FDIK        TELAPSE       62.42 TCPU     1647.69
 INSULATING STATE
 TOP OF VALENCE BANDS -    BAND     99; K    1; EIG -2.4663101E-01 AU
 BOTTOM OF VIRTUAL BANDS - BAND    100; K   17; EIG -1.0261070E-01 AU
 INDIRECT ENERGY BAND GAP:   3.9190 eV
 BOTTOM OF VIRTUAL BANDS - BAND    100; K    1; EIG -8.2435177E-02 AU
 TTTTTTTTTTTTTTTTTTTTTTTTTTTTTT PDIG        TELAPSE       62.75 TCPU     1653.87
 CHARGE NORMALIZATION FACTOR   1.00000000
 TOTAL ATOMIC CHARGES:
   4.4767536   4.5036794   4.5038988   4.5031111   4.5029477   4.4767936
   0.8713781   0.8716862   0.8785790   0.8787139   0.8627423   0.8627717
   0.8628895   0.8626184   0.8784669   0.8788455   0.8714305   0.8715724
   5.9248812   6.1726709   6.1725590   6.1661394   6.1655178   5.9251301
   5.9411385   6.1738818   6.1741384   6.1735928   6.1740215   5.9405938
   5.9248435   6.1659177   6.1657209   6.1724891   6.1727904   5.9251255
   8.4918017   8.4922042   8.4906929   8.4922366   8.4904644   8.4925698
 TTTTTTTTTTTTTTTTTTTTTTTTTTTTTT MOQGAD      TELAPSE       62.79 TCPU     1653.92
 TTTTTTTTTTTTTTTTTTTTTTTTTTTTTT SHELLXN     TELAPSE       71.55 TCPU     1933.14
 TTTTTTTTTTTTTTTTTTTTTTTTTTTTTT MONMO3      TELAPSE       71.70 TCPU     1938.04
 NUMERICALLY INTEGRATED DENSITY    197.9999438647
 TTTTTTTTTTTTTTTTTTTTTTTTTTTTTT NUMDFT      TELAPSE       72.36 TCPU     1959.02
 CYC   5 ETOT(AU) -1.289116616374E+03 DETOT -9.54E-04 tst  8.35E-06 PX  6.50E-03
 TTTTTTTTTTTTTTTTTTTTTTTTTTTTTT DIIS        TELAPSE       72.43 TCPU     1961.17
 DIIS TEST: 0.52519E-04 AT SCF   CYCLE   5 - DIIS ACTIVE - HISTORY:     5 CYCLES
 TTTTTTTTTTTTTTTTTTTTTTTTTTTTTT FDIK        TELAPSE       72.93 TCPU     1977.35
 INSULATING STATE
 TOP OF VALENCE BANDS -    BAND     99; K    1; EIG -2.4643898E-01 AU
 BOTTOM OF VIRTUAL BANDS - BAND    100; K   17; EIG -1.0211144E-01 AU
 INDIRECT ENERGY BAND GAP:   3.9274 eV
 BOTTOM OF VIRTUAL BANDS - BAND    100; K    1; EIG -8.2034998E-02 AU
 TTTTTTTTTTTTTTTTTTTTTTTTTTTTTT PDIG        TELAPSE       73.26 TCPU     1983.54
 CHARGE NORMALIZATION FACTOR   1.00000000
 TOTAL ATOMIC CHARGES:
   4.4765808   4.5037082   4.5039226   4.5030839   4.5029029   4.4765957
   0.8723634   0.8726022   0.8793841   0.8794232   0.8637666   0.8635826
   0.8637945   0.8635508   0.8793124   0.8795115   0.8723664   0.8725341
   5.9239289   6.1714046   6.1718833   6.1650748   6.1655233   5.9263076
   5.9396361   6.1727855   6.1746411   6.1734721   6.1735416   5.9403609
   5.9242840   6.1646199   6.1659551   6.1717072   6.1716344   5.9259331
   8.4913733   8.4914654   8.4910236   8.4916829   8.4910856   8.4916897
 TTTTTTTTTTTTTTTTTTTTTTTTTTTTTT MOQGAD      TELAPSE       73.30 TCPU     1983.59
 TTTTTTTTTTTTTTTTTTTTTTTTTTTTTT SHELLXN     TELAPSE       82.06 TCPU     2262.82
 TTTTTTTTTTTTTTTTTTTTTTTTTTTTTT MONMO3      TELAPSE       82.21 TCPU     2267.72
 NUMERICALLY INTEGRATED DENSITY    197.9999437991
 TTTTTTTTTTTTTTTTTTTTTTTTTTTTTT NUMDFT      TELAPSE       82.87 TCPU     2288.67
 CYC   6 ETOT(AU) -1.289116630311E+03 DETOT -1.39E-05 tst  8.15E-08 PX  6.60E-04
 TTTTTTTTTTTTTTTTTTTTTTTTTTTTTT DIIS        TELAPSE       82.94 TCPU     2290.94
 DIIS TEST: 0.62625E-05 AT SCF   CYCLE   6 - DIIS ACTIVE - HISTORY:     6 CYCLES
 TTTTTTTTTTTTTTTTTTTTTTTTTTTTTT FDIK        TELAPSE       83.44 TCPU     2307.11
 INSULATING STATE
 TOP OF VALENCE BANDS -    BAND     99; K    1; EIG -2.4644407E-01 AU
 BOTTOM OF VIRTUAL BANDS - BAND    100; K   17; EIG -1.0219582E-01 AU
 INDIRECT ENERGY BAND GAP:   3.9252 eV
 BOTTOM OF VIRTUAL BANDS - BAND    100; K    1; EIG -8.2051803E-02 AU
 TTTTTTTTTTTTTTTTTTTTTTTTTTTTTT PDIG        TELAPSE       83.77 TCPU     2313.29
 CHARGE NORMALIZATION FACTOR   1.00000000
 TOTAL ATOMIC CHARGES:
   4.4766214   4.5038038   4.5040056   4.5032352   4.5030686   4.4766753
   0.8722787   0.8725878   0.8793167   0.8794652   0.8635909   0.8636277
   0.8637465   0.8634678   0.8792151   0.8795839   0.8723326   0.8724696
   5.9248565   6.1718768   6.1717802   6.1656102   6.1648395   5.9249789
   5.9408698   6.1733360   6.1735492   6.1729999   6.1734721   5.9402773
   5.9247499   6.1653247   6.1651049   6.1716836   6.1720275   5.9250568
   8.4914723   8.4918851   8.4906341   8.4919068   8.4903656   8.4922497
 TTTTTTTTTTTTTTTTTTTTTTTTTTTTTT MOQGAD      TELAPSE       83.82 TCPU     2313.34
 TTTTTTTTTTTTTTTTTTTTTTTTTTTTTT SHELLXN     TELAPSE       92.57 TCPU     2592.55
 TTTTTTTTTTTTTTTTTTTTTTTTTTTTTT MONMO3      TELAPSE       92.73 TCPU     2597.45
 NUMERICALLY INTEGRATED DENSITY    197.9999437997
 TTTTTTTTTTTTTTTTTTTTTTTTTTTTTT NUMDFT      TELAPSE       93.38 TCPU     2618.41
 CYC   7 ETOT(AU) -1.289116631170E+03 DETOT -8.60E-07 tst  4.47E-08 PX  3.22E-04
 TTTTTTTTTTTTTTTTTTTTTTTTTTTTTT DIIS        TELAPSE       93.46 TCPU     2620.90
 DIIS TEST: 0.18594E-05 AT SCF   CYCLE   7 - DIIS ACTIVE - HISTORY:     7 CYCLES
 TTTTTTTTTTTTTTTTTTTTTTTTTTTTTT FDIK        TELAPSE       93.97 TCPU     2637.19
 INSULATING STATE
 TOP OF VALENCE BANDS -    BAND     99; K    1; EIG -2.4645472E-01 AU
 BOTTOM OF VIRTUAL BANDS - BAND    100; K   17; EIG -1.0221085E-01 AU
 INDIRECT ENERGY BAND GAP:   3.9251 eV
 BOTTOM OF VIRTUAL BANDS - BAND    100; K    1; EIG -8.2063250E-02 AU
 TTTTTTTTTTTTTTTTTTTTTTTTTTTTTT PDIG        TELAPSE       94.29 TCPU     2643.38
 CHARGE NORMALIZATION FACTOR   1.00000000
 TOTAL ATOMIC CHARGES:
   4.4767009   4.5038196   4.5040340   4.5032249   4.5030509   4.4767371
   0.8722676   0.8725502   0.8793359   0.8794182   0.8636027   0.8635361
   0.8636967   0.8634375   0.8792377   0.8795341   0.8722990   0.8724551
   5.9242997   6.1717316   6.1718726   6.1652997   6.1651920   5.9255316
   5.9404912   6.1730092   6.1739931   6.1731665   6.1734246   5.9405151
   5.9244606   6.1649921   6.1654787   6.1717674   6.1718892   5.9253414
   8.4915264   8.4917871   8.4907002   8.4919012   8.4906047   8.4920861
 TTTTTTTTTTTTTTTTTTTTTTTTTTTTTT MOQGAD      TELAPSE       94.34 TCPU     2643.43
 TTTTTTTTTTTTTTTTTTTTTTTTTTTTTT SHELLXN     TELAPSE      103.10 TCPU     2922.59
 +++ ENERGIES IN A.U. +++
 ::: EXT EL-POLE                                  -1.4854663169741E+03
 ::: EXT EL-SPHEROPOLE                             1.6379999253506E+01
 ::: BIELET ZONE E-E                               2.1915440704934E+03
 ::: TOTAL E-E                                     7.2245775277279E+02
 ::: TOTAL E-N + N-E                              -3.2704911025620E+03
 ::: TOTAL N-N                                     1.1270282512089E+02
 ::: KINETIC ENERGY                                1.2799324055815E+03
 ::: PSEUDO TOTAL   ENERGY                        -1.1553981190868E+03
 ::: VIRIAL COEFFICIENT                            1.0511365029236E+00
 TTTTTTTTTTTTTTTTTTTTTTTTTTTTTT MONMO3      TELAPSE      103.25 TCPU     2927.50
 NUMERICALLY INTEGRATED DENSITY    197.9999437974
 EXCHANGE ENERGY: -0.126022431516E+03  CORRELATION ENERGY: -0.769608093186E+01
 TTTTTTTTTTTTTTTTTTTTTTTTTTTTTT NUMDFT      TELAPSE      103.91 TCPU     2948.44
 CYC   8 ETOT(AU) -1.289116631534E+03 DETOT -3.64E-07 tst  1.07E-08 PX  3.22E-04

 == SCF ENDED - CONVERGENCE ON ENERGY      E(AU) -1.2891166315344E+03 CYCLES   8


 ENERGY EXPRESSION=HARTREE+FOCK EXCH*0.00000+(HSESOL     EXCH)*1.00000+PBESOL     CORR


 TOTAL ENERGY(DFT)(AU)(  8) -1.2891166315344E+03 DE-3.6E-07 tester 1.1E-08
 TTTTTTTTTTTTTTTTTTTTTTTTTTTTTT EDFT        TELAPSE      103.91 TCPU     2948.45
 
 INFORMATION **** DFTD3 ENERGY **** CALCULATE DFTD3 ENERGY

           DFT-D V3(BJ)
 DF                                         hsesol3c  
 parameters
 s6       :    1.0000
 s8       :    0.0000
 a1       :    0.5196
 a2       :    4.9385
 k1 k3    :   16.0000   -4.0000
 Cutoff   :   50.2022
 CN-Cutoff:   21.1671
 ABC-Cutoff:   21.1671
 
 Edisp /kcal,au:   -27.2471 -0.04342094

 E6    /kcal :   -28.9235
 E8    /kcal :     0.0000
 E6(ABC) "   :   1.676476
 
 INFORMATION **** DFTD3 ENERGY **** NORMAL TERMINATION OF DFTD3 MODULE

 GCP ENERGY CALCULATION
  level        hsesol3c            basis:hsesol3c
  Nbf            474
  Atoms           42

  Parameters: 
  sigma     1.0000
  eta       1.4281
  alpha     0.2936
  beta      1.9467

  dmp_scal      4.0000
  dmp_exp       6.0000
 cutoffs: 
   distance [bohr] 60.0
   noise    [a.u.] 2.2E-16
 SR-damping   T
 ** gCP correction **
  Egcp:        0.0833177223 / (a.u.) ||      52.2827 / (kcal/mol)
 INFORMATION **** GCP **** NORMAL TERMINATION OF GCP MODULE

 *******************************************************************************

 DFT-D3-GCP DISPERSION AND COUNTERPOISE CORRECTION

 D3 DISPERSION ENERGY (AU)      -4.3420936830552E-02
 GCP ENERGY (AU)                 8.3317722332356E-02
 TOTAL ENERGY + DISP + GCP (AU) -1.2890767347489E+03

 *******************************************************************************

 EIGENVECTORS IN FORTRAN UNIT  8
 TTTTTTTTTTTTTTTTTTTTTTTTTTTTTT END         TELAPSE      105.53 TCPU     2956.05
 EEEEEEEEEE TERMINATION  DATE 19 02 2026 TIME 18:29:41.9
