 Default number of threads is:           32

         
 *******************************************************************************
 *                                                                             *
 *                               CRYSTAL23                                     *
 *                      public : 1.0.1 - October 2022                          *
 *                       HTTP://WWW.CRYSTAL.UNITO.IT                           *
 *                                                                             *
 *                              MAIN AUTHORS                                   *
 *                                                                             *
 *  R. DOVESI(1,11), V.R. SAUNDERS(2), C. ROETTI(1,11), R. ORLANDO(1,11),      *
 *  C.M. ZICOVICH-WILSON(1,3), F. PASCALE(4), B. CIVALLERI(1,11),              *
 *  K. DOLL(5), N.M. HARRISON(6), I.J. BUSH(7), Ph. D'ARCO(8),                 *
 *  M. LLUNELL(9), M. CAUSA'(10), Y. NOEL(8), L. MASCHIO(1,11), A. ERBA(1,11)  *
 *  M. RE'RAT(14), S. CASASSA(1,11), B.G. SEARLE(2), J.K. DESMARAIS(1)         *
 *                                                                             *
 *        CONTRIBUTIONS TO THE CODE HAVE ALSO BEEN GIVEN BY                    *
 *                                                                             *
 *  M. FERRABONE(1,11), M. DE LA PIERRE(1,11), M. FERRERO(1,11),               *
 *  J. BAIMA(1,11), E. ALBANESE(1,11), M.F. PEINTINGER(12), R. BAST(13),       *
 *  B. KIRTMAN(15), V. LACIVITA(1,11), R. DEMICHELIS(1,16)                     *
 *  G. BRANDEBURG(17), S. SALUSTRO(1,11), G. SANSONE(1,11)                     *
 *  M.T. RUGGIERO(18), L.E. DAGA(1), L. DONA'(1), A. COSSARD(1)                *
 *                                                                             *
 * (1) THEORETICAL CHEMISTRY GROUP - UNIVERSITA' DI TORINO - TORINO (ITALY)    *
 * (2) SCIENTIFIC COMPUTING DEPARTMENT - STFC DARESBURY (UK)                   *
 * (3) UNIVERSIDAD AUTONOMA DEL ESTADO DE MORELOS - CUERNAVACA (MEXICO)        *
 * (4) UNIVERSITE' DE LORRAINE - NANCY (FRANCE)                                *
 * (5) UNIVERSITAET STUTTGART- STUTTGART (GERMANY)                             *
 * (6) IMPERIAL COLLEGE - LONDON (UK)                                          *
 * (7) SCIENTIFIC COMPUTING DEPARTMENT - STFC RAL (UK)                         *
 * (8) UPMC - SORBONNE UNIVERSITES - PARIS (FRANCE)                            *
 * (9) UNIVERSIDAD DE BARCELONA - BARCELONA (SPAIN)                            *
 *(10) UNIVERSITA' DI NAPOLI "FEDERICO II" - NAPOLI (ITALY)                    *
 *(11) NIS - NANOSTRUCTURED INTERFACES AND SURFACES - TORINO (ITALY)           *
 *(12) MPI FUER CHEMISCHE ENERGIEKONVERSION - MUELHEIM AN DER RUHR (GERMANY)   *
 *(13) UNIVERSITY OF TROMSO - TROMSO (NORWAY)                                  *
 *(14) UNIVERSITE' DE PAU ET DES PAYS DE L'ADOUR - PAU (FRANCE)                *
 *(15) UNIVERSITY OF CALIFORNIA SANTA BARBARA - SANTA BARBARA (USA)            *
 *(16) CURTIN UNIVERSITY - PERTH (AUSTRALIA)                                   *
 *(17) UNIVERSITY COLLEGE LONDON - LONDON (UK)                                 *
 *(18) UNIVERSITY OF VERMONT - BURLINGTON (USA)                                *
 *                                                                             *
 *******************************************************************************
 EEEEEEEEEE STARTING  DATE 19 02 2026 TIME 20:20:12.8
 cof-1_z39_L000_serr                                                             

 CRYSTAL CALCULATION
 (INPUT ACCORDING TO THE INTERNATIONAL TABLES FOR X-RAY CRYSTALLOGRAPHY)
 CRYSTAL FAMILY                       :  TRICLINIC   
 CRYSTAL CLASS  (GROTH - 1921)        :  TRICLINIC PEDIAL                     

 SPACE GROUP (NONCENTROSYMMETRIC)     :  P 1             

 LATTICE PARAMETERS  (ANGSTROMS AND DEGREES) - CONVENTIONAL CELL
        A           B           C        ALPHA        BETA       GAMMA
    15.02361    15.02392     7.80000    90.00032    89.99994   119.99596


 NUMBER OF IRREDUCIBLE ATOMS IN THE CONVENTIONAL CELL:   84

 INPUT COORDINATES

 ATOM AT. N.              COORDINATES
   1   5     6.136805400000E-01  2.273182200000E-01  2.506124000000E-01
   2   5     6.136805400000E-01  2.273182200000E-01  7.506124000000E-01
   3   5     7.727362000000E-01  3.863778800000E-01  2.506124100000E-01
   4   5     7.727362000000E-01  3.863778800000E-01  7.506124100000E-01
   5   5     6.136762700000E-01  3.863606700000E-01  2.493248200000E-01
   6   5     6.136762700000E-01  3.863606700000E-01  7.493248200000E-01
   7   5     2.272552500000E-01  6.136332200000E-01  2.506124100000E-01
   8   5     2.272552500000E-01  6.136332200000E-01  7.506124100000E-01
   9   5     3.863632200000E-01  6.136124500000E-01  2.506124100000E-01
  10   5     3.863632200000E-01  6.136124500000E-01  7.506124100000E-01
  11   5     3.863435000000E-01  7.727516500000E-01  2.493248200000E-01
  12   5     3.863435000000E-01  7.727516500000E-01  7.493248200000E-01
  13   1     9.030436200000E-01  3.089300500000E-01  2.479429800000E-01
  14   1     9.030436200000E-01  3.089300500000E-01  7.479429800000E-01
  15   1     9.663453000000E-02  6.910534400000E-01  2.475347800000E-01
  16   1     9.663453000000E-02  6.910534400000E-01  7.475347800000E-01
  17   1     9.029714200000E-01  5.940724300000E-01  2.474719500000E-01
  18   1     9.029714200000E-01  5.940724300000E-01  7.474719500000E-01
  19   1     9.673618000000E-02  4.056849400000E-01  2.474876200000E-01
  20   1     9.673618000000E-02  4.056849400000E-01  7.474876200000E-01
  21   1     6.910324000000E-01  9.700412000000E-02  2.520570400000E-01
  22   1     6.910324000000E-01  9.700412000000E-02  7.520570400000E-01
  23   1     3.089297200000E-01  9.034373100000E-01  2.524652700000E-01
  24   1     3.089297200000E-01  9.034373100000E-01  7.524652700000E-01
  25   1     4.058699900000E-01  9.704998000000E-02  2.525281300000E-01
  26   1     4.058699900000E-01  9.704998000000E-02  7.525281300000E-01
  27   1     5.943122100000E-01  9.033473200000E-01  2.525123600000E-01
  28   1     5.943122100000E-01  9.033473200000E-01  7.525123600000E-01
  29   1     6.910727400000E-01  5.940542100000E-01  2.479430000000E-01
  30   1     6.910727400000E-01  5.940542100000E-01  7.479430000000E-01
  31   1     3.089618300000E-01  4.056093300000E-01  2.475347500000E-01
  32   1     3.089618300000E-01  4.056093300000E-01  7.475347500000E-01
  33   1     4.058405700000E-01  3.088232500000E-01  2.474719000000E-01
  34   1     4.058405700000E-01  3.088232500000E-01  7.474719000000E-01
  35   1     5.942908800000E-01  6.909579300000E-01  2.474876700000E-01
  36   1     5.942908800000E-01  6.909579300000E-01  7.474876700000E-01
  37   6     8.918903100000E-01  4.459436900000E-01  2.492777100000E-01
  38   6     8.918903100000E-01  4.459436900000E-01  7.492777100000E-01
  39   6     9.464891100000E-01  3.927856300000E-01  2.480058000000E-01
  40   6     9.464891100000E-01  3.927856300000E-01  7.480058000000E-01
  41   6     5.338812000000E-02  6.071853000000E-01  2.478959200000E-01
  42   6     5.338812000000E-02  6.071853000000E-01  7.478959200000E-01
  43   6     9.464521100000E-01  5.536921900000E-01  2.482256700000E-01
  44   6     9.464521100000E-01  5.536921900000E-01  7.482256700000E-01
  45   6     5.342634000000E-02  4.462499700000E-01  2.473777100000E-01
  46   6     5.342634000000E-02  4.462499700000E-01  7.473777100000E-01
  47   6     1.080358900000E-01  5.540356300000E-01  2.482413600000E-01
  48   6     1.080358900000E-01  5.540356300000E-01  7.482413600000E-01
  49   6     5.540394200000E-01  1.081684600000E-01  2.507223300000E-01
  50   6     5.540394200000E-01  1.081684600000E-01  7.507223300000E-01
  51   6     6.071778500000E-01  5.355594000000E-02  2.519942200000E-01
  52   6     6.071778500000E-01  5.355594000000E-02  7.519942200000E-01
  53   6     3.927986700000E-01  9.466631600000E-01  2.521041300000E-01
  54   6     3.927986700000E-01  9.466631600000E-01  7.521041300000E-01
  55   6     4.462875800000E-01  5.360286000000E-02  2.517744000000E-01
  56   6     4.462875800000E-01  5.360286000000E-02  7.517744000000E-01
  57   6     5.537168500000E-01  9.466235600000E-01  2.526223000000E-01
  58   6     5.537168500000E-01  9.466235600000E-01  7.526223000000E-01
  59   6     4.459279100000E-01  8.919920600000E-01  2.517586700000E-01
  60   6     4.459279100000E-01  8.919920600000E-01  7.517586800000E-01
  61   6     5.540448700000E-01  4.458745500000E-01  2.492777100000E-01
  62   6     5.540448700000E-01  4.458745500000E-01  7.492777100000E-01
  63   6     6.072102200000E-01  5.536257800000E-01  2.480058200000E-01
  64   6     6.072102200000E-01  5.536257800000E-01  7.480058200000E-01
  65   6     3.928233700000E-01  4.461720300000E-01  2.478959000000E-01
  66   6     3.928233700000E-01  4.461720300000E-01  7.478959000000E-01
  67   6     4.462872600000E-01  3.926899900000E-01  2.482256300000E-01
  68   6     4.462872600000E-01  3.926899900000E-01  7.482256300000E-01
  69   6     5.537429600000E-01  6.070980000000E-01  2.473777400000E-01
  70   6     5.537429600000E-01  6.070980000000E-01  7.473777400000E-01
  71   6     4.459599800000E-01  5.539582300000E-01  2.482413600000E-01
  72   6     4.459599800000E-01  5.539582300000E-01  7.482413600000E-01
  73   8     5.607366800000E-01  2.803706300000E-01  2.496702700000E-01
  74   8     5.607366800000E-01  2.803706300000E-01  7.496702700000E-01
  75   8     7.196817000000E-01  2.803783300000E-01  2.523867700000E-01
  76   8     7.196817000000E-01  2.803783300000E-01  7.523867700000E-01
  77   8     7.196794200000E-01  4.393234600000E-01  2.482884700000E-01
  78   8     7.196794200000E-01  4.393234600000E-01  7.482884700000E-01
  79   8     2.803245100000E-01  7.196511100000E-01  2.496702800000E-01
  80   8     2.803245100000E-01  7.196511100000E-01  7.496702800000E-01
  81   8     2.803439700000E-01  5.606956100000E-01  2.523867600000E-01
  82   8     2.803439700000E-01  5.606956100000E-01  7.523867600000E-01
  83   8     4.392638400000E-01  7.196354200000E-01  2.482884600000E-01
  84   8     4.392638400000E-01  7.196354200000E-01  7.482884600000E-01

 *******************************************************************************

 << INFORMATION >>: FROM NOW ON, ALL COORDINATES REFER TO THE PRIMITIVE CELL

 *******************************************************************************

 LATTICE PARAMETERS  (ANGSTROMS AND DEGREES) - PRIMITIVE CELL
       A          B          C        ALPHA      BETA     GAMMA        VOLUME
   15.02361   15.02392    7.80000    90.00032  89.99994 119.99596   1524.756075

 COORDINATES OF THE EQUIVALENT ATOMS (FRACTIONAL UNITS)

 N. ATOM EQUIV AT. N.          X                  Y                  Z

   1   1   1    5 B    -3.86319460000E-01  2.27318220000E-01  2.50612400000E-01

   2   2   1    5 B    -3.86319460000E-01  2.27318220000E-01 -2.49387600000E-01

   3   3   1    5 B    -2.27263800000E-01  3.86377880000E-01  2.50612410000E-01

   4   4   1    5 B    -2.27263800000E-01  3.86377880000E-01 -2.49387590000E-01

   5   5   1    5 B    -3.86323730000E-01  3.86360670000E-01  2.49324820000E-01

   6   6   1    5 B    -3.86323730000E-01  3.86360670000E-01 -2.50675180000E-01

   7   7   1    5 B     2.27255250000E-01 -3.86366780000E-01  2.50612410000E-01

   8   8   1    5 B     2.27255250000E-01 -3.86366780000E-01 -2.49387590000E-01

   9   9   1    5 B     3.86363220000E-01 -3.86387550000E-01  2.50612410000E-01

  10  10   1    5 B     3.86363220000E-01 -3.86387550000E-01 -2.49387590000E-01

  11  11   1    5 B     3.86343500000E-01 -2.27248350000E-01  2.49324820000E-01

  12  12   1    5 B     3.86343500000E-01 -2.27248350000E-01 -2.50675180000E-01

  13  13   1    1 H    -9.69563800000E-02  3.08930050000E-01  2.47942980000E-01

  14  14   1    1 H    -9.69563800000E-02  3.08930050000E-01 -2.52057020000E-01

  15  15   1    1 H     9.66345300000E-02 -3.08946560000E-01  2.47534780000E-01

  16  16   1    1 H     9.66345300000E-02 -3.08946560000E-01 -2.52465220000E-01

  17  17   1    1 H    -9.70285800000E-02 -4.05927570000E-01  2.47471950000E-01

  18  18   1    1 H    -9.70285800000E-02 -4.05927570000E-01 -2.52528050000E-01

  19  19   1    1 H     9.67361800000E-02  4.05684940000E-01  2.47487620000E-01

  20  20   1    1 H     9.67361800000E-02  4.05684940000E-01 -2.52512380000E-01

  21  21   1    1 H    -3.08967600000E-01  9.70041200000E-02  2.52057040000E-01

  22  22   1    1 H    -3.08967600000E-01  9.70041200000E-02 -2.47942960000E-01

  23  23   1    1 H     3.08929720000E-01 -9.65626900000E-02  2.52465270000E-01

  24  24   1    1 H     3.08929720000E-01 -9.65626900000E-02 -2.47534730000E-01

  25  25   1    1 H     4.05869990000E-01  9.70499800000E-02  2.52528130000E-01

  26  26   1    1 H     4.05869990000E-01  9.70499800000E-02 -2.47471870000E-01

  27  27   1    1 H    -4.05687790000E-01 -9.66526800000E-02  2.52512360000E-01

  28  28   1    1 H    -4.05687790000E-01 -9.66526800000E-02 -2.47487640000E-01

  29  29   1    1 H    -3.08927260000E-01 -4.05945790000E-01  2.47943000000E-01

  30  30   1    1 H    -3.08927260000E-01 -4.05945790000E-01 -2.52057000000E-01

  31  31   1    1 H     3.08961830000E-01  4.05609330000E-01  2.47534750000E-01

  32  32   1    1 H     3.08961830000E-01  4.05609330000E-01 -2.52465250000E-01

  33  33   1    1 H     4.05840570000E-01  3.08823250000E-01  2.47471900000E-01

  34  34   1    1 H     4.05840570000E-01  3.08823250000E-01 -2.52528100000E-01

  35  35   1    1 H    -4.05709120000E-01 -3.09042070000E-01  2.47487670000E-01

  36  36   1    1 H    -4.05709120000E-01 -3.09042070000E-01 -2.52512330000E-01

  37  37   1    6 C    -1.08109690000E-01  4.45943690000E-01  2.49277710000E-01

  38  38   1    6 C    -1.08109690000E-01  4.45943690000E-01 -2.50722290000E-01

  39  39   1    6 C    -5.35108900000E-02  3.92785630000E-01  2.48005800000E-01

  40  40   1    6 C    -5.35108900000E-02  3.92785630000E-01 -2.51994200000E-01

  41  41   1    6 C     5.33881200000E-02 -3.92814700000E-01  2.47895920000E-01

  42  42   1    6 C     5.33881200000E-02 -3.92814700000E-01 -2.52104080000E-01

  43  43   1    6 C    -5.35478900000E-02 -4.46307810000E-01  2.48225670000E-01

  44  44   1    6 C    -5.35478900000E-02 -4.46307810000E-01 -2.51774330000E-01

  45  45   1    6 C     5.34263400000E-02  4.46249970000E-01  2.47377710000E-01

  46  46   1    6 C     5.34263400000E-02  4.46249970000E-01 -2.52622290000E-01

  47  47   1    6 C     1.08035890000E-01 -4.45964370000E-01  2.48241360000E-01

  48  48   1    6 C     1.08035890000E-01 -4.45964370000E-01 -2.51758640000E-01

  49  49   1    6 C    -4.45960580000E-01  1.08168460000E-01  2.50722330000E-01

  50  50   1    6 C    -4.45960580000E-01  1.08168460000E-01 -2.49277670000E-01

  51  51   1    6 C    -3.92822150000E-01  5.35559400000E-02  2.51994220000E-01

  52  52   1    6 C    -3.92822150000E-01  5.35559400000E-02 -2.48005780000E-01

  53  53   1    6 C     3.92798670000E-01 -5.33368400000E-02  2.52104130000E-01

  54  54   1    6 C     3.92798670000E-01 -5.33368400000E-02 -2.47895870000E-01

  55  55   1    6 C     4.46287580000E-01  5.36028600000E-02  2.51774400000E-01

  56  56   1    6 C     4.46287580000E-01  5.36028600000E-02 -2.48225600000E-01

  57  57   1    6 C    -4.46283150000E-01 -5.33764400000E-02  2.52622300000E-01

  58  58   1    6 C    -4.46283150000E-01 -5.33764400000E-02 -2.47377700000E-01

  59  59   1    6 C     4.45927910000E-01 -1.08007940000E-01  2.51758670000E-01

  60  60   1    6 C     4.45927910000E-01 -1.08007940000E-01 -2.48241320000E-01

  61  61   1    6 C    -4.45955130000E-01  4.45874550000E-01  2.49277710000E-01

  62  62   1    6 C    -4.45955130000E-01  4.45874550000E-01 -2.50722290000E-01

  63  63   1    6 C    -3.92789780000E-01 -4.46374220000E-01  2.48005820000E-01

  64  64   1    6 C    -3.92789780000E-01 -4.46374220000E-01 -2.51994180000E-01

  65  65   1    6 C     3.92823370000E-01  4.46172030000E-01  2.47895900000E-01

  66  66   1    6 C     3.92823370000E-01  4.46172030000E-01 -2.52104100000E-01

  67  67   1    6 C     4.46287260000E-01  3.92689990000E-01  2.48225630000E-01

  68  68   1    6 C     4.46287260000E-01  3.92689990000E-01 -2.51774370000E-01

  69  69   1    6 C    -4.46257040000E-01 -3.92902000000E-01  2.47377740000E-01

  70  70   1    6 C    -4.46257040000E-01 -3.92902000000E-01 -2.52622260000E-01

  71  71   1    6 C     4.45959980000E-01 -4.46041770000E-01  2.48241360000E-01

  72  72   1    6 C     4.45959980000E-01 -4.46041770000E-01 -2.51758640000E-01

  73  73   1    8 O    -4.39263320000E-01  2.80370630000E-01  2.49670270000E-01

  74  74   1    8 O    -4.39263320000E-01  2.80370630000E-01 -2.50329730000E-01

  75  75   1    8 O    -2.80318300000E-01  2.80378330000E-01  2.52386770000E-01

  76  76   1    8 O    -2.80318300000E-01  2.80378330000E-01 -2.47613230000E-01

  77  77   1    8 O    -2.80320580000E-01  4.39323460000E-01  2.48288470000E-01

  78  78   1    8 O    -2.80320580000E-01  4.39323460000E-01 -2.51711530000E-01

  79  79   1    8 O     2.80324510000E-01 -2.80348890000E-01  2.49670280000E-01

  80  80   1    8 O     2.80324510000E-01 -2.80348890000E-01 -2.50329720000E-01

  81  81   1    8 O     2.80343970000E-01 -4.39304390000E-01  2.52386760000E-01

  82  82   1    8 O     2.80343970000E-01 -4.39304390000E-01 -2.47613240000E-01

  83  83   1    8 O     4.39263840000E-01 -2.80364580000E-01  2.48288460000E-01

  84  84   1    8 O     4.39263840000E-01 -2.80364580000E-01 -2.51711540000E-01

 NUMBER OF SYMMETRY OPERATORS         :    1
 *******************************************************************************
 * GEOMETRY EDITING - INPUT COORDINATES ARE GIVEN IN ANGSTROM         
 *******************************************************************************

 GCALCO - MAX INDICES DIRECT LATTICE VECTOR    12    12    21
 NO.OF VECTORS CREATED 6999 STARS 3500 RMAX   257.20960 BOHR

 GEOMETRY FOR WAVE FUNCTION - DIMENSIONALITY OF THE SYSTEM    3
 (NON PERIODIC DIRECTION: LATTICE PARAMETER FORMALLY SET TO 500)
 *******************************************************************************
 LATTICE PARAMETERS (ANGSTROMS AND DEGREES) - BOHR = 0.5291772083 ANGSTROM
 PRIMITIVE CELL - CENTRING CODE 1/0 VOLUME=  1524.756075 - DENSITY  0.850 g/cm^3
         A              B              C           ALPHA      BETA       GAMMA 
    15.02361100    15.02391600     7.80000000    90.000323  89.999944 119.995964
 *******************************************************************************
 ATOMS IN THE ASYMMETRIC UNIT   84 - ATOMS IN THE UNIT CELL:   84
     ATOM                 X/A                 Y/B                 Z/C    
 *******************************************************************************
      1 T   5 B    -3.863194600000E-01  2.273182200000E-01  2.506124000000E-01
      2 T   5 B    -3.863194600000E-01  2.273182200000E-01 -2.493876000000E-01
      3 T   5 B    -2.272638000000E-01  3.863778800000E-01  2.506124100000E-01
      4 T   5 B    -2.272638000000E-01  3.863778800000E-01 -2.493875900000E-01
      5 T   5 B    -3.863237300000E-01  3.863606700000E-01  2.493248200000E-01
      6 T   5 B    -3.863237300000E-01  3.863606700000E-01 -2.506751800000E-01
      7 T   5 B     2.272552500000E-01 -3.863667800000E-01  2.506124100000E-01
      8 T   5 B     2.272552500000E-01 -3.863667800000E-01 -2.493875900000E-01
      9 T   5 B     3.863632200000E-01 -3.863875500000E-01  2.506124100000E-01
     10 T   5 B     3.863632200000E-01 -3.863875500000E-01 -2.493875900000E-01
     11 T   5 B     3.863435000000E-01 -2.272483500000E-01  2.493248200000E-01
     12 T   5 B     3.863435000000E-01 -2.272483500000E-01 -2.506751800000E-01
     13 T   1 H    -9.695638000000E-02  3.089300500000E-01  2.479429800000E-01
     14 T   1 H    -9.695638000000E-02  3.089300500000E-01 -2.520570200000E-01
     15 T   1 H     9.663453000000E-02 -3.089465600000E-01  2.475347800000E-01
     16 T   1 H     9.663453000000E-02 -3.089465600000E-01 -2.524652200000E-01
     17 T   1 H    -9.702858000000E-02 -4.059275700000E-01  2.474719500000E-01
     18 T   1 H    -9.702858000000E-02 -4.059275700000E-01 -2.525280500000E-01
     19 T   1 H     9.673618000000E-02  4.056849400000E-01  2.474876200000E-01
     20 T   1 H     9.673618000000E-02  4.056849400000E-01 -2.525123800000E-01
     21 T   1 H    -3.089676000000E-01  9.700412000000E-02  2.520570400000E-01
     22 T   1 H    -3.089676000000E-01  9.700412000000E-02 -2.479429600000E-01
     23 T   1 H     3.089297200000E-01 -9.656269000000E-02  2.524652700000E-01
     24 T   1 H     3.089297200000E-01 -9.656269000000E-02 -2.475347300000E-01
     25 T   1 H     4.058699900000E-01  9.704998000000E-02  2.525281300000E-01
     26 T   1 H     4.058699900000E-01  9.704998000000E-02 -2.474718700000E-01
     27 T   1 H    -4.056877900000E-01 -9.665268000000E-02  2.525123600000E-01
     28 T   1 H    -4.056877900000E-01 -9.665268000000E-02 -2.474876400000E-01
     29 T   1 H    -3.089272600000E-01 -4.059457900000E-01  2.479430000000E-01
     30 T   1 H    -3.089272600000E-01 -4.059457900000E-01 -2.520570000000E-01
     31 T   1 H     3.089618300000E-01  4.056093300000E-01  2.475347500000E-01
     32 T   1 H     3.089618300000E-01  4.056093300000E-01 -2.524652500000E-01
     33 T   1 H     4.058405700000E-01  3.088232500000E-01  2.474719000000E-01
     34 T   1 H     4.058405700000E-01  3.088232500000E-01 -2.525281000000E-01
     35 T   1 H    -4.057091200000E-01 -3.090420700000E-01  2.474876700000E-01
     36 T   1 H    -4.057091200000E-01 -3.090420700000E-01 -2.525123300000E-01
     37 T   6 C    -1.081096900000E-01  4.459436900000E-01  2.492777100000E-01
     38 T   6 C    -1.081096900000E-01  4.459436900000E-01 -2.507222900000E-01
     39 T   6 C    -5.351089000000E-02  3.927856300000E-01  2.480058000000E-01
     40 T   6 C    -5.351089000000E-02  3.927856300000E-01 -2.519942000000E-01
     41 T   6 C     5.338812000000E-02 -3.928147000000E-01  2.478959200000E-01
     42 T   6 C     5.338812000000E-02 -3.928147000000E-01 -2.521040800000E-01
     43 T   6 C    -5.354789000000E-02 -4.463078100000E-01  2.482256700000E-01
     44 T   6 C    -5.354789000000E-02 -4.463078100000E-01 -2.517743300000E-01
     45 T   6 C     5.342634000000E-02  4.462499700000E-01  2.473777100000E-01
     46 T   6 C     5.342634000000E-02  4.462499700000E-01 -2.526222900000E-01
     47 T   6 C     1.080358900000E-01 -4.459643700000E-01  2.482413600000E-01
     48 T   6 C     1.080358900000E-01 -4.459643700000E-01 -2.517586400000E-01
     49 T   6 C    -4.459605800000E-01  1.081684600000E-01  2.507223300000E-01
     50 T   6 C    -4.459605800000E-01  1.081684600000E-01 -2.492776700000E-01
     51 T   6 C    -3.928221500000E-01  5.355594000000E-02  2.519942200000E-01
     52 T   6 C    -3.928221500000E-01  5.355594000000E-02 -2.480057800000E-01
     53 T   6 C     3.927986700000E-01 -5.333684000000E-02  2.521041300000E-01
     54 T   6 C     3.927986700000E-01 -5.333684000000E-02 -2.478958700000E-01
     55 T   6 C     4.462875800000E-01  5.360286000000E-02  2.517744000000E-01
     56 T   6 C     4.462875800000E-01  5.360286000000E-02 -2.482256000000E-01
     57 T   6 C    -4.462831500000E-01 -5.337644000000E-02  2.526223000000E-01
     58 T   6 C    -4.462831500000E-01 -5.337644000000E-02 -2.473777000000E-01
     59 T   6 C     4.459279100000E-01 -1.080079400000E-01  2.517586700000E-01
     60 T   6 C     4.459279100000E-01 -1.080079400000E-01 -2.482413200000E-01
     61 T   6 C    -4.459551300000E-01  4.458745500000E-01  2.492777100000E-01
     62 T   6 C    -4.459551300000E-01  4.458745500000E-01 -2.507222900000E-01
     63 T   6 C    -3.927897800000E-01 -4.463742200000E-01  2.480058200000E-01
     64 T   6 C    -3.927897800000E-01 -4.463742200000E-01 -2.519941800000E-01
     65 T   6 C     3.928233700000E-01  4.461720300000E-01  2.478959000000E-01
     66 T   6 C     3.928233700000E-01  4.461720300000E-01 -2.521041000000E-01
     67 T   6 C     4.462872600000E-01  3.926899900000E-01  2.482256300000E-01
     68 T   6 C     4.462872600000E-01  3.926899900000E-01 -2.517743700000E-01
     69 T   6 C    -4.462570400000E-01 -3.929020000000E-01  2.473777400000E-01
     70 T   6 C    -4.462570400000E-01 -3.929020000000E-01 -2.526222600000E-01
     71 T   6 C     4.459599800000E-01 -4.460417700000E-01  2.482413600000E-01
     72 T   6 C     4.459599800000E-01 -4.460417700000E-01 -2.517586400000E-01
     73 T   8 O    -4.392633200000E-01  2.803706300000E-01  2.496702700000E-01
     74 T   8 O    -4.392633200000E-01  2.803706300000E-01 -2.503297300000E-01
     75 T   8 O    -2.803183000000E-01  2.803783300000E-01  2.523867700000E-01
     76 T   8 O    -2.803183000000E-01  2.803783300000E-01 -2.476132300000E-01
     77 T   8 O    -2.803205800000E-01  4.393234600000E-01  2.482884700000E-01
     78 T   8 O    -2.803205800000E-01  4.393234600000E-01 -2.517115300000E-01
     79 T   8 O     2.803245100000E-01 -2.803488900000E-01  2.496702800000E-01
     80 T   8 O     2.803245100000E-01 -2.803488900000E-01 -2.503297200000E-01
     81 T   8 O     2.803439700000E-01 -4.393043900000E-01  2.523867600000E-01
     82 T   8 O     2.803439700000E-01 -4.393043900000E-01 -2.476132400000E-01
     83 T   8 O     4.392638400000E-01 -2.803645800000E-01  2.482884600000E-01
     84 T   8 O     4.392638400000E-01 -2.803645800000E-01 -2.517115400000E-01

 T = ATOM BELONGING TO THE ASYMMETRIC UNIT

 ****    1 SYMMOPS - TRANSLATORS IN FRACTIONAL UNITS
 **** MATRICES AND TRANSLATORS IN THE CRYSTALLOGRAPHIC REFERENCE FRAME
   V INV                    ROTATION MATRICES                   TRANSLATORS
   1   1  1.00 -0.00  0.00  0.00  1.00  0.00 -0.00 -0.00  1.00  0.00  0.00  0.00

 DIRECT LATTICE VECTORS CARTESIAN COMPONENTS (ANGSTROM)
          X                    Y                    Z
   0.130113578931E+02  -0.751088897922E+01   0.000000000000E+00
   0.000000000000E+00   0.150239160000E+02   0.000000000000E+00
  -0.165804004088E-04  -0.439718251730E-04   0.779999999986E+01


 CARTESIAN COORDINATES - PRIMITIVE CELL
 *******************************************************************************
 *      ATOM          X(ANGSTROM)         Y(ANGSTROM)         Z(ANGSTROM)
 *******************************************************************************
    1     5 B    -5.026544910366E+00  6.316801397236E+00  1.954776719965E+00
    2     5 B    -5.026536620166E+00  6.316823383148E+00 -1.945223279965E+00
    3     5 B    -2.957014793190E+00  7.511850964288E+00  1.954776797965E+00
    4     5 B    -2.957006502990E+00  7.511872950200E+00 -1.945223201965E+00
    5     5 B    -5.026600447516E+00 -6.317642065417E+00  1.944733595965E+00
    6     5 B    -5.026592157316E+00 -6.317620079504E+00 -1.955266403965E+00
    7     5 B     2.956895235572E+00 -7.511642020490E+00  1.954776797965E+00
    8     5 B     2.956903525772E+00 -7.511620034577E+00 -1.945223201965E+00
    9     5 B     5.027105976880E+00  6.316919634397E+00  1.954776797965E+00
   10     5 B     5.027114267080E+00  6.316941620309E+00 -1.945223201965E+00
   11     5 B     5.026849414251E+00 -6.315954221148E+00  1.944733595965E+00
   12     5 B     5.026857704451E+00 -6.315932235235E+00 -1.955266403965E+00
   13     1 H    -1.261538271189E+00  5.369556824577E+00  1.933955243965E+00
   14     1 H    -1.261529980989E+00  5.369578810490E+00 -1.966044755964E+00
   15     1 H     1.257342350432E+00 -5.367409276874E+00  1.930771283965E+00
   16     1 H     1.257350640632E+00 -5.367387290961E+00 -1.969228715964E+00
   17     1 H    -1.262477683419E+00 -5.369861703366E+00  1.930281209965E+00
   18     1 H    -1.262469393219E+00 -5.369839717454E+00 -1.969718789964E+00
   19     1 H     1.258664955743E+00  5.368390870289E+00  1.930403435965E+00
   20     1 H     1.258673245944E+00  5.368412856202E+00 -1.969596563964E+00
   21     1 H    -4.020092200165E+00  3.777992008901E+00  1.966044911964E+00
   22     1 H    -4.020083909965E+00  3.778013994813E+00 -1.933955087965E+00
   23     1 H     4.019590964746E+00 -3.771097673953E+00  1.969229105964E+00
   24     1 H     4.019599254947E+00 -3.771075688041E+00 -1.930770893965E+00
   25     1 H     5.280915510924E+00 -1.590384791687E+00  1.969719413964E+00
   26     1 H     5.280923801124E+00 -1.590362805774E+00 -1.930280585965E+00
   27     1 H    -5.278553215289E+00  1.594963101989E+00  1.969596407964E+00
   28     1 H    -5.278544925089E+00  1.594985087902E+00 -1.930403591965E+00
   29     1 H    -4.019567253776E+00 -3.778587999506E+00  1.933955399965E+00
   30     1 H    -4.019558963575E+00 -3.778566013594E+00 -1.966044599964E+00
   31     1 H     4.020008841198E+00  3.773251614236E+00  1.930771049965E+00
   32     1 H     4.020017131399E+00  3.773273600149E+00 -1.969228949964E+00
   33     1 H     5.280532800609E+00  1.591500220524E+00  1.930280819965E+00
   34     1 H     5.280541090809E+00  1.591522206437E+00 -1.969719179964E+00
   35     1 H    -5.278830664242E+00 -1.595796824455E+00  1.930403825965E+00
   36     1 H    -5.278822374042E+00 -1.595774838542E+00 -1.969596173964E+00
   37     6 C    -1.406658001422E+00  7.511809457262E+00  1.944366137965E+00
   38     6 C    -1.406649711221E+00  7.511831443174E+00 -1.955633861965E+00
   39     6 C    -6.962534530014E-01  6.303081759828E+00  1.934445239965E+00
   40     6 C    -6.962451628012E-01  6.303103745741E+00 -1.965554759964E+00
   41     6 C     6.946478263438E-01 -6.302618198930E+00  1.933588175965E+00
   42     6 C     6.946561165440E-01 -6.302596213018E+00 -1.966411823964E+00
   43     6 C    -6.967348768890E-01 -6.303109705658E+00  1.936160225965E+00
   44     6 C    -6.967265866888E-01 -6.303087719746E+00 -1.963839773964E+00
   45     6 C     6.951451290346E-01  6.303131878327E+00  1.929546137965E+00
   46     6 C     6.951534192348E-01  6.303153864240E+00 -1.970453861964E+00
   47     6 C     1.405689514144E+00 -7.511587725059E+00  1.936282607965E+00
   48     6 C     1.405697804344E+00 -7.511565739147E+00 -1.963717391964E+00
   49     6 C     7.208801023405E+00 -2.536225741559E+00  1.955634173965E+00
   50     6 C     7.208809313605E+00 -2.536203755646E+00 -1.944365825965E+00
   51     6 C    -5.111153760135E+00  3.755052420442E+00  1.965554915964E+00
   52     6 C    -5.111145469935E+00  3.755074406355E+00 -1.934445083965E+00
   53     6 C     5.110839895299E+00 -3.751606490898E+00  1.966412213964E+00
   54     6 C     5.110848185499E+00 -3.751584504985E+00 -1.933587785965E+00
   55     6 C     5.806803252086E+00 -2.546702671163E+00  1.963840319964E+00
   56     6 C     5.806811542286E+00 -2.546680685251E+00 -1.936159679965E+00
   57     6 C    -5.806753974870E+00  2.550048933742E+00  1.970453939964E+00
   58     6 C    -5.806745684669E+00  2.550070919655E+00 -1.929546059965E+00
   59     6 C     5.802123457253E+00 -4.972028312925E+00  1.963717625964E+00
   60     6 C     5.802131747453E+00 -4.972006327013E+00 -1.936282295965E+00
   61     6 C     7.208871959258E+00  2.537401316468E+00  1.944366137965E+00
   62     6 C     7.208880249458E+00  2.537423302380E+00 -1.955633861965E+00
   63     6 C    -5.110732516351E+00 -3.756099261363E+00  1.934445395965E+00
   64     6 C    -5.110724226151E+00 -3.756077275451E+00 -1.965554603964E+00
   65     6 C     5.111161345613E+00  3.752787479323E+00  1.933588019965E+00
   66     6 C     5.111169635814E+00  3.752809465235E+00 -1.966411979964E+00
   67     6 C     5.806799147291E+00  2.547716446168E+00  1.936159913965E+00
   68     6 C     5.806807437491E+00  2.547738432081E+00 -1.963840085964E+00
   69     6 C    -5.806414161358E+00 -2.551150438249E+00  1.929546371965E+00
   70     6 C    -5.806405871158E+00 -2.551128452336E+00 -1.970453627964E+00
   71     6 C     5.802540789819E+00  4.973055100449E+00  1.936282607965E+00
   72     6 C     5.802549080019E+00  4.973077086362E+00 -1.963717391964E+00
   73     8 O     7.295941487611E+00  6.228654751916E-04  1.947428105965E+00
   74     8 O     7.295949777811E+00  6.448513877781E-04 -1.952571893965E+00
   75     8 O    -3.647325909947E+00  6.317809010376E+00  1.968616805964E+00
   76     8 O    -3.647317619747E+00  6.317830996289E+00 -1.931383193965E+00
   77     8 O    -3.647355507891E+00 -6.318111402858E+00  1.936650065965E+00
   78     8 O    -3.647347217691E+00 -6.318089416946E+00 -1.963349933964E+00
   79     8 O     3.647398386173E+00 -6.317435425274E+00  1.947428183965E+00
   80     8 O     3.647406676373E+00 -6.317413439362E+00 -1.952571815965E+00
   81     8 O     3.647651542157E+00  6.318200213639E+00  1.968616727964E+00
   82     8 O     3.647659832357E+00  6.318222199552E+00 -1.931383271965E+00
   83     8 O    -7.295942978060E+00 -5.577725998786E-04  1.936649987965E+00
   84     8 O    -7.295934687860E+00 -5.357866872921E-04 -1.963350011964E+00

 *******************************************************************************
 STARTING BASIS SET HANDLING 
 *******************************************************************************

 Loading internal basis set: SOLDEF2MSVP         

 Please cite in your publication:
 L. Dona', J. G. Brandenburg and B. Civalleri, J. Chem. Phys., 151, 121101 (2019
 )                                                                              
                                                                                
                    

 *******************************************************************************
 LOCAL ATOMIC FUNCTIONS BASIS SET
 *******************************************************************************
   ATOM   X(AU)   Y(AU)   Z(AU)  N. TYPE  EXPONENT  S COEF   P COEF   D/F/G COEF
 *******************************************************************************
   1 B   -9.499  11.937   3.694
                                  1 S  
                                         2.410E+03 1.755E-03 0.000E+00 0.000E+00
                                         3.619E+02 1.344E-02 0.000E+00 0.000E+00
                                         8.231E+01 6.637E-02 0.000E+00 0.000E+00
                                         2.311E+01 2.303E-01 0.000E+00 0.000E+00
                                         7.252E+00 5.150E-01 0.000E+00 0.000E+00
                                  2 S  
                                         2.367E+00 1.000E+00 0.000E+00 0.000E+00
                                  3 S  
                                         5.533E-01 1.000E+00 0.000E+00 0.000E+00
                                  4 S  
                                         1.716E-01 1.000E+00 0.000E+00 0.000E+00
                           5-     7 P  
                                         6.002E+00 0.000E+00-3.555E-02 0.000E+00
                                         1.240E+00 0.000E+00-1.983E-01 0.000E+00
                                         3.367E-01 0.000E+00-5.048E-01 0.000E+00
                           8-    10 P  
                                         1.256E-01 0.000E+00 1.000E+00 0.000E+00
                          11-    15 D  
                                         8.880E-01 0.000E+00 0.000E+00 1.000E+00
   2 B   -9.499  11.937  -3.676
   3 B   -5.588  14.195   3.694
   4 B   -5.588  14.195  -3.676
   5 B   -9.499 -11.939   3.675
   6 B   -9.499 -11.939  -3.695
   7 B    5.588 -14.195   3.694
   8 B    5.588 -14.195  -3.676
   9 B    9.500  11.937   3.694
  10 B    9.500  11.937  -3.676
  11 B    9.499 -11.935   3.675
  12 B    9.499 -11.935  -3.695
  13 H   -2.384  10.147   3.655
                                181 S  
                                         1.874E+01 1.968E-02 0.000E+00 0.000E+00
                                         2.826E+00 1.380E-01 0.000E+00 0.000E+00
                                         6.401E-01 4.783E-01 0.000E+00 0.000E+00
                                182 S  
                                         1.756E-01 1.000E+00 0.000E+00 0.000E+00
  14 H   -2.384  10.147  -3.715
  15 H    2.376 -10.143   3.649
  16 H    2.376 -10.143  -3.721
  17 H   -2.386 -10.148   3.648
  18 H   -2.386 -10.148  -3.722
  19 H    2.379  10.145   3.648
  20 H    2.379  10.145  -3.722
  21 H   -7.597   7.139   3.715
  22 H   -7.597   7.139  -3.655
  23 H    7.596  -7.126   3.721
  24 H    7.596  -7.126  -3.649
  25 H    9.979  -3.005   3.722
  26 H    9.979  -3.005  -3.648
  27 H   -9.975   3.014   3.722
  28 H   -9.975   3.014  -3.648
  29 H   -7.596  -7.140   3.655
  30 H   -7.596  -7.140  -3.715
  31 H    7.597   7.130   3.649
  32 H    7.597   7.130  -3.721
  33 H    9.979   3.007   3.648
  34 H    9.979   3.008  -3.722
  35 H   -9.976  -3.016   3.648
  36 H   -9.976  -3.016  -3.722
  37 C   -2.658  14.195   3.674
                                229 S  
                                         3.624E+03 1.634E-03 0.000E+00 0.000E+00
                                         5.440E+02 1.252E-02 0.000E+00 0.000E+00
                                         1.237E+02 6.211E-02 0.000E+00 0.000E+00
                                         3.476E+01 2.182E-01 0.000E+00 0.000E+00
                                         1.093E+01 4.980E-01 0.000E+00 0.000E+00
                                230 S  
                                         3.574E+00 1.000E+00 0.000E+00 0.000E+00
                                231 S  
                                         7.742E-01 1.000E+00 0.000E+00 0.000E+00
                                232 S  
                                         2.330E-01 1.000E+00 0.000E+00 0.000E+00
                         233-   235 P  
                                         9.443E+00 0.000E+00 3.790E-02 0.000E+00
                                         2.002E+00 0.000E+00 2.082E-01 0.000E+00
                                         5.463E-01 0.000E+00 5.047E-01 0.000E+00
                         236-   238 P  
                                         1.820E-01 0.000E+00 1.000E+00 0.000E+00
                         239-   243 D  
                                         8.880E-01 0.000E+00 0.000E+00 1.000E+00
  38 C   -2.658  14.195  -3.696
  39 C   -1.316  11.911   3.656
  40 C   -1.316  11.911  -3.714
  41 C    1.313 -11.910   3.654
  42 C    1.313 -11.910  -3.716
  43 C   -1.317 -11.911   3.659
  44 C   -1.317 -11.911  -3.711
  45 C    1.314  11.911   3.646
  46 C    1.314  11.911  -3.724
  47 C    2.656 -14.195   3.659
  48 C    2.656 -14.195  -3.711
  49 C   13.623  -4.793   3.696
  50 C   13.623  -4.793  -3.674
  51 C   -9.659   7.096   3.714
  52 C   -9.659   7.096  -3.656
  53 C    9.658  -7.090   3.716
  54 C    9.658  -7.089  -3.654
  55 C   10.973  -4.813   3.711
  56 C   10.973  -4.813  -3.659
  57 C  -10.973   4.819   3.724
  58 C  -10.973   4.819  -3.646
  59 C   10.964  -9.396   3.711
  60 C   10.964  -9.396  -3.659
  61 C   13.623   4.795   3.674
  62 C   13.623   4.795  -3.696
  63 C   -9.658  -7.098   3.656
  64 C   -9.658  -7.098  -3.714
  65 C    9.659   7.092   3.654
  66 C    9.659   7.092  -3.716
  67 C   10.973   4.814   3.659
  68 C   10.973   4.815  -3.711
  69 C  -10.973  -4.821   3.646
  70 C  -10.973  -4.821  -3.724
  71 C   10.965   9.398   3.659
  72 C   10.965   9.398  -3.711
  73 O   13.787   0.001   3.680
                                769 S  
                                         6.773E+03 1.727E-03 0.000E+00 0.000E+00
                                         1.017E+03 1.325E-02 0.000E+00 0.000E+00
                                         2.313E+02 6.603E-02 0.000E+00 0.000E+00
                                         6.501E+01 2.353E-01 0.000E+00 0.000E+00
                                         2.050E+01 5.498E-01 0.000E+00 0.000E+00
                                770 S  
                                         6.716E+00 1.000E+00 0.000E+00 0.000E+00
                                771 S  
                                         1.147E+00 1.000E+00 0.000E+00 0.000E+00
                                772 S  
                                         3.342E-01 1.000E+00 0.000E+00 0.000E+00
                         773-   775 P  
                                         1.769E+01 0.000E+00 4.359E-02 0.000E+00
                                         3.854E+00 0.000E+00 2.318E-01 0.000E+00
                                         1.047E+00 0.000E+00 5.146E-01 0.000E+00
                         776-   778 P  
                                         2.759E-01 0.000E+00 1.000E+00 0.000E+00
                         779-   783 D  
                                         8.000E-01 0.000E+00 0.000E+00 1.000E+00
  74 O   13.787   0.001  -3.690
  75 O   -6.892  11.939   3.720
  76 O   -6.892  11.939  -3.650
  77 O   -6.893 -11.940   3.660
  78 O   -6.892 -11.939  -3.710
  79 O    6.893 -11.938   3.680
  80 O    6.893 -11.938  -3.690
  81 O    6.893  11.940   3.720
  82 O    6.893  11.940  -3.650
  83 O  -13.787  -0.001   3.660
  84 O  -13.787  -0.001  -3.710

 *******************************************************************************
 FINISHED BASIS SET HANDLING 
 *******************************************************************************

 INFORMATION **** SET_MPP **** PCRYSTAL CALCULATION
 INFORMATION **** READM2 **** NEW DEFAULT: FOCK/KS MATRIX MIXING SET TO 30 %
 INFORMATION **** READM2 **** NEW DEFAULT: FULL DIRECT SCF MODE
 INFORMATION **** READM2 **** NEW DEFAULT: COULOMB BIPOLAR BUFFER SET TO 32 Mb
 INFORMATION **** READM2 **** NEW DEFAULT: EXCHANGE BIPOLAR BUFFER SET TO 32 Mb

 *******************************************************************************
 NEW DEFAULT: DFT INTEGRATION GRID INCREASED TO XLGRID
 NEW DEFAULT: DIIS ACCELERATOR ACTIVE
 USE KEYWORD NODIIS TO TURN IT OFF
 *******************************************************************************

 WARNING **** RDDFTP **** HSEsol-HJS ACTIVE
 RANGE SEPARATION - OMEGA:   0.110000000000000     
 WARNING **** RDDFTP **** HSEsol-3c has to be combined with sol-def2-mSVP basis set
 *******************************************************************************
 N. OF ATOMS PER CELL        84  COULOMB OVERLAP TOL         (T1) 10**   -6
 NUMBER OF SHELLS           468  COULOMB PENETRATION TOL     (T2) 10**   -6
 NUMBER OF AO               948  EXCHANGE OVERLAP TOL        (T3) 10**   -6
 N. OF ELECTRONS PER CELL   396  EXCHANGE PSEUDO OVP (F(G))  (T4) 10**   -6
 CORE ELECTRONS PER CELL    120  EXCHANGE PSEUDO OVP (P(G))  (T5) 10**  -12
 N. OF SYMMETRY OPERATORS     1  POLE ORDER IN MONO ZONE                  4
 *******************************************************************************
 TYPE OF CALCULATION :  RESTRICTED CLOSED SHELL
 KOHN-SHAM HAMILTONIAN

 (EXCHANGE)[CORRELATION] FUNCTIONAL:(HSEsol GGA)[PBEsol]

 RANGE-SEPARATED HYBRID FUNCTIONAL 
 OMEGA (SHORT-RANGE)[LONG-RANGE]:(    0.1100)[    0.0000]

 HYBRID EXCHANGE - PERCENTAGE OF FOCK EXCHANGE    25.0000

 CAPPA:IS1  2;IS2  2;IS3  8; K PTS MONK NET  20; SYMMOPS:K SPACE   2;G SPACE   1

 *******************************************************************************
 MAX NUMBER OF SCF CYCLES      50  CONVERGENCE ON DELTAP        10**-16
 WEIGHT OF F(I) IN F(I+1)      30% CONVERGENCE ON ENERGY        10**- 6
 SHRINK. FACT.(MONKH.)    2  2  8  NUMBER OF K POINTS IN THE IBZ     20
 SHRINKING FACTOR(GILAT NET)    8  NUMBER OF K POINTS(GILAT NET)   1028
 *******************************************************************************
 *** K POINTS COORDINATES (OBLIQUE COORDINATES IN UNITS OF IS =  2)
   1-R(  0  0  0)   2-R(  1  0  0)   3-R(  0  1  0)   4-R(  1  1  0)
   5-C(  0  0  1)   6-C(  1  0  1)   7-C(  0  1  1)   8-C(  1  1  1)
   9-C(  0  0  2)  10-C(  1  0  2)  11-C(  0  1  2)  12-C(  1  1  2)
  13-C(  0  0  3)  14-C(  1  0  3)  15-C(  0  1  3)  16-C(  1  1  3)
  17-R(  0  0  4)  18-R(  1  0  4)  19-R(  0  1  4)  20-R(  1  1  4)

 DIRECT LATTICE VECTORS COMPON. (A.U.)     RECIP. LATTICE VECTORS COMPON. (A.U.) 
        X            Y            Z              X            Y            Z
   24.5879030  -14.1935232    0.0000000      0.2555397    0.0000000    0.0000005
    0.0000000   28.3910867    0.0000000      0.1277517    0.2213084    0.0000015
   -0.0000313   -0.0000831   14.7398638      0.0000000    0.0000000    0.4262716

 DISK SPACE FOR EIGENVECTORS (FTN 10)    28758528 REALS

 SYMMETRY ADAPTION OF THE BLOCH FUNCTIONS DISABLED
 TTTTTTTTTTTTTTTTTTTTTTTTTTTTTT gordsh1     TELAPSE        0.05 TCPU        0.05

 MATRIX SIZE: P(G)  690192, F(G)  144198, P(G) IRR  347034, F(G) IRR  145230
 MAX G-VECTOR INDEX FOR 1- AND 2-ELECTRON INTEGRALS  55

 TTTTTTTTTTTTTTTTTTTTTTTTTTTTTT INPUT       TELAPSE        2.93 TCPU        2.93

 NEIGHBORS OF THE NON-EQUIVALENT ATOMS

 N = NUMBER OF NEIGHBORS AT DISTANCE R
    ATOM  N     R/ANG      R/AU   NEIGHBORS (ATOM LABELS AND CELL INDICES)
   1 B    1     1.3791     2.6061   73 O   -1 0 0
   1 B    1     1.3793     2.6065   75 O    0 0 0
   1 B    1     1.5503     2.9297   49 C   -1 0 0
   1 B    1     2.3895     4.5155    5 B    0 1 0
   1 B    1     2.3898     4.5160    3 B    0 0 0
   1 B    1     2.5632     4.8437   51 C    0 0 0

   2 B    1     1.3791     2.6061   74 O   -1 0 0
   2 B    1     1.3793     2.6065   76 O    0 0 0
   2 B    1     1.5503     2.9297   50 C   -1 0 0
   2 B    1     2.3895     4.5155    6 B    0 1 0
   2 B    1     2.3898     4.5160    4 B    0 0 0
   2 B    1     2.5632     4.8437   52 C    0 0 0

   3 B    1     1.3793     2.6065   77 O    0 1 0
   3 B    1     1.3793     2.6065   75 O    0 0 0
   3 B    1     1.5504     2.9298   37 C    0 0 0
   3 B    1     2.3895     4.5156    5 B    0 1 0
   3 B    1     2.3898     4.5160    1 B    0 0 0
   3 B    1     2.5634     4.8440   43 C    0 1 0

   4 B    1     1.3793     2.6065   78 O    0 1 0
   4 B    1     1.3793     2.6065   76 O    0 0 0
   4 B    1     1.5504     2.9298   38 C    0 0 0
   4 B    1     2.3895     4.5156    6 B    0 1 0
   4 B    1     2.3898     4.5160    2 B    0 0 0
   4 B    1     2.5634     4.8440   44 C    0 1 0

   5 B    1     1.3791     2.6061   73 O   -1-1 0
   5 B    1     1.3793     2.6064   77 O    0 0 0
   5 B    1     1.5502     2.9294   61 C   -1-1 0
   5 B    1     2.3895     4.5155    1 B    0-1 0
   5 B    1     2.3895     4.5156    3 B    0-1 0
   5 B    1     2.5629     4.8433   63 C    0 0 0

   6 B    1     1.3791     2.6061   74 O   -1-1 0
   6 B    1     1.3793     2.6064   78 O    0 0 0
   6 B    1     1.5502     2.9294   62 C   -1-1 0
   6 B    1     2.3895     4.5155    2 B    0-1 0
   6 B    1     2.3895     4.5156    4 B    0-1 0
   6 B    1     2.5629     4.8433   64 C    0 0 0

   7 B    1     1.3795     2.6068   79 O    0 0 0
   7 B    1     1.3795     2.6070   81 O    0-1 0
   7 B    1     1.5513     2.9316   47 C    0 0 0
   7 B    1     2.3905     4.5174   11 B    0 0 0
   7 B    1     2.3905     4.5175    9 B    0-1 0
   7 B    1     2.5648     4.8468   45 C    0-1 0

   8 B    1     1.3795     2.6068   80 O    0 0 0
   8 B    1     1.3795     2.6070   82 O    0-1 0
   8 B    1     1.5513     2.9316   48 C    0 0 0
   8 B    1     2.3905     4.5174   12 B    0 0 0
   8 B    1     2.3905     4.5175   10 B    0-1 0
   8 B    1     2.5648     4.8468   46 C    0-1 0

   9 B    1     1.3795     2.6069   81 O    0 0 0
   9 B    1     1.3797     2.6072   83 O    1 1 0
   9 B    1     1.5516     2.9322   71 C    0 0 0
   9 B    1     2.3905     4.5175    7 B    0 1 0
   9 B    1     2.3911     4.5185   11 B    0 1 0
   9 B    1     2.5651     4.8473   69 C    1 1 0

  10 B    1     1.3795     2.6069   82 O    0 0 0
  10 B    1     1.3797     2.6072   84 O    1 1 0
  10 B    1     1.5516     2.9322   72 C    0 0 0
  10 B    1     2.3905     4.5175    8 B    0 1 0
  10 B    1     2.3911     4.5185   12 B    0 1 0
  10 B    1     2.5651     4.8473   70 C    1 1 0

  11 B    1     1.3795     2.6068   79 O    0 0 0
  11 B    1     1.3796     2.6071   83 O    1 0 0
  11 B    1     1.5516     2.9322   59 C    0 0 0
  11 B    1     2.3905     4.5174    7 B    0 0 0
  11 B    1     2.3911     4.5185    9 B    0-1 0
  11 B    1     2.5651     4.8473   57 C    1 0 0

  12 B    1     1.3795     2.6068   80 O    0 0 0
  12 B    1     1.3796     2.6071   84 O    1 0 0
  12 B    1     1.5516     2.9322   60 C    0 0 0
  12 B    1     2.3905     4.5174    8 B    0 0 0
  12 B    1     2.3911     4.5185   10 B    0-1 0
  12 B    1     2.5651     4.8473   58 C    1 0 0

  13 H    1     1.0913     2.0623   39 C    0 0 0
  13 H    1     2.1472     4.0576   37 C    0 0 0
  13 H    1     2.1680     4.0969   45 C    0 0 0
  13 H    1     2.5202     4.7625   19 H    0 0 0
  13 H    1     2.5676     4.8520   75 O    0 0 0
  13 H    1     2.7321     5.1630    3 B    0 0 0

  14 H    1     1.0913     2.0623   40 C    0 0 0
  14 H    1     2.1472     4.0576   38 C    0 0 0
  14 H    1     2.1680     4.0969   46 C    0 0 0
  14 H    1     2.5202     4.7625   20 H    0 0 0
  14 H    1     2.5676     4.8520   76 O    0 0 0
  14 H    1     2.7321     5.1630    4 B    0 0 0

  15 H    1     1.0914     2.0625   41 C    0 0 0
  15 H    1     2.1493     4.0616   47 C    0 0 0
  15 H    1     2.1666     4.0942   43 C    0 0 0
  15 H    1     2.5198     4.7618   17 H    0 0 0
  15 H    1     2.5720     4.8604   79 O    0 0 0
  15 H    1     2.7362     5.1707    7 B    0 0 0

  16 H    1     1.0914     2.0625   42 C    0 0 0
  16 H    1     2.1493     4.0616   48 C    0 0 0
  16 H    1     2.1666     4.0942   44 C    0 0 0
  16 H    1     2.5198     4.7618   18 H    0 0 0
  16 H    1     2.5720     4.8604   80 O    0 0 0
  16 H    1     2.7362     5.1707    8 B    0 0 0

  17 H    1     1.0914     2.0624   43 C    0 0 0
  17 H    1     2.1471     4.0575   37 C    0-1 0
  17 H    1     2.1680     4.0970   41 C    0 0 0
  17 H    1     2.5198     4.7618   15 H    0 0 0
  17 H    1     2.5665     4.8500   77 O    0 0 0
  17 H    1     2.7315     5.1618    3 B    0-1 0

  18 H    1     1.0914     2.0624   44 C    0 0 0
  18 H    1     2.1471     4.0575   38 C    0-1 0
  18 H    1     2.1680     4.0970   42 C    0 0 0
  18 H    1     2.5198     4.7618   16 H    0 0 0
  18 H    1     2.5665     4.8500   78 O    0 0 0
  18 H    1     2.7315     5.1618    4 B    0-1 0

  19 H    1     1.0915     2.0626   45 C    0 0 0
  19 H    1     2.1490     4.0610   47 C    0 1 0
  19 H    1     2.1669     4.0948   39 C    0 0 0
  19 H    1     2.5202     4.7625   13 H    0 0 0
  19 H    1     2.5712     4.8588   81 O    0 0 0
  19 H    1     2.7351     5.1686    7 B    0 1 0

  20 H    1     1.0915     2.0626   46 C    0 0 0
  20 H    1     2.1490     4.0610   48 C    0 1 0
  20 H    1     2.1669     4.0948   40 C    0 0 0
  20 H    1     2.5202     4.7625   14 H    0 0 0
  20 H    1     2.5712     4.8588   82 O    0 0 0
  20 H    1     2.7351     5.1686    8 B    0 1 0

  21 H    1     1.0913     2.0623   51 C    0 0 0
  21 H    1     2.1469     4.0571   49 C   -1 0 0
  21 H    1     2.1680     4.0968   57 C    0 0 0
  21 H    1     2.5198     4.7617   27 H    0 0 0
  21 H    1     2.5670     4.8510   75 O    0 0 0
  21 H    1     2.7310     5.1609    1 B    0 0 0

  22 H    1     1.0913     2.0623   52 C    0 0 0
  22 H    1     2.1469     4.0571   50 C   -1 0 0
  22 H    1     2.1680     4.0968   58 C    0 0 0
  22 H    1     2.5198     4.7617   28 H    0 0 0
  22 H    1     2.5670     4.8510   76 O    0 0 0
  22 H    1     2.7310     5.1609    2 B    0 0 0

  23 H    1     1.0914     2.0625   53 C    0 0 0
  23 H    1     2.1493     4.0617   59 C    0 0 0
  23 H    1     2.1664     4.0939   55 C    0 0 0
  23 H    1     2.5192     4.7606   25 H    0 0 0
  23 H    1     2.5735     4.8632   79 O    0 0 0
  23 H    1     2.7371     5.1723   11 B    0 0 0

  24 H    1     1.0914     2.0625   54 C    0 0 0
  24 H    1     2.1493     4.0617   60 C    0 0 0
  24 H    1     2.1664     4.0939   56 C    0 0 0
  24 H    1     2.5192     4.7606   26 H    0 0 0
  24 H    1     2.5735     4.8632   80 O    0 0 0
  24 H    1     2.7371     5.1723   12 B    0 0 0

  25 H    1     1.0914     2.0624   55 C    0 0 0
  25 H    1     2.1475     4.0581   49 C    0 0 0
  25 H    1     2.1679     4.0967   53 C    0 0 0
  25 H    1     2.5192     4.7606   23 H    0 0 0
  25 H    1     2.5675     4.8519   73 O    0 0 0
  25 H    1     2.7328     5.1643    1 B    1 0 0

  26 H    1     1.0914     2.0624   56 C    0 0 0
  26 H    1     2.1475     4.0581   50 C    0 0 0
  26 H    1     2.1679     4.0967   54 C    0 0 0
  26 H    1     2.5192     4.7606   24 H    0 0 0
  26 H    1     2.5675     4.8519   74 O    0 0 0
  26 H    1     2.7328     5.1643    2 B    1 0 0

  27 H    1     1.0914     2.0625   57 C    0 0 0
  27 H    1     2.1491     4.0612   59 C   -1 0 0
  27 H    1     2.1666     4.0942   51 C    0 0 0
  27 H    1     2.5198     4.7617   21 H    0 0 0
  27 H    1     2.5723     4.8609   83 O    0 0 0
  27 H    1     2.7355     5.1693   11 B   -1 0 0

  28 H    1     1.0914     2.0625   58 C    0 0 0
  28 H    1     2.1491     4.0612   60 C   -1 0 0
  28 H    1     2.1666     4.0942   52 C    0 0 0
  28 H    1     2.5198     4.7617   22 H    0 0 0
  28 H    1     2.5723     4.8609   84 O    0 0 0
  28 H    1     2.7355     5.1693   12 B   -1 0 0

  29 H    1     1.0914     2.0624   63 C    0 0 0
  29 H    1     2.1475     4.0582   61 C   -1-1 0
  29 H    1     2.1678     4.0966   69 C    0 0 0
  29 H    1     2.5200     4.7621   35 H    0 0 0
  29 H    1     2.5667     4.8503   77 O    0 0 0
  29 H    1     2.7315     5.1618    5 B    0 0 0

  30 H    1     1.0914     2.0624   64 C    0 0 0
  30 H    1     2.1475     4.0582   62 C   -1-1 0
  30 H    1     2.1678     4.0966   70 C    0 0 0
  30 H    1     2.5200     4.7621   36 H    0 0 0
  30 H    1     2.5667     4.8503   78 O    0 0 0
  30 H    1     2.7315     5.1618    6 B    0 0 0

  31 H    1     1.0913     2.0623   65 C    0 0 0
  31 H    1     2.1487     4.0605   71 C    0 0 0
  31 H    1     2.1667     4.0945   67 C    0 0 0
  31 H    1     2.5197     4.7616   33 H    0 0 0
  31 H    1     2.5723     4.8610   81 O    0 0 0
  31 H    1     2.7359     5.1701    9 B    0 0 0

  32 H    1     1.0913     2.0623   66 C    0 0 0
  32 H    1     2.1487     4.0605   72 C    0 0 0
  32 H    1     2.1667     4.0945   68 C    0 0 0
  32 H    1     2.5197     4.7616   34 H    0 0 0
  32 H    1     2.5723     4.8610   82 O    0 0 0
  32 H    1     2.7359     5.1701   10 B    0 0 0

  33 H    1     1.0915     2.0626   67 C    0 0 0
  33 H    1     2.1479     4.0589   61 C    0 0 0
  33 H    1     2.1679     4.0968   65 C    0 0 0
  33 H    1     2.5197     4.7616   31 H    0 0 0
  33 H    1     2.5677     4.8522   73 O    0 0 0
  33 H    1     2.7331     5.1648    5 B    1 1 0

  34 H    1     1.0915     2.0626   68 C    0 0 0
  34 H    1     2.1479     4.0589   62 C    0 0 0
  34 H    1     2.1679     4.0968   66 C    0 0 0
  34 H    1     2.5197     4.7616   32 H    0 0 0
  34 H    1     2.5677     4.8522   74 O    0 0 0
  34 H    1     2.7331     5.1648    6 B    1 1 0

  35 H    1     1.0914     2.0624   69 C    0 0 0
  35 H    1     2.1486     4.0602   71 C   -1-1 0
  35 H    1     2.1668     4.0947   63 C    0 0 0
  35 H    1     2.5200     4.7621   29 H    0 0 0
  35 H    1     2.5717     4.8598   83 O    0 0 0
  35 H    1     2.7349     5.1682    9 B   -1-1 0

  36 H    1     1.0914     2.0624   70 C    0 0 0
  36 H    1     2.1486     4.0602   72 C   -1-1 0
  36 H    1     2.1668     4.0947   64 C    0 0 0
  36 H    1     2.5200     4.7621   30 H    0 0 0
  36 H    1     2.5717     4.8598   84 O    0 0 0
  36 H    1     2.7349     5.1682   10 B   -1-1 0

  37 C    1     1.4020     2.6495   43 C    0 1 0
  37 C    1     1.4021     2.6495   39 C    0 0 0
  37 C    1     1.5504     2.9298    3 B    0 0 0
  37 C    1     2.1471     4.0575   17 H    0 1 0
  37 C    1     2.1472     4.0576   13 H    0 0 0
  37 C    1     2.4246     4.5817   41 C    0 1 0

  38 C    1     1.4020     2.6495   44 C    0 1 0
  38 C    1     1.4021     2.6495   40 C    0 0 0
  38 C    1     1.5504     2.9298    4 B    0 0 0
  38 C    1     2.1471     4.0575   18 H    0 1 0
  38 C    1     2.1472     4.0576   14 H    0 0 0
  38 C    1     2.4246     4.5817   42 C    0 1 0

  39 C    1     1.0913     2.0623   13 H    0 0 0
  39 C    1     1.3914     2.6294   45 C    0 0 0
  39 C    1     1.4021     2.6495   37 C    0 0 0
  39 C    1     2.1669     4.0948   19 H    0 0 0
  39 C    1     2.4177     4.5688   43 C    0 1 0
  39 C    1     2.4250     4.5825   47 C    0 1 0

  40 C    1     1.0913     2.0623   14 H    0 0 0
  40 C    1     1.3914     2.6294   46 C    0 0 0
  40 C    1     1.4021     2.6495   38 C    0 0 0
  40 C    1     2.1669     4.0948   20 H    0 0 0
  40 C    1     2.4177     4.5688   44 C    0 1 0
  40 C    1     2.4250     4.5825   48 C    0 1 0

  41 C    1     1.0914     2.0625   15 H    0 0 0
  41 C    1     1.3914     2.6293   43 C    0 0 0
  41 C    1     1.4026     2.6505   47 C    0 0 0
  41 C    1     2.1680     4.0970   17 H    0 0 0
  41 C    1     2.4182     4.5697   45 C    0-1 0
  41 C    1     2.4246     4.5817   37 C    0-1 0

  42 C    1     1.0914     2.0625   16 H    0 0 0
  42 C    1     1.3914     2.6293   44 C    0 0 0
  42 C    1     1.4026     2.6505   48 C    0 0 0
  42 C    1     2.1680     4.0970   18 H    0 0 0
  42 C    1     2.4182     4.5697   46 C    0-1 0
  42 C    1     2.4246     4.5817   38 C    0-1 0

  43 C    1     1.0914     2.0624   17 H    0 0 0
  43 C    1     1.3914     2.6293   41 C    0 0 0
  43 C    1     1.4020     2.6495   37 C    0-1 0
  43 C    1     2.1666     4.0942   15 H    0 0 0
  43 C    1     2.4177     4.5688   39 C    0-1 0
  43 C    1     2.4250     4.5826   47 C    0 0 0

  44 C    1     1.0914     2.0624   18 H    0 0 0
  44 C    1     1.3914     2.6293   42 C    0 0 0
  44 C    1     1.4020     2.6495   38 C    0-1 0
  44 C    1     2.1666     4.0942   16 H    0 0 0
  44 C    1     2.4177     4.5688   40 C    0-1 0
  44 C    1     2.4250     4.5826   48 C    0 0 0

  45 C    1     1.0915     2.0626   19 H    0 0 0
  45 C    1     1.3914     2.6294   39 C    0 0 0
  45 C    1     1.4025     2.6504   47 C    0 1 0
  45 C    1     2.1680     4.0969   13 H    0 0 0
  45 C    1     2.4182     4.5697   41 C    0 1 0
  45 C    1     2.4246     4.5818   37 C    0 0 0

  46 C    1     1.0915     2.0626   20 H    0 0 0
  46 C    1     1.3914     2.6294   40 C    0 0 0
  46 C    1     1.4025     2.6504   48 C    0 1 0
  46 C    1     2.1680     4.0969   14 H    0 0 0
  46 C    1     2.4182     4.5697   42 C    0 1 0
  46 C    1     2.4246     4.5818   38 C    0 0 0

  47 C    1     1.4025     2.6504   45 C    0-1 0
  47 C    1     1.4026     2.6505   41 C    0 0 0
  47 C    1     1.5513     2.9316    7 B    0 0 0
  47 C    1     2.1490     4.0610   19 H    0-1 0
  47 C    1     2.1493     4.0616   15 H    0 0 0
  47 C    1     2.4250     4.5825   39 C    0-1 0

  48 C    1     1.4025     2.6504   46 C    0-1 0
  48 C    1     1.4026     2.6505   42 C    0 0 0
  48 C    1     1.5513     2.9316    8 B    0 0 0
  48 C    1     2.1490     4.0610   20 H    0-1 0
  48 C    1     2.1493     4.0616   16 H    0 0 0
  48 C    1     2.4250     4.5825   40 C    0-1 0

  49 C    1     1.4020     2.6494   51 C    1 0 0
  49 C    1     1.4021     2.6495   55 C    0 0 0
  49 C    1     1.5503     2.9297    1 B    1 0 0
  49 C    1     2.1469     4.0571   21 H    1 0 0
  49 C    1     2.1475     4.0581   25 H    0 0 0
  49 C    1     2.4246     4.5818   53 C    0 0 0

  50 C    1     1.4020     2.6494   52 C    1 0 0
  50 C    1     1.4021     2.6495   56 C    0 0 0
  50 C    1     1.5503     2.9297    2 B    1 0 0
  50 C    1     2.1469     4.0571   22 H    1 0 0
  50 C    1     2.1475     4.0581   26 H    0 0 0
  50 C    1     2.4246     4.5818   54 C    0 0 0

  51 C    1     1.0913     2.0623   21 H    0 0 0
  51 C    1     1.3914     2.6293   57 C    0 0 0
  51 C    1     1.4020     2.6494   49 C   -1 0 0
  51 C    1     2.1666     4.0942   27 H    0 0 0
  51 C    1     2.4175     4.5684   55 C   -1 0 0
  51 C    1     2.4251     4.5828   59 C   -1 0 0

  52 C    1     1.0913     2.0623   22 H    0 0 0
  52 C    1     1.3914     2.6293   58 C    0 0 0
  52 C    1     1.4020     2.6494   50 C   -1 0 0
  52 C    1     2.1666     4.0942   28 H    0 0 0
  52 C    1     2.4175     4.5684   56 C   -1 0 0
  52 C    1     2.4251     4.5828   60 C   -1 0 0

  53 C    1     1.0914     2.0625   23 H    0 0 0
  53 C    1     1.3915     2.6295   55 C    0 0 0
  53 C    1     1.4026     2.6505   59 C    0 0 0
  53 C    1     2.1679     4.0967   25 H    0 0 0
  53 C    1     2.4179     4.5691   57 C    1 0 0
  53 C    1     2.4246     4.5818   49 C    0 0 0

  54 C    1     1.0914     2.0625   24 H    0 0 0
  54 C    1     1.3915     2.6295   56 C    0 0 0
  54 C    1     1.4026     2.6505   60 C    0 0 0
  54 C    1     2.1679     4.0967   26 H    0 0 0
  54 C    1     2.4179     4.5691   58 C    1 0 0
  54 C    1     2.4246     4.5818   50 C    0 0 0

  55 C    1     1.0914     2.0624   25 H    0 0 0
  55 C    1     1.3915     2.6295   53 C    0 0 0
  55 C    1     1.4021     2.6495   49 C    0 0 0
  55 C    1     2.1664     4.0939   23 H    0 0 0
  55 C    1     2.4175     4.5684   51 C    1 0 0
  55 C    1     2.4253     4.5832   59 C    0 0 0

  56 C    1     1.0914     2.0624   26 H    0 0 0
  56 C    1     1.3915     2.6295   54 C    0 0 0
  56 C    1     1.4021     2.6495   50 C    0 0 0
  56 C    1     2.1664     4.0939   24 H    0 0 0
  56 C    1     2.4175     4.5684   52 C    1 0 0
  56 C    1     2.4253     4.5832   60 C    0 0 0

  57 C    1     1.0914     2.0625   27 H    0 0 0
  57 C    1     1.3914     2.6293   51 C    0 0 0
  57 C    1     1.4025     2.6504   59 C   -1 0 0
  57 C    1     2.1680     4.0968   21 H    0 0 0
  57 C    1     2.4179     4.5691   53 C   -1 0 0
  57 C    1     2.4247     4.5819   49 C   -1 0 0

  58 C    1     1.0914     2.0625   28 H    0 0 0
  58 C    1     1.3914     2.6293   52 C    0 0 0
  58 C    1     1.4025     2.6504   60 C   -1 0 0
  58 C    1     2.1680     4.0968   22 H    0 0 0
  58 C    1     2.4179     4.5691   54 C   -1 0 0
  58 C    1     2.4247     4.5819   50 C   -1 0 0

  59 C    1     1.4025     2.6504   57 C    1 0 0
  59 C    1     1.4026     2.6505   53 C    0 0 0
  59 C    1     1.5516     2.9322   11 B    0 0 0
  59 C    1     2.1491     4.0612   27 H    1 0 0
  59 C    1     2.1493     4.0617   23 H    0 0 0
  59 C    1     2.4251     4.5828   51 C    1 0 0

  60 C    1     1.4025     2.6504   58 C    1 0 0
  60 C    1     1.4026     2.6505   54 C    0 0 0
  60 C    1     1.5516     2.9322   12 B    0 0 0
  60 C    1     2.1491     4.0612   28 H    1 0 0
  60 C    1     2.1493     4.0617   24 H    0 0 0
  60 C    1     2.4251     4.5828   52 C    1 0 0

  61 C    1     1.4021     2.6496   63 C    1 1 0
  61 C    1     1.4021     2.6497   67 C    0 0 0
  61 C    1     1.5502     2.9294    5 B    1 1 0
  61 C    1     2.1475     4.0582   29 H    1 1 0
  61 C    1     2.1479     4.0589   33 H    0 0 0
  61 C    1     2.4244     4.5814   65 C    0 0 0

  62 C    1     1.4021     2.6496   64 C    1 1 0
  62 C    1     1.4021     2.6497   68 C    0 0 0
  62 C    1     1.5502     2.9294    6 B    1 1 0
  62 C    1     2.1475     4.0582   30 H    1 1 0
  62 C    1     2.1479     4.0589   34 H    0 0 0
  62 C    1     2.4244     4.5814   66 C    0 0 0

  63 C    1     1.0914     2.0624   29 H    0 0 0
  63 C    1     1.3914     2.6293   69 C    0 0 0
  63 C    1     1.4021     2.6496   61 C   -1-1 0
  63 C    1     2.1668     4.0947   35 H    0 0 0
  63 C    1     2.4179     4.5692   67 C   -1-1 0
  63 C    1     2.4251     4.5827   71 C   -1-1 0

  64 C    1     1.0914     2.0624   30 H    0 0 0
  64 C    1     1.3914     2.6293   70 C    0 0 0
  64 C    1     1.4021     2.6496   62 C   -1-1 0
  64 C    1     2.1668     4.0947   36 H    0 0 0
  64 C    1     2.4179     4.5692   68 C   -1-1 0
  64 C    1     2.4251     4.5827   72 C   -1-1 0

  65 C    1     1.0913     2.0623   31 H    0 0 0
  65 C    1     1.3914     2.6294   67 C    0 0 0
  65 C    1     1.4025     2.6504   71 C    0 0 0
  65 C    1     2.1679     4.0968   33 H    0 0 0
  65 C    1     2.4178     4.5690   69 C    1 1 0
  65 C    1     2.4244     4.5814   61 C    0 0 0

  66 C    1     1.0913     2.0623   32 H    0 0 0
  66 C    1     1.3914     2.6294   68 C    0 0 0
  66 C    1     1.4025     2.6504   72 C    0 0 0
  66 C    1     2.1679     4.0968   34 H    0 0 0
  66 C    1     2.4178     4.5690   70 C    1 1 0
  66 C    1     2.4244     4.5814   62 C    0 0 0

  67 C    1     1.0915     2.0626   33 H    0 0 0
  67 C    1     1.3914     2.6294   65 C    0 0 0
  67 C    1     1.4021     2.6497   61 C    0 0 0
  67 C    1     2.1667     4.0945   31 H    0 0 0
  67 C    1     2.4179     4.5692   63 C    1 1 0
  67 C    1     2.4253     4.5832   71 C    0 0 0

  68 C    1     1.0915     2.0626   34 H    0 0 0
  68 C    1     1.3914     2.6294   66 C    0 0 0
  68 C    1     1.4021     2.6497   62 C    0 0 0
  68 C    1     2.1667     4.0945   32 H    0 0 0
  68 C    1     2.4179     4.5692   64 C    1 1 0
  68 C    1     2.4253     4.5832   72 C    0 0 0

  69 C    1     1.0914     2.0624   35 H    0 0 0
  69 C    1     1.3914     2.6293   63 C    0 0 0
  69 C    1     1.4025     2.6503   71 C   -1-1 0
  69 C    1     2.1678     4.0966   29 H    0 0 0
  69 C    1     2.4178     4.5690   65 C   -1-1 0
  69 C    1     2.4245     4.5817   61 C   -1-1 0

  70 C    1     1.0914     2.0624   36 H    0 0 0
  70 C    1     1.3914     2.6293   64 C    0 0 0
  70 C    1     1.4025     2.6503   72 C   -1-1 0
  70 C    1     2.1678     4.0966   30 H    0 0 0
  70 C    1     2.4178     4.5690   66 C   -1-1 0
  70 C    1     2.4245     4.5817   62 C   -1-1 0

  71 C    1     1.4025     2.6503   69 C    1 1 0
  71 C    1     1.4025     2.6504   65 C    0 0 0
  71 C    1     1.5516     2.9322    9 B    0 0 0
  71 C    1     2.1486     4.0602   35 H    1 1 0
  71 C    1     2.1487     4.0605   31 H    0 0 0
  71 C    1     2.4251     4.5827   63 C    1 1 0

  72 C    1     1.4025     2.6503   70 C    1 1 0
  72 C    1     1.4025     2.6504   66 C    0 0 0
  72 C    1     1.5516     2.9322   10 B    0 0 0
  72 C    1     2.1486     4.0602   36 H    1 1 0
  72 C    1     2.1487     4.0605   32 H    0 0 0
  72 C    1     2.4251     4.5827   64 C    1 1 0

  73 O    1     1.3791     2.6061    1 B    1 0 0
  73 O    1     1.3791     2.6061    5 B    1 1 0
  73 O    1     2.3880     4.5126   75 O    1 0 0
  73 O    1     2.3882     4.5130   77 O    1 1 0
  73 O    1     2.5383     4.7966   61 C    0 0 0
  73 O    1     2.5384     4.7968   49 C    0 0 0

  74 O    1     1.3791     2.6061    2 B    1 0 0
  74 O    1     1.3791     2.6061    6 B    1 1 0
  74 O    1     2.3880     4.5126   76 O    1 0 0
  74 O    1     2.3882     4.5130   78 O    1 1 0
  74 O    1     2.5383     4.7966   62 C    0 0 0
  74 O    1     2.5384     4.7968   50 C    0 0 0

  75 O    1     1.3793     2.6065    1 B    0 0 0
  75 O    1     1.3793     2.6065    3 B    0 0 0
  75 O    1     2.3880     4.5126   73 O   -1 0 0
  75 O    1     2.3882     4.5131   77 O    0 1 0
  75 O    1     2.5391     4.7981   37 C    0 0 0
  75 O    1     2.5395     4.7990   49 C   -1 0 0

  76 O    1     1.3793     2.6065    2 B    0 0 0
  76 O    1     1.3793     2.6065    4 B    0 0 0
  76 O    1     2.3880     4.5126   74 O   -1 0 0
  76 O    1     2.3882     4.5131   78 O    0 1 0
  76 O    1     2.5391     4.7981   38 C    0 0 0
  76 O    1     2.5395     4.7990   50 C   -1 0 0

  77 O    1     1.3793     2.6064    5 B    0 0 0
  77 O    1     1.3793     2.6065    3 B    0-1 0
  77 O    1     2.3882     4.5130   73 O   -1-1 0
  77 O    1     2.3882     4.5131   75 O    0-1 0
  77 O    1     2.5390     4.7980   37 C    0-1 0
  77 O    1     2.5391     4.7982   61 C   -1-1 0

  78 O    1     1.3793     2.6064    6 B    0 0 0
  78 O    1     1.3793     2.6065    4 B    0-1 0
  78 O    1     2.3882     4.5130   74 O   -1-1 0
  78 O    1     2.3882     4.5131   76 O    0-1 0
  78 O    1     2.5390     4.7980   38 C    0-1 0
  78 O    1     2.5391     4.7982   62 C   -1-1 0

  79 O    1     1.3795     2.6068   11 B    0 0 0
  79 O    1     1.3795     2.6068    7 B    0 0 0
  79 O    1     2.3880     4.5126   83 O    1 0 0
  79 O    1     2.3884     4.5134   81 O    0-1 0
  79 O    1     2.5400     4.7998   47 C    0 0 0
  79 O    1     2.5403     4.8005   59 C    0 0 0

  80 O    1     1.3795     2.6068   12 B    0 0 0
  80 O    1     1.3795     2.6068    8 B    0 0 0
  80 O    1     2.3880     4.5126   84 O    1 0 0
  80 O    1     2.3884     4.5134   82 O    0-1 0
  80 O    1     2.5400     4.7998   48 C    0 0 0
  80 O    1     2.5403     4.8005   60 C    0 0 0

  81 O    1     1.3795     2.6069    9 B    0 0 0
  81 O    1     1.3795     2.6070    7 B    0 1 0
  81 O    1     2.3881     4.5128   83 O    1 1 0
  81 O    1     2.3884     4.5134   79 O    0 1 0
  81 O    1     2.5404     4.8006   47 C    0 1 0
  81 O    1     2.5405     4.8008   71 C    0 0 0

  82 O    1     1.3795     2.6069   10 B    0 0 0
  82 O    1     1.3795     2.6070    8 B    0 1 0
  82 O    1     2.3881     4.5128   84 O    1 1 0
  82 O    1     2.3884     4.5134   80 O    0 1 0
  82 O    1     2.5404     4.8006   48 C    0 1 0
  82 O    1     2.5405     4.8008   72 C    0 0 0

  83 O    1     1.3796     2.6071   11 B   -1 0 0
  83 O    1     1.3797     2.6072    9 B   -1-1 0
  83 O    1     2.3880     4.5126   79 O   -1 0 0
  83 O    1     2.3881     4.5128   81 O   -1-1 0
  83 O    1     2.5409     4.8016   71 C   -1-1 0
  83 O    1     2.5410     4.8019   59 C   -1 0 0

  84 O    1     1.3796     2.6071   12 B   -1 0 0
  84 O    1     1.3797     2.6072   10 B   -1-1 0
  84 O    1     2.3880     4.5126   80 O   -1 0 0
  84 O    1     2.3881     4.5128   82 O   -1-1 0
  84 O    1     2.5409     4.8016   72 C   -1-1 0
  84 O    1     2.5410     4.8019   60 C   -1 0 0


 SYMMETRY ALLOWED INTERNAL DEGREE(S) OF FREEDOM: 249
 TTTTTTTTTTTTTTTTTTTTTTTTTTTTTT SYMM        TELAPSE        2.94 TCPU        2.93
 TTTTTTTTTTTTTTTTTTTTTTTTTTTTTT INT_SCREEN  TELAPSE        3.13 TCPU        3.12

 DFT PARAMETERS

     ATOM       ELECTRONS   NET CHARGE   R(ANGSTROM)
   1   5  B       5.0000      0.0000     0.89000000
  13   1  H       1.0000      0.0000     1.11000000
  37   6  C       6.0000      0.0000     0.77000000
  73   8  O       8.0000      0.0000     0.74000000

 SIZE OF GRID=    2596222
 TTTTTTTTTTTTTTTTTTTTTTTTTTTTTT MAKE_GRID2  TELAPSE       24.77 TCPU       24.74
 BECKE WEIGHT FUNCTION
 RADSAFE =     2.00
 TOLERANCES - DENSITY:10**- 6; POTENTIAL:10**- 9; GRID WGT:10**-14

 RADIAL INTEGRATION  - INTERVALS (POINTS,UPPER LIMIT):            1( 75,  4.0*R)

 ANGULAR INTEGRATION - INTERVALS (ACCURACY LEVEL [N. POINTS] UPPER LIMIT):
  1(  4[  86]   0.2)  2(  8[ 194]   0.5)  3( 12[ 350]   0.9)  4( 16[ 974]   3.5)
  5( 12[ 350]9999.0)
 TTTTTTTTTTTTTTTTTTTTTTTTTTTTTT INT_CALC    TELAPSE       25.05 TCPU       25.01
 EEEEEEEEEE INT_CALC TERMINATION  DATE 19 02 2026 TIME 20:20:37.8

 *******************************************************************************
 cof-1_z39_L000_serr                                                             
 CRYSTAL - SCF - TYPE OF CALCULATION :  RESTRICTED CLOSED SHELL
 *******************************************************************************

 CAPPA:IS1  2;IS2  2;IS3  8; K PTS MONK NET  20; SYMMOPS:K SPACE   2;G SPACE   1

 TTTTTTTTTTTTTTTTTTTTTTTTTTTTTT SDIK        TELAPSE       27.05 TCPU       53.25

 AAAAAAAAAAAAAAAAAAAAAAAAAAAAAAAAAAAAAAAAAAAAAAAAAAAAAAAAAAAAAAAAAAAAAAAAAAAAAAA
         ATOMIC WAVEFUNCTION(S)


 NUCLEAR CHARGE  5.0  SYMMETRY SPECIES            S    P
 N. ELECTRONS    5.0  NUMBER OF PRIMITIVE GTOS    8    4
                      NUMBER OF CONTRACTED GTOS   4    2
                      NUMBER OF CLOSED SHELLS     2    0
                      OPEN SHELL OCCUPATION       0    1

  ZNUC  SCFIT    TOTAL HF ENERGY   KINETIC ENERGY   VIRIAL THEOREM ACCURACY
   5.0    11    -2.451164084E+01  2.462155050E+01 -1.995536038E+00  1.5E-06

 NUCLEAR CHARGE  1.0  SYMMETRY SPECIES            S
 N. ELECTRONS    1.0  NUMBER OF PRIMITIVE GTOS    4
                      NUMBER OF CONTRACTED GTOS   2
                      NUMBER OF CLOSED SHELLS     0
                      OPEN SHELL OCCUPATION       1

  ZNUC  SCFIT    TOTAL HF ENERGY   KINETIC ENERGY   VIRIAL THEOREM ACCURACY
   1.0     1    -4.977266687E-01  5.190767460E-01 -1.958869132E+00  0.0E+00

 NUCLEAR CHARGE  6.0  SYMMETRY SPECIES            S    P
 N. ELECTRONS    6.0  NUMBER OF PRIMITIVE GTOS    8    4
                      NUMBER OF CONTRACTED GTOS   4    2
                      NUMBER OF CLOSED SHELLS     2    0
                      OPEN SHELL OCCUPATION       0    2

  ZNUC  SCFIT    TOTAL HF ENERGY   KINETIC ENERGY   VIRIAL THEOREM ACCURACY
   6.0     9    -3.766704647E+01  3.775180683E+01 -1.997754800E+00  1.1E-06

 NUCLEAR CHARGE  8.0  SYMMETRY SPECIES            S    P
 N. ELECTRONS    8.0  NUMBER OF PRIMITIVE GTOS    8    4
                      NUMBER OF CONTRACTED GTOS   4    2
                      NUMBER OF CLOSED SHELLS     2    0
                      OPEN SHELL OCCUPATION       0    4

  ZNUC  SCFIT    TOTAL HF ENERGY   KINETIC ENERGY   VIRIAL THEOREM ACCURACY
   8.0    12    -7.477373220E+01  7.477365593E+01 -2.000001020E+00  3.8E-06

 AAAAAAAAAAAAAAAAAAAAAAAAAAAAAAAAAAAAAAAAAAAAAAAAAAAAAAAAAAAAAAAAAAAAAAAAAAAAAAA

 CHARGE NORMALIZATION FACTOR   1.00000000
 TOTAL ATOMIC CHARGES:
   5.0000000   5.0000000   5.0000000   5.0000000   5.0000000   5.0000000
   5.0000000   5.0000000   5.0000000   5.0000000   5.0000000   5.0000000
   1.0000000   1.0000000   1.0000000   1.0000000   1.0000000   1.0000000
   1.0000000   1.0000000   1.0000000   1.0000000   1.0000000   1.0000000
   1.0000000   1.0000000   1.0000000   1.0000000   1.0000000   1.0000000
   1.0000000   1.0000000   1.0000000   1.0000000   1.0000000   1.0000000
   6.0000000   6.0000000   6.0000000   6.0000000   6.0000000   6.0000000
   6.0000000   6.0000000   6.0000000   6.0000000   6.0000000   6.0000000
   6.0000000   6.0000000   6.0000000   6.0000000   6.0000000   6.0000000
   6.0000000   6.0000000   6.0000000   6.0000000   6.0000000   6.0000000
   6.0000000   6.0000000   6.0000000   6.0000000   6.0000000   6.0000000
   6.0000000   6.0000000   6.0000000   6.0000000   6.0000000   6.0000000
   8.0000000   8.0000000   8.0000000   8.0000000   8.0000000   8.0000000
   8.0000000   8.0000000   8.0000000   8.0000000   8.0000000   8.0000000
 TTTTTTTTTTTTTTTTTTTTTTTTTTTTTT MOQGAD      TELAPSE       27.16 TCPU       56.59
 TTTTTTTTTTTTTTTTTTTTTTTTTTTTTT SHELLXN     TELAPSE       46.73 TCPU      682.15
 TTTTTTTTTTTTTTTTTTTTTTTTTTTTTT MONMO3      TELAPSE       47.37 TCPU      702.38
 NUMERICALLY INTEGRATED DENSITY    395.9998728583
 TTTTTTTTTTTTTTTTTTTTTTTTTTTTTT NUMDFT      TELAPSE       48.95 TCPU      753.06
 CYC   0 ETOT(AU) -2.591921746343E+03 DETOT -2.59E+03 tst  0.00E+00 PX  1.00E+00
 TTTTTTTTTTTTTTTTTTTTTTTTTTTTTT DIIS        TELAPSE       49.06 TCPU      756.49
 TTTTTTTTTTTTTTTTTTTTTTTTTTTTTT FDIK        TELAPSE       51.00 TCPU      818.38
 INSULATING STATE
 TOP OF VALENCE BANDS -    BAND    198; K    1; EIG -3.0414421E-01 AU
 BOTTOM OF VIRTUAL BANDS - BAND    199; K    1; EIG -1.7000517E-01 AU
 DIRECT ENERGY BAND GAP:   3.6501 eV
 TTTTTTTTTTTTTTTTTTTTTTTTTTTTTT PDIG        TELAPSE       52.73 TCPU      825.40
 CHARGE NORMALIZATION FACTOR   1.00000000
 TOTAL ATOMIC CHARGES:
   4.1414081   4.1414081   4.1412449   4.1412449   4.1414781   4.1414781
   4.1411713   4.1411712   4.1409796   4.1409797   4.1411535   4.1411535
   0.7858381   0.7858381   0.7859504   0.7859504   0.7857958   0.7857958
   0.7859120   0.7859120   0.7858169   0.7858169   0.7859799   0.7859799
   0.7858060   0.7858060   0.7859416   0.7859416   0.7857973   0.7857973
   0.7859786   0.7859786   0.7857883   0.7857883   0.7859429   0.7859429
   6.0511978   6.0511978   6.2689056   6.2689055   6.2688600   6.2688600
   6.2688507   6.2688508   6.2687838   6.2687839   6.0504353   6.0504354
   6.0512508   6.0512508   6.2688818   6.2688818   6.2689489   6.2689489
   6.2687956   6.2687955   6.2689653   6.2689653   6.0499866   6.0499866
   6.0515677   6.0515677   6.2686115   6.2686116   6.2691554   6.2691555
   6.2685301   6.2685301   6.2691368   6.2691367   6.0499527   6.0499526
   8.6982695   8.6982695   8.6983746   8.6983746   8.6983196   8.6983196
   8.6986783   8.6986783   8.6987053   8.6987053   8.6988529   8.6988529
 TTTTTTTTTTTTTTTTTTTTTTTTTTTTTT MOQGAD      TELAPSE       52.83 TCPU      825.51
 TTTTTTTTTTTTTTTTTTTTTTTTTTTTTT SHELLXN     TELAPSE       73.19 TCPU     1474.68
 TTTTTTTTTTTTTTTTTTTTTTTTTTTTTT MONMO3      TELAPSE       73.83 TCPU     1494.89
 NUMERICALLY INTEGRATED DENSITY    395.9999247416
 TTTTTTTTTTTTTTTTTTTTTTTTTTTTTT NUMDFT      TELAPSE       75.44 TCPU     1546.37
 CYC   1 ETOT(AU) -2.577612074976E+03 DETOT  1.43E+01 tst  0.00E+00 PX  1.00E+00
 TTTTTTTTTTTTTTTTTTTTTTTTTTTTTT DIIS        TELAPSE       75.57 TCPU     1550.76
 DIIS TEST: 0.23044E+01 AT SCF   CYCLE   1 - MIX   30 %
 TTTTTTTTTTTTTTTTTTTTTTTTTTTTTT FDIK        TELAPSE       77.58 TCPU     1614.86
 INSULATING STATE
 TOP OF VALENCE BANDS -    BAND    198; K    1; EIG -2.0585173E-01 AU
 BOTTOM OF VIRTUAL BANDS - BAND    199; K    1; EIG -9.3737996E-02 AU
 DIRECT ENERGY BAND GAP:   3.0508 eV
 TTTTTTTTTTTTTTTTTTTTTTTTTTTTTT PDIG        TELAPSE       79.27 TCPU     1621.85
 CHARGE NORMALIZATION FACTOR   1.00000000
 TOTAL ATOMIC CHARGES:
   4.7059489   4.7059488   4.7058745   4.7058746   4.7058737   4.7058737
   4.7063537   4.7063535   4.7063466   4.7063467   4.7064402   4.7064403
   0.9206388   0.9206388   0.9207109   0.9207109   0.9206073   0.9206073
   0.9206470   0.9206470   0.9206388   0.9206388   0.9207131   0.9207131
   0.9206174   0.9206174   0.9206914   0.9206914   0.9205950   0.9205950
   0.9207219   0.9207219   0.9205770   0.9205770   0.9207122   0.9207122
   5.8639636   5.8639636   6.1228224   6.1228223   6.1233835   6.1233835
   6.1226924   6.1226926   6.1233737   6.1233738   5.8668024   5.8668025
   5.8637942   5.8637942   6.1225251   6.1225251   6.1233828   6.1233828
   6.1227783   6.1227783   6.1232459   6.1232458   5.8672631   5.8672632
   5.8639151   5.8639151   6.1227589   6.1227590   6.1232156   6.1232158
   6.1230314   6.1230313   6.1231363   6.1231363   5.8670034   5.8670033
   8.3408777   8.3408777   8.3412613   8.3412613   8.3412330   8.3412330
   8.3407323   8.3407323   8.3409307   8.3409307   8.3411684   8.3411683
 TTTTTTTTTTTTTTTTTTTTTTTTTTTTTT MOQGAD      TELAPSE       79.38 TCPU     1621.95
 TTTTTTTTTTTTTTTTTTTTTTTTTTTTTT SHELLXN     TELAPSE       99.74 TCPU     2271.14
 TTTTTTTTTTTTTTTTTTTTTTTTTTTTTT MONMO3      TELAPSE      100.37 TCPU     2291.34
 NUMERICALLY INTEGRATED DENSITY    395.9999238065
 TTTTTTTTTTTTTTTTTTTTTTTTTTTTTT NUMDFT      TELAPSE      101.98 TCPU     2342.80
 CYC   2 ETOT(AU) -2.578001334183E+03 DETOT -3.89E-01 tst  4.84E-03 PX  1.57E-01
 TTTTTTTTTTTTTTTTTTTTTTTTTTTTTT DIIS        TELAPSE      102.14 TCPU     2347.88
 DIIS TEST: 0.99410E+00 AT SCF   CYCLE   2 - DIIS ACTIVE - HISTORY:     2 CYCLES
 TTTTTTTTTTTTTTTTTTTTTTTTTTTTTT FDIK        TELAPSE      104.15 TCPU     2412.07
 INSULATING STATE
 TOP OF VALENCE BANDS -    BAND    198; K    1; EIG -2.2259357E-01 AU
 BOTTOM OF VIRTUAL BANDS - BAND    199; K    1; EIG -8.9288464E-02 AU
 DIRECT ENERGY BAND GAP:   3.6274 eV
 TTTTTTTTTTTTTTTTTTTTTTTTTTTTTT PDIG        TELAPSE      105.84 TCPU     2419.05
 CHARGE NORMALIZATION FACTOR   1.00000000
 TOTAL ATOMIC CHARGES:
   4.4886921   4.4886920   4.4885495   4.4885495   4.4886702   4.4886702
   4.4880161   4.4880160   4.4878390   4.4878390   4.4879327   4.4879328
   0.8922919   0.8922919   0.8924241   0.8924241   0.8922495   0.8922495
   0.8923682   0.8923682   0.8922381   0.8922381   0.8924665   0.8924665
   0.8922785   0.8922785   0.8923855   0.8923855   0.8922496   0.8922496
   0.8924265   0.8924265   0.8922911   0.8922911   0.8923754   0.8923753
   5.8934134   5.8934134   6.1622732   6.1622731   6.1614598   6.1614597
   6.1621951   6.1621953   6.1613745   6.1613746   5.8916933   5.8916934
   5.8936090   5.8936090   6.1622566   6.1622566   6.1614168   6.1614168
   6.1622855   6.1622855   6.1613684   6.1613684   5.8913818   5.8913818
   5.8937594   5.8937594   6.1621132   6.1621134   6.1615284   6.1615285
   6.1621657   6.1621656   6.1614769   6.1614769   5.8913490   5.8913489
   8.5106975   8.5106975   8.5108606   8.5108606   8.5108369   8.5108369
   8.5108212   8.5108212   8.5109073   8.5109074   8.5110117   8.5110116
 TTTTTTTTTTTTTTTTTTTTTTTTTTTTTT MOQGAD      TELAPSE      105.94 TCPU     2419.16
 TTTTTTTTTTTTTTTTTTTTTTTTTTTTTT SHELLXN     TELAPSE      126.31 TCPU     3068.40
 TTTTTTTTTTTTTTTTTTTTTTTTTTTTTT MONMO3      TELAPSE      126.94 TCPU     3088.60
 NUMERICALLY INTEGRATED DENSITY    395.9999218603
 TTTTTTTTTTTTTTTTTTTTTTTTTTTTTT NUMDFT      TELAPSE      128.56 TCPU     3140.31
 CYC   3 ETOT(AU) -2.578206854175E+03 DETOT -2.06E-01 tst  7.52E-04 PX  5.92E-02
 TTTTTTTTTTTTTTTTTTTTTTTTTTTTTT DIIS        TELAPSE      128.74 TCPU     3146.20
 DIIS TEST: 0.20934E-01 AT SCF   CYCLE   3 - DIIS ACTIVE - HISTORY:     3 CYCLES
 TTTTTTTTTTTTTTTTTTTTTTTTTTTTTT FDIK        TELAPSE      130.75 TCPU     3210.27
 INSULATING STATE
 TOP OF VALENCE BANDS -    BAND    198; K    1; EIG -2.3201407E-01 AU
 BOTTOM OF VIRTUAL BANDS - BAND    199; K    1; EIG -9.9005610E-02 AU
 DIRECT ENERGY BAND GAP:   3.6193 eV
 TTTTTTTTTTTTTTTTTTTTTTTTTTTTTT PDIG        TELAPSE      132.42 TCPU     3217.24
 CHARGE NORMALIZATION FACTOR   1.00000000
 TOTAL ATOMIC CHARGES:
   4.4964071   4.4964070   4.4963190   4.4963190   4.4964092   4.4964092
   4.4969701   4.4969699   4.4968253   4.4968253   4.4969548   4.4969548
   0.8763674   0.8763674   0.8764166   0.8764166   0.8763320   0.8763320
   0.8763494   0.8763493   0.8763640   0.8763640   0.8764178   0.8764178
   0.8763706   0.8763706   0.8763656   0.8763655   0.8763404   0.8763404
   0.8764066   0.8764066   0.8763504   0.8763504   0.8763779   0.8763779
   5.9441844   5.9441844   6.1594130   6.1594129   6.1609407   6.1609406
   6.1593110   6.1593112   6.1609482   6.1609483   5.9490895   5.9490895
   5.9439168   5.9439168   6.1591686   6.1591686   6.1610552   6.1610552
   6.1592093   6.1592092   6.1610442   6.1610442   5.9493950   5.9493951
   5.9441732   5.9441732   6.1592096   6.1592097   6.1610282   6.1610283
   6.1592652   6.1592651   6.1610343   6.1610343   5.9491623   5.9491623
   8.4834197   8.4834197   8.4837284   8.4837284   8.4836899   8.4836898
   8.4835849   8.4835849   8.4837183   8.4837183   8.4839662   8.4839662
 TTTTTTTTTTTTTTTTTTTTTTTTTTTTTT MOQGAD      TELAPSE      132.52 TCPU     3217.34
 TTTTTTTTTTTTTTTTTTTTTTTTTTTTTT SHELLXN     TELAPSE      152.89 TCPU     3866.57
 TTTTTTTTTTTTTTTTTTTTTTTTTTTTTT MONMO3      TELAPSE      153.52 TCPU     3886.76
 NUMERICALLY INTEGRATED DENSITY    395.9999231113
 TTTTTTTTTTTTTTTTTTTTTTTTTTTTTT NUMDFT      TELAPSE      155.13 TCPU     3938.23
 CYC   4 ETOT(AU) -2.578211004812E+03 DETOT -4.15E-03 tst  2.93E-05 PX  1.24E-02
 TTTTTTTTTTTTTTTTTTTTTTTTTTTTTT DIIS        TELAPSE      155.33 TCPU     3944.72
 DIIS TEST: 0.74673E-02 AT SCF   CYCLE   4 - DIIS ACTIVE - HISTORY:     4 CYCLES
 TTTTTTTTTTTTTTTTTTTTTTTTTTTTTT FDIK        TELAPSE      157.34 TCPU     4008.77
 INSULATING STATE
 TOP OF VALENCE BANDS -    BAND    198; K    1; EIG -2.3048256E-01 AU
 BOTTOM OF VIRTUAL BANDS - BAND    199; K    1; EIG -9.7809967E-02 AU
 DIRECT ENERGY BAND GAP:   3.6102 eV
 TTTTTTTTTTTTTTTTTTTTTTTTTTTTTT PDIG        TELAPSE      159.02 TCPU     4015.74
 CHARGE NORMALIZATION FACTOR   1.00000000
 TOTAL ATOMIC CHARGES:
   4.4983672   4.4983672   4.4982428   4.4982428   4.4983508   4.4983508
   4.4977249   4.4977248   4.4975700   4.4975700   4.4976746   4.4976746
   0.8795516   0.8795516   0.8797487   0.8797487   0.8795072   0.8795071
   0.8796943   0.8796943   0.8795087   0.8795087   0.8797859   0.8797859
   0.8795243   0.8795243   0.8797255   0.8797254   0.8795041   0.8795041
   0.8797591   0.8797590   0.8795235   0.8795235   0.8797220   0.8797220
   5.9230177   5.9230177   6.1651360   6.1651360   6.1635964   6.1635963
   6.1650576   6.1650578   6.1635388   6.1635389   5.9194518   5.9194519
   5.9232027   5.9232027   6.1650691   6.1650692   6.1635577   6.1635577
   6.1651809   6.1651809   6.1634561   6.1634560   5.9192415   5.9192416
   5.9233210   5.9233210   6.1649934   6.1649936   6.1636264   6.1636265
   6.1651343   6.1651342   6.1635289   6.1635289   5.9191828   5.9191827
   8.4927818   8.4927818   8.4929758   8.4929758   8.4929385   8.4929385
   8.4927270   8.4927270   8.4928403   8.4928403   8.4929584   8.4929584
 TTTTTTTTTTTTTTTTTTTTTTTTTTTTTT MOQGAD      TELAPSE      159.13 TCPU     4015.85
 TTTTTTTTTTTTTTTTTTTTTTTTTTTTTT SHELLXN     TELAPSE      179.50 TCPU     4665.33
 TTTTTTTTTTTTTTTTTTTTTTTTTTTTTT MONMO3      TELAPSE      180.13 TCPU     4685.54
 NUMERICALLY INTEGRATED DENSITY    395.9999234593
 TTTTTTTTTTTTTTTTTTTTTTTTTTTTTT NUMDFT      TELAPSE      181.74 TCPU     4737.02
 CYC   5 ETOT(AU) -2.578212625170E+03 DETOT -1.62E-03 tst  6.82E-06 PX  7.50E-03
 TTTTTTTTTTTTTTTTTTTTTTTTTTTTTT DIIS        TELAPSE      181.97 TCPU     4743.87
 DIIS TEST: 0.30424E-03 AT SCF   CYCLE   5 - DIIS ACTIVE - HISTORY:     5 CYCLES
 TTTTTTTTTTTTTTTTTTTTTTTTTTTTTT FDIK        TELAPSE      183.98 TCPU     4807.64
 INSULATING STATE
 TOP OF VALENCE BANDS -    BAND    198; K    1; EIG -2.3021936E-01 AU
 BOTTOM OF VIRTUAL BANDS - BAND    199; K    1; EIG -9.7252545E-02 AU
 DIRECT ENERGY BAND GAP:   3.6182 eV
 TTTTTTTTTTTTTTTTTTTTTTTTTTTTTT PDIG        TELAPSE      185.65 TCPU     4814.60
 CHARGE NORMALIZATION FACTOR   1.00000000
 TOTAL ATOMIC CHARGES:
   4.4972096   4.4972096   4.4971098   4.4971099   4.4972035   4.4972035
   4.4979950   4.4979948   4.4978497   4.4978497   4.4979686   4.4979686
   0.8806749   0.8806749   0.8806469   0.8806469   0.8806385   0.8806385
   0.8805844   0.8805844   0.8806578   0.8806578   0.8806585   0.8806585
   0.8806787   0.8806787   0.8805943   0.8805943   0.8806447   0.8806447
   0.8806412   0.8806412   0.8806684   0.8806684   0.8806012   0.8806011
   5.9188059   5.9188059   6.1618933   6.1618933   6.1645528   6.1645527
   6.1617986   6.1617987   6.1645165   6.1645166   5.9265667   5.9265667
   5.9185910   5.9185911   6.1617118   6.1617118   6.1646283   6.1646283
   6.1616791   6.1616790   6.1646678   6.1646678   5.9267615   5.9267616
   5.9188481   5.9188481   6.1617049   6.1617050   6.1646295   6.1646296
   6.1616788   6.1616787   6.1646925   6.1646925   5.9265638   5.9265638
   8.4917727   8.4917727   8.4920588   8.4920588   8.4920336   8.4920335
   8.4921240   8.4921240   8.4922309   8.4922309   8.4924632   8.4924632
 TTTTTTTTTTTTTTTTTTTTTTTTTTTTTT MOQGAD      TELAPSE      185.76 TCPU     4814.70
 TTTTTTTTTTTTTTTTTTTTTTTTTTTTTT SHELLXN     TELAPSE      206.13 TCPU     5464.23
 TTTTTTTTTTTTTTTTTTTTTTTTTTTTTT MONMO3      TELAPSE      206.76 TCPU     5484.39
 NUMERICALLY INTEGRATED DENSITY    395.9999233361
 TTTTTTTTTTTTTTTTTTTTTTTTTTTTTT NUMDFT      TELAPSE      208.37 TCPU     5535.86
 CYC   6 ETOT(AU) -2.578212604312E+03 DETOT  2.09E-05 tst  2.16E-06 PX  1.73E-03
 TTTTTTTTTTTTTTTTTTTTTTTTTTTTTT DIIS        TELAPSE      208.62 TCPU     5542.65
 DIIS TEST: 0.36510E-03 AT SCF   CYCLE   6 - DIIS ACTIVE - HISTORY:     6 CYCLES
 TTTTTTTTTTTTTTTTTTTTTTTTTTTTTT FDIK        TELAPSE      210.63 TCPU     5606.57
 INSULATING STATE
 TOP OF VALENCE BANDS -    BAND    198; K    1; EIG -2.3022322E-01 AU
 BOTTOM OF VIRTUAL BANDS - BAND    199; K    1; EIG -9.7273908E-02 AU
 DIRECT ENERGY BAND GAP:   3.6177 eV
 TTTTTTTTTTTTTTTTTTTTTTTTTTTTTT PDIG        TELAPSE      212.32 TCPU     5613.55
 CHARGE NORMALIZATION FACTOR   1.00000000
 TOTAL ATOMIC CHARGES:
   4.4978222   4.4978221   4.4977098   4.4977098   4.4978113   4.4978113
   4.4976205   4.4976204   4.4974689   4.4974690   4.4975819   4.4975819
   0.8805942   0.8805942   0.8807258   0.8807258   0.8805549   0.8805549
   0.8806658   0.8806658   0.8805671   0.8805671   0.8807474   0.8807474
   0.8805832   0.8805832   0.8806874   0.8806874   0.8805580   0.8805580
   0.8807252   0.8807252   0.8805768   0.8805768   0.8806896   0.8806896
   5.9230743   5.9230742   6.1631863   6.1631863   6.1629207   6.1629206
   6.1630928   6.1630930   6.1628843   6.1628844   5.9230336   5.9230337
   5.9230592   5.9230592   6.1630456   6.1630457   6.1629538   6.1629538
   6.1631126   6.1631125   6.1628985   6.1628985   5.9230290   5.9230290
   5.9232507   5.9232507   6.1630044   6.1630046   6.1629904   6.1629905
   6.1630941   6.1630940   6.1629428   6.1629427   5.9228956   5.9228955
   8.4918001   8.4918001   8.4920360   8.4920359   8.4920016   8.4920015
   8.4918677   8.4918677   8.4919827   8.4919828   8.4921534   8.4921534
 TTTTTTTTTTTTTTTTTTTTTTTTTTTTTT MOQGAD      TELAPSE      212.42 TCPU     5613.65
 TTTTTTTTTTTTTTTTTTTTTTTTTTTTTT SHELLXN     TELAPSE      232.79 TCPU     6263.12
 TTTTTTTTTTTTTTTTTTTTTTTTTTTTTT MONMO3      TELAPSE      233.43 TCPU     6283.29
 NUMERICALLY INTEGRATED DENSITY    395.9999233211
 TTTTTTTTTTTTTTTTTTTTTTTTTTTTTT NUMDFT      TELAPSE      235.04 TCPU     6334.85
 CYC   7 ETOT(AU) -2.578212698036E+03 DETOT -9.37E-05 tst  1.00E-06 PX  1.09E-03
 TTTTTTTTTTTTTTTTTTTTTTTTTTTTTT DIIS        TELAPSE      235.32 TCPU     6341.74
 DIIS TEST: 0.52247E-05 AT SCF   CYCLE   7 - DIIS ACTIVE - HISTORY:     7 CYCLES
 TTTTTTTTTTTTTTTTTTTTTTTTTTTTTT FDIK        TELAPSE      237.32 TCPU     6405.54
 INSULATING STATE
 TOP OF VALENCE BANDS -    BAND    198; K    1; EIG -2.3024309E-01 AU
 BOTTOM OF VIRTUAL BANDS - BAND    199; K    1; EIG -9.7349665E-02 AU
 DIRECT ENERGY BAND GAP:   3.6162 eV
 TTTTTTTTTTTTTTTTTTTTTTTTTTTTTT PDIG        TELAPSE      238.99 TCPU     6412.50
 CHARGE NORMALIZATION FACTOR   1.00000000
 TOTAL ATOMIC CHARGES:
   4.4979792   4.4979791   4.4978625   4.4978625   4.4979661   4.4979661
   4.4978678   4.4978677   4.4977152   4.4977152   4.4978250   4.4978250
   0.8805175   0.8805175   0.8806281   0.8806280   0.8804759   0.8804759
   0.8805705   0.8805705   0.8804835   0.8804835   0.8806564   0.8806564
   0.8805013   0.8805013   0.8805946   0.8805946   0.8804761   0.8804761
   0.8806327   0.8806327   0.8804972   0.8804972   0.8805946   0.8805946
   5.9225301   5.9225301   6.1630789   6.1630789   6.1631114   6.1631113
   6.1629956   6.1629958   6.1630634   6.1630635   5.9232221   5.9232221
   5.9225794   5.9225794   6.1629723   6.1629724   6.1631113   6.1631112
   6.1630383   6.1630382   6.1630553   6.1630553   5.9231531   5.9231531
   5.9227444   5.9227444   6.1629219   6.1629220   6.1631564   6.1631565
   6.1630093   6.1630092   6.1631107   6.1631107   5.9230456   5.9230455
   8.4918633   8.4918633   8.4920905   8.4920905   8.4920562   8.4920562
   8.4919539   8.4919539   8.4920672   8.4920672   8.4922254   8.4922253
 TTTTTTTTTTTTTTTTTTTTTTTTTTTTTT MOQGAD      TELAPSE      239.09 TCPU     6412.60
 TTTTTTTTTTTTTTTTTTTTTTTTTTTTTT SHELLXN     TELAPSE      259.46 TCPU     7062.03
 TTTTTTTTTTTTTTTTTTTTTTTTTTTTTT MONMO3      TELAPSE      260.09 TCPU     7082.16
 NUMERICALLY INTEGRATED DENSITY    395.9999233279
 TTTTTTTTTTTTTTTTTTTTTTTTTTTTTT NUMDFT      TELAPSE      261.71 TCPU     7133.72
 CYC   8 ETOT(AU) -2.578212699041E+03 DETOT -1.00E-06 tst  7.61E-09 PX  1.40E-04
 TTTTTTTTTTTTTTTTTTTTTTTTTTTTTT DIIS        TELAPSE      262.00 TCPU     7140.50
 DIIS TEST: 0.75753E-07 AT SCF   CYCLE   8 - DIIS ACTIVE - HISTORY:     8 CYCLES
 TTTTTTTTTTTTTTTTTTTTTTTTTTTTTT FDIK        TELAPSE      264.02 TCPU     7204.80
 INSULATING STATE
 TOP OF VALENCE BANDS -    BAND    198; K    1; EIG -2.3025278E-01 AU
 BOTTOM OF VIRTUAL BANDS - BAND    199; K    1; EIG -9.7339761E-02 AU
 DIRECT ENERGY BAND GAP:   3.6167 eV
 TTTTTTTTTTTTTTTTTTTTTTTTTTTTTT PDIG        TELAPSE      265.71 TCPU     7211.76
 CHARGE NORMALIZATION FACTOR   1.00000000
 TOTAL ATOMIC CHARGES:
   4.4979399   4.4979398   4.4978313   4.4978314   4.4979305   4.4979305
   4.4978243   4.4978242   4.4976751   4.4976751   4.4977891   4.4977891
   0.8804996   0.8804996   0.8806207   0.8806207   0.8804609   0.8804609
   0.8805603   0.8805602   0.8804748   0.8804748   0.8806400   0.8806400
   0.8804916   0.8804916   0.8805793   0.8805793   0.8804647   0.8804647
   0.8806190   0.8806189   0.8804842   0.8804842   0.8805826   0.8805825
   5.9225773   5.9225773   6.1631646   6.1631646   6.1631255   6.1631254
   6.1630706   6.1630707   6.1630893   6.1630894   5.9231373   5.9231373
   5.9225185   5.9225185   6.1630142   6.1630143   6.1631685   6.1631684
   6.1630600   6.1630600   6.1631341   6.1631341   5.9231763   5.9231764
   5.9227235   5.9227235   6.1629809   6.1629810   6.1631969   6.1631970
   6.1630463   6.1630463   6.1631735   6.1631735   5.9230294   5.9230294
   8.4918325   8.4918325   8.4920785   8.4920785   8.4920467   8.4920466
   8.4919265   8.4919265   8.4920389   8.4920390   8.4922224   8.4922224
 TTTTTTTTTTTTTTTTTTTTTTTTTTTTTT MOQGAD      TELAPSE      265.81 TCPU     7211.86
 TTTTTTTTTTTTTTTTTTTTTTTTTTTTTT SHELLXN     TELAPSE      286.17 TCPU     7861.04
 TTTTTTTTTTTTTTTTTTTTTTTTTTTTTT MONMO3      TELAPSE      286.80 TCPU     7881.16
 NUMERICALLY INTEGRATED DENSITY    395.9999233253
 TTTTTTTTTTTTTTTTTTTTTTTTTTTTTT NUMDFT      TELAPSE      288.42 TCPU     7932.77
 CYC   9 ETOT(AU) -2.578212699165E+03 DETOT -1.25E-07 tst  2.98E-10 PX  2.45E-05
 TTTTTTTTTTTTTTTTTTTTTTTTTTTTTT DIIS        TELAPSE      288.74 TCPU     7939.72
 DIIS TEST: 0.43617E-07 AT SCF   CYCLE   9 - DIIS ACTIVE - HISTORY:     9 CYCLES
 TTTTTTTTTTTTTTTTTTTTTTTTTTTTTT FDIK        TELAPSE      290.75 TCPU     8003.59
 INSULATING STATE
 TOP OF VALENCE BANDS -    BAND    198; K    1; EIG -2.3024771E-01 AU
 BOTTOM OF VIRTUAL BANDS - BAND    199; K    1; EIG -9.7340451E-02 AU
 DIRECT ENERGY BAND GAP:   3.6166 eV
 TTTTTTTTTTTTTTTTTTTTTTTTTTTTTT PDIG        TELAPSE      292.42 TCPU     8010.55
 CHARGE NORMALIZATION FACTOR   1.00000000
 TOTAL ATOMIC CHARGES:
   4.4979385   4.4979385   4.4978239   4.4978239   4.4979265   4.4979265
   4.4978233   4.4978232   4.4976711   4.4976712   4.4977823   4.4977823
   0.8805100   0.8805100   0.8806239   0.8806239   0.8804694   0.8804694
   0.8805653   0.8805653   0.8804792   0.8804792   0.8806491   0.8806491
   0.8804959   0.8804959   0.8805884   0.8805884   0.8804710   0.8804710
   0.8806262   0.8806261   0.8804907   0.8804908   0.8805895   0.8805895
   5.9225604   5.9225603   6.1631165   6.1631164   6.1631245   6.1631245
   6.1630280   6.1630281   6.1630823   6.1630824   5.9232120   5.9232120
   5.9225829   5.9225829   6.1629939   6.1629939   6.1631401   6.1631401
   6.1630629   6.1630628   6.1630817   6.1630817   5.9231696   5.9231696
   5.9227595   5.9227595   6.1629470   6.1629471   6.1631819   6.1631820
   6.1630385   6.1630384   6.1631321   6.1631321   5.9230509   5.9230508
   8.4918545   8.4918545   8.4920847   8.4920847   8.4920501   8.4920500
   8.4919435   8.4919435   8.4920579   8.4920579   8.4922205   8.4922205
 TTTTTTTTTTTTTTTTTTTTTTTTTTTTTT MOQGAD      TELAPSE      292.52 TCPU     8010.65
 TTTTTTTTTTTTTTTTTTTTTTTTTTTTTT SHELLXN     TELAPSE      312.89 TCPU     8659.90
 +++ ENERGIES IN A.U. +++
 ::: EXT EL-POLE                                  -2.5354164115850E+03
 ::: EXT EL-SPHEROPOLE                             2.9336909470078E+01
 ::: BIELET ZONE E-E                               4.4033378785236E+03
 ::: TOTAL E-E                                     1.8972583764087E+03
 ::: TOTAL E-N + N-E                              -7.4514668851150E+03
 ::: TOTAL N-N                                     6.8355441563573E+02
 ::: KINETIC ENERGY                                2.5598678735338E+03
 ::: PSEUDO TOTAL   ENERGY                        -2.3107862195368E+03
 ::: VIRIAL COEFFICIENT                            1.0511392616346E+00
 TTTTTTTTTTTTTTTTTTTTTTTTTTTTTT MONMO3      TELAPSE      313.52 TCPU     8680.09
 NUMERICALLY INTEGRATED DENSITY    395.9999233261
 EXCHANGE ENERGY: -0.252042048681E+03  CORRELATION ENERGY: -0.153844309211E+02
 TTTTTTTTTTTTTTTTTTTTTTTTTTTTTT NUMDFT      TELAPSE      315.13 TCPU     8731.57
 CYC  10 ETOT(AU) -2.578212699139E+03 DETOT  2.60E-08 tst  6.77E-11 PX  2.45E-05

 == SCF ENDED - CONVERGENCE ON ENERGY      E(AU) -2.5782126991392E+03 CYCLES  10


 ENERGY EXPRESSION=HARTREE+FOCK EXCH*0.00000+(HSESOL     EXCH)*1.00000+PBESOL     CORR


 TOTAL ENERGY(DFT)(AU)( 10) -2.5782126991392E+03 DE 2.6E-08 tester 6.8E-11
 TTTTTTTTTTTTTTTTTTTTTTTTTTTTTT EDFT        TELAPSE      315.13 TCPU     8731.58
 
 INFORMATION **** DFTD3 ENERGY **** CALCULATE DFTD3 ENERGY

           DFT-D V3(BJ)
 DF                                         hsesol3c  
 parameters
 s6       :    1.0000
 s8       :    0.0000
 a1       :    0.5196
 a2       :    4.9385
 k1 k3    :   16.0000   -4.0000
 Cutoff   :   50.2022
 CN-Cutoff:   21.1671
 ABC-Cutoff:   21.1671
 
 Edisp /kcal,au:   -54.0422 -0.08612165

 E6    /kcal :   -57.7339
 E8    /kcal :     0.0000
 E6(ABC) "   :   3.691754
 
 INFORMATION **** DFTD3 ENERGY **** NORMAL TERMINATION OF DFTD3 MODULE

 GCP ENERGY CALCULATION
  level        hsesol3c            basis:hsesol3c
  Nbf            948
  Atoms           84

  Parameters: 
  sigma     1.0000
  eta       1.4281
  alpha     0.2936
  beta      1.9467

  dmp_scal      4.0000
  dmp_exp       6.0000
 cutoffs: 
   distance [bohr] 60.0
   noise    [a.u.] 2.2E-16
 SR-damping   T
 ** gCP correction **
  Egcp:        0.1660952565 / (a.u.) ||     104.2264 / (kcal/mol)
 INFORMATION **** GCP **** NORMAL TERMINATION OF GCP MODULE

 *******************************************************************************

 DFT-D3-GCP DISPERSION AND COUNTERPOISE CORRECTION

 D3 DISPERSION ENERGY (AU)      -8.6121645103918E-02
 GCP ENERGY (AU)                 1.6609525645483E-01
 TOTAL ENERGY + DISP + GCP (AU) -2.5781327255278E+03

 *******************************************************************************

 EIGENVECTORS IN FORTRAN UNIT  8
 TTTTTTTTTTTTTTTTTTTTTTTTTTTTTT END         TELAPSE      318.18 TCPU     8740.48
 EEEEEEEEEE TERMINATION  DATE 19 02 2026 TIME 20:25:31.0
