 Default number of threads is:           32

         
 *******************************************************************************
 *                                                                             *
 *                               CRYSTAL23                                     *
 *                      public : 1.0.1 - October 2022                          *
 *                       HTTP://WWW.CRYSTAL.UNITO.IT                           *
 *                                                                             *
 *                              MAIN AUTHORS                                   *
 *                                                                             *
 *  R. DOVESI(1,11), V.R. SAUNDERS(2), C. ROETTI(1,11), R. ORLANDO(1,11),      *
 *  C.M. ZICOVICH-WILSON(1,3), F. PASCALE(4), B. CIVALLERI(1,11),              *
 *  K. DOLL(5), N.M. HARRISON(6), I.J. BUSH(7), Ph. D'ARCO(8),                 *
 *  M. LLUNELL(9), M. CAUSA'(10), Y. NOEL(8), L. MASCHIO(1,11), A. ERBA(1,11)  *
 *  M. RE'RAT(14), S. CASASSA(1,11), B.G. SEARLE(2), J.K. DESMARAIS(1)         *
 *                                                                             *
 *        CONTRIBUTIONS TO THE CODE HAVE ALSO BEEN GIVEN BY                    *
 *                                                                             *
 *  M. FERRABONE(1,11), M. DE LA PIERRE(1,11), M. FERRERO(1,11),               *
 *  J. BAIMA(1,11), E. ALBANESE(1,11), M.F. PEINTINGER(12), R. BAST(13),       *
 *  B. KIRTMAN(15), V. LACIVITA(1,11), R. DEMICHELIS(1,16)                     *
 *  G. BRANDEBURG(17), S. SALUSTRO(1,11), G. SANSONE(1,11)                     *
 *  M.T. RUGGIERO(18), L.E. DAGA(1), L. DONA'(1), A. COSSARD(1)                *
 *                                                                             *
 * (1) THEORETICAL CHEMISTRY GROUP - UNIVERSITA' DI TORINO - TORINO (ITALY)    *
 * (2) SCIENTIFIC COMPUTING DEPARTMENT - STFC DARESBURY (UK)                   *
 * (3) UNIVERSIDAD AUTONOMA DEL ESTADO DE MORELOS - CUERNAVACA (MEXICO)        *
 * (4) UNIVERSITE' DE LORRAINE - NANCY (FRANCE)                                *
 * (5) UNIVERSITAET STUTTGART- STUTTGART (GERMANY)                             *
 * (6) IMPERIAL COLLEGE - LONDON (UK)                                          *
 * (7) SCIENTIFIC COMPUTING DEPARTMENT - STFC RAL (UK)                         *
 * (8) UPMC - SORBONNE UNIVERSITES - PARIS (FRANCE)                            *
 * (9) UNIVERSIDAD DE BARCELONA - BARCELONA (SPAIN)                            *
 *(10) UNIVERSITA' DI NAPOLI "FEDERICO II" - NAPOLI (ITALY)                    *
 *(11) NIS - NANOSTRUCTURED INTERFACES AND SURFACES - TORINO (ITALY)           *
 *(12) MPI FUER CHEMISCHE ENERGIEKONVERSION - MUELHEIM AN DER RUHR (GERMANY)   *
 *(13) UNIVERSITY OF TROMSO - TROMSO (NORWAY)                                  *
 *(14) UNIVERSITE' DE PAU ET DES PAYS DE L'ADOUR - PAU (FRANCE)                *
 *(15) UNIVERSITY OF CALIFORNIA SANTA BARBARA - SANTA BARBARA (USA)            *
 *(16) CURTIN UNIVERSITY - PERTH (AUSTRALIA)                                   *
 *(17) UNIVERSITY COLLEGE LONDON - LONDON (UK)                                 *
 *(18) UNIVERSITY OF VERMONT - BURLINGTON (USA)                                *
 *                                                                             *
 *******************************************************************************
 EEEEEEEEEE STARTING  DATE 19 02 2026 TIME 20:30:03.8
 cof-1_z45_L010_serr                                                             

 CRYSTAL CALCULATION
 (INPUT ACCORDING TO THE INTERNATIONAL TABLES FOR X-RAY CRYSTALLOGRAPHY)
 CRYSTAL FAMILY                       :  TRICLINIC   
 CRYSTAL CLASS  (GROTH - 1921)        :  TRICLINIC PEDIAL                     

 SPACE GROUP (NONCENTROSYMMETRIC)     :  P 1             

 LATTICE PARAMETERS  (ANGSTROMS AND DEGREES) - CONVENTIONAL CELL
        A           B           C        ALPHA        BETA       GAMMA
    15.02361    15.02392     9.00000    90.00032    89.99994   119.99596


 NUMBER OF IRREDUCIBLE ATOMS IN THE CONVENTIONAL CELL:   84

 INPUT COORDINATES

 ATOM AT. N.              COORDINATES
   1   5     6.136805400000E-01  2.273182200000E-01  2.505307500000E-01
   2   5     6.521038200000E-01  3.041725900000E-01  7.505307500000E-01
   3   5     7.727362000000E-01  3.863778800000E-01  2.505307500000E-01
   4   5     8.111594800000E-01  4.632322500000E-01  7.505307500000E-01
   5   5     6.136762700000E-01  3.863606700000E-01  2.494148400000E-01
   6   5     6.520995500000E-01  4.632150400000E-01  7.494148400000E-01
   7   5     2.272552500000E-01  6.136332200000E-01  2.505307500000E-01
   8   5     2.656785300000E-01  6.904875900000E-01  7.505307500000E-01
   9   5     3.863632200000E-01  6.136124500000E-01  2.505307500000E-01
  10   5     4.247865000000E-01  6.904668200000E-01  7.505307500000E-01
  11   5     3.863435000000E-01  7.727516500000E-01  2.494148400000E-01
  12   5     4.247667800000E-01  8.496060200000E-01  7.494148400000E-01
  13   1     9.030436200000E-01  3.089300500000E-01  2.482172400000E-01
  14   1     9.414669000000E-01  3.857844200000E-01  7.482172400000E-01
  15   1     9.663453000000E-02  6.910534400000E-01  2.478634700000E-01
  16   1     1.350578100000E-01  7.679078100000E-01  7.478634700000E-01
  17   1     9.029714200000E-01  5.940724300000E-01  2.478090200000E-01
  18   1     9.413947000000E-01  6.709268000000E-01  7.478090200000E-01
  19   1     9.673618000000E-02  4.056849400000E-01  2.478226000000E-01
  20   1     1.351594600000E-01  4.825393100000E-01  7.478226000000E-01
  21   1     6.910324000000E-01  9.700412000000E-02  2.517827700000E-01
  22   1     7.294556800000E-01  1.738584900000E-01  7.517827700000E-01
  23   1     3.089297200000E-01  9.034373100000E-01  2.521365600000E-01
  24   1     3.473530000000E-01  9.802916800000E-01  7.521365600000E-01
  25   1     4.058699900000E-01  9.704998000000E-02  2.521910500000E-01
  26   1     4.442932700000E-01  1.739043500000E-01  7.521910500000E-01
  27   1     5.943122100000E-01  9.033473200000E-01  2.521773700000E-01
  28   1     6.327354900000E-01  9.802016900000E-01  7.521773700000E-01
  29   1     6.910727400000E-01  5.940542100000E-01  2.482172600000E-01
  30   1     7.294960200000E-01  6.709085800000E-01  7.482172600000E-01
  31   1     3.089618300000E-01  4.056093300000E-01  2.478634500000E-01
  32   1     3.473851100000E-01  4.824637000000E-01  7.478634500000E-01
  33   1     4.058405700000E-01  3.088232500000E-01  2.478089800000E-01
  34   1     4.442638500000E-01  3.856776200000E-01  7.478089800000E-01
  35   1     5.942908800000E-01  6.909579300000E-01  2.478226500000E-01
  36   1     6.327141600000E-01  7.678123000000E-01  7.478226500000E-01
  37   6     8.918903100000E-01  4.459436900000E-01  2.493740100000E-01
  38   6     9.303135900000E-01  5.227980600000E-01  7.493740100000E-01
  39   6     9.464891100000E-01  3.927856300000E-01  2.482716900000E-01
  40   6     9.849123900000E-01  4.696400000000E-01  7.482716900000E-01
  41   6     5.338812000000E-02  6.071853000000E-01  2.481764600000E-01
  42   6     9.181140000000E-02  6.840396700000E-01  7.481764600000E-01
  43   6     9.464521100000E-01  5.536921900000E-01  2.484622400000E-01
  44   6     9.848753900000E-01  6.305465600000E-01  7.484622500000E-01
  45   6     5.342634000000E-02  4.462499700000E-01  2.477273400000E-01
  46   6     9.184962000000E-02  5.231043400000E-01  7.477273500000E-01
  47   6     1.080358900000E-01  5.540356300000E-01  2.484758400000E-01
  48   6     1.464591700000E-01  6.308900000000E-01  7.484758400000E-01
  49   6     5.540394200000E-01  1.081684600000E-01  2.506260200000E-01
  50   6     5.924627000000E-01  1.850228300000E-01  7.506260200000E-01
  51   6     6.071778500000E-01  5.355594000000E-02  2.517283200000E-01
  52   6     6.456011300000E-01  1.304103100000E-01  7.517283200000E-01
  53   6     3.927986700000E-01  9.466631600000E-01  2.518235800000E-01
  54   6     4.312219500000E-01  2.351753000000E-02  7.518235800000E-01
  55   6     4.462875800000E-01  5.360286000000E-02  2.515378100000E-01
  56   6     4.847108600000E-01  1.304572300000E-01  7.515378100000E-01
  57   6     5.537168500000E-01  9.466235600000E-01  2.522726500000E-01
  58   6     5.921401300000E-01  2.347793000000E-02  7.522726500000E-01
  59   6     4.459279100000E-01  8.919920600000E-01  2.515241800000E-01
  60   6     4.843511900000E-01  9.688464300000E-01  7.515241800000E-01
  61   6     5.540448700000E-01  4.458745500000E-01  2.493740100000E-01
  62   6     5.924681500000E-01  5.227289200000E-01  7.493740100000E-01
  63   6     6.072102200000E-01  5.536257800000E-01  2.482717100000E-01
  64   6     6.456335000000E-01  6.304801500000E-01  7.482717100000E-01
  65   6     3.928233700000E-01  4.461720300000E-01  2.481764400000E-01
  66   6     4.312466500000E-01  5.230264000000E-01  7.481764400000E-01
  67   6     4.462872600000E-01  3.926899900000E-01  2.484622100000E-01
  68   6     4.847105400000E-01  4.695443600000E-01  7.484622100000E-01
  69   6     5.537429600000E-01  6.070980000000E-01  2.477273700000E-01
  70   6     5.921662400000E-01  6.839523700000E-01  7.477273700000E-01
  71   6     4.459599800000E-01  5.539582300000E-01  2.484758400000E-01
  72   6     4.843832600000E-01  6.308126000000E-01  7.484758400000E-01
  73   8     5.607366800000E-01  2.803706300000E-01  2.497142300000E-01
  74   8     5.991599600000E-01  3.572250000000E-01  7.497142300000E-01
  75   8     7.196817000000E-01  2.803783300000E-01  2.520685300000E-01
  76   8     7.581049800000E-01  3.572327000000E-01  7.520685300000E-01
  77   8     7.196794200000E-01  4.393234600000E-01  2.485166700000E-01
  78   8     7.581027000000E-01  5.161778300000E-01  7.485166700000E-01
  79   8     2.803245100000E-01  7.196511100000E-01  2.497142400000E-01
  80   8     3.187477900000E-01  7.965054800000E-01  7.497142400000E-01
  81   8     2.803439700000E-01  5.606956100000E-01  2.520685200000E-01
  82   8     3.187672500000E-01  6.375499800000E-01  7.520685200000E-01
  83   8     4.392638400000E-01  7.196354200000E-01  2.485166600000E-01
  84   8     4.776871200000E-01  7.964897900000E-01  7.485166700000E-01

 *******************************************************************************

 << INFORMATION >>: FROM NOW ON, ALL COORDINATES REFER TO THE PRIMITIVE CELL

 *******************************************************************************

 LATTICE PARAMETERS  (ANGSTROMS AND DEGREES) - PRIMITIVE CELL
       A          B          C        ALPHA      BETA     GAMMA        VOLUME
   15.02361   15.02392    9.00000    90.00032  89.99994 119.99596   1759.333932

 COORDINATES OF THE EQUIVALENT ATOMS (FRACTIONAL UNITS)

 N. ATOM EQUIV AT. N.          X                  Y                  Z

   1   1   1    5 B    -3.86319460000E-01  2.27318220000E-01  2.50530750000E-01

   2   2   1    5 B    -3.47896180000E-01  3.04172590000E-01 -2.49469250000E-01

   3   3   1    5 B    -2.27263800000E-01  3.86377880000E-01  2.50530750000E-01

   4   4   1    5 B    -1.88840520000E-01  4.63232250000E-01 -2.49469250000E-01

   5   5   1    5 B    -3.86323730000E-01  3.86360670000E-01  2.49414840000E-01

   6   6   1    5 B    -3.47900450000E-01  4.63215040000E-01 -2.50585160000E-01

   7   7   1    5 B     2.27255250000E-01 -3.86366780000E-01  2.50530750000E-01

   8   8   1    5 B     2.65678530000E-01 -3.09512410000E-01 -2.49469250000E-01

   9   9   1    5 B     3.86363220000E-01 -3.86387550000E-01  2.50530750000E-01

  10  10   1    5 B     4.24786500000E-01 -3.09533180000E-01 -2.49469250000E-01

  11  11   1    5 B     3.86343500000E-01 -2.27248350000E-01  2.49414840000E-01

  12  12   1    5 B     4.24766780000E-01 -1.50393980000E-01 -2.50585160000E-01

  13  13   1    1 H    -9.69563800000E-02  3.08930050000E-01  2.48217240000E-01

  14  14   1    1 H    -5.85331000000E-02  3.85784420000E-01 -2.51782760000E-01

  15  15   1    1 H     9.66345300000E-02 -3.08946560000E-01  2.47863470000E-01

  16  16   1    1 H     1.35057810000E-01 -2.32092190000E-01 -2.52136530000E-01

  17  17   1    1 H    -9.70285800000E-02 -4.05927570000E-01  2.47809020000E-01

  18  18   1    1 H    -5.86053000000E-02 -3.29073200000E-01 -2.52190980000E-01

  19  19   1    1 H     9.67361800000E-02  4.05684940000E-01  2.47822600000E-01

  20  20   1    1 H     1.35159460000E-01  4.82539310000E-01 -2.52177400000E-01

  21  21   1    1 H    -3.08967600000E-01  9.70041200000E-02  2.51782770000E-01

  22  22   1    1 H    -2.70544320000E-01  1.73858490000E-01 -2.48217230000E-01

  23  23   1    1 H     3.08929720000E-01 -9.65626900000E-02  2.52136560000E-01

  24  24   1    1 H     3.47353000000E-01 -1.97083200000E-02 -2.47863440000E-01

  25  25   1    1 H     4.05869990000E-01  9.70499800000E-02  2.52191050000E-01

  26  26   1    1 H     4.44293270000E-01  1.73904350000E-01 -2.47808950000E-01

  27  27   1    1 H    -4.05687790000E-01 -9.66526800000E-02  2.52177370000E-01

  28  28   1    1 H    -3.67264510000E-01 -1.97983100000E-02 -2.47822630000E-01

  29  29   1    1 H    -3.08927260000E-01 -4.05945790000E-01  2.48217260000E-01

  30  30   1    1 H    -2.70503980000E-01 -3.29091420000E-01 -2.51782740000E-01

  31  31   1    1 H     3.08961830000E-01  4.05609330000E-01  2.47863450000E-01

  32  32   1    1 H     3.47385110000E-01  4.82463700000E-01 -2.52136550000E-01

  33  33   1    1 H     4.05840570000E-01  3.08823250000E-01  2.47808980000E-01

  34  34   1    1 H     4.44263850000E-01  3.85677620000E-01 -2.52191020000E-01

  35  35   1    1 H    -4.05709120000E-01 -3.09042070000E-01  2.47822650000E-01

  36  36   1    1 H    -3.67285840000E-01 -2.32187700000E-01 -2.52177350000E-01

  37  37   1    6 C    -1.08109690000E-01  4.45943690000E-01  2.49374010000E-01

  38  38   1    6 C    -6.96864100000E-02 -4.77201940000E-01 -2.50625990000E-01

  39  39   1    6 C    -5.35108900000E-02  3.92785630000E-01  2.48271690000E-01

  40  40   1    6 C    -1.50876100000E-02  4.69640000000E-01 -2.51728310000E-01

  41  41   1    6 C     5.33881200000E-02 -3.92814700000E-01  2.48176460000E-01

  42  42   1    6 C     9.18114000000E-02 -3.15960330000E-01 -2.51823540000E-01

  43  43   1    6 C    -5.35478900000E-02 -4.46307810000E-01  2.48462240000E-01

  44  44   1    6 C    -1.51246100000E-02 -3.69453440000E-01 -2.51537750000E-01

  45  45   1    6 C     5.34263400000E-02  4.46249970000E-01  2.47727340000E-01

  46  46   1    6 C     9.18496200000E-02 -4.76895660000E-01 -2.52272650000E-01

  47  47   1    6 C     1.08035890000E-01 -4.45964370000E-01  2.48475840000E-01

  48  48   1    6 C     1.46459170000E-01 -3.69110000000E-01 -2.51524160000E-01

  49  49   1    6 C    -4.45960580000E-01  1.08168460000E-01  2.50626020000E-01

  50  50   1    6 C    -4.07537300000E-01  1.85022830000E-01 -2.49373980000E-01

  51  51   1    6 C    -3.92822150000E-01  5.35559400000E-02  2.51728320000E-01

  52  52   1    6 C    -3.54398870000E-01  1.30410310000E-01 -2.48271680000E-01

  53  53   1    6 C     3.92798670000E-01 -5.33368400000E-02  2.51823580000E-01

  54  54   1    6 C     4.31221950000E-01  2.35175300000E-02 -2.48176420000E-01

  55  55   1    6 C     4.46287580000E-01  5.36028600000E-02  2.51537810000E-01

  56  56   1    6 C     4.84710860000E-01  1.30457230000E-01 -2.48462190000E-01

  57  57   1    6 C    -4.46283150000E-01 -5.33764400000E-02  2.52272650000E-01

  58  58   1    6 C    -4.07859870000E-01  2.34779300000E-02 -2.47727350000E-01

  59  59   1    6 C     4.45927910000E-01 -1.08007940000E-01  2.51524180000E-01

  60  60   1    6 C     4.84351190000E-01 -3.11535700000E-02 -2.48475820000E-01

  61  61   1    6 C    -4.45955130000E-01  4.45874550000E-01  2.49374010000E-01

  62  62   1    6 C    -4.07531850000E-01 -4.77271080000E-01 -2.50625990000E-01

  63  63   1    6 C    -3.92789780000E-01 -4.46374220000E-01  2.48271710000E-01

  64  64   1    6 C    -3.54366500000E-01 -3.69519850000E-01 -2.51728290000E-01

  65  65   1    6 C     3.92823370000E-01  4.46172030000E-01  2.48176440000E-01

  66  66   1    6 C     4.31246650000E-01 -4.76973600000E-01 -2.51823560000E-01

  67  67   1    6 C     4.46287260000E-01  3.92689990000E-01  2.48462210000E-01

  68  68   1    6 C     4.84710540000E-01  4.69544360000E-01 -2.51537790000E-01

  69  69   1    6 C    -4.46257040000E-01 -3.92902000000E-01  2.47727370000E-01

  70  70   1    6 C    -4.07833760000E-01 -3.16047630000E-01 -2.52272630000E-01

  71  71   1    6 C     4.45959980000E-01 -4.46041770000E-01  2.48475840000E-01

  72  72   1    6 C     4.84383260000E-01 -3.69187400000E-01 -2.51524160000E-01

  73  73   1    8 O    -4.39263320000E-01  2.80370630000E-01  2.49714230000E-01

  74  74   1    8 O    -4.00840040000E-01  3.57225000000E-01 -2.50285770000E-01

  75  75   1    8 O    -2.80318300000E-01  2.80378330000E-01  2.52068530000E-01

  76  76   1    8 O    -2.41895020000E-01  3.57232700000E-01 -2.47931470000E-01

  77  77   1    8 O    -2.80320580000E-01  4.39323460000E-01  2.48516670000E-01

  78  78   1    8 O    -2.41897300000E-01 -4.83822170000E-01 -2.51483330000E-01

  79  79   1    8 O     2.80324510000E-01 -2.80348890000E-01  2.49714240000E-01

  80  80   1    8 O     3.18747790000E-01 -2.03494520000E-01 -2.50285760000E-01

  81  81   1    8 O     2.80343970000E-01 -4.39304390000E-01  2.52068520000E-01

  82  82   1    8 O     3.18767250000E-01 -3.62450020000E-01 -2.47931480000E-01

  83  83   1    8 O     4.39263840000E-01 -2.80364580000E-01  2.48516660000E-01

  84  84   1    8 O     4.77687120000E-01 -2.03510210000E-01 -2.51483330000E-01

 NUMBER OF SYMMETRY OPERATORS         :    1
 *******************************************************************************
 * GEOMETRY EDITING - INPUT COORDINATES ARE GIVEN IN ANGSTROM         
 *******************************************************************************

 GCALCO - MAX INDICES DIRECT LATTICE VECTOR    13    13    18
 NO.OF VECTORS CREATED 6999 STARS 3500 RMAX   271.36532 BOHR

 GEOMETRY FOR WAVE FUNCTION - DIMENSIONALITY OF THE SYSTEM    3
 (NON PERIODIC DIRECTION: LATTICE PARAMETER FORMALLY SET TO 500)
 *******************************************************************************
 LATTICE PARAMETERS (ANGSTROMS AND DEGREES) - BOHR = 0.5291772083 ANGSTROM
 PRIMITIVE CELL - CENTRING CODE 1/0 VOLUME=  1759.333932 - DENSITY  0.736 g/cm^3
         A              B              C           ALPHA      BETA       GAMMA 
    15.02361100    15.02391600     9.00000000    90.000323  89.999944 119.995964
 *******************************************************************************
 ATOMS IN THE ASYMMETRIC UNIT   84 - ATOMS IN THE UNIT CELL:   84
     ATOM                 X/A                 Y/B                 Z/C    
 *******************************************************************************
      1 T   5 B    -3.863194600000E-01  2.273182200000E-01  2.505307500000E-01
      2 T   5 B    -3.478961800000E-01  3.041725900000E-01 -2.494692500000E-01
      3 T   5 B    -2.272638000000E-01  3.863778800000E-01  2.505307500000E-01
      4 T   5 B    -1.888405200000E-01  4.632322500000E-01 -2.494692500000E-01
      5 T   5 B    -3.863237300000E-01  3.863606700000E-01  2.494148400000E-01
      6 T   5 B    -3.479004500000E-01  4.632150400000E-01 -2.505851600000E-01
      7 T   5 B     2.272552500000E-01 -3.863667800000E-01  2.505307500000E-01
      8 T   5 B     2.656785300000E-01 -3.095124100000E-01 -2.494692500000E-01
      9 T   5 B     3.863632200000E-01 -3.863875500000E-01  2.505307500000E-01
     10 T   5 B     4.247865000000E-01 -3.095331800000E-01 -2.494692500000E-01
     11 T   5 B     3.863435000000E-01 -2.272483500000E-01  2.494148400000E-01
     12 T   5 B     4.247667800000E-01 -1.503939800000E-01 -2.505851600000E-01
     13 T   1 H    -9.695638000000E-02  3.089300500000E-01  2.482172400000E-01
     14 T   1 H    -5.853310000000E-02  3.857844200000E-01 -2.517827600000E-01
     15 T   1 H     9.663453000000E-02 -3.089465600000E-01  2.478634700000E-01
     16 T   1 H     1.350578100000E-01 -2.320921900000E-01 -2.521365300000E-01
     17 T   1 H    -9.702858000000E-02 -4.059275700000E-01  2.478090200000E-01
     18 T   1 H    -5.860530000000E-02 -3.290732000000E-01 -2.521909800000E-01
     19 T   1 H     9.673618000000E-02  4.056849400000E-01  2.478226000000E-01
     20 T   1 H     1.351594600000E-01  4.825393100000E-01 -2.521774000000E-01
     21 T   1 H    -3.089676000000E-01  9.700412000000E-02  2.517827700000E-01
     22 T   1 H    -2.705443200000E-01  1.738584900000E-01 -2.482172300000E-01
     23 T   1 H     3.089297200000E-01 -9.656269000000E-02  2.521365600000E-01
     24 T   1 H     3.473530000000E-01 -1.970832000000E-02 -2.478634400000E-01
     25 T   1 H     4.058699900000E-01  9.704998000000E-02  2.521910500000E-01
     26 T   1 H     4.442932700000E-01  1.739043500000E-01 -2.478089500000E-01
     27 T   1 H    -4.056877900000E-01 -9.665268000000E-02  2.521773700000E-01
     28 T   1 H    -3.672645100000E-01 -1.979831000000E-02 -2.478226300000E-01
     29 T   1 H    -3.089272600000E-01 -4.059457900000E-01  2.482172600000E-01
     30 T   1 H    -2.705039800000E-01 -3.290914200000E-01 -2.517827400000E-01
     31 T   1 H     3.089618300000E-01  4.056093300000E-01  2.478634500000E-01
     32 T   1 H     3.473851100000E-01  4.824637000000E-01 -2.521365500000E-01
     33 T   1 H     4.058405700000E-01  3.088232500000E-01  2.478089800000E-01
     34 T   1 H     4.442638500000E-01  3.856776200000E-01 -2.521910200000E-01
     35 T   1 H    -4.057091200000E-01 -3.090420700000E-01  2.478226500000E-01
     36 T   1 H    -3.672858400000E-01 -2.321877000000E-01 -2.521773500000E-01
     37 T   6 C    -1.081096900000E-01  4.459436900000E-01  2.493740100000E-01
     38 T   6 C    -6.968641000000E-02 -4.772019400000E-01 -2.506259900000E-01
     39 T   6 C    -5.351089000000E-02  3.927856300000E-01  2.482716900000E-01
     40 T   6 C    -1.508761000000E-02  4.696400000000E-01 -2.517283100000E-01
     41 T   6 C     5.338812000000E-02 -3.928147000000E-01  2.481764600000E-01
     42 T   6 C     9.181140000000E-02 -3.159603300000E-01 -2.518235400000E-01
     43 T   6 C    -5.354789000000E-02 -4.463078100000E-01  2.484622400000E-01
     44 T   6 C    -1.512461000000E-02 -3.694534400000E-01 -2.515377500000E-01
     45 T   6 C     5.342634000000E-02  4.462499700000E-01  2.477273400000E-01
     46 T   6 C     9.184962000000E-02 -4.768956600000E-01 -2.522726500000E-01
     47 T   6 C     1.080358900000E-01 -4.459643700000E-01  2.484758400000E-01
     48 T   6 C     1.464591700000E-01 -3.691100000000E-01 -2.515241600000E-01
     49 T   6 C    -4.459605800000E-01  1.081684600000E-01  2.506260200000E-01
     50 T   6 C    -4.075373000000E-01  1.850228300000E-01 -2.493739800000E-01
     51 T   6 C    -3.928221500000E-01  5.355594000000E-02  2.517283200000E-01
     52 T   6 C    -3.543988700000E-01  1.304103100000E-01 -2.482716800000E-01
     53 T   6 C     3.927986700000E-01 -5.333684000000E-02  2.518235800000E-01
     54 T   6 C     4.312219500000E-01  2.351753000000E-02 -2.481764200000E-01
     55 T   6 C     4.462875800000E-01  5.360286000000E-02  2.515378100000E-01
     56 T   6 C     4.847108600000E-01  1.304572300000E-01 -2.484621900000E-01
     57 T   6 C    -4.462831500000E-01 -5.337644000000E-02  2.522726500000E-01
     58 T   6 C    -4.078598700000E-01  2.347793000000E-02 -2.477273500000E-01
     59 T   6 C     4.459279100000E-01 -1.080079400000E-01  2.515241800000E-01
     60 T   6 C     4.843511900000E-01 -3.115357000000E-02 -2.484758200000E-01
     61 T   6 C    -4.459551300000E-01  4.458745500000E-01  2.493740100000E-01
     62 T   6 C    -4.075318500000E-01 -4.772710800000E-01 -2.506259900000E-01
     63 T   6 C    -3.927897800000E-01 -4.463742200000E-01  2.482717100000E-01
     64 T   6 C    -3.543665000000E-01 -3.695198500000E-01 -2.517282900000E-01
     65 T   6 C     3.928233700000E-01  4.461720300000E-01  2.481764400000E-01
     66 T   6 C     4.312466500000E-01 -4.769736000000E-01 -2.518235600000E-01
     67 T   6 C     4.462872600000E-01  3.926899900000E-01  2.484622100000E-01
     68 T   6 C     4.847105400000E-01  4.695443600000E-01 -2.515377900000E-01
     69 T   6 C    -4.462570400000E-01 -3.929020000000E-01  2.477273700000E-01
     70 T   6 C    -4.078337600000E-01 -3.160476300000E-01 -2.522726300000E-01
     71 T   6 C     4.459599800000E-01 -4.460417700000E-01  2.484758400000E-01
     72 T   6 C     4.843832600000E-01 -3.691874000000E-01 -2.515241600000E-01
     73 T   8 O    -4.392633200000E-01  2.803706300000E-01  2.497142300000E-01
     74 T   8 O    -4.008400400000E-01  3.572250000000E-01 -2.502857700000E-01
     75 T   8 O    -2.803183000000E-01  2.803783300000E-01  2.520685300000E-01
     76 T   8 O    -2.418950200000E-01  3.572327000000E-01 -2.479314700000E-01
     77 T   8 O    -2.803205800000E-01  4.393234600000E-01  2.485166700000E-01
     78 T   8 O    -2.418973000000E-01 -4.838221700000E-01 -2.514833300000E-01
     79 T   8 O     2.803245100000E-01 -2.803488900000E-01  2.497142400000E-01
     80 T   8 O     3.187477900000E-01 -2.034945200000E-01 -2.502857600000E-01
     81 T   8 O     2.803439700000E-01 -4.393043900000E-01  2.520685200000E-01
     82 T   8 O     3.187672500000E-01 -3.624500200000E-01 -2.479314800000E-01
     83 T   8 O     4.392638400000E-01 -2.803645800000E-01  2.485166600000E-01
     84 T   8 O     4.776871200000E-01 -2.035102100000E-01 -2.514833300000E-01

 T = ATOM BELONGING TO THE ASYMMETRIC UNIT

 ****    1 SYMMOPS - TRANSLATORS IN FRACTIONAL UNITS
 **** MATRICES AND TRANSLATORS IN THE CRYSTALLOGRAPHIC REFERENCE FRAME
   V INV                    ROTATION MATRICES                   TRANSLATORS
   1   1  1.00 -0.00  0.00  0.00  1.00  0.00  0.00  0.00  1.00  0.00  0.00  0.00

 DIRECT LATTICE VECTORS CARTESIAN COMPONENTS (ANGSTROM)
          X                    Y                    Z
   0.130113578931E+02  -0.751088897922E+01   0.000000000000E+00
   0.000000000000E+00   0.150239160000E+02   0.000000000000E+00
  -0.191312312409E-04  -0.507367213534E-04   0.899999999984E+01


 CARTESIAN COORDINATES - PRIMITIVE CELL
 *******************************************************************************
 *      ATOM          X(ANGSTROM)         Y(ANGSTROM)         Z(ANGSTROM)
 *******************************************************************************
    1     5 B    -5.026545548074E+00  6.316799706012E+00  2.254776749959E+00
    2     5 B    -4.526596934953E+00  7.182885683188E+00 -2.245223249959E+00
    3     5 B    -2.957015430898E+00  7.511849273064E+00  2.254776749959E+00
    4     5 B    -2.457066817777E+00 -6.645980749760E+00 -2.245223249959E+00
    5     5 B    -5.026601085224E+00 -6.317643756641E+00  2.244733559959E+00
    6     5 B    -4.526652472103E+00 -5.451557779464E+00 -2.255266439959E+00
    7     5 B     2.956894597864E+00 -7.511643711713E+00  2.254776749959E+00
    8     5 B     3.456843210985E+00 -6.645557734537E+00 -2.245223249959E+00
    9     5 B     5.027105339172E+00  6.316917943173E+00  2.254776749959E+00
   10     5 B    -7.484303940764E+00 -3.300231004345E-01 -2.245223249959E+00
   11     5 B     5.026848776543E+00 -6.315955912372E+00  2.244733559959E+00
   12     5 B     5.526797389664E+00 -5.449869935196E+00 -2.255266439959E+00
   13     1 H    -1.261538908897E+00  5.369555133354E+00  2.233955159959E+00
   14     1 H    -7.615902957759E-01  6.235641110530E+00 -2.266044839959E+00
   15     1 H     1.257341712724E+00 -5.367410968098E+00  2.230771229960E+00
   16     1 H     1.757290325845E+00 -4.501324990921E+00 -2.269228769959E+00
   17     1 H    -1.262478321127E+00 -5.369863394590E+00  2.230281179960E+00
   18     1 H    -7.625297080060E-01 -4.503777417414E+00 -2.269718819959E+00
   19     1 H     1.258664318036E+00  5.368389179065E+00  2.230403399960E+00
   20     1 H     1.758612931156E+00  6.234475156242E+00 -2.269596599959E+00
   21     1 H    -4.020092837873E+00  3.777990317677E+00  2.266044929959E+00
   22     1 H    -3.520144224752E+00  4.644076294853E+00 -2.233955069959E+00
   23     1 H     4.019590327039E+00 -3.771099365177E+00  2.269229039959E+00
   24     1 H     4.519538940160E+00 -2.905013388001E+00 -2.230770959960E+00
   25     1 H     5.280914873216E+00 -1.590386482911E+00  2.269719449959E+00
   26     1 H     5.780863486337E+00 -7.243005057348E-01 -2.230280549960E+00
   27     1 H    -5.278553852997E+00  1.594961410766E+00  2.269596329959E+00
   28     1 H    -4.778605239876E+00  2.461047387942E+00 -2.230403669960E+00
   29     1 H    -4.019567891483E+00 -3.778589690730E+00  2.233955339959E+00
   30     1 H    -3.519619278362E+00 -2.912503713554E+00 -2.266044659959E+00
   31     1 H     4.020008203491E+00  3.773249923012E+00  2.230771049960E+00
   32     1 H     4.519956816611E+00  4.639335900188E+00 -2.269228949959E+00
   33     1 H     5.280532162901E+00  1.591498529300E+00  2.230280819960E+00
   34     1 H     5.780480776022E+00  2.457584506476E+00 -2.269719179959E+00
   35     1 H    -5.278831301949E+00 -1.595798515679E+00  2.230403849960E+00
   36     1 H    -4.778882688829E+00 -7.297125385030E-01 -2.269596149959E+00
   37     6 C    -1.406658639129E+00  7.511807766038E+00  2.244366089959E+00
   38     6 C    -9.067100260085E-01 -6.646022256786E+00 -2.255633909959E+00
   39     6 C    -6.962540907091E-01  6.303080068605E+00  2.234445209959E+00
   40     6 C    -1.963054775884E-01  7.169166045781E+00 -2.265554789959E+00
   41     6 C     6.946471886362E-01 -6.302619890154E+00  2.233588139959E+00
   42     6 C     1.194595801757E+00 -5.436533912978E+00 -2.266411859959E+00
   43     6 C    -6.967355145966E-01 -6.303111396882E+00  2.236160159959E+00
   44     6 C    -1.967869014760E-01 -5.437025419706E+00 -2.263839749959E+00
   45     6 C     6.951444913271E-01  6.303130187104E+00  2.229546059960E+00
   46     6 C     1.195093104448E+00  7.169216164279E+00 -2.270453849959E+00
   47     6 C     1.405688876436E+00 -7.511589416283E+00  2.236282559959E+00
   48     6 C     1.905637489557E+00 -6.645503439107E+00 -2.263717439959E+00
   49     6 C     7.208800385697E+00 -2.536227432783E+00  2.255634179959E+00
   50     6 C     7.708748998818E+00 -1.670141455606E+00 -2.244365819959E+00
   51     6 C    -5.111154397843E+00  3.755050729219E+00  2.265554879959E+00
   52     6 C    -4.611205784722E+00  4.621136706395E+00 -2.234445119959E+00
   53     6 C     5.110839257591E+00 -3.751608182122E+00  2.266412219959E+00
   54     6 C     5.610787870712E+00 -2.885522204946E+00 -2.233587779959E+00
   55     6 C     5.806802614378E+00 -2.546704362387E+00  2.263840289959E+00
   56     6 C     6.306751227499E+00 -1.680618385211E+00 -2.236159709959E+00
   57     6 C    -5.806754612577E+00  2.550047242519E+00  2.270453849959E+00
   58     6 C    -5.306805999456E+00  3.416133219695E+00 -2.229546149960E+00
   59     6 C     5.802122819545E+00 -4.972030004149E+00  2.263717619959E+00
   60     6 C     6.302071432666E+00 -4.105944026973E+00 -2.236282379959E+00
   61     6 C     7.208871321550E+00  2.537399625244E+00  2.244366089959E+00
   62     6 C    -5.302537958386E+00 -4.109541418364E+00 -2.255633909959E+00
   63     6 C    -5.110733154058E+00 -3.756100952587E+00  2.234445389959E+00
   64     6 C    -4.610784540938E+00 -2.890014975411E+00 -2.265554609959E+00
   65     6 C     5.111160707906E+00  3.752785788099E+00  2.233587959959E+00
   66     6 C     5.611109321026E+00  4.618871765275E+00 -2.266412039959E+00
   67     6 C     5.806798509584E+00  2.547714754944E+00  2.236159889959E+00
   68     6 C     6.306747122704E+00  3.413800732120E+00 -2.263840109959E+00
   69     6 C    -5.806414799066E+00 -2.551152129473E+00  2.229546329960E+00
   70     6 C    -5.306466185945E+00 -1.685066152297E+00 -2.270453669959E+00
   71     6 C     5.802540152112E+00  4.973053409226E+00  2.236282559959E+00
   72     6 C    -6.708869127824E+00 -1.673887634382E+00 -2.263717439959E+00
   73     8 O     7.295940849904E+00  6.211742513495E-04  2.247428069959E+00
   74     8 O     7.795889463024E+00  8.667071514276E-01 -2.252571929959E+00
   75     8 O    -3.647326547655E+00  6.317807319152E+00  2.268616769959E+00
   76     8 O    -3.147377934534E+00  7.183893296328E+00 -2.231383229960E+00
   77     8 O    -3.647356145599E+00 -6.318113094082E+00  2.236650029959E+00
   78     8 O    -3.147407532478E+00 -5.452027116906E+00 -2.263349969959E+00
   79     8 O     3.647397748465E+00 -6.317437116498E+00  2.247428159959E+00
   80     8 O     4.147346361586E+00 -5.451351139322E+00 -2.252571839959E+00
   81     8 O     3.647650904449E+00  6.318198522416E+00  2.268616679959E+00
   82     8 O     4.147599517570E+00  7.184284499592E+00 -2.231383319960E+00
   83     8 O    -7.295943615768E+00 -5.594638236531E-04  2.236649939959E+00
   84     8 O    -6.795995002647E+00  8.655265133521E-01 -2.263349969959E+00

 *******************************************************************************
 STARTING BASIS SET HANDLING 
 *******************************************************************************

 Loading internal basis set: SOLDEF2MSVP         

 Please cite in your publication:
 L. Dona', J. G. Brandenburg and B. Civalleri, J. Chem. Phys., 151, 121101 (2019
 )                                                                              
                                                                                
                    

 *******************************************************************************
 LOCAL ATOMIC FUNCTIONS BASIS SET
 *******************************************************************************
   ATOM   X(AU)   Y(AU)   Z(AU)  N. TYPE  EXPONENT  S COEF   P COEF   D/F/G COEF
 *******************************************************************************
   1 B   -9.499  11.937   4.261
                                  1 S  
                                         2.410E+03 1.755E-03 0.000E+00 0.000E+00
                                         3.619E+02 1.344E-02 0.000E+00 0.000E+00
                                         8.231E+01 6.637E-02 0.000E+00 0.000E+00
                                         2.311E+01 2.303E-01 0.000E+00 0.000E+00
                                         7.252E+00 5.150E-01 0.000E+00 0.000E+00
                                  2 S  
                                         2.367E+00 1.000E+00 0.000E+00 0.000E+00
                                  3 S  
                                         5.533E-01 1.000E+00 0.000E+00 0.000E+00
                                  4 S  
                                         1.716E-01 1.000E+00 0.000E+00 0.000E+00
                           5-     7 P  
                                         6.002E+00 0.000E+00-3.555E-02 0.000E+00
                                         1.240E+00 0.000E+00-1.983E-01 0.000E+00
                                         3.367E-01 0.000E+00-5.048E-01 0.000E+00
                           8-    10 P  
                                         1.256E-01 0.000E+00 1.000E+00 0.000E+00
                          11-    15 D  
                                         8.880E-01 0.000E+00 0.000E+00 1.000E+00
   2 B   -8.554  13.574  -4.243
   3 B   -5.588  14.195   4.261
   4 B   -4.643 -12.559  -4.243
   5 B   -9.499 -11.939   4.242
   6 B   -8.554 -10.302  -4.262
   7 B    5.588 -14.195   4.261
   8 B    6.532 -12.558  -4.243
   9 B    9.500  11.937   4.261
  10 B  -14.143  -0.624  -4.243
  11 B    9.499 -11.935   4.242
  12 B   10.444 -10.299  -4.262
  13 H   -2.384  10.147   4.222
                                181 S  
                                         1.874E+01 1.968E-02 0.000E+00 0.000E+00
                                         2.826E+00 1.380E-01 0.000E+00 0.000E+00
                                         6.401E-01 4.783E-01 0.000E+00 0.000E+00
                                182 S  
                                         1.756E-01 1.000E+00 0.000E+00 0.000E+00
  14 H   -1.439  11.784  -4.282
  15 H    2.376 -10.143   4.216
  16 H    3.321  -8.506  -4.288
  17 H   -2.386 -10.148   4.215
  18 H   -1.441  -8.511  -4.289
  19 H    2.379  10.145   4.215
  20 H    3.323  11.781  -4.289
  21 H   -7.597   7.139   4.282
  22 H   -6.652   8.776  -4.222
  23 H    7.596  -7.126   4.288
  24 H    8.541  -5.490  -4.216
  25 H    9.979  -3.005   4.289
  26 H   10.924  -1.369  -4.215
  27 H   -9.975   3.014   4.289
  28 H   -9.030   4.651  -4.215
  29 H   -7.596  -7.140   4.222
  30 H   -6.651  -5.504  -4.282
  31 H    7.597   7.130   4.216
  32 H    8.541   8.767  -4.288
  33 H    9.979   3.007   4.215
  34 H   10.924   4.644  -4.289
  35 H   -9.976  -3.016   4.215
  36 H   -9.031  -1.379  -4.289
  37 C   -2.658  14.195   4.241
                                229 S  
                                         3.624E+03 1.634E-03 0.000E+00 0.000E+00
                                         5.440E+02 1.252E-02 0.000E+00 0.000E+00
                                         1.237E+02 6.211E-02 0.000E+00 0.000E+00
                                         3.476E+01 2.182E-01 0.000E+00 0.000E+00
                                         1.093E+01 4.980E-01 0.000E+00 0.000E+00
                                230 S  
                                         3.574E+00 1.000E+00 0.000E+00 0.000E+00
                                231 S  
                                         7.742E-01 1.000E+00 0.000E+00 0.000E+00
                                232 S  
                                         2.330E-01 1.000E+00 0.000E+00 0.000E+00
                         233-   235 P  
                                         9.443E+00 0.000E+00 3.790E-02 0.000E+00
                                         2.002E+00 0.000E+00 2.082E-01 0.000E+00
                                         5.463E-01 0.000E+00 5.047E-01 0.000E+00
                         236-   238 P  
                                         1.820E-01 0.000E+00 1.000E+00 0.000E+00
                         239-   243 D  
                                         8.880E-01 0.000E+00 0.000E+00 1.000E+00
  38 C   -1.713 -12.559  -4.263
  39 C   -1.316  11.911   4.222
  40 C   -0.371  13.548  -4.281
  41 C    1.313 -11.910   4.221
  42 C    2.257 -10.274  -4.283
  43 C   -1.317 -11.911   4.226
  44 C   -0.372 -10.274  -4.278
  45 C    1.314  11.911   4.213
  46 C    2.258  13.548  -4.291
  47 C    2.656 -14.195   4.226
  48 C    3.601 -12.558  -4.278
  49 C   13.623  -4.793   4.263
  50 C   14.567  -3.156  -4.241
  51 C   -9.659   7.096   4.281
  52 C   -8.714   8.733  -4.222
  53 C    9.658  -7.090   4.283
  54 C   10.603  -5.453  -4.221
  55 C   10.973  -4.813   4.278
  56 C   11.918  -3.176  -4.226
  57 C  -10.973   4.819   4.291
  58 C  -10.028   6.456  -4.213
  59 C   10.964  -9.396   4.278
  60 C   11.909  -7.759  -4.226
  61 C   13.623   4.795   4.241
  62 C  -10.020  -7.766  -4.263
  63 C   -9.658  -7.098   4.222
  64 C   -8.713  -5.461  -4.281
  65 C    9.659   7.092   4.221
  66 C   10.603   8.728  -4.283
  67 C   10.973   4.814   4.226
  68 C   11.918   6.451  -4.278
  69 C  -10.973  -4.821   4.213
  70 C  -10.028  -3.184  -4.291
  71 C   10.965   9.398   4.226
  72 C  -12.678  -3.163  -4.278
  73 O   13.787   0.001   4.247
                                769 S  
                                         6.773E+03 1.727E-03 0.000E+00 0.000E+00
                                         1.017E+03 1.325E-02 0.000E+00 0.000E+00
                                         2.313E+02 6.603E-02 0.000E+00 0.000E+00
                                         6.501E+01 2.353E-01 0.000E+00 0.000E+00
                                         2.050E+01 5.498E-01 0.000E+00 0.000E+00
                                770 S  
                                         6.716E+00 1.000E+00 0.000E+00 0.000E+00
                                771 S  
                                         1.147E+00 1.000E+00 0.000E+00 0.000E+00
                                772 S  
                                         3.342E-01 1.000E+00 0.000E+00 0.000E+00
                         773-   775 P  
                                         1.769E+01 0.000E+00 4.359E-02 0.000E+00
                                         3.854E+00 0.000E+00 2.318E-01 0.000E+00
                                         1.047E+00 0.000E+00 5.146E-01 0.000E+00
                         776-   778 P  
                                         2.759E-01 0.000E+00 1.000E+00 0.000E+00
                         779-   783 D  
                                         8.000E-01 0.000E+00 0.000E+00 1.000E+00
  74 O   14.732   1.638  -4.257
  75 O   -6.892  11.939   4.287
  76 O   -5.948  13.576  -4.217
  77 O   -6.893 -11.940   4.227
  78 O   -5.948 -10.303  -4.277
  79 O    6.893 -11.938   4.247
  80 O    7.837 -10.302  -4.257
  81 O    6.893  11.940   4.287
  82 O    7.838  13.576  -4.217
  83 O  -13.787  -0.001   4.227
  84 O  -12.843   1.636  -4.277

 *******************************************************************************
 FINISHED BASIS SET HANDLING 
 *******************************************************************************

 INFORMATION **** SET_MPP **** PCRYSTAL CALCULATION
 INFORMATION **** READM2 **** NEW DEFAULT: FOCK/KS MATRIX MIXING SET TO 30 %
 INFORMATION **** READM2 **** NEW DEFAULT: FULL DIRECT SCF MODE
 INFORMATION **** READM2 **** NEW DEFAULT: COULOMB BIPOLAR BUFFER SET TO 32 Mb
 INFORMATION **** READM2 **** NEW DEFAULT: EXCHANGE BIPOLAR BUFFER SET TO 32 Mb

 *******************************************************************************
 NEW DEFAULT: DFT INTEGRATION GRID INCREASED TO XLGRID
 NEW DEFAULT: DIIS ACCELERATOR ACTIVE
 USE KEYWORD NODIIS TO TURN IT OFF
 *******************************************************************************

 WARNING **** RDDFTP **** HSEsol-HJS ACTIVE
 RANGE SEPARATION - OMEGA:   0.110000000000000     
 WARNING **** RDDFTP **** HSEsol-3c has to be combined with sol-def2-mSVP basis set
 *******************************************************************************
 N. OF ATOMS PER CELL        84  COULOMB OVERLAP TOL         (T1) 10**   -6
 NUMBER OF SHELLS           468  COULOMB PENETRATION TOL     (T2) 10**   -6
 NUMBER OF AO               948  EXCHANGE OVERLAP TOL        (T3) 10**   -6
 N. OF ELECTRONS PER CELL   396  EXCHANGE PSEUDO OVP (F(G))  (T4) 10**   -6
 CORE ELECTRONS PER CELL    120  EXCHANGE PSEUDO OVP (P(G))  (T5) 10**  -12
 N. OF SYMMETRY OPERATORS     1  POLE ORDER IN MONO ZONE                  4
 *******************************************************************************
 TYPE OF CALCULATION :  RESTRICTED CLOSED SHELL
 KOHN-SHAM HAMILTONIAN

 (EXCHANGE)[CORRELATION] FUNCTIONAL:(HSEsol GGA)[PBEsol]

 RANGE-SEPARATED HYBRID FUNCTIONAL 
 OMEGA (SHORT-RANGE)[LONG-RANGE]:(    0.1100)[    0.0000]

 HYBRID EXCHANGE - PERCENTAGE OF FOCK EXCHANGE    25.0000

 CAPPA:IS1  2;IS2  2;IS3  8; K PTS MONK NET  20; SYMMOPS:K SPACE   2;G SPACE   1

 *******************************************************************************
 MAX NUMBER OF SCF CYCLES      50  CONVERGENCE ON DELTAP        10**-16
 WEIGHT OF F(I) IN F(I+1)      30% CONVERGENCE ON ENERGY        10**- 6
 SHRINK. FACT.(MONKH.)    2  2  8  NUMBER OF K POINTS IN THE IBZ     20
 SHRINKING FACTOR(GILAT NET)    8  NUMBER OF K POINTS(GILAT NET)   1028
 *******************************************************************************
 *** K POINTS COORDINATES (OBLIQUE COORDINATES IN UNITS OF IS =  2)
   1-R(  0  0  0)   2-R(  1  0  0)   3-R(  0  1  0)   4-R(  1  1  0)
   5-C(  0  0  1)   6-C(  1  0  1)   7-C(  0  1  1)   8-C(  1  1  1)
   9-C(  0  0  2)  10-C(  1  0  2)  11-C(  0  1  2)  12-C(  1  1  2)
  13-C(  0  0  3)  14-C(  1  0  3)  15-C(  0  1  3)  16-C(  1  1  3)
  17-R(  0  0  4)  18-R(  1  0  4)  19-R(  0  1  4)  20-R(  1  1  4)

 DIRECT LATTICE VECTORS COMPON. (A.U.)     RECIP. LATTICE VECTORS COMPON. (A.U.) 
        X            Y            Z              X            Y            Z
   24.5879030  -14.1935232    0.0000000      0.2555397    0.0000000    0.0000005
    0.0000000   28.3910867    0.0000000      0.1277517    0.2213084    0.0000015
   -0.0000362   -0.0000959   17.0075352      0.0000000    0.0000000    0.3694354

 DISK SPACE FOR EIGENVECTORS (FTN 10)    28758528 REALS

 SYMMETRY ADAPTION OF THE BLOCH FUNCTIONS DISABLED
 TTTTTTTTTTTTTTTTTTTTTTTTTTTTTT gordsh1     TELAPSE        0.05 TCPU        0.05

 MATRIX SIZE: P(G)  592778, F(G)  123213, P(G) IRR  298291, F(G) IRR  124173
 MAX G-VECTOR INDEX FOR 1- AND 2-ELECTRON INTEGRALS  47

 TTTTTTTTTTTTTTTTTTTTTTTTTTTTTT INPUT       TELAPSE        2.42 TCPU        2.41

 NEIGHBORS OF THE NON-EQUIVALENT ATOMS

 N = NUMBER OF NEIGHBORS AT DISTANCE R
    ATOM  N     R/ANG      R/AU   NEIGHBORS (ATOM LABELS AND CELL INDICES)
   1 B    1     1.3791     2.6061   73 O   -1 0 0
   1 B    1     1.3793     2.6065   75 O    0 0 0
   1 B    1     1.5503     2.9297   49 C   -1 0 0
   1 B    1     2.3895     4.5155    5 B    0 1 0
   1 B    1     2.3898     4.5160    3 B    0 0 0
   1 B    1     2.5632     4.8437   51 C    0 0 0

   2 B    1     1.3791     2.6061   74 O   -1 0 0
   2 B    1     1.3793     2.6065   76 O    0 0 0
   2 B    1     1.5503     2.9297   50 C   -1 0 0
   2 B    1     2.3895     4.5155    6 B    0 1 0
   2 B    1     2.3898     4.5160    4 B    0 1 0
   2 B    1     2.5632     4.8437   52 C    0 0 0

   3 B    1     1.3793     2.6065   77 O    0 1 0
   3 B    1     1.3793     2.6065   75 O    0 0 0
   3 B    1     1.5504     2.9298   37 C    0 0 0
   3 B    1     2.3895     4.5156    5 B    0 1 0
   3 B    1     2.3898     4.5160    1 B    0 0 0
   3 B    1     2.5634     4.8440   43 C    0 1 0

   4 B    1     1.3793     2.6065   78 O    0 0 0
   4 B    1     1.3793     2.6065   76 O    0-1 0
   4 B    1     1.5504     2.9298   38 C    0 0 0
   4 B    1     2.3895     4.5156    6 B    0 0 0
   4 B    1     2.3898     4.5160    2 B    0-1 0
   4 B    1     2.5634     4.8440   44 C    0 0 0

   5 B    1     1.3791     2.6061   73 O   -1-1 0
   5 B    1     1.3793     2.6064   77 O    0 0 0
   5 B    1     1.5502     2.9294   61 C   -1-1 0
   5 B    1     2.3895     4.5155    1 B    0-1 0
   5 B    1     2.3895     4.5156    3 B    0-1 0
   5 B    1     2.5629     4.8433   63 C    0 0 0

   6 B    1     1.3791     2.6061   74 O   -1-1 0
   6 B    1     1.3793     2.6064   78 O    0 0 0
   6 B    1     1.5502     2.9294   62 C    0 0 0
   6 B    1     2.3895     4.5155    2 B    0-1 0
   6 B    1     2.3895     4.5156    4 B    0 0 0
   6 B    1     2.5629     4.8433   64 C    0 0 0

   7 B    1     1.3795     2.6068   79 O    0 0 0
   7 B    1     1.3795     2.6070   81 O    0-1 0
   7 B    1     1.5513     2.9316   47 C    0 0 0
   7 B    1     2.3905     4.5174   11 B    0 0 0
   7 B    1     2.3905     4.5175    9 B    0-1 0
   7 B    1     2.5648     4.8468   45 C    0-1 0

   8 B    1     1.3795     2.6068   80 O    0 0 0
   8 B    1     1.3795     2.6070   82 O    0-1 0
   8 B    1     1.5513     2.9316   48 C    0 0 0
   8 B    1     2.3905     4.5174   12 B    0 0 0
   8 B    1     2.3905     4.5175   10 B    1 0 0
   8 B    1     2.5648     4.8468   46 C    0-1 0

   9 B    1     1.3795     2.6069   81 O    0 0 0
   9 B    1     1.3797     2.6072   83 O    1 1 0
   9 B    1     1.5516     2.9322   71 C    0 0 0
   9 B    1     2.3905     4.5175    7 B    0 1 0
   9 B    1     2.3911     4.5185   11 B    0 1 0
   9 B    1     2.5651     4.8473   69 C    1 1 0

  10 B    1     1.3795     2.6069   82 O   -1-1 0
  10 B    1     1.3797     2.6072   84 O    0 0 0
  10 B    1     1.5516     2.9322   72 C    0 0 0
  10 B    1     2.3905     4.5175    8 B   -1 0 0
  10 B    1     2.3911     4.5185   12 B   -1 0 0
  10 B    1     2.5651     4.8473   70 C    0 0 0

  11 B    1     1.3795     2.6068   79 O    0 0 0
  11 B    1     1.3796     2.6071   83 O    1 0 0
  11 B    1     1.5516     2.9322   59 C    0 0 0
  11 B    1     2.3905     4.5174    7 B    0 0 0
  11 B    1     2.3911     4.5185    9 B    0-1 0
  11 B    1     2.5651     4.8473   57 C    1 0 0

  12 B    1     1.3795     2.6068   80 O    0 0 0
  12 B    1     1.3796     2.6071   84 O    1 0 0
  12 B    1     1.5516     2.9322   60 C    0 0 0
  12 B    1     2.3905     4.5174    8 B    0 0 0
  12 B    1     2.3911     4.5185   10 B    1 0 0
  12 B    1     2.5651     4.8473   58 C    1 0 0

  13 H    1     1.0913     2.0623   39 C    0 0 0
  13 H    1     2.1472     4.0576   37 C    0 0 0
  13 H    1     2.1680     4.0969   45 C    0 0 0
  13 H    1     2.5202     4.7625   19 H    0 0 0
  13 H    1     2.5676     4.8520   75 O    0 0 0
  13 H    1     2.7321     5.1630    3 B    0 0 0

  14 H    1     1.0913     2.0623   40 C    0 0 0
  14 H    1     2.1472     4.0576   38 C    0 1 0
  14 H    1     2.1680     4.0969   46 C    0 0 0
  14 H    1     2.5202     4.7625   20 H    0 0 0
  14 H    1     2.5676     4.8520   76 O    0 0 0
  14 H    1     2.7321     5.1630    4 B    0 1 0

  15 H    1     1.0914     2.0625   41 C    0 0 0
  15 H    1     2.1493     4.0616   47 C    0 0 0
  15 H    1     2.1666     4.0942   43 C    0 0 0
  15 H    1     2.5198     4.7618   17 H    0 0 0
  15 H    1     2.5720     4.8604   79 O    0 0 0
  15 H    1     2.7362     5.1707    7 B    0 0 0

  16 H    1     1.0914     2.0625   42 C    0 0 0
  16 H    1     2.1493     4.0616   48 C    0 0 0
  16 H    1     2.1666     4.0942   44 C    0 0 0
  16 H    1     2.5198     4.7618   18 H    0 0 0
  16 H    1     2.5720     4.8604   80 O    0 0 0
  16 H    1     2.7362     5.1707    8 B    0 0 0

  17 H    1     1.0914     2.0624   43 C    0 0 0
  17 H    1     2.1471     4.0575   37 C    0-1 0
  17 H    1     2.1680     4.0970   41 C    0 0 0
  17 H    1     2.5198     4.7618   15 H    0 0 0
  17 H    1     2.5665     4.8500   77 O    0 0 0
  17 H    1     2.7315     5.1618    3 B    0-1 0

  18 H    1     1.0914     2.0624   44 C    0 0 0
  18 H    1     2.1471     4.0575   38 C    0 0 0
  18 H    1     2.1680     4.0970   42 C    0 0 0
  18 H    1     2.5198     4.7618   16 H    0 0 0
  18 H    1     2.5665     4.8500   78 O    0 0 0
  18 H    1     2.7315     5.1618    4 B    0 0 0

  19 H    1     1.0915     2.0626   45 C    0 0 0
  19 H    1     2.1490     4.0610   47 C    0 1 0
  19 H    1     2.1669     4.0948   39 C    0 0 0
  19 H    1     2.5202     4.7625   13 H    0 0 0
  19 H    1     2.5712     4.8588   81 O    0 0 0
  19 H    1     2.7351     5.1686    7 B    0 1 0

  20 H    1     1.0915     2.0626   46 C    0 0 0
  20 H    1     2.1490     4.0610   48 C    0 1 0
  20 H    1     2.1669     4.0948   40 C    0 0 0
  20 H    1     2.5202     4.7625   14 H    0 0 0
  20 H    1     2.5712     4.8588   82 O    0 0 0
  20 H    1     2.7351     5.1686    8 B    0 1 0

  21 H    1     1.0913     2.0623   51 C    0 0 0
  21 H    1     2.1469     4.0571   49 C   -1 0 0
  21 H    1     2.1680     4.0968   57 C    0 0 0
  21 H    1     2.5198     4.7617   27 H    0 0 0
  21 H    1     2.5670     4.8510   75 O    0 0 0
  21 H    1     2.7310     5.1609    1 B    0 0 0

  22 H    1     1.0913     2.0623   52 C    0 0 0
  22 H    1     2.1469     4.0571   50 C   -1 0 0
  22 H    1     2.1680     4.0968   58 C    0 0 0
  22 H    1     2.5198     4.7617   28 H    0 0 0
  22 H    1     2.5670     4.8510   76 O    0 0 0
  22 H    1     2.7310     5.1609    2 B    0 0 0

  23 H    1     1.0914     2.0625   53 C    0 0 0
  23 H    1     2.1493     4.0617   59 C    0 0 0
  23 H    1     2.1664     4.0939   55 C    0 0 0
  23 H    1     2.5192     4.7606   25 H    0 0 0
  23 H    1     2.5735     4.8632   79 O    0 0 0
  23 H    1     2.7371     5.1723   11 B    0 0 0

  24 H    1     1.0914     2.0625   54 C    0 0 0
  24 H    1     2.1493     4.0617   60 C    0 0 0
  24 H    1     2.1664     4.0939   56 C    0 0 0
  24 H    1     2.5192     4.7606   26 H    0 0 0
  24 H    1     2.5735     4.8632   80 O    0 0 0
  24 H    1     2.7371     5.1723   12 B    0 0 0

  25 H    1     1.0914     2.0624   55 C    0 0 0
  25 H    1     2.1475     4.0581   49 C    0 0 0
  25 H    1     2.1679     4.0967   53 C    0 0 0
  25 H    1     2.5192     4.7606   23 H    0 0 0
  25 H    1     2.5675     4.8519   73 O    0 0 0
  25 H    1     2.7328     5.1643    1 B    1 0 0

  26 H    1     1.0914     2.0624   56 C    0 0 0
  26 H    1     2.1475     4.0581   50 C    0 0 0
  26 H    1     2.1679     4.0967   54 C    0 0 0
  26 H    1     2.5192     4.7606   24 H    0 0 0
  26 H    1     2.5675     4.8519   74 O    0 0 0
  26 H    1     2.7328     5.1643    2 B    1 0 0

  27 H    1     1.0914     2.0625   57 C    0 0 0
  27 H    1     2.1491     4.0612   59 C   -1 0 0
  27 H    1     2.1666     4.0942   51 C    0 0 0
  27 H    1     2.5198     4.7617   21 H    0 0 0
  27 H    1     2.5723     4.8609   83 O    0 0 0
  27 H    1     2.7355     5.1693   11 B   -1 0 0

  28 H    1     1.0914     2.0625   58 C    0 0 0
  28 H    1     2.1491     4.0612   60 C   -1 0 0
  28 H    1     2.1666     4.0942   52 C    0 0 0
  28 H    1     2.5198     4.7617   22 H    0 0 0
  28 H    1     2.5723     4.8609   84 O    0 0 0
  28 H    1     2.7355     5.1693   12 B   -1 0 0

  29 H    1     1.0914     2.0624   63 C    0 0 0
  29 H    1     2.1475     4.0582   61 C   -1-1 0
  29 H    1     2.1678     4.0966   69 C    0 0 0
  29 H    1     2.5200     4.7621   35 H    0 0 0
  29 H    1     2.5667     4.8503   77 O    0 0 0
  29 H    1     2.7315     5.1618    5 B    0 0 0

  30 H    1     1.0914     2.0624   64 C    0 0 0
  30 H    1     2.1475     4.0582   62 C    0 0 0
  30 H    1     2.1678     4.0966   70 C    0 0 0
  30 H    1     2.5200     4.7621   36 H    0 0 0
  30 H    1     2.5667     4.8503   78 O    0 0 0
  30 H    1     2.7315     5.1618    6 B    0 0 0

  31 H    1     1.0913     2.0623   65 C    0 0 0
  31 H    1     2.1487     4.0605   71 C    0 0 0
  31 H    1     2.1667     4.0945   67 C    0 0 0
  31 H    1     2.5197     4.7616   33 H    0 0 0
  31 H    1     2.5723     4.8610   81 O    0 0 0
  31 H    1     2.7359     5.1701    9 B    0 0 0

  32 H    1     1.0913     2.0623   66 C    0 0 0
  32 H    1     2.1487     4.0605   72 C    1 1 0
  32 H    1     2.1667     4.0945   68 C    0 0 0
  32 H    1     2.5197     4.7616   34 H    0 0 0
  32 H    1     2.5723     4.8610   82 O    0 0 0
  32 H    1     2.7359     5.1701   10 B    1 1 0

  33 H    1     1.0915     2.0626   67 C    0 0 0
  33 H    1     2.1479     4.0589   61 C    0 0 0
  33 H    1     2.1679     4.0968   65 C    0 0 0
  33 H    1     2.5197     4.7616   31 H    0 0 0
  33 H    1     2.5677     4.8522   73 O    0 0 0
  33 H    1     2.7331     5.1648    5 B    1 1 0

  34 H    1     1.0915     2.0626   68 C    0 0 0
  34 H    1     2.1479     4.0589   62 C    1 1 0
  34 H    1     2.1679     4.0968   66 C    0 0 0
  34 H    1     2.5197     4.7616   32 H    0 0 0
  34 H    1     2.5677     4.8522   74 O    0 0 0
  34 H    1     2.7331     5.1648    6 B    1 1 0

  35 H    1     1.0914     2.0624   69 C    0 0 0
  35 H    1     2.1486     4.0602   71 C   -1-1 0
  35 H    1     2.1668     4.0947   63 C    0 0 0
  35 H    1     2.5200     4.7621   29 H    0 0 0
  35 H    1     2.5717     4.8598   83 O    0 0 0
  35 H    1     2.7349     5.1682    9 B   -1-1 0

  36 H    1     1.0914     2.0624   70 C    0 0 0
  36 H    1     2.1486     4.0602   72 C    0 0 0
  36 H    1     2.1668     4.0947   64 C    0 0 0
  36 H    1     2.5200     4.7621   30 H    0 0 0
  36 H    1     2.5717     4.8598   84 O    0 0 0
  36 H    1     2.7349     5.1682   10 B    0 0 0

  37 C    1     1.4020     2.6495   43 C    0 1 0
  37 C    1     1.4021     2.6495   39 C    0 0 0
  37 C    1     1.5504     2.9298    3 B    0 0 0
  37 C    1     2.1471     4.0575   17 H    0 1 0
  37 C    1     2.1472     4.0576   13 H    0 0 0
  37 C    1     2.4246     4.5817   41 C    0 1 0

  38 C    1     1.4020     2.6495   44 C    0 0 0
  38 C    1     1.4021     2.6495   40 C    0-1 0
  38 C    1     1.5504     2.9298    4 B    0 0 0
  38 C    1     2.1471     4.0575   18 H    0 0 0
  38 C    1     2.1472     4.0576   14 H    0-1 0
  38 C    1     2.4246     4.5817   42 C    0 0 0

  39 C    1     1.0913     2.0623   13 H    0 0 0
  39 C    1     1.3914     2.6294   45 C    0 0 0
  39 C    1     1.4021     2.6495   37 C    0 0 0
  39 C    1     2.1669     4.0948   19 H    0 0 0
  39 C    1     2.4177     4.5688   43 C    0 1 0
  39 C    1     2.4250     4.5825   47 C    0 1 0

  40 C    1     1.0913     2.0623   14 H    0 0 0
  40 C    1     1.3914     2.6294   46 C    0 0 0
  40 C    1     1.4021     2.6495   38 C    0 1 0
  40 C    1     2.1669     4.0948   20 H    0 0 0
  40 C    1     2.4177     4.5688   44 C    0 1 0
  40 C    1     2.4250     4.5825   48 C    0 1 0

  41 C    1     1.0914     2.0625   15 H    0 0 0
  41 C    1     1.3914     2.6293   43 C    0 0 0
  41 C    1     1.4026     2.6505   47 C    0 0 0
  41 C    1     2.1680     4.0970   17 H    0 0 0
  41 C    1     2.4182     4.5697   45 C    0-1 0
  41 C    1     2.4246     4.5817   37 C    0-1 0

  42 C    1     1.0914     2.0625   16 H    0 0 0
  42 C    1     1.3914     2.6293   44 C    0 0 0
  42 C    1     1.4026     2.6505   48 C    0 0 0
  42 C    1     2.1680     4.0970   18 H    0 0 0
  42 C    1     2.4182     4.5697   46 C    0-1 0
  42 C    1     2.4246     4.5817   38 C    0 0 0

  43 C    1     1.0914     2.0624   17 H    0 0 0
  43 C    1     1.3914     2.6293   41 C    0 0 0
  43 C    1     1.4020     2.6495   37 C    0-1 0
  43 C    1     2.1666     4.0942   15 H    0 0 0
  43 C    1     2.4177     4.5688   39 C    0-1 0
  43 C    1     2.4250     4.5826   47 C    0 0 0

  44 C    1     1.0914     2.0624   18 H    0 0 0
  44 C    1     1.3914     2.6293   42 C    0 0 0
  44 C    1     1.4020     2.6495   38 C    0 0 0
  44 C    1     2.1666     4.0942   16 H    0 0 0
  44 C    1     2.4177     4.5688   40 C    0-1 0
  44 C    1     2.4250     4.5826   48 C    0 0 0

  45 C    1     1.0915     2.0626   19 H    0 0 0
  45 C    1     1.3914     2.6294   39 C    0 0 0
  45 C    1     1.4025     2.6504   47 C    0 1 0
  45 C    1     2.1680     4.0969   13 H    0 0 0
  45 C    1     2.4182     4.5697   41 C    0 1 0
  45 C    1     2.4246     4.5818   37 C    0 0 0

  46 C    1     1.0915     2.0626   20 H    0 0 0
  46 C    1     1.3914     2.6294   40 C    0 0 0
  46 C    1     1.4025     2.6504   48 C    0 1 0
  46 C    1     2.1680     4.0969   14 H    0 0 0
  46 C    1     2.4182     4.5697   42 C    0 1 0
  46 C    1     2.4246     4.5818   38 C    0 1 0

  47 C    1     1.4025     2.6504   45 C    0-1 0
  47 C    1     1.4026     2.6505   41 C    0 0 0
  47 C    1     1.5513     2.9316    7 B    0 0 0
  47 C    1     2.1490     4.0610   19 H    0-1 0
  47 C    1     2.1493     4.0616   15 H    0 0 0
  47 C    1     2.4250     4.5825   39 C    0-1 0

  48 C    1     1.4025     2.6504   46 C    0-1 0
  48 C    1     1.4026     2.6505   42 C    0 0 0
  48 C    1     1.5513     2.9316    8 B    0 0 0
  48 C    1     2.1490     4.0610   20 H    0-1 0
  48 C    1     2.1493     4.0616   16 H    0 0 0
  48 C    1     2.4250     4.5825   40 C    0-1 0

  49 C    1     1.4020     2.6494   51 C    1 0 0
  49 C    1     1.4021     2.6495   55 C    0 0 0
  49 C    1     1.5503     2.9297    1 B    1 0 0
  49 C    1     2.1469     4.0571   21 H    1 0 0
  49 C    1     2.1475     4.0581   25 H    0 0 0
  49 C    1     2.4246     4.5818   53 C    0 0 0

  50 C    1     1.4020     2.6494   52 C    1 0 0
  50 C    1     1.4021     2.6495   56 C    0 0 0
  50 C    1     1.5503     2.9297    2 B    1 0 0
  50 C    1     2.1469     4.0571   22 H    1 0 0
  50 C    1     2.1475     4.0581   26 H    0 0 0
  50 C    1     2.4246     4.5818   54 C    0 0 0

  51 C    1     1.0913     2.0623   21 H    0 0 0
  51 C    1     1.3914     2.6293   57 C    0 0 0
  51 C    1     1.4020     2.6494   49 C   -1 0 0
  51 C    1     2.1666     4.0942   27 H    0 0 0
  51 C    1     2.4175     4.5684   55 C   -1 0 0
  51 C    1     2.4251     4.5828   59 C   -1 0 0

  52 C    1     1.0913     2.0623   22 H    0 0 0
  52 C    1     1.3914     2.6293   58 C    0 0 0
  52 C    1     1.4020     2.6494   50 C   -1 0 0
  52 C    1     2.1666     4.0942   28 H    0 0 0
  52 C    1     2.4175     4.5684   56 C   -1 0 0
  52 C    1     2.4251     4.5828   60 C   -1 0 0

  53 C    1     1.0914     2.0625   23 H    0 0 0
  53 C    1     1.3915     2.6295   55 C    0 0 0
  53 C    1     1.4026     2.6505   59 C    0 0 0
  53 C    1     2.1679     4.0967   25 H    0 0 0
  53 C    1     2.4179     4.5691   57 C    1 0 0
  53 C    1     2.4246     4.5818   49 C    0 0 0

  54 C    1     1.0914     2.0625   24 H    0 0 0
  54 C    1     1.3915     2.6295   56 C    0 0 0
  54 C    1     1.4026     2.6505   60 C    0 0 0
  54 C    1     2.1679     4.0967   26 H    0 0 0
  54 C    1     2.4179     4.5691   58 C    1 0 0
  54 C    1     2.4246     4.5818   50 C    0 0 0

  55 C    1     1.0914     2.0624   25 H    0 0 0
  55 C    1     1.3915     2.6295   53 C    0 0 0
  55 C    1     1.4021     2.6495   49 C    0 0 0
  55 C    1     2.1664     4.0939   23 H    0 0 0
  55 C    1     2.4175     4.5684   51 C    1 0 0
  55 C    1     2.4253     4.5832   59 C    0 0 0

  56 C    1     1.0914     2.0624   26 H    0 0 0
  56 C    1     1.3915     2.6295   54 C    0 0 0
  56 C    1     1.4021     2.6495   50 C    0 0 0
  56 C    1     2.1664     4.0939   24 H    0 0 0
  56 C    1     2.4175     4.5684   52 C    1 0 0
  56 C    1     2.4253     4.5832   60 C    0 0 0

  57 C    1     1.0914     2.0625   27 H    0 0 0
  57 C    1     1.3914     2.6293   51 C    0 0 0
  57 C    1     1.4025     2.6504   59 C   -1 0 0
  57 C    1     2.1680     4.0968   21 H    0 0 0
  57 C    1     2.4179     4.5691   53 C   -1 0 0
  57 C    1     2.4247     4.5819   49 C   -1 0 0

  58 C    1     1.0914     2.0625   28 H    0 0 0
  58 C    1     1.3914     2.6293   52 C    0 0 0
  58 C    1     1.4025     2.6504   60 C   -1 0 0
  58 C    1     2.1680     4.0968   22 H    0 0 0
  58 C    1     2.4179     4.5691   54 C   -1 0 0
  58 C    1     2.4247     4.5819   50 C   -1 0 0

  59 C    1     1.4025     2.6504   57 C    1 0 0
  59 C    1     1.4026     2.6505   53 C    0 0 0
  59 C    1     1.5516     2.9322   11 B    0 0 0
  59 C    1     2.1491     4.0612   27 H    1 0 0
  59 C    1     2.1493     4.0617   23 H    0 0 0
  59 C    1     2.4251     4.5828   51 C    1 0 0

  60 C    1     1.4025     2.6504   58 C    1 0 0
  60 C    1     1.4026     2.6505   54 C    0 0 0
  60 C    1     1.5516     2.9322   12 B    0 0 0
  60 C    1     2.1491     4.0612   28 H    1 0 0
  60 C    1     2.1493     4.0617   24 H    0 0 0
  60 C    1     2.4251     4.5828   52 C    1 0 0

  61 C    1     1.4021     2.6496   63 C    1 1 0
  61 C    1     1.4021     2.6497   67 C    0 0 0
  61 C    1     1.5502     2.9294    5 B    1 1 0
  61 C    1     2.1475     4.0582   29 H    1 1 0
  61 C    1     2.1479     4.0589   33 H    0 0 0
  61 C    1     2.4244     4.5814   65 C    0 0 0

  62 C    1     1.4021     2.6496   64 C    0 0 0
  62 C    1     1.4021     2.6497   68 C   -1-1 0
  62 C    1     1.5502     2.9294    6 B    0 0 0
  62 C    1     2.1475     4.0582   30 H    0 0 0
  62 C    1     2.1479     4.0589   34 H   -1-1 0
  62 C    1     2.4244     4.5814   66 C   -1-1 0

  63 C    1     1.0914     2.0624   29 H    0 0 0
  63 C    1     1.3914     2.6293   69 C    0 0 0
  63 C    1     1.4021     2.6496   61 C   -1-1 0
  63 C    1     2.1668     4.0947   35 H    0 0 0
  63 C    1     2.4179     4.5692   67 C   -1-1 0
  63 C    1     2.4251     4.5827   71 C   -1-1 0

  64 C    1     1.0914     2.0624   30 H    0 0 0
  64 C    1     1.3914     2.6293   70 C    0 0 0
  64 C    1     1.4021     2.6496   62 C    0 0 0
  64 C    1     2.1668     4.0947   36 H    0 0 0
  64 C    1     2.4179     4.5692   68 C   -1-1 0
  64 C    1     2.4251     4.5827   72 C    0 0 0

  65 C    1     1.0913     2.0623   31 H    0 0 0
  65 C    1     1.3914     2.6294   67 C    0 0 0
  65 C    1     1.4025     2.6504   71 C    0 0 0
  65 C    1     2.1679     4.0968   33 H    0 0 0
  65 C    1     2.4178     4.5690   69 C    1 1 0
  65 C    1     2.4244     4.5814   61 C    0 0 0

  66 C    1     1.0913     2.0623   32 H    0 0 0
  66 C    1     1.3914     2.6294   68 C    0 0 0
  66 C    1     1.4025     2.6504   72 C    1 1 0
  66 C    1     2.1679     4.0968   34 H    0 0 0
  66 C    1     2.4178     4.5690   70 C    1 1 0
  66 C    1     2.4244     4.5814   62 C    1 1 0

  67 C    1     1.0915     2.0626   33 H    0 0 0
  67 C    1     1.3914     2.6294   65 C    0 0 0
  67 C    1     1.4021     2.6497   61 C    0 0 0
  67 C    1     2.1667     4.0945   31 H    0 0 0
  67 C    1     2.4179     4.5692   63 C    1 1 0
  67 C    1     2.4253     4.5832   71 C    0 0 0

  68 C    1     1.0915     2.0626   34 H    0 0 0
  68 C    1     1.3914     2.6294   66 C    0 0 0
  68 C    1     1.4021     2.6497   62 C    1 1 0
  68 C    1     2.1667     4.0945   32 H    0 0 0
  68 C    1     2.4179     4.5692   64 C    1 1 0
  68 C    1     2.4253     4.5832   72 C    1 1 0

  69 C    1     1.0914     2.0624   35 H    0 0 0
  69 C    1     1.3914     2.6293   63 C    0 0 0
  69 C    1     1.4025     2.6503   71 C   -1-1 0
  69 C    1     2.1678     4.0966   29 H    0 0 0
  69 C    1     2.4178     4.5690   65 C   -1-1 0
  69 C    1     2.4245     4.5817   61 C   -1-1 0

  70 C    1     1.0914     2.0624   36 H    0 0 0
  70 C    1     1.3914     2.6293   64 C    0 0 0
  70 C    1     1.4025     2.6503   72 C    0 0 0
  70 C    1     2.1678     4.0966   30 H    0 0 0
  70 C    1     2.4178     4.5690   66 C   -1-1 0
  70 C    1     2.4245     4.5817   62 C    0 0 0

  71 C    1     1.4025     2.6503   69 C    1 1 0
  71 C    1     1.4025     2.6504   65 C    0 0 0
  71 C    1     1.5516     2.9322    9 B    0 0 0
  71 C    1     2.1486     4.0602   35 H    1 1 0
  71 C    1     2.1487     4.0605   31 H    0 0 0
  71 C    1     2.4251     4.5827   63 C    1 1 0

  72 C    1     1.4025     2.6503   70 C    0 0 0
  72 C    1     1.4025     2.6504   66 C   -1-1 0
  72 C    1     1.5516     2.9322   10 B    0 0 0
  72 C    1     2.1486     4.0602   36 H    0 0 0
  72 C    1     2.1487     4.0605   32 H   -1-1 0
  72 C    1     2.4251     4.5827   64 C    0 0 0

  73 O    1     1.3791     2.6061    1 B    1 0 0
  73 O    1     1.3791     2.6061    5 B    1 1 0
  73 O    1     2.3880     4.5126   75 O    1 0 0
  73 O    1     2.3882     4.5130   77 O    1 1 0
  73 O    1     2.5383     4.7966   61 C    0 0 0
  73 O    1     2.5384     4.7968   49 C    0 0 0

  74 O    1     1.3791     2.6061    2 B    1 0 0
  74 O    1     1.3791     2.6061    6 B    1 1 0
  74 O    1     2.3880     4.5126   76 O    1 0 0
  74 O    1     2.3882     4.5130   78 O    1 1 0
  74 O    1     2.5383     4.7966   62 C    1 1 0
  74 O    1     2.5384     4.7968   50 C    0 0 0

  75 O    1     1.3793     2.6065    1 B    0 0 0
  75 O    1     1.3793     2.6065    3 B    0 0 0
  75 O    1     2.3880     4.5126   73 O   -1 0 0
  75 O    1     2.3882     4.5131   77 O    0 1 0
  75 O    1     2.5391     4.7981   37 C    0 0 0
  75 O    1     2.5395     4.7990   49 C   -1 0 0

  76 O    1     1.3793     2.6065    2 B    0 0 0
  76 O    1     1.3793     2.6065    4 B    0 1 0
  76 O    1     2.3880     4.5126   74 O   -1 0 0
  76 O    1     2.3882     4.5131   78 O    0 1 0
  76 O    1     2.5391     4.7981   38 C    0 1 0
  76 O    1     2.5395     4.7990   50 C   -1 0 0

  77 O    1     1.3793     2.6064    5 B    0 0 0
  77 O    1     1.3793     2.6065    3 B    0-1 0
  77 O    1     2.3882     4.5130   73 O   -1-1 0
  77 O    1     2.3882     4.5131   75 O    0-1 0
  77 O    1     2.5390     4.7980   37 C    0-1 0
  77 O    1     2.5391     4.7982   61 C   -1-1 0

  78 O    1     1.3793     2.6064    6 B    0 0 0
  78 O    1     1.3793     2.6065    4 B    0 0 0
  78 O    1     2.3882     4.5130   74 O   -1-1 0
  78 O    1     2.3882     4.5131   76 O    0-1 0
  78 O    1     2.5390     4.7980   38 C    0 0 0
  78 O    1     2.5391     4.7982   62 C    0 0 0

  79 O    1     1.3795     2.6068   11 B    0 0 0
  79 O    1     1.3795     2.6068    7 B    0 0 0
  79 O    1     2.3880     4.5126   83 O    1 0 0
  79 O    1     2.3884     4.5134   81 O    0-1 0
  79 O    1     2.5400     4.7998   47 C    0 0 0
  79 O    1     2.5403     4.8005   59 C    0 0 0

  80 O    1     1.3795     2.6068   12 B    0 0 0
  80 O    1     1.3795     2.6068    8 B    0 0 0
  80 O    1     2.3880     4.5126   84 O    1 0 0
  80 O    1     2.3884     4.5134   82 O    0-1 0
  80 O    1     2.5400     4.7998   48 C    0 0 0
  80 O    1     2.5403     4.8005   60 C    0 0 0

  81 O    1     1.3795     2.6069    9 B    0 0 0
  81 O    1     1.3795     2.6070    7 B    0 1 0
  81 O    1     2.3881     4.5128   83 O    1 1 0
  81 O    1     2.3884     4.5134   79 O    0 1 0
  81 O    1     2.5404     4.8006   47 C    0 1 0
  81 O    1     2.5405     4.8008   71 C    0 0 0

  82 O    1     1.3795     2.6069   10 B    1 1 0
  82 O    1     1.3795     2.6070    8 B    0 1 0
  82 O    1     2.3881     4.5128   84 O    1 1 0
  82 O    1     2.3884     4.5134   80 O    0 1 0
  82 O    1     2.5404     4.8006   48 C    0 1 0
  82 O    1     2.5405     4.8008   72 C    1 1 0

  83 O    1     1.3796     2.6071   11 B   -1 0 0
  83 O    1     1.3797     2.6072    9 B   -1-1 0
  83 O    1     2.3880     4.5126   79 O   -1 0 0
  83 O    1     2.3881     4.5128   81 O   -1-1 0
  83 O    1     2.5409     4.8016   71 C   -1-1 0
  83 O    1     2.5410     4.8019   59 C   -1 0 0

  84 O    1     1.3796     2.6071   12 B   -1 0 0
  84 O    1     1.3797     2.6072   10 B    0 0 0
  84 O    1     2.3880     4.5126   80 O   -1 0 0
  84 O    1     2.3881     4.5128   82 O   -1-1 0
  84 O    1     2.5409     4.8016   72 C    0 0 0
  84 O    1     2.5410     4.8019   60 C   -1 0 0


 SYMMETRY ALLOWED INTERNAL DEGREE(S) OF FREEDOM: 249
 TTTTTTTTTTTTTTTTTTTTTTTTTTTTTT SYMM        TELAPSE        2.42 TCPU        2.42
 TTTTTTTTTTTTTTTTTTTTTTTTTTTTTT INT_SCREEN  TELAPSE        2.61 TCPU        2.60

 DFT PARAMETERS

     ATOM       ELECTRONS   NET CHARGE   R(ANGSTROM)
   1   5  B       5.0000      0.0000     0.89000000
  13   1  H       1.0000      0.0000     1.11000000
  37   6  C       6.0000      0.0000     0.77000000
  73   8  O       8.0000      0.0000     0.74000000

 SIZE OF GRID=    2671568
 TTTTTTTTTTTTTTTTTTTTTTTTTTTTTT MAKE_GRID2  TELAPSE       20.04 TCPU       20.00
 BECKE WEIGHT FUNCTION
 RADSAFE =     2.00
 TOLERANCES - DENSITY:10**- 6; POTENTIAL:10**- 9; GRID WGT:10**-14

 RADIAL INTEGRATION  - INTERVALS (POINTS,UPPER LIMIT):            1( 75,  4.0*R)

 ANGULAR INTEGRATION - INTERVALS (ACCURACY LEVEL [N. POINTS] UPPER LIMIT):
  1(  4[  86]   0.2)  2(  8[ 194]   0.5)  3( 12[ 350]   0.9)  4( 16[ 974]   3.5)
  5( 12[ 350]9999.0)
 TTTTTTTTTTTTTTTTTTTTTTTTTTTTTT INT_CALC    TELAPSE       20.27 TCPU       20.23
 EEEEEEEEEE INT_CALC TERMINATION  DATE 19 02 2026 TIME 20:30:24.1

 *******************************************************************************
 cof-1_z45_L010_serr                                                             
 CRYSTAL - SCF - TYPE OF CALCULATION :  RESTRICTED CLOSED SHELL
 *******************************************************************************

 CAPPA:IS1  2;IS2  2;IS3  8; K PTS MONK NET  20; SYMMOPS:K SPACE   2;G SPACE   1

 TTTTTTTTTTTTTTTTTTTTTTTTTTTTTT SDIK        TELAPSE       24.26 TCPU       67.28

 AAAAAAAAAAAAAAAAAAAAAAAAAAAAAAAAAAAAAAAAAAAAAAAAAAAAAAAAAAAAAAAAAAAAAAAAAAAAAAA
         ATOMIC WAVEFUNCTION(S)


 NUCLEAR CHARGE  5.0  SYMMETRY SPECIES            S    P
 N. ELECTRONS    5.0  NUMBER OF PRIMITIVE GTOS    8    4
                      NUMBER OF CONTRACTED GTOS   4    2
                      NUMBER OF CLOSED SHELLS     2    0
                      OPEN SHELL OCCUPATION       0    1

  ZNUC  SCFIT    TOTAL HF ENERGY   KINETIC ENERGY   VIRIAL THEOREM ACCURACY
   5.0    11    -2.451164084E+01  2.462155050E+01 -1.995536038E+00  1.5E-06

 NUCLEAR CHARGE  1.0  SYMMETRY SPECIES            S
 N. ELECTRONS    1.0  NUMBER OF PRIMITIVE GTOS    4
                      NUMBER OF CONTRACTED GTOS   2
                      NUMBER OF CLOSED SHELLS     0
                      OPEN SHELL OCCUPATION       1

  ZNUC  SCFIT    TOTAL HF ENERGY   KINETIC ENERGY   VIRIAL THEOREM ACCURACY
   1.0     1    -4.977266687E-01  5.190767460E-01 -1.958869132E+00  0.0E+00

 NUCLEAR CHARGE  6.0  SYMMETRY SPECIES            S    P
 N. ELECTRONS    6.0  NUMBER OF PRIMITIVE GTOS    8    4
                      NUMBER OF CONTRACTED GTOS   4    2
                      NUMBER OF CLOSED SHELLS     2    0
                      OPEN SHELL OCCUPATION       0    2

  ZNUC  SCFIT    TOTAL HF ENERGY   KINETIC ENERGY   VIRIAL THEOREM ACCURACY
   6.0     9    -3.766704647E+01  3.775180683E+01 -1.997754800E+00  1.1E-06

 NUCLEAR CHARGE  8.0  SYMMETRY SPECIES            S    P
 N. ELECTRONS    8.0  NUMBER OF PRIMITIVE GTOS    8    4
                      NUMBER OF CONTRACTED GTOS   4    2
                      NUMBER OF CLOSED SHELLS     2    0
                      OPEN SHELL OCCUPATION       0    4

  ZNUC  SCFIT    TOTAL HF ENERGY   KINETIC ENERGY   VIRIAL THEOREM ACCURACY
   8.0    12    -7.477373220E+01  7.477365593E+01 -2.000001020E+00  3.8E-06

 AAAAAAAAAAAAAAAAAAAAAAAAAAAAAAAAAAAAAAAAAAAAAAAAAAAAAAAAAAAAAAAAAAAAAAAAAAAAAAA

 CHARGE NORMALIZATION FACTOR   1.00000000
 TOTAL ATOMIC CHARGES:
   5.0000000   5.0000000   5.0000000   5.0000000   5.0000000   5.0000000
   5.0000000   5.0000000   5.0000000   5.0000000   5.0000000   5.0000000
   1.0000000   1.0000000   1.0000000   1.0000000   1.0000000   1.0000000
   1.0000000   1.0000000   1.0000000   1.0000000   1.0000000   1.0000000
   1.0000000   1.0000000   1.0000000   1.0000000   1.0000000   1.0000000
   1.0000000   1.0000000   1.0000000   1.0000000   1.0000000   1.0000000
   6.0000000   6.0000000   6.0000000   6.0000000   6.0000000   6.0000000
   6.0000000   6.0000000   6.0000000   6.0000000   6.0000000   6.0000000
   6.0000000   6.0000000   6.0000000   6.0000000   6.0000000   6.0000000
   6.0000000   6.0000000   6.0000000   6.0000000   6.0000000   6.0000000
   6.0000000   6.0000000   6.0000000   6.0000000   6.0000000   6.0000000
   6.0000000   6.0000000   6.0000000   6.0000000   6.0000000   6.0000000
   8.0000000   8.0000000   8.0000000   8.0000000   8.0000000   8.0000000
   8.0000000   8.0000000   8.0000000   8.0000000   8.0000000   8.0000000
 TTTTTTTTTTTTTTTTTTTTTTTTTTTTTT MOQGAD      TELAPSE       24.43 TCPU       69.12
 TTTTTTTTTTTTTTTTTTTTTTTTTTTTTT SHELLXN     TELAPSE       43.89 TCPU      454.15
 TTTTTTTTTTTTTTTTTTTTTTTTTTTTTT MONMO3      TELAPSE       44.41 TCPU      469.80
 NUMERICALLY INTEGRATED DENSITY    395.9998951687
 TTTTTTTTTTTTTTTTTTTTTTTTTTTTTT NUMDFT      TELAPSE       45.70 TCPU      509.77
 CYC   0 ETOT(AU) -2.591908658067E+03 DETOT -2.59E+03 tst  0.00E+00 PX  1.00E+00
 TTTTTTTTTTTTTTTTTTTTTTTTTTTTTT DIIS        TELAPSE       45.80 TCPU      512.81
 TTTTTTTTTTTTTTTTTTTTTTTTTTTTTT FDIK        TELAPSE       47.62 TCPU      570.73
 INSULATING STATE
 TOP OF VALENCE BANDS -    BAND    198; K    1; EIG -3.1250237E-01 AU
 BOTTOM OF VIRTUAL BANDS - BAND    199; K    1; EIG -1.5892145E-01 AU
 DIRECT ENERGY BAND GAP:   4.1792 eV
 TTTTTTTTTTTTTTTTTTTTTTTTTTTTTT PDIG        TELAPSE       49.08 TCPU      577.44
 CHARGE NORMALIZATION FACTOR   1.00000000
 TOTAL ATOMIC CHARGES:
   4.1652793   4.1607317   4.1618187   4.1638611   4.1620537   4.1641163
   4.1637074   4.1616724   4.1634921   4.1614448   4.1603697   4.1649020
   0.7851628   0.7851997   0.7853145   0.7852775   0.7852457   0.7850677
   0.7851866   0.7853642   0.7850868   0.7852363   0.7854009   0.7852525
   0.7850756   0.7852254   0.7853638   0.7852150   0.7852485   0.7850700
   0.7852516   0.7854297   0.7851142   0.7851520   0.7853085   0.7852709
   6.0442589   6.0438570   6.2657792   6.2652605   6.2652235   6.2657405
   6.2654593   6.2654623   6.2654050   6.2653986   6.0431303   6.0435248
   6.0434176   6.0445268   6.2652708   6.2656710   6.2657479   6.2653491
   6.2651889   6.2655774   6.2657592   6.2653725   6.0433093   6.0422142
   6.0446245   6.0442202   6.2652180   6.2652299   6.2657757   6.2657609
   6.2654040   6.2648879   6.2655008   6.2660144   6.0426674   6.0430637
   8.6918187   8.6922374   8.6919273   8.6923463   8.6923337   8.6913943
   8.6926617   8.6922459   8.6917981   8.6927361   8.6928376   8.6924208
 TTTTTTTTTTTTTTTTTTTTTTTTTTTTTT MOQGAD      TELAPSE       49.16 TCPU      577.53
 TTTTTTTTTTTTTTTTTTTTTTTTTTTTTT SHELLXN     TELAPSE       61.73 TCPU      978.11
 TTTTTTTTTTTTTTTTTTTTTTTTTTTTTT MONMO3      TELAPSE       62.22 TCPU      993.73
 NUMERICALLY INTEGRATED DENSITY    395.9999309540
 TTTTTTTTTTTTTTTTTTTTTTTTTTTTTT NUMDFT      TELAPSE       63.48 TCPU     1034.20
 CYC   1 ETOT(AU) -2.577612487703E+03 DETOT  1.43E+01 tst  0.00E+00 PX  1.00E+00
 TTTTTTTTTTTTTTTTTTTTTTTTTTTTTT DIIS        TELAPSE       63.61 TCPU     1038.24
 DIIS TEST: 0.22607E+01 AT SCF   CYCLE   1 - MIX   30 %
 TTTTTTTTTTTTTTTTTTTTTTTTTTTTTT FDIK        TELAPSE       65.44 TCPU     1096.68
 INSULATING STATE
 TOP OF VALENCE BANDS -    BAND    198; K    1; EIG -2.2015425E-01 AU
 BOTTOM OF VIRTUAL BANDS - BAND    199; K    1; EIG -8.0645400E-02 AU
 DIRECT ENERGY BAND GAP:   3.7962 eV
 TTTTTTTTTTTTTTTTTTTTTTTTTTTTTT PDIG        TELAPSE       66.90 TCPU     1103.40
 CHARGE NORMALIZATION FACTOR   1.00000000
 TOTAL ATOMIC CHARGES:
   4.7049805   4.7256279   4.7194039   4.7098897   4.7194375   4.7099182
   4.7101736   4.7197179   4.7101374   4.7196919   4.7258840   4.7052421
   0.9152157   0.9160884   0.9161675   0.9152641   0.9156667   0.9166275
   0.9166664   0.9156914   0.9165799   0.9141672   0.9142057   0.9166710
   0.9165612   0.9141369   0.9142005   0.9166475   0.9156588   0.9166191
   0.9167375   0.9157642   0.9151559   0.9160345   0.9161765   0.9152622
   5.8684449   5.8559361   6.1351885   6.1150361   6.1155354   6.1357125
   6.1253118   6.1325696   6.1332116   6.1259869   5.8587181   5.8712303
   5.8481833   5.8763737   6.1217923   6.1330284   6.1338674   6.1225672
   6.1220230   6.1332800   6.1337162   6.1224458   5.8797803   5.8514947
   5.8683571   5.8558799   6.1253754   6.1326502   6.1330428   6.1258220
   6.1354324   6.1152366   6.1152976   6.1354598   5.8589130   5.8714451
   8.3330138   8.3349272   8.3334023   8.3352987   8.3384596   8.3341707
   8.3348130   8.3328794   8.3338862   8.3382416   8.3352224   8.3332680
 TTTTTTTTTTTTTTTTTTTTTTTTTTTTTT MOQGAD      TELAPSE       66.99 TCPU     1103.48
 TTTTTTTTTTTTTTTTTTTTTTTTTTTTTT SHELLXN     TELAPSE       79.55 TCPU     1504.08
 TTTTTTTTTTTTTTTTTTTTTTTTTTTTTT MONMO3      TELAPSE       80.04 TCPU     1519.71
 NUMERICALLY INTEGRATED DENSITY    395.9999140895
 TTTTTTTTTTTTTTTTTTTTTTTTTTTTTT NUMDFT      TELAPSE       81.31 TCPU     1560.26
 CYC   2 ETOT(AU) -2.578003733950E+03 DETOT -3.91E-01 tst  4.48E-03 PX  1.58E-01
 TTTTTTTTTTTTTTTTTTTTTTTTTTTTTT DIIS        TELAPSE       81.46 TCPU     1565.01
 DIIS TEST: 0.94971E+00 AT SCF   CYCLE   2 - DIIS ACTIVE - HISTORY:     2 CYCLES
 TTTTTTTTTTTTTTTTTTTTTTTTTTTTTT FDIK        TELAPSE       83.29 TCPU     1623.48
 INSULATING STATE
 TOP OF VALENCE BANDS -    BAND    198; K    1; EIG -2.3463800E-01 AU
 BOTTOM OF VIRTUAL BANDS - BAND    199; K    1; EIG -7.6431201E-02 AU
 DIRECT ENERGY BAND GAP:   4.3050 eV
 TTTTTTTTTTTTTTTTTTTTTTTTTTTTTT PDIG        TELAPSE       84.75 TCPU     1630.21
 CHARGE NORMALIZATION FACTOR   1.00000000
 TOTAL ATOMIC CHARGES:
   4.5004076   4.5105640   4.5068576   4.5023763   4.5070212   4.5025128
   4.5019390   4.5064472   4.5017533   4.5062683   4.5099086   4.4997508
   0.8921950   0.8884690   0.8885685   0.8923769   0.8895282   0.8920892
   0.8922165   0.8896485   0.8898747   0.8905373   0.8908100   0.8900549
   0.8899098   0.8905634   0.8907576   0.8899787   0.8895324   0.8920957
   0.8922646   0.8897050   0.8921927   0.8884776   0.8885247   0.8923283
   5.8849546   5.8925084   6.1558950   6.1626202   6.1619336   6.1552736
   6.1604968   6.1581137   6.1574881   6.1597037   5.8912954   5.8836764
   5.8972906   5.8821515   6.1616298   6.1565491   6.1558437   6.1610488
   6.1616514   6.1565957   6.1557550   6.1610299   5.8804492   5.8956261
   5.8851989   5.8927959   6.1604221   6.1580368   6.1576220   6.1598275
   6.1558321   6.1625125   6.1619777   6.1553077   5.8909964   5.8833808
   8.5085208   8.5077774   8.5087114   8.5079523   8.5071655   8.5084144
   8.5079203   8.5087144   8.5085706   8.5072312   8.5081137   8.5089111
 TTTTTTTTTTTTTTTTTTTTTTTTTTTTTT MOQGAD      TELAPSE       84.83 TCPU     1630.29
 TTTTTTTTTTTTTTTTTTTTTTTTTTTTTT SHELLXN     TELAPSE       97.40 TCPU     2030.95
 TTTTTTTTTTTTTTTTTTTTTTTTTTTTTT MONMO3      TELAPSE       97.89 TCPU     2046.58
 NUMERICALLY INTEGRATED DENSITY    395.9999157344
 TTTTTTTTTTTTTTTTTTTTTTTTTTTTTT NUMDFT      TELAPSE       99.16 TCPU     2087.12
 CYC   3 ETOT(AU) -2.578200356361E+03 DETOT -1.97E-01 tst  7.38E-04 PX  6.20E-02
 TTTTTTTTTTTTTTTTTTTTTTTTTTTTTT DIIS        TELAPSE       99.33 TCPU     2092.60
 DIIS TEST: 0.24188E-01 AT SCF   CYCLE   3 - DIIS ACTIVE - HISTORY:     3 CYCLES
 TTTTTTTTTTTTTTTTTTTTTTTTTTTTTT FDIK        TELAPSE      101.15 TCPU     2150.95
 INSULATING STATE
 TOP OF VALENCE BANDS -    BAND    198; K    1; EIG -2.4464565E-01 AU
 BOTTOM OF VIRTUAL BANDS - BAND    199; K    1; EIG -8.5415342E-02 AU
 DIRECT ENERGY BAND GAP:   4.3329 eV
 TTTTTTTTTTTTTTTTTTTTTTTTTTTTTT PDIG        TELAPSE      102.61 TCPU     2157.67
 CHARGE NORMALIZATION FACTOR   1.00000000
 TOTAL ATOMIC CHARGES:
   4.5060155   4.5183999   4.5135917   4.5078293   4.5137454   4.5079555
   4.5080532   4.5138295   4.5078772   4.5136634   4.5184239   4.5061040
   0.8729720   0.8745394   0.8746272   0.8729794   0.8736724   0.8742194
   0.8742461   0.8736705   0.8747115   0.8721920   0.8721836   0.8748293
   0.8747240   0.8721884   0.8721512   0.8747751   0.8736871   0.8742294
   0.8742990   0.8737243   0.8729560   0.8745322   0.8745963   0.8729387
   5.9436343   5.9305037   6.1686450   6.1525886   6.1535984   6.1696367
   6.1611585   6.1645305   6.1656687   6.1624647   5.9341816   5.9473256
   5.9229314   5.9515703   6.1558153   6.1676449   6.1690808   6.1570737
   6.1558385   6.1677160   6.1690217   6.1570669   5.9556866   5.9268869
   5.9435920   5.9305062   6.1610607   6.1644567   6.1657253   6.1625363
   6.1685851   6.1524689   6.1536777   6.1696941   5.9342074   5.9473739
   8.4757666   8.4779373   8.4760770   8.4782271   8.4807509   8.4762590
   8.4781002   8.4758471   8.4762109   8.4809076   8.4784503   8.4761791
 TTTTTTTTTTTTTTTTTTTTTTTTTTTTTT MOQGAD      TELAPSE      102.70 TCPU     2157.75
 TTTTTTTTTTTTTTTTTTTTTTTTTTTTTT SHELLXN     TELAPSE      115.26 TCPU     2558.36
 TTTTTTTTTTTTTTTTTTTTTTTTTTTTTT MONMO3      TELAPSE      115.75 TCPU     2573.98
 NUMERICALLY INTEGRATED DENSITY    395.9999171886
 TTTTTTTTTTTTTTTTTTTTTTTTTTTTTT NUMDFT      TELAPSE      117.03 TCPU     2614.77
 CYC   4 ETOT(AU) -2.578205167520E+03 DETOT -4.81E-03 tst  2.65E-05 PX  1.67E-02
 TTTTTTTTTTTTTTTTTTTTTTTTTTTTTT DIIS        TELAPSE      117.22 TCPU     2620.90
 DIIS TEST: 0.85195E-02 AT SCF   CYCLE   4 - DIIS ACTIVE - HISTORY:     4 CYCLES
 TTTTTTTTTTTTTTTTTTTTTTTTTTTTTT FDIK        TELAPSE      119.05 TCPU     2679.54
 INSULATING STATE
 TOP OF VALENCE BANDS -    BAND    198; K    1; EIG -2.4295027E-01 AU
 BOTTOM OF VIRTUAL BANDS - BAND    199; K    1; EIG -8.4749771E-02 AU
 DIRECT ENERGY BAND GAP:   4.3049 eV
 TTTTTTTTTTTTTTTTTTTTTTTTTTTTTT PDIG        TELAPSE      120.51 TCPU     2686.26
 CHARGE NORMALIZATION FACTOR   1.00000000
 TOTAL ATOMIC CHARGES:
   4.5064744   4.5208757   4.5159744   4.5094686   4.5161268   4.5095980
   4.5092159   4.5157651   4.5090450   4.5156044   4.5204653   4.5060395
   0.8776079   0.8760987   0.8762348   0.8778232   0.8765539   0.8778365
   0.8780039   0.8767218   0.8766672   0.8764387   0.8767288   0.8768668
   0.8766815   0.8764418   0.8766934   0.8768082   0.8765571   0.8778400
   0.8780595   0.8767847   0.8775826   0.8760842   0.8762105   0.8777930
   5.9186409   5.9197711   6.1648124   6.1617925   6.1608957   6.1640113
   6.1640460   6.1660631   6.1652344   6.1629962   5.9180594   5.9168741
   5.9203490   5.9190608   6.1644775   6.1642015   6.1633424   6.1637598
   6.1645574   6.1643041   6.1632251   6.1637028   5.9170940   5.9183904
   5.9188158   5.9199902   6.1639879   6.1660099   6.1653014   6.1630572
   6.1648322   6.1617641   6.1608779   6.1639783   5.9178559   5.9166796
   8.4868417   8.4868177   8.4870709   8.4870294   8.4875489   8.4873252
   8.4868230   8.4869209   8.4873595   8.4874555   8.4870645   8.4871585
 TTTTTTTTTTTTTTTTTTTTTTTTTTTTTT MOQGAD      TELAPSE      120.60 TCPU     2686.35
 TTTTTTTTTTTTTTTTTTTTTTTTTTTTTT SHELLXN     TELAPSE      133.16 TCPU     3086.91
 TTTTTTTTTTTTTTTTTTTTTTTTTTTTTT MONMO3      TELAPSE      133.65 TCPU     3102.53
 NUMERICALLY INTEGRATED DENSITY    395.9999170948
 TTTTTTTTTTTTTTTTTTTTTTTTTTTTTT NUMDFT      TELAPSE      134.92 TCPU     3143.07
 CYC   5 ETOT(AU) -2.578207102573E+03 DETOT -1.94E-03 tst  6.50E-06 PX  9.58E-03
 TTTTTTTTTTTTTTTTTTTTTTTTTTTTTT DIIS        TELAPSE      135.13 TCPU     3149.73
 DIIS TEST: 0.26047E-03 AT SCF   CYCLE   5 - DIIS ACTIVE - HISTORY:     5 CYCLES
 TTTTTTTTTTTTTTTTTTTTTTTTTTTTTT FDIK        TELAPSE      136.96 TCPU     3207.89
 INSULATING STATE
 TOP OF VALENCE BANDS -    BAND    198; K    1; EIG -2.4253922E-01 AU
 BOTTOM OF VIRTUAL BANDS - BAND    199; K    1; EIG -8.4154946E-02 AU
 DIRECT ENERGY BAND GAP:   4.3099 eV
 TTTTTTTTTTTTTTTTTTTTTTTTTTTTTT PDIG        TELAPSE      138.42 TCPU     3214.61
 CHARGE NORMALIZATION FACTOR   1.00000000
 TOTAL ATOMIC CHARGES:
   4.5070382   4.5197191   4.5150909   4.5093219   4.5152449   4.5094493
   4.5095068   4.5152717   4.5093343   4.5151071   4.5196726   4.5070772
   0.8782750   0.8777625   0.8778251   0.8782405   0.8776185   0.8791347
   0.8791259   0.8775782   0.8786078   0.8771149   0.8770826   0.8787166
   0.8786293   0.8771213   0.8770427   0.8786543   0.8776313   0.8791433
   0.8791772   0.8776317   0.8782655   0.8777617   0.8777896   0.8781955
   5.9186056   5.9126153   6.1657737   6.1576235   6.1589726   6.1670788
   6.1623432   6.1634159   6.1649038   6.1640764   5.9171477   5.9231431
   5.9092907   5.9228048   6.1589809   6.1653824   6.1671048   6.1604893
   6.1589661   6.1654138   6.1670674   6.1605112   5.9275287   5.9138644
   5.9186258   5.9126800   6.1622490   6.1633408   6.1649926   6.1641751
   6.1656736   6.1574680   6.1590747   6.1671636   5.9170952   5.9231089
   8.4861366   8.4871344   8.4864204   8.4873997   8.4885576   8.4863511
   8.4874138   8.4862980   8.4863926   8.4888660   8.4877229   8.4865961
 TTTTTTTTTTTTTTTTTTTTTTTTTTTTTT MOQGAD      TELAPSE      138.51 TCPU     3214.69
 TTTTTTTTTTTTTTTTTTTTTTTTTTTTTT SHELLXN     TELAPSE      151.07 TCPU     3615.32
 TTTTTTTTTTTTTTTTTTTTTTTTTTTTTT MONMO3      TELAPSE      151.56 TCPU     3630.94
 NUMERICALLY INTEGRATED DENSITY    395.9999170302
 TTTTTTTTTTTTTTTTTTTTTTTTTTTTTT NUMDFT      TELAPSE      152.83 TCPU     3671.45
 CYC   6 ETOT(AU) -2.578207120008E+03 DETOT -1.74E-05 tst  2.79E-06 PX  2.74E-03
 TTTTTTTTTTTTTTTTTTTTTTTTTTTTTT DIIS        TELAPSE      153.08 TCPU     3678.13
 DIIS TEST: 0.19637E-03 AT SCF   CYCLE   6 - DIIS ACTIVE - HISTORY:     6 CYCLES
 TTTTTTTTTTTTTTTTTTTTTTTTTTTTTT FDIK        TELAPSE      154.90 TCPU     3736.26
 INSULATING STATE
 TOP OF VALENCE BANDS -    BAND    198; K    1; EIG -2.4262180E-01 AU
 BOTTOM OF VIRTUAL BANDS - BAND    199; K    1; EIG -8.4168060E-02 AU
 DIRECT ENERGY BAND GAP:   4.3117 eV
 TTTTTTTTTTTTTTTTTTTTTTTTTTTTTT PDIG        TELAPSE      156.36 TCPU     3742.98
 CHARGE NORMALIZATION FACTOR   1.00000000
 TOTAL ATOMIC CHARGES:
   4.5069633   4.5201826   4.5154650   4.5094805   4.5156189   4.5096095
   4.5093114   4.5153296   4.5091389   4.5151659   4.5198366   4.5066235
   0.8783759   0.8774581   0.8775786   0.8785374   0.8775499   0.8789535
   0.8790822   0.8776720   0.8781555   0.8772019   0.8774125   0.8783286
   0.8781717   0.8772052   0.8773766   0.8782697   0.8775577   0.8789602
   0.8791350   0.8777303   0.8783571   0.8774498   0.8775493   0.8785012
   5.9200502   5.9173048   6.1652637   6.1593541   6.1589359   6.1649104
   6.1630534   6.1646814   6.1643382   6.1625812   5.9169458   5.9196584
   5.9158033   5.9225148   6.1614489   6.1647362   6.1644692   6.1612446
   6.1615069   6.1648270   6.1643688   6.1612037   5.9221186   5.9153659
   5.9201663   5.9174642   6.1629749   6.1646140   6.1644178   6.1626618
   6.1652442   6.1592825   6.1589592   6.1649165   5.9168008   5.9195260
   8.4860820   8.4866630   8.4863306   8.4868935   8.4878673   8.4864705
   8.4867257   8.4861799   8.4864948   8.4878474   8.4869948   8.4864413
 TTTTTTTTTTTTTTTTTTTTTTTTTTTTTT MOQGAD      TELAPSE      156.45 TCPU     3743.07
 TTTTTTTTTTTTTTTTTTTTTTTTTTTTTT SHELLXN     TELAPSE      169.01 TCPU     4143.62
 TTTTTTTTTTTTTTTTTTTTTTTTTTTTTT MONMO3      TELAPSE      169.50 TCPU     4159.24
 NUMERICALLY INTEGRATED DENSITY    395.9999170189
 TTTTTTTTTTTTTTTTTTTTTTTTTTTTTT NUMDFT      TELAPSE      170.77 TCPU     4199.75
 CYC   7 ETOT(AU) -2.578207170955E+03 DETOT -5.09E-05 tst  1.03E-06 PX  1.54E-03
 TTTTTTTTTTTTTTTTTTTTTTTTTTTTTT DIIS        TELAPSE      171.03 TCPU     4206.46
 DIIS TEST: 0.77343E-05 AT SCF   CYCLE   7 - DIIS ACTIVE - HISTORY:     7 CYCLES
 TTTTTTTTTTTTTTTTTTTTTTTTTTTTTT FDIK        TELAPSE      172.86 TCPU     4264.82
 INSULATING STATE
 TOP OF VALENCE BANDS -    BAND    198; K    1; EIG -2.4263640E-01 AU
 BOTTOM OF VIRTUAL BANDS - BAND    199; K    1; EIG -8.4208213E-02 AU
 DIRECT ENERGY BAND GAP:   4.3111 eV
 TTTTTTTTTTTTTTTTTTTTTTTTTTTTTT PDIG        TELAPSE      174.33 TCPU     4271.53
 CHARGE NORMALIZATION FACTOR   1.00000000
 TOTAL ATOMIC CHARGES:
   4.5068751   4.5203098   4.5155604   4.5094742   4.5157138   4.5096030
   4.5094184   4.5155256   4.5092463   4.5153623   4.5200609   4.5066526
   0.8783951   0.8773844   0.8774856   0.8784953   0.8775337   0.8789217
   0.8790066   0.8776041   0.8780670   0.8772235   0.8773652   0.8782240
   0.8780849   0.8772286   0.8773275   0.8781634   0.8775412   0.8789277
   0.8790603   0.8776628   0.8783774   0.8773766   0.8774558   0.8784581
   5.9190836   5.9167687   6.1647956   6.1592509   6.1593780   6.1649545
   6.1627170   6.1643852   6.1646205   6.1629435   5.9179253   5.9202142
   5.9154800   5.9213344   6.1614001   6.1642614   6.1645781   6.1616984
   6.1614396   6.1643336   6.1644953   6.1616753   5.9224344   5.9165109
   5.9191901   5.9169195   6.1626432   6.1643227   6.1646957   6.1630197
   6.1647642   6.1591679   6.1594122   6.1649722   5.9177892   5.9200915
   8.4861345   8.4866233   8.4863890   8.4868596   8.4877321   8.4865140
   8.4867500   8.4862474   8.4865517   8.4878227   8.4870230   8.4865132
 TTTTTTTTTTTTTTTTTTTTTTTTTTTTTT MOQGAD      TELAPSE      174.41 TCPU     4271.62
 TTTTTTTTTTTTTTTTTTTTTTTTTTTTTT SHELLXN     TELAPSE      186.98 TCPU     4672.27
 TTTTTTTTTTTTTTTTTTTTTTTTTTTTTT MONMO3      TELAPSE      187.47 TCPU     4687.91
 NUMERICALLY INTEGRATED DENSITY    395.9999170152
 TTTTTTTTTTTTTTTTTTTTTTTTTTTTTT NUMDFT      TELAPSE      188.74 TCPU     4728.48
 CYC   8 ETOT(AU) -2.578207172276E+03 DETOT -1.32E-06 tst  4.05E-08 PX  2.98E-04
 TTTTTTTTTTTTTTTTTTTTTTTTTTTTTT DIIS        TELAPSE      189.02 TCPU     4735.13
 DIIS TEST: 0.18347E-05 AT SCF   CYCLE   8 - DIIS ACTIVE - HISTORY:     8 CYCLES
 TTTTTTTTTTTTTTTTTTTTTTTTTTTTTT FDIK        TELAPSE      190.85 TCPU     4793.26
 INSULATING STATE
 TOP OF VALENCE BANDS -    BAND    198; K    1; EIG -2.4263433E-01 AU
 BOTTOM OF VIRTUAL BANDS - BAND    199; K    1; EIG -8.4218312E-02 AU
 DIRECT ENERGY BAND GAP:   4.3107 eV
 TTTTTTTTTTTTTTTTTTTTTTTTTTTTTT PDIG        TELAPSE      192.31 TCPU     4799.97
 CHARGE NORMALIZATION FACTOR   1.00000000
 TOTAL ATOMIC CHARGES:
   4.5069282   4.5203447   4.5155951   4.5095155   4.5157484   4.5096441
   4.5094258   4.5155310   4.5092539   4.5153679   4.5200679   4.5066718
   0.8783431   0.8773915   0.8774993   0.8784626   0.8775098   0.8789005
   0.8790001   0.8775973   0.8780828   0.8771751   0.8773373   0.8782446
   0.8781002   0.8771795   0.8773001   0.8781846   0.8775178   0.8789069
   0.8790533   0.8776555   0.8783255   0.8773839   0.8774693   0.8784253
   5.9194129   5.9167961   6.1650177   6.1592509   6.1592098   6.1650186
   6.1628657   6.1644601   6.1645086   6.1628672   5.9174718   5.9200614
   5.9153299   5.9218149   6.1613300   6.1645125   6.1646535   6.1614759
   6.1613723   6.1645886   6.1645679   6.1614498   5.9224629   5.9159176
   5.9195167   5.9169439   6.1627890   6.1643950   6.1645862   6.1629462
   6.1649860   6.1591673   6.1592445   6.1650368   5.9173384   5.9199414
   8.4861454   8.4866858   8.4863995   8.4869218   8.4878292   8.4865097
   8.4867943   8.4862556   8.4865397   8.4878816   8.4870679   8.4865216
 TTTTTTTTTTTTTTTTTTTTTTTTTTTTTT MOQGAD      TELAPSE      192.39 TCPU     4800.06
 TTTTTTTTTTTTTTTTTTTTTTTTTTTTTT SHELLXN     TELAPSE      204.97 TCPU     5200.56
 TTTTTTTTTTTTTTTTTTTTTTTTTTTTTT MONMO3      TELAPSE      205.46 TCPU     5216.20
 NUMERICALLY INTEGRATED DENSITY    395.9999170141
 TTTTTTTTTTTTTTTTTTTTTTTTTTTTTT NUMDFT      TELAPSE      206.73 TCPU     5256.73
 CYC   9 ETOT(AU) -2.578207172584E+03 DETOT -3.08E-07 tst  5.52E-09 PX  1.47E-04
 TTTTTTTTTTTTTTTTTTTTTTTTTTTTTT DIIS        TELAPSE      207.03 TCPU     5263.48
 DIIS TEST: 0.33507E-07 AT SCF   CYCLE   9 - DIIS ACTIVE - HISTORY:     9 CYCLES
 TTTTTTTTTTTTTTTTTTTTTTTTTTTTTT FDIK        TELAPSE      208.85 TCPU     5321.51
 INSULATING STATE
 TOP OF VALENCE BANDS -    BAND    198; K    1; EIG -2.4263588E-01 AU
 BOTTOM OF VIRTUAL BANDS - BAND    199; K    1; EIG -8.4212000E-02 AU
 DIRECT ENERGY BAND GAP:   4.3109 eV
 TTTTTTTTTTTTTTTTTTTTTTTTTTTTTT PDIG        TELAPSE      210.31 TCPU     5328.23
 CHARGE NORMALIZATION FACTOR   1.00000000
 TOTAL ATOMIC CHARGES:
   4.5069276   4.5203091   4.5155633   4.5095017   4.5157168   4.5096305
   4.5094138   4.5155002   4.5092417   4.5153369   4.5200333   4.5066725
   0.8783427   0.8773918   0.8774991   0.8784610   0.8775125   0.8788992
   0.8789969   0.8775981   0.8780804   0.8771769   0.8773379   0.8782418
   0.8780976   0.8771811   0.8773010   0.8781819   0.8775203   0.8789056
   0.8790501   0.8776565   0.8783248   0.8773840   0.8774694   0.8784241
   5.9193839   5.9167890   6.1650328   6.1592495   6.1592180   6.1650430
   6.1628472   6.1644804   6.1645490   6.1628718   5.9175060   5.9200732
   5.9153591   5.9217788   6.1613483   6.1645040   6.1646559   6.1615048
   6.1613938   6.1645828   6.1645670   6.1614755   5.9224513   5.9159701
   5.9194917   5.9169407   6.1627708   6.1644154   6.1646267   6.1629506
   6.1650042   6.1591689   6.1592497   6.1650580   5.9173688   5.9199492
   8.4861375   8.4866765   8.4863904   8.4869112   8.4878289   8.4865126
   8.4867843   8.4862459   8.4865463   8.4878872   8.4870567   8.4865108
 TTTTTTTTTTTTTTTTTTTTTTTTTTTTTT MOQGAD      TELAPSE      210.40 TCPU     5328.32
 TTTTTTTTTTTTTTTTTTTTTTTTTTTTTT SHELLXN     TELAPSE      222.98 TCPU     5728.97
 +++ ENERGIES IN A.U. +++
 ::: EXT EL-POLE                                  -2.2111368825713E+03
 ::: EXT EL-SPHEROPOLE                             2.5392412177433E+01
 ::: BIELET ZONE E-E                               4.0203323535336E+03
 ::: TOTAL E-E                                     1.8345878831397E+03
 ::: TOTAL E-N + N-E                              -7.3341753779978E+03
 ::: TOTAL N-N                                     6.2892821535765E+02
 ::: KINETIC ENERGY                                2.5598876267320E+03
 ::: PSEUDO TOTAL   ENERGY                        -2.3107716527684E+03
 ::: VIRIAL COEFFICIENT                            1.0511462534471E+00
 TTTTTTTTTTTTTTTTTTTTTTTTTTTTTT MONMO3      TELAPSE      223.47 TCPU     5744.62
 NUMERICALLY INTEGRATED DENSITY    395.9999170138
 EXCHANGE ENERGY: -0.252057357677E+03  CORRELATION ENERGY: -0.153781622116E+02
 TTTTTTTTTTTTTTTTTTTTTTTTTTTTTT NUMDFT      TELAPSE      224.74 TCPU     5785.16
 CYC  10 ETOT(AU) -2.578207172657E+03 DETOT -7.35E-08 tst  5.09E-11 PX  1.47E-04

 == SCF ENDED - CONVERGENCE ON ENERGY      E(AU) -2.5782071726573E+03 CYCLES  10


 ENERGY EXPRESSION=HARTREE+FOCK EXCH*0.00000+(HSESOL     EXCH)*1.00000+PBESOL     CORR


 TOTAL ENERGY(DFT)(AU)( 10) -2.5782071726573E+03 DE-7.4E-08 tester 5.1E-11
 TTTTTTTTTTTTTTTTTTTTTTTTTTTTTT EDFT        TELAPSE      224.74 TCPU     5785.17
 
 INFORMATION **** DFTD3 ENERGY **** CALCULATE DFTD3 ENERGY

           DFT-D V3(BJ)
 DF                                         hsesol3c  
 parameters
 s6       :    1.0000
 s8       :    0.0000
 a1       :    0.5196
 a2       :    4.9385
 k1 k3    :   16.0000   -4.0000
 Cutoff   :   50.2022
 CN-Cutoff:   21.1671
 ABC-Cutoff:   21.1671
 
 Edisp /kcal,au:   -45.5391 -0.07257118

 E6    /kcal :   -48.3079
 E8    /kcal :     0.0000
 E6(ABC) "   :   2.768793
 
 INFORMATION **** DFTD3 ENERGY **** NORMAL TERMINATION OF DFTD3 MODULE

 GCP ENERGY CALCULATION
  level        hsesol3c            basis:hsesol3c
  Nbf            948
  Atoms           84

  Parameters: 
  sigma     1.0000
  eta       1.4281
  alpha     0.2936
  beta      1.9467

  dmp_scal      4.0000
  dmp_exp       6.0000
 cutoffs: 
   distance [bohr] 60.0
   noise    [a.u.] 2.2E-16
 SR-damping   T
 ** gCP correction **
  Egcp:        0.1658414333 / (a.u.) ||     104.0671 / (kcal/mol)
 INFORMATION **** GCP **** NORMAL TERMINATION OF GCP MODULE

 *******************************************************************************

 DFT-D3-GCP DISPERSION AND COUNTERPOISE CORRECTION

 D3 DISPERSION ENERGY (AU)      -7.2571180037911E-02
 GCP ENERGY (AU)                 1.6584143333912E-01
 TOTAL ENERGY + DISP + GCP (AU) -2.5781139024040E+03

 *******************************************************************************

 EIGENVECTORS IN FORTRAN UNIT  8
 TTTTTTTTTTTTTTTTTTTTTTTTTTTTTT END         TELAPSE      226.93 TCPU     5793.18
 EEEEEEEEEE TERMINATION  DATE 19 02 2026 TIME 20:33:50.8
