 Default number of threads is:           32

         
 *******************************************************************************
 *                                                                             *
 *                               CRYSTAL23                                     *
 *                      public : 1.0.1 - October 2022                          *
 *                       HTTP://WWW.CRYSTAL.UNITO.IT                           *
 *                                                                             *
 *                              MAIN AUTHORS                                   *
 *                                                                             *
 *  R. DOVESI(1,11), V.R. SAUNDERS(2), C. ROETTI(1,11), R. ORLANDO(1,11),      *
 *  C.M. ZICOVICH-WILSON(1,3), F. PASCALE(4), B. CIVALLERI(1,11),              *
 *  K. DOLL(5), N.M. HARRISON(6), I.J. BUSH(7), Ph. D'ARCO(8),                 *
 *  M. LLUNELL(9), M. CAUSA'(10), Y. NOEL(8), L. MASCHIO(1,11), A. ERBA(1,11)  *
 *  M. RE'RAT(14), S. CASASSA(1,11), B.G. SEARLE(2), J.K. DESMARAIS(1)         *
 *                                                                             *
 *        CONTRIBUTIONS TO THE CODE HAVE ALSO BEEN GIVEN BY                    *
 *                                                                             *
 *  M. FERRABONE(1,11), M. DE LA PIERRE(1,11), M. FERRERO(1,11),               *
 *  J. BAIMA(1,11), E. ALBANESE(1,11), M.F. PEINTINGER(12), R. BAST(13),       *
 *  B. KIRTMAN(15), V. LACIVITA(1,11), R. DEMICHELIS(1,16)                     *
 *  G. BRANDEBURG(17), S. SALUSTRO(1,11), G. SANSONE(1,11)                     *
 *  M.T. RUGGIERO(18), L.E. DAGA(1), L. DONA'(1), A. COSSARD(1)                *
 *                                                                             *
 * (1) THEORETICAL CHEMISTRY GROUP - UNIVERSITA' DI TORINO - TORINO (ITALY)    *
 * (2) SCIENTIFIC COMPUTING DEPARTMENT - STFC DARESBURY (UK)                   *
 * (3) UNIVERSIDAD AUTONOMA DEL ESTADO DE MORELOS - CUERNAVACA (MEXICO)        *
 * (4) UNIVERSITE' DE LORRAINE - NANCY (FRANCE)                                *
 * (5) UNIVERSITAET STUTTGART- STUTTGART (GERMANY)                             *
 * (6) IMPERIAL COLLEGE - LONDON (UK)                                          *
 * (7) SCIENTIFIC COMPUTING DEPARTMENT - STFC RAL (UK)                         *
 * (8) UPMC - SORBONNE UNIVERSITES - PARIS (FRANCE)                            *
 * (9) UNIVERSIDAD DE BARCELONA - BARCELONA (SPAIN)                            *
 *(10) UNIVERSITA' DI NAPOLI "FEDERICO II" - NAPOLI (ITALY)                    *
 *(11) NIS - NANOSTRUCTURED INTERFACES AND SURFACES - TORINO (ITALY)           *
 *(12) MPI FUER CHEMISCHE ENERGIEKONVERSION - MUELHEIM AN DER RUHR (GERMANY)   *
 *(13) UNIVERSITY OF TROMSO - TROMSO (NORWAY)                                  *
 *(14) UNIVERSITE' DE PAU ET DES PAYS DE L'ADOUR - PAU (FRANCE)                *
 *(15) UNIVERSITY OF CALIFORNIA SANTA BARBARA - SANTA BARBARA (USA)            *
 *(16) CURTIN UNIVERSITY - PERTH (AUSTRALIA)                                   *
 *(17) UNIVERSITY COLLEGE LONDON - LONDON (UK)                                 *
 *(18) UNIVERSITY OF VERMONT - BURLINGTON (USA)                                *
 *                                                                             *
 *******************************************************************************
 EEEEEEEEEE STARTING  DATE 19 02 2026 TIME 19:14:03.2
 cof-1_z42_L080_incl                                                             

 CRYSTAL CALCULATION
 (INPUT ACCORDING TO THE INTERNATIONAL TABLES FOR X-RAY CRYSTALLOGRAPHY)
 CRYSTAL FAMILY                       :  TRICLINIC   
 CRYSTAL CLASS  (GROTH - 1921)        :  TRICLINIC PEDIAL                     

 SPACE GROUP (NONCENTROSYMMETRIC)     :  P 1             

 LATTICE PARAMETERS  (ANGSTROMS AND DEGREES) - CONVENTIONAL CELL
        A           B           C        ALPHA        BETA       GAMMA
    15.02361    15.02392     9.03549    39.93210    89.99997   119.99596


 NUMBER OF IRREDUCIBLE ATOMS IN THE CONVENTIONAL CELL:   42

 INPUT COORDINATES

 ATOM AT. N.              COORDINATES
   1   5     4.596395700000E-01 -8.079503000000E-02  5.011316600000E-01
   2   5     6.186952300000E-01  7.826462000000E-02  5.011316700000E-01
   3   5     4.603703300000E-01  7.971761000000E-02  4.987404600000E-01
   4   5     7.321428000000E-02  3.055199600000E-01  5.011316700000E-01
   5   5     2.323222500000E-01  3.054992000000E-01  5.011316600000E-01
   6   5     2.330375600000E-01  4.661085900000E-01  4.987404600000E-01
   7   1     7.505265100000E-01  3.864820000000E-03  4.961742000000E-01
   8   1    -5.564956000000E-02  3.864542900000E-01  4.954161300000E-01
   9   1     7.507231900000E-01  2.895450200000E-01  4.952994500000E-01
  10   1    -5.552099000000E-02  1.011396400000E-01  4.953285500000E-01
  11   1     5.361667600000E-01 -2.127586500000E-01  5.038145300000E-01
  12   1     1.538310400000E-01  5.932084100000E-01  5.045726600000E-01
  13   1     2.507354200000E-01 -2.132506900000E-01  5.046894000000E-01
  14   1     4.391866500000E-01  5.930646500000E-01  5.046601100000E-01
  15   1     5.385556100000E-01  2.889889400000E-01  4.961742500000E-01
  16   1     1.566777500000E-01  1.010102100000E-01  4.954160800000E-01
  17   1     2.535923700000E-01  4.295900000000E-03  4.952993600000E-01
  18   1     4.420336800000E-01  3.864125700000E-01  4.953286500000E-01
  19   6     7.386112600000E-01  1.393544300000E-01  4.986529700000E-01
  20   6     7.939361300000E-01  8.764866000000E-02  4.962908700000E-01
  21   6    -9.910213000000E-02  3.021738000000E-01  4.960868200000E-01
  22   6     7.937736200000E-01  2.483041700000E-01  4.966992000000E-01
  23   6    -9.876809000000E-02  1.418301800000E-01  4.951244300000E-01
  24   6    -4.465155000000E-02  2.486297000000E-01  4.967283300000E-01
  25   6     3.999357000000E-01 -2.000703100000E-01  5.013358100000E-01
  26   6     4.523480700000E-01 -2.561350900000E-01  5.036978500000E-01
  27   6     2.379061500000E-01  6.368466200000E-01  5.039019800000E-01
  28   6     2.915832800000E-01 -2.558371800000E-01  5.032896200000E-01
  29   6     3.985285300000E-01  6.362153700000E-01  5.048642800000E-01
  30   6     2.912325900000E-01  5.825699700000E-01  5.032604200000E-01
  31   6     4.007658200000E-01  1.392852900000E-01  4.986529600000E-01
  32   6     4.546572300000E-01  2.484887800000E-01  4.962909200000E-01
  33   6     2.403331300000E-01  1.411605600000E-01  4.960867700000E-01
  34   6     2.936087900000E-01  8.730201000000E-02  4.966991300000E-01
  35   6     4.015485100000E-01  3.026781600000E-01  4.951245000000E-01
  36   6     2.932725400000E-01  2.485523000000E-01  4.967283300000E-01
  37   8     4.072335400000E-01 -2.666686000000E-02  4.993819900000E-01
  38   8     5.646278300000E-01 -2.976093000000E-02  5.044268600000E-01
  39   8     5.669650800000E-01  1.338637300000E-01  4.968158400000E-01
  40   8     1.268213600000E-01  4.126136000000E-01  4.993820200000E-01
  41   8     1.252901100000E-01  2.505563600000E-01  5.044268500000E-01
  42   8     2.865495000000E-01  4.141757000000E-01  4.968158200000E-01

 *******************************************************************************

 << INFORMATION >>: FROM NOW ON, ALL COORDINATES REFER TO THE PRIMITIVE CELL

 *******************************************************************************

 LATTICE PARAMETERS  (ANGSTROMS AND DEGREES) - PRIMITIVE CELL
       A          B          C        ALPHA      BETA     GAMMA        VOLUME
   15.02361   15.02392    9.03549    39.93210  89.99997 119.99596    821.031844

 COORDINATES OF THE EQUIVALENT ATOMS (FRACTIONAL UNITS)

 N. ATOM EQUIV AT. N.          X                  Y                  Z

   1   1   1    5 B     4.59639570000E-01 -8.07950300000E-02 -4.98868340000E-01

   2   2   1    5 B    -3.81304770000E-01  7.82646200000E-02 -4.98868330000E-01

   3   3   1    5 B     4.60370330000E-01  7.97176100000E-02  4.98740460000E-01

   4   4   1    5 B     7.32142800000E-02  3.05519960000E-01 -4.98868330000E-01

   5   5   1    5 B     2.32322250000E-01  3.05499200000E-01 -4.98868340000E-01

   6   6   1    5 B     2.33037560000E-01  4.66108590000E-01  4.98740460000E-01

   7   7   1    1 H    -2.49473490000E-01  3.86482000000E-03  4.96174200000E-01

   8   8   1    1 H    -5.56495600000E-02  3.86454290000E-01  4.95416130000E-01

   9   9   1    1 H    -2.49276810000E-01  2.89545020000E-01  4.95299450000E-01

  10  10   1    1 H    -5.55209900000E-02  1.01139640000E-01  4.95328550000E-01

  11  11   1    1 H    -4.63833240000E-01 -2.12758650000E-01 -4.96185470000E-01

  12  12   1    1 H     1.53831040000E-01 -4.06791590000E-01 -4.95427340000E-01

  13  13   1    1 H     2.50735420000E-01 -2.13250690000E-01 -4.95310600000E-01

  14  14   1    1 H     4.39186650000E-01 -4.06935350000E-01 -4.95339890000E-01

  15  15   1    1 H    -4.61444390000E-01  2.88988940000E-01  4.96174250000E-01

  16  16   1    1 H     1.56677750000E-01  1.01010210000E-01  4.95416080000E-01

  17  17   1    1 H     2.53592370000E-01  4.29590000000E-03  4.95299360000E-01

  18  18   1    1 H     4.42033680000E-01  3.86412570000E-01  4.95328650000E-01

  19  19   1    6 C    -2.61388740000E-01  1.39354430000E-01  4.98652970000E-01

  20  20   1    6 C    -2.06063870000E-01  8.76486600000E-02  4.96290870000E-01

  21  21   1    6 C    -9.91021300000E-02  3.02173800000E-01  4.96086820000E-01

  22  22   1    6 C    -2.06226380000E-01  2.48304170000E-01  4.96699200000E-01

  23  23   1    6 C    -9.87680900000E-02  1.41830180000E-01  4.95124430000E-01

  24  24   1    6 C    -4.46515500000E-02  2.48629700000E-01  4.96728330000E-01

  25  25   1    6 C     3.99935700000E-01 -2.00070310000E-01 -4.98664190000E-01

  26  26   1    6 C     4.52348070000E-01 -2.56135090000E-01 -4.96302150000E-01

  27  27   1    6 C     2.37906150000E-01 -3.63153380000E-01 -4.96098020000E-01

  28  28   1    6 C     2.91583280000E-01 -2.55837180000E-01 -4.96710380000E-01

  29  29   1    6 C     3.98528530000E-01 -3.63784630000E-01 -4.95135720000E-01

  30  30   1    6 C     2.91232590000E-01 -4.17430030000E-01 -4.96739580000E-01

  31  31   1    6 C     4.00765820000E-01  1.39285290000E-01  4.98652960000E-01

  32  32   1    6 C     4.54657230000E-01  2.48488780000E-01  4.96290920000E-01

  33  33   1    6 C     2.40333130000E-01  1.41160560000E-01  4.96086770000E-01

  34  34   1    6 C     2.93608790000E-01  8.73020100000E-02  4.96699130000E-01

  35  35   1    6 C     4.01548510000E-01  3.02678160000E-01  4.95124500000E-01

  36  36   1    6 C     2.93272540000E-01  2.48552300000E-01  4.96728330000E-01

  37  37   1    8 O     4.07233540000E-01 -2.66668600000E-02  4.99381990000E-01

  38  38   1    8 O    -4.35372170000E-01 -2.97609300000E-02 -4.95573140000E-01

  39  39   1    8 O    -4.33034920000E-01  1.33863730000E-01  4.96815840000E-01

  40  40   1    8 O     1.26821360000E-01  4.12613600000E-01  4.99382020000E-01

  41  41   1    8 O     1.25290110000E-01  2.50556360000E-01 -4.95573150000E-01

  42  42   1    8 O     2.86549500000E-01  4.14175700000E-01  4.96815820000E-01

 NUMBER OF SYMMETRY OPERATORS         :    1
 *******************************************************************************
 * GEOMETRY EDITING - INPUT COORDINATES ARE GIVEN IN ANGSTROM         
 *******************************************************************************

 GCALCO - MAX INDICES DIRECT LATTICE VECTOR     9    15    22
 NO.OF VECTORS CREATED 6999 STARS 3500 RMAX   220.54927 BOHR

 GEOMETRY FOR WAVE FUNCTION - DIMENSIONALITY OF THE SYSTEM    3
 (NON PERIODIC DIRECTION: LATTICE PARAMETER FORMALLY SET TO 500)
 *******************************************************************************
 LATTICE PARAMETERS (ANGSTROMS AND DEGREES) - BOHR = 0.5291772083 ANGSTROM
 PRIMITIVE CELL - CENTRING CODE 1/0 VOLUME=   821.031844 - DENSITY  0.789 g/cm^3
         A              B              C           ALPHA      BETA       GAMMA 
    15.02361100    15.02391600     9.03548600    39.932102  89.999974 119.995964
 *******************************************************************************
 ATOMS IN THE ASYMMETRIC UNIT   42 - ATOMS IN THE UNIT CELL:   42
     ATOM                 X/A                 Y/B                 Z/C    
 *******************************************************************************
      1 T   5 B     4.596395700000E-01 -8.079503000000E-02 -4.988683400000E-01
      2 T   5 B    -3.813047700000E-01  7.826462000000E-02 -4.988683300000E-01
      3 T   5 B     4.603703300000E-01  7.971761000000E-02  4.987404600000E-01
      4 T   5 B     7.321428000000E-02  3.055199600000E-01 -4.988683300000E-01
      5 T   5 B     2.323222500000E-01  3.054992000000E-01 -4.988683400000E-01
      6 T   5 B     2.330375600000E-01  4.661085900000E-01  4.987404600000E-01
      7 T   1 H    -2.494734900000E-01  3.864820000000E-03  4.961742000000E-01
      8 T   1 H    -5.564956000000E-02  3.864542900000E-01  4.954161300000E-01
      9 T   1 H    -2.492768100000E-01  2.895450200000E-01  4.952994500000E-01
     10 T   1 H    -5.552099000000E-02  1.011396400000E-01  4.953285500000E-01
     11 T   1 H    -4.638332400000E-01 -2.127586500000E-01 -4.961854700000E-01
     12 T   1 H     1.538310400000E-01 -4.067915900000E-01 -4.954273400000E-01
     13 T   1 H     2.507354200000E-01 -2.132506900000E-01 -4.953106000000E-01
     14 T   1 H     4.391866500000E-01 -4.069353500000E-01 -4.953398900000E-01
     15 T   1 H    -4.614443900000E-01  2.889889400000E-01  4.961742500000E-01
     16 T   1 H     1.566777500000E-01  1.010102100000E-01  4.954160800000E-01
     17 T   1 H     2.535923700000E-01  4.295900000000E-03  4.952993600000E-01
     18 T   1 H     4.420336800000E-01  3.864125700000E-01  4.953286500000E-01
     19 T   6 C    -2.613887400000E-01  1.393544300000E-01  4.986529700000E-01
     20 T   6 C    -2.060638700000E-01  8.764866000000E-02  4.962908700000E-01
     21 T   6 C    -9.910213000000E-02  3.021738000000E-01  4.960868200000E-01
     22 T   6 C    -2.062263800000E-01  2.483041700000E-01  4.966992000000E-01
     23 T   6 C    -9.876809000000E-02  1.418301800000E-01  4.951244300000E-01
     24 T   6 C    -4.465155000000E-02  2.486297000000E-01  4.967283300000E-01
     25 T   6 C     3.999357000000E-01 -2.000703100000E-01 -4.986641900000E-01
     26 T   6 C     4.523480700000E-01 -2.561350900000E-01 -4.963021500000E-01
     27 T   6 C     2.379061500000E-01 -3.631533800000E-01 -4.960980200000E-01
     28 T   6 C     2.915832800000E-01 -2.558371800000E-01 -4.967103800000E-01
     29 T   6 C     3.985285300000E-01 -3.637846300000E-01 -4.951357200000E-01
     30 T   6 C     2.912325900000E-01 -4.174300300000E-01 -4.967395800000E-01
     31 T   6 C     4.007658200000E-01  1.392852900000E-01  4.986529600000E-01
     32 T   6 C     4.546572300000E-01  2.484887800000E-01  4.962909200000E-01
     33 T   6 C     2.403331300000E-01  1.411605600000E-01  4.960867700000E-01
     34 T   6 C     2.936087900000E-01  8.730201000000E-02  4.966991300000E-01
     35 T   6 C     4.015485100000E-01  3.026781600000E-01  4.951245000000E-01
     36 T   6 C     2.932725400000E-01  2.485523000000E-01  4.967283300000E-01
     37 T   8 O     4.072335400000E-01 -2.666686000000E-02  4.993819900000E-01
     38 T   8 O    -4.353721700000E-01 -2.976093000000E-02 -4.955731400000E-01
     39 T   8 O    -4.330349200000E-01  1.338637300000E-01  4.968158400000E-01
     40 T   8 O     1.268213600000E-01  4.126136000000E-01  4.993820200000E-01
     41 T   8 O     1.252901100000E-01  2.505563600000E-01 -4.955731500000E-01
     42 T   8 O     2.865495000000E-01  4.141757000000E-01  4.968158200000E-01

 T = ATOM BELONGING TO THE ASYMMETRIC UNIT

 ****    1 SYMMOPS - TRANSLATORS IN FRACTIONAL UNITS
 **** MATRICES AND TRANSLATORS IN THE CRYSTALLOGRAPHIC REFERENCE FRAME
   V INV                    ROTATION MATRICES                   TRANSLATORS
   1   1  1.00 -0.00  0.00  0.00  1.00  0.00 -0.00 -0.00  1.00  0.00  0.00  0.00

 DIRECT LATTICE VECTORS CARTESIAN COMPONENTS (ANGSTROM)
          X                    Y                    Z
   0.130113578931E+02  -0.751088897922E+01   0.000000000000E+00
   0.000000000000E+00   0.150239160000E+02   0.000000000000E+00
   0.399950319149E+01   0.692846159269E+01   0.420004778974E+01


 CARTESIAN COORDINATES - PRIMITIVE CELL
 *******************************************************************************
 *      ATOM          X(ANGSTROM)         Y(ANGSTROM)         Z(ANGSTROM)
 *******************************************************************************
    1     5 B    -1.419376236821E-02 -2.709525084894E-02 -6.295318658532E+00
    2     5 B     2.055336394803E+00  1.167954235249E+00 -6.295318616532E+00
    3     5 B    -1.027097513101E+00  6.108189321402E-01  6.294781556421E+00
    4     5 B    -1.042608278004E+00  5.838118223765E-01 -2.095270826789E+00
    5     5 B     1.027602423308E+00 -6.115424417828E-01 -2.095270868790E+00
    6     5 B     1.027345965691E+00  1.779499591032E+00 -2.105314023064E+00
    7     1 H    -5.261041758273E+00 -1.558905287023E+00 -2.116092437705E+00
    8     1 H    -2.742161140189E+00  2.728044494117E+00 -2.119276367933E+00
    9     1 H    -1.262478058333E+00 -5.369862280094E+00  2.080281360233E+00
   10     1 H    -2.740838546394E+00 -1.560071310715E+00 -2.119644208119E+00
   11     1 H    -4.020092467683E+00  3.777991505580E+00  2.116045103167E+00
   12     1 H     2.008748902118E-02  4.324356162178E+00 -2.080818504345E+00
   13     1 H     5.280915152096E+00 -1.590385232142E+00  2.119719598977E+00
   14     1 H     3.733301214077E+00  2.179527911674E+00 -2.080451210166E+00
   15     1 H    -4.019567609625E+00 -3.778588622733E+00  2.083955562040E+00
   16     1 H     2.050528071582E-02 -3.155210585589E+00 -2.119276577936E+00
   17     1 H     1.281029264593E+00 -5.336961896347E+00 -2.119766807514E+00
   18     1 H     3.733023736288E+00 -1.011231967936E+00 -2.119643788114E+00
   19     6 C    -5.406161491883E+00  5.833474151417E-01 -2.105681485246E+00
   20     6 C    -4.695757034414E+00 -6.253804055413E-01 -2.115602418130E+00
   21     6 C    -3.304855653037E+00  1.792835770955E+00 -2.116459437881E+00
   22     6 C    -4.696238393047E+00  1.792344174926E+00 -2.113887412616E+00
   23     6 C    -3.304358420922E+00 -6.253301265675E-01 -2.120501521874E+00
   24     6 C    -2.593813947880E+00  5.838661264220E-01 -2.113765065224E+00
   25     6 C    -7.902056839622E-01 -1.369233453812E+00 -6.294461218776E+00
   26     6 C     3.900700598137E+00  4.339617404811E+00 -2.084492748152E+00
   27     6 C     1.111336448329E+00  4.343847365862E+00 -2.083635392397E+00
   28     6 C     1.807299661657E+00  5.548751263208E+00 -2.086207333661E+00
   29     6 C     3.205100442065E+00  3.134613913720E+00 -2.079593686409E+00
   30     6 C     1.802619923064E+00  3.123425541185E+00 -2.086329975057E+00
   31     6 C     3.209368428802E+00 -4.391060794937E+00 -2.105681527246E+00
   32     6 C     3.901121865155E+00 -3.171534435134E+00 -2.115602208127E+00
   33     6 C     1.111657796371E+00 -3.175674521607E+00 -2.116459647884E+00
   34     6 C     1.807295611394E+00 -4.380745707503E+00 -2.113887706619E+00
   35     6 C     3.205440201480E+00 -1.966585538345E+00 -2.120501227870E+00
   36     6 C     1.803037327796E+00 -1.955407048069E+00 -2.113765065224E+00
   37     8 O    -1.715913503797E+00 -5.839430624769E-01  6.297476013080E+00
   38     8 O     1.365025225978E+00 -2.608771765422E-02 -6.281478661056E+00
   39     8 O     3.521474048372E-01  6.103497019782E-01  6.286698060444E+00
   40     8 O    -3.521051052816E-01  1.778018464665E+00 -2.102619440404E+00
   41     8 O    -3.518519333698E-01 -6.102619366407E-01 -2.081430913313E+00
   42     8 O     1.715911364761E+00  5.840071793128E-01 -2.113397603042E+00

 *******************************************************************************
 STARTING BASIS SET HANDLING 
 *******************************************************************************

 Loading internal basis set: SOLDEF2MSVP         

 Please cite in your publication:
 L. Dona', J. G. Brandenburg and B. Civalleri, J. Chem. Phys., 151, 121101 (2019
 )                                                                              
                                                                                
                    

 *******************************************************************************
 LOCAL ATOMIC FUNCTIONS BASIS SET
 *******************************************************************************
   ATOM   X(AU)   Y(AU)   Z(AU)  N. TYPE  EXPONENT  S COEF   P COEF   D/F/G COEF
 *******************************************************************************
   1 B   -0.027  -0.051 -11.896
                                  1 S  
                                         2.410E+03 1.755E-03 0.000E+00 0.000E+00
                                         3.619E+02 1.344E-02 0.000E+00 0.000E+00
                                         8.231E+01 6.637E-02 0.000E+00 0.000E+00
                                         2.311E+01 2.303E-01 0.000E+00 0.000E+00
                                         7.252E+00 5.150E-01 0.000E+00 0.000E+00
                                  2 S  
                                         2.367E+00 1.000E+00 0.000E+00 0.000E+00
                                  3 S  
                                         5.533E-01 1.000E+00 0.000E+00 0.000E+00
                                  4 S  
                                         1.716E-01 1.000E+00 0.000E+00 0.000E+00
                           5-     7 P  
                                         6.002E+00 0.000E+00-3.555E-02 0.000E+00
                                         1.240E+00 0.000E+00-1.983E-01 0.000E+00
                                         3.367E-01 0.000E+00-5.048E-01 0.000E+00
                           8-    10 P  
                                         1.256E-01 0.000E+00 1.000E+00 0.000E+00
                          11-    15 D  
                                         8.880E-01 0.000E+00 0.000E+00 1.000E+00
   2 B    3.884   2.207 -11.896
   3 B   -1.941   1.154  11.895
   4 B   -1.970   1.103  -3.959
   5 B    1.942  -1.156  -3.959
   6 B    1.941   3.363  -3.978
   7 H   -9.942  -2.946  -3.999
                                 91 S  
                                         1.874E+01 1.968E-02 0.000E+00 0.000E+00
                                         2.826E+00 1.380E-01 0.000E+00 0.000E+00
                                         6.401E-01 4.783E-01 0.000E+00 0.000E+00
                                 92 S  
                                         1.756E-01 1.000E+00 0.000E+00 0.000E+00
   8 H   -5.182   5.155  -4.005
   9 H   -2.386 -10.148   3.931
  10 H   -5.179  -2.948  -4.006
  11 H   -7.597   7.139   3.999
  12 H    0.038   8.172  -3.932
  13 H    9.979  -3.005   4.006
  14 H    7.055   4.119  -3.931
  15 H   -7.596  -7.140   3.938
  16 H    0.039  -5.962  -4.005
  17 H    2.421 -10.085  -4.006
  18 H    7.054  -1.911  -4.006
  19 C  -10.216   1.102  -3.979
                                115 S  
                                         3.624E+03 1.634E-03 0.000E+00 0.000E+00
                                         5.440E+02 1.252E-02 0.000E+00 0.000E+00
                                         1.237E+02 6.211E-02 0.000E+00 0.000E+00
                                         3.476E+01 2.182E-01 0.000E+00 0.000E+00
                                         1.093E+01 4.980E-01 0.000E+00 0.000E+00
                                116 S  
                                         3.574E+00 1.000E+00 0.000E+00 0.000E+00
                                117 S  
                                         7.742E-01 1.000E+00 0.000E+00 0.000E+00
                                118 S  
                                         2.330E-01 1.000E+00 0.000E+00 0.000E+00
                         119-   121 P  
                                         9.443E+00 0.000E+00 3.790E-02 0.000E+00
                                         2.002E+00 0.000E+00 2.082E-01 0.000E+00
                                         5.463E-01 0.000E+00 5.047E-01 0.000E+00
                         122-   124 P  
                                         1.820E-01 0.000E+00 1.000E+00 0.000E+00
                         125-   129 D  
                                         8.880E-01 0.000E+00 0.000E+00 1.000E+00
  20 C   -8.874  -1.182  -3.998
  21 C   -6.245   3.388  -4.000
  22 C   -8.875   3.387  -3.995
  23 C   -6.244  -1.182  -4.007
  24 C   -4.902   1.103  -3.994
  25 C   -1.493  -2.587 -11.895
  26 C    7.371   8.201  -3.939
  27 C    2.100   8.209  -3.938
  28 C    3.415  10.486  -3.942
  29 C    6.057   5.924  -3.930
  30 C    3.406   5.902  -3.943
  31 C    6.065  -8.298  -3.979
  32 C    7.372  -5.993  -3.998
  33 C    2.101  -6.001  -4.000
  34 C    3.415  -8.278  -3.995
  35 C    6.057  -3.716  -4.007
  36 C    3.407  -3.695  -3.994
  37 O   -3.243  -1.103  11.901
                                385 S  
                                         6.773E+03 1.727E-03 0.000E+00 0.000E+00
                                         1.017E+03 1.325E-02 0.000E+00 0.000E+00
                                         2.313E+02 6.603E-02 0.000E+00 0.000E+00
                                         6.501E+01 2.353E-01 0.000E+00 0.000E+00
                                         2.050E+01 5.498E-01 0.000E+00 0.000E+00
                                386 S  
                                         6.716E+00 1.000E+00 0.000E+00 0.000E+00
                                387 S  
                                         1.147E+00 1.000E+00 0.000E+00 0.000E+00
                                388 S  
                                         3.342E-01 1.000E+00 0.000E+00 0.000E+00
                         389-   391 P  
                                         1.769E+01 0.000E+00 4.359E-02 0.000E+00
                                         3.854E+00 0.000E+00 2.318E-01 0.000E+00
                                         1.047E+00 0.000E+00 5.146E-01 0.000E+00
                         392-   394 P  
                                         2.759E-01 0.000E+00 1.000E+00 0.000E+00
                         395-   399 D  
                                         8.000E-01 0.000E+00 0.000E+00 1.000E+00
  38 O    2.580  -0.049 -11.870
  39 O    0.665   1.153  11.880
  40 O   -0.665   3.360  -3.973
  41 O   -0.665  -1.153  -3.933
  42 O    3.243   1.104  -3.994

 *******************************************************************************
 FINISHED BASIS SET HANDLING 
 *******************************************************************************

 INFORMATION **** SET_MPP **** PCRYSTAL CALCULATION
 INFORMATION **** READM2 **** NEW DEFAULT: FOCK/KS MATRIX MIXING SET TO 30 %
 INFORMATION **** READM2 **** NEW DEFAULT: FULL DIRECT SCF MODE
 INFORMATION **** READM2 **** NEW DEFAULT: COULOMB BIPOLAR BUFFER SET TO 32 Mb
 INFORMATION **** READM2 **** NEW DEFAULT: EXCHANGE BIPOLAR BUFFER SET TO 32 Mb

 *******************************************************************************
 NEW DEFAULT: DFT INTEGRATION GRID INCREASED TO XLGRID
 NEW DEFAULT: DIIS ACCELERATOR ACTIVE
 USE KEYWORD NODIIS TO TURN IT OFF
 *******************************************************************************

 WARNING **** RDDFTP **** HSEsol-HJS ACTIVE
 RANGE SEPARATION - OMEGA:   0.110000000000000     
 WARNING **** RDDFTP **** HSEsol-3c has to be combined with sol-def2-mSVP basis set
 *******************************************************************************
 N. OF ATOMS PER CELL        42  COULOMB OVERLAP TOL         (T1) 10**   -6
 NUMBER OF SHELLS           234  COULOMB PENETRATION TOL     (T2) 10**   -6
 NUMBER OF AO               474  EXCHANGE OVERLAP TOL        (T3) 10**   -6
 N. OF ELECTRONS PER CELL   198  EXCHANGE PSEUDO OVP (F(G))  (T4) 10**   -6
 CORE ELECTRONS PER CELL     60  EXCHANGE PSEUDO OVP (P(G))  (T5) 10**  -12
 N. OF SYMMETRY OPERATORS     1  POLE ORDER IN MONO ZONE                  4
 *******************************************************************************
 TYPE OF CALCULATION :  RESTRICTED CLOSED SHELL
 KOHN-SHAM HAMILTONIAN

 (EXCHANGE)[CORRELATION] FUNCTIONAL:(HSEsol GGA)[PBEsol]

 RANGE-SEPARATED HYBRID FUNCTIONAL 
 OMEGA (SHORT-RANGE)[LONG-RANGE]:(    0.1100)[    0.0000]

 HYBRID EXCHANGE - PERCENTAGE OF FOCK EXCHANGE    25.0000

 CAPPA:IS1  2;IS2  2;IS3  8; K PTS MONK NET  20; SYMMOPS:K SPACE   2;G SPACE   1

 *******************************************************************************
 MAX NUMBER OF SCF CYCLES      50  CONVERGENCE ON DELTAP        10**-16
 WEIGHT OF F(I) IN F(I+1)      30% CONVERGENCE ON ENERGY        10**- 6
 SHRINK. FACT.(MONKH.)    2  2  8  NUMBER OF K POINTS IN THE IBZ     20
 SHRINKING FACTOR(GILAT NET)    8  NUMBER OF K POINTS(GILAT NET)   1028
 *******************************************************************************
 *** K POINTS COORDINATES (OBLIQUE COORDINATES IN UNITS OF IS =  2)
   1-R(  0  0  0)   2-R(  1  0  0)   3-R(  0  1  0)   4-R(  1  1  0)
   5-C(  0  0  1)   6-C(  1  0  1)   7-C(  0  1  1)   8-C(  1  1  1)
   9-C(  0  0  2)  10-C(  1  0  2)  11-C(  0  1  2)  12-C(  1  1  2)
  13-C(  0  0  3)  14-C(  1  0  3)  15-C(  0  1  3)  16-C(  1  1  3)
  17-R(  0  0  4)  18-R(  1  0  4)  19-R(  0  1  4)  20-R(  1  1  4)

 DIRECT LATTICE VECTORS COMPON. (A.U.)     RECIP. LATTICE VECTORS COMPON. (A.U.) 
        X            Y            Z              X            Y            Z
   24.5879030  -14.1935232    0.0000000      0.2555397    0.0000000   -0.2433381
    0.0000000   28.3910867    0.0000000      0.1277517    0.2213084   -0.4867254
    7.5579657   13.0928949    7.9369401      0.0000000    0.0000000    0.7916382

 DISK SPACE FOR EIGENVECTORS (FTN 10)     7189632 REALS

 SYMMETRY ADAPTION OF THE BLOCH FUNCTIONS DISABLED
 TTTTTTTTTTTTTTTTTTTTTTTTTTTTTT gordsh1     TELAPSE        0.04 TCPU        0.04

 MATRIX SIZE: P(G)  279538, F(G)   55580, P(G) IRR  140828, F(G) IRR   56060
 MAX G-VECTOR INDEX FOR 1- AND 2-ELECTRON INTEGRALS  55

 TTTTTTTTTTTTTTTTTTTTTTTTTTTTTT INPUT       TELAPSE        0.39 TCPU        0.38

 NEIGHBORS OF THE NON-EQUIVALENT ATOMS

 N = NUMBER OF NEIGHBORS AT DISTANCE R
    ATOM  N     R/ANG      R/AU   NEIGHBORS (ATOM LABELS AND CELL INDICES)
   1 B    1     1.3791     2.6061   37 O    1 2-3
   1 B    1     1.3793     2.6065   38 O    0 0 0
   1 B    1     1.5503     2.9297   25 C    0 0 0
   1 B    1     2.3895     4.5155    3 B    1 2-3
   1 B    1     2.3898     4.5160    2 B    0 0 0
   1 B    1     2.5632     4.8437   26 C    0 0-1

   2 B    1     1.3793     2.6065   39 O    1 2-3
   2 B    1     1.3793     2.6065   38 O    0 0 0
   2 B    1     1.5504     2.9298   19 C    1 1-1
   2 B    1     2.3895     4.5156    3 B    1 2-3
   2 B    1     2.3898     4.5160    1 B    0 0 0
   2 B    1     2.5634     4.8440   22 C    1 1-1

   3 B    1     1.3791     2.6061   37 O    0 0 0
   3 B    1     1.3793     2.6064   39 O    0 0 0
   3 B    1     1.5502     2.9294   31 C   -1-1 2
   3 B    1     2.3895     4.5155    1 B   -1-2 3
   3 B    1     2.3895     4.5156    2 B   -1-2 3
   3 B    1     2.5629     4.8433   32 C   -1-1 2

   4 B    1     1.3795     2.6068   40 O    0 0 0
   4 B    1     1.3795     2.6070   41 O    0 0 0
   4 B    1     1.5513     2.9316   24 C    0 0 0
   4 B    1     2.3905     4.5174    6 B    0 0 0
   4 B    1     2.3905     4.5175    5 B    0 0 0
   4 B    1     2.5648     4.8468   23 C    0 0 0

   5 B    1     1.3795     2.6069   41 O    0 0 0
   5 B    1     1.3797     2.6072   42 O    0 0 0
   5 B    1     1.5516     2.9322   36 C    0 0 0
   5 B    1     2.3905     4.5175    4 B    0 0 0
   5 B    1     2.3911     4.5185    6 B    0 0 0
   5 B    1     2.5651     4.8473   35 C    0 0 0

   6 B    1     1.3795     2.6068   40 O    0 0 0
   6 B    1     1.3796     2.6071   42 O    0 0 0
   6 B    1     1.5516     2.9322   30 C    0 0 0
   6 B    1     2.3905     4.5174    4 B    0 0 0
   6 B    1     2.3911     4.5185    5 B    0 0 0
   6 B    1     2.5651     4.8473   29 C    0 0 0

   7 H    1     1.0913     2.0623   20 C    0 0 0
   7 H    1     2.1472     4.0576   19 C    0 0 0
   7 H    1     2.1680     4.0969   23 C    0 0 0
   7 H    1     2.5202     4.7625   10 H    0 0 0
   7 H    1     2.5676     4.8520   38 O   -1-1 1
   7 H    1     2.7321     5.1630    2 B   -1-1 1

   8 H    1     1.0914     2.0625   21 C    0 0 0
   8 H    1     2.1493     4.0616   24 C    0 0 0
   8 H    1     2.1666     4.0942   22 C    0 0 0
   8 H    1     2.5198     4.7618    9 H    0 1-1
   8 H    1     2.5720     4.8604   40 O    0 0 0
   8 H    1     2.7362     5.1707    4 B    0 0 0

   9 H    1     1.0914     2.0624   22 C    0-1 1
   9 H    1     2.1471     4.0575   19 C    0-1 1
   9 H    1     2.1680     4.0970   21 C    0-1 1
   9 H    1     2.5198     4.7618    8 H    0-1 1
   9 H    1     2.5665     4.8500   39 O    0 0-1
   9 H    1     2.7315     5.1618    2 B   -1-2 2

  10 H    1     1.0915     2.0626   23 C    0 0 0
  10 H    1     2.1490     4.0610   24 C    0 0 0
  10 H    1     2.1669     4.0948   20 C    0 0 0
  10 H    1     2.5202     4.7625    7 H    0 0 0
  10 H    1     2.5712     4.8588   41 O    0 0 0
  10 H    1     2.7351     5.1686    4 B    0 0 0

  11 H    1     1.0913     2.0623   26 C   -1-1 1
  11 H    1     2.1469     4.0571   25 C   -1-1 2
  11 H    1     2.1680     4.0968   29 C   -1-1 1
  11 H    1     2.5198     4.7617   14 H   -1-1 1
  11 H    1     2.5670     4.8510   38 O   -1-1 2
  11 H    1     2.7310     5.1609    1 B   -1-1 2

  12 H    1     1.0914     2.0625   27 C    0 0 0
  12 H    1     2.1493     4.0617   30 C    0 0 0
  12 H    1     2.1664     4.0939   28 C    0 0 0
  12 H    1     2.5192     4.7606   13 H    0 1-1
  12 H    1     2.5735     4.8632   40 O    0 0 0
  12 H    1     2.7371     5.1723    6 B    0 0 0

  13 H    1     1.0914     2.0624   28 C    0-1 1
  13 H    1     2.1475     4.0581   25 C    0-1 2
  13 H    1     2.1679     4.0967   27 C    0-1 1
  13 H    1     2.5192     4.7606   12 H    0-1 1
  13 H    1     2.5675     4.8519   37 O    1 1-1
  13 H    1     2.7328     5.1643    1 B    0-1 2

  14 H    1     1.0914     2.0625   29 C    0 0 0
  14 H    1     2.1491     4.0612   30 C    0 0 0
  14 H    1     2.1666     4.0942   26 C    0 0 0
  14 H    1     2.5198     4.7617   11 H    1 1-1
  14 H    1     2.5723     4.8609   42 O    0 0 0
  14 H    1     2.7355     5.1693    6 B    0 0 0

  15 H    1     1.0914     2.0624   32 C   -1-1 1
  15 H    1     2.1475     4.0582   31 C   -1-1 1
  15 H    1     2.1678     4.0966   35 C   -1-1 1
  15 H    1     2.5200     4.7621   18 H   -1-1 1
  15 H    1     2.5667     4.8503   39 O    0 0-1
  15 H    1     2.7315     5.1618    3 B    0 0-1

  16 H    1     1.0913     2.0623   33 C    0 0 0
  16 H    1     2.1487     4.0605   36 C    0 0 0
  16 H    1     2.1667     4.0945   34 C    0 0 0
  16 H    1     2.5197     4.7616   17 H    0 0 0
  16 H    1     2.5723     4.8610   41 O    0 0 0
  16 H    1     2.7359     5.1701    5 B    0 0 0

  17 H    1     1.0915     2.0626   34 C    0 0 0
  17 H    1     2.1479     4.0589   31 C    0 0 0
  17 H    1     2.1679     4.0968   33 C    0 0 0
  17 H    1     2.5197     4.7616   16 H    0 0 0
  17 H    1     2.5677     4.8522   37 O    1 1-2
  17 H    1     2.7331     5.1648    3 B    1 1-2

  18 H    1     1.0914     2.0624   35 C    0 0 0
  18 H    1     2.1486     4.0602   36 C    0 0 0
  18 H    1     2.1668     4.0947   32 C    0 0 0
  18 H    1     2.5200     4.7621   15 H    1 1-1
  18 H    1     2.5717     4.8598   42 O    0 0 0
  18 H    1     2.7349     5.1682    5 B    0 0 0

  19 C    1     1.4020     2.6495   22 C    0 0 0
  19 C    1     1.4021     2.6495   20 C    0 0 0
  19 C    1     1.5504     2.9298    2 B   -1-1 1
  19 C    1     2.1471     4.0575    9 H    0 1-1
  19 C    1     2.1472     4.0576    7 H    0 0 0
  19 C    1     2.4246     4.5817   21 C    0 0 0

  20 C    1     1.0913     2.0623    7 H    0 0 0
  20 C    1     1.3914     2.6294   23 C    0 0 0
  20 C    1     1.4021     2.6495   19 C    0 0 0
  20 C    1     2.1669     4.0948   10 H    0 0 0
  20 C    1     2.4177     4.5688   22 C    0 0 0
  20 C    1     2.4250     4.5825   24 C    0 0 0

  21 C    1     1.0914     2.0625    8 H    0 0 0
  21 C    1     1.3914     2.6293   22 C    0 0 0
  21 C    1     1.4026     2.6505   24 C    0 0 0
  21 C    1     2.1680     4.0970    9 H    0 1-1
  21 C    1     2.4182     4.5697   23 C    0 0 0
  21 C    1     2.4246     4.5817   19 C    0 0 0

  22 C    1     1.0914     2.0624    9 H    0 1-1
  22 C    1     1.3914     2.6293   21 C    0 0 0
  22 C    1     1.4020     2.6495   19 C    0 0 0
  22 C    1     2.1666     4.0942    8 H    0 0 0
  22 C    1     2.4177     4.5688   20 C    0 0 0
  22 C    1     2.4250     4.5826   24 C    0 0 0

  23 C    1     1.0915     2.0626   10 H    0 0 0
  23 C    1     1.3914     2.6294   20 C    0 0 0
  23 C    1     1.4025     2.6504   24 C    0 0 0
  23 C    1     2.1680     4.0969    7 H    0 0 0
  23 C    1     2.4182     4.5697   21 C    0 0 0
  23 C    1     2.4246     4.5818   19 C    0 0 0

  24 C    1     1.4025     2.6504   23 C    0 0 0
  24 C    1     1.4026     2.6505   21 C    0 0 0
  24 C    1     1.5513     2.9316    4 B    0 0 0
  24 C    1     2.1490     4.0610   10 H    0 0 0
  24 C    1     2.1493     4.0616    8 H    0 0 0
  24 C    1     2.4250     4.5825   20 C    0 0 0

  25 C    1     1.4020     2.6494   26 C    0 0-1
  25 C    1     1.4021     2.6495   28 C    0 0-1
  25 C    1     1.5503     2.9297    1 B    0 0 0
  25 C    1     2.1469     4.0571   11 H    1 1-2
  25 C    1     2.1475     4.0581   13 H    0 1-2
  25 C    1     2.4246     4.5818   27 C    0 0-1

  26 C    1     1.0913     2.0623   11 H    1 1-1
  26 C    1     1.3914     2.6293   29 C    0 0 0
  26 C    1     1.4020     2.6494   25 C    0 0 1
  26 C    1     2.1666     4.0942   14 H    0 0 0
  26 C    1     2.4175     4.5684   28 C    0 0 0
  26 C    1     2.4251     4.5828   30 C    0 0 0

  27 C    1     1.0914     2.0625   12 H    0 0 0
  27 C    1     1.3915     2.6295   28 C    0 0 0
  27 C    1     1.4026     2.6505   30 C    0 0 0
  27 C    1     2.1679     4.0967   13 H    0 1-1
  27 C    1     2.4179     4.5691   29 C    0 0 0
  27 C    1     2.4246     4.5818   25 C    0 0 1

  28 C    1     1.0914     2.0624   13 H    0 1-1
  28 C    1     1.3915     2.6295   27 C    0 0 0
  28 C    1     1.4021     2.6495   25 C    0 0 1
  28 C    1     2.1664     4.0939   12 H    0 0 0
  28 C    1     2.4175     4.5684   26 C    0 0 0
  28 C    1     2.4253     4.5832   30 C    0 0 0

  29 C    1     1.0914     2.0625   14 H    0 0 0
  29 C    1     1.3914     2.6293   26 C    0 0 0
  29 C    1     1.4025     2.6504   30 C    0 0 0
  29 C    1     2.1680     4.0968   11 H    1 1-1
  29 C    1     2.4179     4.5691   27 C    0 0 0
  29 C    1     2.4247     4.5819   25 C    0 0 1

  30 C    1     1.4025     2.6504   29 C    0 0 0
  30 C    1     1.4026     2.6505   27 C    0 0 0
  30 C    1     1.5516     2.9322    6 B    0 0 0
  30 C    1     2.1491     4.0612   14 H    0 0 0
  30 C    1     2.1493     4.0617   12 H    0 0 0
  30 C    1     2.4251     4.5828   26 C    0 0 0

  31 C    1     1.4021     2.6496   32 C    0 0 0
  31 C    1     1.4021     2.6497   34 C    0 0 0
  31 C    1     1.5502     2.9294    3 B    1 1-2
  31 C    1     2.1475     4.0582   15 H    1 1-1
  31 C    1     2.1479     4.0589   17 H    0 0 0
  31 C    1     2.4244     4.5814   33 C    0 0 0

  32 C    1     1.0914     2.0624   15 H    1 1-1
  32 C    1     1.3914     2.6293   35 C    0 0 0
  32 C    1     1.4021     2.6496   31 C    0 0 0
  32 C    1     2.1668     4.0947   18 H    0 0 0
  32 C    1     2.4179     4.5692   34 C    0 0 0
  32 C    1     2.4251     4.5827   36 C    0 0 0

  33 C    1     1.0913     2.0623   16 H    0 0 0
  33 C    1     1.3914     2.6294   34 C    0 0 0
  33 C    1     1.4025     2.6504   36 C    0 0 0
  33 C    1     2.1679     4.0968   17 H    0 0 0
  33 C    1     2.4178     4.5690   35 C    0 0 0
  33 C    1     2.4244     4.5814   31 C    0 0 0

  34 C    1     1.0915     2.0626   17 H    0 0 0
  34 C    1     1.3914     2.6294   33 C    0 0 0
  34 C    1     1.4021     2.6497   31 C    0 0 0
  34 C    1     2.1667     4.0945   16 H    0 0 0
  34 C    1     2.4179     4.5692   32 C    0 0 0
  34 C    1     2.4253     4.5832   36 C    0 0 0

  35 C    1     1.0914     2.0624   18 H    0 0 0
  35 C    1     1.3914     2.6293   32 C    0 0 0
  35 C    1     1.4025     2.6503   36 C    0 0 0
  35 C    1     2.1678     4.0966   15 H    1 1-1
  35 C    1     2.4178     4.5690   33 C    0 0 0
  35 C    1     2.4245     4.5817   31 C    0 0 0

  36 C    1     1.4025     2.6503   35 C    0 0 0
  36 C    1     1.4025     2.6504   33 C    0 0 0
  36 C    1     1.5516     2.9322    5 B    0 0 0
  36 C    1     2.1486     4.0602   18 H    0 0 0
  36 C    1     2.1487     4.0605   16 H    0 0 0
  36 C    1     2.4251     4.5827   32 C    0 0 0

  37 O    1     1.3791     2.6061    1 B   -1-2 3
  37 O    1     1.3791     2.6061    3 B    0 0 0
  37 O    1     2.3880     4.5126   38 O   -1-2 3
  37 O    1     2.3882     4.5130   39 O    0 0 0
  37 O    1     2.5383     4.7966   31 C   -1-1 2
  37 O    1     2.5384     4.7968   25 C   -1-2 3

  38 O    1     1.3793     2.6065    1 B    0 0 0
  38 O    1     1.3793     2.6065    2 B    0 0 0
  38 O    1     2.3880     4.5126   37 O    1 2-3
  38 O    1     2.3882     4.5131   39 O    1 2-3
  38 O    1     2.5391     4.7981   19 C    1 1-1
  38 O    1     2.5395     4.7990   25 C    0 0 0

  39 O    1     1.3793     2.6064    3 B    0 0 0
  39 O    1     1.3793     2.6065    2 B   -1-2 3
  39 O    1     2.3882     4.5130   37 O    0 0 0
  39 O    1     2.3882     4.5131   38 O   -1-2 3
  39 O    1     2.5390     4.7980   19 C    0-1 2
  39 O    1     2.5391     4.7982   31 C   -1-1 2

  40 O    1     1.3795     2.6068    6 B    0 0 0
  40 O    1     1.3795     2.6068    4 B    0 0 0
  40 O    1     2.3880     4.5126   42 O    0 0 0
  40 O    1     2.3884     4.5134   41 O    0 0 0
  40 O    1     2.5400     4.7998   24 C    0 0 0
  40 O    1     2.5403     4.8005   30 C    0 0 0

  41 O    1     1.3795     2.6069    5 B    0 0 0
  41 O    1     1.3795     2.6070    4 B    0 0 0
  41 O    1     2.3881     4.5128   42 O    0 0 0
  41 O    1     2.3884     4.5134   40 O    0 0 0
  41 O    1     2.5404     4.8006   24 C    0 0 0
  41 O    1     2.5405     4.8008   36 C    0 0 0

  42 O    1     1.3796     2.6071    6 B    0 0 0
  42 O    1     1.3797     2.6072    5 B    0 0 0
  42 O    1     2.3880     4.5126   40 O    0 0 0
  42 O    1     2.3881     4.5128   41 O    0 0 0
  42 O    1     2.5409     4.8016   36 C    0 0 0
  42 O    1     2.5410     4.8019   30 C    0 0 0


 SYMMETRY ALLOWED INTERNAL DEGREE(S) OF FREEDOM: 123
 TTTTTTTTTTTTTTTTTTTTTTTTTTTTTT SYMM        TELAPSE        0.39 TCPU        0.39
 TTTTTTTTTTTTTTTTTTTTTTTTTTTTTT INT_SCREEN  TELAPSE        0.42 TCPU        0.42

 DFT PARAMETERS

     ATOM       ELECTRONS   NET CHARGE   R(ANGSTROM)
   1   5  B       5.0000      0.0000     0.89000000
   7   1  H       1.0000      0.0000     1.11000000
  19   6  C       6.0000      0.0000     0.77000000
  37   8  O       8.0000      0.0000     0.74000000

 SIZE OF GRID=    1335215
 TTTTTTTTTTTTTTTTTTTTTTTTTTTTTT MAKE_GRID2  TELAPSE        7.69 TCPU        7.68
 BECKE WEIGHT FUNCTION
 RADSAFE =     2.00
 TOLERANCES - DENSITY:10**- 6; POTENTIAL:10**- 9; GRID WGT:10**-14

 RADIAL INTEGRATION  - INTERVALS (POINTS,UPPER LIMIT):            1( 75,  4.0*R)

 ANGULAR INTEGRATION - INTERVALS (ACCURACY LEVEL [N. POINTS] UPPER LIMIT):
  1(  4[  86]   0.2)  2(  8[ 194]   0.5)  3( 12[ 350]   0.9)  4( 16[ 974]   3.5)
  5( 12[ 350]9999.0)
 TTTTTTTTTTTTTTTTTTTTTTTTTTTTTT INT_CALC    TELAPSE        7.76 TCPU        7.75
 EEEEEEEEEE INT_CALC TERMINATION  DATE 19 02 2026 TIME 19:14:10.9

 *******************************************************************************
 cof-1_z42_L080_incl                                                             
 CRYSTAL - SCF - TYPE OF CALCULATION :  RESTRICTED CLOSED SHELL
 *******************************************************************************

 CAPPA:IS1  2;IS2  2;IS3  8; K PTS MONK NET  20; SYMMOPS:K SPACE   2;G SPACE   1

 TTTTTTTTTTTTTTTTTTTTTTTTTTTTTT SDIK        TELAPSE        8.35 TCPU       15.82

 AAAAAAAAAAAAAAAAAAAAAAAAAAAAAAAAAAAAAAAAAAAAAAAAAAAAAAAAAAAAAAAAAAAAAAAAAAAAAAA
         ATOMIC WAVEFUNCTION(S)


 NUCLEAR CHARGE  5.0  SYMMETRY SPECIES            S    P
 N. ELECTRONS    5.0  NUMBER OF PRIMITIVE GTOS    8    4
                      NUMBER OF CONTRACTED GTOS   4    2
                      NUMBER OF CLOSED SHELLS     2    0
                      OPEN SHELL OCCUPATION       0    1

  ZNUC  SCFIT    TOTAL HF ENERGY   KINETIC ENERGY   VIRIAL THEOREM ACCURACY
   5.0    11    -2.451164084E+01  2.462155050E+01 -1.995536038E+00  1.5E-06

 NUCLEAR CHARGE  1.0  SYMMETRY SPECIES            S
 N. ELECTRONS    1.0  NUMBER OF PRIMITIVE GTOS    4
                      NUMBER OF CONTRACTED GTOS   2
                      NUMBER OF CLOSED SHELLS     0
                      OPEN SHELL OCCUPATION       1

  ZNUC  SCFIT    TOTAL HF ENERGY   KINETIC ENERGY   VIRIAL THEOREM ACCURACY
   1.0     1    -4.977266687E-01  5.190767460E-01 -1.958869132E+00  0.0E+00

 NUCLEAR CHARGE  6.0  SYMMETRY SPECIES            S    P
 N. ELECTRONS    6.0  NUMBER OF PRIMITIVE GTOS    8    4
                      NUMBER OF CONTRACTED GTOS   4    2
                      NUMBER OF CLOSED SHELLS     2    0
                      OPEN SHELL OCCUPATION       0    2

  ZNUC  SCFIT    TOTAL HF ENERGY   KINETIC ENERGY   VIRIAL THEOREM ACCURACY
   6.0     9    -3.766704647E+01  3.775180683E+01 -1.997754800E+00  1.1E-06

 NUCLEAR CHARGE  8.0  SYMMETRY SPECIES            S    P
 N. ELECTRONS    8.0  NUMBER OF PRIMITIVE GTOS    8    4
                      NUMBER OF CONTRACTED GTOS   4    2
                      NUMBER OF CLOSED SHELLS     2    0
                      OPEN SHELL OCCUPATION       0    4

  ZNUC  SCFIT    TOTAL HF ENERGY   KINETIC ENERGY   VIRIAL THEOREM ACCURACY
   8.0    12    -7.477373220E+01  7.477365593E+01 -2.000001020E+00  3.8E-06

 AAAAAAAAAAAAAAAAAAAAAAAAAAAAAAAAAAAAAAAAAAAAAAAAAAAAAAAAAAAAAAAAAAAAAAAAAAAAAAA

 CHARGE NORMALIZATION FACTOR   1.00000000
 TOTAL ATOMIC CHARGES:
   5.0000000   5.0000000   5.0000000   5.0000000   5.0000000   5.0000000
   1.0000000   1.0000000   1.0000000   1.0000000   1.0000000   1.0000000
   1.0000000   1.0000000   1.0000000   1.0000000   1.0000000   1.0000000
   6.0000000   6.0000000   6.0000000   6.0000000   6.0000000   6.0000000
   6.0000000   6.0000000   6.0000000   6.0000000   6.0000000   6.0000000
   6.0000000   6.0000000   6.0000000   6.0000000   6.0000000   6.0000000
   8.0000000   8.0000000   8.0000000   8.0000000   8.0000000   8.0000000
 TTTTTTTTTTTTTTTTTTTTTTTTTTTTTT MOQGAD      TELAPSE        8.39 TCPU       17.05
 TTTTTTTTTTTTTTTTTTTTTTTTTTTTTT SHELLXN     TELAPSE       13.30 TCPU      173.89
 TTTTTTTTTTTTTTTTTTTTTTTTTTTTTT MONMO3      TELAPSE       13.43 TCPU      177.98
 NUMERICALLY INTEGRATED DENSITY    197.9999728715
 TTTTTTTTTTTTTTTTTTTTTTTTTTTTTT NUMDFT      TELAPSE       13.98 TCPU      195.55
 CYC   0 ETOT(AU) -1.295954426873E+03 DETOT -1.30E+03 tst  0.00E+00 PX  1.00E+00
 TTTTTTTTTTTTTTTTTTTTTTTTTTTTTT DIIS        TELAPSE       14.01 TCPU      196.73
 TTTTTTTTTTTTTTTTTTTTTTTTTTTTTT FDIK        TELAPSE       14.50 TCPU      212.28
 INSULATING STATE
 TOP OF VALENCE BANDS -    BAND     99; K    1; EIG -3.1328408E-01 AU
 BOTTOM OF VIRTUAL BANDS - BAND    100; K    1; EIG -1.5745388E-01 AU
 DIRECT ENERGY BAND GAP:   4.2404 eV
 TTTTTTTTTTTTTTTTTTTTTTTTTTTTTT PDIG        TELAPSE       14.84 TCPU      218.47
 CHARGE NORMALIZATION FACTOR   1.00000000
 TOTAL ATOMIC CHARGES:
   4.1608540   4.1641999   4.1645217   4.1640455   4.1637718   4.1603887
   0.7851549   0.7852735   0.7851179   0.7852548   0.7852368   0.7853950
   0.7852283   0.7853582   0.7851225   0.7853220   0.7851052   0.7852660
   6.0431942   6.2653380   6.2653034   6.2651585   6.2651276   6.0425629
   6.0445763   6.2653795   6.2654383   6.2652885   6.2654413   6.0433158
   6.0435932   6.2649150   6.2654985   6.2649571   6.2655829   6.0421224
   8.6924662   8.6926499   8.6925012   8.6929178   8.6928916   8.6931632
 TTTTTTTTTTTTTTTTTTTTTTTTTTTTTT MOQGAD      TELAPSE       14.88 TCPU      218.51
 TTTTTTTTTTTTTTTTTTTTTTTTTTTTTT SHELLXN     TELAPSE       20.08 TCPU      384.03
 TTTTTTTTTTTTTTTTTTTTTTTTTTTTTT MONMO3      TELAPSE       20.21 TCPU      388.06
 NUMERICALLY INTEGRATED DENSITY    197.9999994235
 TTTTTTTTTTTTTTTTTTTTTTTTTTTTTT NUMDFT      TELAPSE       20.76 TCPU      405.76
 CYC   1 ETOT(AU) -1.288810492703E+03 DETOT  7.14E+00 tst  0.00E+00 PX  1.00E+00
 TTTTTTTTTTTTTTTTTTTTTTTTTTTTTT DIIS        TELAPSE       20.80 TCPU      407.18
 DIIS TEST: 0.11167E+01 AT SCF   CYCLE   1 - MIX   30 %
 TTTTTTTTTTTTTTTTTTTTTTTTTTTTTT FDIK        TELAPSE       21.29 TCPU      422.78
 INSULATING STATE
 TOP OF VALENCE BANDS -    BAND     99; K    1; EIG -2.2507916E-01 AU
 BOTTOM OF VIRTUAL BANDS - BAND    100; K    1; EIG -8.2173263E-02 AU
 DIRECT ENERGY BAND GAP:   3.8887 eV
 TTTTTTTTTTTTTTTTTTTTTTTTTTTTTT PDIG        TELAPSE       21.62 TCPU      428.97
 CHARGE NORMALIZATION FACTOR   1.00000000
 TOTAL ATOMIC CHARGES:
   4.7160438   4.7112966   4.7117354   4.7117127   4.7112559   4.7164551
   0.9079767   0.9080671   0.9080932   0.9078580   0.9075410   0.9078112
   0.9075484   0.9077167   0.9080236   0.9079267   0.9080182   0.9080772
   5.8705167   6.1355996   6.1359589   6.1309690   6.1311941   5.8733066
   5.8762112   6.1285105   6.1299287   6.1289512   6.1298673   5.8794391
   5.8706112   6.1311105   6.1311556   6.1358919   6.1354248   5.8732367
   8.3339369   8.3343299   8.3314382   8.3339390   8.3309014   8.3344133
 TTTTTTTTTTTTTTTTTTTTTTTTTTTTTT MOQGAD      TELAPSE       21.66 TCPU      429.01
 TTTTTTTTTTTTTTTTTTTTTTTTTTTTTT SHELLXN     TELAPSE       26.86 TCPU      594.80
 TTTTTTTTTTTTTTTTTTTTTTTTTTTTTT MONMO3      TELAPSE       26.99 TCPU      598.87
 NUMERICALLY INTEGRATED DENSITY    197.9999927608
 TTTTTTTTTTTTTTTTTTTTTTTTTTTTTT NUMDFT      TELAPSE       27.55 TCPU      616.76
 CYC   2 ETOT(AU) -1.289005633704E+03 DETOT -1.95E-01 tst  3.70E-03 PX  1.59E-01
 TTTTTTTTTTTTTTTTTTTTTTTTTTTTTT DIIS        TELAPSE       27.60 TCPU      618.31
 DIIS TEST: 0.46333E+00 AT SCF   CYCLE   2 - DIIS ACTIVE - HISTORY:     2 CYCLES
 TTTTTTTTTTTTTTTTTTTTTTTTTTTTTT FDIK        TELAPSE       28.09 TCPU      633.91
 INSULATING STATE
 TOP OF VALENCE BANDS -    BAND     99; K    1; EIG -2.3837813E-01 AU
 BOTTOM OF VIRTUAL BANDS - BAND    100; K    1; EIG -7.6677199E-02 AU
 DIRECT ENERGY BAND GAP:   4.4001 eV
 TTTTTTTTTTTTTTTTTTTTTTTTTTTTTT PDIG        TELAPSE       28.41 TCPU      640.06
 CHARGE NORMALIZATION FACTOR   1.00000000
 TOTAL ATOMIC CHARGES:
   4.5060976   4.5038414   4.5042674   4.5042020   4.5037309   4.5061197
   0.8866094   0.8868297   0.8867581   0.8866869   0.8856764   0.8861818
   0.8857320   0.8860562   0.8867082   0.8867355   0.8867070   0.8867555
   5.8898555   6.1615324   6.1608775   6.1612926   6.1611596   5.8895898
   5.8901345   6.1613295   6.1610015   6.1612876   6.1610970   5.8887234
   5.8898917   6.1612810   6.1613622   6.1612223   6.1609563   5.8895456
   8.5096780   8.5100173   8.5110894   8.5098504   8.5113248   8.5102045
 TTTTTTTTTTTTTTTTTTTTTTTTTTTTTT MOQGAD      TELAPSE       28.45 TCPU      640.10
 TTTTTTTTTTTTTTTTTTTTTTTTTTTTTT SHELLXN     TELAPSE       33.64 TCPU      805.53
 TTTTTTTTTTTTTTTTTTTTTTTTTTTTTT MONMO3      TELAPSE       33.77 TCPU      809.55
 NUMERICALLY INTEGRATED DENSITY    197.9999948228
 TTTTTTTTTTTTTTTTTTTTTTTTTTTTTT NUMDFT      TELAPSE       34.32 TCPU      827.22
 CYC   3 ETOT(AU) -1.289101154422E+03 DETOT -9.55E-02 tst  6.76E-04 PX  6.34E-02
 TTTTTTTTTTTTTTTTTTTTTTTTTTTTTT DIIS        TELAPSE       34.38 TCPU      829.05
 DIIS TEST: 0.13241E-01 AT SCF   CYCLE   3 - DIIS ACTIVE - HISTORY:     3 CYCLES
 TTTTTTTTTTTTTTTTTTTTTTTTTTTTTT FDIK        TELAPSE       34.87 TCPU      844.73
 INSULATING STATE
 TOP OF VALENCE BANDS -    BAND     99; K    1; EIG -2.4759256E-01 AU
 BOTTOM OF VIRTUAL BANDS - BAND    100; K    1; EIG -8.5092372E-02 AU
 DIRECT ENERGY BAND GAP:   4.4219 eV
 TTTTTTTTTTTTTTTTTTTTTTTTTTTTTT PDIG        TELAPSE       35.20 TCPU      850.91
 CHARGE NORMALIZATION FACTOR   1.00000000
 TOTAL ATOMIC CHARGES:
   4.5117670   4.5090153   4.5094577   4.5092534   4.5087152   4.5117256
   0.8697261   0.8697843   0.8699613   0.8698609   0.8692830   0.8694879
   0.8692972   0.8693979   0.8699244   0.8699227   0.8697628   0.8697752
   5.9399281   6.1676461   6.1680676   6.1647939   6.1648935   5.9417254
   5.9433862   6.1633604   6.1646392   6.1636152   6.1645520   5.9455483
   5.9402081   6.1647666   6.1650383   6.1677155   6.1677843   5.9414607
   8.4780420   8.4783408   8.4759676   8.4781848   8.4756517   8.4785658
 TTTTTTTTTTTTTTTTTTTTTTTTTTTTTT MOQGAD      TELAPSE       35.24 TCPU      850.95
 TTTTTTTTTTTTTTTTTTTTTTTTTTTTTT SHELLXN     TELAPSE       40.46 TCPU     1017.08
 TTTTTTTTTTTTTTTTTTTTTTTTTTTTTT MONMO3      TELAPSE       40.58 TCPU     1021.15
 NUMERICALLY INTEGRATED DENSITY    197.9999948363
 TTTTTTTTTTTTTTTTTTTTTTTTTTTTTT NUMDFT      TELAPSE       41.14 TCPU     1038.99
 CYC   4 ETOT(AU) -1.289103929987E+03 DETOT -2.78E-03 tst  2.89E-05 PX  1.31E-02
 TTTTTTTTTTTTTTTTTTTTTTTTTTTTTT DIIS        TELAPSE       41.20 TCPU     1040.90
 DIIS TEST: 0.39089E-02 AT SCF   CYCLE   4 - DIIS ACTIVE - HISTORY:     4 CYCLES
 TTTTTTTTTTTTTTTTTTTTTTTTTTTTTT FDIK        TELAPSE       41.69 TCPU     1056.64
 INSULATING STATE
 TOP OF VALENCE BANDS -    BAND     99; K    1; EIG -2.4592849E-01 AU
 BOTTOM OF VIRTUAL BANDS - BAND    100; K    1; EIG -8.4870175E-02 AU
 DIRECT ENERGY BAND GAP:   4.3826 eV
 TTTTTTTTTTTTTTTTTTTTTTTTTTTTTT PDIG        TELAPSE       42.02 TCPU     1062.82
 CHARGE NORMALIZATION FACTOR   1.00000000
 TOTAL ATOMIC CHARGES:
   4.5146264   4.5112951   4.5117461   4.5116866   4.5111748   4.5147501
   0.8726595   0.8728551   0.8728276   0.8727415   0.8719536   0.8723900
   0.8719912   0.8722763   0.8727798   0.8727987   0.8727349   0.8728090
   5.9211965   6.1680468   6.1675951   6.1660567   6.1659374   5.9215500
   5.9236101   6.1653563   6.1654373   6.1654099   6.1655198   5.9231577
   5.9212367   6.1660561   6.1660975   6.1678464   6.1675643   5.9215112
   8.4872658   8.4876230   8.4873050   8.4873867   8.4873502   8.4877873
 TTTTTTTTTTTTTTTTTTTTTTTTTTTTTT MOQGAD      TELAPSE       42.06 TCPU     1062.86
 TTTTTTTTTTTTTTTTTTTTTTTTTTTTTT SHELLXN     TELAPSE       47.28 TCPU     1229.22
 TTTTTTTTTTTTTTTTTTTTTTTTTTTTTT MONMO3      TELAPSE       47.41 TCPU     1233.25
 NUMERICALLY INTEGRATED DENSITY    197.9999949145
 TTTTTTTTTTTTTTTTTTTTTTTTTTTTTT NUMDFT      TELAPSE       47.96 TCPU     1251.02
 CYC   5 ETOT(AU) -1.289104827392E+03 DETOT -8.97E-04 tst  6.81E-06 PX  6.56E-03
 TTTTTTTTTTTTTTTTTTTTTTTTTTTTTT DIIS        TELAPSE       48.03 TCPU     1253.21
 DIIS TEST: 0.67053E-04 AT SCF   CYCLE   5 - DIIS ACTIVE - HISTORY:     5 CYCLES
 TTTTTTTTTTTTTTTTTTTTTTTTTTTTTT FDIK        TELAPSE       48.52 TCPU     1268.83
 INSULATING STATE
 TOP OF VALENCE BANDS -    BAND     99; K    1; EIG -2.4580303E-01 AU
 BOTTOM OF VIRTUAL BANDS - BAND    100; K    1; EIG -8.4301023E-02 AU
 DIRECT ENERGY BAND GAP:   4.3947 eV
 TTTTTTTTTTTTTTTTTTTTTTTTTTTTTT PDIG        TELAPSE       48.84 TCPU     1275.01
 CHARGE NORMALIZATION FACTOR   1.00000000
 TOTAL ATOMIC CHARGES:
   4.5140565   4.5112093   4.5116524   4.5114681   4.5109594   4.5140065
   0.8735797   0.8736615   0.8737252   0.8736136   0.8729296   0.8732034
   0.8729461   0.8731111   0.8736793   0.8736688   0.8736259   0.8736450
   5.9207964   6.1673329   6.1675662   6.1654336   6.1655189   5.9221489
   5.9227002   6.1644249   6.1654381   6.1646344   6.1653606   5.9241464
   5.9210563   6.1654171   6.1656881   6.1673321   6.1673400   5.9218918
   8.4870162   8.4873011   8.4860849   8.4871903   8.4859032   8.4875358
 TTTTTTTTTTTTTTTTTTTTTTTTTTTTTT MOQGAD      TELAPSE       48.88 TCPU     1275.05
 TTTTTTTTTTTTTTTTTTTTTTTTTTTTTT SHELLXN     TELAPSE       54.09 TCPU     1440.82
 TTTTTTTTTTTTTTTTTTTTTTTTTTTTTT MONMO3      TELAPSE       54.21 TCPU     1444.86
 NUMERICALLY INTEGRATED DENSITY    197.9999948850
 TTTTTTTTTTTTTTTTTTTTTTTTTTTTTT NUMDFT      TELAPSE       54.77 TCPU     1462.74
 CYC   6 ETOT(AU) -1.289104847645E+03 DETOT -2.03E-05 tst  2.07E-07 PX  9.48E-04
 TTTTTTTTTTTTTTTTTTTTTTTTTTTTTT DIIS        TELAPSE       54.84 TCPU     1464.90
 DIIS TEST: 0.47002E-05 AT SCF   CYCLE   6 - DIIS ACTIVE - HISTORY:     6 CYCLES
 TTTTTTTTTTTTTTTTTTTTTTTTTTTTTT FDIK        TELAPSE       55.33 TCPU     1480.46
 INSULATING STATE
 TOP OF VALENCE BANDS -    BAND     99; K    1; EIG -2.4576585E-01 AU
 BOTTOM OF VIRTUAL BANDS - BAND    100; K    1; EIG -8.4388546E-02 AU
 DIRECT ENERGY BAND GAP:   4.3913 eV
 TTTTTTTTTTTTTTTTTTTTTTTTTTTTTT PDIG        TELAPSE       55.65 TCPU     1486.65
 CHARGE NORMALIZATION FACTOR   1.00000000
 TOTAL ATOMIC CHARGES:
   4.5143751   4.5111962   4.5116466   4.5115881   4.5110738   4.5144835
   0.8735159   0.8737055   0.8737073   0.8736209   0.8728168   0.8732555
   0.8728566   0.8731391   0.8736603   0.8736771   0.8735942   0.8736567
   5.9215133   6.1673538   6.1669113   6.1653188   6.1652044   5.9219011
   5.9240151   6.1646251   6.1646823   6.1646680   6.1647752   5.9235951
   5.9215393   6.1653114   6.1653682   6.1671438   6.1668924   5.9218783
   8.4868355   8.4872019   8.4866728   8.4869494   8.4867111   8.4873633
 TTTTTTTTTTTTTTTTTTTTTTTTTTTTTT MOQGAD      TELAPSE       55.69 TCPU     1486.69
 TTTTTTTTTTTTTTTTTTTTTTTTTTTTTT SHELLXN     TELAPSE       60.90 TCPU     1652.54
 TTTTTTTTTTTTTTTTTTTTTTTTTTTTTT MONMO3      TELAPSE       61.02 TCPU     1656.57
 NUMERICALLY INTEGRATED DENSITY    197.9999948860
 TTTTTTTTTTTTTTTTTTTTTTTTTTTTTT NUMDFT      TELAPSE       61.58 TCPU     1674.26
 CYC   7 ETOT(AU) -1.289104847652E+03 DETOT -6.93E-09 tst  2.24E-08 PX  3.30E-04
 TTTTTTTTTTTTTTTTTTTTTTTTTTTTTT DIIS        TELAPSE       61.66 TCPU     1676.81
 DIIS TEST: 0.10637E-05 AT SCF   CYCLE   7 - DIIS ACTIVE - HISTORY:     7 CYCLES
 TTTTTTTTTTTTTTTTTTTTTTTTTTTTTT FDIK        TELAPSE       62.14 TCPU     1692.32
 INSULATING STATE
 TOP OF VALENCE BANDS -    BAND     99; K    1; EIG -2.4578100E-01 AU
 BOTTOM OF VIRTUAL BANDS - BAND    100; K    1; EIG -8.4388141E-02 AU
 DIRECT ENERGY BAND GAP:   4.3917 eV
 TTTTTTTTTTTTTTTTTTTTTTTTTTTTTT PDIG        TELAPSE       62.47 TCPU     1698.49
 CHARGE NORMALIZATION FACTOR   1.00000000
 TOTAL ATOMIC CHARGES:
   4.5143742   4.5112931   4.5117391   4.5116109   4.5111000   4.5144032
   0.8735093   0.8736422   0.8736763   0.8735767   0.8728358   0.8731822
   0.8728616   0.8730802   0.8736292   0.8736333   0.8735688   0.8736124
   5.9211297   6.1673023   6.1672255   6.1653343   6.1653225   5.9220286
   5.9233153   6.1644559   6.1650521   6.1645996   6.1650436   5.9239078
   5.9212971   6.1653269   6.1654850   6.1672159   6.1670831   5.9218645
   8.4869521   8.4872679   8.4864846   8.4871028   8.4864034   8.4874709
 TTTTTTTTTTTTTTTTTTTTTTTTTTTTTT MOQGAD      TELAPSE       62.51 TCPU     1698.53
 TTTTTTTTTTTTTTTTTTTTTTTTTTTTTT SHELLXN     TELAPSE       67.69 TCPU     1863.68
 +++ ENERGIES IN A.U. +++
 ::: EXT EL-POLE                                  -1.2619240450725E+03
 ::: EXT EL-SPHEROPOLE                             1.3605265746528E+01
 ::: BIELET ZONE E-E                               1.9595233374605E+03
 ::: TOTAL E-E                                     7.1120455813450E+02
 ::: TOTAL E-N + N-E                              -3.2534797239103E+03
 ::: TOTAL N-N                                     1.0693603847903E+02
 ::: KINETIC ENERGY                                1.2799556459665E+03
 ::: PSEUDO TOTAL   ENERGY                        -1.1553834813302E+03
 ::: VIRIAL COEFFICIENT                            1.0511518758271E+00
 TTTTTTTTTTTTTTTTTTTTTTTTTTTTTT MONMO3      TELAPSE       67.82 TCPU     1867.75
 NUMERICALLY INTEGRATED DENSITY    197.9999948862
 EXCHANGE ENERGY: -0.126031550876E+03  CORRELATION ENERGY: -0.768981574950E+01
 TTTTTTTTTTTTTTTTTTTTTTTTTTTTTT NUMDFT      TELAPSE       68.38 TCPU     1885.63
 CYC   8 ETOT(AU) -1.289104847956E+03 DETOT -3.04E-07 tst  6.75E-09 PX  3.30E-04

 == SCF ENDED - CONVERGENCE ON ENERGY      E(AU) -1.2891048479560E+03 CYCLES   8


 ENERGY EXPRESSION=HARTREE+FOCK EXCH*0.00000+(HSESOL     EXCH)*1.00000+PBESOL     CORR


 TOTAL ENERGY(DFT)(AU)(  8) -1.2891048479560E+03 DE-3.0E-07 tester 6.8E-09
 TTTTTTTTTTTTTTTTTTTTTTTTTTTTTT EDFT        TELAPSE       68.38 TCPU     1885.63
 
 INFORMATION **** DFTD3 ENERGY **** CALCULATE DFTD3 ENERGY

           DFT-D V3(BJ)
 DF                                         hsesol3c  
 parameters
 s6       :    1.0000
 s8       :    0.0000
 a1       :    0.5196
 a2       :    4.9385
 k1 k3    :   16.0000   -4.0000
 Cutoff   :   50.2022
 CN-Cutoff:   21.1671
 ABC-Cutoff:   21.1671
 
 Edisp /kcal,au:   -22.0654 -0.03516341

 E6    /kcal :   -23.0974
 E8    /kcal :     0.0000
 E6(ABC) "   :   1.032063
 
 INFORMATION **** DFTD3 ENERGY **** NORMAL TERMINATION OF DFTD3 MODULE

 GCP ENERGY CALCULATION
  level        hsesol3c            basis:hsesol3c
  Nbf            474
  Atoms           42

  Parameters: 
  sigma     1.0000
  eta       1.4281
  alpha     0.2936
  beta      1.9467

  dmp_scal      4.0000
  dmp_exp       6.0000
 cutoffs: 
   distance [bohr] 60.0
   noise    [a.u.] 2.2E-16
 SR-damping   T
 ** gCP correction **
  Egcp:        0.0829277506 / (a.u.) ||      52.0380 / (kcal/mol)
 INFORMATION **** GCP **** NORMAL TERMINATION OF GCP MODULE

 *******************************************************************************

 DFT-D3-GCP DISPERSION AND COUNTERPOISE CORRECTION

 D3 DISPERSION ENERGY (AU)      -3.5163414862297E-02
 GCP ENERGY (AU)                 8.2927750602278E-02
 TOTAL ENERGY + DISP + GCP (AU) -1.2890570836202E+03

 *******************************************************************************

 EIGENVECTORS IN FORTRAN UNIT  8
 TTTTTTTTTTTTTTTTTTTTTTTTTTTTTT END         TELAPSE       69.68 TCPU     1892.86
 EEEEEEEEEE TERMINATION  DATE 19 02 2026 TIME 19:15:12.9
