 Default number of threads is:           32

         
 *******************************************************************************
 *                                                                             *
 *                               CRYSTAL23                                     *
 *                      public : 1.0.1 - October 2022                          *
 *                       HTTP://WWW.CRYSTAL.UNITO.IT                           *
 *                                                                             *
 *                              MAIN AUTHORS                                   *
 *                                                                             *
 *  R. DOVESI(1,11), V.R. SAUNDERS(2), C. ROETTI(1,11), R. ORLANDO(1,11),      *
 *  C.M. ZICOVICH-WILSON(1,3), F. PASCALE(4), B. CIVALLERI(1,11),              *
 *  K. DOLL(5), N.M. HARRISON(6), I.J. BUSH(7), Ph. D'ARCO(8),                 *
 *  M. LLUNELL(9), M. CAUSA'(10), Y. NOEL(8), L. MASCHIO(1,11), A. ERBA(1,11)  *
 *  M. RE'RAT(14), S. CASASSA(1,11), B.G. SEARLE(2), J.K. DESMARAIS(1)         *
 *                                                                             *
 *        CONTRIBUTIONS TO THE CODE HAVE ALSO BEEN GIVEN BY                    *
 *                                                                             *
 *  M. FERRABONE(1,11), M. DE LA PIERRE(1,11), M. FERRERO(1,11),               *
 *  J. BAIMA(1,11), E. ALBANESE(1,11), M.F. PEINTINGER(12), R. BAST(13),       *
 *  B. KIRTMAN(15), V. LACIVITA(1,11), R. DEMICHELIS(1,16)                     *
 *  G. BRANDEBURG(17), S. SALUSTRO(1,11), G. SANSONE(1,11)                     *
 *  M.T. RUGGIERO(18), L.E. DAGA(1), L. DONA'(1), A. COSSARD(1)                *
 *                                                                             *
 * (1) THEORETICAL CHEMISTRY GROUP - UNIVERSITA' DI TORINO - TORINO (ITALY)    *
 * (2) SCIENTIFIC COMPUTING DEPARTMENT - STFC DARESBURY (UK)                   *
 * (3) UNIVERSIDAD AUTONOMA DEL ESTADO DE MORELOS - CUERNAVACA (MEXICO)        *
 * (4) UNIVERSITE' DE LORRAINE - NANCY (FRANCE)                                *
 * (5) UNIVERSITAET STUTTGART- STUTTGART (GERMANY)                             *
 * (6) IMPERIAL COLLEGE - LONDON (UK)                                          *
 * (7) SCIENTIFIC COMPUTING DEPARTMENT - STFC RAL (UK)                         *
 * (8) UPMC - SORBONNE UNIVERSITES - PARIS (FRANCE)                            *
 * (9) UNIVERSIDAD DE BARCELONA - BARCELONA (SPAIN)                            *
 *(10) UNIVERSITA' DI NAPOLI "FEDERICO II" - NAPOLI (ITALY)                    *
 *(11) NIS - NANOSTRUCTURED INTERFACES AND SURFACES - TORINO (ITALY)           *
 *(12) MPI FUER CHEMISCHE ENERGIEKONVERSION - MUELHEIM AN DER RUHR (GERMANY)   *
 *(13) UNIVERSITY OF TROMSO - TROMSO (NORWAY)                                  *
 *(14) UNIVERSITE' DE PAU ET DES PAYS DE L'ADOUR - PAU (FRANCE)                *
 *(15) UNIVERSITY OF CALIFORNIA SANTA BARBARA - SANTA BARBARA (USA)            *
 *(16) CURTIN UNIVERSITY - PERTH (AUSTRALIA)                                   *
 *(17) UNIVERSITY COLLEGE LONDON - LONDON (UK)                                 *
 *(18) UNIVERSITY OF VERMONT - BURLINGTON (USA)                                *
 *                                                                             *
 *******************************************************************************
 EEEEEEEEEE STARTING  DATE 19 02 2026 TIME 20:16:27.9
 cof-1_z37_L070_serr                                                             

 CRYSTAL CALCULATION
 (INPUT ACCORDING TO THE INTERNATIONAL TABLES FOR X-RAY CRYSTALLOGRAPHY)
 CRYSTAL FAMILY                       :  TRICLINIC   
 CRYSTAL CLASS  (GROTH - 1921)        :  TRICLINIC PEDIAL                     

 SPACE GROUP (NONCENTROSYMMETRIC)     :  P 1             

 LATTICE PARAMETERS  (ANGSTROMS AND DEGREES) - CONVENTIONAL CELL
        A           B           C        ALPHA        BETA       GAMMA
    15.02361    15.02392     7.40000    90.00032    89.99994   119.99596


 NUMBER OF IRREDUCIBLE ATOMS IN THE CONVENTIONAL CELL:   84

 INPUT COORDINATES

 ATOM AT. N.              COORDINATES
   1   5     6.136805400000E-01  2.273182200000E-01  2.506455000000E-01
   2   5     8.826434800000E-01  7.652987900000E-01  7.506455000000E-01
   3   5     7.727362000000E-01  3.863778800000E-01  2.506455100000E-01
   4   5     4.169914000000E-02  9.243584500000E-01  7.506455100000E-01
   5   5     6.136762700000E-01  3.863606700000E-01  2.492883200000E-01
   6   5     8.826392100000E-01  9.243412400000E-01  7.492883200000E-01
   7   5     2.272552500000E-01  6.136332200000E-01  2.506455100000E-01
   8   5     4.962181900000E-01  1.516137900000E-01  7.506455100000E-01
   9   5     3.863632200000E-01  6.136124500000E-01  2.506455000000E-01
  10   5     6.553261600000E-01  1.515930200000E-01  7.506455000000E-01
  11   5     3.863435000000E-01  7.727516500000E-01  2.492883200000E-01
  12   5     6.553064400000E-01  3.107322200000E-01  7.492883200000E-01
  13   1     9.030436200000E-01  3.089300500000E-01  2.478317800000E-01
  14   1     1.720065600000E-01  8.469106200000E-01  7.478317800000E-01
  15   1     9.663453000000E-02  6.910534400000E-01  2.474015200000E-01
  16   1     3.655974700000E-01  2.290340100000E-01  7.474015200000E-01
  17   1     9.029714200000E-01  5.940724300000E-01  2.473353000000E-01
  18   1     1.719343600000E-01  1.320530000000E-01  7.473353000000E-01
  19   1     9.673618000000E-02  4.056849400000E-01  2.473518100000E-01
  20   1     3.656991200000E-01  9.436655100000E-01  7.473518100000E-01
  21   1     6.910324000000E-01  9.700412000000E-02  2.521682400000E-01
  22   1     9.599953400000E-01  6.349846900000E-01  7.521682300000E-01
  23   1     3.089297200000E-01  9.034373100000E-01  2.525985200000E-01
  24   1     5.778926600000E-01  4.414178800000E-01  7.525985300000E-01
  25   1     4.058699900000E-01  9.704998000000E-02  2.526647900000E-01
  26   1     6.748329300000E-01  6.350305500000E-01  7.526647900000E-01
  27   1     5.943122100000E-01  9.033473200000E-01  2.526481600000E-01
  28   1     8.632751500000E-01  4.413278900000E-01  7.526481600000E-01
  29   1     6.910727400000E-01  5.940542100000E-01  2.478318100000E-01
  30   1     9.600356800000E-01  1.320347800000E-01  7.478318100000E-01
  31   1     3.089618300000E-01  4.056093300000E-01  2.474014900000E-01
  32   1     5.779247700000E-01  9.435899000000E-01  7.474014900000E-01
  33   1     4.058405700000E-01  3.088232500000E-01  2.473352500000E-01
  34   1     6.748035100000E-01  8.468038200000E-01  7.473352500000E-01
  35   1     5.942908800000E-01  6.909579300000E-01  2.473518700000E-01
  36   1     8.632538200000E-01  2.289385000000E-01  7.473518700000E-01
  37   6     8.918903100000E-01  4.459436900000E-01  2.492386600000E-01
  38   6     1.608532500000E-01  9.839242600000E-01  7.492386600000E-01
  39   6     9.464891100000E-01  3.927856300000E-01  2.478980000000E-01
  40   6     2.154520500000E-01  9.307662000000E-01  7.478980000000E-01
  41   6     5.338812000000E-02  6.071853000000E-01  2.477821800000E-01
  42   6     3.223510600000E-01  1.451658700000E-01  7.477821800000E-01
  43   6     9.464521100000E-01  5.536921900000E-01  2.481297500000E-01
  44   6     2.154150500000E-01  9.167276000000E-02  7.481297600000E-01
  45   6     5.342634000000E-02  4.462499700000E-01  2.472359600000E-01
  46   6     3.223892800000E-01  9.842305400000E-01  7.472359600000E-01
  47   6     1.080358900000E-01  5.540356300000E-01  2.481462900000E-01
  48   6     3.769988300000E-01  9.201620000000E-02  7.481462900000E-01
  49   6     5.540394200000E-01  1.081684600000E-01  2.507613700000E-01
  50   6     8.230023600000E-01  6.461490300000E-01  7.507613700000E-01
  51   6     6.071778500000E-01  5.355594000000E-02  2.521020100000E-01
  52   6     8.761407900000E-01  5.915365100000E-01  7.521020100000E-01
  53   6     3.927986700000E-01  9.466631600000E-01  2.522178700000E-01
  54   6     6.617616100000E-01  4.846437300000E-01  7.522178700000E-01
  55   6     4.462875800000E-01  5.360286000000E-02  2.518703100000E-01
  56   6     7.152505200000E-01  5.915834300000E-01  7.518703100000E-01
  57   6     5.537168500000E-01  9.466235600000E-01  2.527640400000E-01
  58   6     8.226797900000E-01  4.846041300000E-01  7.527640400000E-01
  59   6     4.459279100000E-01  8.919920600000E-01  2.518537400000E-01
  60   6     7.148908500000E-01  4.299726300000E-01  7.518537400000E-01
  61   6     5.540448700000E-01  4.458745500000E-01  2.492386600000E-01
  62   6     8.230078100000E-01  9.838551200000E-01  7.492386600000E-01
  63   6     6.072102200000E-01  5.536257800000E-01  2.478980300000E-01
  64   6     8.761731600000E-01  9.160635000000E-02  7.478980300000E-01
  65   6     3.928233700000E-01  4.461720300000E-01  2.477821600000E-01
  66   6     6.617863100000E-01  9.841526000000E-01  7.477821600000E-01
  67   6     4.462872600000E-01  3.926899900000E-01  2.481297200000E-01
  68   6     7.152502000000E-01  9.306705600000E-01  7.481297200000E-01
  69   6     5.537429600000E-01  6.070980000000E-01  2.472359900000E-01
  70   6     8.227059000000E-01  1.450785700000E-01  7.472359900000E-01
  71   6     4.459599800000E-01  5.539582300000E-01  2.481462900000E-01
  72   6     7.149229200000E-01  9.193880000000E-02  7.481462900000E-01
  73   8     5.607366800000E-01  2.803706300000E-01  2.496524400000E-01
  74   8     8.296996200000E-01  8.183512000000E-01  7.496524400000E-01
  75   8     7.196817000000E-01  2.803783300000E-01  2.525157700000E-01
  76   8     9.886446400000E-01  8.183589000000E-01  7.525157700000E-01
  77   8     7.196794200000E-01  4.393234600000E-01  2.481959500000E-01
  78   8     9.886423600000E-01  9.773040300000E-01  7.481959500000E-01
  79   8     2.803245100000E-01  7.196511100000E-01  2.496524500000E-01
  80   8     5.492874500000E-01  2.576316800000E-01  7.496524500000E-01
  81   8     2.803439700000E-01  5.606956100000E-01  2.525157700000E-01
  82   8     5.493069100000E-01  9.867618000000E-02  7.525157700000E-01
  83   8     4.392638400000E-01  7.196354200000E-01  2.481959400000E-01
  84   8     7.082267800000E-01  2.576159900000E-01  7.481959400000E-01

 *******************************************************************************

 << INFORMATION >>: FROM NOW ON, ALL COORDINATES REFER TO THE PRIMITIVE CELL

 *******************************************************************************

 LATTICE PARAMETERS  (ANGSTROMS AND DEGREES) - PRIMITIVE CELL
       A          B          C        ALPHA      BETA     GAMMA        VOLUME
   15.02361   15.02392    7.40000    90.00032  89.99994 119.99596   1446.563455

 COORDINATES OF THE EQUIVALENT ATOMS (FRACTIONAL UNITS)

 N. ATOM EQUIV AT. N.          X                  Y                  Z

   1   1   1    5 B    -3.86319460000E-01  2.27318220000E-01  2.50645500000E-01

   2   2   1    5 B    -1.17356520000E-01 -2.34701210000E-01 -2.49354500000E-01

   3   3   1    5 B    -2.27263800000E-01  3.86377880000E-01  2.50645510000E-01

   4   4   1    5 B     4.16991400000E-02 -7.56415500000E-02 -2.49354490000E-01

   5   5   1    5 B    -3.86323730000E-01  3.86360670000E-01  2.49288320000E-01

   6   6   1    5 B    -1.17360790000E-01 -7.56587600000E-02 -2.50711680000E-01

   7   7   1    5 B     2.27255250000E-01 -3.86366780000E-01  2.50645510000E-01

   8   8   1    5 B     4.96218190000E-01  1.51613790000E-01 -2.49354490000E-01

   9   9   1    5 B     3.86363220000E-01 -3.86387550000E-01  2.50645500000E-01

  10  10   1    5 B    -3.44673840000E-01  1.51593020000E-01 -2.49354500000E-01

  11  11   1    5 B     3.86343500000E-01 -2.27248350000E-01  2.49288320000E-01

  12  12   1    5 B    -3.44693560000E-01  3.10732220000E-01 -2.50711680000E-01

  13  13   1    1 H    -9.69563800000E-02  3.08930050000E-01  2.47831780000E-01

  14  14   1    1 H     1.72006560000E-01 -1.53089380000E-01 -2.52168220000E-01

  15  15   1    1 H     9.66345300000E-02 -3.08946560000E-01  2.47401520000E-01

  16  16   1    1 H     3.65597470000E-01  2.29034010000E-01 -2.52598480000E-01

  17  17   1    1 H    -9.70285800000E-02 -4.05927570000E-01  2.47335300000E-01

  18  18   1    1 H     1.71934360000E-01  1.32053000000E-01 -2.52664700000E-01

  19  19   1    1 H     9.67361800000E-02  4.05684940000E-01  2.47351810000E-01

  20  20   1    1 H     3.65699120000E-01 -5.63344900000E-02 -2.52648190000E-01

  21  21   1    1 H    -3.08967600000E-01  9.70041200000E-02  2.52168240000E-01

  22  22   1    1 H    -4.00046600000E-02 -3.65015310000E-01 -2.47831770000E-01

  23  23   1    1 H     3.08929720000E-01 -9.65626900000E-02  2.52598520000E-01

  24  24   1    1 H    -4.22107340000E-01  4.41417880000E-01 -2.47401470000E-01

  25  25   1    1 H     4.05869990000E-01  9.70499800000E-02  2.52664790000E-01

  26  26   1    1 H    -3.25167070000E-01 -3.64969450000E-01 -2.47335210000E-01

  27  27   1    1 H    -4.05687790000E-01 -9.66526800000E-02  2.52648160000E-01

  28  28   1    1 H    -1.36724850000E-01  4.41327890000E-01 -2.47351840000E-01

  29  29   1    1 H    -3.08927260000E-01 -4.05945790000E-01  2.47831810000E-01

  30  30   1    1 H    -3.99643200000E-02  1.32034780000E-01 -2.52168190000E-01

  31  31   1    1 H     3.08961830000E-01  4.05609330000E-01  2.47401490000E-01

  32  32   1    1 H    -4.22075230000E-01 -5.64101000000E-02 -2.52598510000E-01

  33  33   1    1 H     4.05840570000E-01  3.08823250000E-01  2.47335250000E-01

  34  34   1    1 H    -3.25196490000E-01 -1.53196180000E-01 -2.52664750000E-01

  35  35   1    1 H    -4.05709120000E-01 -3.09042070000E-01  2.47351870000E-01

  36  36   1    1 H    -1.36746180000E-01  2.28938500000E-01 -2.52648130000E-01

  37  37   1    6 C    -1.08109690000E-01  4.45943690000E-01  2.49238660000E-01

  38  38   1    6 C     1.60853250000E-01 -1.60757400000E-02 -2.50761340000E-01

  39  39   1    6 C    -5.35108900000E-02  3.92785630000E-01  2.47898000000E-01

  40  40   1    6 C     2.15452050000E-01 -6.92338000000E-02 -2.52102000000E-01

  41  41   1    6 C     5.33881200000E-02 -3.92814700000E-01  2.47782180000E-01

  42  42   1    6 C     3.22351060000E-01  1.45165870000E-01 -2.52217820000E-01

  43  43   1    6 C    -5.35478900000E-02 -4.46307810000E-01  2.48129750000E-01

  44  44   1    6 C     2.15415050000E-01  9.16727600000E-02 -2.51870240000E-01

  45  45   1    6 C     5.34263400000E-02  4.46249970000E-01  2.47235960000E-01

  46  46   1    6 C     3.22389280000E-01 -1.57694600000E-02 -2.52764040000E-01

  47  47   1    6 C     1.08035890000E-01 -4.45964370000E-01  2.48146290000E-01

  48  48   1    6 C     3.76998830000E-01  9.20162000000E-02 -2.51853710000E-01

  49  49   1    6 C    -4.45960580000E-01  1.08168460000E-01  2.50761370000E-01

  50  50   1    6 C    -1.76997640000E-01 -3.53850970000E-01 -2.49238630000E-01

  51  51   1    6 C    -3.92822150000E-01  5.35559400000E-02  2.52102010000E-01

  52  52   1    6 C    -1.23859210000E-01 -4.08463490000E-01 -2.47897990000E-01

  53  53   1    6 C     3.92798670000E-01 -5.33368400000E-02  2.52217870000E-01

  54  54   1    6 C    -3.38238390000E-01  4.84643730000E-01 -2.47782130000E-01

  55  55   1    6 C     4.46287580000E-01  5.36028600000E-02  2.51870310000E-01

  56  56   1    6 C    -2.84749480000E-01 -4.08416570000E-01 -2.48129690000E-01

  57  57   1    6 C    -4.46283150000E-01 -5.33764400000E-02  2.52764040000E-01

  58  58   1    6 C    -1.77320210000E-01  4.84604130000E-01 -2.47235960000E-01

  59  59   1    6 C     4.45927910000E-01 -1.08007940000E-01  2.51853740000E-01

  60  60   1    6 C    -2.85109150000E-01  4.29972630000E-01 -2.48146260000E-01

  61  61   1    6 C    -4.45955130000E-01  4.45874550000E-01  2.49238660000E-01

  62  62   1    6 C    -1.76992190000E-01 -1.61448800000E-02 -2.50761340000E-01

  63  63   1    6 C    -3.92789780000E-01 -4.46374220000E-01  2.47898030000E-01

  64  64   1    6 C    -1.23826840000E-01  9.16063500000E-02 -2.52101970000E-01

  65  65   1    6 C     3.92823370000E-01  4.46172030000E-01  2.47782160000E-01

  66  66   1    6 C    -3.38213690000E-01 -1.58474000000E-02 -2.52217840000E-01

  67  67   1    6 C     4.46287260000E-01  3.92689990000E-01  2.48129720000E-01

  68  68   1    6 C    -2.84749800000E-01 -6.93294400000E-02 -2.51870280000E-01

  69  69   1    6 C    -4.46257040000E-01 -3.92902000000E-01  2.47235990000E-01

  70  70   1    6 C    -1.77294100000E-01  1.45078570000E-01 -2.52764010000E-01

  71  71   1    6 C     4.45959980000E-01 -4.46041770000E-01  2.48146290000E-01

  72  72   1    6 C    -2.85077080000E-01  9.19388000000E-02 -2.51853710000E-01

  73  73   1    8 O    -4.39263320000E-01  2.80370630000E-01  2.49652440000E-01

  74  74   1    8 O    -1.70300380000E-01 -1.81648800000E-01 -2.50347560000E-01

  75  75   1    8 O    -2.80318300000E-01  2.80378330000E-01  2.52515770000E-01

  76  76   1    8 O    -1.13553600000E-02 -1.81641100000E-01 -2.47484230000E-01

  77  77   1    8 O    -2.80320580000E-01  4.39323460000E-01  2.48195950000E-01

  78  78   1    8 O    -1.13576400000E-02 -2.26959700000E-02 -2.51804050000E-01

  79  79   1    8 O     2.80324510000E-01 -2.80348890000E-01  2.49652450000E-01

  80  80   1    8 O    -4.50712550000E-01  2.57631680000E-01 -2.50347550000E-01

  81  81   1    8 O     2.80343970000E-01 -4.39304390000E-01  2.52515770000E-01

  82  82   1    8 O    -4.50693090000E-01  9.86761800000E-02 -2.47484230000E-01

  83  83   1    8 O     4.39263840000E-01 -2.80364580000E-01  2.48195940000E-01

  84  84   1    8 O    -2.91773220000E-01  2.57615990000E-01 -2.51804060000E-01

 NUMBER OF SYMMETRY OPERATORS         :    1
 *******************************************************************************
 * GEOMETRY EDITING - INPUT COORDINATES ARE GIVEN IN ANGSTROM         
 *******************************************************************************

 GCALCO - MAX INDICES DIRECT LATTICE VECTOR    12    12    21
 NO.OF VECTORS CREATED 6999 STARS 3500 RMAX   253.28002 BOHR

 GEOMETRY FOR WAVE FUNCTION - DIMENSIONALITY OF THE SYSTEM    3
 (NON PERIODIC DIRECTION: LATTICE PARAMETER FORMALLY SET TO 500)
 *******************************************************************************
 LATTICE PARAMETERS (ANGSTROMS AND DEGREES) - BOHR = 0.5291772083 ANGSTROM
 PRIMITIVE CELL - CENTRING CODE 1/0 VOLUME=  1446.563455 - DENSITY  0.896 g/cm^3
         A              B              C           ALPHA      BETA       GAMMA 
    15.02361100    15.02391600     7.40000000    90.000323  89.999944 119.995964
 *******************************************************************************
 ATOMS IN THE ASYMMETRIC UNIT   84 - ATOMS IN THE UNIT CELL:   84
     ATOM                 X/A                 Y/B                 Z/C    
 *******************************************************************************
      1 T   5 B    -3.863194600000E-01  2.273182200000E-01  2.506455000000E-01
      2 T   5 B    -1.173565200000E-01 -2.347012100000E-01 -2.493545000000E-01
      3 T   5 B    -2.272638000000E-01  3.863778800000E-01  2.506455100000E-01
      4 T   5 B     4.169914000000E-02 -7.564155000000E-02 -2.493544900000E-01
      5 T   5 B    -3.863237300000E-01  3.863606700000E-01  2.492883200000E-01
      6 T   5 B    -1.173607900000E-01 -7.565876000000E-02 -2.507116800000E-01
      7 T   5 B     2.272552500000E-01 -3.863667800000E-01  2.506455100000E-01
      8 T   5 B     4.962181900000E-01  1.516137900000E-01 -2.493544900000E-01
      9 T   5 B     3.863632200000E-01 -3.863875500000E-01  2.506455000000E-01
     10 T   5 B    -3.446738400000E-01  1.515930200000E-01 -2.493545000000E-01
     11 T   5 B     3.863435000000E-01 -2.272483500000E-01  2.492883200000E-01
     12 T   5 B    -3.446935600000E-01  3.107322200000E-01 -2.507116800000E-01
     13 T   1 H    -9.695638000000E-02  3.089300500000E-01  2.478317800000E-01
     14 T   1 H     1.720065600000E-01 -1.530893800000E-01 -2.521682200000E-01
     15 T   1 H     9.663453000000E-02 -3.089465600000E-01  2.474015200000E-01
     16 T   1 H     3.655974700000E-01  2.290340100000E-01 -2.525984800000E-01
     17 T   1 H    -9.702858000000E-02 -4.059275700000E-01  2.473353000000E-01
     18 T   1 H     1.719343600000E-01  1.320530000000E-01 -2.526647000000E-01
     19 T   1 H     9.673618000000E-02  4.056849400000E-01  2.473518100000E-01
     20 T   1 H     3.656991200000E-01 -5.633449000000E-02 -2.526481900000E-01
     21 T   1 H    -3.089676000000E-01  9.700412000000E-02  2.521682400000E-01
     22 T   1 H    -4.000466000000E-02 -3.650153100000E-01 -2.478317700000E-01
     23 T   1 H     3.089297200000E-01 -9.656269000000E-02  2.525985200000E-01
     24 T   1 H    -4.221073400000E-01  4.414178800000E-01 -2.474014700000E-01
     25 T   1 H     4.058699900000E-01  9.704998000000E-02  2.526647900000E-01
     26 T   1 H    -3.251670700000E-01 -3.649694500000E-01 -2.473352100000E-01
     27 T   1 H    -4.056877900000E-01 -9.665268000000E-02  2.526481600000E-01
     28 T   1 H    -1.367248500000E-01  4.413278900000E-01 -2.473518400000E-01
     29 T   1 H    -3.089272600000E-01 -4.059457900000E-01  2.478318100000E-01
     30 T   1 H    -3.996432000000E-02  1.320347800000E-01 -2.521681900000E-01
     31 T   1 H     3.089618300000E-01  4.056093300000E-01  2.474014900000E-01
     32 T   1 H    -4.220752300000E-01 -5.641010000000E-02 -2.525985100000E-01
     33 T   1 H     4.058405700000E-01  3.088232500000E-01  2.473352500000E-01
     34 T   1 H    -3.251964900000E-01 -1.531961800000E-01 -2.526647500000E-01
     35 T   1 H    -4.057091200000E-01 -3.090420700000E-01  2.473518700000E-01
     36 T   1 H    -1.367461800000E-01  2.289385000000E-01 -2.526481300000E-01
     37 T   6 C    -1.081096900000E-01  4.459436900000E-01  2.492386600000E-01
     38 T   6 C     1.608532500000E-01 -1.607574000000E-02 -2.507613400000E-01
     39 T   6 C    -5.351089000000E-02  3.927856300000E-01  2.478980000000E-01
     40 T   6 C     2.154520500000E-01 -6.923380000000E-02 -2.521020000000E-01
     41 T   6 C     5.338812000000E-02 -3.928147000000E-01  2.477821800000E-01
     42 T   6 C     3.223510600000E-01  1.451658700000E-01 -2.522178200000E-01
     43 T   6 C    -5.354789000000E-02 -4.463078100000E-01  2.481297500000E-01
     44 T   6 C     2.154150500000E-01  9.167276000000E-02 -2.518702400000E-01
     45 T   6 C     5.342634000000E-02  4.462499700000E-01  2.472359600000E-01
     46 T   6 C     3.223892800000E-01 -1.576946000000E-02 -2.527640400000E-01
     47 T   6 C     1.080358900000E-01 -4.459643700000E-01  2.481462900000E-01
     48 T   6 C     3.769988300000E-01  9.201620000000E-02 -2.518537100000E-01
     49 T   6 C    -4.459605800000E-01  1.081684600000E-01  2.507613700000E-01
     50 T   6 C    -1.769976400000E-01 -3.538509700000E-01 -2.492386300000E-01
     51 T   6 C    -3.928221500000E-01  5.355594000000E-02  2.521020100000E-01
     52 T   6 C    -1.238592100000E-01 -4.084634900000E-01 -2.478979900000E-01
     53 T   6 C     3.927986700000E-01 -5.333684000000E-02  2.522178700000E-01
     54 T   6 C    -3.382383900000E-01  4.846437300000E-01 -2.477821300000E-01
     55 T   6 C     4.462875800000E-01  5.360286000000E-02  2.518703100000E-01
     56 T   6 C    -2.847494800000E-01 -4.084165700000E-01 -2.481296900000E-01
     57 T   6 C    -4.462831500000E-01 -5.337644000000E-02  2.527640400000E-01
     58 T   6 C    -1.773202100000E-01  4.846041300000E-01 -2.472359600000E-01
     59 T   6 C     4.459279100000E-01 -1.080079400000E-01  2.518537400000E-01
     60 T   6 C    -2.851091500000E-01  4.299726300000E-01 -2.481462600000E-01
     61 T   6 C    -4.459551300000E-01  4.458745500000E-01  2.492386600000E-01
     62 T   6 C    -1.769921900000E-01 -1.614488000000E-02 -2.507613400000E-01
     63 T   6 C    -3.927897800000E-01 -4.463742200000E-01  2.478980300000E-01
     64 T   6 C    -1.238268400000E-01  9.160635000000E-02 -2.521019700000E-01
     65 T   6 C     3.928233700000E-01  4.461720300000E-01  2.477821600000E-01
     66 T   6 C    -3.382136900000E-01 -1.584740000000E-02 -2.522178400000E-01
     67 T   6 C     4.462872600000E-01  3.926899900000E-01  2.481297200000E-01
     68 T   6 C    -2.847498000000E-01 -6.932944000000E-02 -2.518702800000E-01
     69 T   6 C    -4.462570400000E-01 -3.929020000000E-01  2.472359900000E-01
     70 T   6 C    -1.772941000000E-01  1.450785700000E-01 -2.527640100000E-01
     71 T   6 C     4.459599800000E-01 -4.460417700000E-01  2.481462900000E-01
     72 T   6 C    -2.850770800000E-01  9.193880000000E-02 -2.518537100000E-01
     73 T   8 O    -4.392633200000E-01  2.803706300000E-01  2.496524400000E-01
     74 T   8 O    -1.703003800000E-01 -1.816488000000E-01 -2.503475600000E-01
     75 T   8 O    -2.803183000000E-01  2.803783300000E-01  2.525157700000E-01
     76 T   8 O    -1.135536000000E-02 -1.816411000000E-01 -2.474842300000E-01
     77 T   8 O    -2.803205800000E-01  4.393234600000E-01  2.481959500000E-01
     78 T   8 O    -1.135764000000E-02 -2.269597000000E-02 -2.518040500000E-01
     79 T   8 O     2.803245100000E-01 -2.803488900000E-01  2.496524500000E-01
     80 T   8 O    -4.507125500000E-01  2.576316800000E-01 -2.503475500000E-01
     81 T   8 O     2.803439700000E-01 -4.393043900000E-01  2.525157700000E-01
     82 T   8 O    -4.506930900000E-01  9.867618000000E-02 -2.474842300000E-01
     83 T   8 O     4.392638400000E-01 -2.803645800000E-01  2.481959400000E-01
     84 T   8 O    -2.917732200000E-01  2.576159900000E-01 -2.518040600000E-01

 T = ATOM BELONGING TO THE ASYMMETRIC UNIT

 ****    1 SYMMOPS - TRANSLATORS IN FRACTIONAL UNITS
 **** MATRICES AND TRANSLATORS IN THE CRYSTALLOGRAPHIC REFERENCE FRAME
   V INV                    ROTATION MATRICES                   TRANSLATORS
   1   1  1.00 -0.00  0.00  0.00  1.00  0.00  0.00 -0.00  1.00  0.00  0.00  0.00

 DIRECT LATTICE VECTORS CARTESIAN COMPONENTS (ANGSTROM)
          X                    Y                    Z
   0.130113578931E+02  -0.751088897922E+01   0.000000000000E+00
   0.000000000000E+00   0.150239160000E+02   0.000000000000E+00
  -0.157301234647E-04  -0.417168597795E-04   0.739999999987E+01


 CARTESIAN COORDINATES - PRIMITIVE CELL
 *******************************************************************************
 *      ATOM          X(ANGSTROM)         Y(ANGSTROM)         Z(ANGSTROM)
 *******************************************************************************
    1     5 B    -5.026544697797E+00  6.316801960977E+00  1.854776699966E+00
    2     5 B    -1.526963760427E+00 -2.644669069144E+00 -1.845223299967E+00
    3     5 B    -2.957014580621E+00  7.511851528029E+00  1.854776773966E+00
    4     5 B     5.425663567496E-01 -1.449619502092E+00 -1.845223225967E+00
    5     5 B    -5.026600234947E+00 -6.317641501675E+00  1.844733567967E+00
    6     5 B    -1.527019297576E+00 -2.551965317970E-01 -1.855266431966E+00
    7     5 B     2.956895448141E+00 -7.511641456748E+00  1.854776773966E+00
    8     5 B     6.456476385512E+00 -1.449196486870E+00 -1.845223225967E+00
    9     5 B     5.027106189449E+00  6.316920198138E+00  1.854776699966E+00
   10     5 B    -4.484670766237E+00  4.866338147233E+00 -1.845223299967E+00
   11     5 B     5.026849626820E+00 -6.315953657406E+00  1.844733567967E+00
   12     5 B     8.526430564190E+00 -2.535086875281E-01 -1.855266431966E+00
   13     1 H    -1.261538058620E+00  5.369557388319E+00  1.833955171967E+00
   14     1 H     2.238042878751E+00 -3.591913641803E+00 -1.866044827966E+00
   15     1 H     1.257342563001E+00 -5.367408713132E+00  1.830771247967E+00
   16     1 H     4.756923500371E+00  6.950362567461E-01 -1.869228751966E+00
   17     1 H    -1.262477470850E+00 -5.369861139625E+00  1.830281219967E+00
   18     1 H     2.237103466521E+00  6.925838302532E-01 -1.869718779966E+00
   19     1 H     1.258665168313E+00  5.368391434031E+00  1.830403393967E+00
   20     1 H     4.758246105683E+00 -3.593079596091E+00 -1.869596605966E+00
   21     1 H    -4.020091987596E+00  3.777992572642E+00  1.866044975966E+00
   22     1 H    -5.205110502257E-01 -5.183478457479E+00 -1.833955097967E+00
   23     1 H     4.019591177316E+00 -3.771097110212E+00  1.869229047966E+00
   24     1 H    -5.492185778370E+00 -5.221679161117E+00 -1.830770877967E+00
   25     1 H     5.280915723493E+00 -1.590384227946E+00  1.869719445966E+00
   26     1 H    -4.230861232193E+00 -3.040966278851E+00 -1.830280553967E+00
   27     1 H    -5.278553002720E+00  1.594963665731E+00  1.869596383966E+00
   28     1 H    -1.778972065349E+00 -7.366507364391E+00 -1.830403615967E+00
   29     1 H    -4.019567041206E+00 -3.778587435765E+00  1.833955393967E+00
   30     1 H    -5.199861038359E-01  2.283857534113E+00 -1.866044605966E+00
   31     1 H     4.020009053768E+00  3.773252177977E+00  1.830771025967E+00
   32     1 H    -5.491767901918E+00  2.322670127072E+00 -1.869228973966E+00
   33     1 H     5.280533013178E+00  1.591500784265E+00  1.830280849967E+00
   34     1 H    -4.231243942508E+00  1.409187333599E-01 -1.869719149966E+00
   35     1 H    -5.278830451672E+00 -1.595796260714E+00  1.830403837967E+00
   36     1 H    -1.779249514302E+00  4.466648709165E+00 -1.869596161966E+00
   37     6 C    -1.406657788852E+00  7.511810021003E+00  1.844366083967E+00
   38     6 C     2.092923148518E+00 -1.449661009118E+00 -1.855633915966E+00
   39     6 C    -6.962532404321E-01  6.303082323570E+00  1.834445199967E+00
   40     6 C     2.803327696938E+00 -2.658388706552E+00 -1.865554799966E+00
   41     6 C     6.946480389132E-01 -6.302617635189E+00  1.833588131967E+00
   42     6 C     4.194228976284E+00 -2.401726653104E-01 -1.866411867966E+00
   43     6 C    -6.967346643196E-01 -6.303109141917E+00  1.836160149967E+00
   44     6 C     2.802846273051E+00 -2.406641720387E-01 -1.863839775966E+00
   45     6 C     6.951453416039E-01  6.303132442069E+00  1.829546103967E+00
   46     6 C     4.194726278974E+00 -2.658338588053E+00 -1.870453895966E+00
   47     6 C     1.405689726713E+00 -7.511587161318E+00  1.836282545967E+00
   48     6 C     4.905270664084E+00 -1.449142191439E+00 -1.863717453966E+00
   49     6 C     7.208801235974E+00 -2.536225177817E+00  1.855634137966E+00
   50     6 C    -2.302975719712E+00 -3.986807228722E+00 -1.844365861967E+00
   51     6 C    -5.111153547566E+00  3.755052984184E+00  1.865554873966E+00
   52     6 C    -1.611572610195E+00 -5.206418045938E+00 -1.834445125967E+00
   53     6 C     5.110840107868E+00 -3.751605927157E+00  1.866412237966E+00
   54     6 C    -4.400936847818E+00 -5.202187978062E+00 -1.833587761967E+00
   55     6 C     5.806803464655E+00 -2.546702107422E+00  1.863840293966E+00
   56     6 C    -3.704973491031E+00 -3.997284158327E+00 -1.836159705967E+00
   57     6 C    -5.806753762300E+00  2.550049497484E+00  1.870453895966E+00
   58     6 C    -2.307172824930E+00 -6.411421532638E+00 -1.829546103967E+00
   59     6 C     5.802123669822E+00 -4.972027749184E+00  1.863717675966E+00
   60     6 C    -3.709653285864E+00 -6.422609800089E+00 -1.836282323967E+00
   61     6 C     7.208872171827E+00  2.537401880209E+00  1.844366083967E+00
   62     6 C    -2.302904783859E+00  1.086819829304E+00 -1.855633915966E+00
   63     6 C    -5.110732303782E+00 -3.756098697622E+00  1.834445421967E+00
   64     6 C    -1.611151366411E+00  2.306346272256E+00 -1.865554577966E+00
   65     6 C     5.111161558183E+00  3.752788043064E+00  1.833587983967E+00
   66     6 C    -4.400615397504E+00  2.302205992159E+00 -1.866412015966E+00
   67     6 C     5.806799359860E+00  2.547717009909E+00  1.836159927967E+00
   68     6 C    -3.704977595826E+00  1.097134959004E+00 -1.863840071966E+00
   69     6 C    -5.806413948789E+00 -2.551149874507E+00  1.829546325967E+00
   70     6 C    -2.306833011418E+00  3.511295095371E+00 -1.870453673966E+00
   71     6 C     5.802541002389E+00  4.973055664191E+00  1.836282545967E+00
   72     6 C    -3.709235953298E+00  3.522473613286E+00 -1.863717453966E+00
   73     8 O     7.295941700181E+00  6.234292168210E-04  1.847428055966E+00
   74     8 O    -2.215835255506E+00 -1.449958621688E+00 -1.852571943966E+00
   75     8 O    -3.647325697377E+00  6.317809574118E+00  1.868616697966E+00
   76     8 O    -1.477447600070E-01 -2.643661456004E+00 -1.831383301967E+00
   77     8 O    -3.647355295322E+00 -6.318110839117E+00  1.836650029967E+00
   78     8 O    -1.477743579517E-01 -2.556658692384E-01 -1.863349969966E+00
   79     8 O     3.647398598742E+00 -6.317434861533E+00  1.847428129966E+00
   80     8 O     7.146979536112E+00 -2.549898916544E-01 -1.852571869966E+00
   81     8 O     3.647651754726E+00  6.318200777381E+00  1.868616697966E+00
   82     8 O     7.147232692097E+00 -2.643270252741E+00 -1.831383301967E+00
   83     8 O    -7.295942765491E+00 -5.572088583482E-04  1.836649955967E+00
   84     8 O    -3.796361828121E+00  6.061887761020E+00 -1.863350043966E+00

 *******************************************************************************
 STARTING BASIS SET HANDLING 
 *******************************************************************************

 Loading internal basis set: SOLDEF2MSVP         

 Please cite in your publication:
 L. Dona', J. G. Brandenburg and B. Civalleri, J. Chem. Phys., 151, 121101 (2019
 )                                                                              
                                                                                
                    

 *******************************************************************************
 LOCAL ATOMIC FUNCTIONS BASIS SET
 *******************************************************************************
   ATOM   X(AU)   Y(AU)   Z(AU)  N. TYPE  EXPONENT  S COEF   P COEF   D/F/G COEF
 *******************************************************************************
   1 B   -9.499  11.937   3.505
                                  1 S  
                                         2.410E+03 1.755E-03 0.000E+00 0.000E+00
                                         3.619E+02 1.344E-02 0.000E+00 0.000E+00
                                         8.231E+01 6.637E-02 0.000E+00 0.000E+00
                                         2.311E+01 2.303E-01 0.000E+00 0.000E+00
                                         7.252E+00 5.150E-01 0.000E+00 0.000E+00
                                  2 S  
                                         2.367E+00 1.000E+00 0.000E+00 0.000E+00
                                  3 S  
                                         5.533E-01 1.000E+00 0.000E+00 0.000E+00
                                  4 S  
                                         1.716E-01 1.000E+00 0.000E+00 0.000E+00
                           5-     7 P  
                                         6.002E+00 0.000E+00-3.555E-02 0.000E+00
                                         1.240E+00 0.000E+00-1.983E-01 0.000E+00
                                         3.367E-01 0.000E+00-5.048E-01 0.000E+00
                           8-    10 P  
                                         1.256E-01 0.000E+00 1.000E+00 0.000E+00
                          11-    15 D  
                                         8.880E-01 0.000E+00 0.000E+00 1.000E+00
   2 B   -2.886  -4.998  -3.487
   3 B   -5.588  14.195   3.505
   4 B    1.025  -2.739  -3.487
   5 B   -9.499 -11.939   3.486
   6 B   -2.886  -0.482  -3.506
   7 B    5.588 -14.195   3.505
   8 B   12.201  -2.739  -3.487
   9 B    9.500  11.937   3.505
  10 B   -8.475   9.196  -3.487
  11 B    9.499 -11.935   3.486
  12 B   16.113  -0.479  -3.506
  13 H   -2.384  10.147   3.466
                                181 S  
                                         1.874E+01 1.968E-02 0.000E+00 0.000E+00
                                         2.826E+00 1.380E-01 0.000E+00 0.000E+00
                                         6.401E-01 4.783E-01 0.000E+00 0.000E+00
                                182 S  
                                         1.756E-01 1.000E+00 0.000E+00 0.000E+00
  14 H    4.229  -6.788  -3.526
  15 H    2.376 -10.143   3.460
  16 H    8.989   1.313  -3.532
  17 H   -2.386 -10.148   3.459
  18 H    4.228   1.309  -3.533
  19 H    2.379  10.145   3.459
  20 H    8.992  -6.790  -3.533
  21 H   -7.597   7.139   3.526
  22 H   -0.984  -9.795  -3.466
  23 H    7.596  -7.126   3.532
  24 H  -10.379  -9.868  -3.460
  25 H    9.979  -3.005   3.533
  26 H   -7.995  -5.747  -3.459
  27 H   -9.975   3.014   3.533
  28 H   -3.362 -13.921  -3.459
  29 H   -7.596  -7.140   3.466
  30 H   -0.983   4.316  -3.526
  31 H    7.597   7.130   3.460
  32 H  -10.378   4.389  -3.532
  33 H    9.979   3.008   3.459
  34 H   -7.996   0.266  -3.533
  35 H   -9.976  -3.016   3.459
  36 H   -3.362   8.441  -3.533
  37 C   -2.658  14.195   3.485
                                229 S  
                                         3.624E+03 1.634E-03 0.000E+00 0.000E+00
                                         5.440E+02 1.252E-02 0.000E+00 0.000E+00
                                         1.237E+02 6.211E-02 0.000E+00 0.000E+00
                                         3.476E+01 2.182E-01 0.000E+00 0.000E+00
                                         1.093E+01 4.980E-01 0.000E+00 0.000E+00
                                230 S  
                                         3.574E+00 1.000E+00 0.000E+00 0.000E+00
                                231 S  
                                         7.742E-01 1.000E+00 0.000E+00 0.000E+00
                                232 S  
                                         2.330E-01 1.000E+00 0.000E+00 0.000E+00
                         233-   235 P  
                                         9.443E+00 0.000E+00 3.790E-02 0.000E+00
                                         2.002E+00 0.000E+00 2.082E-01 0.000E+00
                                         5.463E-01 0.000E+00 5.047E-01 0.000E+00
                         236-   238 P  
                                         1.820E-01 0.000E+00 1.000E+00 0.000E+00
                         239-   243 D  
                                         8.880E-01 0.000E+00 0.000E+00 1.000E+00
  38 C    3.955  -2.739  -3.507
  39 C   -1.316  11.911   3.467
  40 C    5.298  -5.024  -3.525
  41 C    1.313 -11.910   3.465
  42 C    7.926  -0.454  -3.527
  43 C   -1.317 -11.911   3.470
  44 C    5.297  -0.455  -3.522
  45 C    1.314  11.911   3.457
  46 C    7.927  -5.024  -3.535
  47 C    2.656 -14.195   3.470
  48 C    9.270  -2.738  -3.522
  49 C   13.623  -4.793   3.507
  50 C   -4.352  -7.534  -3.485
  51 C   -9.659   7.096   3.525
  52 C   -3.045  -9.839  -3.467
  53 C    9.658  -7.090   3.527
  54 C   -8.317  -9.831  -3.465
  55 C   10.973  -4.813   3.522
  56 C   -7.001  -7.554  -3.470
  57 C  -10.973   4.819   3.535
  58 C   -4.360 -12.116  -3.457
  59 C   10.964  -9.396   3.522
  60 C   -7.010 -12.137  -3.470
  61 C   13.623   4.795   3.485
  62 C   -4.352   2.054  -3.507
  63 C   -9.658  -7.098   3.467
  64 C   -3.045   4.358  -3.525
  65 C    9.659   7.092   3.465
  66 C   -8.316   4.351  -3.527
  67 C   10.973   4.814   3.470
  68 C   -7.001   2.073  -3.522
  69 C  -10.973  -4.821   3.457
  70 C   -4.359   6.635  -3.535
  71 C   10.965   9.398   3.470
  72 C   -7.009   6.657  -3.522
  73 O   13.787   0.001   3.491
                                769 S  
                                         6.773E+03 1.727E-03 0.000E+00 0.000E+00
                                         1.017E+03 1.325E-02 0.000E+00 0.000E+00
                                         2.313E+02 6.603E-02 0.000E+00 0.000E+00
                                         6.501E+01 2.353E-01 0.000E+00 0.000E+00
                                         2.050E+01 5.498E-01 0.000E+00 0.000E+00
                                770 S  
                                         6.716E+00 1.000E+00 0.000E+00 0.000E+00
                                771 S  
                                         1.147E+00 1.000E+00 0.000E+00 0.000E+00
                                772 S  
                                         3.342E-01 1.000E+00 0.000E+00 0.000E+00
                         773-   775 P  
                                         1.769E+01 0.000E+00 4.359E-02 0.000E+00
                                         3.854E+00 0.000E+00 2.318E-01 0.000E+00
                                         1.047E+00 0.000E+00 5.146E-01 0.000E+00
                         776-   778 P  
                                         2.759E-01 0.000E+00 1.000E+00 0.000E+00
                         779-   783 D  
                                         8.000E-01 0.000E+00 0.000E+00 1.000E+00
  74 O   -4.187  -2.740  -3.501
  75 O   -6.892  11.939   3.531
  76 O   -0.279  -4.996  -3.461
  77 O   -6.893 -11.939   3.471
  78 O   -0.279  -0.483  -3.521
  79 O    6.893 -11.938   3.491
  80 O   13.506  -0.482  -3.501
  81 O    6.893  11.940   3.531
  82 O   13.506  -4.995  -3.461
  83 O  -13.787  -0.001   3.471
  84 O   -7.174  11.455  -3.521

 *******************************************************************************
 FINISHED BASIS SET HANDLING 
 *******************************************************************************

 INFORMATION **** SET_MPP **** PCRYSTAL CALCULATION
 INFORMATION **** READM2 **** NEW DEFAULT: FOCK/KS MATRIX MIXING SET TO 30 %
 INFORMATION **** READM2 **** NEW DEFAULT: FULL DIRECT SCF MODE
 INFORMATION **** READM2 **** NEW DEFAULT: COULOMB BIPOLAR BUFFER SET TO 32 Mb
 INFORMATION **** READM2 **** NEW DEFAULT: EXCHANGE BIPOLAR BUFFER SET TO 32 Mb

 *******************************************************************************
 NEW DEFAULT: DFT INTEGRATION GRID INCREASED TO XLGRID
 NEW DEFAULT: DIIS ACCELERATOR ACTIVE
 USE KEYWORD NODIIS TO TURN IT OFF
 *******************************************************************************

 WARNING **** RDDFTP **** HSEsol-HJS ACTIVE
 RANGE SEPARATION - OMEGA:   0.110000000000000     
 WARNING **** RDDFTP **** HSEsol-3c has to be combined with sol-def2-mSVP basis set
 *******************************************************************************
 N. OF ATOMS PER CELL        84  COULOMB OVERLAP TOL         (T1) 10**   -6
 NUMBER OF SHELLS           468  COULOMB PENETRATION TOL     (T2) 10**   -6
 NUMBER OF AO               948  EXCHANGE OVERLAP TOL        (T3) 10**   -6
 N. OF ELECTRONS PER CELL   396  EXCHANGE PSEUDO OVP (F(G))  (T4) 10**   -6
 CORE ELECTRONS PER CELL    120  EXCHANGE PSEUDO OVP (P(G))  (T5) 10**  -12
 N. OF SYMMETRY OPERATORS     1  POLE ORDER IN MONO ZONE                  4
 *******************************************************************************
 TYPE OF CALCULATION :  RESTRICTED CLOSED SHELL
 KOHN-SHAM HAMILTONIAN

 (EXCHANGE)[CORRELATION] FUNCTIONAL:(HSEsol GGA)[PBEsol]

 RANGE-SEPARATED HYBRID FUNCTIONAL 
 OMEGA (SHORT-RANGE)[LONG-RANGE]:(    0.1100)[    0.0000]

 HYBRID EXCHANGE - PERCENTAGE OF FOCK EXCHANGE    25.0000

 CAPPA:IS1  2;IS2  2;IS3  8; K PTS MONK NET  20; SYMMOPS:K SPACE   2;G SPACE   1

 *******************************************************************************
 MAX NUMBER OF SCF CYCLES      50  CONVERGENCE ON DELTAP        10**-16
 WEIGHT OF F(I) IN F(I+1)      30% CONVERGENCE ON ENERGY        10**- 6
 SHRINK. FACT.(MONKH.)    2  2  8  NUMBER OF K POINTS IN THE IBZ     20
 SHRINKING FACTOR(GILAT NET)    8  NUMBER OF K POINTS(GILAT NET)   1028
 *******************************************************************************
 *** K POINTS COORDINATES (OBLIQUE COORDINATES IN UNITS OF IS =  2)
   1-R(  0  0  0)   2-R(  1  0  0)   3-R(  0  1  0)   4-R(  1  1  0)
   5-C(  0  0  1)   6-C(  1  0  1)   7-C(  0  1  1)   8-C(  1  1  1)
   9-C(  0  0  2)  10-C(  1  0  2)  11-C(  0  1  2)  12-C(  1  1  2)
  13-C(  0  0  3)  14-C(  1  0  3)  15-C(  0  1  3)  16-C(  1  1  3)
  17-R(  0  0  4)  18-R(  1  0  4)  19-R(  0  1  4)  20-R(  1  1  4)

 DIRECT LATTICE VECTORS COMPON. (A.U.)     RECIP. LATTICE VECTORS COMPON. (A.U.) 
        X            Y            Z              X            Y            Z
   24.5879030  -14.1935232    0.0000000      0.2555397    0.0000000    0.0000005
    0.0000000   28.3910867    0.0000000      0.1277517    0.2213084    0.0000015
   -0.0000297   -0.0000788   13.9839734      0.0000000    0.0000000    0.4493133

 DISK SPACE FOR EIGENVECTORS (FTN 10)    28758528 REALS

 SYMMETRY ADAPTION OF THE BLOCH FUNCTIONS DISABLED
 TTTTTTTTTTTTTTTTTTTTTTTTTTTTTT gordsh1     TELAPSE        0.05 TCPU        0.05

 MATRIX SIZE: P(G)  650272, F(G)  124406, P(G) IRR  327182, F(G) IRR  125438
 MAX G-VECTOR INDEX FOR 1- AND 2-ELECTRON INTEGRALS  43

 TTTTTTTTTTTTTTTTTTTTTTTTTTTTTT INPUT       TELAPSE        2.48 TCPU        2.48

 NEIGHBORS OF THE NON-EQUIVALENT ATOMS

 N = NUMBER OF NEIGHBORS AT DISTANCE R
    ATOM  N     R/ANG      R/AU   NEIGHBORS (ATOM LABELS AND CELL INDICES)
   1 B    1     1.3791     2.6061   73 O   -1 0 0
   1 B    1     1.3793     2.6065   75 O    0 0 0
   1 B    1     1.5503     2.9297   49 C   -1 0 0
   1 B    1     2.3895     4.5155    5 B    0 1 0
   1 B    1     2.3898     4.5160    3 B    0 0 0
   1 B    1     2.5632     4.8437   51 C    0 0 0

   2 B    1     1.3791     2.6061   74 O    0 0 0
   2 B    1     1.3793     2.6065   76 O    0 0 0
   2 B    1     1.5503     2.9297   50 C    0 0 0
   2 B    1     2.3895     4.5155    6 B    0 0 0
   2 B    1     2.3898     4.5160    4 B    0 0 0
   2 B    1     2.5632     4.8437   52 C    0 0 0

   3 B    1     1.3793     2.6065   77 O    0 1 0
   3 B    1     1.3793     2.6065   75 O    0 0 0
   3 B    1     1.5504     2.9298   37 C    0 0 0
   3 B    1     2.3895     4.5156    5 B    0 1 0
   3 B    1     2.3898     4.5160    1 B    0 0 0
   3 B    1     2.5634     4.8440   43 C    0 1 0

   4 B    1     1.3793     2.6065   78 O    0 0 0
   4 B    1     1.3793     2.6065   76 O    0 0 0
   4 B    1     1.5504     2.9298   38 C    0 0 0
   4 B    1     2.3895     4.5156    6 B    0 0 0
   4 B    1     2.3898     4.5160    2 B    0 0 0
   4 B    1     2.5634     4.8440   44 C    0 0 0

   5 B    1     1.3791     2.6061   73 O   -1-1 0
   5 B    1     1.3793     2.6064   77 O    0 0 0
   5 B    1     1.5502     2.9294   61 C   -1-1 0
   5 B    1     2.3895     4.5155    1 B    0-1 0
   5 B    1     2.3895     4.5156    3 B    0-1 0
   5 B    1     2.5629     4.8433   63 C    0 0 0

   6 B    1     1.3791     2.6061   74 O    0 0 0
   6 B    1     1.3793     2.6064   78 O    0 0 0
   6 B    1     1.5502     2.9294   62 C    0 0 0
   6 B    1     2.3895     4.5155    2 B    0 0 0
   6 B    1     2.3895     4.5156    4 B    0 0 0
   6 B    1     2.5629     4.8433   64 C    0 0 0

   7 B    1     1.3795     2.6068   79 O    0 0 0
   7 B    1     1.3795     2.6070   81 O    0-1 0
   7 B    1     1.5513     2.9316   47 C    0 0 0
   7 B    1     2.3905     4.5174   11 B    0 0 0
   7 B    1     2.3905     4.5175    9 B    0-1 0
   7 B    1     2.5648     4.8468   45 C    0-1 0

   8 B    1     1.3795     2.6068   80 O    0 0 0
   8 B    1     1.3795     2.6070   82 O    0 0 0
   8 B    1     1.5513     2.9316   48 C    0 0 0
   8 B    1     2.3905     4.5174   12 B    0 0 0
   8 B    1     2.3905     4.5175   10 B    1 0 0
   8 B    1     2.5648     4.8468   46 C    0 0 0

   9 B    1     1.3795     2.6069   81 O    0 0 0
   9 B    1     1.3797     2.6072   83 O    1 1 0
   9 B    1     1.5516     2.9322   71 C    0 0 0
   9 B    1     2.3905     4.5175    7 B    0 1 0
   9 B    1     2.3911     4.5185   11 B    0 1 0
   9 B    1     2.5651     4.8473   69 C    1 1 0

  10 B    1     1.3795     2.6069   82 O   -1 0 0
  10 B    1     1.3797     2.6072   84 O    0 0 0
  10 B    1     1.5516     2.9322   72 C    0 0 0
  10 B    1     2.3905     4.5175    8 B   -1 0 0
  10 B    1     2.3911     4.5185   12 B   -1 0 0
  10 B    1     2.5651     4.8473   70 C    0 0 0

  11 B    1     1.3795     2.6068   79 O    0 0 0
  11 B    1     1.3796     2.6071   83 O    1 0 0
  11 B    1     1.5516     2.9322   59 C    0 0 0
  11 B    1     2.3905     4.5174    7 B    0 0 0
  11 B    1     2.3911     4.5185    9 B    0-1 0
  11 B    1     2.5651     4.8473   57 C    1 0 0

  12 B    1     1.3795     2.6068   80 O    0 0 0
  12 B    1     1.3796     2.6071   84 O    1 0 0
  12 B    1     1.5516     2.9322   60 C    1 1 0
  12 B    1     2.3905     4.5174    8 B    0 0 0
  12 B    1     2.3911     4.5185   10 B    1 0 0
  12 B    1     2.5651     4.8473   58 C    1 1 0

  13 H    1     1.0913     2.0623   39 C    0 0 0
  13 H    1     2.1472     4.0576   37 C    0 0 0
  13 H    1     2.1680     4.0969   45 C    0 0 0
  13 H    1     2.5202     4.7625   19 H    0 0 0
  13 H    1     2.5676     4.8520   75 O    0 0 0
  13 H    1     2.7321     5.1630    3 B    0 0 0

  14 H    1     1.0913     2.0623   40 C    0 0 0
  14 H    1     2.1472     4.0576   38 C    0 0 0
  14 H    1     2.1680     4.0969   46 C    0 0 0
  14 H    1     2.5202     4.7625   20 H    0 0 0
  14 H    1     2.5676     4.8520   76 O    0 0 0
  14 H    1     2.7321     5.1630    4 B    0 0 0

  15 H    1     1.0914     2.0625   41 C    0 0 0
  15 H    1     2.1493     4.0616   47 C    0 0 0
  15 H    1     2.1666     4.0942   43 C    0 0 0
  15 H    1     2.5198     4.7618   17 H    0 0 0
  15 H    1     2.5720     4.8604   79 O    0 0 0
  15 H    1     2.7362     5.1707    7 B    0 0 0

  16 H    1     1.0914     2.0625   42 C    0 0 0
  16 H    1     2.1493     4.0616   48 C    0 0 0
  16 H    1     2.1666     4.0942   44 C    0 0 0
  16 H    1     2.5198     4.7618   18 H    0 0 0
  16 H    1     2.5720     4.8604   80 O    0 0 0
  16 H    1     2.7362     5.1707    8 B    0 0 0

  17 H    1     1.0914     2.0624   43 C    0 0 0
  17 H    1     2.1471     4.0575   37 C    0-1 0
  17 H    1     2.1680     4.0970   41 C    0 0 0
  17 H    1     2.5198     4.7618   15 H    0 0 0
  17 H    1     2.5665     4.8500   77 O    0 0 0
  17 H    1     2.7315     5.1618    3 B    0-1 0

  18 H    1     1.0914     2.0624   44 C    0 0 0
  18 H    1     2.1471     4.0575   38 C    0 0 0
  18 H    1     2.1680     4.0970   42 C    0 0 0
  18 H    1     2.5198     4.7618   16 H    0 0 0
  18 H    1     2.5665     4.8500   78 O    0 0 0
  18 H    1     2.7315     5.1618    4 B    0 0 0

  19 H    1     1.0915     2.0626   45 C    0 0 0
  19 H    1     2.1490     4.0610   47 C    0 1 0
  19 H    1     2.1669     4.0948   39 C    0 0 0
  19 H    1     2.5202     4.7625   13 H    0 0 0
  19 H    1     2.5712     4.8588   81 O    0 0 0
  19 H    1     2.7351     5.1686    7 B    0 1 0

  20 H    1     1.0915     2.0626   46 C    0 0 0
  20 H    1     2.1490     4.0610   48 C    0 0 0
  20 H    1     2.1669     4.0948   40 C    0 0 0
  20 H    1     2.5202     4.7625   14 H    0 0 0
  20 H    1     2.5712     4.8588   82 O    0 0 0
  20 H    1     2.7351     5.1686    8 B    0 0 0

  21 H    1     1.0913     2.0623   51 C    0 0 0
  21 H    1     2.1469     4.0571   49 C   -1 0 0
  21 H    1     2.1680     4.0968   57 C    0 0 0
  21 H    1     2.5198     4.7617   27 H    0 0 0
  21 H    1     2.5670     4.8510   75 O    0 0 0
  21 H    1     2.7310     5.1609    1 B    0 0 0

  22 H    1     1.0913     2.0623   52 C    0 0 0
  22 H    1     2.1469     4.0571   50 C    0 0 0
  22 H    1     2.1680     4.0968   58 C    0 0 0
  22 H    1     2.5198     4.7617   28 H    0 0 0
  22 H    1     2.5670     4.8510   76 O    0 0 0
  22 H    1     2.7310     5.1609    2 B    0 0 0

  23 H    1     1.0914     2.0625   53 C    0 0 0
  23 H    1     2.1493     4.0617   59 C    0 0 0
  23 H    1     2.1664     4.0939   55 C    0 0 0
  23 H    1     2.5192     4.7606   25 H    0 0 0
  23 H    1     2.5735     4.8632   79 O    0 0 0
  23 H    1     2.7371     5.1723   11 B    0 0 0

  24 H    1     1.0914     2.0625   54 C    0 0 0
  24 H    1     2.1493     4.0617   60 C    0 0 0
  24 H    1     2.1664     4.0939   56 C    0 0 0
  24 H    1     2.5192     4.7606   26 H    0 0 0
  24 H    1     2.5735     4.8632   80 O   -1-1 0
  24 H    1     2.7371     5.1723   12 B   -1-1 0

  25 H    1     1.0914     2.0624   55 C    0 0 0
  25 H    1     2.1475     4.0581   49 C    0 0 0
  25 H    1     2.1679     4.0967   53 C    0 0 0
  25 H    1     2.5192     4.7606   23 H    0 0 0
  25 H    1     2.5675     4.8519   73 O    0 0 0
  25 H    1     2.7328     5.1643    1 B    1 0 0

  26 H    1     1.0914     2.0624   56 C    0 0 0
  26 H    1     2.1475     4.0581   50 C    0 0 0
  26 H    1     2.1679     4.0967   54 C    0 0 0
  26 H    1     2.5192     4.7606   24 H    0 0 0
  26 H    1     2.5675     4.8519   74 O    0 0 0
  26 H    1     2.7328     5.1643    2 B    0 0 0

  27 H    1     1.0914     2.0625   57 C    0 0 0
  27 H    1     2.1491     4.0612   59 C   -1 0 0
  27 H    1     2.1666     4.0942   51 C    0 0 0
  27 H    1     2.5198     4.7617   21 H    0 0 0
  27 H    1     2.5723     4.8609   83 O    0 0 0
  27 H    1     2.7355     5.1693   11 B   -1 0 0

  28 H    1     1.0914     2.0625   58 C    0 0 0
  28 H    1     2.1491     4.0612   60 C    0 0 0
  28 H    1     2.1666     4.0942   52 C    0 0 0
  28 H    1     2.5198     4.7617   22 H    0 0 0
  28 H    1     2.5723     4.8609   84 O    0-1 0
  28 H    1     2.7355     5.1693   12 B   -1-1 0

  29 H    1     1.0914     2.0624   63 C    0 0 0
  29 H    1     2.1475     4.0582   61 C   -1-1 0
  29 H    1     2.1678     4.0966   69 C    0 0 0
  29 H    1     2.5200     4.7621   35 H    0 0 0
  29 H    1     2.5667     4.8503   77 O    0 0 0
  29 H    1     2.7315     5.1618    5 B    0 0 0

  30 H    1     1.0914     2.0624   64 C    0 0 0
  30 H    1     2.1475     4.0582   62 C    0 0 0
  30 H    1     2.1678     4.0966   70 C    0 0 0
  30 H    1     2.5200     4.7621   36 H    0 0 0
  30 H    1     2.5667     4.8503   78 O    0 0 0
  30 H    1     2.7315     5.1618    6 B    0 0 0

  31 H    1     1.0913     2.0623   65 C    0 0 0
  31 H    1     2.1487     4.0605   71 C    0 0 0
  31 H    1     2.1667     4.0945   67 C    0 0 0
  31 H    1     2.5197     4.7616   33 H    0 0 0
  31 H    1     2.5723     4.8610   81 O    0 0 0
  31 H    1     2.7359     5.1701    9 B    0 0 0

  32 H    1     1.0913     2.0623   66 C    0 0 0
  32 H    1     2.1487     4.0605   72 C    0 0 0
  32 H    1     2.1667     4.0945   68 C    0 0 0
  32 H    1     2.5197     4.7616   34 H    0 0 0
  32 H    1     2.5723     4.8610   82 O   -1 0 0
  32 H    1     2.7359     5.1701   10 B    0 0 0

  33 H    1     1.0915     2.0626   67 C    0 0 0
  33 H    1     2.1479     4.0589   61 C    0 0 0
  33 H    1     2.1679     4.0968   65 C    0 0 0
  33 H    1     2.5197     4.7616   31 H    0 0 0
  33 H    1     2.5677     4.8522   73 O    0 0 0
  33 H    1     2.7331     5.1648    5 B    1 1 0

  34 H    1     1.0915     2.0626   68 C    0 0 0
  34 H    1     2.1479     4.0589   62 C    0 0 0
  34 H    1     2.1679     4.0968   66 C    0 0 0
  34 H    1     2.5197     4.7616   32 H    0 0 0
  34 H    1     2.5677     4.8522   74 O    0 0 0
  34 H    1     2.7331     5.1648    6 B    0 0 0

  35 H    1     1.0914     2.0624   69 C    0 0 0
  35 H    1     2.1486     4.0602   71 C   -1-1 0
  35 H    1     2.1668     4.0947   63 C    0 0 0
  35 H    1     2.5200     4.7621   29 H    0 0 0
  35 H    1     2.5717     4.8598   83 O    0 0 0
  35 H    1     2.7349     5.1682    9 B   -1-1 0

  36 H    1     1.0914     2.0624   70 C    0 0 0
  36 H    1     2.1486     4.0602   72 C    0 0 0
  36 H    1     2.1668     4.0947   64 C    0 0 0
  36 H    1     2.5200     4.7621   30 H    0 0 0
  36 H    1     2.5717     4.8598   84 O    0 0 0
  36 H    1     2.7349     5.1682   10 B    0 0 0

  37 C    1     1.4020     2.6495   43 C    0 1 0
  37 C    1     1.4021     2.6495   39 C    0 0 0
  37 C    1     1.5504     2.9298    3 B    0 0 0
  37 C    1     2.1471     4.0575   17 H    0 1 0
  37 C    1     2.1472     4.0576   13 H    0 0 0
  37 C    1     2.4246     4.5817   41 C    0 1 0

  38 C    1     1.4020     2.6495   44 C    0 0 0
  38 C    1     1.4021     2.6495   40 C    0 0 0
  38 C    1     1.5504     2.9298    4 B    0 0 0
  38 C    1     2.1471     4.0575   18 H    0 0 0
  38 C    1     2.1472     4.0576   14 H    0 0 0
  38 C    1     2.4246     4.5817   42 C    0 0 0

  39 C    1     1.0913     2.0623   13 H    0 0 0
  39 C    1     1.3914     2.6294   45 C    0 0 0
  39 C    1     1.4021     2.6495   37 C    0 0 0
  39 C    1     2.1669     4.0948   19 H    0 0 0
  39 C    1     2.4177     4.5688   43 C    0 1 0
  39 C    1     2.4250     4.5825   47 C    0 1 0

  40 C    1     1.0913     2.0623   14 H    0 0 0
  40 C    1     1.3914     2.6294   46 C    0 0 0
  40 C    1     1.4021     2.6495   38 C    0 0 0
  40 C    1     2.1669     4.0948   20 H    0 0 0
  40 C    1     2.4177     4.5688   44 C    0 0 0
  40 C    1     2.4250     4.5825   48 C    0 0 0

  41 C    1     1.0914     2.0625   15 H    0 0 0
  41 C    1     1.3914     2.6293   43 C    0 0 0
  41 C    1     1.4026     2.6505   47 C    0 0 0
  41 C    1     2.1680     4.0970   17 H    0 0 0
  41 C    1     2.4182     4.5697   45 C    0-1 0
  41 C    1     2.4246     4.5817   37 C    0-1 0

  42 C    1     1.0914     2.0625   16 H    0 0 0
  42 C    1     1.3914     2.6293   44 C    0 0 0
  42 C    1     1.4026     2.6505   48 C    0 0 0
  42 C    1     2.1680     4.0970   18 H    0 0 0
  42 C    1     2.4182     4.5697   46 C    0 0 0
  42 C    1     2.4246     4.5817   38 C    0 0 0

  43 C    1     1.0914     2.0624   17 H    0 0 0
  43 C    1     1.3914     2.6293   41 C    0 0 0
  43 C    1     1.4020     2.6495   37 C    0-1 0
  43 C    1     2.1666     4.0942   15 H    0 0 0
  43 C    1     2.4177     4.5688   39 C    0-1 0
  43 C    1     2.4250     4.5826   47 C    0 0 0

  44 C    1     1.0914     2.0624   18 H    0 0 0
  44 C    1     1.3914     2.6293   42 C    0 0 0
  44 C    1     1.4020     2.6495   38 C    0 0 0
  44 C    1     2.1666     4.0942   16 H    0 0 0
  44 C    1     2.4177     4.5688   40 C    0 0 0
  44 C    1     2.4250     4.5826   48 C    0 0 0

  45 C    1     1.0915     2.0626   19 H    0 0 0
  45 C    1     1.3914     2.6294   39 C    0 0 0
  45 C    1     1.4025     2.6504   47 C    0 1 0
  45 C    1     2.1680     4.0969   13 H    0 0 0
  45 C    1     2.4182     4.5697   41 C    0 1 0
  45 C    1     2.4246     4.5818   37 C    0 0 0

  46 C    1     1.0915     2.0626   20 H    0 0 0
  46 C    1     1.3914     2.6294   40 C    0 0 0
  46 C    1     1.4025     2.6504   48 C    0 0 0
  46 C    1     2.1680     4.0969   14 H    0 0 0
  46 C    1     2.4182     4.5697   42 C    0 0 0
  46 C    1     2.4246     4.5818   38 C    0 0 0

  47 C    1     1.4025     2.6504   45 C    0-1 0
  47 C    1     1.4026     2.6505   41 C    0 0 0
  47 C    1     1.5513     2.9316    7 B    0 0 0
  47 C    1     2.1490     4.0610   19 H    0-1 0
  47 C    1     2.1493     4.0616   15 H    0 0 0
  47 C    1     2.4250     4.5825   39 C    0-1 0

  48 C    1     1.4025     2.6504   46 C    0 0 0
  48 C    1     1.4026     2.6505   42 C    0 0 0
  48 C    1     1.5513     2.9316    8 B    0 0 0
  48 C    1     2.1490     4.0610   20 H    0 0 0
  48 C    1     2.1493     4.0616   16 H    0 0 0
  48 C    1     2.4250     4.5825   40 C    0 0 0

  49 C    1     1.4020     2.6494   51 C    1 0 0
  49 C    1     1.4021     2.6495   55 C    0 0 0
  49 C    1     1.5503     2.9297    1 B    1 0 0
  49 C    1     2.1469     4.0571   21 H    1 0 0
  49 C    1     2.1475     4.0581   25 H    0 0 0
  49 C    1     2.4246     4.5818   53 C    0 0 0

  50 C    1     1.4020     2.6494   52 C    0 0 0
  50 C    1     1.4021     2.6495   56 C    0 0 0
  50 C    1     1.5503     2.9297    2 B    0 0 0
  50 C    1     2.1469     4.0571   22 H    0 0 0
  50 C    1     2.1475     4.0581   26 H    0 0 0
  50 C    1     2.4246     4.5818   54 C    0 0 0

  51 C    1     1.0913     2.0623   21 H    0 0 0
  51 C    1     1.3914     2.6293   57 C    0 0 0
  51 C    1     1.4020     2.6494   49 C   -1 0 0
  51 C    1     2.1666     4.0942   27 H    0 0 0
  51 C    1     2.4175     4.5684   55 C   -1 0 0
  51 C    1     2.4251     4.5828   59 C   -1 0 0

  52 C    1     1.0913     2.0623   22 H    0 0 0
  52 C    1     1.3914     2.6293   58 C    0 0 0
  52 C    1     1.4020     2.6494   50 C    0 0 0
  52 C    1     2.1666     4.0942   28 H    0 0 0
  52 C    1     2.4175     4.5684   56 C    0 0 0
  52 C    1     2.4251     4.5828   60 C    0 0 0

  53 C    1     1.0914     2.0625   23 H    0 0 0
  53 C    1     1.3915     2.6295   55 C    0 0 0
  53 C    1     1.4026     2.6505   59 C    0 0 0
  53 C    1     2.1679     4.0967   25 H    0 0 0
  53 C    1     2.4179     4.5691   57 C    1 0 0
  53 C    1     2.4246     4.5818   49 C    0 0 0

  54 C    1     1.0914     2.0625   24 H    0 0 0
  54 C    1     1.3915     2.6295   56 C    0 0 0
  54 C    1     1.4026     2.6505   60 C    0 0 0
  54 C    1     2.1679     4.0967   26 H    0 0 0
  54 C    1     2.4179     4.5691   58 C    0 0 0
  54 C    1     2.4246     4.5818   50 C    0 0 0

  55 C    1     1.0914     2.0624   25 H    0 0 0
  55 C    1     1.3915     2.6295   53 C    0 0 0
  55 C    1     1.4021     2.6495   49 C    0 0 0
  55 C    1     2.1664     4.0939   23 H    0 0 0
  55 C    1     2.4175     4.5684   51 C    1 0 0
  55 C    1     2.4253     4.5832   59 C    0 0 0

  56 C    1     1.0914     2.0624   26 H    0 0 0
  56 C    1     1.3915     2.6295   54 C    0 0 0
  56 C    1     1.4021     2.6495   50 C    0 0 0
  56 C    1     2.1664     4.0939   24 H    0 0 0
  56 C    1     2.4175     4.5684   52 C    0 0 0
  56 C    1     2.4253     4.5832   60 C    0 0 0

  57 C    1     1.0914     2.0625   27 H    0 0 0
  57 C    1     1.3914     2.6293   51 C    0 0 0
  57 C    1     1.4025     2.6504   59 C   -1 0 0
  57 C    1     2.1680     4.0968   21 H    0 0 0
  57 C    1     2.4179     4.5691   53 C   -1 0 0
  57 C    1     2.4247     4.5819   49 C   -1 0 0

  58 C    1     1.0914     2.0625   28 H    0 0 0
  58 C    1     1.3914     2.6293   52 C    0 0 0
  58 C    1     1.4025     2.6504   60 C    0 0 0
  58 C    1     2.1680     4.0968   22 H    0 0 0
  58 C    1     2.4179     4.5691   54 C    0 0 0
  58 C    1     2.4247     4.5819   50 C    0 0 0

  59 C    1     1.4025     2.6504   57 C    1 0 0
  59 C    1     1.4026     2.6505   53 C    0 0 0
  59 C    1     1.5516     2.9322   11 B    0 0 0
  59 C    1     2.1491     4.0612   27 H    1 0 0
  59 C    1     2.1493     4.0617   23 H    0 0 0
  59 C    1     2.4251     4.5828   51 C    1 0 0

  60 C    1     1.4025     2.6504   58 C    0 0 0
  60 C    1     1.4026     2.6505   54 C    0 0 0
  60 C    1     1.5516     2.9322   12 B   -1-1 0
  60 C    1     2.1491     4.0612   28 H    0 0 0
  60 C    1     2.1493     4.0617   24 H    0 0 0
  60 C    1     2.4251     4.5828   52 C    0 0 0

  61 C    1     1.4021     2.6496   63 C    1 1 0
  61 C    1     1.4021     2.6497   67 C    0 0 0
  61 C    1     1.5502     2.9294    5 B    1 1 0
  61 C    1     2.1475     4.0582   29 H    1 1 0
  61 C    1     2.1479     4.0589   33 H    0 0 0
  61 C    1     2.4244     4.5814   65 C    0 0 0

  62 C    1     1.4021     2.6496   64 C    0 0 0
  62 C    1     1.4021     2.6497   68 C    0 0 0
  62 C    1     1.5502     2.9294    6 B    0 0 0
  62 C    1     2.1475     4.0582   30 H    0 0 0
  62 C    1     2.1479     4.0589   34 H    0 0 0
  62 C    1     2.4244     4.5814   66 C    0 0 0

  63 C    1     1.0914     2.0624   29 H    0 0 0
  63 C    1     1.3914     2.6293   69 C    0 0 0
  63 C    1     1.4021     2.6496   61 C   -1-1 0
  63 C    1     2.1668     4.0947   35 H    0 0 0
  63 C    1     2.4179     4.5692   67 C   -1-1 0
  63 C    1     2.4251     4.5827   71 C   -1-1 0

  64 C    1     1.0914     2.0624   30 H    0 0 0
  64 C    1     1.3914     2.6293   70 C    0 0 0
  64 C    1     1.4021     2.6496   62 C    0 0 0
  64 C    1     2.1668     4.0947   36 H    0 0 0
  64 C    1     2.4179     4.5692   68 C    0 0 0
  64 C    1     2.4251     4.5827   72 C    0 0 0

  65 C    1     1.0913     2.0623   31 H    0 0 0
  65 C    1     1.3914     2.6294   67 C    0 0 0
  65 C    1     1.4025     2.6504   71 C    0 0 0
  65 C    1     2.1679     4.0968   33 H    0 0 0
  65 C    1     2.4178     4.5690   69 C    1 1 0
  65 C    1     2.4244     4.5814   61 C    0 0 0

  66 C    1     1.0913     2.0623   32 H    0 0 0
  66 C    1     1.3914     2.6294   68 C    0 0 0
  66 C    1     1.4025     2.6504   72 C    0 0 0
  66 C    1     2.1679     4.0968   34 H    0 0 0
  66 C    1     2.4178     4.5690   70 C    0 0 0
  66 C    1     2.4244     4.5814   62 C    0 0 0

  67 C    1     1.0915     2.0626   33 H    0 0 0
  67 C    1     1.3914     2.6294   65 C    0 0 0
  67 C    1     1.4021     2.6497   61 C    0 0 0
  67 C    1     2.1667     4.0945   31 H    0 0 0
  67 C    1     2.4179     4.5692   63 C    1 1 0
  67 C    1     2.4253     4.5832   71 C    0 0 0

  68 C    1     1.0915     2.0626   34 H    0 0 0
  68 C    1     1.3914     2.6294   66 C    0 0 0
  68 C    1     1.4021     2.6497   62 C    0 0 0
  68 C    1     2.1667     4.0945   32 H    0 0 0
  68 C    1     2.4179     4.5692   64 C    0 0 0
  68 C    1     2.4253     4.5832   72 C    0 0 0

  69 C    1     1.0914     2.0624   35 H    0 0 0
  69 C    1     1.3914     2.6293   63 C    0 0 0
  69 C    1     1.4025     2.6503   71 C   -1-1 0
  69 C    1     2.1678     4.0966   29 H    0 0 0
  69 C    1     2.4178     4.5690   65 C   -1-1 0
  69 C    1     2.4245     4.5817   61 C   -1-1 0

  70 C    1     1.0914     2.0624   36 H    0 0 0
  70 C    1     1.3914     2.6293   64 C    0 0 0
  70 C    1     1.4025     2.6503   72 C    0 0 0
  70 C    1     2.1678     4.0966   30 H    0 0 0
  70 C    1     2.4178     4.5690   66 C    0 0 0
  70 C    1     2.4245     4.5817   62 C    0 0 0

  71 C    1     1.4025     2.6503   69 C    1 1 0
  71 C    1     1.4025     2.6504   65 C    0 0 0
  71 C    1     1.5516     2.9322    9 B    0 0 0
  71 C    1     2.1486     4.0602   35 H    1 1 0
  71 C    1     2.1487     4.0605   31 H    0 0 0
  71 C    1     2.4251     4.5827   63 C    1 1 0

  72 C    1     1.4025     2.6503   70 C    0 0 0
  72 C    1     1.4025     2.6504   66 C    0 0 0
  72 C    1     1.5516     2.9322   10 B    0 0 0
  72 C    1     2.1486     4.0602   36 H    0 0 0
  72 C    1     2.1487     4.0605   32 H    0 0 0
  72 C    1     2.4251     4.5827   64 C    0 0 0

  73 O    1     1.3791     2.6061    1 B    1 0 0
  73 O    1     1.3791     2.6061    5 B    1 1 0
  73 O    1     2.3880     4.5126   75 O    1 0 0
  73 O    1     2.3882     4.5130   77 O    1 1 0
  73 O    1     2.5383     4.7966   61 C    0 0 0
  73 O    1     2.5384     4.7968   49 C    0 0 0

  74 O    1     1.3791     2.6061    2 B    0 0 0
  74 O    1     1.3791     2.6061    6 B    0 0 0
  74 O    1     2.3880     4.5126   76 O    0 0 0
  74 O    1     2.3882     4.5130   78 O    0 0 0
  74 O    1     2.5383     4.7966   62 C    0 0 0
  74 O    1     2.5384     4.7968   50 C    0 0 0

  75 O    1     1.3793     2.6065    1 B    0 0 0
  75 O    1     1.3793     2.6065    3 B    0 0 0
  75 O    1     2.3880     4.5126   73 O   -1 0 0
  75 O    1     2.3882     4.5131   77 O    0 1 0
  75 O    1     2.5391     4.7981   37 C    0 0 0
  75 O    1     2.5395     4.7990   49 C   -1 0 0

  76 O    1     1.3793     2.6065    2 B    0 0 0
  76 O    1     1.3793     2.6065    4 B    0 0 0
  76 O    1     2.3880     4.5126   74 O    0 0 0
  76 O    1     2.3882     4.5131   78 O    0 0 0
  76 O    1     2.5391     4.7981   38 C    0 0 0
  76 O    1     2.5395     4.7990   50 C    0 0 0

  77 O    1     1.3793     2.6064    5 B    0 0 0
  77 O    1     1.3793     2.6065    3 B    0-1 0
  77 O    1     2.3882     4.5130   73 O   -1-1 0
  77 O    1     2.3882     4.5131   75 O    0-1 0
  77 O    1     2.5390     4.7980   37 C    0-1 0
  77 O    1     2.5391     4.7982   61 C   -1-1 0

  78 O    1     1.3793     2.6064    6 B    0 0 0
  78 O    1     1.3793     2.6065    4 B    0 0 0
  78 O    1     2.3882     4.5130   74 O    0 0 0
  78 O    1     2.3882     4.5131   76 O    0 0 0
  78 O    1     2.5390     4.7980   38 C    0 0 0
  78 O    1     2.5391     4.7982   62 C    0 0 0

  79 O    1     1.3795     2.6068   11 B    0 0 0
  79 O    1     1.3795     2.6068    7 B    0 0 0
  79 O    1     2.3880     4.5126   83 O    1 0 0
  79 O    1     2.3884     4.5134   81 O    0-1 0
  79 O    1     2.5400     4.7998   47 C    0 0 0
  79 O    1     2.5403     4.8005   59 C    0 0 0

  80 O    1     1.3795     2.6068   12 B    0 0 0
  80 O    1     1.3795     2.6068    8 B    0 0 0
  80 O    1     2.3880     4.5126   84 O    1 0 0
  80 O    1     2.3884     4.5134   82 O    0 0 0
  80 O    1     2.5400     4.7998   48 C    0 0 0
  80 O    1     2.5403     4.8005   60 C    1 1 0

  81 O    1     1.3795     2.6069    9 B    0 0 0
  81 O    1     1.3795     2.6070    7 B    0 1 0
  81 O    1     2.3881     4.5128   83 O    1 1 0
  81 O    1     2.3884     4.5134   79 O    0 1 0
  81 O    1     2.5404     4.8006   47 C    0 1 0
  81 O    1     2.5405     4.8008   71 C    0 0 0

  82 O    1     1.3795     2.6069   10 B    1 0 0
  82 O    1     1.3795     2.6070    8 B    0 0 0
  82 O    1     2.3881     4.5128   84 O    1 0 0
  82 O    1     2.3884     4.5134   80 O    0 0 0
  82 O    1     2.5404     4.8006   48 C    0 0 0
  82 O    1     2.5405     4.8008   72 C    1 0 0

  83 O    1     1.3796     2.6071   11 B   -1 0 0
  83 O    1     1.3797     2.6072    9 B   -1-1 0
  83 O    1     2.3880     4.5126   79 O   -1 0 0
  83 O    1     2.3881     4.5128   81 O   -1-1 0
  83 O    1     2.5409     4.8016   71 C   -1-1 0
  83 O    1     2.5410     4.8019   59 C   -1 0 0

  84 O    1     1.3796     2.6071   12 B   -1 0 0
  84 O    1     1.3797     2.6072   10 B    0 0 0
  84 O    1     2.3880     4.5126   80 O   -1 0 0
  84 O    1     2.3881     4.5128   82 O   -1 0 0
  84 O    1     2.5409     4.8016   72 C    0 0 0
  84 O    1     2.5410     4.8019   60 C    0 1 0


 SYMMETRY ALLOWED INTERNAL DEGREE(S) OF FREEDOM: 249
 TTTTTTTTTTTTTTTTTTTTTTTTTTTTTT SYMM        TELAPSE        2.49 TCPU        2.48
 TTTTTTTTTTTTTTTTTTTTTTTTTTTTTT INT_SCREEN  TELAPSE        2.68 TCPU        2.68

 DFT PARAMETERS

     ATOM       ELECTRONS   NET CHARGE   R(ANGSTROM)
   1   5  B       5.0000      0.0000     0.89000000
  13   1  H       1.0000      0.0000     1.11000000
  37   6  C       6.0000      0.0000     0.77000000
  73   8  O       8.0000      0.0000     0.74000000

 SIZE OF GRID=    2611210
 TTTTTTTTTTTTTTTTTTTTTTTTTTTTTT MAKE_GRID2  TELAPSE       20.86 TCPU       20.84
 BECKE WEIGHT FUNCTION
 RADSAFE =     2.00
 TOLERANCES - DENSITY:10**- 6; POTENTIAL:10**- 9; GRID WGT:10**-14

 RADIAL INTEGRATION  - INTERVALS (POINTS,UPPER LIMIT):            1( 75,  4.0*R)

 ANGULAR INTEGRATION - INTERVALS (ACCURACY LEVEL [N. POINTS] UPPER LIMIT):
  1(  4[  86]   0.2)  2(  8[ 194]   0.5)  3( 12[ 350]   0.9)  4( 16[ 974]   3.5)
  5( 12[ 350]9999.0)
 TTTTTTTTTTTTTTTTTTTTTTTTTTTTTT INT_CALC    TELAPSE       21.08 TCPU       21.06
 EEEEEEEEEE INT_CALC TERMINATION  DATE 19 02 2026 TIME 20:16:49.0

 *******************************************************************************
 cof-1_z37_L070_serr                                                             
 CRYSTAL - SCF - TYPE OF CALCULATION :  RESTRICTED CLOSED SHELL
 *******************************************************************************

 CAPPA:IS1  2;IS2  2;IS3  8; K PTS MONK NET  20; SYMMOPS:K SPACE   2;G SPACE   1

 TTTTTTTTTTTTTTTTTTTTTTTTTTTTTT SDIK        TELAPSE       22.98 TCPU       47.63

 AAAAAAAAAAAAAAAAAAAAAAAAAAAAAAAAAAAAAAAAAAAAAAAAAAAAAAAAAAAAAAAAAAAAAAAAAAAAAAA
         ATOMIC WAVEFUNCTION(S)


 NUCLEAR CHARGE  5.0  SYMMETRY SPECIES            S    P
 N. ELECTRONS    5.0  NUMBER OF PRIMITIVE GTOS    8    4
                      NUMBER OF CONTRACTED GTOS   4    2
                      NUMBER OF CLOSED SHELLS     2    0
                      OPEN SHELL OCCUPATION       0    1

  ZNUC  SCFIT    TOTAL HF ENERGY   KINETIC ENERGY   VIRIAL THEOREM ACCURACY
   5.0    11    -2.451164084E+01  2.462155050E+01 -1.995536038E+00  1.5E-06

 NUCLEAR CHARGE  1.0  SYMMETRY SPECIES            S
 N. ELECTRONS    1.0  NUMBER OF PRIMITIVE GTOS    4
                      NUMBER OF CONTRACTED GTOS   2
                      NUMBER OF CLOSED SHELLS     0
                      OPEN SHELL OCCUPATION       1

  ZNUC  SCFIT    TOTAL HF ENERGY   KINETIC ENERGY   VIRIAL THEOREM ACCURACY
   1.0     1    -4.977266687E-01  5.190767460E-01 -1.958869132E+00  0.0E+00

 NUCLEAR CHARGE  6.0  SYMMETRY SPECIES            S    P
 N. ELECTRONS    6.0  NUMBER OF PRIMITIVE GTOS    8    4
                      NUMBER OF CONTRACTED GTOS   4    2
                      NUMBER OF CLOSED SHELLS     2    0
                      OPEN SHELL OCCUPATION       0    2

  ZNUC  SCFIT    TOTAL HF ENERGY   KINETIC ENERGY   VIRIAL THEOREM ACCURACY
   6.0     9    -3.766704647E+01  3.775180683E+01 -1.997754800E+00  1.1E-06

 NUCLEAR CHARGE  8.0  SYMMETRY SPECIES            S    P
 N. ELECTRONS    8.0  NUMBER OF PRIMITIVE GTOS    8    4
                      NUMBER OF CONTRACTED GTOS   4    2
                      NUMBER OF CLOSED SHELLS     2    0
                      OPEN SHELL OCCUPATION       0    4

  ZNUC  SCFIT    TOTAL HF ENERGY   KINETIC ENERGY   VIRIAL THEOREM ACCURACY
   8.0    12    -7.477373220E+01  7.477365593E+01 -2.000001020E+00  3.8E-06

 AAAAAAAAAAAAAAAAAAAAAAAAAAAAAAAAAAAAAAAAAAAAAAAAAAAAAAAAAAAAAAAAAAAAAAAAAAAAAAA

 CHARGE NORMALIZATION FACTOR   1.00000000
 TOTAL ATOMIC CHARGES:
   5.0000000   5.0000000   5.0000000   5.0000000   5.0000000   5.0000000
   5.0000000   5.0000000   5.0000000   5.0000000   5.0000000   5.0000000
   1.0000000   1.0000000   1.0000000   1.0000000   1.0000000   1.0000000
   1.0000000   1.0000000   1.0000000   1.0000000   1.0000000   1.0000000
   1.0000000   1.0000000   1.0000000   1.0000000   1.0000000   1.0000000
   1.0000000   1.0000000   1.0000000   1.0000000   1.0000000   1.0000000
   6.0000000   6.0000000   6.0000000   6.0000000   6.0000000   6.0000000
   6.0000000   6.0000000   6.0000000   6.0000000   6.0000000   6.0000000
   6.0000000   6.0000000   6.0000000   6.0000000   6.0000000   6.0000000
   6.0000000   6.0000000   6.0000000   6.0000000   6.0000000   6.0000000
   6.0000000   6.0000000   6.0000000   6.0000000   6.0000000   6.0000000
   6.0000000   6.0000000   6.0000000   6.0000000   6.0000000   6.0000000
   8.0000000   8.0000000   8.0000000   8.0000000   8.0000000   8.0000000
   8.0000000   8.0000000   8.0000000   8.0000000   8.0000000   8.0000000
 TTTTTTTTTTTTTTTTTTTTTTTTTTTTTT MOQGAD      TELAPSE       23.07 TCPU       50.42
 TTTTTTTTTTTTTTTTTTTTTTTTTTTTTT SHELLXN     TELAPSE       37.07 TCPU      498.04
 TTTTTTTTTTTTTTTTTTTTTTTTTTTTTT MONMO3      TELAPSE       37.61 TCPU      515.13
 NUMERICALLY INTEGRATED DENSITY    395.9998278283
 TTTTTTTTTTTTTTTTTTTTTTTTTTTTTT NUMDFT      TELAPSE       38.97 TCPU      558.75
 CYC   0 ETOT(AU) -2.591918629236E+03 DETOT -2.59E+03 tst  0.00E+00 PX  1.00E+00
 TTTTTTTTTTTTTTTTTTTTTTTTTTTTTT DIIS        TELAPSE       39.07 TCPU      561.96
 TTTTTTTTTTTTTTTTTTTTTTTTTTTTTT FDIK        TELAPSE       40.84 TCPU      618.34
 INSULATING STATE
 TOP OF VALENCE BANDS -    BAND    198; K    4; EIG -3.0937979E-01 AU
 TOP OF VALENCE BANDS -    BAND    198; K    1; EIG -3.0968622E-01 AU
 BOTTOM OF VIRTUAL BANDS - BAND    199; K    1; EIG -1.5804541E-01 AU
 INDIRECT ENERGY BAND GAP:   4.1180 eV
 TTTTTTTTTTTTTTTTTTTTTTTTTTTTTT PDIG        TELAPSE       42.35 TCPU      625.23
 CHARGE NORMALIZATION FACTOR   1.00000000
 TOTAL ATOMIC CHARGES:
   4.1232689   4.1655468   4.1578680   4.1659841   4.1581048   4.1662311
   4.1658154   4.1577022   4.1655886   4.1574826   4.1651616   4.1229119
   0.7855118   0.7850963   0.7852117   0.7856290   0.7854539   0.7850047
   0.7851243   0.7855730   0.7862274   0.7853611   0.7855334   0.7863909
   0.7862176   0.7853509   0.7854960   0.7863528   0.7854570   0.7850072
   0.7851889   0.7856392   0.7854644   0.7850489   0.7852049   0.7856211
   6.0451661   6.0428516   6.2675725   6.2654141   6.2653802   6.2675369
   6.2667227   6.2645443   6.2644865   6.2666771   6.0421363   6.0444286
   6.0546174   6.0409844   6.2667802   6.2646474   6.2647188   6.2668679
   6.2667024   6.2645574   6.2647397   6.2668724   6.0397890   6.0533645
   6.0455281   6.0432123   6.2664930   6.2643133   6.2648586   6.2670516
   6.2672018   6.2650361   6.2656590   6.2678163   6.0416751   6.0439540
   8.7014396   8.6907480   8.7015417   8.6908579   8.7011649   8.6908315
   8.6911769   8.7018606   8.6912365   8.7015642   8.6913527   8.7020356
 TTTTTTTTTTTTTTTTTTTTTTTTTTTTTT MOQGAD      TELAPSE       42.44 TCPU      625.32
 TTTTTTTTTTTTTTTTTTTTTTTTTTTTTT SHELLXN     TELAPSE       56.95 TCPU     1088.10
 TTTTTTTTTTTTTTTTTTTTTTTTTTTTTT MONMO3      TELAPSE       57.48 TCPU     1105.17
 NUMERICALLY INTEGRATED DENSITY    395.9998884136
 TTTTTTTTTTTTTTTTTTTTTTTTTTTTTT NUMDFT      TELAPSE       58.87 TCPU     1149.60
 CYC   1 ETOT(AU) -2.577632329046E+03 DETOT  1.43E+01 tst  0.00E+00 PX  1.00E+00
 TTTTTTTTTTTTTTTTTTTTTTTTTTTTTT DIIS        TELAPSE       59.00 TCPU     1153.66
 DIIS TEST: 0.22286E+01 AT SCF   CYCLE   1 - MIX   30 %
 TTTTTTTTTTTTTTTTTTTTTTTTTTTTTT FDIK        TELAPSE       60.78 TCPU     1210.72
 INSULATING STATE
 TOP OF VALENCE BANDS -    BAND    198; K    4; EIG -2.1901053E-01 AU
 TOP OF VALENCE BANDS -    BAND    198; K    1; EIG -2.1959188E-01 AU
 BOTTOM OF VIRTUAL BANDS - BAND    199; K    1; EIG -8.2472432E-02 AU
 INDIRECT ENERGY BAND GAP:   3.7154 eV
 TTTTTTTTTTTTTTTTTTTTTTTTTTTTTT PDIG        TELAPSE       62.26 TCPU     1217.58
 CHARGE NORMALIZATION FACTOR   1.00000000
 TOTAL ATOMIC CHARGES:
   4.6985810   4.7160709   4.6904158   4.7167572   4.6903781   4.7167722
   4.7168851   4.6903065   4.7168633   4.6903385   4.7161044   4.6985303
   0.9064568   0.9099211   0.9099135   0.9064737   0.9058976   0.9129639
   0.9129547   0.9060560   0.9031272   0.9081292   0.9080421   0.9031694
   0.9031072   0.9081272   0.9080306   0.9031555   0.9059038   0.9129614
   0.9130318   0.9061304   0.9063866   0.9098721   0.9099311   0.9064879
   5.8572322   5.8793376   6.1445362   6.1438703   6.1442460   6.1449645
   6.1144652   6.1450826   6.1456818   6.1152009   5.8819139   5.8596459
   5.9094013   5.8749343   6.1268499   6.1211528   6.1218541   6.1273850
   6.1270472   6.1213734   6.1217523   6.1273122   5.8779664   5.9123327
   5.8571597   5.8792804   6.1145142   6.1451401   6.1455344   6.1150348
   6.1447285   6.1441147   6.1440197   6.1446637   5.8821223   5.8598138
   8.3466407   8.3317428   8.3469859   8.3321015   8.3240169   8.3360899
   8.3315638   8.3464550   8.3358206   8.3238610   8.3319514   8.3468713
 TTTTTTTTTTTTTTTTTTTTTTTTTTTTTT MOQGAD      TELAPSE       62.35 TCPU     1217.66
 TTTTTTTTTTTTTTTTTTTTTTTTTTTTTT SHELLXN     TELAPSE       76.96 TCPU     1683.63
 TTTTTTTTTTTTTTTTTTTTTTTTTTTTTT MONMO3      TELAPSE       77.50 TCPU     1700.73
 NUMERICALLY INTEGRATED DENSITY    395.9998632218
 TTTTTTTTTTTTTTTTTTTTTTTTTTTTTT NUMDFT      TELAPSE       78.88 TCPU     1744.94
 CYC   2 ETOT(AU) -2.578018515917E+03 DETOT -3.86E-01 tst  2.57E-03 PX  1.61E-01
 TTTTTTTTTTTTTTTTTTTTTTTTTTTTTT DIIS        TELAPSE       79.03 TCPU     1749.76
 DIIS TEST: 0.93589E+00 AT SCF   CYCLE   2 - DIIS ACTIVE - HISTORY:     2 CYCLES
 TTTTTTTTTTTTTTTTTTTTTTTTTTTTTT FDIK        TELAPSE       80.84 TCPU     1807.55
 INSULATING STATE
 TOP OF VALENCE BANDS -    BAND    198; K    4; EIG -2.3389185E-01 AU
 TOP OF VALENCE BANDS -    BAND    198; K    1; EIG -2.3462901E-01 AU
 BOTTOM OF VIRTUAL BANDS - BAND    199; K    1; EIG -7.7780739E-02 AU
 INDIRECT ENERGY BAND GAP:   4.2480 eV
 TTTTTTTTTTTTTTTTTTTTTTTTTTTTTT PDIG        TELAPSE       82.35 TCPU     1814.44
 CHARGE NORMALIZATION FACTOR   1.00000000
 TOTAL ATOMIC CHARGES:
   4.4754333   4.5112607   4.4878863   4.5105587   4.4879892   4.5106745
   4.5104049   4.4878893   4.5102460   4.4877550   4.5109037   4.4751744
   0.8855313   0.8887196   0.8888859   0.8856893   0.8836613   0.8916716
   0.8918468   0.8837368   0.8800688   0.8826795   0.8830162   0.8801792
   0.8801099   0.8827128   0.8829703   0.8801127   0.8836646   0.8916831
   0.8918986   0.8837908   0.8855156   0.8887244   0.8888552   0.8856454
   5.9085892   5.8768987   6.1614084   6.1631725   6.1630201   6.1612233
   6.1727641   6.1493061   6.1488170   6.1720707   5.8763871   5.9082252
   5.8996934   5.8912292   6.1655562   6.1647953   6.1645670   6.1654948
   6.1656306   6.1648236   6.1645071   6.1653926   5.8904273   5.8992108
   5.9088549   5.8771842   6.1726947   6.1492346   6.1489476   6.1721440
   6.1613517   6.1630865   6.1630699   6.1612091   5.8760788   5.9079786
   8.5156026   8.5085672   8.5157503   8.5087553   8.5252194   8.5041988
   8.5088358   8.5158665   8.5043359   8.5251843   8.5090387   8.5160543
 TTTTTTTTTTTTTTTTTTTTTTTTTTTTTT MOQGAD      TELAPSE       82.43 TCPU     1814.52
 TTTTTTTTTTTTTTTTTTTTTTTTTTTTTT SHELLXN     TELAPSE       96.96 TCPU     2277.79
 TTTTTTTTTTTTTTTTTTTTTTTTTTTTTT MONMO3      TELAPSE       97.50 TCPU     2294.88
 NUMERICALLY INTEGRATED DENSITY    395.9998669952
 TTTTTTTTTTTTTTTTTTTTTTTTTTTTTT NUMDFT      TELAPSE       98.89 TCPU     2339.59
 CYC   3 ETOT(AU) -2.578210511707E+03 DETOT -1.92E-01 tst  6.03E-04 PX  7.04E-02
 TTTTTTTTTTTTTTTTTTTTTTTTTTTTTT DIIS        TELAPSE       99.07 TCPU     2345.08
 DIIS TEST: 0.30643E-01 AT SCF   CYCLE   3 - DIIS ACTIVE - HISTORY:     3 CYCLES
 TTTTTTTTTTTTTTTTTTTTTTTTTTTTTT FDIK        TELAPSE      100.86 TCPU     2402.28
 INSULATING STATE
 TOP OF VALENCE BANDS -    BAND    198; K    4; EIG -2.4164406E-01 AU
 TOP OF VALENCE BANDS -    BAND    198; K    1; EIG -2.4214093E-01 AU
 BOTTOM OF VIRTUAL BANDS - BAND    199; K    1; EIG -8.5279231E-02 AU
 INDIRECT ENERGY BAND GAP:   4.2549 eV
 TTTTTTTTTTTTTTTTTTTTTTTTTTTTTT PDIG        TELAPSE      102.33 TCPU     2409.13
 CHARGE NORMALIZATION FACTOR   1.00000000
 TOTAL ATOMIC CHARGES:
   4.4855655   4.5119466   4.4951340   4.5112427   4.4952240   4.5113600
   4.5112049   4.4949804   4.5110436   4.4948648   4.5116825   4.4853030
   0.8686906   0.8711612   0.8712402   0.8687589   0.8709704   0.8717781
   0.8717709   0.8710518   0.8664067   0.8699284   0.8699171   0.8665561
   0.8664325   0.8699595   0.8698688   0.8664949   0.8709941   0.8717903
   0.8718333   0.8710938   0.8686722   0.8711464   0.8712205   0.8687247
   5.9232071   5.9520033   6.1764368   6.1701531   6.1702957   6.1766198
   6.1455349   6.1826144   6.1833108   6.1465697   5.9539275   5.9247784
   5.9717387   5.9337797   6.1668400   6.1557336   6.1563246   6.1672316
   6.1668262   6.1557586   6.1563261   6.1672621   5.9356527   5.9734086
   5.9231997   5.9520409   6.1454450   6.1825181   6.1833899   6.1466160
   6.1763321   6.1701274   6.1703613   6.1766051   5.9539406   5.9247973
   8.4928326   8.4758444   8.4931130   8.4761038   8.4722841   8.4828678
   8.4758261   8.4927709   8.4828665   8.4724995   8.4761407   8.4931301
 TTTTTTTTTTTTTTTTTTTTTTTTTTTTTT MOQGAD      TELAPSE      102.42 TCPU     2409.21
 TTTTTTTTTTTTTTTTTTTTTTTTTTTTTT SHELLXN     TELAPSE      117.02 TCPU     2874.83
 TTTTTTTTTTTTTTTTTTTTTTTTTTTTTT MONMO3      TELAPSE      117.55 TCPU     2891.89
 NUMERICALLY INTEGRATED DENSITY    395.9998682903
 TTTTTTTTTTTTTTTTTTTTTTTTTTTTTT NUMDFT      TELAPSE      118.93 TCPU     2936.04
 CYC   4 ETOT(AU) -2.578216251459E+03 DETOT -5.74E-03 tst  3.89E-05 PX  1.84E-02
 TTTTTTTTTTTTTTTTTTTTTTTTTTTTTT DIIS        TELAPSE      119.12 TCPU     2942.13
 DIIS TEST: 0.11335E-01 AT SCF   CYCLE   4 - DIIS ACTIVE - HISTORY:     4 CYCLES
 TTTTTTTTTTTTTTTTTTTTTTTTTTTTTT FDIK        TELAPSE      120.90 TCPU     2998.96
 INSULATING STATE
 TOP OF VALENCE BANDS -    BAND    198; K    4; EIG -2.4155915E-01 AU
 TOP OF VALENCE BANDS -    BAND    198; K    1; EIG -2.4217619E-01 AU
 BOTTOM OF VIRTUAL BANDS - BAND    199; K    1; EIG -8.5834359E-02 AU
 INDIRECT ENERGY BAND GAP:   4.2375 eV
 TTTTTTTTTTTTTTTTTTTTTTTTTTTTTT PDIG        TELAPSE      122.40 TCPU     3005.85
 CHARGE NORMALIZATION FACTOR   1.00000000
 TOTAL ATOMIC CHARGES:
   4.4895384   4.5161664   4.4944092   4.5165494   4.4944986   4.5166608
   4.5165212   4.4944071   4.5163747   4.4942947   4.5159389   4.4893363
   0.8711790   0.8737819   0.8738960   0.8712864   0.8702501   0.8765156
   0.8766688   0.8703944   0.8666578   0.8695488   0.8697671   0.8667664
   0.8666791   0.8695687   0.8697303   0.8667123   0.8702588   0.8765236
   0.8767309   0.8704520   0.8711466   0.8737670   0.8738822   0.8712618
   5.9301947   5.9178336   6.1701549   6.1738476   6.1738729   6.1702017
   6.1701159   6.1607156   6.1604151   6.1697286   5.9179693   5.9303540
   5.9430290   5.9285183   6.1669123   6.1651590   6.1651902   6.1670103
   6.1670089   6.1652317   6.1651178   6.1669266   5.9286496   5.9433326
   5.9303674   5.9180331   6.1700574   6.1606679   6.1604829   6.1697458
   6.1701518   6.1738410   6.1738674   6.1701239   5.9177838   5.9302083
   8.4940031   8.4855542   8.4941954   8.4857793   8.4926257   8.4821065
   8.4856934   8.4941431   8.4821070   8.4925132   8.4859437   8.4943931
 TTTTTTTTTTTTTTTTTTTTTTTTTTTTTT MOQGAD      TELAPSE      122.49 TCPU     3005.94
 TTTTTTTTTTTTTTTTTTTTTTTTTTTTTT SHELLXN     TELAPSE      137.02 TCPU     3469.07
 TTTTTTTTTTTTTTTTTTTTTTTTTTTTTT MONMO3      TELAPSE      137.55 TCPU     3486.14
 NUMERICALLY INTEGRATED DENSITY    395.9998684221
 TTTTTTTTTTTTTTTTTTTTTTTTTTTTTT NUMDFT      TELAPSE      138.95 TCPU     3530.74
 CYC   5 ETOT(AU) -2.578218735033E+03 DETOT -2.48E-03 tst  1.86E-05 PX  8.92E-03
 TTTTTTTTTTTTTTTTTTTTTTTTTTTTTT DIIS        TELAPSE      139.16 TCPU     3537.47
 DIIS TEST: 0.11364E-02 AT SCF   CYCLE   5 - DIIS ACTIVE - HISTORY:     5 CYCLES
 TTTTTTTTTTTTTTTTTTTTTTTTTTTTTT FDIK        TELAPSE      140.96 TCPU     3594.57
 INSULATING STATE
 TOP OF VALENCE BANDS -    BAND    198; K    4; EIG -2.4055808E-01 AU
 TOP OF VALENCE BANDS -    BAND    198; K    1; EIG -2.4112854E-01 AU
 BOTTOM OF VIRTUAL BANDS - BAND    199; K    1; EIG -8.4990152E-02 AU
 INDIRECT ENERGY BAND GAP:   4.2332 eV
 TTTTTTTTTTTTTTTTTTTTTTTTTTTTTT PDIG        TELAPSE      142.43 TCPU     3601.42
 CHARGE NORMALIZATION FACTOR   1.00000000
 TOTAL ATOMIC CHARGES:
   4.4880194   4.5166654   4.4952479   4.5160089   4.4953365   4.5161219
   4.5159404   4.4951571   4.5157892   4.4950455   4.5163914   4.4877701
   0.8719908   0.8752533   0.8753677   0.8720974   0.8724530   0.8767600
   0.8768240   0.8725495   0.8684583   0.8717122   0.8718382   0.8685964
   0.8684865   0.8717424   0.8717924   0.8685371   0.8724680   0.8767698
   0.8768847   0.8725975   0.8719683   0.8752423   0.8753478   0.8720650
   5.9188831   5.9218071   6.1739334   6.1689815   6.1689884   6.1739518
   6.1584795   6.1720297   6.1722743   6.1588163   5.9227354   5.9196805
   5.9420964   5.9184497   6.1683103   6.1619745   6.1622149   6.1684886
   6.1683343   6.1620016   6.1621975   6.1684661   5.9191796   5.9428465
   5.9189866   5.9219437   6.1584013   6.1719535   6.1723640   6.1588694
   6.1738578   6.1689387   6.1690397   6.1739231   5.9226213   5.9195942
   8.4982305   8.4853475   8.4984614   8.4855806   8.4902591   8.4883581
   8.4854430   8.4982986   8.4884218   8.4903887   8.4857124   8.4985875
 TTTTTTTTTTTTTTTTTTTTTTTTTTTTTT MOQGAD      TELAPSE      142.52 TCPU     3601.51
 TTTTTTTTTTTTTTTTTTTTTTTTTTTTTT SHELLXN     TELAPSE      157.15 TCPU     4068.04
 TTTTTTTTTTTTTTTTTTTTTTTTTTTTTT MONMO3      TELAPSE      157.69 TCPU     4085.10
 NUMERICALLY INTEGRATED DENSITY    395.9998683460
 TTTTTTTTTTTTTTTTTTTTTTTTTTTTTT NUMDFT      TELAPSE      159.07 TCPU     4129.23
 CYC   6 ETOT(AU) -2.578218956967E+03 DETOT -2.22E-04 tst  4.15E-06 PX  3.20E-03
 TTTTTTTTTTTTTTTTTTTTTTTTTTTTTT DIIS        TELAPSE      159.31 TCPU     4135.99
 DIIS TEST: 0.35229E-03 AT SCF   CYCLE   6 - DIIS ACTIVE - HISTORY:     6 CYCLES
 TTTTTTTTTTTTTTTTTTTTTTTTTTTTTT FDIK        TELAPSE      161.09 TCPU     4192.66
 INSULATING STATE
 TOP OF VALENCE BANDS -    BAND    198; K    4; EIG -2.4080856E-01 AU
 TOP OF VALENCE BANDS -    BAND    198; K    1; EIG -2.4139771E-01 AU
 BOTTOM OF VIRTUAL BANDS - BAND    199; K    1; EIG -8.4890820E-02 AU
 INDIRECT ENERGY BAND GAP:   4.2427 eV
 TTTTTTTTTTTTTTTTTTTTTTTTTTTTTT PDIG        TELAPSE      162.59 TCPU     4199.53
 CHARGE NORMALIZATION FACTOR   1.00000000
 TOTAL ATOMIC CHARGES:
   4.4879473   4.5163859   4.4952303   4.5160411   4.4953205   4.5161541
   4.5159824   4.4951649   4.5158317   4.4950507   4.5161194   4.4877062
   0.8723668   0.8751068   0.8752149   0.8724678   0.8721651   0.8772309
   0.8773266   0.8722783   0.8682829   0.8715978   0.8717469   0.8684027
   0.8683088   0.8716241   0.8717053   0.8683451   0.8721782   0.8772410
   0.8773866   0.8723295   0.8723419   0.8750954   0.8751965   0.8724373
   5.9222427   5.9212201   6.1713099   6.1712711   6.1713131   6.1713747
   6.1623363   6.1673260   6.1673704   6.1624285   5.9219264   5.9228492
   5.9431897   5.9214516   6.1675043   6.1624429   6.1626509   6.1676999
   6.1675593   6.1624908   6.1626066   6.1676516   5.9220909   5.9438915
   5.9223677   5.9213772   6.1622632   6.1672565   6.1674564   6.1624688
   6.1712589   6.1712419   6.1713438   6.1713288   5.9217904   5.9227441
   8.4967048   8.4853590   8.4969221   8.4855902   8.4903600   8.4855840
   8.4854684   8.4967974   8.4856101   8.4903863   8.4857335   8.4970762
 TTTTTTTTTTTTTTTTTTTTTTTTTTTTTT MOQGAD      TELAPSE      162.67 TCPU     4199.62
 TTTTTTTTTTTTTTTTTTTTTTTTTTTTTT SHELLXN     TELAPSE      177.25 TCPU     4664.20
 TTTTTTTTTTTTTTTTTTTTTTTTTTTTTT MONMO3      TELAPSE      177.78 TCPU     4681.27
 NUMERICALLY INTEGRATED DENSITY    395.9998682810
 TTTTTTTTTTTTTTTTTTTTTTTTTTTTTT NUMDFT      TELAPSE      179.17 TCPU     4725.67
 CYC   7 ETOT(AU) -2.578219044728E+03 DETOT -8.78E-05 tst  6.09E-07 PX  1.25E-03
 TTTTTTTTTTTTTTTTTTTTTTTTTTTTTT DIIS        TELAPSE      179.43 TCPU     4732.45
 DIIS TEST: 0.54518E-05 AT SCF   CYCLE   7 - DIIS ACTIVE - HISTORY:     7 CYCLES
 TTTTTTTTTTTTTTTTTTTTTTTTTTTTTT FDIK        TELAPSE      181.22 TCPU     4789.44
 INSULATING STATE
 TOP OF VALENCE BANDS -    BAND    198; K    4; EIG -2.4081743E-01 AU
 TOP OF VALENCE BANDS -    BAND    198; K    1; EIG -2.4140359E-01 AU
 BOTTOM OF VIRTUAL BANDS - BAND    199; K    1; EIG -8.4933846E-02 AU
 INDIRECT ENERGY BAND GAP:   4.2418 eV
 TTTTTTTTTTTTTTTTTTTTTTTTTTTTTT PDIG        TELAPSE      182.69 TCPU     4796.30
 CHARGE NORMALIZATION FACTOR   1.00000000
 TOTAL ATOMIC CHARGES:
   4.4883374   4.5164587   4.4951905   4.5160801   4.4952800   4.5161928
   4.5160237   4.4951319   4.5158735   4.4950191   4.5161971   4.4881040
   0.8722166   0.8751828   0.8752958   0.8723217   0.8721853   0.8771533
   0.8772484   0.8722960   0.8683012   0.8714694   0.8716267   0.8684275
   0.8683278   0.8714964   0.8715840   0.8683693   0.8721982   0.8771627
   0.8773092   0.8723471   0.8721915   0.8751711   0.8752777   0.8722913
   5.9228187   5.9206835   6.1721532   6.1703675   6.1703869   6.1721905
   6.1620365   6.1676337   6.1676838   6.1621200   5.9213498   5.9234026
   5.9431402   5.9218610   6.1674115   6.1624625   6.1626338   6.1675666
   6.1674608   6.1625063   6.1625960   6.1675231   5.9224086   5.9437578
   5.9229450   5.9208409   6.1619649   6.1675670   6.1677659   6.1621597
   6.1721031   6.1703381   6.1704181   6.1721443   5.9212125   5.9232976
   8.4966220   8.4852039   8.4968402   8.4854351   8.4905947   8.4858958
   8.4853123   8.4967125   8.4859331   8.4906326   8.4855765   8.4969897
 TTTTTTTTTTTTTTTTTTTTTTTTTTTTTT MOQGAD      TELAPSE      182.78 TCPU     4796.39
 TTTTTTTTTTTTTTTTTTTTTTTTTTTTTT SHELLXN     TELAPSE      197.34 TCPU     5260.36
 TTTTTTTTTTTTTTTTTTTTTTTTTTTTTT MONMO3      TELAPSE      197.87 TCPU     5277.45
 NUMERICALLY INTEGRATED DENSITY    395.9998682814
 TTTTTTTTTTTTTTTTTTTTTTTTTTTTTT NUMDFT      TELAPSE      199.26 TCPU     5321.66
 CYC   8 ETOT(AU) -2.578219045109E+03 DETOT -3.81E-07 tst  1.89E-08 PX  2.35E-04
 TTTTTTTTTTTTTTTTTTTTTTTTTTTTTT DIIS        TELAPSE      199.54 TCPU     5328.45
 DIIS TEST: 0.17475E-05 AT SCF   CYCLE   8 - DIIS ACTIVE - HISTORY:     8 CYCLES
 TTTTTTTTTTTTTTTTTTTTTTTTTTTTTT FDIK        TELAPSE      201.32 TCPU     5385.15
 INSULATING STATE
 TOP OF VALENCE BANDS -    BAND    198; K    4; EIG -2.4081238E-01 AU
 TOP OF VALENCE BANDS -    BAND    198; K    1; EIG -2.4139949E-01 AU
 BOTTOM OF VIRTUAL BANDS - BAND    199; K    1; EIG -8.4931342E-02 AU
 INDIRECT ENERGY BAND GAP:   4.2417 eV
 TTTTTTTTTTTTTTTTTTTTTTTTTTTTTT PDIG        TELAPSE      202.82 TCPU     5392.03
 CHARGE NORMALIZATION FACTOR   1.00000000
 TOTAL ATOMIC CHARGES:
   4.4883405   4.5164691   4.4951813   4.5161182   4.4952706   4.5162308
   4.5160612   4.4951190   4.5159110   4.4950061   4.5162065   4.4881045
   0.8722427   0.8751362   0.8752480   0.8723469   0.8721758   0.8771458
   0.8772400   0.8722871   0.8682801   0.8714853   0.8716386   0.8684048
   0.8683064   0.8715120   0.8715962   0.8683469   0.8721889   0.8771554
   0.8773006   0.8723382   0.8722178   0.8751245   0.8752298   0.8723164
   5.9224494   5.9209562   6.1718352   6.1707187   6.1707440   6.1718797
   6.1620980   6.1675876   6.1676430   6.1621932   5.9216412   5.9230453
   5.9429243   5.9218577   6.1673870   6.1625202   6.1627070   6.1675571
   6.1674380   6.1625654   6.1626675   6.1675124   5.9224391   5.9435712
   5.9225749   5.9211132   6.1620260   6.1675201   6.1677261   6.1622331
   6.1717845   6.1706894   6.1707752   6.1718338   5.9215047   5.9229404
   8.4966442   8.4852787   8.4968623   8.4855098   8.4906056   8.4858460
   8.4853874   8.4967351   8.4858804   8.4906434   8.4856517   8.4970127
 TTTTTTTTTTTTTTTTTTTTTTTTTTTTTT MOQGAD      TELAPSE      202.90 TCPU     5392.12
 TTTTTTTTTTTTTTTTTTTTTTTTTTTTTT SHELLXN     TELAPSE      217.49 TCPU     5857.02
 +++ ENERGIES IN A.U. +++
 ::: EXT EL-POLE                                  -2.7531241625660E+03
 ::: EXT EL-SPHEROPOLE                             3.0933345987589E+01
 ::: BIELET ZONE E-E                               4.1541350065245E+03
 ::: TOTAL E-E                                     1.4319441899461E+03
 ::: TOTAL E-N + N-E                              -6.5187099181598E+03
 ::: TOTAL N-N                                     2.1610152003925E+02
 ::: KINETIC ENERGY                                2.5598803636545E+03
 ::: PSEUDO TOTAL   ENERGY                        -2.3107838445199E+03
 ::: VIRIAL COEFFICIENT                            1.0511422074050E+00
 TTTTTTTTTTTTTTTTTTTTTTTTTTTTTT MONMO3      TELAPSE      218.02 TCPU     5874.10
 NUMERICALLY INTEGRATED DENSITY    395.9998682822
 EXCHANGE ENERGY: -0.252051766773E+03  CORRELATION ENERGY: -0.153834342509E+02
 TTTTTTTTTTTTTTTTTTTTTTTTTTTTTT NUMDFT      TELAPSE      219.41 TCPU     5918.56
 CYC   9 ETOT(AU) -2.578219045544E+03 DETOT -4.35E-07 tst  4.93E-09 PX  2.35E-04

 == SCF ENDED - CONVERGENCE ON ENERGY      E(AU) -2.5782190455440E+03 CYCLES   9


 ENERGY EXPRESSION=HARTREE+FOCK EXCH*0.00000+(HSESOL     EXCH)*1.00000+PBESOL     CORR


 TOTAL ENERGY(DFT)(AU)(  9) -2.5782190455440E+03 DE-4.4E-07 tester 4.9E-09
 TTTTTTTTTTTTTTTTTTTTTTTTTTTTTT EDFT        TELAPSE      219.41 TCPU     5918.57
 
 INFORMATION **** DFTD3 ENERGY **** CALCULATE DFTD3 ENERGY

           DFT-D V3(BJ)
 DF                                         hsesol3c  
 parameters
 s6       :    1.0000
 s8       :    0.0000
 a1       :    0.5196
 a2       :    4.9385
 k1 k3    :   16.0000   -4.0000
 Cutoff   :   50.2022
 CN-Cutoff:   21.1671
 ABC-Cutoff:   21.1671
 
 Edisp /kcal,au:   -49.7780 -0.07932628

 E6    /kcal :   -52.8190
 E8    /kcal :     0.0000
 E6(ABC) "   :   3.041045
 
 INFORMATION **** DFTD3 ENERGY **** NORMAL TERMINATION OF DFTD3 MODULE

 GCP ENERGY CALCULATION
  level        hsesol3c            basis:hsesol3c
  Nbf            948
  Atoms           84

  Parameters: 
  sigma     1.0000
  eta       1.4281
  alpha     0.2936
  beta      1.9467

  dmp_scal      4.0000
  dmp_exp       6.0000
 cutoffs: 
   distance [bohr] 60.0
   noise    [a.u.] 2.2E-16
 SR-damping   T
 ** gCP correction **
  Egcp:        0.1661355494 / (a.u.) ||     104.2516 / (kcal/mol)
 INFORMATION **** GCP **** NORMAL TERMINATION OF GCP MODULE

 *******************************************************************************

 DFT-D3-GCP DISPERSION AND COUNTERPOISE CORRECTION

 D3 DISPERSION ENERGY (AU)      -7.9326278089475E-02
 GCP ENERGY (AU)                 1.6613554943667E-01
 TOTAL ENERGY + DISP + GCP (AU) -2.5781322362727E+03

 *******************************************************************************

 EIGENVECTORS IN FORTRAN UNIT 10
 TTTTTTTTTTTTTTTTTTTTTTTTTTTTTT END         TELAPSE      222.52 TCPU     5927.62
 EEEEEEEEEE TERMINATION  DATE 19 02 2026 TIME 20:20:10.4
