 Default number of threads is:           32

         
 *******************************************************************************
 *                                                                             *
 *                               CRYSTAL23                                     *
 *                      public : 1.0.1 - October 2022                          *
 *                       HTTP://WWW.CRYSTAL.UNITO.IT                           *
 *                                                                             *
 *                              MAIN AUTHORS                                   *
 *                                                                             *
 *  R. DOVESI(1,11), V.R. SAUNDERS(2), C. ROETTI(1,11), R. ORLANDO(1,11),      *
 *  C.M. ZICOVICH-WILSON(1,3), F. PASCALE(4), B. CIVALLERI(1,11),              *
 *  K. DOLL(5), N.M. HARRISON(6), I.J. BUSH(7), Ph. D'ARCO(8),                 *
 *  M. LLUNELL(9), M. CAUSA'(10), Y. NOEL(8), L. MASCHIO(1,11), A. ERBA(1,11)  *
 *  M. RE'RAT(14), S. CASASSA(1,11), B.G. SEARLE(2), J.K. DESMARAIS(1)         *
 *                                                                             *
 *        CONTRIBUTIONS TO THE CODE HAVE ALSO BEEN GIVEN BY                    *
 *                                                                             *
 *  M. FERRABONE(1,11), M. DE LA PIERRE(1,11), M. FERRERO(1,11),               *
 *  J. BAIMA(1,11), E. ALBANESE(1,11), M.F. PEINTINGER(12), R. BAST(13),       *
 *  B. KIRTMAN(15), V. LACIVITA(1,11), R. DEMICHELIS(1,16)                     *
 *  G. BRANDEBURG(17), S. SALUSTRO(1,11), G. SANSONE(1,11)                     *
 *  M.T. RUGGIERO(18), L.E. DAGA(1), L. DONA'(1), A. COSSARD(1)                *
 *                                                                             *
 * (1) THEORETICAL CHEMISTRY GROUP - UNIVERSITA' DI TORINO - TORINO (ITALY)    *
 * (2) SCIENTIFIC COMPUTING DEPARTMENT - STFC DARESBURY (UK)                   *
 * (3) UNIVERSIDAD AUTONOMA DEL ESTADO DE MORELOS - CUERNAVACA (MEXICO)        *
 * (4) UNIVERSITE' DE LORRAINE - NANCY (FRANCE)                                *
 * (5) UNIVERSITAET STUTTGART- STUTTGART (GERMANY)                             *
 * (6) IMPERIAL COLLEGE - LONDON (UK)                                          *
 * (7) SCIENTIFIC COMPUTING DEPARTMENT - STFC RAL (UK)                         *
 * (8) UPMC - SORBONNE UNIVERSITES - PARIS (FRANCE)                            *
 * (9) UNIVERSIDAD DE BARCELONA - BARCELONA (SPAIN)                            *
 *(10) UNIVERSITA' DI NAPOLI "FEDERICO II" - NAPOLI (ITALY)                    *
 *(11) NIS - NANOSTRUCTURED INTERFACES AND SURFACES - TORINO (ITALY)           *
 *(12) MPI FUER CHEMISCHE ENERGIEKONVERSION - MUELHEIM AN DER RUHR (GERMANY)   *
 *(13) UNIVERSITY OF TROMSO - TROMSO (NORWAY)                                  *
 *(14) UNIVERSITE' DE PAU ET DES PAYS DE L'ADOUR - PAU (FRANCE)                *
 *(15) UNIVERSITY OF CALIFORNIA SANTA BARBARA - SANTA BARBARA (USA)            *
 *(16) CURTIN UNIVERSITY - PERTH (AUSTRALIA)                                   *
 *(17) UNIVERSITY COLLEGE LONDON - LONDON (UK)                                 *
 *(18) UNIVERSITY OF VERMONT - BURLINGTON (USA)                                *
 *                                                                             *
 *******************************************************************************
 EEEEEEEEEE STARTING  DATE 19 02 2026 TIME 20:19:56.3
 cof-1_z38_L040_serr                                                             

 CRYSTAL CALCULATION
 (INPUT ACCORDING TO THE INTERNATIONAL TABLES FOR X-RAY CRYSTALLOGRAPHY)
 CRYSTAL FAMILY                       :  TRICLINIC   
 CRYSTAL CLASS  (GROTH - 1921)        :  TRICLINIC PEDIAL                     

 SPACE GROUP (NONCENTROSYMMETRIC)     :  P 1             

 LATTICE PARAMETERS  (ANGSTROMS AND DEGREES) - CONVENTIONAL CELL
        A           B           C        ALPHA        BETA       GAMMA
    15.02361    15.02392     7.60000    90.00032    89.99994   119.99596


 NUMBER OF IRREDUCIBLE ATOMS IN THE CONVENTIONAL CELL:   84

 INPUT COORDINATES

 ATOM AT. N.              COORDINATES
   1   5     6.136805400000E-01  2.273182200000E-01  2.506285100000E-01
   2   5     7.673736500000E-01  5.347356900000E-01  7.506285100000E-01
   3   5     7.727362000000E-01  3.863778800000E-01  2.506285200000E-01
   4   5     9.264293100000E-01  6.937953500000E-01  7.506285200000E-01
   5   5     6.136762700000E-01  3.863606700000E-01  2.493070500000E-01
   6   5     7.673693800000E-01  6.937781400000E-01  7.493070500000E-01
   7   5     2.272552500000E-01  6.136332200000E-01  2.506285200000E-01
   8   5     3.809483600000E-01  9.210506900000E-01  7.506285200000E-01
   9   5     3.863632200000E-01  6.136124500000E-01  2.506285200000E-01
  10   5     5.400563300000E-01  9.210299200000E-01  7.506285200000E-01
  11   5     3.863435000000E-01  7.727516500000E-01  2.493070500000E-01
  12   5     5.400366100000E-01  8.016912000000E-02  7.493070500000E-01
  13   1     9.030436200000E-01  3.089300500000E-01  2.478888400000E-01
  14   1     5.673673000000E-02  6.163475200000E-01  7.478888400000E-01
  15   1     9.663453000000E-02  6.910534400000E-01  2.474699000000E-01
  16   1     2.503276400000E-01  9.984709100000E-01  7.474699000000E-01
  17   1     9.029714200000E-01  5.940724300000E-01  2.474054200000E-01
  18   1     5.666453000000E-02  9.014899000000E-01  7.474054200000E-01
  19   1     9.673618000000E-02  4.056849400000E-01  2.474215000000E-01
  20   1     2.504292900000E-01  7.131024100000E-01  7.474215000000E-01
  21   1     6.910324000000E-01  9.700412000000E-02  2.521111700000E-01
  22   1     8.447255100000E-01  4.044215900000E-01  7.521111800000E-01
  23   1     3.089297200000E-01  9.034373100000E-01  2.525301400000E-01
  24   1     4.626228300000E-01  2.108547800000E-01  7.525301400000E-01
  25   1     4.058699900000E-01  9.704998000000E-02  2.525946600000E-01
  26   1     5.595631000000E-01  4.044674500000E-01  7.525946600000E-01
  27   1     5.943122100000E-01  9.033473200000E-01  2.525784700000E-01
  28   1     7.480053200000E-01  2.107647900000E-01  7.525784700000E-01
  29   1     6.910727400000E-01  5.940542100000E-01  2.478888700000E-01
  30   1     8.447658500000E-01  9.014716800000E-01  7.478888700000E-01
  31   1     3.089618300000E-01  4.056093300000E-01  2.474698700000E-01
  32   1     4.626549400000E-01  7.130268000000E-01  7.474698700000E-01
  33   1     4.058405700000E-01  3.088232500000E-01  2.474053700000E-01
  34   1     5.595336800000E-01  6.162407200000E-01  7.474053700000E-01
  35   1     5.942908800000E-01  6.909579300000E-01  2.474215500000E-01
  36   1     7.479839900000E-01  9.983754000000E-01  7.474215500000E-01
  37   6     8.918903100000E-01  4.459436900000E-01  2.492587000000E-01
  38   6     4.558342000000E-02  7.533611600000E-01  7.492587000000E-01
  39   6     9.464891100000E-01  3.927856300000E-01  2.479533100000E-01
  40   6     1.001822200000E-01  7.002031000000E-01  7.479533100000E-01
  41   6     5.338812000000E-02  6.071853000000E-01  2.478405500000E-01
  42   6     2.070812300000E-01  9.146027700000E-01  7.478405500000E-01
  43   6     9.464521100000E-01  5.536921900000E-01  2.481789700000E-01
  44   6     1.001452200000E-01  8.611096600000E-01  7.481789700000E-01
  45   6     5.342634000000E-02  4.462499700000E-01  2.473086900000E-01
  46   6     2.071194500000E-01  7.536674400000E-01  7.473086900000E-01
  47   6     1.080358900000E-01  5.540356300000E-01  2.481950700000E-01
  48   6     2.617290000000E-01  8.614531000000E-01  7.481950700000E-01
  49   6     5.540394200000E-01  1.081684600000E-01  2.507413400000E-01
  50   6     7.077325300000E-01  4.155859300000E-01  7.507413300000E-01
  51   6     6.071778500000E-01  5.355594000000E-02  2.520466900000E-01
  52   6     7.608709600000E-01  3.609734100000E-01  7.520466900000E-01
  53   6     3.927986700000E-01  9.466631600000E-01  2.521595100000E-01
  54   6     5.464917800000E-01  2.540806300000E-01  7.521595000000E-01
  55   6     4.462875800000E-01  5.360286000000E-02  2.518210900000E-01
  56   6     5.999806900000E-01  3.610203300000E-01  7.518210900000E-01
  57   6     5.537168500000E-01  9.466235600000E-01  2.526913000000E-01
  58   6     7.074099600000E-01  2.540410300000E-01  7.526913000000E-01
  59   6     4.459279100000E-01  8.919920600000E-01  2.518049500000E-01
  60   6     5.996210200000E-01  1.994095300000E-01  7.518049500000E-01
  61   6     5.540448700000E-01  4.458745500000E-01  2.492586900000E-01
  62   6     7.077379800000E-01  7.532920200000E-01  7.492586900000E-01
  63   6     6.072102200000E-01  5.536257800000E-01  2.479533400000E-01
  64   6     7.609033300000E-01  8.610432500000E-01  7.479533400000E-01
  65   6     3.928233700000E-01  4.461720300000E-01  2.478405200000E-01
  66   6     5.465164800000E-01  7.535895000000E-01  7.478405200000E-01
  67   6     4.462872600000E-01  3.926899900000E-01  2.481789300000E-01
  68   6     5.999803700000E-01  7.001074600000E-01  7.481789300000E-01
  69   6     5.537429600000E-01  6.070980000000E-01  2.473087300000E-01
  70   6     7.074360700000E-01  9.145154700000E-01  7.473087300000E-01
  71   6     4.459599800000E-01  5.539582300000E-01  2.481950700000E-01
  72   6     5.996530900000E-01  8.613757000000E-01  7.481950700000E-01
  73   8     5.607366800000E-01  2.803706300000E-01  2.496615800000E-01
  74   8     7.144297900000E-01  5.877881000000E-01  7.496615800000E-01
  75   8     7.196817000000E-01  2.803783300000E-01  2.524495700000E-01
  76   8     8.733748100000E-01  5.877958000000E-01  7.524495700000E-01
  77   8     7.196794200000E-01  4.393234600000E-01  2.482434300000E-01
  78   8     8.733725300000E-01  7.467409300000E-01  7.482434300000E-01
  79   8     2.803245100000E-01  7.196511100000E-01  2.496616000000E-01
  80   8     4.340176200000E-01  2.706858000000E-02  7.496616000000E-01
  81   8     2.803439700000E-01  5.606956100000E-01  2.524495700000E-01
  82   8     4.340370800000E-01  8.681130800000E-01  7.524495700000E-01
  83   8     4.392638400000E-01  7.196354200000E-01  2.482434200000E-01
  84   8     5.929569500000E-01  2.705289000000E-02  7.482434200000E-01

 *******************************************************************************

 << INFORMATION >>: FROM NOW ON, ALL COORDINATES REFER TO THE PRIMITIVE CELL

 *******************************************************************************

 LATTICE PARAMETERS  (ANGSTROMS AND DEGREES) - PRIMITIVE CELL
       A          B          C        ALPHA      BETA     GAMMA        VOLUME
   15.02361   15.02392    7.60000    90.00032  89.99994 119.99596   1485.659765

 COORDINATES OF THE EQUIVALENT ATOMS (FRACTIONAL UNITS)

 N. ATOM EQUIV AT. N.          X                  Y                  Z

   1   1   1    5 B    -3.86319460000E-01  2.27318220000E-01  2.50628510000E-01

   2   2   1    5 B    -2.32626350000E-01 -4.65264310000E-01 -2.49371490000E-01

   3   3   1    5 B    -2.27263800000E-01  3.86377880000E-01  2.50628520000E-01

   4   4   1    5 B    -7.35706900000E-02 -3.06204650000E-01 -2.49371480000E-01

   5   5   1    5 B    -3.86323730000E-01  3.86360670000E-01  2.49307050000E-01

   6   6   1    5 B    -2.32630620000E-01 -3.06221860000E-01 -2.50692950000E-01

   7   7   1    5 B     2.27255250000E-01 -3.86366780000E-01  2.50628520000E-01

   8   8   1    5 B     3.80948360000E-01 -7.89493100000E-02 -2.49371480000E-01

   9   9   1    5 B     3.86363220000E-01 -3.86387550000E-01  2.50628520000E-01

  10  10   1    5 B    -4.59943670000E-01 -7.89700800000E-02 -2.49371480000E-01

  11  11   1    5 B     3.86343500000E-01 -2.27248350000E-01  2.49307050000E-01

  12  12   1    5 B    -4.59963390000E-01  8.01691200000E-02 -2.50692950000E-01

  13  13   1    1 H    -9.69563800000E-02  3.08930050000E-01  2.47888840000E-01

  14  14   1    1 H     5.67367300000E-02 -3.83652480000E-01 -2.52111160000E-01

  15  15   1    1 H     9.66345300000E-02 -3.08946560000E-01  2.47469900000E-01

  16  16   1    1 H     2.50327640000E-01 -1.52909000000E-03 -2.52530100000E-01

  17  17   1    1 H    -9.70285800000E-02 -4.05927570000E-01  2.47405420000E-01

  18  18   1    1 H     5.66645300000E-02 -9.85101000000E-02 -2.52594580000E-01

  19  19   1    1 H     9.67361800000E-02  4.05684940000E-01  2.47421500000E-01

  20  20   1    1 H     2.50429290000E-01 -2.86897590000E-01 -2.52578500000E-01

  21  21   1    1 H    -3.08967600000E-01  9.70041200000E-02  2.52111170000E-01

  22  22   1    1 H    -1.55274490000E-01  4.04421590000E-01 -2.47888820000E-01

  23  23   1    1 H     3.08929720000E-01 -9.65626900000E-02  2.52530140000E-01

  24  24   1    1 H     4.62622830000E-01  2.10854780000E-01 -2.47469860000E-01

  25  25   1    1 H     4.05869990000E-01  9.70499800000E-02  2.52594660000E-01

  26  26   1    1 H    -4.40436900000E-01  4.04467450000E-01 -2.47405340000E-01

  27  27   1    1 H    -4.05687790000E-01 -9.66526800000E-02  2.52578470000E-01

  28  28   1    1 H    -2.51994680000E-01  2.10764790000E-01 -2.47421530000E-01

  29  29   1    1 H    -3.08927260000E-01 -4.05945790000E-01  2.47888870000E-01

  30  30   1    1 H    -1.55234150000E-01 -9.85283200000E-02 -2.52111130000E-01

  31  31   1    1 H     3.08961830000E-01  4.05609330000E-01  2.47469870000E-01

  32  32   1    1 H     4.62654940000E-01 -2.86973200000E-01 -2.52530130000E-01

  33  33   1    1 H     4.05840570000E-01  3.08823250000E-01  2.47405370000E-01

  34  34   1    1 H    -4.40466320000E-01 -3.83759280000E-01 -2.52594630000E-01

  35  35   1    1 H    -4.05709120000E-01 -3.09042070000E-01  2.47421550000E-01

  36  36   1    1 H    -2.52016010000E-01 -1.62460000000E-03 -2.52578450000E-01

  37  37   1    6 C    -1.08109690000E-01  4.45943690000E-01  2.49258700000E-01

  38  38   1    6 C     4.55834200000E-02 -2.46638840000E-01 -2.50741300000E-01

  39  39   1    6 C    -5.35108900000E-02  3.92785630000E-01  2.47953310000E-01

  40  40   1    6 C     1.00182220000E-01 -2.99796900000E-01 -2.52046690000E-01

  41  41   1    6 C     5.33881200000E-02 -3.92814700000E-01  2.47840550000E-01

  42  42   1    6 C     2.07081230000E-01 -8.53972300000E-02 -2.52159450000E-01

  43  43   1    6 C    -5.35478900000E-02 -4.46307810000E-01  2.48178970000E-01

  44  44   1    6 C     1.00145220000E-01 -1.38890340000E-01 -2.51821030000E-01

  45  45   1    6 C     5.34263400000E-02  4.46249970000E-01  2.47308690000E-01

  46  46   1    6 C     2.07119450000E-01 -2.46332560000E-01 -2.52691310000E-01

  47  47   1    6 C     1.08035890000E-01 -4.45964370000E-01  2.48195070000E-01

  48  48   1    6 C     2.61729000000E-01 -1.38546900000E-01 -2.51804930000E-01

  49  49   1    6 C    -4.45960580000E-01  1.08168460000E-01  2.50741340000E-01

  50  50   1    6 C    -2.92267470000E-01  4.15585930000E-01 -2.49258670000E-01

  51  51   1    6 C    -3.92822150000E-01  5.35559400000E-02  2.52046690000E-01

  52  52   1    6 C    -2.39129040000E-01  3.60973410000E-01 -2.47953310000E-01

  53  53   1    6 C     3.92798670000E-01 -5.33368400000E-02  2.52159510000E-01

  54  54   1    6 C    -4.53508220000E-01  2.54080630000E-01 -2.47840500000E-01

  55  55   1    6 C     4.46287580000E-01  5.36028600000E-02  2.51821090000E-01

  56  56   1    6 C    -4.00019310000E-01  3.61020330000E-01 -2.48178910000E-01

  57  57   1    6 C    -4.46283150000E-01 -5.33764400000E-02  2.52691300000E-01

  58  58   1    6 C    -2.92590040000E-01  2.54041030000E-01 -2.47308700000E-01

  59  59   1    6 C     4.45927910000E-01 -1.08007940000E-01  2.51804950000E-01

  60  60   1    6 C    -4.00378980000E-01  1.99409530000E-01 -2.48195050000E-01

  61  61   1    6 C    -4.45955130000E-01  4.45874550000E-01  2.49258690000E-01

  62  62   1    6 C    -2.92262020000E-01 -2.46707980000E-01 -2.50741310000E-01

  63  63   1    6 C    -3.92789780000E-01 -4.46374220000E-01  2.47953340000E-01

  64  64   1    6 C    -2.39096670000E-01 -1.38956750000E-01 -2.52046660000E-01

  65  65   1    6 C     3.92823370000E-01  4.46172030000E-01  2.47840520000E-01

  66  66   1    6 C    -4.53483520000E-01 -2.46410500000E-01 -2.52159480000E-01

  67  67   1    6 C     4.46287260000E-01  3.92689990000E-01  2.48178930000E-01

  68  68   1    6 C    -4.00019630000E-01 -2.99892540000E-01 -2.51821070000E-01

  69  69   1    6 C    -4.46257040000E-01 -3.92902000000E-01  2.47308730000E-01

  70  70   1    6 C    -2.92563930000E-01 -8.54845300000E-02 -2.52691270000E-01

  71  71   1    6 C     4.45959980000E-01 -4.46041770000E-01  2.48195070000E-01

  72  72   1    6 C    -4.00346910000E-01 -1.38624300000E-01 -2.51804930000E-01

  73  73   1    8 O    -4.39263320000E-01  2.80370630000E-01  2.49661580000E-01

  74  74   1    8 O    -2.85570210000E-01 -4.12211900000E-01 -2.50338420000E-01

  75  75   1    8 O    -2.80318300000E-01  2.80378330000E-01  2.52449570000E-01

  76  76   1    8 O    -1.26625190000E-01 -4.12204200000E-01 -2.47550430000E-01

  77  77   1    8 O    -2.80320580000E-01  4.39323460000E-01  2.48243430000E-01

  78  78   1    8 O    -1.26627470000E-01 -2.53259070000E-01 -2.51756570000E-01

  79  79   1    8 O     2.80324510000E-01 -2.80348890000E-01  2.49661600000E-01

  80  80   1    8 O     4.34017620000E-01  2.70685800000E-02 -2.50338400000E-01

  81  81   1    8 O     2.80343970000E-01 -4.39304390000E-01  2.52449570000E-01

  82  82   1    8 O     4.34037080000E-01 -1.31886920000E-01 -2.47550430000E-01

  83  83   1    8 O     4.39263840000E-01 -2.80364580000E-01  2.48243420000E-01

  84  84   1    8 O    -4.07043050000E-01  2.70528900000E-02 -2.51756580000E-01

 NUMBER OF SYMMETRY OPERATORS         :    1
 *******************************************************************************
 * GEOMETRY EDITING - INPUT COORDINATES ARE GIVEN IN ANGSTROM         
 *******************************************************************************

 GCALCO - MAX INDICES DIRECT LATTICE VECTOR    12    12    21
 NO.OF VECTORS CREATED 6999 STARS 3500 RMAX   255.76215 BOHR

 GEOMETRY FOR WAVE FUNCTION - DIMENSIONALITY OF THE SYSTEM    3
 (NON PERIODIC DIRECTION: LATTICE PARAMETER FORMALLY SET TO 500)
 *******************************************************************************
 LATTICE PARAMETERS (ANGSTROMS AND DEGREES) - BOHR = 0.5291772083 ANGSTROM
 PRIMITIVE CELL - CENTRING CODE 1/0 VOLUME=  1485.659765 - DENSITY  0.872 g/cm^3
         A              B              C           ALPHA      BETA       GAMMA 
    15.02361100    15.02391600     7.60000000    90.000323  89.999944 119.995964
 *******************************************************************************
 ATOMS IN THE ASYMMETRIC UNIT   84 - ATOMS IN THE UNIT CELL:   84
     ATOM                 X/A                 Y/B                 Z/C    
 *******************************************************************************
      1 T   5 B    -3.863194600000E-01  2.273182200000E-01  2.506285100000E-01
      2 T   5 B    -2.326263500000E-01 -4.652643100000E-01 -2.493714900000E-01
      3 T   5 B    -2.272638000000E-01  3.863778800000E-01  2.506285200000E-01
      4 T   5 B    -7.357069000000E-02 -3.062046500000E-01 -2.493714800000E-01
      5 T   5 B    -3.863237300000E-01  3.863606700000E-01  2.493070500000E-01
      6 T   5 B    -2.326306200000E-01 -3.062218600000E-01 -2.506929500000E-01
      7 T   5 B     2.272552500000E-01 -3.863667800000E-01  2.506285200000E-01
      8 T   5 B     3.809483600000E-01 -7.894931000000E-02 -2.493714800000E-01
      9 T   5 B     3.863632200000E-01 -3.863875500000E-01  2.506285200000E-01
     10 T   5 B    -4.599436700000E-01 -7.897008000000E-02 -2.493714800000E-01
     11 T   5 B     3.863435000000E-01 -2.272483500000E-01  2.493070500000E-01
     12 T   5 B    -4.599633900000E-01  8.016912000000E-02 -2.506929500000E-01
     13 T   1 H    -9.695638000000E-02  3.089300500000E-01  2.478888400000E-01
     14 T   1 H     5.673673000000E-02 -3.836524800000E-01 -2.521111600000E-01
     15 T   1 H     9.663453000000E-02 -3.089465600000E-01  2.474699000000E-01
     16 T   1 H     2.503276400000E-01 -1.529090000000E-03 -2.525301000000E-01
     17 T   1 H    -9.702858000000E-02 -4.059275700000E-01  2.474054200000E-01
     18 T   1 H     5.666453000000E-02 -9.851010000000E-02 -2.525945800000E-01
     19 T   1 H     9.673618000000E-02  4.056849400000E-01  2.474215000000E-01
     20 T   1 H     2.504292900000E-01 -2.868975900000E-01 -2.525785000000E-01
     21 T   1 H    -3.089676000000E-01  9.700412000000E-02  2.521111700000E-01
     22 T   1 H    -1.552744900000E-01  4.044215900000E-01 -2.478888200000E-01
     23 T   1 H     3.089297200000E-01 -9.656269000000E-02  2.525301400000E-01
     24 T   1 H     4.626228300000E-01  2.108547800000E-01 -2.474698600000E-01
     25 T   1 H     4.058699900000E-01  9.704998000000E-02  2.525946600000E-01
     26 T   1 H    -4.404369000000E-01  4.044674500000E-01 -2.474053400000E-01
     27 T   1 H    -4.056877900000E-01 -9.665268000000E-02  2.525784700000E-01
     28 T   1 H    -2.519946800000E-01  2.107647900000E-01 -2.474215300000E-01
     29 T   1 H    -3.089272600000E-01 -4.059457900000E-01  2.478888700000E-01
     30 T   1 H    -1.552341500000E-01 -9.852832000000E-02 -2.521111300000E-01
     31 T   1 H     3.089618300000E-01  4.056093300000E-01  2.474698700000E-01
     32 T   1 H     4.626549400000E-01 -2.869732000000E-01 -2.525301300000E-01
     33 T   1 H     4.058405700000E-01  3.088232500000E-01  2.474053700000E-01
     34 T   1 H    -4.404663200000E-01 -3.837592800000E-01 -2.525946300000E-01
     35 T   1 H    -4.057091200000E-01 -3.090420700000E-01  2.474215500000E-01
     36 T   1 H    -2.520160100000E-01 -1.624600000000E-03 -2.525784500000E-01
     37 T   6 C    -1.081096900000E-01  4.459436900000E-01  2.492587000000E-01
     38 T   6 C     4.558342000000E-02 -2.466388400000E-01 -2.507413000000E-01
     39 T   6 C    -5.351089000000E-02  3.927856300000E-01  2.479533100000E-01
     40 T   6 C     1.001822200000E-01 -2.997969000000E-01 -2.520466900000E-01
     41 T   6 C     5.338812000000E-02 -3.928147000000E-01  2.478405500000E-01
     42 T   6 C     2.070812300000E-01 -8.539723000000E-02 -2.521594500000E-01
     43 T   6 C    -5.354789000000E-02 -4.463078100000E-01  2.481789700000E-01
     44 T   6 C     1.001452200000E-01 -1.388903400000E-01 -2.518210300000E-01
     45 T   6 C     5.342634000000E-02  4.462499700000E-01  2.473086900000E-01
     46 T   6 C     2.071194500000E-01 -2.463325600000E-01 -2.526913100000E-01
     47 T   6 C     1.080358900000E-01 -4.459643700000E-01  2.481950700000E-01
     48 T   6 C     2.617290000000E-01 -1.385469000000E-01 -2.518049300000E-01
     49 T   6 C    -4.459605800000E-01  1.081684600000E-01  2.507413400000E-01
     50 T   6 C    -2.922674700000E-01  4.155859300000E-01 -2.492586700000E-01
     51 T   6 C    -3.928221500000E-01  5.355594000000E-02  2.520466900000E-01
     52 T   6 C    -2.391290400000E-01  3.609734100000E-01 -2.479533100000E-01
     53 T   6 C     3.927986700000E-01 -5.333684000000E-02  2.521595100000E-01
     54 T   6 C    -4.535082200000E-01  2.540806300000E-01 -2.478405000000E-01
     55 T   6 C     4.462875800000E-01  5.360286000000E-02  2.518210900000E-01
     56 T   6 C    -4.000193100000E-01  3.610203300000E-01 -2.481789100000E-01
     57 T   6 C    -4.462831500000E-01 -5.337644000000E-02  2.526913000000E-01
     58 T   6 C    -2.925900400000E-01  2.540410300000E-01 -2.473087000000E-01
     59 T   6 C     4.459279100000E-01 -1.080079400000E-01  2.518049500000E-01
     60 T   6 C    -4.003789800000E-01  1.994095300000E-01 -2.481950500000E-01
     61 T   6 C    -4.459551300000E-01  4.458745500000E-01  2.492586900000E-01
     62 T   6 C    -2.922620200000E-01 -2.467079800000E-01 -2.507413100000E-01
     63 T   6 C    -3.927897800000E-01 -4.463742200000E-01  2.479533400000E-01
     64 T   6 C    -2.390966700000E-01 -1.389567500000E-01 -2.520466600000E-01
     65 T   6 C     3.928233700000E-01  4.461720300000E-01  2.478405200000E-01
     66 T   6 C    -4.534835200000E-01 -2.464105000000E-01 -2.521594800000E-01
     67 T   6 C     4.462872600000E-01  3.926899900000E-01  2.481789300000E-01
     68 T   6 C    -4.000196300000E-01 -2.998925400000E-01 -2.518210700000E-01
     69 T   6 C    -4.462570400000E-01 -3.929020000000E-01  2.473087300000E-01
     70 T   6 C    -2.925639300000E-01 -8.548453000000E-02 -2.526912700000E-01
     71 T   6 C     4.459599800000E-01 -4.460417700000E-01  2.481950700000E-01
     72 T   6 C    -4.003469100000E-01 -1.386243000000E-01 -2.518049300000E-01
     73 T   8 O    -4.392633200000E-01  2.803706300000E-01  2.496615800000E-01
     74 T   8 O    -2.855702100000E-01 -4.122119000000E-01 -2.503384200000E-01
     75 T   8 O    -2.803183000000E-01  2.803783300000E-01  2.524495700000E-01
     76 T   8 O    -1.266251900000E-01 -4.122042000000E-01 -2.475504300000E-01
     77 T   8 O    -2.803205800000E-01  4.393234600000E-01  2.482434300000E-01
     78 T   8 O    -1.266274700000E-01 -2.532590700000E-01 -2.517565700000E-01
     79 T   8 O     2.803245100000E-01 -2.803488900000E-01  2.496616000000E-01
     80 T   8 O     4.340176200000E-01  2.706858000000E-02 -2.503384000000E-01
     81 T   8 O     2.803439700000E-01 -4.393043900000E-01  2.524495700000E-01
     82 T   8 O     4.340370800000E-01 -1.318869200000E-01 -2.475504300000E-01
     83 T   8 O     4.392638400000E-01 -2.803645800000E-01  2.482434200000E-01
     84 T   8 O    -4.070430500000E-01  2.705289000000E-02 -2.517565800000E-01

 T = ATOM BELONGING TO THE ASYMMETRIC UNIT

 ****    1 SYMMOPS - TRANSLATORS IN FRACTIONAL UNITS
 **** MATRICES AND TRANSLATORS IN THE CRYSTALLOGRAPHIC REFERENCE FRAME
   V INV                    ROTATION MATRICES                   TRANSLATORS
   1   1  1.00  0.00  0.00  0.00  1.00  0.00  0.00  0.00  1.00  0.00  0.00  0.00

 DIRECT LATTICE VECTORS CARTESIAN COMPONENTS (ANGSTROM)
          X                    Y                    Z
   0.130113578931E+02  -0.751088897922E+01   0.000000000000E+00
   0.000000000000E+00   0.150239160000E+02   0.000000000000E+00
  -0.161552619368E-04  -0.428443424762E-04   0.759999999986E+01


 CARTESIAN COORDINATES - PRIMITIVE CELL
 *******************************************************************************
 *      ATOM          X(ANGSTROM)         Y(ANGSTROM)         Z(ANGSTROM)
 *******************************************************************************
    1     5 B    -5.026544804082E+00  6.316801679107E+00  1.904776675965E+00
    2     5 B    -3.026780666544E+00 -5.242850538590E+00 -1.895223323966E+00
    3     5 B    -2.957014686905E+00  7.511851246159E+00  1.904776751965E+00
    4     5 B    -9.572505493675E-01 -4.047800971538E+00 -1.895223247966E+00
    5     5 B    -5.026600341231E+00 -6.317641783546E+00  1.894733579966E+00
    6     5 B    -3.026836203693E+00 -2.853378001243E+00 -1.905266419965E+00
    7     5 B     2.956895341857E+00 -7.511641738619E+00  1.904776751965E+00
    8     5 B     4.956659479395E+00 -4.047377956315E+00 -1.895223247966E+00
    9     5 B     5.027106083164E+00  6.316919916267E+00  1.904776751965E+00
   10     5 B    -5.984487672354E+00  2.268156677787E+00 -1.895223247966E+00
   11     5 B     5.026849520535E+00 -6.315953939277E+00  1.894733579966E+00
   12     5 B     7.026613658073E+00 -2.851690156974E+00 -1.905266419965E+00
   13     1 H    -1.261538164904E+00  5.369557106448E+00  1.883955183966E+00
   14     1 H     7.382259726335E-01 -6.190095111249E+00 -1.916044815965E+00
   15     1 H     1.257342456716E+00 -5.367408995003E+00  1.880771239966E+00
   16     1 H     3.257106594254E+00 -1.903145212700E+00 -1.919228759965E+00
   17     1 H    -1.262477577134E+00 -5.369861421496E+00  1.880281191966E+00
   18     1 H     7.372865604034E-01 -1.905597639192E+00 -1.919718807965E+00
   19     1 H     1.258665062028E+00  5.368391152160E+00  1.880403399966E+00
   20     1 H     3.258429199566E+00 -6.191261065537E+00 -1.919596599965E+00
   21     1 H    -4.020092093881E+00  3.777992290772E+00  1.916044891965E+00
   22     1 H    -2.020327956343E+00  7.242256073074E+00 -1.883955031966E+00
   23     1 H     4.019591071031E+00 -3.771097392082E+00  1.919229063965E+00
   24     1 H     6.019355208569E+00 -3.068336097790E-01 -1.880770935966E+00
   25     1 H     5.280915617208E+00 -1.590384509816E+00  1.919719415965E+00
   26     1 H     7.280679754746E+00  1.873879272487E+00 -1.880280583966E+00
   27     1 H    -5.278553109005E+00  1.594963383860E+00  1.919596371965E+00
   28     1 H    -3.278788971467E+00  5.059227166164E+00 -1.880403627966E+00
   29     1 H    -4.019567147491E+00 -3.778587717636E+00  1.883955411966E+00
   30     1 H    -2.019803009953E+00 -3.143239353325E-01 -1.916044587965E+00
   31     1 H     4.020008947483E+00  3.773251896107E+00  1.880771011966E+00
   32     1 H    -6.991584808036E+00 -2.755113423734E-01 -1.919228987965E+00
   33     1 H     5.280532906894E+00  1.591500502395E+00  1.880280811966E+00
   34     1 H    -5.731060848625E+00 -2.457262736086E+00 -1.919719187965E+00
   35     1 H    -5.278830557957E+00 -1.595796542584E+00  1.880403779966E+00
   36     1 H    -3.279066420419E+00  1.868467239719E+00 -1.919596219965E+00
   37     6 C    -1.406657895137E+00  7.511809739132E+00  1.894366119966E+00
   38     6 C     5.931062424009E-01 -4.047842478564E+00 -1.905633879965E+00
   39     6 C    -6.962533467167E-01  6.303082041700E+00  1.884445155966E+00
   40     6 C     1.303510790821E+00 -5.256570175997E+00 -1.915554843965E+00
   41     6 C     6.946479326284E-01 -6.302617917060E+00  1.883588179966E+00
   42     6 C     2.694412070166E+00 -2.838354134756E+00 -1.916411819965E+00
   43     6 C    -6.967347706043E-01 -6.303109423787E+00  1.886160171966E+00
   44     6 C     1.303029366934E+00 -2.838845641484E+00 -1.913839827965E+00
   45     6 C     6.951452353195E-01  6.303132160198E+00  1.879546043966E+00
   46     6 C     2.694909372857E+00 -5.256520057498E+00 -1.920453955965E+00
   47     6 C     1.405689620429E+00 -7.511587443188E+00  1.886282531966E+00
   48     6 C     3.405453757966E+00 -4.047323660885E+00 -1.913717467965E+00
   49     6 C     7.208801129689E+00 -2.536225459688E+00  1.905634183965E+00
   50     6 C    -3.802792625829E+00 -6.584988698168E+00 -1.894365891966E+00
   51     6 C    -5.111153653850E+00  3.755052702313E+00  1.915554843965E+00
   52     6 C    -3.111389516312E+00  7.219316484617E+00 -1.884445155966E+00
   53     6 C     5.110840001584E+00 -3.751606209028E+00  1.916412275965E+00
   54     6 C     7.110604139122E+00 -2.873424267240E-01 -1.883587799966E+00
   55     6 C     5.806803358370E+00 -2.546702389292E+00  1.913840283965E+00
   56     6 C     7.806567495908E+00  9.175613930108E-01 -1.886159715966E+00
   57     6 C    -5.806753868585E+00  2.550049215613E+00  1.920453879965E+00
   58     6 C    -3.806989731047E+00  6.014312997917E+00 -1.879546119966E+00
   59     6 C     5.802123563538E+00 -4.972028031055E+00  1.913717619965E+00
   60     6 C     7.801887701076E+00 -1.507764248751E+00 -1.886282379966E+00
   61     6 C     7.208872065543E+00  2.537401598339E+00  1.894366043966E+00
   62     6 C    -3.802721689976E+00 -1.511361640142E+00 -1.905633955965E+00
   63     6 C    -5.110732410066E+00 -3.756098979492E+00  1.884445383966E+00
   64     6 C    -3.110968272528E+00 -2.918351971892E-01 -1.915554615965E+00
   65     6 C     5.111161451898E+00  3.752787761194E+00  1.883587951966E+00
   66     6 C    -5.900432303621E+00 -2.959754772866E-01 -1.916412047965E+00
   67     6 C     5.806799253576E+00  2.547716728039E+00  1.886159867966E+00
   68     6 C    -5.204794501943E+00 -1.501046510441E+00 -1.913840131965E+00
   69     6 C    -5.806414055073E+00 -2.551150156378E+00  1.879546347966E+00
   70     6 C    -3.806649917535E+00  9.131136259251E-01 -1.920453651965E+00
   71     6 C     5.802540896104E+00  4.973055382321E+00  1.886282531966E+00
   72     6 C    -5.209052859415E+00  9.242921438402E-01 -1.913717467965E+00
   73     8 O     7.295941593896E+00  6.231473464191E-04  1.897428007966E+00
   74     8 O    -3.715652161623E+00 -4.048140091134E+00 -1.902571991965E+00
   75     8 O    -3.647325803662E+00  6.317809292247E+00  1.918616731965E+00
   76     8 O    -1.647561666124E+00 -5.241842925450E+00 -1.881383267966E+00
   77     8 O    -3.647355401607E+00 -6.318111120988E+00  1.886650067966E+00
   78     8 O    -1.647591264069E+00 -2.853847338684E+00 -1.913349931965E+00
   79     8 O     3.647398492457E+00 -6.317435143404E+00  1.897428159966E+00
   80     8 O     5.647162629995E+00 -2.853171361100E+00 -1.902571839965E+00
   81     8 O     3.647651648441E+00  6.318200495510E+00  1.918616731965E+00
   82     8 O     5.647415785979E+00 -5.241451722187E+00 -1.881383267966E+00
   83     8 O    -7.295942871776E+00 -5.574907292270E-04  1.886649991966E+00
   84     8 O    -5.296178734238E+00  3.463706291574E+00 -1.913350007965E+00

 *******************************************************************************
 STARTING BASIS SET HANDLING 
 *******************************************************************************

 Loading internal basis set: SOLDEF2MSVP         

 Please cite in your publication:
 L. Dona', J. G. Brandenburg and B. Civalleri, J. Chem. Phys., 151, 121101 (2019
 )                                                                              
                                                                                
                    

 *******************************************************************************
 LOCAL ATOMIC FUNCTIONS BASIS SET
 *******************************************************************************
   ATOM   X(AU)   Y(AU)   Z(AU)  N. TYPE  EXPONENT  S COEF   P COEF   D/F/G COEF
 *******************************************************************************
   1 B   -9.499  11.937   3.600
                                  1 S  
                                         2.410E+03 1.755E-03 0.000E+00 0.000E+00
                                         3.619E+02 1.344E-02 0.000E+00 0.000E+00
                                         8.231E+01 6.637E-02 0.000E+00 0.000E+00
                                         2.311E+01 2.303E-01 0.000E+00 0.000E+00
                                         7.252E+00 5.150E-01 0.000E+00 0.000E+00
                                  2 S  
                                         2.367E+00 1.000E+00 0.000E+00 0.000E+00
                                  3 S  
                                         5.533E-01 1.000E+00 0.000E+00 0.000E+00
                                  4 S  
                                         1.716E-01 1.000E+00 0.000E+00 0.000E+00
                           5-     7 P  
                                         6.002E+00 0.000E+00-3.555E-02 0.000E+00
                                         1.240E+00 0.000E+00-1.983E-01 0.000E+00
                                         3.367E-01 0.000E+00-5.048E-01 0.000E+00
                           8-    10 P  
                                         1.256E-01 0.000E+00 1.000E+00 0.000E+00
                          11-    15 D  
                                         8.880E-01 0.000E+00 0.000E+00 1.000E+00
   2 B   -5.720  -9.908  -3.581
   3 B   -5.588  14.195   3.600
   4 B   -1.809  -7.649  -3.581
   5 B   -9.499 -11.939   3.581
   6 B   -5.720  -5.392  -3.600
   7 B    5.588 -14.195   3.600
   8 B    9.367  -7.648  -3.581
   9 B    9.500  11.937   3.600
  10 B  -11.309   4.286  -3.581
  11 B    9.499 -11.935   3.581
  12 B   13.278  -5.389  -3.600
  13 H   -2.384  10.147   3.560
                                181 S  
                                         1.874E+01 1.968E-02 0.000E+00 0.000E+00
                                         2.826E+00 1.380E-01 0.000E+00 0.000E+00
                                         6.401E-01 4.783E-01 0.000E+00 0.000E+00
                                182 S  
                                         1.756E-01 1.000E+00 0.000E+00 0.000E+00
  14 H    1.395 -11.698  -3.621
  15 H    2.376 -10.143   3.554
  16 H    6.155  -3.596  -3.627
  17 H   -2.386 -10.148   3.553
  18 H    1.393  -3.601  -3.628
  19 H    2.379  10.145   3.553
  20 H    6.158 -11.700  -3.628
  21 H   -7.597   7.139   3.621
  22 H   -3.818  13.686  -3.560
  23 H    7.596  -7.126   3.627
  24 H   11.375  -0.580  -3.554
  25 H    9.979  -3.005   3.628
  26 H   13.758   3.541  -3.553
  27 H   -9.975   3.014   3.628
  28 H   -6.196   9.561  -3.553
  29 H   -7.596  -7.140   3.560
  30 H   -3.817  -0.594  -3.621
  31 H    7.597   7.130   3.554
  32 H  -13.212  -0.521  -3.627
  33 H    9.979   3.008   3.553
  34 H  -10.830  -4.644  -3.628
  35 H   -9.976  -3.016   3.553
  36 H   -6.197   3.531  -3.628
  37 C   -2.658  14.195   3.580
                                229 S  
                                         3.624E+03 1.634E-03 0.000E+00 0.000E+00
                                         5.440E+02 1.252E-02 0.000E+00 0.000E+00
                                         1.237E+02 6.211E-02 0.000E+00 0.000E+00
                                         3.476E+01 2.182E-01 0.000E+00 0.000E+00
                                         1.093E+01 4.980E-01 0.000E+00 0.000E+00
                                230 S  
                                         3.574E+00 1.000E+00 0.000E+00 0.000E+00
                                231 S  
                                         7.742E-01 1.000E+00 0.000E+00 0.000E+00
                                232 S  
                                         2.330E-01 1.000E+00 0.000E+00 0.000E+00
                         233-   235 P  
                                         9.443E+00 0.000E+00 3.790E-02 0.000E+00
                                         2.002E+00 0.000E+00 2.082E-01 0.000E+00
                                         5.463E-01 0.000E+00 5.047E-01 0.000E+00
                         236-   238 P  
                                         1.820E-01 0.000E+00 1.000E+00 0.000E+00
                         239-   243 D  
                                         8.880E-01 0.000E+00 0.000E+00 1.000E+00
  38 C    1.121  -7.649  -3.601
  39 C   -1.316  11.911   3.561
  40 C    2.463  -9.933  -3.620
  41 C    1.313 -11.910   3.559
  42 C    5.092  -5.364  -3.621
  43 C   -1.317 -11.911   3.564
  44 C    2.462  -5.365  -3.617
  45 C    1.314  11.911   3.552
  46 C    5.093  -9.933  -3.629
  47 C    2.656 -14.195   3.565
  48 C    6.435  -7.648  -3.616
  49 C   13.623  -4.793   3.601
  50 C   -7.186 -12.444  -3.580
  51 C   -9.659   7.096   3.620
  52 C   -5.880  13.643  -3.561
  53 C    9.658  -7.090   3.621
  54 C   13.437  -0.543  -3.559
  55 C   10.973  -4.813   3.617
  56 C   14.752   1.734  -3.564
  57 C  -10.973   4.819   3.629
  58 C   -7.194  11.365  -3.552
  59 C   10.964  -9.396   3.616
  60 C   14.743  -2.849  -3.565
  61 C   13.623   4.795   3.580
  62 C   -7.186  -2.856  -3.601
  63 C   -9.658  -7.098   3.561
  64 C   -5.879  -0.551  -3.620
  65 C    9.659   7.092   3.559
  66 C  -11.150  -0.559  -3.621
  67 C   10.973   4.814   3.564
  68 C   -9.836  -2.837  -3.617
  69 C  -10.973  -4.821   3.552
  70 C   -7.194   1.726  -3.629
  71 C   10.965   9.398   3.565
  72 C   -9.844   1.747  -3.616
  73 O   13.787   0.001   3.586
                                769 S  
                                         6.773E+03 1.727E-03 0.000E+00 0.000E+00
                                         1.017E+03 1.325E-02 0.000E+00 0.000E+00
                                         2.313E+02 6.603E-02 0.000E+00 0.000E+00
                                         6.501E+01 2.353E-01 0.000E+00 0.000E+00
                                         2.050E+01 5.498E-01 0.000E+00 0.000E+00
                                770 S  
                                         6.716E+00 1.000E+00 0.000E+00 0.000E+00
                                771 S  
                                         1.147E+00 1.000E+00 0.000E+00 0.000E+00
                                772 S  
                                         3.342E-01 1.000E+00 0.000E+00 0.000E+00
                         773-   775 P  
                                         1.769E+01 0.000E+00 4.359E-02 0.000E+00
                                         3.854E+00 0.000E+00 2.318E-01 0.000E+00
                                         1.047E+00 0.000E+00 5.146E-01 0.000E+00
                         776-   778 P  
                                         2.759E-01 0.000E+00 1.000E+00 0.000E+00
                         779-   783 D  
                                         8.000E-01 0.000E+00 0.000E+00 1.000E+00
  74 O   -7.022  -7.650  -3.595
  75 O   -6.892  11.939   3.626
  76 O   -3.113  -9.906  -3.555
  77 O   -6.893 -11.939   3.565
  78 O   -3.113  -5.393  -3.616
  79 O    6.893 -11.938   3.586
  80 O   10.672  -5.392  -3.595
  81 O    6.893  11.940   3.626
  82 O   10.672  -9.905  -3.555
  83 O  -13.787  -0.001   3.565
  84 O  -10.008   6.545  -3.616

 *******************************************************************************
 FINISHED BASIS SET HANDLING 
 *******************************************************************************

 INFORMATION **** SET_MPP **** PCRYSTAL CALCULATION
 INFORMATION **** READM2 **** NEW DEFAULT: FOCK/KS MATRIX MIXING SET TO 30 %
 INFORMATION **** READM2 **** NEW DEFAULT: FULL DIRECT SCF MODE
 INFORMATION **** READM2 **** NEW DEFAULT: COULOMB BIPOLAR BUFFER SET TO 32 Mb
 INFORMATION **** READM2 **** NEW DEFAULT: EXCHANGE BIPOLAR BUFFER SET TO 32 Mb

 *******************************************************************************
 NEW DEFAULT: DFT INTEGRATION GRID INCREASED TO XLGRID
 NEW DEFAULT: DIIS ACCELERATOR ACTIVE
 USE KEYWORD NODIIS TO TURN IT OFF
 *******************************************************************************

 WARNING **** RDDFTP **** HSEsol-HJS ACTIVE
 RANGE SEPARATION - OMEGA:   0.110000000000000     
 WARNING **** RDDFTP **** HSEsol-3c has to be combined with sol-def2-mSVP basis set
 *******************************************************************************
 N. OF ATOMS PER CELL        84  COULOMB OVERLAP TOL         (T1) 10**   -6
 NUMBER OF SHELLS           468  COULOMB PENETRATION TOL     (T2) 10**   -6
 NUMBER OF AO               948  EXCHANGE OVERLAP TOL        (T3) 10**   -6
 N. OF ELECTRONS PER CELL   396  EXCHANGE PSEUDO OVP (F(G))  (T4) 10**   -6
 CORE ELECTRONS PER CELL    120  EXCHANGE PSEUDO OVP (P(G))  (T5) 10**  -12
 N. OF SYMMETRY OPERATORS     1  POLE ORDER IN MONO ZONE                  4
 *******************************************************************************
 TYPE OF CALCULATION :  RESTRICTED CLOSED SHELL
 KOHN-SHAM HAMILTONIAN

 (EXCHANGE)[CORRELATION] FUNCTIONAL:(HSEsol GGA)[PBEsol]

 RANGE-SEPARATED HYBRID FUNCTIONAL 
 OMEGA (SHORT-RANGE)[LONG-RANGE]:(    0.1100)[    0.0000]

 HYBRID EXCHANGE - PERCENTAGE OF FOCK EXCHANGE    25.0000

 CAPPA:IS1  2;IS2  2;IS3  8; K PTS MONK NET  20; SYMMOPS:K SPACE   2;G SPACE   1

 *******************************************************************************
 MAX NUMBER OF SCF CYCLES      50  CONVERGENCE ON DELTAP        10**-16
 WEIGHT OF F(I) IN F(I+1)      30% CONVERGENCE ON ENERGY        10**- 6
 SHRINK. FACT.(MONKH.)    2  2  8  NUMBER OF K POINTS IN THE IBZ     20
 SHRINKING FACTOR(GILAT NET)    8  NUMBER OF K POINTS(GILAT NET)   1028
 *******************************************************************************
 *** K POINTS COORDINATES (OBLIQUE COORDINATES IN UNITS OF IS =  2)
   1-R(  0  0  0)   2-R(  1  0  0)   3-R(  0  1  0)   4-R(  1  1  0)
   5-C(  0  0  1)   6-C(  1  0  1)   7-C(  0  1  1)   8-C(  1  1  1)
   9-C(  0  0  2)  10-C(  1  0  2)  11-C(  0  1  2)  12-C(  1  1  2)
  13-C(  0  0  3)  14-C(  1  0  3)  15-C(  0  1  3)  16-C(  1  1  3)
  17-R(  0  0  4)  18-R(  1  0  4)  19-R(  0  1  4)  20-R(  1  1  4)

 DIRECT LATTICE VECTORS COMPON. (A.U.)     RECIP. LATTICE VECTORS COMPON. (A.U.) 
        X            Y            Z              X            Y            Z
   24.5879030  -14.1935232    0.0000000      0.2555397    0.0000000    0.0000005
    0.0000000   28.3910867    0.0000000      0.1277517    0.2213084    0.0000015
   -0.0000305   -0.0000810   14.3619186      0.0000000    0.0000000    0.4374893

 DISK SPACE FOR EIGENVECTORS (FTN 10)    28758528 REALS

 SYMMETRY ADAPTION OF THE BLOCH FUNCTIONS DISABLED
 TTTTTTTTTTTTTTTTTTTTTTTTTTTTTT gordsh1     TELAPSE        0.05 TCPU        0.05

 MATRIX SIZE: P(G)  666484, F(G)  133651, P(G) IRR  335180, F(G) IRR  134683
 MAX G-VECTOR INDEX FOR 1- AND 2-ELECTRON INTEGRALS  43

 TTTTTTTTTTTTTTTTTTTTTTTTTTTTTT INPUT       TELAPSE        2.61 TCPU        2.60

 NEIGHBORS OF THE NON-EQUIVALENT ATOMS

 N = NUMBER OF NEIGHBORS AT DISTANCE R
    ATOM  N     R/ANG      R/AU   NEIGHBORS (ATOM LABELS AND CELL INDICES)
   1 B    1     1.3791     2.6061   73 O   -1 0 0
   1 B    1     1.3793     2.6065   75 O    0 0 0
   1 B    1     1.5503     2.9297   49 C   -1 0 0
   1 B    1     2.3895     4.5155    5 B    0 1 0
   1 B    1     2.3898     4.5160    3 B    0 0 0
   1 B    1     2.5632     4.8437   51 C    0 0 0

   2 B    1     1.3791     2.6061   74 O    0 0 0
   2 B    1     1.3793     2.6065   76 O    0 0 0
   2 B    1     1.5503     2.9297   50 C    0 0 0
   2 B    1     2.3895     4.5155    6 B    0 0 0
   2 B    1     2.3898     4.5160    4 B    0 0 0
   2 B    1     2.5632     4.8437   52 C    0-1 0

   3 B    1     1.3793     2.6065   77 O    0 1 0
   3 B    1     1.3793     2.6065   75 O    0 0 0
   3 B    1     1.5504     2.9298   37 C    0 0 0
   3 B    1     2.3895     4.5156    5 B    0 1 0
   3 B    1     2.3898     4.5160    1 B    0 0 0
   3 B    1     2.5634     4.8440   43 C    0 1 0

   4 B    1     1.3793     2.6065   78 O    0 0 0
   4 B    1     1.3793     2.6065   76 O    0 0 0
   4 B    1     1.5504     2.9298   38 C    0 0 0
   4 B    1     2.3895     4.5156    6 B    0 0 0
   4 B    1     2.3898     4.5160    2 B    0 0 0
   4 B    1     2.5634     4.8440   44 C    0 0 0

   5 B    1     1.3791     2.6061   73 O   -1-1 0
   5 B    1     1.3793     2.6064   77 O    0 0 0
   5 B    1     1.5502     2.9294   61 C   -1-1 0
   5 B    1     2.3895     4.5155    1 B    0-1 0
   5 B    1     2.3895     4.5156    3 B    0-1 0
   5 B    1     2.5629     4.8433   63 C    0 0 0

   6 B    1     1.3791     2.6061   74 O    0 0 0
   6 B    1     1.3793     2.6064   78 O    0 0 0
   6 B    1     1.5502     2.9294   62 C    0 0 0
   6 B    1     2.3895     4.5155    2 B    0 0 0
   6 B    1     2.3895     4.5156    4 B    0 0 0
   6 B    1     2.5629     4.8433   64 C    0 0 0

   7 B    1     1.3795     2.6068   79 O    0 0 0
   7 B    1     1.3795     2.6070   81 O    0-1 0
   7 B    1     1.5513     2.9316   47 C    0 0 0
   7 B    1     2.3905     4.5174   11 B    0 0 0
   7 B    1     2.3905     4.5175    9 B    0-1 0
   7 B    1     2.5648     4.8468   45 C    0-1 0

   8 B    1     1.3795     2.6068   80 O    0 0 0
   8 B    1     1.3795     2.6070   82 O    0 0 0
   8 B    1     1.5513     2.9316   48 C    0 0 0
   8 B    1     2.3905     4.5174   12 B    0 0 0
   8 B    1     2.3905     4.5175   10 B    1 0 0
   8 B    1     2.5648     4.8468   46 C    0 0 0

   9 B    1     1.3795     2.6069   81 O    0 0 0
   9 B    1     1.3797     2.6072   83 O    1 1 0
   9 B    1     1.5516     2.9322   71 C    0 0 0
   9 B    1     2.3905     4.5175    7 B    0 1 0
   9 B    1     2.3911     4.5185   11 B    0 1 0
   9 B    1     2.5651     4.8473   69 C    1 1 0

  10 B    1     1.3795     2.6069   82 O   -1 0 0
  10 B    1     1.3797     2.6072   84 O    0 0 0
  10 B    1     1.5516     2.9322   72 C    0 0 0
  10 B    1     2.3905     4.5175    8 B   -1 0 0
  10 B    1     2.3911     4.5185   12 B   -1 0 0
  10 B    1     2.5651     4.8473   70 C    0 0 0

  11 B    1     1.3795     2.6068   79 O    0 0 0
  11 B    1     1.3796     2.6071   83 O    1 0 0
  11 B    1     1.5516     2.9322   59 C    0 0 0
  11 B    1     2.3905     4.5174    7 B    0 0 0
  11 B    1     2.3911     4.5185    9 B    0-1 0
  11 B    1     2.5651     4.8473   57 C    1 0 0

  12 B    1     1.3795     2.6068   80 O    0 0 0
  12 B    1     1.3796     2.6071   84 O    1 0 0
  12 B    1     1.5516     2.9322   60 C    0 0 0
  12 B    1     2.3905     4.5174    8 B    0 0 0
  12 B    1     2.3911     4.5185   10 B    1 0 0
  12 B    1     2.5651     4.8473   58 C    1 0 0

  13 H    1     1.0913     2.0623   39 C    0 0 0
  13 H    1     2.1472     4.0576   37 C    0 0 0
  13 H    1     2.1680     4.0969   45 C    0 0 0
  13 H    1     2.5202     4.7625   19 H    0 0 0
  13 H    1     2.5676     4.8520   75 O    0 0 0
  13 H    1     2.7321     5.1630    3 B    0 0 0

  14 H    1     1.0913     2.0623   40 C    0 0 0
  14 H    1     2.1472     4.0576   38 C    0 0 0
  14 H    1     2.1680     4.0969   46 C    0 0 0
  14 H    1     2.5202     4.7625   20 H    0 0 0
  14 H    1     2.5676     4.8520   76 O    0 0 0
  14 H    1     2.7321     5.1630    4 B    0 0 0

  15 H    1     1.0914     2.0625   41 C    0 0 0
  15 H    1     2.1493     4.0616   47 C    0 0 0
  15 H    1     2.1666     4.0942   43 C    0 0 0
  15 H    1     2.5198     4.7618   17 H    0 0 0
  15 H    1     2.5720     4.8604   79 O    0 0 0
  15 H    1     2.7362     5.1707    7 B    0 0 0

  16 H    1     1.0914     2.0625   42 C    0 0 0
  16 H    1     2.1493     4.0616   48 C    0 0 0
  16 H    1     2.1666     4.0942   44 C    0 0 0
  16 H    1     2.5198     4.7618   18 H    0 0 0
  16 H    1     2.5720     4.8604   80 O    0 0 0
  16 H    1     2.7362     5.1707    8 B    0 0 0

  17 H    1     1.0914     2.0624   43 C    0 0 0
  17 H    1     2.1471     4.0575   37 C    0-1 0
  17 H    1     2.1680     4.0970   41 C    0 0 0
  17 H    1     2.5198     4.7618   15 H    0 0 0
  17 H    1     2.5665     4.8500   77 O    0 0 0
  17 H    1     2.7315     5.1618    3 B    0-1 0

  18 H    1     1.0914     2.0624   44 C    0 0 0
  18 H    1     2.1471     4.0575   38 C    0 0 0
  18 H    1     2.1680     4.0970   42 C    0 0 0
  18 H    1     2.5198     4.7618   16 H    0 0 0
  18 H    1     2.5665     4.8500   78 O    0 0 0
  18 H    1     2.7315     5.1618    4 B    0 0 0

  19 H    1     1.0915     2.0626   45 C    0 0 0
  19 H    1     2.1490     4.0610   47 C    0 1 0
  19 H    1     2.1669     4.0948   39 C    0 0 0
  19 H    1     2.5202     4.7625   13 H    0 0 0
  19 H    1     2.5712     4.8588   81 O    0 0 0
  19 H    1     2.7351     5.1686    7 B    0 1 0

  20 H    1     1.0915     2.0626   46 C    0 0 0
  20 H    1     2.1490     4.0610   48 C    0 0 0
  20 H    1     2.1669     4.0948   40 C    0 0 0
  20 H    1     2.5202     4.7625   14 H    0 0 0
  20 H    1     2.5712     4.8588   82 O    0 0 0
  20 H    1     2.7351     5.1686    8 B    0 0 0

  21 H    1     1.0913     2.0623   51 C    0 0 0
  21 H    1     2.1469     4.0571   49 C   -1 0 0
  21 H    1     2.1680     4.0968   57 C    0 0 0
  21 H    1     2.5198     4.7617   27 H    0 0 0
  21 H    1     2.5670     4.8510   75 O    0 0 0
  21 H    1     2.7310     5.1609    1 B    0 0 0

  22 H    1     1.0913     2.0623   52 C    0 0 0
  22 H    1     2.1469     4.0571   50 C    0 1 0
  22 H    1     2.1680     4.0968   58 C    0 0 0
  22 H    1     2.5198     4.7617   28 H    0 0 0
  22 H    1     2.5670     4.8510   76 O    0 1 0
  22 H    1     2.7310     5.1609    2 B    0 1 0

  23 H    1     1.0914     2.0625   53 C    0 0 0
  23 H    1     2.1493     4.0617   59 C    0 0 0
  23 H    1     2.1664     4.0939   55 C    0 0 0
  23 H    1     2.5192     4.7606   25 H    0 0 0
  23 H    1     2.5735     4.8632   79 O    0 0 0
  23 H    1     2.7371     5.1723   11 B    0 0 0

  24 H    1     1.0914     2.0625   54 C    0 0 0
  24 H    1     2.1493     4.0617   60 C    0 0 0
  24 H    1     2.1664     4.0939   56 C    0 0 0
  24 H    1     2.5192     4.7606   26 H    0 0 0
  24 H    1     2.5735     4.8632   80 O    0 0 0
  24 H    1     2.7371     5.1723   12 B    0 0 0

  25 H    1     1.0914     2.0624   55 C    0 0 0
  25 H    1     2.1475     4.0581   49 C    0 0 0
  25 H    1     2.1679     4.0967   53 C    0 0 0
  25 H    1     2.5192     4.7606   23 H    0 0 0
  25 H    1     2.5675     4.8519   73 O    0 0 0
  25 H    1     2.7328     5.1643    1 B    1 0 0

  26 H    1     1.0914     2.0624   56 C    0 0 0
  26 H    1     2.1475     4.0581   50 C    1 1 0
  26 H    1     2.1679     4.0967   54 C    0 0 0
  26 H    1     2.5192     4.7606   24 H    0 0 0
  26 H    1     2.5675     4.8519   74 O    1 1 0
  26 H    1     2.7328     5.1643    2 B    1 1 0

  27 H    1     1.0914     2.0625   57 C    0 0 0
  27 H    1     2.1491     4.0612   59 C   -1 0 0
  27 H    1     2.1666     4.0942   51 C    0 0 0
  27 H    1     2.5198     4.7617   21 H    0 0 0
  27 H    1     2.5723     4.8609   83 O    0 0 0
  27 H    1     2.7355     5.1693   11 B   -1 0 0

  28 H    1     1.0914     2.0625   58 C    0 0 0
  28 H    1     2.1491     4.0612   60 C   -1 0 0
  28 H    1     2.1666     4.0942   52 C    0 0 0
  28 H    1     2.5198     4.7617   22 H    0 0 0
  28 H    1     2.5723     4.8609   84 O    0 0 0
  28 H    1     2.7355     5.1693   12 B   -1 0 0

  29 H    1     1.0914     2.0624   63 C    0 0 0
  29 H    1     2.1475     4.0582   61 C   -1-1 0
  29 H    1     2.1678     4.0966   69 C    0 0 0
  29 H    1     2.5200     4.7621   35 H    0 0 0
  29 H    1     2.5667     4.8503   77 O    0 0 0
  29 H    1     2.7315     5.1618    5 B    0 0 0

  30 H    1     1.0914     2.0624   64 C    0 0 0
  30 H    1     2.1475     4.0582   62 C    0 0 0
  30 H    1     2.1678     4.0966   70 C    0 0 0
  30 H    1     2.5200     4.7621   36 H    0 0 0
  30 H    1     2.5667     4.8503   78 O    0 0 0
  30 H    1     2.7315     5.1618    6 B    0 0 0

  31 H    1     1.0913     2.0623   65 C    0 0 0
  31 H    1     2.1487     4.0605   71 C    0 0 0
  31 H    1     2.1667     4.0945   67 C    0 0 0
  31 H    1     2.5197     4.7616   33 H    0 0 0
  31 H    1     2.5723     4.8610   81 O    0 0 0
  31 H    1     2.7359     5.1701    9 B    0 0 0

  32 H    1     1.0913     2.0623   66 C    0 0 0
  32 H    1     2.1487     4.0605   72 C    0 0 0
  32 H    1     2.1667     4.0945   68 C    0 0 0
  32 H    1     2.5197     4.7616   34 H    0 0 0
  32 H    1     2.5723     4.8610   82 O   -1 0 0
  32 H    1     2.7359     5.1701   10 B    0 0 0

  33 H    1     1.0915     2.0626   67 C    0 0 0
  33 H    1     2.1479     4.0589   61 C    0 0 0
  33 H    1     2.1679     4.0968   65 C    0 0 0
  33 H    1     2.5197     4.7616   31 H    0 0 0
  33 H    1     2.5677     4.8522   73 O    0 0 0
  33 H    1     2.7331     5.1648    5 B    1 1 0

  34 H    1     1.0915     2.0626   68 C    0 0 0
  34 H    1     2.1479     4.0589   62 C    0 0 0
  34 H    1     2.1679     4.0968   66 C    0 0 0
  34 H    1     2.5197     4.7616   32 H    0 0 0
  34 H    1     2.5677     4.8522   74 O    0 0 0
  34 H    1     2.7331     5.1648    6 B    0 0 0

  35 H    1     1.0914     2.0624   69 C    0 0 0
  35 H    1     2.1486     4.0602   71 C   -1-1 0
  35 H    1     2.1668     4.0947   63 C    0 0 0
  35 H    1     2.5200     4.7621   29 H    0 0 0
  35 H    1     2.5717     4.8598   83 O    0 0 0
  35 H    1     2.7349     5.1682    9 B   -1-1 0

  36 H    1     1.0914     2.0624   70 C    0 0 0
  36 H    1     2.1486     4.0602   72 C    0 0 0
  36 H    1     2.1668     4.0947   64 C    0 0 0
  36 H    1     2.5200     4.7621   30 H    0 0 0
  36 H    1     2.5717     4.8598   84 O    0 0 0
  36 H    1     2.7349     5.1682   10 B    0 0 0

  37 C    1     1.4020     2.6495   43 C    0 1 0
  37 C    1     1.4021     2.6495   39 C    0 0 0
  37 C    1     1.5504     2.9298    3 B    0 0 0
  37 C    1     2.1471     4.0575   17 H    0 1 0
  37 C    1     2.1472     4.0576   13 H    0 0 0
  37 C    1     2.4246     4.5817   41 C    0 1 0

  38 C    1     1.4020     2.6495   44 C    0 0 0
  38 C    1     1.4021     2.6495   40 C    0 0 0
  38 C    1     1.5504     2.9298    4 B    0 0 0
  38 C    1     2.1471     4.0575   18 H    0 0 0
  38 C    1     2.1472     4.0576   14 H    0 0 0
  38 C    1     2.4246     4.5817   42 C    0 0 0

  39 C    1     1.0913     2.0623   13 H    0 0 0
  39 C    1     1.3914     2.6294   45 C    0 0 0
  39 C    1     1.4021     2.6495   37 C    0 0 0
  39 C    1     2.1669     4.0948   19 H    0 0 0
  39 C    1     2.4177     4.5688   43 C    0 1 0
  39 C    1     2.4250     4.5825   47 C    0 1 0

  40 C    1     1.0913     2.0623   14 H    0 0 0
  40 C    1     1.3914     2.6294   46 C    0 0 0
  40 C    1     1.4021     2.6495   38 C    0 0 0
  40 C    1     2.1669     4.0948   20 H    0 0 0
  40 C    1     2.4177     4.5688   44 C    0 0 0
  40 C    1     2.4250     4.5825   48 C    0 0 0

  41 C    1     1.0914     2.0625   15 H    0 0 0
  41 C    1     1.3914     2.6293   43 C    0 0 0
  41 C    1     1.4026     2.6505   47 C    0 0 0
  41 C    1     2.1680     4.0970   17 H    0 0 0
  41 C    1     2.4182     4.5697   45 C    0-1 0
  41 C    1     2.4246     4.5817   37 C    0-1 0

  42 C    1     1.0914     2.0625   16 H    0 0 0
  42 C    1     1.3914     2.6293   44 C    0 0 0
  42 C    1     1.4026     2.6505   48 C    0 0 0
  42 C    1     2.1680     4.0970   18 H    0 0 0
  42 C    1     2.4182     4.5697   46 C    0 0 0
  42 C    1     2.4246     4.5817   38 C    0 0 0

  43 C    1     1.0914     2.0624   17 H    0 0 0
  43 C    1     1.3914     2.6293   41 C    0 0 0
  43 C    1     1.4020     2.6495   37 C    0-1 0
  43 C    1     2.1666     4.0942   15 H    0 0 0
  43 C    1     2.4177     4.5688   39 C    0-1 0
  43 C    1     2.4250     4.5826   47 C    0 0 0

  44 C    1     1.0914     2.0624   18 H    0 0 0
  44 C    1     1.3914     2.6293   42 C    0 0 0
  44 C    1     1.4020     2.6495   38 C    0 0 0
  44 C    1     2.1666     4.0942   16 H    0 0 0
  44 C    1     2.4177     4.5688   40 C    0 0 0
  44 C    1     2.4250     4.5826   48 C    0 0 0

  45 C    1     1.0915     2.0626   19 H    0 0 0
  45 C    1     1.3914     2.6294   39 C    0 0 0
  45 C    1     1.4025     2.6504   47 C    0 1 0
  45 C    1     2.1680     4.0969   13 H    0 0 0
  45 C    1     2.4182     4.5697   41 C    0 1 0
  45 C    1     2.4246     4.5818   37 C    0 0 0

  46 C    1     1.0915     2.0626   20 H    0 0 0
  46 C    1     1.3914     2.6294   40 C    0 0 0
  46 C    1     1.4025     2.6504   48 C    0 0 0
  46 C    1     2.1680     4.0969   14 H    0 0 0
  46 C    1     2.4182     4.5697   42 C    0 0 0
  46 C    1     2.4246     4.5818   38 C    0 0 0

  47 C    1     1.4025     2.6504   45 C    0-1 0
  47 C    1     1.4026     2.6505   41 C    0 0 0
  47 C    1     1.5513     2.9316    7 B    0 0 0
  47 C    1     2.1490     4.0610   19 H    0-1 0
  47 C    1     2.1493     4.0616   15 H    0 0 0
  47 C    1     2.4250     4.5825   39 C    0-1 0

  48 C    1     1.4025     2.6504   46 C    0 0 0
  48 C    1     1.4026     2.6505   42 C    0 0 0
  48 C    1     1.5513     2.9316    8 B    0 0 0
  48 C    1     2.1490     4.0610   20 H    0 0 0
  48 C    1     2.1493     4.0616   16 H    0 0 0
  48 C    1     2.4250     4.5825   40 C    0 0 0

  49 C    1     1.4020     2.6494   51 C    1 0 0
  49 C    1     1.4021     2.6495   55 C    0 0 0
  49 C    1     1.5503     2.9297    1 B    1 0 0
  49 C    1     2.1469     4.0571   21 H    1 0 0
  49 C    1     2.1475     4.0581   25 H    0 0 0
  49 C    1     2.4246     4.5818   53 C    0 0 0

  50 C    1     1.4020     2.6494   52 C    0-1 0
  50 C    1     1.4021     2.6495   56 C   -1-1 0
  50 C    1     1.5503     2.9297    2 B    0 0 0
  50 C    1     2.1469     4.0571   22 H    0-1 0
  50 C    1     2.1475     4.0581   26 H   -1-1 0
  50 C    1     2.4246     4.5818   54 C   -1-1 0

  51 C    1     1.0913     2.0623   21 H    0 0 0
  51 C    1     1.3914     2.6293   57 C    0 0 0
  51 C    1     1.4020     2.6494   49 C   -1 0 0
  51 C    1     2.1666     4.0942   27 H    0 0 0
  51 C    1     2.4175     4.5684   55 C   -1 0 0
  51 C    1     2.4251     4.5828   59 C   -1 0 0

  52 C    1     1.0913     2.0623   22 H    0 0 0
  52 C    1     1.3914     2.6293   58 C    0 0 0
  52 C    1     1.4020     2.6494   50 C    0 1 0
  52 C    1     2.1666     4.0942   28 H    0 0 0
  52 C    1     2.4175     4.5684   56 C   -1 0 0
  52 C    1     2.4251     4.5828   60 C   -1 0 0

  53 C    1     1.0914     2.0625   23 H    0 0 0
  53 C    1     1.3915     2.6295   55 C    0 0 0
  53 C    1     1.4026     2.6505   59 C    0 0 0
  53 C    1     2.1679     4.0967   25 H    0 0 0
  53 C    1     2.4179     4.5691   57 C    1 0 0
  53 C    1     2.4246     4.5818   49 C    0 0 0

  54 C    1     1.0914     2.0625   24 H    0 0 0
  54 C    1     1.3915     2.6295   56 C    0 0 0
  54 C    1     1.4026     2.6505   60 C    0 0 0
  54 C    1     2.1679     4.0967   26 H    0 0 0
  54 C    1     2.4179     4.5691   58 C    1 0 0
  54 C    1     2.4246     4.5818   50 C    1 1 0

  55 C    1     1.0914     2.0624   25 H    0 0 0
  55 C    1     1.3915     2.6295   53 C    0 0 0
  55 C    1     1.4021     2.6495   49 C    0 0 0
  55 C    1     2.1664     4.0939   23 H    0 0 0
  55 C    1     2.4175     4.5684   51 C    1 0 0
  55 C    1     2.4253     4.5832   59 C    0 0 0

  56 C    1     1.0914     2.0624   26 H    0 0 0
  56 C    1     1.3915     2.6295   54 C    0 0 0
  56 C    1     1.4021     2.6495   50 C    1 1 0
  56 C    1     2.1664     4.0939   24 H    0 0 0
  56 C    1     2.4175     4.5684   52 C    1 0 0
  56 C    1     2.4253     4.5832   60 C    0 0 0

  57 C    1     1.0914     2.0625   27 H    0 0 0
  57 C    1     1.3914     2.6293   51 C    0 0 0
  57 C    1     1.4025     2.6504   59 C   -1 0 0
  57 C    1     2.1680     4.0968   21 H    0 0 0
  57 C    1     2.4179     4.5691   53 C   -1 0 0
  57 C    1     2.4247     4.5819   49 C   -1 0 0

  58 C    1     1.0914     2.0625   28 H    0 0 0
  58 C    1     1.3914     2.6293   52 C    0 0 0
  58 C    1     1.4025     2.6504   60 C   -1 0 0
  58 C    1     2.1680     4.0968   22 H    0 0 0
  58 C    1     2.4179     4.5691   54 C   -1 0 0
  58 C    1     2.4247     4.5819   50 C    0 1 0

  59 C    1     1.4025     2.6504   57 C    1 0 0
  59 C    1     1.4026     2.6505   53 C    0 0 0
  59 C    1     1.5516     2.9322   11 B    0 0 0
  59 C    1     2.1491     4.0612   27 H    1 0 0
  59 C    1     2.1493     4.0617   23 H    0 0 0
  59 C    1     2.4251     4.5828   51 C    1 0 0

  60 C    1     1.4025     2.6504   58 C    1 0 0
  60 C    1     1.4026     2.6505   54 C    0 0 0
  60 C    1     1.5516     2.9322   12 B    0 0 0
  60 C    1     2.1491     4.0612   28 H    1 0 0
  60 C    1     2.1493     4.0617   24 H    0 0 0
  60 C    1     2.4251     4.5828   52 C    1 0 0

  61 C    1     1.4021     2.6496   63 C    1 1 0
  61 C    1     1.4021     2.6497   67 C    0 0 0
  61 C    1     1.5502     2.9294    5 B    1 1 0
  61 C    1     2.1475     4.0582   29 H    1 1 0
  61 C    1     2.1479     4.0589   33 H    0 0 0
  61 C    1     2.4244     4.5814   65 C    0 0 0

  62 C    1     1.4021     2.6496   64 C    0 0 0
  62 C    1     1.4021     2.6497   68 C    0 0 0
  62 C    1     1.5502     2.9294    6 B    0 0 0
  62 C    1     2.1475     4.0582   30 H    0 0 0
  62 C    1     2.1479     4.0589   34 H    0 0 0
  62 C    1     2.4244     4.5814   66 C    0 0 0

  63 C    1     1.0914     2.0624   29 H    0 0 0
  63 C    1     1.3914     2.6293   69 C    0 0 0
  63 C    1     1.4021     2.6496   61 C   -1-1 0
  63 C    1     2.1668     4.0947   35 H    0 0 0
  63 C    1     2.4179     4.5692   67 C   -1-1 0
  63 C    1     2.4251     4.5827   71 C   -1-1 0

  64 C    1     1.0914     2.0624   30 H    0 0 0
  64 C    1     1.3914     2.6293   70 C    0 0 0
  64 C    1     1.4021     2.6496   62 C    0 0 0
  64 C    1     2.1668     4.0947   36 H    0 0 0
  64 C    1     2.4179     4.5692   68 C    0 0 0
  64 C    1     2.4251     4.5827   72 C    0 0 0

  65 C    1     1.0913     2.0623   31 H    0 0 0
  65 C    1     1.3914     2.6294   67 C    0 0 0
  65 C    1     1.4025     2.6504   71 C    0 0 0
  65 C    1     2.1679     4.0968   33 H    0 0 0
  65 C    1     2.4178     4.5690   69 C    1 1 0
  65 C    1     2.4244     4.5814   61 C    0 0 0

  66 C    1     1.0913     2.0623   32 H    0 0 0
  66 C    1     1.3914     2.6294   68 C    0 0 0
  66 C    1     1.4025     2.6504   72 C    0 0 0
  66 C    1     2.1679     4.0968   34 H    0 0 0
  66 C    1     2.4178     4.5690   70 C    0 0 0
  66 C    1     2.4244     4.5814   62 C    0 0 0

  67 C    1     1.0915     2.0626   33 H    0 0 0
  67 C    1     1.3914     2.6294   65 C    0 0 0
  67 C    1     1.4021     2.6497   61 C    0 0 0
  67 C    1     2.1667     4.0945   31 H    0 0 0
  67 C    1     2.4179     4.5692   63 C    1 1 0
  67 C    1     2.4253     4.5832   71 C    0 0 0

  68 C    1     1.0915     2.0626   34 H    0 0 0
  68 C    1     1.3914     2.6294   66 C    0 0 0
  68 C    1     1.4021     2.6497   62 C    0 0 0
  68 C    1     2.1667     4.0945   32 H    0 0 0
  68 C    1     2.4179     4.5692   64 C    0 0 0
  68 C    1     2.4253     4.5832   72 C    0 0 0

  69 C    1     1.0914     2.0624   35 H    0 0 0
  69 C    1     1.3914     2.6293   63 C    0 0 0
  69 C    1     1.4025     2.6503   71 C   -1-1 0
  69 C    1     2.1678     4.0966   29 H    0 0 0
  69 C    1     2.4178     4.5690   65 C   -1-1 0
  69 C    1     2.4245     4.5817   61 C   -1-1 0

  70 C    1     1.0914     2.0624   36 H    0 0 0
  70 C    1     1.3914     2.6293   64 C    0 0 0
  70 C    1     1.4025     2.6503   72 C    0 0 0
  70 C    1     2.1678     4.0966   30 H    0 0 0
  70 C    1     2.4178     4.5690   66 C    0 0 0
  70 C    1     2.4245     4.5817   62 C    0 0 0

  71 C    1     1.4025     2.6503   69 C    1 1 0
  71 C    1     1.4025     2.6504   65 C    0 0 0
  71 C    1     1.5516     2.9322    9 B    0 0 0
  71 C    1     2.1486     4.0602   35 H    1 1 0
  71 C    1     2.1487     4.0605   31 H    0 0 0
  71 C    1     2.4251     4.5827   63 C    1 1 0

  72 C    1     1.4025     2.6503   70 C    0 0 0
  72 C    1     1.4025     2.6504   66 C    0 0 0
  72 C    1     1.5516     2.9322   10 B    0 0 0
  72 C    1     2.1486     4.0602   36 H    0 0 0
  72 C    1     2.1487     4.0605   32 H    0 0 0
  72 C    1     2.4251     4.5827   64 C    0 0 0

  73 O    1     1.3791     2.6061    1 B    1 0 0
  73 O    1     1.3791     2.6061    5 B    1 1 0
  73 O    1     2.3880     4.5126   75 O    1 0 0
  73 O    1     2.3882     4.5130   77 O    1 1 0
  73 O    1     2.5383     4.7966   61 C    0 0 0
  73 O    1     2.5384     4.7968   49 C    0 0 0

  74 O    1     1.3791     2.6061    2 B    0 0 0
  74 O    1     1.3791     2.6061    6 B    0 0 0
  74 O    1     2.3880     4.5126   76 O    0 0 0
  74 O    1     2.3882     4.5130   78 O    0 0 0
  74 O    1     2.5383     4.7966   62 C    0 0 0
  74 O    1     2.5384     4.7968   50 C    0 0 0

  75 O    1     1.3793     2.6065    1 B    0 0 0
  75 O    1     1.3793     2.6065    3 B    0 0 0
  75 O    1     2.3880     4.5126   73 O   -1 0 0
  75 O    1     2.3882     4.5131   77 O    0 1 0
  75 O    1     2.5391     4.7981   37 C    0 0 0
  75 O    1     2.5395     4.7990   49 C   -1 0 0

  76 O    1     1.3793     2.6065    2 B    0 0 0
  76 O    1     1.3793     2.6065    4 B    0 0 0
  76 O    1     2.3880     4.5126   74 O    0 0 0
  76 O    1     2.3882     4.5131   78 O    0 0 0
  76 O    1     2.5391     4.7981   38 C    0 0 0
  76 O    1     2.5395     4.7990   50 C    0 0 0

  77 O    1     1.3793     2.6064    5 B    0 0 0
  77 O    1     1.3793     2.6065    3 B    0-1 0
  77 O    1     2.3882     4.5130   73 O   -1-1 0
  77 O    1     2.3882     4.5131   75 O    0-1 0
  77 O    1     2.5390     4.7980   37 C    0-1 0
  77 O    1     2.5391     4.7982   61 C   -1-1 0

  78 O    1     1.3793     2.6064    6 B    0 0 0
  78 O    1     1.3793     2.6065    4 B    0 0 0
  78 O    1     2.3882     4.5130   74 O    0 0 0
  78 O    1     2.3882     4.5131   76 O    0 0 0
  78 O    1     2.5390     4.7980   38 C    0 0 0
  78 O    1     2.5391     4.7982   62 C    0 0 0

  79 O    1     1.3795     2.6068   11 B    0 0 0
  79 O    1     1.3795     2.6068    7 B    0 0 0
  79 O    1     2.3880     4.5126   83 O    1 0 0
  79 O    1     2.3884     4.5134   81 O    0-1 0
  79 O    1     2.5400     4.7998   47 C    0 0 0
  79 O    1     2.5403     4.8005   59 C    0 0 0

  80 O    1     1.3795     2.6068   12 B    0 0 0
  80 O    1     1.3795     2.6068    8 B    0 0 0
  80 O    1     2.3880     4.5126   84 O    1 0 0
  80 O    1     2.3884     4.5134   82 O    0 0 0
  80 O    1     2.5400     4.7998   48 C    0 0 0
  80 O    1     2.5403     4.8005   60 C    0 0 0

  81 O    1     1.3795     2.6069    9 B    0 0 0
  81 O    1     1.3795     2.6070    7 B    0 1 0
  81 O    1     2.3881     4.5128   83 O    1 1 0
  81 O    1     2.3884     4.5134   79 O    0 1 0
  81 O    1     2.5404     4.8006   47 C    0 1 0
  81 O    1     2.5405     4.8008   71 C    0 0 0

  82 O    1     1.3795     2.6069   10 B    1 0 0
  82 O    1     1.3795     2.6070    8 B    0 0 0
  82 O    1     2.3881     4.5128   84 O    1 0 0
  82 O    1     2.3884     4.5134   80 O    0 0 0
  82 O    1     2.5404     4.8006   48 C    0 0 0
  82 O    1     2.5405     4.8008   72 C    1 0 0

  83 O    1     1.3796     2.6071   11 B   -1 0 0
  83 O    1     1.3797     2.6072    9 B   -1-1 0
  83 O    1     2.3880     4.5126   79 O   -1 0 0
  83 O    1     2.3881     4.5128   81 O   -1-1 0
  83 O    1     2.5409     4.8016   71 C   -1-1 0
  83 O    1     2.5410     4.8019   59 C   -1 0 0

  84 O    1     1.3796     2.6071   12 B   -1 0 0
  84 O    1     1.3797     2.6072   10 B    0 0 0
  84 O    1     2.3880     4.5126   80 O   -1 0 0
  84 O    1     2.3881     4.5128   82 O   -1 0 0
  84 O    1     2.5409     4.8016   72 C    0 0 0
  84 O    1     2.5410     4.8019   60 C   -1 0 0


 SYMMETRY ALLOWED INTERNAL DEGREE(S) OF FREEDOM: 249
 TTTTTTTTTTTTTTTTTTTTTTTTTTTTTT SYMM        TELAPSE        2.61 TCPU        2.61
 TTTTTTTTTTTTTTTTTTTTTTTTTTTTTT INT_SCREEN  TELAPSE        2.82 TCPU        2.82

 DFT PARAMETERS

     ATOM       ELECTRONS   NET CHARGE   R(ANGSTROM)
   1   5  B       5.0000      0.0000     0.89000000
  13   1  H       1.0000      0.0000     1.11000000
  37   6  C       6.0000      0.0000     0.77000000
  73   8  O       8.0000      0.0000     0.74000000

 SIZE OF GRID=    2603186
 TTTTTTTTTTTTTTTTTTTTTTTTTTTTTT MAKE_GRID2  TELAPSE       22.24 TCPU       22.21
 BECKE WEIGHT FUNCTION
 RADSAFE =     2.00
 TOLERANCES - DENSITY:10**- 6; POTENTIAL:10**- 9; GRID WGT:10**-14

 RADIAL INTEGRATION  - INTERVALS (POINTS,UPPER LIMIT):            1( 75,  4.0*R)

 ANGULAR INTEGRATION - INTERVALS (ACCURACY LEVEL [N. POINTS] UPPER LIMIT):
  1(  4[  86]   0.2)  2(  8[ 194]   0.5)  3( 12[ 350]   0.9)  4( 16[ 974]   3.5)
  5( 12[ 350]9999.0)
 TTTTTTTTTTTTTTTTTTTTTTTTTTTTTT INT_CALC    TELAPSE       22.48 TCPU       22.46
 EEEEEEEEEE INT_CALC TERMINATION  DATE 19 02 2026 TIME 20:20:18.8

 *******************************************************************************
 cof-1_z38_L040_serr                                                             
 CRYSTAL - SCF - TYPE OF CALCULATION :  RESTRICTED CLOSED SHELL
 *******************************************************************************

 CAPPA:IS1  2;IS2  2;IS3  8; K PTS MONK NET  20; SYMMOPS:K SPACE   2;G SPACE   1

 TTTTTTTTTTTTTTTTTTTTTTTTTTTTTT SDIK        TELAPSE       24.40 TCPU       49.63

 AAAAAAAAAAAAAAAAAAAAAAAAAAAAAAAAAAAAAAAAAAAAAAAAAAAAAAAAAAAAAAAAAAAAAAAAAAAAAAA
         ATOMIC WAVEFUNCTION(S)


 NUCLEAR CHARGE  5.0  SYMMETRY SPECIES            S    P
 N. ELECTRONS    5.0  NUMBER OF PRIMITIVE GTOS    8    4
                      NUMBER OF CONTRACTED GTOS   4    2
                      NUMBER OF CLOSED SHELLS     2    0
                      OPEN SHELL OCCUPATION       0    1

  ZNUC  SCFIT    TOTAL HF ENERGY   KINETIC ENERGY   VIRIAL THEOREM ACCURACY
   5.0    11    -2.451164084E+01  2.462155050E+01 -1.995536038E+00  1.5E-06

 NUCLEAR CHARGE  1.0  SYMMETRY SPECIES            S
 N. ELECTRONS    1.0  NUMBER OF PRIMITIVE GTOS    4
                      NUMBER OF CONTRACTED GTOS   2
                      NUMBER OF CLOSED SHELLS     0
                      OPEN SHELL OCCUPATION       1

  ZNUC  SCFIT    TOTAL HF ENERGY   KINETIC ENERGY   VIRIAL THEOREM ACCURACY
   1.0     1    -4.977266687E-01  5.190767460E-01 -1.958869132E+00  0.0E+00

 NUCLEAR CHARGE  6.0  SYMMETRY SPECIES            S    P
 N. ELECTRONS    6.0  NUMBER OF PRIMITIVE GTOS    8    4
                      NUMBER OF CONTRACTED GTOS   4    2
                      NUMBER OF CLOSED SHELLS     2    0
                      OPEN SHELL OCCUPATION       0    2

  ZNUC  SCFIT    TOTAL HF ENERGY   KINETIC ENERGY   VIRIAL THEOREM ACCURACY
   6.0     9    -3.766704647E+01  3.775180683E+01 -1.997754800E+00  1.1E-06

 NUCLEAR CHARGE  8.0  SYMMETRY SPECIES            S    P
 N. ELECTRONS    8.0  NUMBER OF PRIMITIVE GTOS    8    4
                      NUMBER OF CONTRACTED GTOS   4    2
                      NUMBER OF CLOSED SHELLS     2    0
                      OPEN SHELL OCCUPATION       0    4

  ZNUC  SCFIT    TOTAL HF ENERGY   KINETIC ENERGY   VIRIAL THEOREM ACCURACY
   8.0    12    -7.477373220E+01  7.477365593E+01 -2.000001020E+00  3.8E-06

 AAAAAAAAAAAAAAAAAAAAAAAAAAAAAAAAAAAAAAAAAAAAAAAAAAAAAAAAAAAAAAAAAAAAAAAAAAAAAAA

 CHARGE NORMALIZATION FACTOR   1.00000000
 TOTAL ATOMIC CHARGES:
   5.0000000   5.0000000   5.0000000   5.0000000   5.0000000   5.0000000
   5.0000000   5.0000000   5.0000000   5.0000000   5.0000000   5.0000000
   1.0000000   1.0000000   1.0000000   1.0000000   1.0000000   1.0000000
   1.0000000   1.0000000   1.0000000   1.0000000   1.0000000   1.0000000
   1.0000000   1.0000000   1.0000000   1.0000000   1.0000000   1.0000000
   1.0000000   1.0000000   1.0000000   1.0000000   1.0000000   1.0000000
   6.0000000   6.0000000   6.0000000   6.0000000   6.0000000   6.0000000
   6.0000000   6.0000000   6.0000000   6.0000000   6.0000000   6.0000000
   6.0000000   6.0000000   6.0000000   6.0000000   6.0000000   6.0000000
   6.0000000   6.0000000   6.0000000   6.0000000   6.0000000   6.0000000
   6.0000000   6.0000000   6.0000000   6.0000000   6.0000000   6.0000000
   6.0000000   6.0000000   6.0000000   6.0000000   6.0000000   6.0000000
   8.0000000   8.0000000   8.0000000   8.0000000   8.0000000   8.0000000
   8.0000000   8.0000000   8.0000000   8.0000000   8.0000000   8.0000000
 TTTTTTTTTTTTTTTTTTTTTTTTTTTTTT MOQGAD      TELAPSE       24.49 TCPU       52.57
 TTTTTTTTTTTTTTTTTTTTTTTTTTTTTT SHELLXN     TELAPSE       40.44 TCPU      562.29
 TTTTTTTTTTTTTTTTTTTTTTTTTTTTTT MONMO3      TELAPSE       41.01 TCPU      580.36
 NUMERICALLY INTEGRATED DENSITY    395.9999792662
 TTTTTTTTTTTTTTTTTTTTTTTTTTTTTT NUMDFT      TELAPSE       42.42 TCPU      625.52
 CYC   0 ETOT(AU) -2.591918270477E+03 DETOT -2.59E+03 tst  0.00E+00 PX  1.00E+00
 TTTTTTTTTTTTTTTTTTTTTTTTTTTTTT DIIS        TELAPSE       42.53 TCPU      628.81
 TTTTTTTTTTTTTTTTTTTTTTTTTTTTTT FDIK        TELAPSE       44.33 TCPU      686.26
 INSULATING STATE
 TOP OF VALENCE BANDS -    BAND    198; K    3; EIG -3.1242711E-01 AU
 TOP OF VALENCE BANDS -    BAND    198; K    1; EIG -3.1254524E-01 AU
 BOTTOM OF VIRTUAL BANDS - BAND    199; K    1; EIG -1.5991670E-01 AU
 INDIRECT ENERGY BAND GAP:   4.1500 eV
 TTTTTTTTTTTTTTTTTTTTTTTTTTTTTT PDIG        TELAPSE       45.85 TCPU      693.16
 CHARGE NORMALIZATION FACTOR   1.00000000
 TOTAL ATOMIC CHARGES:
   4.1527622   4.1484555   4.1622258   4.1658436   4.1624215   4.1660758
   4.1656692   4.1620447   4.1654700   4.1618097   4.1481406   4.1524039
   0.7852863   0.7853508   0.7854646   0.7854011   0.7844896   0.7850468
   0.7851659   0.7846107   0.7856651   0.7859291   0.7860960   0.7858290
   0.7856555   0.7859178   0.7860571   0.7857916   0.7844926   0.7850495
   0.7852311   0.7846719   0.7852380   0.7853016   0.7854583   0.7853941
   6.0451883   6.0429305   6.2664281   6.2661885   6.2661543   6.2663932
   6.2656118   6.2648369   6.2647810   6.2655546   6.0422031   6.0444530
   6.0474672   6.0476900   6.2645002   6.2642924   6.2643629   6.2645695
   6.2644096   6.2641987   6.2643748   6.2645765   6.0464522   6.0462382
   6.0455467   6.0432884   6.2653934   6.2646052   6.2651543   6.2659391
   6.2660598   6.2658152   6.2664302   6.2666723   6.0417368   6.0439761
   8.6954366   8.6925616   8.6955376   8.6926771   8.6984458   8.6908191
   8.6929920   8.6958634   8.6912258   8.6988390   8.6931655   8.6960467
 TTTTTTTTTTTTTTTTTTTTTTTTTTTTTT MOQGAD      TELAPSE       45.94 TCPU      693.26
 TTTTTTTTTTTTTTTTTTTTTTTTTTTTTT SHELLXN     TELAPSE       62.54 TCPU     1222.85
 TTTTTTTTTTTTTTTTTTTTTTTTTTTTTT MONMO3      TELAPSE       63.11 TCPU     1240.91
 NUMERICALLY INTEGRATED DENSITY    395.9999872715
 TTTTTTTTTTTTTTTTTTTTTTTTTTTTTT NUMDFT      TELAPSE       64.55 TCPU     1286.89
 CYC   1 ETOT(AU) -2.577647439319E+03 DETOT  1.43E+01 tst  0.00E+00 PX  1.00E+00
 TTTTTTTTTTTTTTTTTTTTTTTTTTTTTT DIIS        TELAPSE       64.68 TCPU     1291.06
 DIIS TEST: 0.21887E+01 AT SCF   CYCLE   1 - MIX   30 %
 TTTTTTTTTTTTTTTTTTTTTTTTTTTTTT FDIK        TELAPSE       66.51 TCPU     1349.38
 INSULATING STATE
 TOP OF VALENCE BANDS -    BAND    198; K    3; EIG -2.2432067E-01 AU
 TOP OF VALENCE BANDS -    BAND    198; K    1; EIG -2.2440408E-01 AU
 BOTTOM OF VIRTUAL BANDS - BAND    199; K    1; EIG -8.3038618E-02 AU
 INDIRECT ENERGY BAND GAP:   3.8445 eV
 TTTTTTTTTTTTTTTTTTTTTTTTTTTTTT PDIG        TELAPSE       68.04 TCPU     1356.28
 CHARGE NORMALIZATION FACTOR   1.00000000
 TOTAL ATOMIC CHARGES:
   4.6643557   4.6804297   4.6865617   4.7127412   4.6865016   4.7127460
   4.7129311   4.6868301   4.7129158   4.6867914   4.6806497   4.6643081
   0.9124084   0.9018409   0.9019244   0.9124103   0.9193748   0.9147614
   0.9148009   0.9194510   0.9073276   0.8958307   0.8958051   0.9074581
   0.9073107   0.8958142   0.8957847   0.9074045   0.9193703   0.9147519
   0.9148759   0.9195209   0.9123525   0.9017988   0.9019519   0.9123995
   5.8629422   5.8746959   6.1455713   6.1171180   6.1175500   6.1459922
   6.1345182   6.1476834   6.1483351   6.1353071   5.8773775   5.8656360
   5.8813476   5.8980825   6.1388865   6.1494642   6.1502977   6.1395417
   6.1390830   6.1496228   6.1502234   6.1395612   5.9013557   5.8843991
   5.8628588   5.8746449   6.1346406   6.1477440   6.1481859   6.1352268
   6.1457943   6.1172821   6.1171838   6.1457000   5.8776472   5.8658742
   8.3367956   8.3261197   8.3371700   8.3264781   8.3522075   8.3408050
   8.3259837   8.3365918   8.3405223   8.3521186   8.3263809   8.3369604
 TTTTTTTTTTTTTTTTTTTTTTTTTTTTTT MOQGAD      TELAPSE       68.13 TCPU     1356.37
 TTTTTTTTTTTTTTTTTTTTTTTTTTTTTT SHELLXN     TELAPSE       84.73 TCPU     1885.95
 TTTTTTTTTTTTTTTTTTTTTTTTTTTTTT MONMO3      TELAPSE       85.30 TCPU     1903.99
 NUMERICALLY INTEGRATED DENSITY    395.9999831315
 TTTTTTTTTTTTTTTTTTTTTTTTTTTTTT NUMDFT      TELAPSE       86.73 TCPU     1949.85
 CYC   2 ETOT(AU) -2.578035145651E+03 DETOT -3.88E-01 tst  4.06E-03 PX  1.59E-01
 TTTTTTTTTTTTTTTTTTTTTTTTTTTTTT DIIS        TELAPSE       86.89 TCPU     1954.70
 DIIS TEST: 0.89849E+00 AT SCF   CYCLE   2 - DIIS ACTIVE - HISTORY:     2 CYCLES
 TTTTTTTTTTTTTTTTTTTTTTTTTTTTTT FDIK        TELAPSE       88.72 TCPU     2013.19
 INSULATING STATE
 TOP OF VALENCE BANDS -    BAND    198; K    3; EIG -2.3689254E-01 AU
 TOP OF VALENCE BANDS -    BAND    198; K    1; EIG -2.3700868E-01 AU
 BOTTOM OF VIRTUAL BANDS - BAND    199; K    1; EIG -7.9305677E-02 AU
 INDIRECT ENERGY BAND GAP:   4.2882 eV
 TTTTTTTTTTTTTTTTTTTTTTTTTTTTTT PDIG        TELAPSE       90.24 TCPU     2020.10
 CHARGE NORMALIZATION FACTOR   1.00000000
 TOTAL ATOMIC CHARGES:
   4.4737641   4.4727299   4.4903845   4.5064103   4.4904626   4.5065163
   4.5060988   4.4900080   4.5059511   4.4898085   4.4722011   4.4734656
   0.8923041   0.8799010   0.8799563   0.8925650   0.8936403   0.8932821
   0.8934047   0.8936897   0.8862814   0.8793679   0.8797586   0.8863716
   0.8863109   0.8793893   0.8796962   0.8862819   0.8936451   0.8932855
   0.8934602   0.8937608   0.8923071   0.8799361   0.8799402   0.8925058
   5.8990629   5.8894977   6.1581747   6.1681215   6.1677975   6.1578949
   6.1608015   6.1510564   6.1503479   6.1597357   5.8884575   5.8979640
   5.9158842   5.9041485   6.1602350   6.1663243   6.1657355   6.1598627
   6.1603387   6.1664458   6.1656208   6.1598523   5.9027066   5.9148815
   5.8993660   5.8898142   6.1608140   6.1509905   6.1504737   6.1598572
   6.1580923   6.1679206   6.1676552   6.1579232   5.8882323   5.8977134
   8.5176264   8.5141028   8.5177781   8.5142789   8.5209189   8.5054886
   8.5142619   8.5179600   8.5056545   8.5206677   8.5144564   8.5181626
 TTTTTTTTTTTTTTTTTTTTTTTTTTTTTT MOQGAD      TELAPSE       90.33 TCPU     2020.19
 TTTTTTTTTTTTTTTTTTTTTTTTTTTTTT SHELLXN     TELAPSE      106.93 TCPU     2549.72
 TTTTTTTTTTTTTTTTTTTTTTTTTTTTTT MONMO3      TELAPSE      107.50 TCPU     2567.78
 NUMERICALLY INTEGRATED DENSITY    395.9999821779
 TTTTTTTTTTTTTTTTTTTTTTTTTTTTTT NUMDFT      TELAPSE      108.93 TCPU     2613.57
 CYC   3 ETOT(AU) -2.578220853099E+03 DETOT -1.86E-01 tst  6.19E-04 PX  6.58E-02
 TTTTTTTTTTTTTTTTTTTTTTTTTTTTTT DIIS        TELAPSE      109.11 TCPU     2619.19
 DIIS TEST: 0.29577E-01 AT SCF   CYCLE   3 - DIIS ACTIVE - HISTORY:     3 CYCLES
 TTTTTTTTTTTTTTTTTTTTTTTTTTTTTT FDIK        TELAPSE      110.94 TCPU     2677.86
 INSULATING STATE
 TOP OF VALENCE BANDS -    BAND    198; K    3; EIG -2.4660242E-01 AU
 TOP OF VALENCE BANDS -    BAND    198; K    1; EIG -2.4668533E-01 AU
 BOTTOM OF VIRTUAL BANDS - BAND    199; K    1; EIG -8.7645848E-02 AU
 INDIRECT ENERGY BAND GAP:   4.3254 eV
 TTTTTTTTTTTTTTTTTTTTTTTTTTTTTT PDIG        TELAPSE      112.47 TCPU     2684.78
 CHARGE NORMALIZATION FACTOR   1.00000000
 TOTAL ATOMIC CHARGES:
   4.4777744   4.4795330   4.4957460   4.5089425   4.4958094   4.5090463
   4.5090404   4.4958792   4.5088917   4.4956999   4.4795560   4.4775576
   0.8724640   0.8665583   0.8667075   0.8724604   0.8794372   0.8728693
   0.8728794   0.8794681   0.8682278   0.8608325   0.8607331   0.8684634
   0.8682500   0.8608575   0.8606677   0.8683705   0.8794650   0.8728762
   0.8729418   0.8795171   0.8724558   0.8665634   0.8667114   0.8724149
   5.9333487   5.9418746   6.1745157   6.1547147   6.1551666   6.1747570
   6.1622188   6.1776143   6.1788031   6.1639147   5.9448818   5.9363736
   5.9472810   5.9631332   6.1660330   6.1812150   6.1822649   6.1668031
   6.1660038   6.1811764   6.1823169   6.1669692   5.9663446   5.9499148
   5.9333427   5.9419099   6.1621808   6.1775114   6.1788805   6.1640682
   6.1744173   6.1545590   6.1550488   6.1747672   5.9449946   5.9364493
   8.4800486   8.4735535   8.4803452   8.4738292   8.4926886   8.4835835
   8.4736513   8.4798946   8.4835320   8.4932250   8.4739932   8.4802172
 TTTTTTTTTTTTTTTTTTTTTTTTTTTTTT MOQGAD      TELAPSE      112.57 TCPU     2684.87
 TTTTTTTTTTTTTTTTTTTTTTTTTTTTTT SHELLXN     TELAPSE      129.17 TCPU     3214.55
 TTTTTTTTTTTTTTTTTTTTTTTTTTTTTT MONMO3      TELAPSE      129.74 TCPU     3232.61
 NUMERICALLY INTEGRATED DENSITY    395.9999829410
 TTTTTTTTTTTTTTTTTTTTTTTTTTTTTT NUMDFT      TELAPSE      131.17 TCPU     3278.41
 CYC   4 ETOT(AU) -2.578227119979E+03 DETOT -6.27E-03 tst  2.87E-05 PX  1.49E-02
 TTTTTTTTTTTTTTTTTTTTTTTTTTTTTT DIIS        TELAPSE      131.36 TCPU     3284.63
 DIIS TEST: 0.87874E-02 AT SCF   CYCLE   4 - DIIS ACTIVE - HISTORY:     4 CYCLES
 TTTTTTTTTTTTTTTTTTTTTTTTTTTTTT FDIK        TELAPSE      133.20 TCPU     3343.27
 INSULATING STATE
 TOP OF VALENCE BANDS -    BAND    198; K    3; EIG -2.4501320E-01 AU
 TOP OF VALENCE BANDS -    BAND    198; K    1; EIG -2.4510614E-01 AU
 BOTTOM OF VIRTUAL BANDS - BAND    199; K    1; EIG -8.7445769E-02 AU
 INDIRECT ENERGY BAND GAP:   4.2876 eV
 TTTTTTTTTTTTTTTTTTTTTTTTTTTTTT PDIG        TELAPSE      134.73 TCPU     3350.18
 CHARGE NORMALIZATION FACTOR   1.00000000
 TOTAL ATOMIC CHARGES:
   4.4777750   4.4812790   4.4962088   4.5139256   4.4962707   4.5140254
   4.5137924   4.4960609   4.5136578   4.4958811   4.4809483   4.4776060
   0.8769228   0.8669973   0.8670686   0.8771335   0.8809926   0.8778792
   0.8780645   0.8811218   0.8710117   0.8639958   0.8643552   0.8711242
   0.8710214   0.8640010   0.8643065   0.8710463   0.8809999   0.8778797
   0.8781280   0.8811962   0.8769046   0.8670099   0.8670736   0.8770932
   5.9242382   5.9235772   6.1694249   6.1653721   6.1651372   6.1693273
   6.1690073   6.1660020   6.1650411   6.1676092   5.9223708   5.9230284
   5.9429091   5.9397144   6.1697341   6.1760997   6.1755995   6.1693541
   6.1698886   6.1762443   6.1754714   6.1693289   5.9384807   5.9421194
   5.9244658   5.9238222   6.1690263   6.1659582   6.1651033   6.1676919
   6.1694273   6.1652549   6.1649293   6.1692731   5.9222462   5.9228759
   8.4917797   8.4866455   8.4919676   8.4868511   8.4992037   8.4854867
   8.4866877   8.4920520   8.4855008   8.4987103   8.4869245   8.4922778
 TTTTTTTTTTTTTTTTTTTTTTTTTTTTTT MOQGAD      TELAPSE      134.82 TCPU     3350.28
 TTTTTTTTTTTTTTTTTTTTTTTTTTTTTT SHELLXN     TELAPSE      151.42 TCPU     3879.80
 TTTTTTTTTTTTTTTTTTTTTTTTTTTTTT MONMO3      TELAPSE      151.98 TCPU     3897.86
 NUMERICALLY INTEGRATED DENSITY    395.9999828870
 TTTTTTTTTTTTTTTTTTTTTTTTTTTTTT NUMDFT      TELAPSE      153.42 TCPU     3943.82
 CYC   5 ETOT(AU) -2.578229120635E+03 DETOT -2.00E-03 tst  6.21E-06 PX  8.17E-03
 TTTTTTTTTTTTTTTTTTTTTTTTTTTTTT DIIS        TELAPSE      153.64 TCPU     3950.61
 DIIS TEST: 0.27740E-03 AT SCF   CYCLE   5 - DIIS ACTIVE - HISTORY:     5 CYCLES
 TTTTTTTTTTTTTTTTTTTTTTTTTTTTTT FDIK        TELAPSE      155.47 TCPU     4008.72
 INSULATING STATE
 TOP OF VALENCE BANDS -    BAND    198; K    3; EIG -2.4470507E-01 AU
 TOP OF VALENCE BANDS -    BAND    198; K    1; EIG -2.4480092E-01 AU
 BOTTOM OF VIRTUAL BANDS - BAND    199; K    1; EIG -8.6688420E-02 AU
 INDIRECT ENERGY BAND GAP:   4.2999 eV
 TTTTTTTTTTTTTTTTTTTTTTTTTTTTTT PDIG        TELAPSE      157.00 TCPU     4015.63
 CHARGE NORMALIZATION FACTOR   1.00000000
 TOTAL ATOMIC CHARGES:
   4.4783441   4.4812476   4.4966273   4.5122692   4.4966865   4.5123733
   4.5123140   4.4966553   4.5121708   4.4964799   4.4812272   4.4780889
   0.8774173   0.8686252   0.8687848   0.8774385   0.8828319   0.8782202
   0.8781680   0.8828155   0.8730163   0.8649551   0.8648527   0.8732530
   0.8730454   0.8649837   0.8647826   0.8731566   0.8828561   0.8782250
   0.8782297   0.8828675   0.8774146   0.8686374   0.8687855   0.8773881
   5.9194080   5.9217088   6.1715114   6.1603691   6.1607432   6.1716177
   6.1613203   6.1708922   6.1725011   6.1635514   5.9251534   5.9228135
   5.9331861   5.9415704   6.1650595   6.1780933   6.1791679   6.1658853
   6.1649994   6.1780444   6.1792320   6.1660669   5.9448557   5.9358388
   5.9194575   5.9217953   6.1612928   6.1707921   6.1726012   6.1637059
   6.1713741   6.1601722   6.1606474   6.1716673   5.9252002   5.9228283
   8.4916607   8.4852248   8.4919393   8.4854858   8.5003048   8.4897178
   8.4853936   8.4915055   8.4897854   8.5011018   8.4857065   8.4918150
 TTTTTTTTTTTTTTTTTTTTTTTTTTTTTT MOQGAD      TELAPSE      157.09 TCPU     4015.72
 TTTTTTTTTTTTTTTTTTTTTTTTTTTTTT SHELLXN     TELAPSE      173.70 TCPU     4545.60
 TTTTTTTTTTTTTTTTTTTTTTTTTTTTTT MONMO3      TELAPSE      174.27 TCPU     4563.64
 NUMERICALLY INTEGRATED DENSITY    395.9999828467
 TTTTTTTTTTTTTTTTTTTTTTTTTTTTTT NUMDFT      TELAPSE      175.70 TCPU     4609.51
 CYC   6 ETOT(AU) -2.578229136476E+03 DETOT -1.58E-05 tst  2.12E-06 PX  2.30E-03
 TTTTTTTTTTTTTTTTTTTTTTTTTTTTTT DIIS        TELAPSE      175.94 TCPU     4616.27
 DIIS TEST: 0.24309E-03 AT SCF   CYCLE   6 - DIIS ACTIVE - HISTORY:     6 CYCLES
 TTTTTTTTTTTTTTTTTTTTTTTTTTTTTT FDIK        TELAPSE      177.77 TCPU     4674.45
 INSULATING STATE
 TOP OF VALENCE BANDS -    BAND    198; K    3; EIG -2.4475746E-01 AU
 TOP OF VALENCE BANDS -    BAND    198; K    1; EIG -2.4485264E-01 AU
 BOTTOM OF VIRTUAL BANDS - BAND    199; K    1; EIG -8.6828182E-02 AU
 INDIRECT ENERGY BAND GAP:   4.2975 eV
 TTTTTTTTTTTTTTTTTTTTTTTTTTTTTT PDIG        TELAPSE      179.29 TCPU     4681.35
 CHARGE NORMALIZATION FACTOR   1.00000000
 TOTAL ATOMIC CHARGES:
   4.4785061   4.4811868   4.4965538   4.5129259   4.4966173   4.5130275
   4.5128276   4.4964514   4.5126888   4.4962710   4.4809148   4.4782996
   0.8777187   0.8682893   0.8683766   0.8778678   0.8822216   0.8785265
   0.8786601   0.8823169   0.8725292   0.8649171   0.8651480   0.8726706
   0.8725454   0.8649301   0.8650930   0.8725864   0.8822358   0.8785306
   0.8787210   0.8823819   0.8777069   0.8683032   0.8683787   0.8778235
   5.9224580   5.9231652   6.1698249   6.1627197   6.1627011   6.1698300
   6.1653963   6.1682976   6.1679290   6.1648597   5.9231589   5.9224607
   5.9387181   5.9409461   6.1670246   6.1768554   6.1767992   6.1669851
   6.1671173   6.1769421   6.1767266   6.1670199   5.9409983   5.9389200
   5.9226221   5.9233511   6.1653906   6.1682264   6.1680107   6.1649786
   6.1697808   6.1625774   6.1625315   6.1698067   5.9230984   5.9223669
   8.4913285   8.4857798   8.4915452   8.4860036   8.4998894   8.4875861
   8.4858605   8.4914975   8.4875858   8.4997037   8.4861260   8.4917495
 TTTTTTTTTTTTTTTTTTTTTTTTTTTTTT MOQGAD      TELAPSE      179.39 TCPU     4681.45
 TTTTTTTTTTTTTTTTTTTTTTTTTTTTTT SHELLXN     TELAPSE      196.00 TCPU     5211.25
 TTTTTTTTTTTTTTTTTTTTTTTTTTTTTT MONMO3      TELAPSE      196.56 TCPU     5229.30
 NUMERICALLY INTEGRATED DENSITY    395.9999828429
 TTTTTTTTTTTTTTTTTTTTTTTTTTTTTT NUMDFT      TELAPSE      198.00 TCPU     5275.08
 CYC   7 ETOT(AU) -2.578229199416E+03 DETOT -6.29E-05 tst  6.95E-07 PX  1.27E-03
 TTTTTTTTTTTTTTTTTTTTTTTTTTTTTT DIIS        TELAPSE      198.26 TCPU     5281.92
 DIIS TEST: 0.34879E-05 AT SCF   CYCLE   7 - DIIS ACTIVE - HISTORY:     7 CYCLES
 TTTTTTTTTTTTTTTTTTTTTTTTTTTTTT FDIK        TELAPSE      200.08 TCPU     5339.95
 INSULATING STATE
 TOP OF VALENCE BANDS -    BAND    198; K    3; EIG -2.4476159E-01 AU
 TOP OF VALENCE BANDS -    BAND    198; K    1; EIG -2.4485643E-01 AU
 BOTTOM OF VIRTUAL BANDS - BAND    199; K    1; EIG -8.6861628E-02 AU
 INDIRECT ENERGY BAND GAP:   4.2967 eV
 TTTTTTTTTTTTTTTTTTTTTTTTTTTTTT PDIG        TELAPSE      201.61 TCPU     5346.86
 CHARGE NORMALIZATION FACTOR   1.00000000
 TOTAL ATOMIC CHARGES:
   4.4783594   4.4812028   4.4965808   4.5130726   4.4966422   4.5131745
   4.5130273   4.4965191   4.5128882   4.4963407   4.4810287   4.4781474
   0.8776779   0.8682551   0.8683719   0.8777948   0.8822406   0.8785241
   0.8785845   0.8822905   0.8724242   0.8649278   0.8650525   0.8725995
   0.8724440   0.8649452   0.8649928   0.8725119   0.8822561   0.8785265
   0.8786473   0.8823541   0.8776679   0.8682685   0.8683745   0.8777490
   5.9218348   5.9225805   6.1698683   6.1626409   6.1627014   6.1698627
   6.1650314   6.1677857   6.1681489   6.1654966   5.9237520   5.9229798
   5.9382298   5.9405252   6.1670312   6.1766344   6.1769285   6.1672618
   6.1670806   6.1766838   6.1768946   6.1673384   5.9415820   5.9391798
   5.9219764   5.9227493   6.1650293   6.1677160   6.1682282   6.1656120
   6.1698032   6.1624839   6.1625474   6.1698596   5.9237099   5.9229087
   8.4914931   8.4858561   8.4917260   8.4860892   8.4996016   8.4873651
   8.4859575   8.4915448   8.4874133   8.4997677   8.4862316   8.4918122
 TTTTTTTTTTTTTTTTTTTTTTTTTTTTTT MOQGAD      TELAPSE      201.70 TCPU     5346.95
 TTTTTTTTTTTTTTTTTTTTTTTTTTTTTT SHELLXN     TELAPSE      218.32 TCPU     5876.77
 TTTTTTTTTTTTTTTTTTTTTTTTTTTTTT MONMO3      TELAPSE      218.88 TCPU     5894.84
 NUMERICALLY INTEGRATED DENSITY    395.9999828415
 TTTTTTTTTTTTTTTTTTTTTTTTTTTTTT NUMDFT      TELAPSE      220.32 TCPU     5940.87
 CYC   8 ETOT(AU) -2.578229199369E+03 DETOT  4.72E-08 tst  1.84E-08 PX  1.69E-04
 TTTTTTTTTTTTTTTTTTTTTTTTTTTTTT DIIS        TELAPSE      220.60 TCPU     5947.63
 DIIS TEST: 0.16306E-05 AT SCF   CYCLE   8 - DIIS ACTIVE - HISTORY:     8 CYCLES
 TTTTTTTTTTTTTTTTTTTTTTTTTTTTTT FDIK        TELAPSE      222.95 TCPU     6021.29
 INSULATING STATE
 TOP OF VALENCE BANDS -    BAND    198; K    3; EIG -2.4476026E-01 AU
 TOP OF VALENCE BANDS -    BAND    198; K    1; EIG -2.4485504E-01 AU
 BOTTOM OF VIRTUAL BANDS - BAND    199; K    1; EIG -8.6862062E-02 AU
 INDIRECT ENERGY BAND GAP:   4.2966 eV
 TTTTTTTTTTTTTTTTTTTTTTTTTTTTTT PDIG        TELAPSE      224.47 TCPU     6028.20
 CHARGE NORMALIZATION FACTOR   1.00000000
 TOTAL ATOMIC CHARGES:
   4.4783588   4.4812587   4.4965898   4.5130774   4.4966516   4.5131791
   4.5130088   4.4965108   4.5128700   4.4963320   4.4810399   4.4781494
   0.8776421   0.8682698   0.8683727   0.8777727   0.8822548   0.8784729
   0.8785689   0.8823276   0.8724338   0.8648876   0.8650617   0.8725938
   0.8724521   0.8649031   0.8650039   0.8725076   0.8822700   0.8784761
   0.8786308   0.8823914   0.8776314   0.8682832   0.8683751   0.8777276
   5.9220530   5.9228570   6.1699469   6.1625675   6.1625960   6.1699511
   6.1651316   6.1681377   6.1681527   6.1651220   5.9234724   5.9226602
   5.9383155   5.9407903   6.1670526   6.1767832   6.1769144   6.1671557
   6.1671190   6.1768473   6.1768656   6.1672160   5.9413800   5.9389193
   5.9222023   5.9230315   6.1651274   6.1680665   6.1682333   6.1652399
   6.1698899   6.1624170   6.1624362   6.1699397   5.9234244   5.9225811
   8.4914704   8.4858218   8.4916970   8.4860513   8.4997428   8.4874997
   8.4859158   8.4915778   8.4875214   8.4997432   8.4861868   8.4918390
 TTTTTTTTTTTTTTTTTTTTTTTTTTTTTT MOQGAD      TELAPSE      224.57 TCPU     6028.29
 TTTTTTTTTTTTTTTTTTTTTTTTTTTTTT SHELLXN     TELAPSE      241.17 TCPU     6557.91
 +++ ENERGIES IN A.U. +++
 ::: EXT EL-POLE                                  -2.6410763072988E+03
 ::: EXT EL-SPHEROPOLE                             3.0155947654800E+01
 ::: BIELET ZONE E-E                               4.2605218053103E+03
 ::: TOTAL E-E                                     1.6496014456663E+03
 ::: TOTAL E-N + N-E                              -6.9552157590089E+03
 ::: TOTAL N-N                                     4.3497311305778E+02
 ::: KINETIC ENERGY                                2.5598403937198E+03
 ::: PSEUDO TOTAL   ENERGY                        -2.3108008065651E+03
 ::: VIRIAL COEFFICIENT                            1.0511307601841E+00
 TTTTTTTTTTTTTTTTTTTTTTTTTTTTTT MONMO3      TELAPSE      241.74 TCPU     6575.99
 NUMERICALLY INTEGRATED DENSITY    395.9999828411
 EXCHANGE ENERGY: -0.252046139032E+03  CORRELATION ENERGY: -0.153822541118E+02
 TTTTTTTTTTTTTTTTTTTTTTTTTTTTTT NUMDFT      TELAPSE      243.17 TCPU     6621.76
 CYC   9 ETOT(AU) -2.578229199709E+03 DETOT -3.40E-07 tst  4.05E-09 PX  1.69E-04

 == SCF ENDED - CONVERGENCE ON ENERGY      E(AU) -2.5782291997091E+03 CYCLES   9


 ENERGY EXPRESSION=HARTREE+FOCK EXCH*0.00000+(HSESOL     EXCH)*1.00000+PBESOL     CORR


 TOTAL ENERGY(DFT)(AU)(  9) -2.5782291997091E+03 DE-3.4E-07 tester 4.0E-09
 TTTTTTTTTTTTTTTTTTTTTTTTTTTTTT EDFT        TELAPSE      243.17 TCPU     6621.77
 
 INFORMATION **** DFTD3 ENERGY **** CALCULATE DFTD3 ENERGY

           DFT-D V3(BJ)
 DF                                         hsesol3c  
 parameters
 s6       :    1.0000
 s8       :    0.0000
 a1       :    0.5196
 a2       :    4.9385
 k1 k3    :   16.0000   -4.0000
 Cutoff   :   50.2022
 CN-Cutoff:   21.1671
 ABC-Cutoff:   21.1671
 
 Edisp /kcal,au:   -51.5102 -0.08208675

 E6    /kcal :   -54.9179
 E8    /kcal :     0.0000
 E6(ABC) "   :   3.407640
 
 INFORMATION **** DFTD3 ENERGY **** NORMAL TERMINATION OF DFTD3 MODULE

 GCP ENERGY CALCULATION
  level        hsesol3c            basis:hsesol3c
  Nbf            948
  Atoms           84

  Parameters: 
  sigma     1.0000
  eta       1.4281
  alpha     0.2936
  beta      1.9467

  dmp_scal      4.0000
  dmp_exp       6.0000
 cutoffs: 
   distance [bohr] 60.0
   noise    [a.u.] 2.2E-16
 SR-damping   T
 ** gCP correction **
  Egcp:        0.1660577291 / (a.u.) ||     104.2028 / (kcal/mol)
 INFORMATION **** GCP **** NORMAL TERMINATION OF GCP MODULE

 *******************************************************************************

 DFT-D3-GCP DISPERSION AND COUNTERPOISE CORRECTION

 D3 DISPERSION ENERGY (AU)      -8.2086751507871E-02
 GCP ENERGY (AU)                 1.6605772908962E-01
 TOTAL ENERGY + DISP + GCP (AU) -2.5781452287315E+03

 *******************************************************************************

 EIGENVECTORS IN FORTRAN UNIT 10
 TTTTTTTTTTTTTTTTTTTTTTTTTTTTTT END         TELAPSE      246.17 TCPU     6630.71
 EEEEEEEEEE TERMINATION  DATE 19 02 2026 TIME 20:24:02.5
